Martini system
30839
    1CHOL   ROH    1   2.198  13.240   5.343  0.1543 -0.2275  0.1043
    1CHOL    R1    2   2.095  13.399   5.553  0.2395  0.1094 -0.1012
    1CHOL    R2    3   2.032  13.294   5.801 -0.2980  0.3643 -0.1179
    1CHOL    R3    4   2.198  13.490   5.890  0.0333  0.0490 -0.0203
    1CHOL    R4    5   2.037  13.416   6.124 -0.2047  0.3108 -0.0985
    1CHOL    R5    6   2.064  13.617   6.043  0.2019  0.2796 -0.0593
    1CHOL    C1    7   2.197  13.671   6.396  0.1607 -0.0162  0.0046
    1CHOL    C2    8   2.063  13.995   6.536  0.1513 -0.1255 -0.2637
    2XCA    COO    9   9.604  13.395   4.968  0.0564 -0.3968 -0.0254
    2XCA     C1   10   9.955  13.602   5.091  0.0621 -0.1280 -0.0322
    2XCA     C2   11  10.441  13.675   5.209 -0.2902  0.1492  0.1766
    2XCA     C3   12  10.810  14.001   5.373  0.2596 -0.0815 -0.2678
    2XCA     C4   13  11.178  14.155   5.537  0.1052  0.0000  0.1171
    2XCA     C5   14  11.539  14.141   5.197  0.2474 -0.1069 -0.3537
    2XCA     C6   15  11.888  14.117   4.972 -0.0940  0.2986  0.3850
    3XCA    COO   16  15.622  10.267   9.558 -0.0625 -0.1121  0.0506
    3XCA     C1   17  15.910  10.132   9.258 -0.1527 -0.1898 -0.2030
    3XCA     C2   18  15.861   9.859   8.936  0.0815  0.0583 -0.2003
    3XCA     C3   19  15.606   9.947   8.557  0.1098 -0.0893  0.0648
    3XCA     C4   20  15.663   9.939   8.046  0.2947 -0.2184  0.0369
    3XCA     C5   21  15.914  10.134   7.722 -0.1369 -0.1324 -0.0709
    3XCA     C6   22  16.077  10.154   7.266 -0.2671 -0.0578 -0.3092
    4XCA    COO   23   0.343   7.008   5.461  0.0247  0.2507 -0.1382
    4XCA     C1   24   0.125   6.745   5.748  0.2613 -0.1649  0.0779
    4XCA     C2   25  -0.127   6.684   6.042  0.0099  0.1901 -0.0570
    4XCA     C3   26  -0.420   6.416   6.315  0.1765 -0.0511  0.0470
    4XCA     C4   27  -0.559   6.193   6.776 -0.1385 -0.1102  0.0612
    4XCA     C5   28  -0.581   6.315   7.079  0.0216  0.2066 -0.1433
    4XCA     C6   29  -0.490   6.329   7.402  0.1261 -0.1119  0.1581
    5CHOL   ROH   30  12.306   5.863   5.593  0.0006  0.1381 -0.1282
    5CHOL    R1   31  12.126   5.662   5.678  0.0301  0.1286 -0.0860
    5CHOL    R2   32  12.189   5.480   5.877  0.0942  0.1158 -0.1130
    5CHOL    R3   33  11.958   5.572   5.989  0.1266  0.1082 -0.0406
    5CHOL    R4   34  12.014   5.321   6.129  0.1306  0.0741 -0.1146
    5CHOL    R5   35  11.829   5.374   6.028  0.1165  0.1144 -0.0596
    5CHOL    C1   36  11.696   5.314   6.380  0.1824  0.0427 -0.0475
    5CHOL    C2   37  11.759   5.358   6.655 -0.2883  0.2108  0.2345
    6CHOL   ROH   38  13.548   8.627   9.025  0.0493  0.1239  0.0199
    6CHOL    R1   39  13.783   8.716   8.894  0.0340  0.0788 -0.0396
    6CHOL    R2   40  14.016   8.568   8.888  0.0787  0.1369  0.1042
    6CHOL    R3   41  13.993   8.601   8.619  0.0845 -0.0988  0.0727
    6CHOL    R4   42  14.270   8.675   8.680  0.0114  0.1873  0.0476
    6CHOL    R5   43  14.124   8.796   8.572 -0.0770 -0.0244 -0.0691
    6CHOL    C1   44  14.397   8.768   8.307 -0.0224 -0.0048 -0.0148
    6CHOL    C2   45  14.638   8.772   8.155 -0.0519  0.1620 -0.2624
    7XCA    COO   46   4.407  12.212   5.014  0.2247 -0.0614  0.0756
    7XCA     C1   47   4.414  12.309   5.377  0.0993  0.0454  0.2872
    7XCA     C2   48   4.287  12.453   5.783 -0.0166  0.1476 -0.0883
    7XCA     C3   49   4.313  12.734   6.088  0.0706  0.0036  0.5899
    7XCA     C4   50   4.095  12.864   6.351  0.1617  0.1270 -0.2618
    7XCA     C5   51   3.800  13.025   6.611 -0.2920 -0.1865 -0.1277
    7XCA     C6   52   3.505  13.354   6.767 -0.1946 -0.0352 -0.1306
    8CHOL   ROH   53  12.991   5.992   5.764  0.1172 -0.1658 -0.1408
    8CHOL    R1   54  13.028   6.092   6.026  0.0723 -0.1092 -0.1564
    8CHOL    R2   55  13.218   5.990   6.199  0.1047 -0.0049 -0.1391
    8CHOL    R3   56  13.298   6.249   6.213  0.0058  0.0281 -0.1696
    8CHOL    R4   57  13.397   6.128   6.460 -0.2269  0.1531  0.0105
    8CHOL    R5   58  13.274   6.307   6.444 -0.2747  0.1163 -0.2090
    8CHOL    C1   59  13.576   6.452   6.626 -0.5129  0.2761  0.0690
    8CHOL    C2   60  13.648   6.605   6.895  0.1065  0.1110  0.0954
    9PNCE   AM1   61  12.144   2.951   8.451 -0.2647  0.0066 -0.0027
    9PNCE   AM2   62  11.924   3.279   8.446 -0.3420  0.3577  0.1698
    9PNCE   T1A   63  12.306   3.111   8.053 -0.3181 -0.1666  0.2218
    9PNCE   C2A   64  12.235   3.366   7.825  0.1549  0.0371 -0.1915
    9PNCE   C3A   65  12.235   3.439   7.391  0.2640  0.0250 -0.2134
    9PNCE   C1B   66  12.064   3.662   8.222 -0.2284  0.0923 -0.2089
    9PNCE   C2B   67  12.446   3.809   7.986  0.1243 -0.1252 -0.5226
    9PNCE   C3B   68  12.663   3.607   7.640  0.3017  0.1009  0.1774
    9PNCE   D4B   69  13.010   3.658   7.496 -0.0877 -0.1571  0.4432
    9PNCE   C5B   70  13.180   3.710   7.013  0.3069  0.0832 -0.4242
    9PNCE   C6B   71  12.941   3.671   6.602 -0.0834 -0.1389 -0.0872
   10PNCE   AM1   72   9.973   8.559   9.385  0.3520 -0.0915 -0.2676
   10PNCE   AM2   73  10.087   8.380   9.152  0.2864  0.1707 -0.0034
   10PNCE   T1A   74  10.085   8.895   9.105  0.2262  0.1616 -0.1847
   10PNCE   C2A   75  10.210   9.147   8.800 -0.0427  0.1596  0.0094
   10PNCE   C3A   76  10.166   9.639   8.878  0.0838  0.0820 -0.0000
   10PNCE   C1B   77  10.021   8.595   8.700  0.0338 -0.1488 -0.0540
   10PNCE   C2B   78   9.962   8.991   8.409 -0.0277 -0.3371  0.2277
   10PNCE   C3B   79   9.921   9.328   8.200  0.1470 -0.0360  0.0519
   10PNCE   D4B   80   9.675   9.716   8.237 -0.0833  0.1741  0.3986
   10PNCE   C5B   81   9.591   9.832   7.776  0.0433  0.1613  0.1694
   10PNCE   C6B   82   9.812   9.869   7.339 -0.0967  0.1272 -0.0910
   11XCA    COO   83   4.075  11.384   9.355 -0.3525 -0.0349  0.3422
   11XCA     C1   84   3.935  11.527   8.863  0.1810 -0.0900 -0.0076
   11XCA     C2   85   4.242  11.450   8.523  0.2437  0.1610  0.1635
   11XCA     C3   86   4.348  11.210   8.203 -0.1290  0.3082 -0.0410
   11XCA     C4   87   4.241  11.077   7.837  0.0233 -0.1591 -0.4059
   11XCA     C5   88   4.009  11.193   7.587  0.0867  0.0223  0.1283
   11XCA     C6   89   4.057  11.416   7.159  0.1377 -0.3446 -0.1826
   12CHOL   ROH   90   4.720   4.861   9.063 -0.0499 -0.0671 -0.0228
   12CHOL    R1   91   4.702   4.811   8.785 -0.0376 -0.0759 -0.0223
   12CHOL    R2   92   4.555   4.601   8.681 -0.1514  0.0051 -0.0302
   12CHOL    R3   93   4.437   4.798   8.536 -0.0082  0.0688 -0.0614
   12CHOL    R4   94   4.380   4.552   8.387 -0.2907  0.0714  0.0411
   12CHOL    R5   95   4.472   4.733   8.308 -0.1411 -0.0435 -0.0499
   12CHOL    C1   96   4.167   4.709   8.080 -0.2373  0.1697  0.0532
   12CHOL    C2   97   4.110   4.687   7.678 -0.1422  0.0140  0.1122
   13PNCE   AM1   98   9.987   1.747   8.381  0.3369 -0.0461  0.1336
   13PNCE   AM2   99  10.018   2.053   8.387 -0.0396  0.0022 -0.1345
   13PNCE   T1A  100   9.907   1.473   7.953  0.1480 -0.0173 -0.3201
   13PNCE   C2A  101   9.626   1.247   7.728 -0.1306 -0.1092  0.0988
   13PNCE   C3A  102   9.426   1.286   7.352 -0.0887 -0.1353  0.1063
   13PNCE   C1B  103  10.108   1.998   7.937  0.1377 -0.1569 -0.1562
   13PNCE   C2B  104   9.940   1.828   7.522  0.1624  0.0654 -0.1523
   13PNCE   C3B  105   9.866   1.513   7.363  0.2629 -0.1312 -0.1152
   13PNCE   D4B  106  10.015   1.407   6.878  0.0952  0.2293  0.0091
   13PNCE   C5B  107  10.298   1.135   6.871  0.0961 -0.3802 -0.1607
   13PNCE   C6B  108  10.457   0.956   6.545  0.3219 -0.1958  0.1586
   14XCA    COO  109   0.951  11.780   5.317 -0.0088 -0.0742 -0.0417
   14XCA     C1  110   0.822  11.854   5.665  0.2799  0.2070 -0.0093
   14XCA     C2  111   0.817  12.194   5.927  0.0133 -0.2766  0.3367
   14XCA     C3  112   0.694  12.416   6.304  0.1576  0.0444 -0.2315
   14XCA     C4  113   0.545  12.813   6.444 -0.0381 -0.0576  0.2014
   14XCA     C5  114   0.344  13.046   6.563 -0.3478 -0.0506  0.1336
   14XCA     C6  115   0.398  13.429   6.571 -0.1237  0.1059 -0.2494
   15CHOL   ROH  116   8.121   3.200   7.960 -0.1252 -0.0654  0.1127
   15CHOL    R1  117   7.968   3.164   7.725 -0.0306 -0.1056  0.0568
   15CHOL    R2  118   7.777   3.346   7.642 -0.0698 -0.1706  0.0038
   15CHOL    R3  119   7.920   3.342   7.411  0.0119 -0.1012  0.0526
   15CHOL    R4  120   7.642   3.378   7.326  0.0300 -0.1763 -0.0398
   15CHOL    R5  121   7.780   3.224   7.256  0.1010 -0.1266 -0.0094
   15CHOL    C1  122   7.697   3.393   6.924  0.1647 -0.1145 -0.0194
   15CHOL    C2  123   7.380   3.421   6.777 -0.1358 -0.3205  0.1151
   16PNCE   AM1  124   9.927   9.730   9.569 -0.0815 -0.4729  0.1818
   16PNCE   AM2  125   9.955   9.945   9.219  0.0011  0.0572 -0.3108
   16PNCE   T1A  126   9.818   9.441   9.177  0.1975  0.1591 -0.0656
   16PNCE   C2A  127   9.767   9.379   8.671  0.0731  0.2046 -0.3494
   16PNCE   C3A  128   9.470   9.212   8.426 -0.0299  0.1335  0.1286
   16PNCE   C1B  129   9.657   9.840   8.957  0.4185  0.2420 -0.1465
   16PNCE   C2B  130   9.963   9.947   8.566  0.0887  0.0870  0.0283
   16PNCE   C3B  131  10.281   9.677   8.248 -0.2267 -0.0777  0.0253
   16PNCE   D4B  132  10.573   9.810   7.934  0.1126 -0.0503 -0.3469
   16PNCE   C5B  133  10.425  10.252   7.809 -0.3951  0.2976  0.0266
   16PNCE   C6B  134  10.235  10.312   7.440 -0.0364  0.0508  0.0500
   17XCA    COO  135   4.981  15.504   6.599  0.0028 -0.0822 -0.0845
   17XCA     C1  136   4.669  15.804   6.435  0.2015 -0.0317 -0.1436
   17XCA     C2  137   4.349  15.748   6.089 -0.4261 -0.2898  0.1048
   17XCA     C3  138   4.115  15.446   5.933  0.0582  0.1397 -0.3015
   17XCA     C4  139   3.904  15.624   5.592  0.1633 -0.3356  0.2480
   17XCA     C5  140   3.633  15.678   5.302 -0.0784  0.0711  0.0148
   17XCA     C6  141   3.539  15.370   4.928  0.0378 -0.3828  0.0634
   18PNCE   AM1  142   1.585   3.190   8.669  0.2665 -0.1344  0.1685
   18PNCE   AM2  143   1.371   2.946   8.535 -0.1324 -0.2724 -0.1069
   18PNCE   T1A  144   1.417   3.595   8.715  0.1099  0.1630 -0.4404
   18PNCE   C2A  145   1.357   3.935   8.930 -0.2256  0.0246  0.0022
   18PNCE   C3A  146   1.405   4.366   8.763 -0.0072 -0.1788  0.1321
   18PNCE   C1B  147   1.277   3.249   8.177 -0.0609 -0.2170 -0.0959
   18PNCE   C2B  148   1.263   3.469   7.753 -0.0355 -0.1242 -0.0285
   18PNCE   C3B  149   1.123   3.620   7.476 -0.0589  0.2364 -0.1054
   18PNCE   D4B  150   1.154   3.700   7.074  0.2243 -0.3523 -0.1354
   18PNCE   C5B  151   0.878   4.100   7.079  0.1313  0.2867  0.0916
   18PNCE   C6B  152   0.700   4.415   6.977 -0.1525 -0.0057 -0.0516
   19PNCE   AM1  153   4.247   2.374   8.360  0.2244 -0.0058  0.1412
   19PNCE   AM2  154   3.971   2.484   8.447  0.2493 -0.1350  0.0035
   19PNCE   T1A  155   4.126   2.267   7.906  0.1877 -0.1329 -0.1412
   19PNCE   C2A  156   4.029   2.357   7.560  0.0920 -0.0180 -0.1323
   19PNCE   C3A  157   4.081   2.532   7.065 -0.2564  0.0464  0.0532
   19PNCE   C1B  158   4.182   2.840   8.373  0.1234  0.2351  0.1479
   19PNCE   C2B  159   4.348   2.869   7.932 -0.1630  0.0130  0.0097
   19PNCE   C3B  160   4.347   3.146   7.655 -0.0189 -0.1379 -0.1915
   19PNCE   D4B  161   4.757   3.406   7.575  0.0142  0.1005  0.2757
   19PNCE   C5B  162   4.685   3.863   7.538  0.2246 -0.0737 -0.3259
   19PNCE   C6B  163   4.427   4.097   7.782 -0.2110  0.0421  0.1887
   20PNCE   AM1  164   4.321   6.840   9.005  0.1425 -0.0921 -0.0167
   20PNCE   AM2  165   4.042   6.801   9.199 -0.1014  0.0666 -0.1745
   20PNCE   T1A  166   4.543   6.594   8.621 -0.2266  0.3674  0.4488
   20PNCE   C2A  167   4.840   6.528   8.210 -0.2576  0.1072  0.0385
   20PNCE   C3A  168   4.790   6.553   7.865  0.1172 -0.0148  0.0744
   20PNCE   C1B  169   3.806   6.989   8.831 -0.2617 -0.2802 -0.4391
   20PNCE   C2B  170   3.775   7.023   8.443  0.1513  0.0755  0.0022
   20PNCE   C3B  171   3.818   7.042   8.035  0.2045  0.2450  0.0241
   20PNCE   D4B  172   3.864   6.855   7.700  0.0305 -0.0199  0.0834
   20PNCE   C5B  173   4.046   6.677   7.359 -0.4110 -0.1926  0.1867
   20PNCE   C6B  174   4.396   6.759   7.143  0.0202  0.0548 -0.1520
   21XCA    COO  175   7.044  11.501   4.528 -0.0147  0.0945 -0.2727
   21XCA     C1  176   7.135  11.215   4.923  0.0288 -0.1191  0.0930
   21XCA     C2  177   7.371  10.850   5.076  0.0040 -0.1371  0.0472
   21XCA     C3  178   7.350  10.611   5.427 -0.2201 -0.2594  0.0566
   21XCA     C4  179   7.544  10.513   5.829 -0.0740 -0.3336 -0.1180
   21XCA     C5  180   7.459  10.518   6.288  0.0935  0.1024 -0.0289
   21XCA     C6  181   7.696  10.523   6.487 -0.2940 -0.1699 -0.1615
   22PNCE   AM1  182   7.578  14.046   8.037 -0.0369  0.0667  0.1783
   22PNCE   AM2  183   7.812  13.869   7.844 -0.0422  0.0940 -0.2787
   22PNCE   T1A  184   7.306  13.903   7.686 -0.0290 -0.0119 -0.1336
   22PNCE   C2A  185   7.313  13.851   7.133 -0.3312 -0.2362 -0.2790
   22PNCE   C3A  186   7.076  13.850   6.833 -0.2460 -0.0391  0.0082
   22PNCE   C1B  187   7.728  13.707   7.425  0.0887  0.2288  0.2779
   22PNCE   C2B  188   7.683  13.449   7.084 -0.0435  0.0412  0.0230
   22PNCE   C3B  189   7.641  13.060   6.814 -0.0114  0.0472 -0.4388
   22PNCE   D4B  190   7.367  12.663   6.665 -0.3766  0.1320 -0.1092
   22PNCE   C5B  191   7.011  12.751   6.735  0.0817  0.1304 -0.3558
   22PNCE   C6B  192   6.743  12.347   6.723 -0.0373  0.0611  0.0400
   23PNCE   AM1  193   3.120   7.252   9.791  0.2052  0.2807 -0.2448
   23PNCE   AM2  194   3.202   6.958   9.839 -0.1980  0.0350 -0.2539
   23PNCE   T1A  195   3.370   7.371   9.402 -0.0348  0.0526 -0.1292
   23PNCE   C2A  196   3.335   7.627   9.018 -0.0519 -0.0946 -0.0107
   23PNCE   C3A  197   3.330   7.791   8.687  0.1011 -0.5128 -0.0449
   23PNCE   C1B  198   3.010   6.989   9.379 -0.3300 -0.0385 -0.0434
   23PNCE   C2B  199   3.224   7.092   8.993 -0.1044 -0.1951  0.1305
   23PNCE   C3B  200   3.358   7.272   8.633 -0.3555 -0.0242 -0.0200
   23PNCE   D4B  201   3.530   7.460   8.209 -0.0184  0.2324 -0.3201
   23PNCE   C5B  202   3.469   7.541   7.820  0.1433  0.1818 -0.3785
   23PNCE   C6B  203   3.102   7.558   7.589 -0.0237  0.2042  0.0047
   24PNCE   AM1  204   3.205   9.560   9.443 -0.1208  0.1137  0.0318
   24PNCE   AM2  205   3.068   9.341   9.717 -0.2303 -0.2662  0.1898
   24PNCE   T1A  206   2.923   9.382   9.141 -0.0101  0.0812  0.3455
   24PNCE   C2A  207   2.558   9.124   9.048 -0.2474 -0.3495  0.0592
   24PNCE   C3A  208   2.419   8.825   8.693  0.0632 -0.1935 -0.2447
   24PNCE   C1B  209   3.314   8.975   9.449 -0.1639 -0.4707 -0.1943
   24PNCE   C2B  210   3.395   9.069   9.072 -0.0181  0.3729  0.0289
   24PNCE   C3B  211   3.457   9.188   8.755  0.1145  0.0486 -0.0120
   24PNCE   D4B  212   3.480   9.027   8.324 -0.1576  0.2870 -0.1189
   24PNCE   C5B  213   3.103   8.893   8.065 -0.0567 -0.1758 -0.3700
   24PNCE   C6B  214   3.030   8.719   7.639 -0.2973  0.5521 -0.1733
   25XCA    COO  215   0.050   1.588   7.652  0.0720 -0.0181  0.1390
   25XCA     C1  216   0.276   1.416   7.322 -0.2420 -0.2092  0.2001
   25XCA     C2  217   0.504   1.438   6.910  0.0767  0.2444  0.1363
   25XCA     C3  218   0.736   1.191   6.579 -0.2511  0.0868  0.0126
   25XCA     C4  219   1.150   1.059   6.509 -0.4378  0.4363  0.1352
   25XCA     C5  220   1.431   1.200   6.231 -0.3099 -0.3583  0.1338
   25XCA     C6  221   1.674   1.338   5.884 -0.2945  0.0184  0.0742
   26CHOL   ROH  222   3.524  12.274   8.587 -0.2452  0.0653  0.1550
   26CHOL    R1  223   3.510  12.194   8.315 -0.1375  0.0987  0.1394
   26CHOL    R2  224   3.595  11.946   8.228  0.0159  0.1577  0.1219
   26CHOL    R3  225   3.344  11.932   8.125  0.0474  0.0383  0.0582
   26CHOL    R4  226   3.503  11.755   7.955  0.1539  0.0318  0.1617
   26CHOL    R5  227   3.377  11.920   7.889  0.1160 -0.0323  0.0705
   26CHOL    C1  228   3.214  11.632   7.699  0.2637 -0.1534  0.1249
   26CHOL    C2  229   3.067  11.698   7.389  0.3732  0.3776 -0.0006
   27PNCE   AM1  230  11.502   5.678   8.314 -0.0568 -0.1781 -0.0455
   27PNCE   AM2  231  11.721   5.848   8.512  0.1244 -0.0496  0.1795
   27PNCE   T1A  232  11.569   5.523   7.901  0.0760  0.3176  0.1083
   27PNCE   C2A  233  11.405   5.566   7.478 -0.1663 -0.0420 -0.0936
   27PNCE   C3A  234  11.112   5.681   7.231 -0.0944 -0.1219  0.0452
   27PNCE   C1B  235  12.045   6.191   8.249  0.4063  0.0653 -0.3942
   27PNCE   C2B  236  12.416   6.286   8.063 -0.1646  0.3215 -0.1576
   27PNCE   C3B  237  12.621   6.339   7.682  0.1581 -0.2074  0.0997
   27PNCE   D4B  238  12.795   6.097   7.457  0.0398  0.0757 -0.1448
   27PNCE   C5B  239  13.146   6.147   7.336  0.0712 -0.1748  0.0288
   27PNCE   C6B  240  13.224   6.334   6.919  0.3131 -0.1205 -0.0192
   28CHOL   ROH  241  10.643   0.188   5.187  0.0284  0.0678  0.0636
   28CHOL    R1  242  10.729  -0.058   5.298 -0.1036  0.0734  0.1816
   28CHOL    R2  243  10.990  -0.148   5.277 -0.2114 -0.2131 -0.0286
   28CHOL    R3  244  10.972  -0.164   5.548  0.0618  0.0464  0.0103
   28CHOL    R4  245  11.183  -0.353   5.477 -0.2837 -0.3160 -0.0642
   28CHOL    R5  246  11.006  -0.396   5.596 -0.2158  0.0366  0.1694
   28CHOL    C1  247  11.278  -0.488   5.847 -0.0693 -0.1323 -0.0483
   28CHOL    C2  248  11.355  -0.424   6.215  0.1566  0.2109 -0.0141
   29PNCE   AM1  249  13.258   9.999   5.199 -0.1488 -0.0965  0.0865
   29PNCE   AM2  250  12.920   9.818   5.263  0.0225  0.1157  0.0463
   29PNCE   T1A  251  13.237  10.127   5.626  0.3150  0.0576 -0.1032
   29PNCE   C2A  252  13.276  10.157   6.056  0.1353  0.3082  0.1538
   29PNCE   C3A  253  13.432  10.020   6.542 -0.3290  0.1759  0.2715
   29PNCE   C1B  254  12.775   9.904   5.799 -0.1585 -0.2792  0.2464
   29PNCE   C2B  255  12.639  10.015   6.190  0.1247 -0.3102 -0.0314
   29PNCE   C3B  256  12.413  10.289   6.438  0.1307 -0.0355 -0.0727
   29PNCE   D4B  257  12.423  10.481   6.751 -0.1884 -0.3213  0.1533
   29PNCE   C5B  258  12.712  10.605   6.963 -0.5090  0.0067  0.0357
   29PNCE   C6B  259  13.056  10.644   7.083 -0.0288  0.0705 -0.0213
   30XCA    COO  260   6.761   8.304   8.791 -0.1640  0.1180 -0.1774
   30XCA     C1  261   6.683   8.709   8.706 -0.0325  0.0092 -0.1341
   30XCA     C2  262   6.220   8.806   8.571 -0.2731  0.0238 -0.1254
   30XCA     C3  263   5.957   8.669   8.350 -0.3274  0.0086 -0.1030
   30XCA     C4  264   5.887   8.328   8.045 -0.3448 -0.0111  0.0837
   30XCA     C5  265   5.902   8.249   7.600  0.0597  0.0764  0.1537
   30XCA     C6  266   5.831   7.990   7.274 -0.0033 -0.0266  0.0231
   31PNCE   AM1  267   7.926  11.409   8.742 -0.0421 -0.1230  0.0799
   31PNCE   AM2  268   7.883  11.639   8.922 -0.0052 -0.3125 -0.0006
   31PNCE   T1A  269   7.758  11.371   8.241  0.2903 -0.1213 -0.0020
   31PNCE   C2A  270   7.759  11.485   7.870  0.1968 -0.3011 -0.3610
   31PNCE   C3A  271   7.776  11.474   7.426 -0.2525  0.0076 -0.2792
   31PNCE   C1B  272   8.003  11.783   8.457 -0.1945 -0.1559  0.1144
   31PNCE   C2B  273   8.049  11.894   8.035  0.2457  0.1160  0.1838
   31PNCE   C3B  274   8.026  11.858   7.546 -0.0426 -0.0042 -0.0399
   31PNCE   D4B  275   7.936  11.819   7.078  0.0404  0.2029  0.1160
   31PNCE   C5B  276   7.605  11.925   6.919 -0.0409 -0.0825 -0.0648
   31PNCE   C6B  277   7.219  12.181   6.817  0.1761  0.1470 -0.0240
   32XCA    COO  278   1.752   3.154   4.272 -0.0655  0.4370  0.3250
   32XCA     C1  279   1.995   3.127   4.703  0.2173 -0.1376  0.1269
   32XCA     C2  280   2.133   3.074   5.146  0.2887  0.1286 -0.1460
   32XCA     C3  281   2.088   3.022   5.464  0.1358  0.0400  0.2463
   32XCA     C4  282   1.998   2.969   5.923  0.0514  0.0521  0.0452
   32XCA     C5  283   1.663   3.033   6.099  0.2555  0.1277  0.1860
   32XCA     C6  284   1.568   2.931   6.472  0.2311 -0.3139 -0.0329
   33CHOL   ROH  285   6.302  10.227   5.167 -0.1132 -0.0849  0.2558
   33CHOL    R1  286   6.482  10.409   5.288 -0.0747 -0.0353  0.1257
   33CHOL    R2  287   6.485  10.456   5.560  0.0041  0.0825  0.1028
   33CHOL    R3  288   6.748  10.392   5.536 -0.0028  0.0693  0.0579
   33CHOL    R4  289   6.731  10.546   5.786  0.0221 -0.0331  0.1301
   33CHOL    R5  290   6.863  10.586   5.617  0.0168  0.0285  0.1357
   33CHOL    C1  291   7.121  10.538   5.894  0.0261 -0.1130  0.1038
   33CHOL    C2  292   6.965  10.531   6.260  0.1531  0.2083  0.0798
   34PNCE   AM1  293   6.394   2.019   7.362  0.1206  0.0254 -0.3230
   34PNCE   AM2  294   6.264   2.151   7.335  0.1403 -0.2617  0.2976
   34PNCE   T1A  295   6.783   2.017   7.028 -0.0257 -0.2375 -0.0117
   34PNCE   C2A  296   7.069   2.197   6.701 -0.1533  0.1021 -0.0053
   34PNCE   C3A  297   7.146   2.522   6.547 -0.0867 -0.0482  0.1059
   34PNCE   C1B  298   6.402   2.404   6.955 -0.1377  0.1419 -0.0278
   34PNCE   C2B  299   6.570   2.391   6.599  0.0792 -0.3498  0.0954
   34PNCE   C3B  300   6.666   2.694   6.296 -0.0473  0.1869  0.0377
   34PNCE   D4B  301   6.836   2.766   5.839  0.1691 -0.0032 -0.0311
   34PNCE   C5B  302   7.097   3.242   5.773 -0.1258 -0.0491  0.0083
   34PNCE   C6B  303   7.415   3.360   6.129 -0.0245  0.1551  0.1257
   35PNCE   AM1  304   4.817  13.803   7.892 -0.0581 -0.2918 -0.1245
   35PNCE   AM2  305   4.766  13.986   7.652  0.2700  0.4869 -0.2270
   35PNCE   T1A  306   5.041  13.403   7.820  0.1006  0.1781  0.1809
   35PNCE   C2A  307   4.912  13.097   7.480 -0.0658  0.4168 -0.1677
   35PNCE   C3A  308   4.733  12.879   7.116 -0.0906  0.0148 -0.0483
   35PNCE   C1B  309   4.603  13.591   7.486 -0.2881  0.2244  0.2985
   35PNCE   C2B  310   4.507  13.442   7.167 -0.0860  0.1426  0.0016
   35PNCE   C3B  311   4.501  13.344   6.702  0.0100  0.0424 -0.0723
   35PNCE   D4B  312   4.370  13.304   6.324 -0.0065 -0.1505  0.0535
   35PNCE   C5B  313   4.455  13.186   5.913  0.0267  0.0289  0.1231
   35PNCE   C6B  314   4.870  13.148   5.631 -0.0501 -0.1072  0.3056
   36PNCE   AM1  315  13.802  14.317   8.796 -0.3525  0.2511  0.4019
   36PNCE   AM2  316  13.527  14.239   8.797  0.1218 -0.3090  0.0275
   36PNCE   T1A  317  13.760  14.334   8.325 -0.1559  0.5392 -0.0181
   36PNCE   C2A  318  13.603  13.993   8.044  0.1288 -0.1839  0.2328
   36PNCE   C3A  319  13.802  13.898   7.669  0.0883  0.0506 -0.0861
   36PNCE   C1B  320  13.627  13.930   8.510 -0.0884  0.0068  0.1310
   36PNCE   C2B  321  13.975  13.785   8.196  0.0042  0.0038 -0.3782
   36PNCE   C3B  322  14.152  13.434   8.058  0.2560 -0.1781  0.1321
   36PNCE   D4B  323  14.092  13.393   7.580 -0.1173  0.1925  0.0552
   36PNCE   C5B  324  14.117  13.676   7.343 -0.1622 -0.1305  0.2133
   36PNCE   C6B  325  14.298  13.584   6.981  0.0336  0.3924 -0.0506
   37XCA    COO  326  14.182  11.866   9.085 -0.0360 -0.2002 -0.0953
   37XCA     C1  327  14.363  11.850   8.621  0.2895 -0.7490  0.3772
   37XCA     C2  328  14.328  12.027   8.133 -0.3825 -0.1630  0.2088
   37XCA     C3  329  14.429  12.177   7.823 -0.0010  0.0194  0.1963
   37XCA     C4  330  14.468  12.470   7.583  0.6185 -0.2484  0.0785
   37XCA     C5  331  14.598  12.519   7.148 -0.2379  0.1851  0.0401
   37XCA     C6  332  14.460  12.486   6.683 -0.1909  0.2210  0.0944
   38CHOL   ROH  333   0.248   2.428   8.136 -0.1691  0.2903  0.0250
   38CHOL    R1  334   0.248   2.586   7.901 -0.1732  0.0168 -0.1632
   38CHOL    R2  335   0.427   2.793   7.861 -0.3832  0.1847 -0.2599
   38CHOL    R3  336   0.480   2.658   7.631 -0.0422 -0.0288 -0.0630
   38CHOL    R4  337   0.554   2.935   7.573 -0.2543 -0.0240 -0.3081
   38CHOL    R5  338   0.419   2.810   7.457 -0.0286 -0.2845 -0.2954
   38CHOL    C1  339   0.679   2.891   7.189  0.1408 -0.3459 -0.1513
   38CHOL    C2  340   0.785   3.214   6.972  0.1862  0.1440  0.0219
   39PNCE   AM1  341   2.878   2.105   7.769 -0.1942 -0.1207  0.1449
   39PNCE   AM2  342   3.175   2.198   8.010 -0.0761 -0.2990 -0.0239
   39PNCE   T1A  343   3.140   2.091   7.460 -0.2764  0.3723  0.3580
   39PNCE   C2A  344   3.360   2.154   7.028 -0.1876  0.0429  0.0732
   39PNCE   C3A  345   3.397   2.220   6.589 -0.1205  0.2152  0.2561
   39PNCE   C1B  346   3.475   2.345   7.709 -0.1345  0.0645 -0.3402
   39PNCE   C2B  347   3.671   2.494   7.324  0.1890 -0.3948 -0.2598
   39PNCE   C3B  348   3.636   2.642   6.941  0.0092  0.2529 -0.0463
   39PNCE   D4B  349   3.414   2.845   6.549 -0.2644  0.2228  0.1277
   39PNCE   C5B  350   2.981   2.912   6.548 -0.0849  0.0301 -0.0143
   39PNCE   C6B  351   2.790   3.005   6.195  0.0006 -0.3627 -0.3272
   40PNCE   AM1  352   8.980   6.549   8.405  0.1256  0.0282 -0.0453
   40PNCE   AM2  353   9.307   6.388   8.450 -0.1126 -0.1352  0.2331
   40PNCE   T1A  354   8.767   6.394   8.052  0.1065  0.1464 -0.1143
   40PNCE   C2A  355   8.682   6.029   7.714  0.1460 -0.2457 -0.0302
   40PNCE   C3A  356   8.565   6.016   7.146 -0.1335  0.1858 -0.3467
   40PNCE   C1B  357   9.244   6.379   7.948  0.0912  0.1475  0.0928
   40PNCE   C2B  358   9.185   6.370   7.524  0.0606  0.0916  0.2712
   40PNCE   C3B  359   9.045   6.031   7.240  0.0057  0.2902  0.1939
   40PNCE   D4B  360   8.895   5.680   6.968 -0.2654  0.1137  0.1974
   40PNCE   C5B  361   9.065   5.675   6.567  0.2459 -0.4662  0.1476
   40PNCE   C6B  362   9.326   5.600   6.237  0.0557 -0.1581  0.1773
   41CHOL   ROH  363   3.395  10.793   9.350 -0.1518 -0.0691  0.0657
   41CHOL    R1  364   3.229  10.893   9.143 -0.2033 -0.0638  0.1098
   41CHOL    R2  365   3.194  10.759   8.904 -0.0885  0.0495  0.0289
   41CHOL    R3  366   2.930  10.782   8.968 -0.1120 -0.1713  0.0202
   41CHOL    R4  367   2.932  10.693   8.688 -0.0256 -0.0268 -0.0255
   41CHOL    R5  368   2.828  10.867   8.769 -0.1571 -0.1411  0.0562
   41CHOL    C1  369   2.532  10.676   8.623 -0.0110 -0.2785 -0.0654
   41CHOL    C2  370   2.285  10.618   8.467 -0.3562 -0.2102  0.0196
   42PNCE   AM1  371   6.319   7.907   8.609 -0.0515  0.3412  0.0851
   42PNCE   AM2  372   6.401   7.615   8.495 -0.1714 -0.1900 -0.1719
   42PNCE   T1A  373   6.290   8.301   8.422 -0.1641  0.0619  0.1416
   42PNCE   C2A  374   6.531   8.514   8.172  0.1507 -0.0771  0.1416
   42PNCE   C3A  375   6.610   8.867   8.252 -0.2540  0.0464  0.2480
   42PNCE   C1B  376   6.034   7.470   8.693  0.1695 -0.1658  0.0039
   42PNCE   C2B  377   5.624   7.236   8.525  0.2140  0.0236  0.1656
   42PNCE   C3B  378   5.248   7.060   8.360 -0.5659 -0.1315  0.1353
   42PNCE   D4B  379   4.862   7.028   8.278  0.0957  0.0784  0.0480
   42PNCE   C5B  380   4.883   7.141   7.808  0.1011  0.0313 -0.0046
   42PNCE   C6B  381   4.573   7.586   7.579  0.2348 -0.1990 -0.0368
   43PNCE   AM1  382   1.051  15.560   8.684 -0.0272 -0.0189  0.1955
   43PNCE   AM2  383   0.799  15.603   8.934 -0.2990 -0.1593 -0.0293
   43PNCE   T1A  384   1.095  15.226   8.436  0.0556  0.0771 -0.1493
   43PNCE   C2A  385   1.005  14.900   8.209 -0.1488  0.1252  0.0987
   43PNCE   C3A  386   0.894  14.610   7.839 -0.4787  0.0249  0.0751
   43PNCE   C1B  387   0.608  15.489   8.441 -0.2853 -0.1457 -0.1665
   43PNCE   C2B  388   0.660  15.326   8.044 -0.0722 -0.0039  0.5301
   43PNCE   C3B  389   0.644  15.005   7.771  0.4576 -0.6218 -0.3046
   43PNCE   D4B  390   0.709  14.791   7.387  0.1848  0.0723 -0.1583
   43PNCE   C5B  391   1.152  14.763   7.205  0.2495 -0.0156 -0.0451
   43PNCE   C6B  392   1.482  14.567   7.140  0.3996 -0.0518 -0.2849
   44XCA    COO  393   3.622  14.800   7.792  0.1123 -0.1237  0.0391
   44XCA     C1  394   3.712  14.659   7.368  0.0823 -0.1626 -0.0957
   44XCA     C2  395   3.776  14.752   6.886  0.0822 -0.2251  0.2215
   44XCA     C3  396   3.977  14.563   6.599  0.2627 -0.2656 -0.3851
   44XCA     C4  397   3.776  14.209   6.304  0.1555 -0.1098 -0.2758
   44XCA     C5  398   3.597  13.930   5.995  0.1769  0.4083 -0.0370
   44XCA     C6  399   3.384  13.885   5.605  0.1688 -0.0423 -0.1901
   45CHOL   ROH  400  12.953  13.749   6.580 -0.1417  0.1420  0.0294
   45CHOL    R1  401  13.090  13.996   6.586 -0.0637  0.0958  0.1677
   45CHOL    R2  402  13.290  14.051   6.769  0.1031 -0.1497  0.0613
   45CHOL    R3  403  13.434  14.109   6.545 -0.0618  0.0338 -0.0003
   45CHOL    R4  404  13.533  14.296   6.749  0.1657 -0.2064  0.1188
   45CHOL    R5  405  13.458  14.347   6.551  0.0171  0.0245  0.2292
   45CHOL    C1  406  13.810  14.493   6.528  0.0474 -0.0671  0.0944
   45CHOL    C2  407  14.175  14.537   6.753 -0.2544  0.1166  0.2126
   46CHOL   ROH  408   6.133  13.589   4.024 -0.1540 -0.1753  0.0336
   46CHOL    R1  409   6.032  13.789   4.197 -0.3816 -0.0887 -0.1957
   46CHOL    R2  410   5.761  13.838   4.225 -0.4611 -0.6167  0.0030
   46CHOL    R3  411   5.814  13.800   4.489 -0.0895 -0.0583  0.0287
   46CHOL    R4  412   5.567  13.958   4.484 -0.5667 -0.7370 -0.0176
   46CHOL    R5  413   5.750  14.006   4.593 -0.5710 -0.0442 -0.2509
   46CHOL    C1  414   5.503  13.992   4.883 -0.2793 -0.2828 -0.0054
   46CHOL    C2  415   5.438  14.194   5.232  0.1813  0.1900 -0.0421
   47XCA    COO  416   6.220  12.871   4.704  0.1267  0.0411  0.0166
   47XCA     C1  417   6.378  13.024   5.191 -0.5032 -0.0606 -0.1393
   47XCA     C2  418   6.483  13.398   5.501  0.3661  0.1611 -0.2094
   47XCA     C3  419   6.753  13.545   5.900 -0.3058  0.5142  0.4350
   47XCA     C4  420   6.806  13.933   5.961  0.0098  0.0415 -0.1521
   47XCA     C5  421   6.669  14.393   6.128 -0.1876 -0.0310  0.0532
   47XCA     C6  422   6.625  14.927   6.256  0.1456 -0.1631  0.2233
   48CHOL   ROH  423   4.324   2.849   4.555 -0.0829  0.0647  0.1700
   48CHOL    R1  424   4.361   2.657   4.760 -0.2666 -0.0988  0.0525
   48CHOL    R2  425   4.420   2.728   5.020 -0.0624 -0.3180  0.0637
   48CHOL    R3  426   4.202   2.575   5.077 -0.2545 -0.0487  0.0735
   48CHOL    R4  427   4.324   2.630   5.338  0.0292 -0.4625  0.0487
   48CHOL    R5  428   4.273   2.434   5.257 -0.3229 -0.3241 -0.1030
   48CHOL    C1  429   4.063   2.430   5.575 -0.0979 -0.2939  0.0491
   48CHOL    C2  430   4.041   2.323   5.989 -0.0376  0.0678 -0.1412
   49PNCE   AM1  431  11.641   8.974   8.897  0.5036 -0.3202  0.0714
   49PNCE   AM2  432  11.735   8.706   8.745  0.1470  0.1434  0.1921
   49PNCE   T1A  433  11.601   9.092   8.437  0.0518  0.0022  0.2964
   49PNCE   C2A  434  11.846   9.125   7.979 -0.1674  0.2867 -0.2173
   49PNCE   C3A  435  12.237   9.242   7.727  0.2712  0.0346  0.1402
   49PNCE   C1B  436  11.969   8.728   8.438 -0.0014 -0.0782  0.2911
   49PNCE   C2B  437  11.975   8.664   8.059 -0.1495 -0.0894  0.1468
   49PNCE   C3B  438  12.263   8.716   7.742  0.1176  0.0637 -0.3879
   49PNCE   D4B  439  12.545   8.798   7.569  0.1822 -0.1833  0.3785
   49PNCE   C5B  440  12.576   8.748   7.219  0.2043 -0.1277 -0.0280
   49PNCE   C6B  441  12.864   8.582   6.906  0.1814  0.1250  0.1102
   50PNCE   AM1  442   0.362  11.149   9.901  0.2369  0.0401  0.0660
   50PNCE   AM2  443   0.414  11.501   9.697  0.4253 -0.2117  0.1027
   50PNCE   T1A  444   0.100  10.936   9.445  0.1615  0.1013  0.1417
   50PNCE   C2A  445  -0.107  10.617   9.231  0.1860  0.0354 -0.0205
   50PNCE   C3A  446  -0.439  10.385   8.990  0.1488 -0.2849  0.2132
   50PNCE   C1B  447   0.534  11.218   9.334 -0.1735  0.1565 -0.1598
   50PNCE   C2B  448   0.446  11.188   8.899  0.1213  0.2973 -0.0633
   50PNCE   C3B  449   0.268  11.067   8.474  0.1758 -0.1183  0.0946
   50PNCE   D4B  450   0.004  10.885   8.282 -0.1478  0.1587  0.1344
   50PNCE   C5B  451  -0.326  11.160   8.123  0.1550  0.2522  0.0331
   50PNCE   C6B  452  -0.671  11.392   8.073  0.0341  0.0962 -0.1248
   51CHOL   ROH  453   7.174   9.864   6.852  0.0064 -0.0123 -0.0790
   51CHOL    R1  454   7.250   9.680   6.651  0.0834  0.1563 -0.2054
   51CHOL    R2  455   7.459   9.729   6.476  0.4468  0.1171  0.2058
   51CHOL    R3  456   7.548   9.489   6.567 -0.0331 -0.1412  0.0346
   51CHOL    R4  457   7.604   9.484   6.279 -0.0690 -0.0530  0.0182
   51CHOL    R5  458   7.493   9.335   6.392 -0.3727  0.0861 -0.0748
   51CHOL    C1  459   7.772   9.117   6.250 -0.8199 -0.3946 -0.2517
   51CHOL    C2  460   8.095   9.059   6.185 -0.0258  0.1350 -0.2639
   52PNCE   AM1  461  12.388  14.143   8.664  0.1150 -0.1398  0.0785
   52PNCE   AM2  462  12.029  14.304   8.767 -0.0803 -0.1642 -0.1676
   52PNCE   T1A  463  12.182  14.094   8.283  0.0875  0.1850  0.0183
   52PNCE   C2A  464  12.070  14.259   7.952  0.1668 -0.0420  0.1883
   52PNCE   C3A  465  12.170  14.474   7.644  0.0914 -0.3032  0.1681
   52PNCE   C1B  466  11.692  14.226   8.462 -0.2413 -0.0240  0.0040
   52PNCE   C2B  467  11.614  13.928   8.039 -0.1930 -0.0394  0.3537
   52PNCE   C3B  468  11.683  14.035   7.605  0.0541 -0.0793  0.0016
   52PNCE   D4B  469  11.761  14.208   7.311 -0.0389 -0.2861 -0.0710
   52PNCE   C5B  470  11.648  14.086   6.885  0.0555  0.0620  0.0451
   52PNCE   C6B  471  11.626  13.697   6.632  0.0573 -0.0380  0.2140
   53PNCE   AM1  472   1.795   1.018   8.038 -0.2287 -0.0819  0.0948
   53PNCE   AM2  473   2.024   1.225   7.847 -0.0719 -0.1159 -0.2117
   53PNCE   T1A  474   1.727   0.997   7.584  0.2109 -0.0261 -0.0195
   53PNCE   C2A  475   1.936   1.369   7.287 -0.1093  0.0899  0.3021
   53PNCE   C3A  476   1.988   1.525   6.921 -0.1387  0.1172  0.1636
   53PNCE   C1B  477   2.204   1.582   7.631 -0.0715 -0.0882 -0.2854
   53PNCE   C2B  478   2.229   1.853   7.282  0.2088 -0.0340  0.1279
   53PNCE   C3B  479   2.177   1.962   6.966 -0.1725  0.0670  0.0459
   53PNCE   D4B  480   2.036   2.028   6.574  0.1072  0.0523 -0.1495
   53PNCE   C5B  481   1.876   2.281   6.332  0.2498  0.0040 -0.1277
   53PNCE   C6B  482   1.896   2.463   6.031  0.0090 -0.1533  0.3025
   54CHOL   ROH  483   3.784   3.254   6.311 -0.0043 -0.1111  0.0694
   54CHOL    R1  484   4.057   3.234   6.240  0.0428 -0.0251  0.2275
   54CHOL    R2  485   4.149   3.285   5.985  0.1363 -0.2434  0.2205
   54CHOL    R3  486   4.314   3.459   6.113 -0.0248 -0.0073  0.1183
   54CHOL    R4  487   4.458   3.385   5.868  0.2495 -0.3980  0.3786
   54CHOL    R5  488   4.534   3.372   6.072  0.0360 -0.0539  0.4922
   54CHOL    C1  489   4.793   3.607   5.920  0.1642 -0.2663  0.3746
   54CHOL    C2  490   5.077   3.722   5.598 -0.1070  0.0359 -0.0061
   55XCA    COO  491   5.640  14.030   7.243  0.0166 -0.0285 -0.0682
   55XCA     C1  492   5.540  13.742   7.020 -0.1149 -0.0287  0.1400
   55XCA     C2  493   5.443  13.379   6.790 -0.0506  0.2120 -0.2372
   55XCA     C3  494   5.677  13.062   6.792 -0.0863  0.0912 -0.1756
   55XCA     C4  495   5.851  12.791   6.570  0.2230 -0.0544  0.4421
   55XCA     C5  496   5.773  12.746   6.247  0.0003  0.0728  0.2497
   55XCA     C6  497   5.365  12.713   6.007 -0.1497 -0.2681 -0.0739
   56XCA    COO  498  14.564  12.273   9.015 -0.0165  0.0572  0.0897
   56XCA     C1  499  14.591  12.305   8.557  0.0320  0.1441  0.1487
   56XCA     C2  500  14.821  12.148   8.301 -0.0514 -0.0646 -0.1513
   56XCA     C3  501  15.125  12.080   8.008 -0.0953 -0.1855  0.0021
   56XCA     C4  502  15.301  12.148   7.617  0.2657 -0.1071 -0.0156
   56XCA     C5  503  15.393  12.431   7.252  0.1790  0.1443  0.0731
   56XCA     C6  504  15.133  12.757   7.052  0.2324 -0.0003  0.1495
   57CHOL   ROH  505   8.489  10.604   8.316  0.0651  0.0544 -0.0423
   57CHOL    R1  506   8.526  10.603   8.035  0.0039  0.0849 -0.0509
   57CHOL    R2  507   8.465  10.384   7.878  0.0200  0.0824 -0.0550
   57CHOL    R3  508   8.316  10.565   7.741 -0.0523  0.0590 -0.0074
   57CHOL    R4  509   8.439  10.398   7.534  0.0216  0.1686 -0.0516
   57CHOL    R5  510   8.447  10.615   7.547 -0.0692  0.1682  0.0095
   57CHOL    C1  511   8.284  10.576   7.204 -0.0452  0.1968 -0.0050
   57CHOL    C2  512   8.459  10.920   7.046  0.0747  0.2101  0.2464
   58CHOL   ROH  513  15.349   8.336   8.957 -0.5686  0.1759  0.0919
   58CHOL    R1  514  15.212   8.471   8.750 -0.3162  0.3817  0.0552
   58CHOL    R2  515  15.294   8.717   8.653  0.2397  0.1443 -0.1137
   58CHOL    R3  516  15.290   8.588   8.414 -0.1339  0.0045 -0.0400
   58CHOL    R4  517  15.198   8.860   8.354  0.4597  0.1972 -0.1616
   58CHOL    R5  518  15.096   8.674   8.303  0.0125  0.3880 -0.0188
   58CHOL    C1  519  15.138   8.822   7.955  0.2371  0.0968 -0.1204
   58CHOL    C2  520  14.890   8.748   7.603  0.0624 -0.0618  0.0575
   59CHOL   ROH  521   8.475   3.111   6.216  0.0999 -0.0262 -0.1815
   59CHOL    R1  522   8.473   2.938   5.992 -0.1352 -0.1439 -0.0919
   59CHOL    R2  523   8.240   2.857   5.868 -0.2449  0.2257 -0.1324
   59CHOL    R3  524   8.361   2.955   5.646  0.0249 -0.1140 -0.1446
   59CHOL    R4  525   8.127   2.810   5.545 -0.3202  0.3944 -0.1318
   59CHOL    R5  526   8.334   2.782   5.482 -0.3603 -0.1100 -0.0980
   59CHOL    C1  527   8.174   2.875   5.148 -0.1108  0.1739 -0.1428
   59CHOL    C2  528   8.147   3.093   4.733 -0.0568  0.0657  0.1367
   60PNCE   AM1  529   0.818  13.415   9.308  0.2585 -0.2990 -0.1816
   60PNCE   AM2  530   0.539  13.273   9.228  0.0576 -0.2283  0.0410
   60PNCE   T1A  531   1.110  13.181   9.041  0.1240 -0.2829  0.1189
   60PNCE   C2A  532   1.477  12.937   8.818  0.0203  0.2282  0.0190
   60PNCE   C3A  533   1.727  13.085   8.366 -0.2971 -0.1099  0.2169
   60PNCE   C1B  534   0.686  12.936   8.911 -0.1116 -0.0687  0.3012
   60PNCE   C2B  535   1.031  12.756   8.732 -0.1943  0.0629 -0.1255
   60PNCE   C3B  536   1.217  12.559   8.373 -0.0215  0.0373 -0.2260
   60PNCE   D4B  537   1.556  12.455   8.132 -0.0360  0.1033 -0.1104
   60PNCE   C5B  538   1.579  12.377   7.690  0.0815  0.1141  0.0802
   60PNCE   C6B  539   1.599  12.330   7.205  0.0002  0.0044 -0.4834
   61PNCE   AM1  540   8.847   5.012   7.621 -0.1435  0.0244 -0.1905
   61PNCE   AM2  541   8.597   5.022   7.738  0.0685  0.0001  0.1532
   61PNCE   T1A  542   9.167   4.812   7.287 -0.0811  0.1687 -0.3682
   61PNCE   C2A  543   9.477   4.624   6.904 -0.4133 -0.0062 -0.0981
   61PNCE   C3A  544   9.660   4.631   6.474  0.3942  0.0477  0.0900
   61PNCE   C1B  545   8.392   4.988   7.341 -0.1262  0.1433 -0.1598
   61PNCE   C2B  546   8.417   4.873   6.938 -0.2350 -0.2140 -0.1736
   61PNCE   C3B  547   8.282   4.964   6.630 -0.1876 -0.3214 -0.3353
   61PNCE   D4B  548   8.440   4.850   6.117  0.1509 -0.1060 -0.4147
   61PNCE   C5B  549   8.775   4.575   6.014 -0.0675  0.1391 -0.3229
   61PNCE   C6B  550   9.047   4.320   5.744 -0.0938  0.1984  0.0895
   62PNCE   AM1  551   3.809  12.918   8.401  0.1956 -0.0111  0.0138
   62PNCE   AM2  552   3.846  12.955   8.735  0.3172 -0.0997 -0.2113
   62PNCE   T1A  553   3.532  12.648   8.324  0.1927  0.2181  0.0854
   62PNCE   C2A  554   3.226  12.443   7.934 -0.1377 -0.2550  0.1187
   62PNCE   C3A  555   3.171  12.185   7.624 -0.0387 -0.1150 -0.4772
   62PNCE   C1B  556   3.523  13.257   8.842 -0.0432 -0.0301 -0.0637
   62PNCE   C2B  557   3.159  13.338   8.561  0.0228 -0.0352 -0.2676
   62PNCE   C3B  558   2.812  13.236   8.210  0.3706  0.1803  0.0848
   62PNCE   D4B  559   2.507  13.259   7.782 -0.2302  0.0460 -0.1654
   62PNCE   C5B  560   2.561  13.634   7.443 -0.2544  0.0294 -0.1350
   62PNCE   C6B  561   2.775  13.965   7.091 -0.1193  0.0889  0.1161
   63PNCE   AM1  562   7.375   9.391   8.577 -0.1883  0.2894  0.1522
   63PNCE   AM2  563   7.039   9.504   8.676  0.1934  0.2078  0.0792
   63PNCE   T1A  564   7.600   9.297   8.231  0.6486  0.0658  0.3082
   63PNCE   C2A  565   7.765   9.297   7.809 -0.0461  0.0330 -0.1720
   63PNCE   C3A  566   7.967   9.045   7.639  0.1473 -0.2274  0.2248
   63PNCE   C1B  567   7.187   9.556   8.170 -0.2351  0.0511  0.1490
   63PNCE   C2B  568   7.300   9.623   7.750 -0.1594  0.0216  0.0088
   63PNCE   C3B  569   7.715   9.584   7.349 -0.0286 -0.0574 -0.0564
   63PNCE   D4B  570   8.017   9.648   7.050  0.0369 -0.0646 -0.1568
   63PNCE   C5B  571   8.316   9.354   7.018  0.2490 -0.2436 -0.0301
   63PNCE   C6B  572   8.640   9.128   6.870 -0.1914 -0.1239  0.2723
   64PNCE   AM1  573   3.623   1.309   7.828  0.4196 -0.2539 -0.1295
   64PNCE   AM2  574   3.820   1.177   7.771 -0.4111 -0.2261  0.2088
   64PNCE   T1A  575   3.417   1.401   7.513 -0.0641 -0.2106  0.1727
   64PNCE   C2A  576   3.466   1.597   7.203  0.0158  0.0308 -0.2750
   64PNCE   C3A  577   3.520   1.710   6.829  0.0203  0.4594 -0.2006
   64PNCE   C1B  578   3.860   0.953   7.469  0.2649 -0.0663 -0.2411
   64PNCE   C2B  579   3.638   0.748   7.102  0.1026 -0.1426 -0.1376
   64PNCE   C3B  580   3.627   0.430   6.864 -0.1142  0.0530 -0.0316
   64PNCE   D4B  581   3.590   0.125   6.633  0.2805  0.1894  0.1436
   64PNCE   C5B  582   3.412   0.309   6.260  0.3437 -0.3285  0.0862
   64PNCE   C6B  583   3.401   0.664   5.963  0.0913  0.3474  0.0319
   65PNCE   AM1  584   1.355  11.257  10.534 -0.0661 -0.1842  0.2240
   65PNCE   AM2  585   1.456  11.593  10.491 -0.2382 -0.2331  0.0284
   65PNCE   T1A  586   1.221  11.321  10.125 -0.0033  0.0714 -0.1017
   65PNCE   C2A  587   0.980  11.189   9.766  0.1303  0.2764 -0.0270
   65PNCE   C3A  588   0.874  11.483   9.305  0.0276 -0.1031 -0.1354
   65PNCE   C1B  589   1.501  11.817  10.097 -0.0876  0.0904  0.0130
   65PNCE   C2B  590   1.860  11.659   9.805  0.0429  0.3423 -0.1029
   65PNCE   C3B  591   2.127  11.389   9.642 -0.2898 -0.1017  0.2009
   65PNCE   D4B  592   2.504  11.072   9.529 -0.0325  0.0381  0.0155
   65PNCE   C5B  593   2.565  11.084   9.089  0.2751  0.3042  0.0650
   65PNCE   C6B  594   2.417  11.130   8.726 -0.0052  0.0043  0.1725
   66CHOL   ROH  595  14.795  13.792   8.514 -0.0513  0.3014  0.0881
   66CHOL    R1  596  14.737  13.757   8.240  0.2256  0.4230  0.0116
   66CHOL    R2  597  14.479  13.727   8.145  0.3486  0.0177 -0.2062
   66CHOL    R3  598  14.549  13.936   7.985  0.0838  0.2907  0.0207
   66CHOL    R4  599  14.317  13.814   7.852  0.3415  0.0147 -0.2041
   66CHOL    R5  600  14.512  13.855   7.762  0.3286  0.4260 -0.0761
   66CHOL    C1  601  14.288  14.061   7.531  0.0889  0.2693  0.0101
   66CHOL    C2  602  14.279  14.130   7.097 -0.0075  0.1763 -0.4030
   67PNCE   AM1  603   4.758   8.161   9.376  0.0655 -0.2037 -0.1568
   67PNCE   AM2  604   4.981   7.968   9.385 -0.2332 -0.1367  0.2058
   67PNCE   T1A  605   4.520   8.399   9.070  0.0372 -0.0986 -0.0077
   67PNCE   C2A  606   4.591   8.219   8.618 -0.3356  0.0634  0.0357
   67PNCE   C3A  607   4.782   8.063   8.266 -0.0462 -0.1350  0.0339
   67PNCE   C1B  608   5.035   8.167   8.965  0.0681 -0.1976 -0.0220
   67PNCE   C2B  609   5.209   8.155   8.529 -0.1909  0.0615  0.0330
   67PNCE   C3B  610   5.508   8.039   8.163  0.1906 -0.1090  0.1807
   67PNCE   D4B  611   5.458   8.112   7.710  0.0618  0.1344  0.2983
   67PNCE   C5B  612   5.141   8.418   7.514  0.0999 -0.0271  0.0950
   67PNCE   C6B  613   5.191   8.834   7.471 -0.1298  0.0893 -0.2121
   68CHOL   ROH  614   6.095   1.769   7.069 -0.0621  0.0695 -0.0501
   68CHOL    R1  615   6.034   1.937   6.849 -0.1975  0.0149 -0.0546
   68CHOL    R2  616   6.230   2.052   6.691 -0.2886  0.2172 -0.0194
   68CHOL    R3  617   6.092   1.932   6.490 -0.1366  0.0835 -0.0465
   68CHOL    R4  618   6.310   2.073   6.356 -0.2279  0.2764 -0.0016
   68CHOL    R5  619   6.098   2.090   6.310 -0.2363  0.0845 -0.0515
   68CHOL    C1  620   6.228   1.973   5.972 -0.0497  0.1852 -0.0166
   68CHOL    C2  621   6.027   2.196   5.696 -0.2811 -0.2075 -0.1330
   69CHOL   ROH  622  15.025   4.828   8.683  0.1280  0.0297 -0.1108
   69CHOL    R1  623  14.922   4.814   8.420  0.2030 -0.1883 -0.1314
   69CHOL    R2  624  14.849   5.038   8.276 -0.2757 -0.3289 -0.1360
   69CHOL    R3  625  15.019   4.935   8.091  0.0003  0.0514 -0.1042
   69CHOL    R4  626  14.828   5.093   7.935 -0.3219 -0.3701 -0.1392
   69CHOL    R5  627  14.880   4.884   7.903  0.1529 -0.2588 -0.1347
   69CHOL    C1  628  14.976   5.029   7.563 -0.0898 -0.0371 -0.1112
   69CHOL    C2  629  14.592   4.969   7.501  0.2374 -0.0579 -0.1884
   70PNCE   AM1  630  11.696  15.706   8.761 -0.1631 -0.0047 -0.0592
   70PNCE   AM2  631  12.038  15.734   8.742 -0.0264  0.2063 -0.1097
   70PNCE   T1A  632  11.407  15.841   8.473  0.2366 -0.0064 -0.1530
   70PNCE   C2A  633  11.325  15.924   7.956  0.0837  0.0600 -0.0168
   70PNCE   C3A  634  11.091  15.876   7.604 -0.0178  0.0008  0.1310
   70PNCE   C1B  635  12.167  15.504   8.361 -0.0791  0.2352 -0.2556
   70PNCE   C2B  636  12.159  15.449   7.933 -0.1498 -0.1656 -0.0144
   70PNCE   C3B  637  12.163  15.584   7.489  0.0134  0.1241  0.0709
   70PNCE   D4B  638  12.494  15.747   7.430 -0.0719 -0.1358  0.0393
   70PNCE   C5B  639  12.887  15.622   7.208  0.2664 -0.1715 -0.0199
   70PNCE   C6B  640  13.236  15.561   6.795 -0.3146 -0.2354 -0.0941
   71PNCE   AM1  641   9.866  11.413   5.128 -0.0644  0.0400  0.3168
   71PNCE   AM2  642  10.238  11.323   5.094  0.1927 -0.0183 -0.2153
   71PNCE   T1A  643   9.905  11.258   5.522 -0.2776 -0.1205  0.0132
   71PNCE   C2A  644   9.766  11.351   5.939  0.2010 -0.0702 -0.2115
   71PNCE   C3A  645   9.666  11.212   6.351 -0.1210 -0.0682 -0.0469
   71PNCE   C1B  646  10.244  11.669   5.403  0.0648  0.1145  0.0941
   71PNCE   C2B  647  10.134  11.844   5.788 -0.0101 -0.2434  0.4139
   71PNCE   C3B  648  10.066  12.009   6.127  0.3646  0.2181 -0.2640
   71PNCE   D4B  649   9.949  12.160   6.515 -0.2066 -0.0713  0.1115
   71PNCE   C5B  650   9.574  12.091   6.578 -0.0580 -0.1310 -0.0988
   71PNCE   C6B  651   9.221  12.123   6.210 -0.1816  0.1364 -0.0865
   72PNCE   AM1  652   2.046  12.402   9.577 -0.3870  0.1201  0.1533
   72PNCE   AM2  653   1.746  12.352   9.783  0.2510  0.1561 -0.0736
   72PNCE   T1A  654   1.795  12.257   9.266  0.3100  0.4747  0.0431
   72PNCE   C2A  655   1.393  12.404   9.024 -0.1103  0.4199 -0.0800
   72PNCE   C3A  656   0.992  12.249   8.846  0.1670  0.0201 -0.3798
   72PNCE   C1B  657   1.519  11.980   9.602 -0.0496  0.1623  0.1054
   72PNCE   C2B  658   1.257  11.850   9.189 -0.0371 -0.1367  0.1170
   72PNCE   C3B  659   1.264  11.457   8.919 -0.0400 -0.3371 -0.1988
   72PNCE   D4B  660   1.357  11.089   8.638 -0.2032 -0.0811  0.0132
   72PNCE   C5B  661   1.335  10.804   9.011 -0.3560  0.3912  0.3395
   72PNCE   C6B  662   1.405  10.873   9.461 -0.0781 -0.3681  0.2873
   73CHOL   ROH  663   4.248   5.551   6.838  0.1512  0.0070  0.1771
   73CHOL    R1  664   4.484   5.395   6.820  0.1667  0.0407  0.0789
   73CHOL    R2  665   4.687   5.452   6.642  0.1226  0.1209  0.0530
   73CHOL    R3  666   4.841   5.449   6.866  0.1695  0.0701  0.0205
   73CHOL    R4  667   5.031   5.418   6.645  0.1198  0.0820 -0.0223
   73CHOL    R5  668   5.011   5.288   6.819  0.1419  0.0585 -0.0384
   73CHOL    C1  669   5.375   5.396   6.857  0.1621  0.0115 -0.0967
   73CHOL    C2  670   5.761   5.368   6.826  0.2146 -0.0092  0.2589
   74CHOL   ROH  671   8.341   2.492   4.477 -0.3316 -0.0939  0.0005
   74CHOL    R1  672   8.346   2.241   4.608 -0.4252 -0.0696  0.0509
   74CHOL    R2  673   8.566   2.150   4.748 -0.3029 -0.2987 -0.2795
   74CHOL    R3  674   8.386   2.122   4.949 -0.0226 -0.0324  0.0216
   74CHOL    R4  675   8.583   1.909   4.994 -0.2566 -0.3344 -0.3172
   74CHOL    R5  676   8.367   1.885   4.978 -0.3313 -0.0101  0.0374
   74CHOL    C1  677   8.423   1.741   5.327  0.0334 -0.1052 -0.0564
   74CHOL    C2  678   8.306   1.560   5.535 -0.0628  0.0473 -0.1199
   75PNCE   AM1  679   5.827   1.755   7.538 -0.3063 -0.1236 -0.1473
   75PNCE   AM2  680   5.659   1.673   7.309 -0.1248  0.0541  0.0288
   75PNCE   T1A  681   5.800   2.169   7.221  0.2231 -0.0161  0.2040
   75PNCE   C2A  682   5.881   2.398   6.909 -0.0101  0.1160  0.1356
   75PNCE   C3A  683   6.070   2.522   6.604 -0.2025  0.1158  0.2603
   75PNCE   C1B  684   5.427   1.640   7.002  0.1934 -0.1508 -0.0040
   75PNCE   C2B  685   5.323   1.700   6.477 -0.3355 -0.2492 -0.1638
   75PNCE   C3B  686   5.294   1.540   6.214 -0.0886 -0.1191  0.0924
   75PNCE   D4B  687   5.047   1.272   5.885 -0.1178  0.1870 -0.2136
   75PNCE   C5B  688   5.156   0.951   5.602 -0.0864 -0.1541 -0.1103
   75PNCE   C6B  689   4.987   0.482   5.572  0.1566  0.1634 -0.3036
   76XCA    COO  690  11.583   9.734   9.045  0.0681 -0.0249 -0.2603
   76XCA     C1  691  11.382   9.854   8.632  0.0424 -0.0591 -0.0302
   76XCA     C2  692  11.080   9.723   8.312  0.1352  0.1004 -0.1756
   76XCA     C3  693  10.915   9.457   7.893 -0.1809 -0.0553 -0.1618
   76XCA     C4  694  10.936   9.337   7.493  0.2094 -0.1782 -0.1457
   76XCA     C5  695  11.134   9.029   7.376 -0.0688  0.0881 -0.1110
   76XCA     C6  696  11.540   8.973   7.391  0.2744 -0.1821  0.1213
   77CHOL   ROH  697  13.788   2.962   7.200 -0.0684  0.1049  0.1360
   77CHOL    R1  698  13.773   3.237   7.137 -0.1262  0.0637 -0.0306
   77CHOL    R2  699  13.546   3.388   7.182 -0.0714  0.0979  0.1165
   77CHOL    R3  700  13.718   3.547   7.318  0.0832  0.1892 -0.1752
   77CHOL    R4  701  13.452   3.648   7.388  0.1348  0.0614  0.2606
   77CHOL    R5  702  13.618   3.765   7.309 -0.0461  0.1413 -0.0258
   77CHOL    C1  703  13.558   3.950   7.637  0.3999  0.1258  0.0707
   77CHOL    C2  704  13.683   4.221   7.951  0.1760  0.0758 -0.3290
   78PNCE   AM1  705  14.231  10.544   9.107 -0.1946 -0.1000 -0.2848
   78PNCE   AM2  706  14.139  10.759   8.888  0.0904  0.0393  0.2268
   78PNCE   T1A  707  14.660  10.569   8.971 -0.0610  0.5263  0.1719
   78PNCE   C2A  708  14.975  10.546   8.606  0.2148  0.1338 -0.2048
   78PNCE   C3A  709  15.457  10.411   8.399 -0.1871 -0.1105 -0.2195
   78PNCE   C1B  710  14.431  10.623   8.528  0.1906  0.0781  0.0084
   78PNCE   C2B  711  14.537  10.634   8.072  0.0336 -0.0182  0.1683
   78PNCE   C3B  712  14.377  10.590   7.675 -0.3378 -0.0985 -0.2328
   78PNCE   D4B  713  14.499  10.921   7.329 -0.0930  0.0297 -0.1247
   78PNCE   C5B  714  14.926  11.087   7.068  0.0359  0.2843  0.3251
   78PNCE   C6B  715  15.303  11.391   6.961 -0.0184 -0.3027 -0.2167
   79XCA    COO  716   7.996  10.580   4.848 -0.4721  0.1840  0.0973
   79XCA     C1  717   8.002  10.576   5.258 -0.2356  0.2979  0.0031
   79XCA     C2  718   7.961  10.362   5.623  0.1566  0.0258 -0.2367
   79XCA     C3  719   7.975  10.409   6.011 -0.1030 -0.0736 -0.0362
   79XCA     C4  720   8.141  10.315   6.354 -0.1698  0.2022 -0.0450
   79XCA     C5  721   8.359  10.531   6.673  0.0014  0.0669  0.2192
   79XCA     C6  722   8.785  10.612   6.795 -0.2430 -0.0339  0.1004
   80PNCE   AM1  723  12.206   4.746   8.928  0.1891 -0.3080  0.2815
   80PNCE   AM2  724  12.324   5.113   9.034 -0.0105 -0.1686  0.2977
   80PNCE   T1A  725  12.401   4.512   8.595  0.0104  0.0784  0.3218
   80PNCE   C2A  726  12.501   4.398   8.176  0.1950 -0.3841 -0.0604
   80PNCE   C3A  727  12.291   4.320   7.861 -0.0753 -0.0451 -0.1473
   80PNCE   C1B  728  12.482   5.077   8.595  0.2517 -0.1150 -0.0036
   80PNCE   C2B  729  12.770   4.817   8.286  0.2056 -0.0678 -0.2007
   80PNCE   C3B  730  12.962   4.307   8.066 -0.0353 -0.0561  0.1965
   80PNCE   D4B  731  13.146   3.989   7.832  0.1544 -0.1913 -0.1133
   80PNCE   C5B  732  13.203   4.090   7.428  0.1595 -0.1872  0.1860
   80PNCE   C6B  733  13.375   4.298   7.152  0.0542  0.3513 -0.0276
   81XCA    COO  734   7.483   3.860   7.970  0.0608  0.1039 -0.0551
   81XCA     C1  735   7.608   4.009   7.608 -0.0653  0.1988 -0.3015
   81XCA     C2  736   7.905   4.260   7.420 -0.0702 -0.0518 -0.0916
   81XCA     C3  737   8.106   4.463   6.922 -0.1596 -0.3482 -0.0718
   81XCA     C4  738   7.946   4.581   6.509 -0.1141 -0.0315 -0.0161
   81XCA     C5  739   7.953   4.817   6.176  0.2218 -0.0976 -0.2621
   81XCA     C6  740   7.926   4.985   5.785 -0.0071 -0.2606  0.1434
   82CHOL   ROH  741  11.000   6.847   5.335 -0.2286  0.1720 -0.0637
   82CHOL    R1  742  10.862   6.913   5.573 -0.2980  0.0181 -0.0599
   82CHOL    R2  743  10.694   6.736   5.702 -0.1247 -0.1601 -0.0752
   82CHOL    R3  744  10.853   6.791   5.916 -0.1801 -0.0186 -0.0690
   82CHOL    R4  745  10.591   6.723   6.031 -0.1418 -0.1971 -0.0818
   82CHOL    R5  746  10.708   6.903   6.070 -0.2762 -0.1060 -0.0936
   82CHOL    C1  747  10.680   6.766   6.425 -0.2035 -0.0858 -0.0797
   82CHOL    C2  748  10.522   6.766   6.826  0.1369  0.1650 -0.0427
   83CHOL   ROH  749   6.433   9.794   5.326  0.0282  0.1865  0.1215
   83CHOL    R1  750   6.271   9.848   5.552 -0.0203  0.1218  0.1032
   83CHOL    R2  751   6.298   9.712   5.791 -0.0226  0.1021  0.0948
   83CHOL    R3  752   6.324   9.963   5.893 -0.0997  0.0980  0.1228
   83CHOL    R4  753   6.136   9.827   6.073 -0.1373  0.0573  0.0473
   83CHOL    R5  754   6.104  10.017   5.972 -0.1334  0.0574  0.0519
   83CHOL    C1  755   6.065  10.129   6.334 -0.2764  0.0273  0.0459
   83CHOL    C2  756   6.028  10.184   6.771  0.1031 -0.1175  0.0263
   84PNCE   AM1  757   8.297   5.575   4.503  0.0306  0.0780 -0.1708
   84PNCE   AM2  758   7.953   5.677   4.567  0.0310  0.1576  0.1203
   84PNCE   T1A  759   8.514   5.875   4.258 -0.1858 -0.1287  0.2093
   84PNCE   C2A  760   8.760   6.334   4.419  0.3551  0.0288 -0.0673
   84PNCE   C3A  761   8.740   6.688   4.306  0.1857  0.1602  0.0102
   84PNCE   C1B  762   7.807   5.744   4.969  0.1483 -0.4904  0.0176
   84PNCE   C2B  763   7.599   5.772   5.261  0.0947 -0.3469  0.0172
   84PNCE   C3B  764   7.427   5.876   5.573 -0.2241 -0.3887  0.0546
   84PNCE   D4B  765   7.632   6.357   5.733  0.0163  0.2134  0.0089
   84PNCE   C5B  766   7.852   6.625   5.590  0.1915  0.2974  0.1360
   84PNCE   C6B  767   7.740   6.731   5.215  0.1548 -0.3214  0.3398
   85PNCE   AM1  768  13.392   1.798   8.307  0.2896 -0.1467  0.1057
   85PNCE   AM2  769  13.113   1.636   8.503 -0.0766  0.2623 -0.2936
   85PNCE   T1A  770  13.162   2.050   8.130  0.1352  0.2658  0.0288
   85PNCE   C2A  771  13.122   2.211   7.741 -0.0863 -0.2424  0.0607
   85PNCE   C3A  772  12.652   2.439   7.578 -0.0868 -0.1957 -0.0449
   85PNCE   C1B  773  12.990   1.594   8.146  0.0938  0.3549  0.0800
   85PNCE   C2B  774  13.070   1.656   7.719 -0.1428 -0.1030 -0.2558
   85PNCE   C3B  775  12.817   1.456   7.429  0.2874  0.3254 -0.2396
   85PNCE   D4B  776  12.642   1.291   7.044  0.4794 -0.1760  0.0949
   85PNCE   C5B  777  13.047   1.188   6.900 -0.1787  0.1361 -0.0466
   85PNCE   C6B  778  13.379   1.118   6.603 -0.0551  0.1192 -0.1553
   86CHOL   ROH  779   4.835   2.370   8.243  0.0161  0.0200 -0.0586
   86CHOL    R1  780   4.795   2.581   8.058 -0.0068  0.0770  0.0105
   86CHOL    R2  781   4.977   2.787   8.026  0.0851 -0.0148 -0.0877
   86CHOL    R3  782   4.966   2.712   7.765 -0.1536  0.0350 -0.0934
   86CHOL    R4  783   4.985   3.005   7.757 -0.0031  0.0211 -0.0610
   86CHOL    R5  784   4.834   2.882   7.660 -0.1417  0.1204  0.0335
   86CHOL    C1  785   4.979   3.061   7.356 -0.2785  0.0889 -0.0509
   86CHOL    C2  786   4.620   3.173   7.175 -0.0720  0.0590  0.1761
   87PNCE   AM1  787   8.757   8.939   9.264 -0.0061 -0.1305 -0.0865
   87PNCE   AM2  788   8.355   8.979   9.278 -0.1780  0.0583  0.1422
   87PNCE   T1A  789   8.997   9.212   9.082  0.2171  0.2487 -0.3518
   87PNCE   C2A  790   9.392   9.244   8.959  0.1243  0.0845 -0.1845
   87PNCE   C3A  791   9.644   8.958   8.838  0.0177  0.2391  0.0538
   87PNCE   C1B  792   8.561   9.148   8.817  0.3581  0.1902  0.0318
   87PNCE   C2B  793   8.624   8.968   8.388  0.2623 -0.0335 -0.1478
   87PNCE   C3B  794   8.927   9.058   8.003 -0.2208  0.0566 -0.0632
   87PNCE   D4B  795   9.062   9.027   7.573  0.2205 -0.0400 -0.1971
   87PNCE   C5B  796   8.699   8.843   7.366 -0.1205  0.0500 -0.1819
   87PNCE   C6B  797   8.245   8.851   7.292  0.1175  0.0927 -0.0189
   88XCA    COO  798   9.221   0.223   8.466  0.4954 -0.0810 -0.1932
   88XCA     C1  799   9.262   0.069   8.005  0.1932 -0.0345  0.0990
   88XCA     C2  800   9.498  -0.196   7.786  0.2620  0.1314  0.1311
   88XCA     C3  801   9.452  -0.475   7.375 -0.1923 -0.0418 -0.0982
   88XCA     C4  802   9.539  -0.450   6.934  0.1060 -0.1830  0.0241
   88XCA     C5  803   9.314  -0.498   6.519  0.0830  0.1635 -0.2365
   88XCA     C6  804   9.384  -0.493   6.080  0.1033 -0.5732 -0.0201
   89CHOL   ROH  805   8.404   6.535   7.779  0.1686 -0.0502 -0.1667
   89CHOL    R1  806   8.331   6.793   7.686  0.2167 -0.0118 -0.1029
   89CHOL    R2  807   8.355   6.867   7.421  0.0745 -0.0041 -0.1209
   89CHOL    R3  808   8.091   6.930   7.448  0.1177  0.1001  0.0622
   89CHOL    R4  809   8.175   7.067   7.203  0.0062  0.1158  0.0445
   89CHOL    R5  810   8.076   7.157   7.375  0.1575  0.1176  0.1237
   89CHOL    C1  811   7.824   7.242   7.102  0.0072  0.2835  0.3128
   89CHOL    C2  812   7.527   7.182   6.933 -0.4883 -0.1105 -0.0674
   90CHOL   ROH  813   9.377  14.356   4.850  0.1427  0.1382 -0.1547
   90CHOL    R1  814   9.370  14.407   5.128  0.2102  0.0661 -0.1389
   90CHOL    R2  815   9.541  14.587   5.250  0.1119  0.1803 -0.1638
   90CHOL    R3  816   9.310  14.695   5.342  0.0562 -0.0334 -0.0472
   90CHOL    R4  817   9.511  14.766   5.544  0.1060  0.1901 -0.1711
   90CHOL    R5  818   9.320  14.665   5.579  0.2223  0.0078 -0.0485
   90CHOL    C1  819   9.275  14.971   5.802  0.0501 -0.0049 -0.0657
   90CHOL    C2  820   9.581  14.867   6.003 -0.1727 -0.0698 -0.0541
   91CHOL   ROH  821  13.732  10.061   6.156  0.0803  0.1976 -0.0224
   91CHOL    R1  822  13.932  10.077   6.356  0.0199  0.0565  0.0504
   91CHOL    R2  823  13.933  10.275   6.549  0.0393  0.0021  0.1064
   91CHOL    R3  824  13.943  10.063   6.720 -0.1088 -0.0505  0.0513
   91CHOL    R4  825  13.975  10.299   6.891 -0.0272 -0.1132  0.1234
   91CHOL    R5  826  14.107  10.126   6.883 -0.1138 -0.1791  0.1071
   91CHOL    C1  827  14.008  10.115   7.251 -0.2049 -0.2298  0.0815
   91CHOL    C2  828  14.262   9.978   7.473 -0.0336  0.0109 -0.1421
   92PNCE   AM1  829   9.086   3.418   8.202  0.0127  0.2549  0.2454
   92PNCE   AM2  830   9.068   3.599   7.977 -0.2831 -0.1721  0.1097
   92PNCE   T1A  831   9.207   3.084   8.014 -0.1692 -0.0115 -0.0392
   92PNCE   C2A  832   9.460   2.822   7.775  0.1900  0.2527 -0.1836
   92PNCE   C3A  833   9.494   2.675   7.417  0.0546  0.1392 -0.0133
   92PNCE   C1B  834   9.010   3.419   7.620  0.1910 -0.1940 -0.0002
   92PNCE   C2B  835   9.083   3.506   7.146  0.0122 -0.5751 -0.2176
   92PNCE   C3B  836   9.173   3.453   6.670  0.1211 -0.2778 -0.0798
   92PNCE   D4B  837   9.179   3.461   6.260 -0.0037 -0.0129  0.1127
   92PNCE   C5B  838   8.912   3.211   6.016  0.0152 -0.2432  0.1158
   92PNCE   C6B  839   8.809   2.977   5.669 -0.2453 -0.1699 -0.2464
   93CHOL   ROH  840   4.926  13.215   8.201 -0.0194  0.0622  0.1646
   93CHOL    R1  841   4.670  13.167   8.090  0.0248 -0.0042  0.0937
   93CHOL    R2  842   4.591  13.274   7.848  0.0713 -0.0373  0.0716
   93CHOL    R3  843   4.538  13.015   7.787  0.1425 -0.0517  0.0628
   93CHOL    R4  844   4.453  13.166   7.550 -0.2227 -0.0138  0.1948
   93CHOL    R5  845   4.332  13.024   7.663 -0.0173 -0.1186  0.3042
   93CHOL    C1  846   4.323  12.860   7.319 -0.3271 -0.0137  0.2583
   93CHOL    C2  847   4.253  12.945   6.966  0.1326  0.1667 -0.0005
   94XCA    COO  848  15.530   0.601   7.844 -0.0164 -0.1196 -0.0917
   94XCA     C1  849  15.883   0.665   7.471 -0.3279 -0.0061  0.0672
   94XCA     C2  850  15.988   0.871   7.064 -0.2237  0.0330 -0.1243
   94XCA     C3  851  15.692   0.804   6.730 -0.2359 -0.0179 -0.0074
   94XCA     C4  852  15.459   0.590   6.392 -0.1197  0.0146  0.0930
   94XCA     C5  853  15.568   0.189   6.252  0.1858  0.2301 -0.1188
   94XCA     C6  854  15.759   0.005   5.872 -0.0505  0.1254 -0.0357
   95CHOL   ROH  855   5.240  12.171   4.902 -0.1787 -0.1912  0.0772
   95CHOL    R1  856   5.225  12.303   5.152 -0.1610 -0.0621  0.0102
   95CHOL    R2  857   5.444  12.425   5.269 -0.1444 -0.0502 -0.0458
   95CHOL    R3  858   5.279  12.640   5.277 -0.0977 -0.0089 -0.1532
   95CHOL    R4  859   5.454  12.672   5.510 -0.4912 -0.2731  0.2079
   95CHOL    R5  860   5.236  12.674   5.510 -0.5053 -0.2127 -0.1849
   95CHOL    C1  861   5.304  13.019   5.657 -0.6493 -0.3640  0.2548
   95CHOL    C2  862   5.245  13.284   5.868  0.2116 -0.0929  0.1363
   96XCA    COO  863   9.398  15.519   4.303 -0.0210 -0.1172 -0.1276
   96XCA     C1  864   9.133  15.705   4.669 -0.0084 -0.1236  0.1642
   96XCA     C2  865   9.110  15.534   5.020 -0.0003 -0.1463  0.0221
   96XCA     C3  866   8.940  15.475   5.375  0.0248  0.0061  0.0447
   96XCA     C4  867   8.595  15.248   5.621 -0.3963  0.0548 -0.0835
   96XCA     C5  868   8.427  15.118   5.840  0.1619  0.1122 -0.2563
   96XCA     C6  869   8.047  14.860   5.856  0.2212 -0.0119  0.1463
   97PNCE   AM1  870   7.967  15.537   8.155  0.0185  0.0776 -0.0310
   97PNCE   AM2  871   7.761  15.769   8.155  0.0448  0.0786  0.1229
   97PNCE   T1A  872   8.348  15.665   7.811 -0.1288  0.0629  0.2468
   97PNCE   C2A  873   8.561  15.636   7.525 -0.0104 -0.0989 -0.1229
   97PNCE   C3A  874   8.773  15.316   7.307  0.2097  0.3402 -0.0643
   97PNCE   C1B  875   7.988  16.065   7.835  0.0309  0.0935  0.1038
   97PNCE   C2B  876   7.994  16.134   7.413  0.4596 -0.0986 -0.1262
   97PNCE   C3B  877   8.205  16.555   7.164  0.0539 -0.0263 -0.1092
   97PNCE   D4B  878   8.475  16.941   6.917 -0.0667 -0.1647  0.5005
   97PNCE   C5B  879   8.271  17.299   6.702 -0.0811 -0.0432  0.1157
   97PNCE   C6B  880   8.308  17.727   6.956  0.2465  0.1848  0.2682
   98PNCE   AM1  881   4.176   5.662   9.222  0.2228 -0.1858  0.0842
   98PNCE   AM2  882   3.915   5.890   9.128  0.1478  0.2402 -0.0163
   98PNCE   T1A  883   4.461   5.801   8.949 -0.1463 -0.3200  0.0584
   98PNCE   C2A  884   4.625   5.748   8.480 -0.0943 -0.0931  0.1054
   98PNCE   C3A  885   4.539   5.576   8.066  0.0620 -0.4709  0.2168
   98PNCE   C1B  886   4.095   5.771   8.675  0.1901 -0.1197  0.0514
   98PNCE   C2B  887   4.068   5.647   8.221  0.0509  0.2192 -0.1402
   98PNCE   C3B  888   3.838   5.668   7.841  0.0190  0.2087  0.1964
   98PNCE   D4B  889   3.491   5.623   7.562  0.1055 -0.0060  0.0133
   98PNCE   C5B  890   3.323   5.800   7.150  0.3148 -0.1047 -0.0458
   98PNCE   C6B  891   3.477   6.095   6.840  0.0009 -0.1744 -0.2283
   99PNCE   AM1  892   6.687   4.435   8.108  0.0339 -0.0631  0.0356
   99PNCE   AM2  893   6.674   4.464   8.515 -0.1993  0.1981  0.1805
   99PNCE   T1A  894   6.851   4.693   7.734  0.1158 -0.1813  0.0307
   99PNCE   C2A  895   6.946   4.755   7.285  0.1281 -0.0153  0.2127
   99PNCE   C3A  896   7.270   4.825   6.972  0.1449  0.0269 -0.1025
   99PNCE   C1B  897   6.270   4.203   8.374 -0.1595  0.3059 -0.0760
   99PNCE   C2B  898   5.881   4.147   8.138  0.0058 -0.1518  0.1455
   99PNCE   C3B  899   5.766   4.137   7.712  0.1216 -0.3207  0.0709
   99PNCE   D4B  900   6.024   4.187   7.375 -0.2583  0.2532  0.1429
   99PNCE   C5B  901   5.920   3.896   7.052  0.0600 -0.0024 -0.1477
   99PNCE   C6B  902   5.711   3.653   6.969 -0.0368  0.0135 -0.2019
  100CHOL   ROH  903   8.024  10.773   8.305 -0.3272  0.2444  0.0909
  100CHOL    R1  904   8.031  10.959   8.091  0.1969  0.1560  0.0187
  100CHOL    R2  905   8.206  10.933   7.878  0.0769 -0.4777 -0.0300
  100CHOL    R3  906   7.978  10.950   7.731  0.0622  0.1801  0.0394
  100CHOL    R4  907   8.193  10.935   7.533 -0.0361 -0.5350 -0.0261
  100CHOL    R5  908   8.038  11.087   7.544  0.4227 -0.0456 -0.0147
  100CHOL    C1  909   7.972  10.952   7.193 -0.1158  0.0491  0.0413
  100CHOL    C2  910   7.727  11.191   6.992  0.3034 -0.3040  0.0115
  101XCA    COO  911  15.762   3.541   9.153 -0.1295  0.0860  0.1920
  101XCA     C1  912  15.613   3.854   8.799 -0.1402  0.0501 -0.1614
  101XCA     C2  913  15.726   3.985   8.381  0.1828  0.1118  0.0651
  101XCA     C3  914  16.000   4.161   8.090  0.2477  0.0790  0.2497
  101XCA     C4  915  16.099   4.275   7.754  0.2110  0.2697  0.0065
  101XCA     C5  916  16.367   4.682   7.495  0.0082 -0.1413 -0.1452
  101XCA     C6  917  16.558   5.096   7.494 -0.0503  0.0627  0.3509
  102PNCE   AM1  918   6.343   0.319   6.963  0.0874  0.0931  0.1082
  102PNCE   AM2  919   6.275   0.060   7.072  0.1123  0.0668  0.0716
  102PNCE   T1A  920   6.587   0.627   6.740  0.0617  0.1757 -0.1275
  102PNCE   C2A  921   6.820   0.947   6.499  0.3528 -0.2419  0.0553
  102PNCE   C3A  922   7.096   1.220   6.418  0.0871  0.0198  0.0787
  102PNCE   C1B  923   6.552  -0.193   6.733 -0.0252  0.3126  0.0771
  102PNCE   C2B  924   6.465  -0.349   6.327  0.1272 -0.1173  0.0105
  102PNCE   C3B  925   6.443  -0.551   5.904 -0.4435 -0.2096  0.0773
  102PNCE   D4B  926   6.509  -0.423   5.446  0.2284  0.1380 -0.0580
  102PNCE   C5B  927   6.249  -0.436   5.107 -0.2534  0.2084 -0.1702
  102PNCE   C6B  928   6.340  -0.711   4.861  0.1086  0.1388 -0.0522
  103PNCE   AM1  929   8.195  12.620   8.268 -0.0338  0.2949 -0.1469
  103PNCE   AM2  930   7.858  12.715   8.354  0.0864 -0.0354 -0.0317
  103PNCE   T1A  931   7.838  12.321   8.028 -0.1653  0.0850  0.0064
  103PNCE   C2A  932   7.549  11.912   7.719 -0.3624 -0.1145  0.0211
  103PNCE   C3A  933   7.401  11.780   7.354 -0.1915 -0.0672 -0.1518
  103PNCE   C1B  934   7.554  12.760   7.984  0.0478 -0.2934  0.4271
  103PNCE   C2B  935   7.384  12.667   7.582  0.0012 -0.0160  0.2320
  103PNCE   C3B  936   7.065  12.538   7.204 -0.0241 -0.0933 -0.0008
  103PNCE   D4B  937   6.663  12.696   7.156  0.1163 -0.4073  0.0735
  103PNCE   C5B  938   6.656  13.129   6.990 -0.0356  0.0684 -0.1784
  103PNCE   C6B  939   6.812  13.319   6.550  0.1131  0.0434 -0.2600
  104PNCE   AM1  940   1.454   4.305   9.259  0.1393  0.1035 -0.1580
  104PNCE   AM2  941   1.762   4.436   9.554 -0.0410 -0.0174 -0.1695
  104PNCE   T1A  942   1.809   4.181   9.018  0.0819  0.2679 -0.2049
  104PNCE   C2A  943   1.847   4.073   8.621 -0.1448  0.0779  0.0368
  104PNCE   C3A  944   2.004   4.027   8.199  0.4986  0.4013 -0.3982
  104PNCE   C1B  945   1.561   4.724   9.125 -0.0286 -0.0564  0.1730
  104PNCE   C2B  946   1.736   5.065   8.874 -0.0938  0.0562 -0.0321
  104PNCE   C3B  947   1.804   5.082   8.391  0.1277 -0.3001 -0.1253
  104PNCE   D4B  948   2.083   5.035   8.016 -0.2656  0.0532 -0.3415
  104PNCE   C5B  949   2.030   4.921   7.696  0.1696 -0.1510 -0.1606
  104PNCE   C6B  950   1.981   4.673   7.335 -0.1928 -0.0095 -0.3567
  105CHOL   ROH  951   8.736  11.502   8.175 -0.0485  0.0794 -0.1441
  105CHOL    R1  952   8.809  11.338   7.956  0.0522 -0.0165 -0.0404
  105CHOL    R2  953   8.867  11.441   7.706 -0.1248 -0.1474 -0.1399
  105CHOL    R3  954   9.099  11.303   7.738  0.0263  0.1106 -0.0952
  105CHOL    R4  955   9.066  11.324   7.448 -0.1125 -0.2076 -0.1028
  105CHOL    R5  956   9.097  11.141   7.562  0.1138 -0.0664  0.0653
  105CHOL    C1  957   9.399  11.126   7.329  0.0366 -0.0006 -0.0392
  105CHOL    C2  958   9.421  11.378   7.062 -0.1248  0.1510  0.0117
  106PNCE   AM1  959   1.970  10.969   9.963 -0.1649 -0.2705 -0.0277
  106PNCE   AM2  960   1.652  11.110   9.951  0.0782 -0.2652 -0.0692
  106PNCE   T1A  961   1.658  10.551   9.825 -0.0341 -0.2597  0.2219
  106PNCE   C2A  962   1.482  10.267   9.482 -0.0240  0.1083 -0.1363
  106PNCE   C3A  963   1.414  10.164   8.997  0.2221 -0.0679  0.0033
  106PNCE   C1B  964   1.911  10.967   9.455 -0.2122  0.2928 -0.0722
  106PNCE   C2B  965   1.772  10.600   9.239  0.2963  0.0001  0.1880
  106PNCE   C3B  966   1.815  10.462   8.807 -0.2429 -0.2424  0.0615
  106PNCE   D4B  967   1.432  10.417   8.560  0.2331  0.0221 -0.3060
  106PNCE   C5B  968   0.989  10.530   8.793  0.2774 -0.0906 -0.2645
  106PNCE   C6B  969   0.547  10.641   9.117  0.1728 -0.2749 -0.0023
  107PNCE   AM1  970   8.475  11.080   8.654 -0.0089 -0.2413 -0.2435
  107PNCE   AM2  971   8.765  10.784   8.806  0.0767  0.2912  0.4452
  107PNCE   T1A  972   8.539  11.035   8.196  0.3231 -0.0250 -0.1849
  107PNCE   C2A  973   8.665  10.972   7.768 -0.0065 -0.0005  0.4811
  107PNCE   C3A  974   8.672  11.142   7.403  0.1653 -0.1311 -0.0352
  107PNCE   C1B  975   8.860  10.474   8.559  0.3083 -0.3995  0.0382
  107PNCE   C2B  976   8.924  10.373   8.135  0.0140  0.2130 -0.0530
  107PNCE   C3B  977   8.759   9.986   7.740  0.0977  0.1166  0.0455
  107PNCE   D4B  978   9.014   9.662   7.593  0.0457 -0.2652 -0.0749
  107PNCE   C5B  979   8.714   9.329   7.585 -0.0103  0.1879 -0.0776
  107PNCE   C6B  980   8.444   9.001   7.759  0.3457  0.0348 -0.4021
  108PNCE   AM1  981   5.235   7.059   9.099  0.1749 -0.0299 -0.1530
  108PNCE   AM2  982   4.977   6.845   9.062 -0.1318 -0.5675 -0.0006
  108PNCE   T1A  983   5.195   7.424   8.763  0.0495  0.0027  0.0851
  108PNCE   C2A  984   5.303   7.663   8.465  0.1646 -0.0401 -0.0519
  108PNCE   C3A  985   5.437   7.514   8.075 -0.0597  0.1316 -0.1276
  108PNCE   C1B  986   4.649   7.080   8.699 -0.4350  0.2094  0.0918
  108PNCE   C2B  987   4.283   7.046   8.466  0.2088  0.1388 -0.4151
  108PNCE   C3B  988   4.452   6.905   8.075  0.0184  0.1628  0.0983
  108PNCE   D4B  989   4.455   6.877   7.622 -0.0746  0.1091  0.1489
  108PNCE   C5B  990   4.800   6.869   7.402 -0.2257 -0.0776 -0.0763
  108PNCE   C6B  991   5.083   6.652   7.446  0.0632  0.0607  0.3332
  109CHOL   ROH  992   4.848   3.097   6.051  0.0319 -0.2301  0.1565
  109CHOL    R1  993   4.590   2.981   6.066 -0.0773 -0.0002  0.1169
  109CHOL    R2  994   4.541   2.745   6.202 -0.2533 -0.1122 -0.1287
  109CHOL    R3  995   4.353   2.896   6.329 -0.0607 -0.0675  0.1093
  109CHOL    R4  996   4.228   2.633   6.296 -0.2972  0.0680 -0.0564
  109CHOL    R5  997   4.146   2.825   6.234 -0.1739  0.1919  0.1607
  109CHOL    C1  998   3.869   2.709   6.470 -0.1419  0.2149  0.2091
  109CHOL    C2  999   3.869   2.375   6.489  0.1164  0.2485 -0.0265
  110CHOL   ROH 1000   7.858   2.309   6.323 -0.1041 -0.0760  0.0668
  110CHOL    R1 1001   7.816   2.137   6.102 -0.0158 -0.0545  0.0332
  110CHOL    R2 1002   8.007   1.957   6.016  0.0213 -0.0400  0.0878
  110CHOL    R3 1003   7.804   1.778   6.045  0.0143 -0.0491 -0.0085
  110CHOL    R4 1004   7.931   1.707   5.789  0.1697 -0.0734  0.0733
  110CHOL    R5 1005   7.719   1.748   5.823  0.1462 -0.0821 -0.0563
  110CHOL    C1 1006   7.696   1.393   5.685  0.2496 -0.1014 -0.0257
  110CHOL    C2 1007   7.825   1.105   5.776  0.0840 -0.0082  0.3936
  111PNCE   AM1 1008   0.692   6.731   9.743  0.4929 -0.2232  0.0504
  111PNCE   AM2 1009   0.466   6.932   9.703  0.0785 -0.0988 -0.1912
  111PNCE   T1A 1010   0.710   6.516   9.431 -0.2800  0.1054  0.1073
  111PNCE   C2A 1011   0.730   6.485   8.983 -0.1148 -0.0745 -0.1166
  111PNCE   C3A 1012   0.972   6.682   8.594  0.0866  0.1606 -0.0231
  111PNCE   C1B 1013   0.556   7.000   9.310 -0.2100 -0.1734  0.2481
  111PNCE   C2B 1014   0.625   6.977   8.809  0.2270 -0.1477  0.1000
  111PNCE   C3B 1015   0.667   7.048   8.414 -0.1674  0.0597  0.1679
  111PNCE   D4B 1016   0.384   7.346   8.183 -0.2041 -0.4083  0.0228
  111PNCE   C5B 1017   0.487   7.803   8.027 -0.2881  0.3167  0.1362
  111PNCE   C6B 1018   0.401   8.072   7.745  0.0253  0.2259 -0.0458
  112CHOL   ROH 1019   9.973   5.807   8.211  0.1153  0.2011 -0.1920
  112CHOL    R1 1020   9.874   5.666   7.987  0.0132  0.1289 -0.1023
  112CHOL    R2 1021   9.797   5.792   7.753  0.0669  0.0393 -0.1681
  112CHOL    R3 1022   9.972   5.618   7.639 -0.0451 -0.1293 -0.0856
  112CHOL    R4 1023   9.803   5.711   7.418 -0.0565 -0.2031 -0.1139
  112CHOL    R5 1024   9.842   5.504   7.474 -0.1443 -0.1851  0.0269
  112CHOL    C1 1025   9.971   5.500   7.115 -0.2333 -0.5026 -0.0049
  112CHOL    C2 1026  10.122   5.740   6.861  0.1863  0.1653 -0.0214
  113CHOL   ROH 1027  14.655  13.317   8.645  0.1051 -0.3220 -0.0700
  113CHOL    R1 1028  14.627  13.382   8.371  0.1506 -0.1842 -0.0407
  113CHOL    R2 1029  14.805  13.295   8.178  0.0362 -0.2983 -0.0823
  113CHOL    R3 1030  14.579  13.200   8.059 -0.0751 -0.0087 -0.1143
  113CHOL    R4 1031  14.776  13.219   7.842  0.0204 -0.3158 -0.0785
  113CHOL    R5 1032  14.576  13.307   7.844  0.1292 -0.0321 -0.1387
  113CHOL    C1 1033  14.547  13.085   7.535 -0.0934 -0.0541 -0.1064
  113CHOL    C2 1034  14.640  13.075   7.178  0.0036 -0.2399 -0.2682
  114XCA    COO 1035   7.359   8.038   8.665 -0.3362  0.0014  0.1650
  114XCA     C1 1036   7.407   8.259   8.307 -0.3497 -0.0094 -0.1203
  114XCA     C2 1037   7.545   8.323   7.878 -0.0852 -0.0561 -0.1422
  114XCA     C3 1038   7.743   8.677   7.511  0.3536 -0.1123 -0.1364
  114XCA     C4 1039   7.726   8.846   7.117 -0.1933  0.1139 -0.1554
  114XCA     C5 1040   7.889   9.198   6.768  0.0734  0.0471 -0.3633
  114XCA     C6 1041   7.983   9.641   6.550 -0.1931 -0.2011  0.2005
  115XCA    COO 1042   9.182   1.015   8.051 -0.2784  0.0384 -0.0320
  115XCA     C1 1043   9.224   0.887   7.560 -0.0978 -0.0217 -0.0814
  115XCA     C2 1044   9.364   0.734   7.239  0.0700  0.1043 -0.1804
  115XCA     C3 1045   9.476   0.482   6.952 -0.0151 -0.0022 -0.0092
  115XCA     C4 1046   9.843   0.173   6.990 -0.3660 -0.4854 -0.4564
  115XCA     C5 1047  10.219   0.038   6.861  0.2349  0.2153  0.3440
  115XCA     C6 1048  10.477  -0.330   6.888  0.1297  0.2692 -0.2934
  116XCA    COO 1049   9.020   0.694   8.393  0.1448 -0.0308  0.0519
  116XCA     C1 1050   9.431   0.913   8.472 -0.2140  0.0414  0.3031
  116XCA     C2 1051   9.740   0.942   8.157  0.0535 -0.1298  0.0865
  116XCA     C3 1052   9.701   0.720   7.735 -0.0705  0.1041 -0.1675
  116XCA     C4 1053   9.837   0.520   7.474  0.0867  0.0327 -0.0022
  116XCA     C5 1054  10.228   0.553   7.209  0.1329  0.2074  0.1406
  116XCA     C6 1055  10.236   0.533   6.755  0.2353  0.3896 -0.1982
  117CHOL   ROH 1056  13.095   2.905   5.055  0.0939  0.0348  0.0753
  117CHOL    R1 1057  13.090   2.789   5.313  0.1078 -0.0380  0.0420
  117CHOL    R2 1058  13.214   2.905   5.531  0.1265 -0.1071  0.0619
  117CHOL    R3 1059  12.967   2.882   5.642  0.1358 -0.1295  0.0804
  117CHOL    R4 1060  13.148   2.899   5.870  0.2017 -0.5232  0.0751
  117CHOL    R5 1061  12.999   2.744   5.834  0.1127 -0.4076 -0.1037
  117CHOL    C1 1062  12.878   2.874   6.172  0.2541 -0.7865  0.1002
  117CHOL    C2 1063  12.556   2.706   6.449 -0.3427 -0.0636  0.2319
  118CHOL   ROH 1064  10.974   4.273   7.727 -0.2476 -0.0887 -0.0607
  118CHOL    R1 1065  10.986   4.520   7.589 -0.0905 -0.1105 -0.0867
  118CHOL    R2 1066  11.180   4.575   7.400 -0.1090 -0.2895 -0.1563
  118CHOL    R3 1067  10.965   4.630   7.243 -0.1176 -0.1231 -0.0897
  118CHOL    R4 1068  11.196   4.682   7.072 -0.1246 -0.2687 -0.1510
  118CHOL    R5 1069  11.032   4.819   7.113 -0.0195 -0.1553 -0.0900
  118CHOL    C1 1070  11.003   4.795   6.733 -0.1417 -0.1005 -0.0854
  118CHOL    C2 1071  10.894   4.908   6.475  0.3172  0.1985 -0.2793
  119CHOL   ROH 1072   0.383   4.940   5.012 -0.3541  0.1820 -0.1070
  119CHOL    R1 1073   0.238   4.934   5.255 -0.2244  0.1368 -0.0285
  119CHOL    R2 1074   0.183   4.699   5.390 -0.2510  0.0959 -0.0999
  119CHOL    R3 1075   0.301   4.829   5.598 -0.0776 -0.0429 -0.1102
  119CHOL    R4 1076   0.231   4.567   5.706 -0.2656  0.0037 -0.1368
  119CHOL    R5 1077   0.178   4.760   5.790 -0.0747  0.0310 -0.0863
  119CHOL    C1 1078   0.370   4.612   6.084 -0.1113 -0.1802 -0.1679
  119CHOL    C2 1079   0.596   4.540   6.400 -0.1368  0.1153 -0.3358
  120PNCE   AM1 1080   8.874   8.237   8.861 -0.2093 -0.1069  0.0149
  120PNCE   AM2 1081   9.084   7.954   8.626 -0.0871 -0.2111  0.0160
  120PNCE   T1A 1082   8.548   8.227   8.514 -0.4340 -0.0605 -0.0904
  120PNCE   C2A 1083   8.512   8.454   8.099 -0.6820  0.1342  0.1104
  120PNCE   C3A 1084   8.763   8.625   7.807  0.0505 -0.0855 -0.0319
  120PNCE   C1B 1085   9.307   8.067   8.235  0.0314 -0.1973 -0.1307
  120PNCE   C2B 1086   9.589   7.988   7.896 -0.0302  0.0545 -0.0333
  120PNCE   C3B 1087   9.635   8.158   7.490 -0.0332  0.2275 -0.3242
  120PNCE   D4B 1088   9.790   8.428   7.216  0.1934  0.1119 -0.0043
  120PNCE   C5B 1089  10.001   8.748   7.052 -0.0863 -0.0638  0.1145
  120PNCE   C6B 1090  10.245   9.074   6.860 -0.0714 -0.4040 -0.0079
  121CHOL   ROH 1091   3.162  11.784   5.725  0.1995 -0.2515 -0.0233
  121CHOL    R1 1092   3.101  11.649   5.966 -0.0083 -0.0885  0.0171
  121CHOL    R2 1093   3.291  11.598   6.160 -0.0719 -0.3686  0.0049
  121CHOL    R3 1094   3.113  11.726   6.322  0.1618 -0.0198 -0.0013
  121CHOL    R4 1095   3.328  11.638   6.502 -0.0715 -0.5888  0.0323
  121CHOL    R5 1096   3.115  11.598   6.524 -0.1859 -0.1148 -0.0486
  121CHOL    C1 1097   3.183  11.781   6.852  0.1483 -0.3897  0.0424
  121CHOL    C2 1098   3.288  12.037   7.119 -0.0283  0.1156 -0.3397
  122XCA    COO 1099   3.662   7.209   6.254  0.1783  0.2711 -0.1456
  122XCA     C1 1100   3.931   7.215   6.605  0.0849  0.4013 -0.0021
  122XCA     C2 1101   4.398   7.098   6.712 -0.0658 -0.0483  0.0685
  122XCA     C3 1102   4.751   7.069   6.962  0.0723  0.1609 -0.0032
  122XCA     C4 1103   5.207   6.824   6.991  0.2612 -0.0122 -0.1716
  122XCA     C5 1104   5.297   6.445   6.955 -0.1349  0.1520 -0.2525
  122XCA     C6 1105   5.474   6.267   6.652  0.2554 -0.1799  0.2831
  123XCA    COO 1106  13.044   9.838   9.083 -0.1740  0.0036  0.1905
  123XCA     C1 1107  13.144   9.553   8.680  0.1071 -0.2546 -0.1049
  123XCA     C2 1108  13.401   9.349   8.356 -0.0704  0.2701  0.0645
  123XCA     C3 1109  13.615   9.292   7.999  0.3871  0.0749  0.2951
  123XCA     C4 1110  13.867   8.986   7.739  0.1354  0.1845  0.0860
  123XCA     C5 1111  13.873   8.675   7.436  0.1108 -0.1848  0.0085
  123XCA     C6 1112  13.590   8.411   7.323  0.1976  0.0525 -0.1007
  124PNCE   AM1 1113   8.253  14.094   7.853 -0.2167 -0.0791  0.1677
  124PNCE   AM2 1114   8.309  13.788   7.807 -0.0235 -0.0801 -0.3606
  124PNCE   T1A 1115   8.041  14.249   7.526  0.1804  0.0628 -0.0422
  124PNCE   C2A 1116   7.804  14.268   7.132 -0.0798 -0.3047 -0.2261
  124PNCE   C3A 1117   7.623  14.381   6.667  0.3277 -0.2014 -0.4834
  124PNCE   C1B 1118   8.487  13.955   7.411 -0.1712 -0.0147  0.0719
  124PNCE   C2B 1119   8.635  13.723   7.121  0.0007 -0.2296  0.0509
  124PNCE   C3B 1120   8.736  13.488   6.759 -0.0223 -0.1046 -0.1740
  124PNCE   D4B 1121   9.013  13.137   6.490 -0.0546  0.3144  0.1084
  124PNCE   C5B 1122   9.019  12.706   6.497 -0.1374 -0.1213  0.0973
  124PNCE   C6B 1123   8.947  12.277   6.656 -0.2415  0.1734  0.0679
  125CHOL   ROH 1124   3.109   2.548   7.723 -0.2662 -0.0356  0.1452
  125CHOL    R1 1125   3.013   2.596   7.461 -0.2168  0.0043  0.1338
  125CHOL    R2 1126   3.180   2.607   7.242 -0.1601  0.1342  0.1763
  125CHOL    R3 1127   3.011   2.417   7.144 -0.0622  0.0937  0.0841
  125CHOL    R4 1128   3.126   2.548   6.906 -0.1001  0.2147  0.1517
  125CHOL    R5 1129   2.913   2.521   6.951 -0.0856  0.1054  0.1104
  125CHOL    C1 1130   2.936   2.336   6.618  0.0267  0.2235  0.0506
  125CHOL    C2 1131   2.883   2.465   6.294  0.0507  0.4445 -0.0070
  126CHOL   ROH 1132   5.496   3.299   6.298  0.2265 -0.0912  0.2256
  126CHOL    R1 1133   5.547   3.503   6.488  0.1199  0.0142  0.1427
  126CHOL    R2 1134   5.728   3.707   6.442  0.0859  0.0367  0.0992
  126CHOL    R3 1135   5.516   3.866   6.501  0.0288  0.0139 -0.0441
  126CHOL    R4 1136   5.748   4.013   6.601 -0.0674 -0.0292  0.2478
  126CHOL    R5 1137   5.569   3.961   6.714 -0.1804 -0.0746  0.0501
  126CHOL    C1 1138   5.561   4.340   6.749 -0.2103 -0.0890  0.1999
  126CHOL    C2 1139   5.578   4.495   7.065 -0.0428 -0.1125  0.0129
  127CHOL   ROH 1140   3.228   4.256   8.738  0.0270 -0.0648 -0.1693
  127CHOL    R1 1141   3.411   4.471   8.754  0.0453 -0.0850 -0.0995
  127CHOL    R2 1142   3.433   4.662   8.556  0.0772 -0.0337 -0.0490
  127CHOL    R3 1143   3.392   4.834   8.762  0.0761 -0.0857 -0.0061
  127CHOL    R4 1144   3.416   5.006   8.526  0.0418 -0.0280  0.0356
  127CHOL    R5 1145   3.530   5.023   8.711  0.0528 -0.0606  0.0296
  127CHOL    C1 1146   3.367   5.368   8.701  0.0202 -0.0735  0.1252
  127CHOL    C2 1147   3.616   5.670   8.670  0.0343  0.2706 -0.1328
  128PNCE   AM1 1148   9.627  13.320   8.435  0.1774 -0.0887 -0.1266
  128PNCE   AM2 1149   9.465  13.663   8.517 -0.1717  0.2187 -0.0518
  128PNCE   T1A 1150   9.684  13.346   7.991  0.0934 -0.0779  0.1871
  128PNCE   C2A 1151   9.969  13.262   7.723 -0.2444  0.1489  0.0330
  128PNCE   C3A 1152  10.044  13.208   7.323 -0.4508 -0.1223 -0.3409
  128PNCE   C1B 1153   9.676  13.859   8.171  0.3490  0.1330  0.0392
  128PNCE   C2B 1154   9.923  13.930   7.821 -0.2878 -0.3222 -0.1571
  128PNCE   C3B 1155  10.004  14.248   7.576 -0.0159 -0.0201  0.1683
  128PNCE   D4B 1156   9.816  14.386   7.293  0.1565 -0.1861 -0.2178
  128PNCE   C5B 1157   9.380  14.118   7.113 -0.1393  0.2542 -0.1561
  128PNCE   C6B 1158   8.949  13.999   6.816 -0.0881 -0.1154 -0.0304
  129PNCE   AM1 1159   0.009  10.357   9.974  0.0828 -0.1218  0.0103
  129PNCE   AM2 1160   0.140  10.467  10.193  0.0663 -0.2949 -0.0763
  129PNCE   T1A 1161   0.227  10.415   9.621  0.0626 -0.1349  0.0268
  129PNCE   C2A 1162   0.531  10.196   9.371 -0.2149  0.1944  0.3946
  129PNCE   C3A 1163   0.485  10.104   8.937  0.1250 -0.0557  0.0586
  129PNCE   C1B 1164   0.563  10.691  10.089  0.1935  0.0938 -0.0290
  129PNCE   C2B 1165   0.655  10.748   9.578 -0.1795  0.2079 -0.0811
  129PNCE   C3B 1166   0.909  10.952   9.217  0.3951  0.0430 -0.3096
  129PNCE   D4B 1167   0.909  11.110   8.814 -0.0994 -0.0962  0.1323
  129PNCE   C5B 1168   0.789  10.914   8.497 -0.0659 -0.3435  0.0575
  129PNCE   C6B 1169   1.044  10.790   8.334 -0.1251 -0.1631  0.3624
  130XCA    COO 1170  12.219  14.881   4.557  0.1189  0.0166 -0.1195
  130XCA     C1 1171  12.007  14.914   4.897 -0.0481 -0.4675 -0.2775
  130XCA     C2 1172  11.918  14.814   5.322  0.0756  0.0839  0.0366
  130XCA     C3 1173  12.174  14.663   5.706  0.0248 -0.2166 -0.3671
  130XCA     C4 1174  12.156  14.784   6.166  0.2224  0.1724  0.2780
  130XCA     C5 1175  12.192  14.868   6.713  0.0158 -0.4316  0.0520
  130XCA     C6 1176  11.946  15.065   7.133  0.4299 -0.0191  0.0750
  131PNCE   AM1 1177  15.138   2.941   7.838 -0.3009 -0.1661  0.3643
  131PNCE   AM2 1178  15.409   3.092   7.881  0.4777 -0.0266 -0.0707
  131PNCE   T1A 1179  14.920   3.344   7.755  0.2545 -0.0166 -0.0037
  131PNCE   C2A 1180  14.921   3.676   7.386  0.0631 -0.0400 -0.3290
  131PNCE   C3A 1181  14.862   4.083   7.106 -0.1570  0.1713 -0.0530
  131PNCE   C1B 1182  15.497   3.390   7.518 -0.1135 -0.3357 -0.2190
  131PNCE   C2B 1183  15.643   3.483   7.122  0.1310  0.1903  0.1150
  131PNCE   C3B 1184  15.782   3.400   6.674  0.1990  0.1787  0.3780
  131PNCE   D4B 1185  15.939   3.675   6.360  0.0885 -0.2491 -0.1636
  131PNCE   C5B 1186  15.755   3.697   5.932  0.3369  0.5086  0.2552
  131PNCE   C6B 1187  15.596   3.718   5.598  0.0050 -0.2636  0.0486
  132PNCE   AM1 1188  13.492  15.743   8.309  0.1307  0.0689  0.3083
  132PNCE   AM2 1189  13.768  15.906   8.171 -0.1042  0.1288 -0.1015
  132PNCE   T1A 1190  13.222  15.945   8.028  0.3596  0.1965  0.1041
  132PNCE   C2A 1191  13.088  15.922   7.659  0.1025  0.0863 -0.0470
  132PNCE   C3A 1192  13.184  16.177   7.369  0.1214 -0.0619 -0.0790
  132PNCE   C1B 1193  13.587  15.822   7.690  0.2331 -0.3120  0.1222
  132PNCE   C2B 1194  13.656  15.903   7.193  0.0731 -0.2624  0.3164
  132PNCE   C3B 1195  13.634  15.849   6.763 -0.2788  0.0243  0.1298
  132PNCE   D4B 1196  13.850  15.850   6.412  0.0325 -0.0796  0.1713
  132PNCE   C5B 1197  14.187  16.151   6.381 -0.1530  0.2102 -0.2445
  132PNCE   C6B 1198  14.369  16.497   6.529  0.0036  0.1661  0.3000
  133PNCE   AM1 1199   1.584   6.697   9.743  0.0199 -0.1830  0.0939
  133PNCE   AM2 1200   1.196   6.574   9.685 -0.0078  0.1819  0.3238
  133PNCE   T1A 1201   1.489   6.882   9.304  0.0418 -0.0948  0.1729
  133PNCE   C2A 1202   1.392   6.841   8.864  0.1500 -0.5055 -0.2056
  133PNCE   C3A 1203   1.428   6.859   8.415  0.2105  0.1242 -0.1260
  133PNCE   C1B 1204   1.212   6.486   9.213 -0.1875 -0.1166 -0.3410
  133PNCE   C2B 1205   1.182   6.272   8.810 -0.1719 -0.2211  0.0932
  133PNCE   C3B 1206   1.253   6.388   8.305  0.1053  0.0025 -0.0009
  133PNCE   D4B 1207   1.467   6.586   7.962 -0.0315 -0.1820  0.2324
  133PNCE   C5B 1208   1.383   6.884   7.615 -0.1080  0.2525  0.1471
  133PNCE   C6B 1209   1.067   7.179   7.336 -0.1152  0.1646 -0.1416
  134CHOL   ROH 1210   2.239  10.506   5.787 -0.1277 -0.2227  0.0341
  134CHOL    R1 1211   2.387  10.527   6.028 -0.2613  0.0848  0.0949
  134CHOL    R2 1212   2.274  10.615   6.264 -0.5218 -0.0618  0.0342
  134CHOL    R3 1213   2.371  10.380   6.361 -0.1488  0.1192  0.1140
  134CHOL    R4 1214   2.245  10.510   6.592 -0.5567 -0.1079  0.0160
  134CHOL    R5 1215   2.450  10.435   6.581 -0.4056  0.2736  0.1669
  134CHOL    C1 1216   2.320  10.228   6.874 -0.2268  0.0350  0.0805
  134CHOL    C2 1217   2.478  10.081   7.201  0.2898  0.0078 -0.0349
  135CHOL   ROH 1218   8.427   3.808   7.929  0.1608 -0.1638  0.0705
  135CHOL    R1 1219   8.537   3.696   7.694  0.1553 -0.1084  0.0414
  135CHOL    R2 1220   8.455   3.452   7.594  0.1304 -0.0689 -0.0313
  135CHOL    R3 1221   8.414   3.595   7.366  0.1547  0.0006  0.0075
  135CHOL    R4 1222   8.590   3.374   7.285 -0.1735 -0.2195 -0.1308
  135CHOL    R5 1223   8.625   3.587   7.253  0.0731 -0.2573 -0.1365
  135CHOL    C1 1224   8.630   3.464   6.892 -0.3277 -0.2419 -0.1524
  135CHOL    C2 1225   8.717   3.463   6.494  0.1304 -0.0941 -0.2550
  136CHOL   ROH 1226   0.972  11.721   9.913 -0.0057 -0.1311  0.0310
  136CHOL    R1 1227   1.179  11.684   9.723 -0.0293 -0.0646 -0.0087
  136CHOL    R2 1228   1.387  11.506   9.763  0.1049  0.0920  0.0078
  136CHOL    R3 1229   1.307  11.408   9.523  0.1054 -0.0582  0.0681
  136CHOL    R4 1230   1.600  11.401   9.513  0.1089  0.2028 -0.0358
  136CHOL    R5 1231   1.468  11.495   9.367 -0.0289  0.0365 -0.0183
  136CHOL    C1 1232   1.649  11.247   9.141  0.1116  0.1265 -0.0045
  136CHOL    C2 1233   2.055  11.273   9.108 -0.5824 -0.2213 -0.0117
  137XCA    COO 1234  10.498  13.574   8.304 -0.0229 -0.0850  0.3118
  137XCA     C1 1235  10.369  13.558   7.905 -0.0394  0.1035  0.2403
  137XCA     C2 1236  10.292  13.633   7.498 -0.2911  0.1651 -0.0698
  137XCA     C3 1237  10.196  13.616   7.037 -0.0068  0.0125 -0.1011
  137XCA     C4 1238  10.000  13.667   6.631  0.0390  0.1712 -0.2535
  137XCA     C5 1239   9.731  13.912   6.386  0.0494  0.2722 -0.0778
  137XCA     C6 1240   9.386  13.957   6.111 -0.0200  0.0135 -0.2838
  138CHOL   ROH 1241   0.493   5.547   6.219 -0.0397  0.0210 -0.1415
  138CHOL    R1 1242   0.219   5.482   6.254 -0.0310 -0.0141 -0.1247
  138CHOL    R2 1243   0.118   5.387   6.492  0.0067 -0.1063 -0.1357
  138CHOL    R3 1244  -0.055   5.595   6.465 -0.0050 -0.1061 -0.0455
  138CHOL    R4 1245  -0.220   5.373   6.564 -0.0131 -0.1745 -0.2462
  138CHOL    R5 1246  -0.257   5.494   6.386  0.0285 -0.0627 -0.1697
  138CHOL    C1 1247  -0.579   5.561   6.580 -0.0357 -0.2140 -0.2258
  138CHOL    C2 1248  -0.753   5.741   6.866  0.0180  0.2236 -0.0612
  139PNCE   AM1 1249   2.853   3.507   8.870 -0.1825 -0.2143  0.2354
  139PNCE   AM2 1250   2.985   3.220   8.682  0.1382 -0.0703  0.0428
  139PNCE   T1A 1251   3.226   3.704   8.604  0.3700  0.4262  0.3158
  139PNCE   C2A 1252   3.344   3.887   8.302 -0.2247  0.2903 -0.0696
  139PNCE   C3A 1253   3.446   4.354   8.221 -0.3109  0.3728 -0.0742
  139PNCE   C1B 1254   2.892   3.485   8.327  0.3636  0.3417 -0.1592
  139PNCE   C2B 1255   2.992   3.743   7.944 -0.1330  0.1500  0.1875
  139PNCE   C3B 1256   3.373   4.005   7.783 -0.2413 -0.0902  0.0385
  139PNCE   D4B 1257   3.568   4.436   7.751 -0.1836  0.1467 -0.1086
  139PNCE   C5B 1258   3.562   4.736   7.539 -0.1551  0.0664 -0.1636
  139PNCE   C6B 1259   3.516   4.761   7.147  0.0353 -0.0466  0.0843
  140PNCE   AM1 1260   4.527   9.361   9.034 -0.5556  0.2114 -0.0366
  140PNCE   AM2 1261   4.572   9.627   9.186 -0.1567  0.0267  0.3504
  140PNCE   T1A 1262   4.347   9.396   8.613 -0.0469  0.1547  0.2739
  140PNCE   C2A 1263   4.245   9.408   8.112 -0.0051 -0.1001  0.1587
  140PNCE   C3A 1264   4.473   9.600   7.754  0.0172  0.2120  0.0024
  140PNCE   C1B 1265   4.784   9.707   8.747 -0.1897  0.0091 -0.1010
  140PNCE   C2B 1266   4.991   9.775   8.413 -0.2738  0.0304 -0.0607
  140PNCE   C3B 1267   4.967   9.911   7.968  0.1936 -0.0122  0.0308
  140PNCE   D4B 1268   5.273   9.970   7.677 -0.1382  0.0529  0.0245
  140PNCE   C5B 1269   5.616  10.270   7.547 -0.5626  0.1256 -0.0838
  140PNCE   C6B 1270   5.805  10.360   7.215  0.1543  0.5248 -0.2680
  141CHOL   ROH 1271   8.987   1.729   6.194 -0.0837  0.1367 -0.0510
  141CHOL    R1 1272   8.715   1.745   6.120 -0.0793  0.0342 -0.0925
  141CHOL    R2 1273   8.579   1.532   6.008 -0.0003 -0.0378 -0.0593
  141CHOL    R3 1274   8.405   1.577   6.213 -0.0389 -0.0392 -0.0924
  141CHOL    R4 1275   8.251   1.422   6.017  0.0218 -0.1047 -0.0847
  141CHOL    R5 1276   8.194   1.613   6.105 -0.0310 -0.1031 -0.1266
  141CHOL    C1 1277   7.898   1.400   6.214 -0.0014 -0.1449 -0.1304
  141CHOL    C2 1278   7.730   1.296   6.505 -0.1059 -0.0218 -0.3017
  142CHOL   ROH 1279   1.055   4.868   5.696 -0.0579  0.3667  0.1831
  142CHOL    R1 1280   1.070   4.629   5.847  0.0827  0.2625  0.0087
  142CHOL    R2 1281   1.180   4.620   6.101 -0.0340  0.1712  0.0571
  142CHOL    R3 1282   0.940   4.509   6.166  0.0309 -0.0979 -0.1432
  142CHOL    R4 1283   1.124   4.419   6.376 -0.0628  0.2002  0.0726
  142CHOL    R5 1284   0.996   4.293   6.252  0.2111 -0.0017 -0.0127
  142CHOL    C1 1285   0.866   4.198   6.598 -0.0186 -0.0356 -0.1063
  142CHOL    C2 1286   1.092   3.899   6.613  0.0556  0.1005 -0.0564
  143CHOL   ROH 1287   4.918  14.868   5.444 -0.0128 -0.1779 -0.0675
  143CHOL    R1 1288   4.775  14.756   5.661  0.0989 -0.1351  0.0297
  143CHOL    R2 1289   4.901  14.631   5.873  0.2185  0.0642  0.0809
  143CHOL    R3 1290   4.757  14.808   6.021  0.1443  0.0683  0.0032
  143CHOL    R4 1291   4.812  14.585   6.204  0.0285  0.0633  0.0303
  143CHOL    R5 1292   4.616  14.670   6.158  0.0596  0.0742 -0.0783
  143CHOL    C1 1293   4.625  14.725   6.535 -0.1518  0.0667 -0.0720
  143CHOL    C2 1294   4.361  14.822   6.959  0.0397  0.1807  0.1177
  144PNCE   AM1 1295  11.158   3.713   8.476 -0.1829 -0.0624  0.0160
  144PNCE   AM2 1296  10.875   3.516   8.336 -0.0849  0.2274 -0.0140
  144PNCE   T1A 1297  11.431   3.413   8.296  0.2119 -0.0399 -0.0400
  144PNCE   C2A 1298  11.699   3.358   7.973 -0.3993 -0.0853  0.2997
  144PNCE   C3A 1299  11.729   3.424   7.541 -0.0641 -0.0834  0.0999
  144PNCE   C1B 1300  10.915   3.470   7.995  0.2470  0.5586 -0.1806
  144PNCE   C2B 1301  10.934   3.268   7.667 -0.3865 -0.3832 -0.3759
  144PNCE   C3B 1302  10.881   3.035   7.389 -0.3698 -0.1910 -0.1556
  144PNCE   D4B 1303  10.975   2.902   6.972 -0.0949  0.2350  0.2597
  144PNCE   C5B 1304  11.172   3.216   6.747 -0.1773  0.0853  0.1508
  144PNCE   C6B 1305  11.561   3.184   6.613  0.0397  0.0958 -0.0728
  145PNCE   AM1 1306   9.700  15.319   8.571  0.0076 -0.0985  0.0369
  145PNCE   AM2 1307   9.780  15.589   8.710  0.1787  0.0455 -0.1049
  145PNCE   T1A 1308   9.741  15.230   8.110 -0.2980  0.0706  0.1298
  145PNCE   C2A 1309   9.448  14.963   7.765  0.0315 -0.0848  0.3804
  145PNCE   C3A 1310   8.973  14.899   7.432 -0.0042  0.1509  0.2882
  145PNCE   C1B 1311   9.677  15.827   8.334  0.3535 -0.1988  0.1774
  145PNCE   C2B 1312   9.486  16.329   8.146  0.2563  0.0959  0.0594
  145PNCE   C3B 1313   9.160  16.405   7.899 -0.0355 -0.2039  0.1245
  145PNCE   D4B 1314   8.811  16.553   7.780  0.1887 -0.3268 -0.1009
  145PNCE   C5B 1315   8.418  16.352   7.637 -0.1287 -0.3437  0.0990
  145PNCE   C6B 1316   8.492  16.071   7.123  0.1600  0.1863 -0.2326
  146CHOL   ROH 1317  13.443   3.147   8.639 -0.1072  0.1482  0.0388
  146CHOL    R1 1318  13.306   3.129   8.392  0.0628  0.1279 -0.0546
  146CHOL    R2 1319  13.437   3.098   8.150  0.2164 -0.2597  0.0759
  146CHOL    R3 1320  13.273   2.883   8.125 -0.0644 -0.0584  0.1282
  146CHOL    R4 1321  13.367   2.936   7.853  0.1923 -0.3724  0.1416
  146CHOL    R5 1322  13.160   2.918   7.918  0.1163 -0.0442  0.0257
  146CHOL    C1 1323  13.172   2.639   7.657 -0.0854 -0.2490  0.2289
  146CHOL    C2 1324  13.374   2.809   7.354 -0.0919  0.0067 -0.1414
  147XCA    COO 1325   9.572   4.419   8.484 -0.1266 -0.2869 -0.2573
  147XCA     C1 1326   9.610   4.117   8.121 -0.0124 -0.3055 -0.0271
  147XCA     C2 1327   9.404   3.954   7.772  0.3566 -0.2852  0.2379
  147XCA     C3 1328   9.410   3.785   7.406  0.0417 -0.0334  0.0571
  147XCA     C4 1329   9.568   3.559   7.052  0.1703  0.0664 -0.2932
  147XCA     C5 1330   9.687   3.239   6.725 -0.1200 -0.1386 -0.0889
  147XCA     C6 1331   9.407   3.044   6.455 -0.1978  0.0712 -0.1331
  148PNCE   AM1 1332   7.531   5.011   7.533 -0.0288 -0.3856 -0.2508
  148PNCE   AM2 1333   7.263   4.987   7.728  0.0639 -0.0739 -0.2164
  148PNCE   T1A 1334   7.294   5.290   7.315 -0.3364  0.0773  0.5103
  148PNCE   C2A 1335   6.872   5.268   7.088 -0.1956 -0.0754 -0.0724
  148PNCE   C3A 1336   6.553   5.227   6.775  0.0909  0.0855  0.3780
  148PNCE   C1B 1337   6.813   5.195   7.608  0.1759  0.3481 -0.0692
  148PNCE   C2B 1338   6.385   5.123   7.745  0.3556  0.5332  0.0657
  148PNCE   C3B 1339   5.874   5.206   7.789  0.0882 -0.1766 -0.0927
  148PNCE   D4B 1340   5.575   5.389   7.416  0.4242  0.2594  0.0744
  148PNCE   C5B 1341   5.576   5.862   7.207  0.3996  0.0324  0.2524
  148PNCE   C6B 1342   5.834   6.225   7.016 -0.0040 -0.0022  0.0734
  149PNCE   AM1 1343   3.381  12.043   9.311  0.0474  0.0125 -0.0981
  149PNCE   AM2 1344   3.269  11.714   9.250  0.1073  0.2348  0.3064
  149PNCE   T1A 1345   3.213  12.250   8.936  0.1534 -0.0728  0.1421
  149PNCE   C2A 1346   3.130  12.333   8.527  0.0086  0.3989 -0.1310
  149PNCE   C3A 1347   2.890  12.195   8.287 -0.4117 -0.0060 -0.3439
  149PNCE   C1B 1348   2.983  11.333   9.153 -0.3509  0.1643  0.0681
  149PNCE   C2B 1349   2.903  11.301   8.767 -0.1579  0.0771 -0.0245
  149PNCE   C3B 1350   2.719  11.387   8.394 -0.0019 -0.0341 -0.1228
  149PNCE   D4B 1351   2.527  11.466   8.111 -0.2369  0.0057  0.2210
  149PNCE   C5B 1352   2.045  11.639   7.853 -0.3270 -0.2011  0.0923
  149PNCE   C6B 1353   1.634  11.527   7.765  0.1412 -0.3229 -0.1006
  150XCA    COO 1354   8.234   6.203   8.066 -0.0222  0.1629  0.1908
  150XCA     C1 1355   8.230   6.227   7.547 -0.0367  0.0006 -0.0220
  150XCA     C2 1356   8.285   6.417   7.159 -0.1365 -0.1469 -0.1093
  150XCA     C3 1357   8.335   6.664   6.852  0.1245  0.0265  0.2263
  150XCA     C4 1358   8.595   6.738   6.514 -0.2104  0.0216 -0.1553
  150XCA     C5 1359   8.816   7.038   6.319  0.0118 -0.1809  0.3614
  150XCA     C6 1360   8.833   7.331   6.075  0.1157  0.1370 -0.0733
  151PNCE   AM1 1361   5.061   1.965   7.929  0.0172  0.0281 -0.5117
  151PNCE   AM2 1362   5.060   1.578   7.859  0.0811  0.0845  0.0137
  151PNCE   T1A 1363   4.729   2.104   7.817  0.1299 -0.1890 -0.1144
  151PNCE   C2A 1364   4.550   2.434   7.662  0.0829  0.0402  0.0149
  151PNCE   C3A 1365   4.490   2.656   7.454 -0.1356  0.2453  0.1887
  151PNCE   C1B 1366   4.728   1.741   7.472  0.0385 -0.1708  0.1859
  151PNCE   C2B 1367   4.941   1.752   7.073  0.0906  0.2807  0.1310
  151PNCE   C3B 1368   4.934   1.908   6.704  0.0431 -0.1040  0.1558
  151PNCE   D4B 1369   4.839   1.813   6.302  0.3561 -0.2190  0.1732
  151PNCE   C5B 1370   4.733   2.308   6.060  0.1017  0.0281 -0.0616
  151PNCE   C6B 1371   4.549   2.544   5.718 -0.0856 -0.0147  0.1937
  152PNCE   AM1 1372   0.494  14.762   8.907  0.1701 -0.2556  0.0846
  152PNCE   AM2 1373   0.796  14.657   9.024  0.1175 -0.1480  0.3501
  152PNCE   T1A 1374   0.576  14.767   8.430  0.2656  0.0020 -0.2403
  152PNCE   C2A 1375   0.454  14.592   8.045  0.0528  0.0064  0.1907
  152PNCE   C3A 1376   0.456  14.380   7.584  0.0011 -0.2958  0.0338
  152PNCE   C1B 1377   0.652  14.193   8.748  0.1657  0.0469 -0.1064
  152PNCE   C2B 1378   0.857  13.890   8.446  0.0999 -0.0986 -0.0136
  152PNCE   C3B 1379   0.823  13.575   8.058 -0.3045 -0.1296  0.1396
  152PNCE   D4B 1380   0.850  13.368   7.789  0.0220 -0.1661 -0.2200
  152PNCE   C5B 1381   0.844  12.877   7.776 -0.2862 -0.1053 -0.1831
  152PNCE   C6B 1382   1.104  12.387   7.842  0.1000  0.0122  0.0327
  153XCA    COO 1383   2.355   9.900   9.702  0.0374 -0.1127 -0.3479
  153XCA     C1 1384   2.268   9.708   9.279  0.1000  0.0889  0.2409
  153XCA     C2 1385   2.121   9.569   8.848 -0.1484 -0.1284 -0.1239
  153XCA     C3 1386   2.183   9.660   8.387 -0.3111 -0.3351  0.0431
  153XCA     C4 1387   2.517   9.592   8.037 -0.2484 -0.0070 -0.4667
  153XCA     C5 1388   2.629   9.147   7.756 -0.2145 -0.0770  0.2481
  153XCA     C6 1389   2.422   8.956   7.426 -0.1303  0.0540  0.2783
  154CHOL   ROH 1390  12.012   9.229   8.943 -0.3184  0.0091 -0.1127
  154CHOL    R1 1391  12.106   9.090   8.715 -0.1608  0.0168 -0.0523
  154CHOL    R2 1392  12.059   9.177   8.457 -0.0246 -0.0022 -0.0796
  154CHOL    R3 1393  12.330   9.159   8.436 -0.0081  0.0417  0.0735
  154CHOL    R4 1394  12.228   9.026   8.196  0.1431  0.1078 -0.0375
  154CHOL    R5 1395  12.368   8.943   8.341  0.0722  0.0750  0.0201
  154CHOL    C1 1396  12.580   8.921   8.025  0.2562  0.2131  0.1307
  154CHOL    C2 1397  12.899   8.783   8.035  0.1422  0.0383  0.0324
  155PNCE   AM1 1398  13.580   3.939   8.857  0.1620 -0.0069 -0.2209
  155PNCE   AM2 1399  13.864   3.901   8.961  0.0440  0.3807  0.0125
  155PNCE   T1A 1400  13.248   4.100   8.771 -0.0439 -0.0075  0.0327
  155PNCE   C2A 1401  13.005   4.471   8.599  0.0760 -0.0468  0.1081
  155PNCE   C3A 1402  12.891   4.757   8.759 -0.2271 -0.2479 -0.2767
  155PNCE   C1B 1403  13.860   3.816   8.480  0.1196 -0.2879  0.0267
  155PNCE   C2B 1404  14.046   3.803   8.072 -0.0127 -0.2049  0.3454
  155PNCE   C3B 1405  13.982   3.810   7.625 -0.5012  0.0751 -0.1325
  155PNCE   D4B 1406  13.884   4.112   7.339  0.2044 -0.0097  0.2871
  155PNCE   C5B 1407  13.709   4.416   7.461 -0.0751  0.0576  0.1733
  155PNCE   C6B 1408  13.615   4.833   7.211 -0.2373  0.3467 -0.2808
  156PNCE   AM1 1409  12.788  15.405   8.420 -0.0718 -0.1230 -0.2070
  156PNCE   AM2 1410  12.624  15.654   8.346  0.0095 -0.0165 -0.0811
  156PNCE   T1A 1411  13.070  15.397   8.080 -0.1039  0.1550 -0.0800
  156PNCE   C2A 1412  13.058  15.433   7.688 -0.0970  0.1987 -0.0708
  156PNCE   C3A 1413  13.354  15.533   7.335  0.1202 -0.0310  0.3327
  156PNCE   C1B 1414  12.691  15.637   7.886 -0.2292  0.0751  0.0725
  156PNCE   C2B 1415  12.609  15.233   7.569  0.0651 -0.0813 -0.5033
  156PNCE   C3B 1416  12.443  15.270   7.217  0.1758  0.1479 -0.1252
  156PNCE   D4B 1417  12.236  15.546   6.976 -0.4043 -0.2365 -0.3527
  156PNCE   C5B 1418  12.196  15.352   6.615  0.2213 -0.2799  0.0949
  156PNCE   C6B 1419  11.832  15.202   6.297  0.2514 -0.0088 -0.0510
  157CHOL   ROH 1420  10.342   8.330   8.743 -0.0092  0.1169 -0.0791
  157CHOL    R1 1421  10.315   8.311   8.462 -0.0983  0.1826 -0.0749
  157CHOL    R2 1422  10.165   8.490   8.315  0.0929  0.3895 -0.0168
  157CHOL    R3 1423  10.395   8.520   8.174  0.0979  0.1157 -0.0721
  157CHOL    R4 1424  10.193   8.662   8.016  0.2014  0.3156 -0.0496
  157CHOL    R5 1425  10.327   8.505   7.945  0.0216  0.1510 -0.0569
  157CHOL    C1 1426  10.426   8.790   7.711  0.2692  0.0154 -0.1208
  157CHOL    C2 1427  10.274   9.064   7.370 -0.1089 -0.1039  0.0540
  158XCA    COO 1428  10.385  15.092   8.683  0.1644 -0.1295  0.2008
  158XCA     C1 1429  10.229  15.039   8.223  0.2351 -0.1761  0.1254
  158XCA     C2 1430  10.354  15.087   7.816  0.0682 -0.0673  0.1646
  158XCA     C3 1431  10.536  15.046   7.475 -0.0295  0.1291 -0.4741
  158XCA     C4 1432  10.845  15.319   7.187  0.0014  0.0873  0.0582
  158XCA     C5 1433  11.104  15.592   7.199  0.0299  0.0524  0.2420
  158XCA     C6 1434  11.278  16.000   7.042  0.5750 -0.2349  0.2068
  159PNCE   AM1 1435   2.821   6.135   9.089  0.0886 -0.1598 -0.1235
  159PNCE   AM2 1436   2.643   6.336   9.344 -0.1473  0.1482  0.1335
  159PNCE   T1A 1437   2.626   6.276   8.796 -0.0782 -0.1117  0.0040
  159PNCE   C2A 1438   2.542   6.321   8.338  0.0708 -0.2986 -0.0893
  159PNCE   C3A 1439   2.445   6.484   7.942  0.2019  0.1971 -0.0766
  159PNCE   C1B 1440   2.969   6.582   9.078 -0.1377 -0.1274  0.1681
  159PNCE   C2B 1441   3.023   6.830   8.697  0.0697  0.2943  0.0816
  159PNCE   C3B 1442   3.295   6.983   8.266 -0.0723  0.0404 -0.0818
  159PNCE   D4B 1443   3.331   7.066   7.861  0.3186  0.1459 -0.0623
  159PNCE   C5B 1444   2.926   6.854   7.686 -0.1292  0.3042  0.0687
  159PNCE   C6B 1445   2.521   6.835   7.546  0.1202  0.0142  0.0743
  160XCA    COO 1446   0.318   3.001   4.629  0.0660 -0.0392  0.0960
  160XCA     C1 1447   0.515   2.721   4.920  0.0668 -0.3216  0.1993
  160XCA     C2 1448   0.500   2.372   5.113  0.5940  0.1172 -0.2481
  160XCA     C3 1449   0.332   1.999   5.419  0.5870 -0.1563  0.1033
  160XCA     C4 1450   0.135   1.585   5.465 -0.0693 -0.2511  0.4041
  160XCA     C5 1451  -0.055   1.187   5.538  0.1785 -0.0733 -0.1688
  160XCA     C6 1452  -0.046   0.737   5.554 -0.0119 -0.0302 -0.0934
  161CHOL   ROH 1453   0.251  14.300   8.728 -0.1690 -0.2934  0.0478
  161CHOL    R1 1454   0.333  14.336   8.460 -0.1997 -0.1026  0.0629
  161CHOL    R2 1455   0.452  14.135   8.312 -0.0492  0.0555 -0.0367
  161CHOL    R3 1456   0.251  14.191   8.137 -0.0955 -0.0107 -0.0052
  161CHOL    R4 1457   0.382  13.954   8.026 -0.0287  0.0404 -0.0320
  161CHOL    R5 1458   0.344  14.141   7.922 -0.1110  0.0293 -0.0205
  161CHOL    C1 1459   0.153  13.901   7.695 -0.0603 -0.0307  0.0002
  161CHOL    C2 1460   0.046  13.608   7.422  0.0586 -0.2023 -0.0355
  162CHOL   ROH 1461   5.875  12.561   4.552  0.0874  0.0799  0.0557
  162CHOL    R1 1462   5.828  12.425   4.796 -0.0564  0.1329  0.0595
  162CHOL    R2 1463   5.978  12.208   4.877 -0.3026 -0.0506  0.0508
  162CHOL    R3 1464   6.015  12.357   5.101 -0.1110 -0.0866  0.0441
  162CHOL    R4 1465   6.016  12.080   5.195 -0.2983 -0.0832  0.0366
  162CHOL    R5 1466   5.891  12.242   5.270 -0.1437  0.0106  0.0819
  162CHOL    C1 1467   6.072  12.145   5.592 -0.1159 -0.1361  0.0218
  162CHOL    C2 1468   5.799  11.903   5.857 -0.1177  0.1407  0.0498
  163CHOL   ROH 1469   7.671   7.880   8.180  0.2592 -0.0409  0.2301
  163CHOL    R1 1470   7.840   7.892   7.954  0.1058 -0.0202  0.1151
  163CHOL    R2 1471   7.743   7.898   7.695 -0.0721  0.0614  0.1834
  163CHOL    R3 1472   7.895   8.123   7.677 -0.0394  0.0354  0.1312
  163CHOL    R4 1473   7.801   8.075   7.404 -0.0308 -0.0273  0.1375
  163CHOL    R5 1474   8.008   8.101   7.467 -0.0299 -0.0391  0.1428
  163CHOL    C1 1475   7.978   8.388   7.217  0.0241 -0.1034  0.0617
  163CHOL    C2 1476   8.253   8.438   6.994 -0.4024  0.0681 -0.1845
  164CHOL   ROH 1477   9.003  12.376   8.632 -0.1703 -0.0693 -0.1513
  164CHOL    R1 1478   9.017  12.344   8.351 -0.0751  0.0560 -0.1622
  164CHOL    R2 1479   9.100  12.546   8.182  0.1991  0.0625 -0.0273
  164CHOL    R3 1480   9.276  12.357   8.096  0.0566 -0.0680 -0.0367
  164CHOL    R4 1481   9.199  12.504   7.854  0.1387 -0.0276 -0.0346
  164CHOL    R5 1482   9.189  12.288   7.883 -0.0123 -0.0182 -0.0236
  164CHOL    C1 1483   9.422  12.303   7.581 -0.0304 -0.2024 -0.0476
  164CHOL    C2 1484   9.600  12.089   7.397  0.3627  0.1543 -0.1591
  165CHOL   ROH 1485  14.799   3.350   5.979 -0.0587 -0.1116  0.1021
  165CHOL    R1 1486  15.024   3.366   6.149 -0.1587 -0.2017  0.2438
  165CHOL    R2 1487  15.246   3.520   6.090  0.1132 -0.6071  0.1792
  165CHOL    R3 1488  15.198   3.626   6.335  0.0856 -0.1851 -0.0002
  165CHOL    R4 1489  15.486   3.660   6.295  0.1550 -0.5682  0.1050
  165CHOL    R5 1490  15.389   3.565   6.466 -0.0535 -0.2114  0.1996
  165CHOL    C1 1491  15.580   3.841   6.646  0.1534 -0.1494 -0.1066
  165CHOL    C2 1492  15.899   3.848   6.880  0.3742 -0.1773 -0.0952
  166CHOL   ROH 1493  14.332  12.394   5.394 -0.2076  0.0155  0.2468
  166CHOL    R1 1494  14.529  12.461   5.586 -0.3265  0.0218  0.3690
  166CHOL    R2 1495  14.741  12.630   5.529  0.0375 -0.4286  0.3118
  166CHOL    R3 1496  14.649  12.765   5.747 -0.0177  0.1198 -0.0335
  166CHOL    R4 1497  14.940  12.801   5.754  0.0307 -0.3154  0.2320
  166CHOL    R5 1498  14.814  12.726   5.915 -0.2767  0.1727  0.2354
  166CHOL    C1 1499  14.969  13.028   6.089 -0.0250  0.2653 -0.1387
  166CHOL    C2 1500  14.987  13.187   6.335  0.1765 -0.1958 -0.0505
  167PNCE   AM1 1501  15.008  13.408   9.021  0.1397  0.2156  0.0880
  167PNCE   AM2 1502  15.338  13.225   9.134  0.2548  0.0102  0.0476
  167PNCE   T1A 1503  15.127  13.432   8.502  0.0610 -0.3221  0.1664
  167PNCE   C2A 1504  15.246  13.655   8.105  0.1461 -0.1048  0.1946
  167PNCE   C3A 1505  14.942  13.617   7.731 -0.0813  0.2695 -0.0705
  167PNCE   C1B 1506  15.512  13.163   8.756 -0.3849  0.4694  0.1222
  167PNCE   C2B 1507  15.521  12.828   8.473  0.1151 -0.2265  0.0333
  167PNCE   C3B 1508  15.624  12.720   8.088  0.0118 -0.0746  0.2131
  167PNCE   D4B 1509  15.423  12.627   7.752  0.0260 -0.0198 -0.0766
  167PNCE   C5B 1510  15.391  12.974   7.414  0.1165 -0.0454 -0.2875
  167PNCE   C6B 1511  15.016  13.116   7.452  0.1288  0.0608  0.1023
  168CHOL   ROH 1512   6.976   9.097   8.387  0.2120 -0.0564 -0.0048
  168CHOL    R1 1513   7.106   8.978   8.166  0.1480  0.0019 -0.0741
  168CHOL    R2 1514   7.018   9.013   7.905  0.0839  0.0860 -0.0417
  168CHOL    R3 1515   7.274   9.094   7.865  0.0788  0.0818 -0.0822
  168CHOL    R4 1516   7.165   9.056   7.596  0.0688 -0.0188 -0.0641
  168CHOL    R5 1517   7.347   8.968   7.675  0.0757  0.0168 -0.0405
  168CHOL    C1 1518   7.490   9.158   7.377  0.0552 -0.0837 -0.1151
  168CHOL    C2 1519   7.338   9.370   7.009 -0.0832  0.0405  0.1802
  169XCA    COO 1520   9.185  11.187   8.829  0.2658  0.2333  0.0861
  169XCA     C1 1521   9.334  10.767   8.630  0.2024 -0.0071 -0.1202
  169XCA     C2 1522   9.507  10.604   8.329  0.0711 -0.0054 -0.1390
  169XCA     C3 1523   9.542  10.368   8.036  0.0674 -0.3844  0.5380
  169XCA     C4 1524   9.205  10.245   7.722 -0.0743  0.1495 -0.0112
  169XCA     C5 1525   8.898  10.249   7.322  0.0103 -0.1094 -0.1936
  169XCA     C6 1526   8.607  10.260   7.051 -0.0454 -0.1836 -0.0243
  170CHOL   ROH 1527  12.564  10.093   8.913  0.1958 -0.1365 -0.0125
  170CHOL    R1 1528  12.506  10.144   8.641  0.0274 -0.0002  0.0463
  170CHOL    R2 1529  12.456  10.399   8.544  0.0152  0.0595  0.1926
  170CHOL    R3 1530  12.656  10.336   8.370 -0.1074  0.0923  0.0384
  170CHOL    R4 1531  12.536  10.579   8.261  0.0481  0.3077  0.3580
  170CHOL    R5 1532  12.568  10.392   8.155 -0.1470  0.4025  0.1352
  170CHOL    C1 1533  12.770  10.626   7.933 -0.0479  0.4831  0.3095
  170CHOL    C2 1534  12.818  10.977   8.134  0.1713  0.2750 -0.1900
  171XCA    COO 1535   9.367   0.834   4.100 -0.1950 -0.0009 -0.1665
  171XCA     C1 1536   8.989   0.591   4.321 -0.1981  0.3253 -0.0382
  171XCA     C2 1537   8.748   0.097   4.435 -0.0098 -0.3321  0.1555
  171XCA     C3 1538   8.591  -0.233   4.708  0.1800  0.2611 -0.3532
  171XCA     C4 1539   8.492  -0.484   5.075 -0.0102  0.0585  0.0573
  171XCA     C5 1540   8.214  -0.433   5.378  0.1350  0.4038  0.1959
  171XCA     C6 1541   8.094  -0.353   5.712  0.0594 -0.2931 -0.1473
  172PNCE   AM1 1542   8.438  14.562   7.863  0.0038 -0.1164  0.0569
  172PNCE   AM2 1543   8.200  14.744   8.034 -0.0288 -0.2773 -0.1829
  172PNCE   T1A 1544   8.566  14.483   7.489 -0.1606  0.0675 -0.1136
  172PNCE   C2A 1545   8.515  14.354   7.079 -0.1867  0.1597 -0.0693
  172PNCE   C3A 1546   8.515  14.066   6.659 -0.2628 -0.3070 -0.5162
  172PNCE   C1B 1547   8.054  14.782   7.568 -0.1387  0.0341 -0.2147
  172PNCE   C2B 1548   8.151  14.667   7.098 -0.1487  0.2327  0.2714
  172PNCE   C3B 1549   8.120  14.343   6.710  0.2128 -0.2117  0.3093
  172PNCE   D4B 1550   7.907  14.130   6.375 -0.1209  0.0698  0.1123
  172PNCE   C5B 1551   7.915  14.271   5.937  0.0224 -0.4944  0.1272
  172PNCE   C6B 1552   7.730  14.316   5.591  0.0880 -0.0533  0.0891
  173PNCE   AM1 1553   1.886   9.801   9.946 -0.0305  0.0510 -0.1426
  173PNCE   AM2 1554   1.982  10.109  10.038  0.1012  0.1411  0.0202
  173PNCE   T1A 1555   1.658   9.588   9.590  0.0714  0.0058 -0.1042
  173PNCE   C2A 1556   1.635   9.299   9.199 -0.1963 -0.1202  0.1802
  173PNCE   C3A 1557   1.348   9.130   8.843  0.1920 -0.1985  0.0935
  173PNCE   C1B 1558   1.932  10.035   9.552  0.0493 -0.1810  0.3683
  173PNCE   C2B 1559   1.885   9.961   9.087 -0.2810  0.0339  0.0627
  173PNCE   C3B 1560   1.783   9.965   8.656 -0.0332  0.1419 -0.4686
  173PNCE   D4B 1561   1.733   9.884   8.217 -0.0615  0.1182  0.2697
  173PNCE   C5B 1562   1.362  10.003   8.249  0.1223 -0.1384  0.0659
  173PNCE   C6B 1563   0.994  10.313   8.236  0.0183  0.1661  0.0099
  174CHOL   ROH 1564   9.081   0.472   4.836 -0.1470  0.0763  0.0613
  174CHOL    R1 1565   8.856   0.381   4.980 -0.1717  0.0829  0.0293
  174CHOL    R2 1566   8.769   0.119   4.971 -0.1653  0.0753  0.0373
  174CHOL    R3 1567   8.790   0.136   5.242 -0.2089  0.1037  0.0377
  174CHOL    R4 1568   8.585  -0.068   5.196 -0.0313 -0.0664  0.0292
  174CHOL    R5 1569   8.565   0.110   5.321 -0.1922 -0.0799  0.0177
  174CHOL    C1 1570   8.497  -0.161   5.581  0.0059 -0.1223  0.0249
  174CHOL    C2 1571   8.469  -0.211   6.005 -0.1301 -0.1743  0.0349
  175XCA    COO 1572   9.820   8.872   4.992  0.1920 -0.0247 -0.0995
  175XCA     C1 1573   9.857   9.116   5.396  0.1017  0.0110  0.2891
  175XCA     C2 1574   9.864   9.097   5.767 -0.5037 -0.1356  0.0309
  175XCA     C3 1575   9.735   9.055   6.128 -0.0111 -0.0267  0.2853
  175XCA     C4 1576   9.428   8.762   6.382 -0.0547 -0.0448 -0.3499
  175XCA     C5 1577   9.069   8.677   6.541 -0.1866 -0.0429  0.0891
  175XCA     C6 1578   8.791   8.672   6.844  0.0197  0.2933  0.1148
  176CHOL   ROH 1579   8.109   9.997   8.765  0.0013  0.1033 -0.1600
  176CHOL    R1 1580   8.148   9.862   8.520  0.0651  0.0963 -0.1458
  176CHOL    R2 1581   7.966   9.681   8.419  0.1661 -0.0259 -0.1102
  176CHOL    R3 1582   7.977   9.840   8.199  0.0548 -0.0458 -0.1313
  176CHOL    R4 1583   7.984   9.567   8.093 -0.4121 -0.0615 -0.1408
  176CHOL    R5 1584   8.126   9.727   8.051 -0.2774 -0.2291 -0.3376
  176CHOL    C1 1585   8.005   9.651   7.697 -0.8533 -0.1009 -0.1785
  176CHOL    C2 1586   8.240   9.503   7.508  0.0680 -0.1045  0.0534
  177CHOL   ROH 1587  10.217  15.542   8.660 -0.1917  0.0383  0.0226
  177CHOL    R1 1588  10.113  15.613   8.406  0.0101  0.1960 -0.0182
  177CHOL    R2 1589  10.274  15.696   8.198  0.2347 -0.1648  0.0042
  177CHOL    R3 1590  10.149  15.496   8.063 -0.1366  0.0503  0.0150
  177CHOL    R4 1591  10.280  15.655   7.854  0.2743 -0.2643  0.0162
  177CHOL    R5 1592  10.069  15.600   7.863  0.1462  0.1704 -0.0417
  177CHOL    C1 1593  10.166  15.443   7.528 -0.0510 -0.1205  0.0335
  177CHOL    C2 1594   9.990  15.485   7.036 -0.0846  0.0689 -0.3712
  178CHOL   ROH 1595   3.009  13.025   4.754  0.1788  0.2189  0.1238
  178CHOL    R1 1596   3.119  13.172   4.969  0.1989  0.1097  0.1886
  178CHOL    R2 1597   3.009  13.168   5.223  0.1217  0.1158  0.1550
  178CHOL    R3 1598   3.260  13.096   5.296  0.0604 -0.0428  0.2148
  178CHOL    R4 1599   3.103  13.077   5.542 -0.0293 -0.0329  0.1586
  178CHOL    R5 1600   3.288  13.189   5.515  0.0411 -0.1238  0.2520
  178CHOL    C1 1601   3.394  12.955   5.797 -0.1748 -0.2683  0.2168
  178CHOL    C2 1602   3.536  12.912   6.163 -0.1325 -0.1690  0.0424
  179XCA    COO 1603   2.090  15.313   8.501  0.1098 -0.1654 -0.1454
  179XCA     C1 1604   1.711  14.968   8.537 -0.0293 -0.1103 -0.1909
  179XCA     C2 1605   1.491  14.662   8.320  0.1595 -0.0273  0.2632
  179XCA     C3 1606   1.375  14.404   8.059 -0.3523  0.1882  0.2820
  179XCA     C4 1607   1.246  14.240   7.650 -0.1209 -0.3569  0.0134
  179XCA     C5 1608   0.911  14.254   7.411 -0.0938 -0.1241 -0.0783
  179XCA     C6 1609   0.636  14.349   7.152 -0.1447  0.0694  0.2772
  180XCA    COO 1610  11.681   2.686   8.973 -0.1354  0.1633 -0.2157
  180XCA     C1 1611  11.940   2.536   8.660 -0.0290 -0.0880  0.0639
  180XCA     C2 1612  12.246   2.445   8.332  0.0401 -0.2339 -0.2332
  180XCA     C3 1613  12.346   2.654   7.915  0.1952  0.0542 -0.0197
  180XCA     C4 1614  12.356   2.949   7.514 -0.1241  0.2293 -0.0997
  180XCA     C5 1615  12.288   3.050   7.062 -0.0367 -0.2904  0.0708
  180XCA     C6 1616  12.080   2.848   6.761  0.0392  0.2942  0.2266
  181CHOL   ROH 1617  10.733   5.803   4.921 -0.0731 -0.0896 -0.0680
  181CHOL    R1 1618  10.729   5.880   5.193 -0.3032 -0.0446 -0.0810
  181CHOL    R2 1619  10.548   5.776   5.374 -0.1272 -0.4172 -0.1036
  181CHOL    R3 1620  10.772   5.714   5.515 -0.0103  0.0986 -0.0441
  181CHOL    R4 1621  10.552   5.670   5.703  0.0361 -0.4152 -0.1047
  181CHOL    R5 1622  10.727   5.794   5.736 -0.2542 -0.0033 -0.0557
  181CHOL    C1 1623  10.765   5.550   6.026  0.2412  0.0702 -0.0495
  181CHOL    C2 1624  10.956   5.434   6.391 -0.2421  0.1284  0.3129
  182CHOL   ROH 1625  12.202  11.181   6.258  0.2121  0.0797 -0.1244
  182CHOL    R1 1626  12.049  11.408   6.331  0.1251  0.0248 -0.1335
  182CHOL    R2 1627  11.892  11.414   6.558  0.0609 -0.0523 -0.1711
  182CHOL    R3 1628  12.035  11.638   6.612 -0.0161 -0.0192 -0.1045
  182CHOL    R4 1629  11.785  11.673   6.760 -0.1262 -0.0308 -0.2957
  182CHOL    R5 1630  11.873  11.813   6.619 -0.0461 -0.0441 -0.2545
  182CHOL    C1 1631  11.858  12.034   6.929 -0.3075  0.0129 -0.3058
  182CHOL    C2 1632  11.714  12.312   7.128  0.0200  0.1686 -0.1300
  183PNCE   AM1 1633  14.662   5.177   5.098  0.0770 -0.1209  0.1295
  183PNCE   AM2 1634  14.657   5.368   5.394  0.2696  0.1013 -0.0917
  183PNCE   T1A 1635  14.901   4.948   5.530 -0.0604 -0.0192  0.2153
  183PNCE   C2A 1636  15.104   4.703   5.796  0.1178 -0.0373 -0.2094
  183PNCE   C3A 1637  15.214   4.481   6.130  0.1294 -0.0514 -0.0497
  183PNCE   C1B 1638  14.671   5.232   5.834  0.1287  0.1285  0.3021
  183PNCE   C2B 1639  14.589   5.252   6.305  0.2499 -0.1103  0.0963
  183PNCE   C3B 1640  14.387   5.230   6.642 -0.0708 -0.4986  0.0519
  183PNCE   D4B 1641  14.031   5.512   6.831 -0.2353 -0.1765  0.2750
  183PNCE   C5B 1642  14.053   5.745   7.291 -0.1741  0.0042  0.0768
  183PNCE   C6B 1643  14.041   6.144   7.351 -0.0249 -0.2088  0.1866
  184PNCE   AM1 1644  11.365   4.550   8.359  0.2541  0.0885 -0.4603
  184PNCE   AM2 1645  11.461   4.821   8.243  0.2905  0.0266  0.3033
  184PNCE   T1A 1646  11.433   4.466   7.942  0.0193  0.1022  0.1037
  184PNCE   C2A 1647  11.502   4.256   7.523  0.0089 -0.0629  0.0722
  184PNCE   C3A 1648  11.676   3.978   7.162 -0.1402 -0.2232 -0.2089
  184PNCE   C1B 1649  11.795   5.001   8.031 -0.1082  0.0236  0.1264
  184PNCE   C2B 1650  12.014   5.053   7.598 -0.0567 -0.0085  0.3845
  184PNCE   C3B 1651  12.299   4.877   7.462 -0.1588  0.3876 -0.1936
  184PNCE   D4B 1652  12.691   4.826   7.362  0.2539  0.0741 -0.1463
  184PNCE   C5B 1653  13.021   4.586   7.464  0.2001  0.5404 -0.0310
  184PNCE   C6B 1654  13.298   4.510   7.685  0.1719 -0.0120  0.0031
  185PNCE   AM1 1655  15.295   5.971   5.506  0.3078 -0.0350 -0.0230
  185PNCE   AM2 1656  15.141   5.751   5.293  0.0212  0.0815  0.0626
  185PNCE   T1A 1657  14.876   5.713   5.694 -0.1550 -0.2520  0.2358
  185PNCE   C2A 1658  14.504   5.685   5.967 -0.0820 -0.1780 -0.2073
  185PNCE   C3A 1659  14.092   5.796   6.334 -0.1463  0.1353 -0.3852
  185PNCE   C1B 1660  15.112   5.334   5.213  0.0531 -0.0267 -0.3932
  185PNCE   C2B 1661  15.390   4.943   5.312  0.0053 -0.0128 -0.2271
  185PNCE   C3B 1662  15.503   4.549   5.539 -0.2272 -0.0566 -0.2009
  185PNCE   D4B 1663  15.469   4.170   5.743  0.1112  0.2888 -0.0567
  185PNCE   C5B 1664  15.158   4.027   6.028  0.2512  0.0610  0.0253
  185PNCE   C6B 1665  15.165   4.061   6.452  0.1252  0.1436  0.2327
  186PNCE   AM1 1666   2.912  14.358   8.458  0.1320 -0.3113 -0.0277
  186PNCE   AM2 1667   2.609  14.423   8.457 -0.1733  0.0280  0.2581
  186PNCE   T1A 1668   2.817  13.954   8.274  0.0831 -0.1633 -0.1475
  186PNCE   C2A 1669   2.636  13.746   7.976  0.0920 -0.0049 -0.0290
  186PNCE   C3A 1670   2.207  13.671   7.854 -0.0633 -0.2481 -0.3590
  186PNCE   C1B 1671   2.291  14.102   8.465 -0.1132  0.0555  0.3258
  186PNCE   C2B 1672   2.013  13.776   8.298 -0.1353  0.0340 -0.0534
  186PNCE   C3B 1673   1.734  13.596   8.093  0.1334 -0.0261  0.0796
  186PNCE   D4B 1674   1.399  13.407   7.953 -0.1908 -0.2022  0.0209
  186PNCE   C5B 1675   1.321  13.222   7.518 -0.0990 -0.1421  0.0200
  186PNCE   C6B 1676   1.527  12.966   7.367  0.0439  0.3435 -0.2227
  187PNCE   AM1 1677  10.706   3.981   8.622 -0.0033 -0.1508 -0.0708
  187PNCE   AM2 1678  10.438   3.767   8.555  0.1185  0.2339 -0.5217
  187PNCE   T1A 1679  10.706   3.932   8.128 -0.0083 -0.0990 -0.0747
  187PNCE   C2A 1680  10.669   3.806   7.664  0.0737  0.0324 -0.1768
  187PNCE   C3A 1681  10.467   3.848   7.318 -0.4253  0.0222  0.0937
  187PNCE   C1B 1682  10.167   3.844   8.239 -0.2020  0.1395  0.3332
  187PNCE   C2B 1683  10.069   3.838   7.740 -0.2782 -0.0594  0.1016
  187PNCE   C3B 1684   9.941   3.935   7.396 -0.2555 -0.2456  0.2822
  187PNCE   D4B 1685  10.059   3.697   6.996  0.2014 -0.0509 -0.1016
  187PNCE   C5B 1686  10.249   3.750   6.623  0.2676  0.1486 -0.1222
  187PNCE   C6B 1687  10.493   3.992   6.333 -0.3829  0.0039 -0.3410
  188XCA    COO 1688  15.823  12.353   9.112  0.1211  0.4505 -0.1518
  188XCA     C1 1689  15.989  12.054   8.875  0.1846  0.4657 -0.2464
  188XCA     C2 1690  16.340  11.918   8.658  0.3824  0.0171 -0.1121
  188XCA     C3 1691  16.618  12.115   8.403  0.1347  0.0129  0.0383
  188XCA     C4 1692  17.051  12.052   8.272  0.1096 -0.0135 -0.1043
  188XCA     C5 1693  17.146  11.940   7.947  0.1063  0.1353 -0.0061
  188XCA     C6 1694  17.019  11.867   7.548  0.1251  0.0215  0.1348
  189PNCE   AM1 1695  14.870   2.067   8.086 -0.0822 -0.3470  0.1182
  189PNCE   AM2 1696  14.901   1.962   7.808 -0.0833 -0.3629 -0.1807
  189PNCE   T1A 1697  14.351   2.130   8.089 -0.1113 -0.0220 -0.3277
  189PNCE   C2A 1698  13.960   2.267   7.819  0.1336 -0.0271 -0.2363
  189PNCE   C3A 1699  13.597   2.354   7.898  0.1884  0.2598 -0.1186
  189PNCE   C1B 1700  14.782   1.788   7.486 -0.0020 -0.0245 -0.1355
  189PNCE   C2B 1701  14.533   1.986   7.166  0.1217  0.1511  0.0671
  189PNCE   C3B 1702  14.249   1.888   6.892  0.0689 -0.5901  0.1092
  189PNCE   D4B 1703  14.202   1.812   6.584 -0.2713 -0.1384 -0.2532
  189PNCE   C5B 1704  13.898   2.210   6.478 -0.1366 -0.0397 -0.0207
  189PNCE   C6B 1705  13.670   2.480   6.491 -0.2504 -0.3461 -0.3203
  190PNCE   AM1 1706  12.040  11.885   8.831 -0.1707  0.2471  0.4236
  190PNCE   AM2 1707  12.310  11.583   8.851  0.2234 -0.2442  0.2444
  190PNCE   T1A 1708  11.920  12.178   8.520 -0.1646  0.0242  0.0929
  190PNCE   C2A 1709  11.901  12.249   8.018  0.2873 -0.3983  0.2544
  190PNCE   C3A 1710  11.834  12.122   7.625 -0.2480  0.0763  0.0198
  190PNCE   C1B 1711  12.033  11.474   8.419  0.1622  0.4368  0.0039
  190PNCE   C2B 1712  11.709  11.805   8.179 -0.0773 -0.0749 -0.2152
  190PNCE   C3B 1713  11.428  11.796   7.790 -0.2411 -0.0578  0.1710
  190PNCE   D4B 1714  11.175  12.107   7.501 -0.0668  0.2339 -0.1832
  190PNCE   C5B 1715  11.186  12.070   7.056 -0.3127  0.0831  0.0292
  190PNCE   C6B 1716  11.442  12.124   6.624  0.1270 -0.0812 -0.1599
  191CHOL   ROH 1717   2.815   0.586   7.031 -0.1508 -0.1290 -0.0066
  191CHOL    R1 1718   2.579   0.722   6.953 -0.0722  0.0029 -0.0152
  191CHOL    R2 1719   2.542   0.992   7.000  0.1049  0.0387 -0.0773
  191CHOL    R3 1720   2.495   0.999   6.732  0.0806  0.0040 -0.0740
  191CHOL    R4 1721   2.332   1.217   6.841  0.0486 -0.0140 -0.0776
  191CHOL    R5 1722   2.263   1.054   6.714  0.0672 -0.0407 -0.0569
  191CHOL    C1 1723   2.166   1.354   6.498 -0.0070 -0.0773 -0.0745
  191CHOL    C2 1724   2.132   1.610   6.158 -0.1158 -0.0668  0.1078
  192CHOL   ROH 1725   9.303   1.495   6.308  0.1425 -0.0049 -0.0084
  192CHOL    R1 1726   9.282   1.214   6.328 -0.0081  0.0202  0.2305
  192CHOL    R2 1727   9.451   1.042   6.193 -0.3122 -0.1880  0.1024
  192CHOL    R3 1728   9.494   0.940   6.441 -0.0098 -0.0271  0.1209
  192CHOL    R4 1729   9.581   0.728   6.259 -0.1776 -0.1232  0.1480
  192CHOL    R5 1730   9.437   0.708   6.422  0.0089 -0.0515  0.3269
  192CHOL    C1 1731   9.696   0.450   6.531  0.1847  0.0656  0.1920
  192CHOL    C2 1732   9.940   0.189   6.361 -0.2953  0.0028 -0.0878
  193XCA    COO 1733  11.781  15.786   8.157 -0.1649 -0.0612 -0.4621
  193XCA     C1 1734  11.666  15.524   7.942  0.0923  0.2099  0.2568
  193XCA     C2 1735  11.784  15.258   7.687 -0.1815  0.0053  0.1855
  193XCA     C3 1736  12.187  14.965   7.591 -0.0735  0.0468  0.0794
  193XCA     C4 1737  12.327  14.759   7.228  0.1530 -0.5620  0.0325
  193XCA     C5 1738  12.349  14.398   6.897  0.0314  0.0028  0.1301
  193XCA     C6 1739  12.598  14.090   6.646  0.2911  0.1233  0.0610
  194CHOL   ROH 1740  11.301  14.983   8.650  0.0683 -0.3265  0.1026
  194CHOL    R1 1741  11.262  14.992   8.370  0.0790 -0.0656  0.1090
  194CHOL    R2 1742  11.471  14.982   8.190  0.0640 -0.2221  0.1074
  194CHOL    R3 1743  11.329  14.775   8.086 -0.2243  0.0468 -0.0549
  194CHOL    R4 1744  11.467  14.896   7.856  0.3558 -0.2519  0.1079
  194CHOL    R5 1745  11.252  14.857   7.874  0.2340  0.1877 -0.1812
  194CHOL    C1 1746  11.331  14.651   7.563  0.2549 -0.0167 -0.0442
  194CHOL    C2 1747  11.294  14.395   7.381  0.2280  0.2686  0.0744
  195PNCE   AM1 1748  10.376  13.103   8.544  0.1493  0.0208 -0.2178
  195PNCE   AM2 1749  10.136  13.240   8.337  0.0382  0.2811 -0.3154
  195PNCE   T1A 1750  10.427  12.838   8.128  0.2198 -0.1906 -0.0281
  195PNCE   C2A 1751  10.404  12.651   7.792  0.2782  0.3741  0.2583
  195PNCE   C3A 1752  10.235  12.662   7.376 -0.0257 -0.0374  0.1934
  195PNCE   C1B 1753   9.942  12.859   8.002 -0.2034 -0.1326  0.2148
  195PNCE   C2B 1754   9.792  12.822   7.688  0.1172  0.0242  0.0040
  195PNCE   C3B 1755   9.736  12.574   7.329 -0.0586  0.2869 -0.1031
  195PNCE   D4B 1756   9.905  12.380   7.025 -0.1001 -0.3084 -0.2463
  195PNCE   C5B 1757  10.314  12.195   7.016 -0.0485  0.0485 -0.2385
  195PNCE   C6B 1758  10.736  12.202   7.194 -0.1121  0.0189 -0.0154
  196XCA    COO 1759  12.606   3.117   5.078  0.0538  0.1479 -0.0143
  196XCA     C1 1760  12.895   3.312   5.460 -0.2899  0.2960 -0.0166
  196XCA     C2 1761  13.124   3.571   5.644  0.2725  0.0729 -0.0529
  196XCA     C3 1762  13.454   3.807   5.782 -0.0686 -0.0205  0.0899
  196XCA     C4 1763  13.390   3.624   6.124  0.1221  0.0624 -0.2372
  196XCA     C5 1764  13.421   3.536   6.517 -0.1597 -0.0134 -0.1104
  196XCA     C6 1765  13.801   3.429   6.727 -0.1157  0.0297  0.0777
  197CHOL   ROH 1766   2.196   0.448   6.075  0.2519  0.0394  0.0718
  197CHOL    R1 1767   2.384   0.652   6.134  0.2131  0.0538  0.1486
  197CHOL    R2 1768   2.341   0.917   6.068  0.2891  0.0299 -0.0135
  197CHOL    R3 1769   2.389   0.957   6.333  0.0499  0.1448  0.0148
  197CHOL    R4 1770   2.471   1.207   6.205  0.2481  0.0547 -0.0278
  197CHOL    R5 1771   2.591   1.084   6.339  0.0832  0.0838  0.1469
  197CHOL    C1 1772   2.592   1.412   6.533 -0.0003  0.1771 -0.0095
  197CHOL    C2 1773   2.426   1.715   6.608  0.0337 -0.0721 -0.1197
  198CHOL   ROH 1774   9.901   3.828   5.796  0.1667 -0.0942  0.0111
  198CHOL    R1 1775   9.729   3.898   6.010  0.1719 -0.0387 -0.0034
  198CHOL    R2 1776   9.651   4.158   6.059  0.1643 -0.0300 -0.0775
  198CHOL    R3 1777   9.401   4.052   6.046  0.1662 -0.0414 -0.0344
  198CHOL    R4 1778   9.376   4.279   6.231  0.2132 -0.0992  0.0516
  198CHOL    R5 1779   9.316   4.072   6.269  0.2373 -0.1190  0.0029
  198CHOL    C1 1780   8.981   4.249   6.319  0.2434 -0.1502  0.1673
  198CHOL    C2 1781   9.081   4.593   6.528 -0.1694 -0.3359  0.0362
  199PNCE   AM1 1782   5.621  12.338   8.863 -0.0077  0.0567  0.0131
  199PNCE   AM2 1783   5.960  12.545   8.872  0.0932  0.2648 -0.2185
  199PNCE   T1A 1784   5.832  12.060   8.554 -0.2696 -0.1759  0.0666
  199PNCE   C2A 1785   6.060  11.933   8.085  0.1930  0.1913  0.0075
  199PNCE   C3A 1786   6.306  11.793   7.723  0.1606 -0.0571 -0.0519
  199PNCE   C1B 1787   5.772  12.579   8.468 -0.5585 -0.0261  0.2246
  199PNCE   C2B 1788   5.416  12.552   8.337  0.1202 -0.2008 -0.1037
  199PNCE   C3B 1789   5.056  12.352   8.117  0.1505  0.0573 -0.0136
  199PNCE   D4B 1790   4.883  12.186   7.729  0.1102 -0.0562 -0.1325
  199PNCE   C5B 1791   4.981  12.356   7.417  0.4468  0.0634  0.1797
  199PNCE   C6B 1792   5.034  12.290   6.982 -0.2219  0.1770 -0.0605
  200PNCE   AM1 1793  12.287   0.188   8.384  0.1446 -0.1252  0.1077
  200PNCE   AM2 1794  12.077   0.516   8.246 -0.0959  0.1836 -0.4468
  200PNCE   T1A 1795  12.250   0.104   7.900  0.2678 -0.2630  0.1112
  200PNCE   C2A 1796  11.876   0.083   7.687  0.1117 -0.1769 -0.2410
  200PNCE   C3A 1797  11.586  -0.107   7.488  0.1301  0.0782  0.0145
  200PNCE   C1B 1798  12.139   0.583   7.850  0.0466  0.0506  0.4919
  200PNCE   C2B 1799  11.756   0.529   7.649  0.1056 -0.0005 -0.3591
  200PNCE   C3B 1800  11.421   0.359   7.501  0.1199  0.0842 -0.1991
  200PNCE   D4B 1801  11.079   0.553   7.285 -0.0575 -0.1978  0.1087
  200PNCE   C5B 1802  10.744   0.301   7.172  0.1585  0.1075  0.0786
  200PNCE   C6B 1803  10.808   0.043   6.888 -0.0975  0.0704 -0.0914
  201CHOL   ROH 1804   1.579   9.859   7.746 -0.1016 -0.0080  0.0979
  201CHOL    R1 1805   1.599   9.599   7.634 -0.0332  0.0133  0.0595
  201CHOL    R2 1806   1.840   9.470   7.599 -0.0058  0.0488  0.1178
  201CHOL    R3 1807   1.719   9.273   7.742 -0.0300  0.0091  0.0434
  201CHOL    R4 1808   1.936   9.138   7.599 -0.0246  0.0432  0.0183
  201CHOL    R5 1809   1.725   9.082   7.598 -0.0281  0.0554 -0.0185
  201CHOL    C1 1810   1.878   8.760   7.733 -0.0582  0.0025 -0.1094
  201CHOL    C2 1811   2.109   8.485   7.602 -0.1020 -0.1653 -0.0164
  202CHOL   ROH 1812   6.185   0.128   3.655 -0.0650  0.0874  0.1364
  202CHOL    R1 1813   6.354   0.259   3.841  0.0046 -0.0282  0.1556
  202CHOL    R2 1814   6.284   0.296   4.105 -0.1066  0.2293  0.0937
  202CHOL    R3 1815   6.522   0.173   4.152 -0.2976 -0.0710  0.3100
  202CHOL    R4 1816   6.492   0.365   4.373  0.1096  0.5628 -0.1514
  202CHOL    R5 1817   6.663   0.347   4.238  0.0391 -0.0780 -0.1872
  202CHOL    C1 1818   6.836   0.289   4.573  0.0561  0.4751 -0.0911
  202CHOL    C2 1819   6.997   0.013   4.858 -0.1603 -0.0102  0.1751
  203CHOL   ROH 1820   3.936  14.433   7.672  0.1196  0.0376 -0.0743
  203CHOL    R1 1821   3.778  14.232   7.550  0.0597 -0.0075  0.0763
  203CHOL    R2 1822   3.501  14.241   7.548  0.0666  0.1272 -0.0156
  203CHOL    R3 1823   3.535  14.216   7.279  0.1342 -0.1582  0.0162
  203CHOL    R4 1824   3.244  14.229   7.317  0.1272  0.2349 -0.0901
  203CHOL    R5 1825   3.354  14.074   7.210 -0.0199 -0.0038  0.0866
  203CHOL    C1 1826   3.126  14.198   6.931  0.2261  0.0295 -0.1036
  203CHOL    C2 1827   2.930  14.409   6.711  0.0547  0.0165 -0.1570
  204PNCE   AM1 1828   8.930  11.215   5.226 -0.2625  0.0333  0.1115
  204PNCE   AM2 1829   9.202  11.152   5.057 -0.0265 -0.1791 -0.3582
  204PNCE   T1A 1830   8.789  11.057   5.671  0.1071  0.3904 -0.0070
  204PNCE   C2A 1831   8.737  11.248   6.056  0.0944 -0.0861 -0.0376
  204PNCE   C3A 1832   8.663  11.382   6.457  0.2313  0.1326  0.1720
  204PNCE   C1B 1833   9.280  11.262   5.531  0.3246  0.1950  0.0282
  204PNCE   C2B 1834   9.248  11.259   5.825  0.1049 -0.1950 -0.0865
  204PNCE   C3B 1835   9.174  11.269   6.301 -0.2313 -0.2430 -0.1128
  204PNCE   D4B 1836   9.068  11.302   6.718 -0.1430 -0.0154  0.0014
  204PNCE   C5B 1837   9.056  10.958   6.995 -0.0282  0.0845 -0.1267
  204PNCE   C6B 1838   8.917  10.726   7.373 -0.0200  0.0496 -0.1220
  205CHOL   ROH 1839  14.264   7.284   9.563 -0.1858  0.1295 -0.0133
  205CHOL    R1 1840  14.429   7.346   9.341 -0.2022  0.2317  0.0021
  205CHOL    R2 1841  14.505   7.157   9.155  0.1358  0.2209  0.1422
  205CHOL    R3 1842  14.399   7.334   8.979 -0.0712 -0.0394 -0.0018
  205CHOL    R4 1843  14.590   7.177   8.821  0.2123  0.1394  0.1566
  205CHOL    R5 1844  14.583   7.394   8.837 -0.1122  0.1438  0.0221
  205CHOL    C1 1845  14.539   7.356   8.460  0.0625 -0.1524  0.0298
  205CHOL    C2 1846  14.798   7.411   8.152  0.0686 -0.1220 -0.0556
  206XCA    COO 1847  15.820  14.657   9.085 -0.3324 -0.2383 -0.0888
  206XCA     C1 1848  15.939  14.960   8.900 -0.4073 -0.1789 -0.0045
  206XCA     C2 1849  16.123  15.111   8.564  0.1851 -0.5145 -0.0464
  206XCA     C3 1850  16.085  15.103   8.113  0.0031 -0.0256  0.2061
  206XCA     C4 1851  15.998  14.887   7.725  0.1217 -0.2469 -0.0360
  206XCA     C5 1852  16.006  14.751   7.290  0.2714  0.3559  0.2152
  206XCA     C6 1853  15.912  14.534   6.889  0.2798 -0.0198 -0.1553
  207CHOL   ROH 1854   6.033  10.849   8.675  0.0868 -0.1720  0.0045
  207CHOL    R1 1855   5.908  10.736   8.448  0.0042 -0.1128  0.0205
  207CHOL    R2 1856   5.734  10.879   8.287  0.0451 -0.0334  0.0486
  207CHOL    R3 1857   5.903  10.800   8.089 -0.0189 -0.1053  0.0217
  207CHOL    R4 1858   5.673  10.915   7.949 -0.0306 -0.0817  0.0567
  207CHOL    R5 1859   5.759  10.717   7.917 -0.0795 -0.1067  0.0717
  207CHOL    C1 1860   5.796  10.861   7.566 -0.1348 -0.1773  0.0362
  207CHOL    C2 1861   5.546  10.803   7.211  0.1289 -0.2072  0.0955
  208CHOL   ROH 1862   7.801  13.413   8.049 -0.3649  0.1903 -0.0592
  208CHOL    R1 1863   7.698  13.329   7.799 -0.2989  0.0237 -0.0332
  208CHOL    R2 1864   7.860  13.247   7.591 -0.2164  0.2440 -0.0694
  208CHOL    R3 1865   7.703  13.025   7.600  0.1061  0.0134 -0.0106
  208CHOL    R4 1866   7.758  13.067   7.314 -0.3646  0.3088 -0.0564
  208CHOL    R5 1867   7.562  13.045   7.407 -0.2022 -0.0400  0.2096
  208CHOL    C1 1868   7.552  12.754   7.161 -0.1483  0.1301  0.0063
  208CHOL    C2 1869   7.742  12.421   6.886 -0.2228 -0.0611  0.1473
  209PNCE   AM1 1870   8.760   5.111   8.229  0.2175  0.1960 -0.0088
  209PNCE   AM2 1871   8.889   5.396   8.020 -0.5242 -0.2635  0.3513
  209PNCE   T1A 1872   9.207   5.000   7.947 -0.0249  0.1279 -0.1772
  209PNCE   C2A 1873   9.509   4.949   7.565 -0.2151 -0.1342 -0.2359
  209PNCE   C3A 1874   9.704   5.132   7.176  0.1015 -0.1130  0.1970
  209PNCE   C1B 1875   9.039   5.681   7.724  0.1388  0.3135  0.0628
  209PNCE   C2B 1876   9.325   5.911   7.649 -0.2902  0.0498  0.4581
  209PNCE   C3B 1877   9.526   6.056   7.253  0.1881  0.3894  0.1215
  209PNCE   D4B 1878   9.372   6.151   6.884 -0.1971 -0.0414 -0.0357
  209PNCE   C5B 1879   9.607   5.918   6.649 -0.0610  0.2346  0.2102
  209PNCE   C6B 1880   9.783   5.563   6.563  0.1147  0.0869  0.2779
  210CHOL   ROH 1881   4.356   4.592   6.986 -0.1963  0.0279  0.1264
  210CHOL    R1 1882   4.466   4.831   7.090 -0.0181 -0.0486  0.1156
  210CHOL    R2 1883   4.686   4.833   7.258  0.1462 -0.1864 -0.0937
  210CHOL    R3 1884   4.786   5.004   7.073  0.0233 -0.1458 -0.1237
  210CHOL    R4 1885   4.890   5.103   7.328  0.1200 -0.1482 -0.1626
  210CHOL    R5 1886   4.780   5.218   7.179  0.0261 -0.1574 -0.1005
  210CHOL    C1 1887   5.103   5.421   7.194 -0.0106 -0.0879 -0.2308
  210CHOL    C2 1888   5.188   5.671   7.480 -0.2433 -0.1594 -0.1531
  211PNCE   AM1 1889   4.664   3.620   9.330  0.2240  0.0212 -0.0216
  211PNCE   AM2 1890   5.011   3.537   9.126  0.1584  0.1613  0.0101
  211PNCE   T1A 1891   4.517   3.605   8.896 -0.0945  0.0090 -0.5183
  211PNCE   C2A 1892   4.669   3.537   8.535  0.3313  0.1000 -0.1656
  211PNCE   C3A 1893   4.683   3.822   8.145 -0.1727  0.1655  0.2577
  211PNCE   C1B 1894   4.940   3.862   8.826 -0.0410  0.0233 -0.2168
  211PNCE   C2B 1895   4.550   4.031   8.597  0.1642 -0.0978  0.0057
  211PNCE   C3B 1896   4.194   4.109   8.325  0.2417  0.1456  0.0123
  211PNCE   D4B 1897   3.887   4.260   8.090  0.0070 -0.1887 -0.1173
  211PNCE   C5B 1898   3.999   4.202   7.648  0.0887  0.2489 -0.3678
  211PNCE   C6B 1899   3.911   4.362   7.260  0.4163 -0.0989  0.1877
  212CHOL   ROH 1900   4.656   1.306   7.442 -0.0976  0.0193  0.0269
  212CHOL    R1 1901   4.581   1.438   7.203 -0.1487 -0.0093  0.0275
  212CHOL    R2 1902   4.341   1.571   7.175 -0.0630  0.1685  0.1373
  212CHOL    R3 1903   4.501   1.778   7.103  0.0537  0.0200 -0.0433
  212CHOL    R4 1904   4.234   1.854   7.008  0.0770  0.1197 -0.0396
  212CHOL    R5 1905   4.416   1.847   6.889  0.0506 -0.0781 -0.0761
  212CHOL    C1 1906   4.322   2.214   6.843  0.2679 -0.0481 -0.3121
  212CHOL    C2 1907   4.461   2.167   6.460 -0.3075  0.0243  0.0938
  213PNCE   AM1 1908  10.425  10.609   9.577  0.1251  0.1072  0.1043
  213PNCE   AM2 1909  10.181  10.518   9.463  0.0601  0.0470 -0.0867
  213PNCE   T1A 1910  10.542  10.903   9.277  0.0877  0.0573 -0.0462
  213PNCE   C2A 1911  10.305  10.949   8.852 -0.0013 -0.1033  0.2932
  213PNCE   C3A 1912  10.179  10.708   8.520  0.0750 -0.1220 -0.2043
  213PNCE   C1B 1913  10.031  10.493   9.052 -0.1833  0.0715 -0.3144
  213PNCE   C2B 1914   9.734  10.301   8.771 -0.1848  0.5144 -0.1382
  213PNCE   C3B 1915   9.383  10.147   8.575  0.1951  0.3388 -0.2174
  213PNCE   D4B 1916   8.925   9.992   8.503  0.2575  0.2319  0.4304
  213PNCE   C5B 1917   8.621   9.706   8.742 -0.3175  0.1685 -0.0782
  213PNCE   C6B 1918   8.199   9.562   9.006  0.0288 -0.1793 -0.2426
  214CHOL   ROH 1919   6.237   4.450   4.754  0.0180 -0.3162 -0.0221
  214CHOL    R1 1920   6.264   4.609   4.987  0.0406 -0.2095 -0.0976
  214CHOL    R2 1921   6.049   4.727   5.113  0.0694 -0.0509 -0.2032
  214CHOL    R3 1922   6.146   4.597   5.331 -0.0338  0.0206 -0.1124
  214CHOL    R4 1923   5.974   4.808   5.440 -0.3507 -0.1398 -0.2713
  214CHOL    R5 1924   6.182   4.770   5.492 -0.3616  0.0488 -0.0572
  214CHOL    C1 1925   6.021   4.732   5.835 -0.6922 -0.1244 -0.2259
  214CHOL    C2 1926   5.955   4.629   6.051 -0.0376 -0.0632 -0.1589
  215CHOL   ROH 1927  10.683   1.129   8.017 -0.4071  0.2455  0.1736
  215CHOL    R1 1928  10.620   0.995   7.776 -0.2971  0.2510  0.1418
  215CHOL    R2 1929  10.513   1.125   7.557  0.0633  0.3102 -0.0038
  215CHOL    R3 1930  10.725   1.014   7.428  0.0855  0.0560  0.2402
  215CHOL    R4 1931  10.494   0.957   7.256  0.2288  0.5206 -0.1351
  215CHOL    R5 1932  10.637   0.812   7.334 -0.1041  0.2438 -0.0044
  215CHOL    C1 1933  10.681   0.755   6.959  0.3460  0.4043  0.0174
  215CHOL    C2 1934  10.732   0.543   6.687  0.0091 -0.0916 -0.2263
  216PNCE   AM1 1935  10.692  14.052   8.467 -0.0544  0.2114  0.1738
  216PNCE   AM2 1936  10.782  13.885   8.699 -0.0755  0.1610 -0.1767
  216PNCE   T1A 1937  10.590  13.985   8.019 -0.2733 -0.3880  0.4708
  216PNCE   C2A 1938  10.803  13.641   7.726  0.0781  0.2829  0.3082
  216PNCE   C3A 1939  11.330  13.722   7.706  0.2429  0.0884  0.0193
  216PNCE   C1B 1940  11.094  13.499   8.659  0.0824  0.1986 -0.2403
  216PNCE   C2B 1941  11.427  13.576   8.345 -0.1702 -0.1848 -0.1167
  216PNCE   C3B 1942  11.704  13.404   8.076  0.3075 -0.0599  0.0339
  216PNCE   D4B 1943  11.975  13.064   7.955 -0.3329 -0.1130 -0.0507
  216PNCE   C5B 1944  12.292  13.241   7.743 -0.0010  0.0335 -0.1154
  216PNCE   C6B 1945  12.594  13.227   7.391 -0.1591 -0.0433  0.0417
  217PNCE   AM1 1946   4.845  10.472   9.307 -0.1415  0.2465  0.1553
  217PNCE   AM2 1947   4.766  10.628   9.078  0.0945 -0.2282 -0.1130
  217PNCE   T1A 1948   4.565  10.108   9.128  0.0400 -0.0111 -0.0337
  217PNCE   C2A 1949   4.259   9.866   8.843  0.0673  0.2910 -0.2814
  217PNCE   C3A 1950   4.105   9.811   8.333  0.0646 -0.0872 -0.2365
  217PNCE   C1B 1951   4.366  10.486   8.856  0.3382  0.0957  0.3436
  217PNCE   C2B 1952   4.203  10.305   8.557  0.0345  0.3442 -0.1408
  217PNCE   C3B 1953   3.970  10.226   8.149 -0.1002 -0.0964 -0.2154
  217PNCE   D4B 1954   3.759   9.884   7.958  0.0545  0.3105 -0.0355
  217PNCE   C5B 1955   3.986   9.665   7.711  0.3710  0.3405  0.0799
  217PNCE   C6B 1956   3.782   9.478   7.380 -0.0651 -0.0909 -0.2567
  218PNCE   AM1 1957   6.896   6.983   8.552  0.1837 -0.3945 -0.1333
  218PNCE   AM2 1958   6.882   7.312   8.531  0.0193 -0.1988  0.0810
  218PNCE   T1A 1959   6.962   6.744   8.181 -0.0359  0.2832  0.3716
  218PNCE   C2A 1960   6.720   6.682   7.785 -0.1832  0.0433 -0.1254
  218PNCE   C3A 1961   6.560   6.771   7.424  0.0469  0.1360 -0.0532
  218PNCE   C1B 1962   6.629   7.125   8.105  0.2086  0.1852 -0.0656
  218PNCE   C2B 1963   6.468   7.147   7.710 -0.0197  0.1623 -0.2539
  218PNCE   C3B 1964   6.288   7.512   7.498  0.0377  0.0819  0.0467
  218PNCE   D4B 1965   6.396   7.949   7.423 -0.1953 -0.1659 -0.0330
  218PNCE   C5B 1966   6.214   8.385   7.185  0.1793  0.0759 -0.3124
  218PNCE   C6B 1967   6.035   8.744   7.281  0.0795 -0.1091  0.2516
  219CHOL   ROH 1968  11.419   6.146   8.323 -0.1070  0.2277 -0.0767
  219CHOL    R1 1969  11.591   6.105   8.101 -0.0303  0.0852  0.0079
  219CHOL    R2 1970  11.502   6.000   7.861  0.0242  0.0609 -0.0011
  219CHOL    R3 1971  11.614   6.225   7.759  0.1750 -0.0209 -0.0176
  219CHOL    R4 1972  11.620   6.032   7.538 -0.1946  0.0306 -0.0857
  219CHOL    R5 1973  11.789   6.145   7.617 -0.0141 -0.1628 -0.1796
  219CHOL    C1 1974  11.795   6.262   7.254 -0.1805 -0.0639 -0.1506
  219CHOL    C2 1975  11.802   6.222   6.815  0.0362  0.1521 -0.0525
  220PNCE   AM1 1976  12.478   9.179   9.226  0.0002  0.1170 -0.1828
  220PNCE   AM2 1977  12.801   9.284   9.227  0.0538  0.0247 -0.0126
  220PNCE   T1A 1978  12.401   9.426   8.908  0.0261  0.1186 -0.0972
  220PNCE   C2A 1979  12.560   9.638   8.595  0.1552 -0.0004 -0.0815
  220PNCE   C3A 1980  12.213   9.518   8.217  0.3314  0.0474  0.2772
  220PNCE   C1B 1981  12.798   9.148   8.681  0.1552  0.0022 -0.0975
  220PNCE   C2B 1982  12.931   9.185   8.313  0.1727 -0.0497 -0.4614
  220PNCE   C3B 1983  12.690   9.359   8.001 -0.1813 -0.1937 -0.0041
  220PNCE   D4B 1984  12.345   9.709   7.794  0.1615  0.3076  0.1132
  220PNCE   C5B 1985  12.130  10.042   7.972  0.2148  0.0546  0.1256
  220PNCE   C6B 1986  12.002  10.318   7.653  0.0436  0.0020  0.2624
  221CHOL   ROH 1987  10.235   9.940   7.193  0.1006 -0.0659  0.0391
  221CHOL    R1 1988  10.403   9.800   7.014  0.0995 -0.1234  0.0822
  221CHOL    R2 1989  10.435   9.526   7.023 -0.0957 -0.1513  0.0088
  221CHOL    R3 1990  10.363   9.541   6.762  0.0521 -0.0125 -0.0245
  221CHOL    R4 1991  10.588   9.353   6.766 -0.0913 -0.1844  0.0339
  221CHOL    R5 1992  10.571   9.532   6.643  0.1082 -0.1307  0.0812
  221CHOL    C1 1993  10.611   9.268   6.371  0.0499 -0.0734  0.0172
  221CHOL    C2 1994  10.600   9.474   6.020 -0.0926 -0.0175 -0.1083
  222CHOL   ROH 1995  14.991   1.055   7.522 -0.1161  0.4071  0.0972
  222CHOL    R1 1996  14.833   0.914   7.335 -0.0145  0.0209  0.2938
  222CHOL    R2 1997  14.867   0.941   7.062 -0.2929 -0.0337  0.2602
  222CHOL    R3 1998  14.890   0.670   7.071  0.2199  0.0005  0.3572
  222CHOL    R4 1999  14.896   0.737   6.785 -0.5432 -0.1030  0.2799
  222CHOL    R5 2000  14.763   0.594   6.882 -0.0829 -0.3146  0.6638
  222CHOL    C1 2001  14.935   0.364   6.631 -0.2076 -0.1112  0.3825
  222CHOL    C2 2002  14.658   0.209   6.427  0.0699 -0.1352 -0.0076
  223PNCE   AM1 2003  10.014   4.913   8.391  0.1178 -0.1188  0.0909
  223PNCE   AM2 2004  10.150   4.685   8.545 -0.1420  0.0756  0.1661
  223PNCE   T1A 2005  10.066   4.919   7.907  0.2467  0.2192 -0.0116
  223PNCE   C2A 2006  10.061   5.093   7.522  0.0094 -0.0031 -0.0607
  223PNCE   C3A 2007  10.286   5.299   7.382  0.0060  0.0611  0.0733
  223PNCE   C1B 2008  10.102   4.380   8.304 -0.1401 -0.1380  0.3820
  223PNCE   C2B 2009   9.978   4.359   7.894  0.0173 -0.0610  0.2366
  223PNCE   C3B 2010  10.195   4.317   7.450  0.0932 -0.0510 -0.2340
  223PNCE   D4B 2011  10.642   4.270   7.315  0.1709  0.2026  0.1065
  223PNCE   C5B 2012  10.804   4.363   6.888  0.1371  0.4880 -0.0375
  223PNCE   C6B 2013  10.646   4.468   6.453  0.1052  0.2221  0.0536
  224XCA    COO 2014  14.141   4.984   8.825  0.4693  0.0151  0.0363
  224XCA     C1 2015  14.409   4.816   8.581  0.2430  0.0386  0.0226
  224XCA     C2 2016  14.549   4.660   8.185 -0.2422  0.0908 -0.1417
  224XCA     C3 2017  14.658   4.570   7.719 -0.0637 -0.2909 -0.0413
  224XCA     C4 2018  14.806   4.573   7.253  0.2435  0.2063  0.1078
  224XCA     C5 2019  14.974   4.970   7.085 -0.2397  0.0207  0.0543
  224XCA     C6 2020  14.841   5.283   6.842  0.3155 -0.1457 -0.1427
  225CHOL   ROH 2021   5.677   9.961   7.219 -0.3240  0.0436 -0.1185
  225CHOL    R1 2022   5.776   9.773   7.032 -0.1879  0.0422 -0.0482
  225CHOL    R2 2023   5.931   9.556   7.107 -0.1588  0.0900  0.0527
  225CHOL    R3 2024   5.741   9.416   6.972 -0.0646  0.0244 -0.0096
  225CHOL    R4 2025   5.965   9.229   7.001  0.0720  0.1736 -0.1370
  225CHOL    R5 2026   5.864   9.283   6.816  0.0178  0.2036 -0.0945
  225CHOL    C1 2027   5.806   8.906   6.814  0.2950  0.1606 -0.3061
  225CHOL    C2 2028   6.116   8.766   6.828 -0.0036  0.2977 -0.1680
  226PNCE   AM1 2029   3.175  13.862   8.659  0.0912 -0.0206  0.1447
  226PNCE   AM2 2030   3.522  14.156   8.458 -0.0273  0.3176 -0.0494
  226PNCE   T1A 2031   3.577  13.688   8.613 -0.1424  0.0343  0.2312
  226PNCE   C2A 2032   3.994  13.625   8.567  0.0746 -0.1120  0.0268
  226PNCE   C3A 2033   4.158  13.298   8.567 -0.2737  0.2061  0.1297
  226PNCE   C1B 2034   3.355  13.855   8.171  0.0530  0.3348 -0.0802
  226PNCE   C2B 2035   3.161  13.520   8.016 -0.0697 -0.1059  0.1649
  226PNCE   C3B 2036   2.980  13.278   7.714 -0.0899 -0.0225 -0.1272
  226PNCE   D4B 2037   2.734  13.181   7.263  0.3640  0.2193 -0.2648
  226PNCE   C5B 2038   2.275  13.247   7.316  0.0917 -0.0263  0.1174
  226PNCE   C6B 2039   1.937  13.209   7.032 -0.0042  0.3178 -0.1430
  227XCA    COO 2040   1.426   5.373   9.212 -0.4363  0.2086  0.1521
  227XCA     C1 2041   1.317   5.362   8.786  0.1482  0.0226 -0.2015
  227XCA     C2 2042   1.303   5.211   8.323  0.0420 -0.0273  0.1858
  227XCA     C3 2043   1.560   5.227   7.882  0.0282 -0.1278  0.0263
  227XCA     C4 2044   1.648   5.412   7.493 -0.1388  0.0690  0.0020
  227XCA     C5 2045   1.441   5.664   7.206 -0.1792  0.0196  0.0130
  227XCA     C6 2046   1.059   5.771   6.923  0.1086  0.0887 -0.0951
  228PNCE   AM1 2047   8.415   8.125   9.223 -0.2260  0.1159  0.0298
  228PNCE   AM2 2048   8.613   8.458   9.221  0.2053 -0.0140  0.1018
  228PNCE   T1A 2049   8.219   8.445   8.843  0.1599  0.0137 -0.2388
  228PNCE   C2A 2050   8.104   8.762   8.440  0.1084 -0.1311  0.0670
  228PNCE   C3A 2051   8.093   9.049   8.151 -0.0591 -0.0830 -0.0120
  228PNCE   C1B 2052   8.666   8.661   8.769 -0.5977  0.0609 -0.1146
  228PNCE   C2B 2053   8.918   8.579   8.358  0.0420 -0.0173  0.2309
  228PNCE   C3B 2054   9.275   8.524   7.932 -0.1156  0.3508  0.2635
  228PNCE   D4B 2055   9.337   8.624   7.488 -0.1250  0.0737 -0.0119
  228PNCE   C5B 2056   9.571   8.996   7.401 -0.0797  0.0440 -0.1036
  228PNCE   C6B 2057   9.526   9.465   7.384  0.0405 -0.0233 -0.2349
  229CHOL   ROH 2058   9.949   7.628   8.412 -0.0730  0.0915  0.0515
  229CHOL    R1 2059   9.833   7.676   8.158  0.0563  0.0637 -0.0137
  229CHOL    R2 2060   9.981   7.676   7.925  0.1253 -0.2822  0.0234
  229CHOL    R3 2061   9.797   7.492   7.846 -0.0849 -0.1090  0.1025
  229CHOL    R4 2062   9.935   7.571   7.599  0.1715 -0.5459  0.0995
  229CHOL    R5 2063   9.719   7.574   7.634  0.1511 -0.2111 -0.0256
  229CHOL    C1 2064   9.734   7.337   7.335  0.0010 -0.5369  0.2181
  229CHOL    C2 2065   9.395   7.285   7.094 -0.0950  0.3425 -0.1335
  230XCA    COO 2066   5.298   2.681   8.473 -0.0497  0.0697  0.1106
  230XCA     C1 2067   5.302   2.399   8.046  0.1993  0.1700 -0.1097
  230XCA     C2 2068   5.476   2.333   7.638  0.0774  0.0326 -0.0934
  230XCA     C3 2069   5.565   2.649   7.232  0.1328  0.0874 -0.1509
  230XCA     C4 2070   5.675   3.000   6.968 -0.3269 -0.0069  0.0215
  230XCA     C5 2071   5.921   3.249   6.810 -0.0371  0.1875  0.3182
  230XCA     C6 2072   6.082   3.659   6.671 -0.1365 -0.0301  0.0875
  231CHOL   ROH 2073  14.806   2.971   4.899  0.0218 -0.0675 -0.0108
  231CHOL    R1 2074  14.842   2.785   5.109  0.0847 -0.0001  0.0383
  231CHOL    R2 2075  14.654   2.748   5.308  0.0967 -0.0121  0.0463
  231CHOL    R3 2076  14.671   2.488   5.231  0.1864 -0.0276  0.1158
  231CHOL    R4 2077  14.544   2.479   5.496  0.3677 -0.0162  0.2045
  231CHOL    R5 2078  14.722   2.369   5.433  0.3868  0.0614  0.1197
  231CHOL    C1 2079  14.496   2.078   5.533  0.6099 -0.0332  0.3617
  231CHOL    C2 2080  14.399   1.791   5.783 -0.0138 -0.0249 -0.1937
  232PNCE   AM1 2081   4.491  15.788   7.230  0.1367 -0.0263 -0.1186
  232PNCE   AM2 2082   4.188  15.674   7.258 -0.1238 -0.1965 -0.0795
  232PNCE   T1A 2083   4.450  16.030   6.939  0.1468 -0.1583  0.1761
  232PNCE   C2A 2084   4.477  16.216   6.519 -0.0842  0.0003  0.2680
  232PNCE   C3A 2085   4.772  16.521   6.353 -0.0804 -0.0419 -0.1336
  232PNCE   C1B 2086   3.750  15.554   7.060 -0.1458 -0.3286  0.0684
  232PNCE   C2B 2087   3.523  15.327   6.803 -0.3201 -0.4368  0.3446
  232PNCE   C3B 2088   3.389  14.975   6.653 -0.1367 -0.2120 -0.1728
  232PNCE   D4B 2089   3.233  14.861   6.453 -0.4722  0.1722 -0.0370
  232PNCE   C5B 2090   3.114  14.577   6.276  0.0722  0.0509 -0.1669
  232PNCE   C6B 2091   3.404  14.465   6.068 -0.0348  0.0937  0.1927
  233PNCE   AM1 2092  11.859   2.164   8.303 -0.0082  0.1821  0.0540
  233PNCE   AM2 2093  11.637   2.065   8.103 -0.1555 -0.1969  0.2956
  233PNCE   T1A 2094  11.864   2.435   7.920  0.1440 -0.1346 -0.2779
  233PNCE   C2A 2095  11.998   2.469   7.559  0.2020  0.3014  0.0103
  233PNCE   C3A 2096  11.947   2.559   7.175 -0.0897 -0.1895 -0.1790
  233PNCE   C1B 2097  11.581   1.981   7.734  0.3317  0.2410 -0.1824
  233PNCE   C2B 2098  11.550   1.911   7.339  0.0397  0.0489  0.0132
  233PNCE   C3B 2099  11.780   2.069   7.046 -0.1654  0.0176 -0.2421
  233PNCE   D4B 2100  12.075   1.865   6.803 -0.0383  0.0613 -0.2093
  233PNCE   C5B 2101  12.057   1.772   6.348 -0.1089 -0.0448  0.1985
  233PNCE   C6B 2102  11.770   1.606   6.101 -0.2873 -0.4360  0.2632
  234CHOL   ROH 2103   7.856   6.533   8.301 -0.1182 -0.0870 -0.1079
  234CHOL    R1 2104   7.792   6.581   8.029 -0.0540 -0.0884 -0.1220
  234CHOL    R2 2105   7.982   6.579   7.830 -0.0065 -0.0653 -0.0688
  234CHOL    R3 2106   7.815   6.397   7.716  0.0418 -0.0779 -0.1236
  234CHOL    R4 2107   7.944   6.533   7.489  0.1107 -0.0578 -0.0844
  234CHOL    R5 2108   7.729   6.510   7.522  0.0959 -0.0746 -0.1513
  234CHOL    C1 2109   7.765   6.336   7.184  0.2243 -0.0652 -0.1449
  234CHOL    C2 2110   7.666   6.335   6.796  0.2487  0.0352 -0.2056
  235PNCE   AM1 2111  13.048  10.753   9.015 -0.1000  0.0443  0.2908
  235PNCE   AM2 2112  12.933  11.004   9.061 -0.0476 -0.1092 -0.2694
  235PNCE   T1A 2113  12.948  10.353   8.790  0.0852  0.1433  0.0466
  235PNCE   C2A 2114  12.926  10.001   8.544  0.0244 -0.2410  0.2201
  235PNCE   C3A 2115  13.003   9.650   8.213  0.1327  0.1249 -0.3715
  235PNCE   C1B 2116  12.731  11.302   8.734 -0.0539 -0.2716  0.5054
  235PNCE   C2B 2117  12.552  11.496   8.371  0.0276  0.0314  0.1902
  235PNCE   C3B 2118  12.615  11.513   7.898 -0.1495  0.2154 -0.2868
  235PNCE   D4B 2119  12.740  11.461   7.508 -0.2443 -0.1102 -0.1158
  235PNCE   C5B 2120  12.657  11.894   7.290 -0.2732 -0.2895 -0.1596
  235PNCE   C6B 2121  12.730  12.280   7.119  0.0709  0.2486  0.1601
  236XCA    COO 2122  14.945   9.954   5.750 -0.0386  0.3026  0.4071
  236XCA     C1 2123  15.139   9.842   6.073 -0.1827 -0.1528 -0.1826
  236XCA     C2 2124  14.922   9.860   6.492  0.0499 -0.0415 -0.4313
  236XCA     C3 2125  14.793   9.886   6.902 -0.0358  0.2121 -0.0511
  236XCA     C4 2126  14.793   9.654   7.388 -0.3094  0.0513 -0.3152
  236XCA     C5 2127  14.524   9.508   7.647  0.0481 -0.1191 -0.0385
  236XCA     C6 2128  14.076   9.449   7.752  0.2328 -0.1401 -0.2071
  237CHOL   ROH 2129  14.835  10.702   7.727  0.1075 -0.0174  0.0380
  237CHOL    R1 2130  14.901  10.938   7.586  0.0231 -0.1044 -0.1531
  237CHOL    R2 2131  15.038  11.148   7.703 -0.2659  0.1485 -0.2462
  237CHOL    R3 2132  15.206  11.113   7.493 -0.0452  0.0654 -0.0583
  237CHOL    R4 2133  15.281  11.373   7.605 -0.2597  0.1732 -0.1713
  237CHOL    R5 2134  15.229  11.331   7.398 -0.0401  0.0044 -0.1924
  237CHOL    C1 2135  15.581  11.471   7.350 -0.0488  0.1097  0.0486
  237CHOL    C2 2136  15.920  11.454   7.521 -0.1162 -0.1277 -0.3237
  238CHOL   ROH 2137   3.754  14.077   7.934 -0.0961 -0.0538  0.0450
  238CHOL    R1 2138   3.743  13.844   7.774 -0.0374 -0.0273  0.0015
  238CHOL    R2 2139   3.562  13.640   7.820  0.0558 -0.1129  0.0044
  238CHOL    R3 2140   3.497  13.682   7.559 -0.0222 -0.0846  0.0282
  238CHOL    R4 2141   3.433  13.400   7.608  0.0620 -0.1059 -0.0070
  238CHOL    R5 2142   3.561  13.478   7.450 -0.0004 -0.0472 -0.0249
  238CHOL    C1 2143   3.298  13.299   7.240 -0.0077 -0.0752  0.0086
  238CHOL    C2 2144   3.457  13.049   7.305 -0.2387  0.0965  0.3123
  239CHOL   ROH 2145   6.775  14.476   7.244  0.2568  0.1370 -0.0541
  239CHOL    R1 2146   6.671  14.410   6.989  0.1169  0.1925 -0.0129
  239CHOL    R2 2147   6.725  14.169   6.864  0.2885  0.3346 -0.2239
  239CHOL    R3 2148   6.455  14.151   6.851  0.2940  0.0374 -0.0007
  239CHOL    R4 2149   6.549  13.954   6.657  0.3441  0.0920 -0.0236
  239CHOL    R5 2150   6.407  14.114   6.620  0.1413 -0.0726  0.0494
  239CHOL    C1 2151   6.193  13.813   6.526  0.3817 -0.3284  0.3026
  239CHOL    C2 2152   5.899  13.567   6.665  0.0396  0.0773 -0.1352
  240XCA    COO 2153  12.022   6.681   5.374  0.2231 -0.1710 -0.1669
  240XCA     C1 2154  12.130   6.407   5.691  0.2648  0.0411  0.0184
  240XCA     C2 2155  11.918   6.006   5.891  0.0691 -0.0446  0.1161
  240XCA     C3 2156  11.666   5.888   6.147  0.2130  0.2148 -0.4318
  240XCA     C4 2157  11.558   5.800   6.482 -0.4933  0.0009 -0.1968
  240XCA     C5 2158  11.308   5.596   6.785 -0.1021 -0.1539 -0.1652
  240XCA     C6 2159  11.471   5.213   7.048 -0.0985  0.0140  0.1348
  241PNCE   AM1 2160   2.354   7.177   9.552  0.0174 -0.0218  0.0156
  241PNCE   AM2 2161   2.256   7.441   9.621  0.0185  0.0269  0.1729
  241PNCE   T1A 2162   2.319   7.294   9.116  0.0445  0.1263 -0.0590
  241PNCE   C2A 2163   2.453   7.471   8.705  0.0597  0.1335  0.2812
  241PNCE   C3A 2164   2.532   7.470   8.279  0.1479 -0.5442 -0.0743
  241PNCE   C1B 2165   2.384   7.746   9.308  0.1998  0.2633  0.0900
  241PNCE   C2B 2166   2.587   7.881   8.909  0.5235 -0.0006  0.1940
  241PNCE   C3B 2167   2.573   7.972   8.600  0.1117 -0.1306 -0.1191
  241PNCE   D4B 2168   2.549   8.323   8.531  0.2764 -0.1089  0.0630
  241PNCE   C5B 2169   2.791   8.554   8.512  0.0214  0.0810  0.0468
  241PNCE   C6B 2170   3.202   8.682   8.485  0.1706  0.1520 -0.2597
  242CHOL   ROH 2171   1.688   8.620   6.341 -0.3047 -0.1600 -0.2095
  242CHOL    R1 2172   1.688   8.477   6.585 -0.4481 -0.3324 -0.3109
  242CHOL    R2 2173   1.728   8.599   6.829  0.1747 -0.6035 -0.2739
  242CHOL    R3 2174   1.493   8.477   6.892 -0.1222  0.0195 -0.0921
  242CHOL    R4 2175   1.631   8.515   7.150  0.5422 -0.9071 -0.2323
  242CHOL    R5 2176   1.551   8.328   7.071 -0.2233 -0.5353 -0.4836
  242CHOL    C1 2177   1.353   8.353   7.396  0.4775 -0.4991 -0.0372
  242CHOL    C2 2178   1.303   8.083   7.773  0.0192 -0.4656  0.0651
  243XCA    COO 2179  15.237  15.566   4.404  0.0405  0.0617  0.2918
  243XCA     C1 2180  15.237  15.661   4.786  0.1528 -0.0004 -0.1161
  243XCA     C2 2181  15.320  15.998   5.167  0.1477 -0.0440  0.1724
  243XCA     C3 2182  15.420  15.964   5.546 -0.0259 -0.0311  0.2002
  243XCA     C4 2183  15.557  16.306   5.866 -0.1263  0.1285  0.1284
  243XCA     C5 2184  15.832  16.576   6.112 -0.1658  0.3363 -0.3601
  243XCA     C6 2185  15.789  16.993   6.356 -0.0419 -0.1485  0.0565
  244PNCE   AM1 2186  12.762   6.582   8.853 -0.1081  0.0741  0.0638
  244PNCE   AM2 2187  12.586   6.307   9.073 -0.1213  0.1090 -0.1214
  244PNCE   T1A 2188  13.106   6.855   8.678 -0.1627 -0.1556  0.1375
  244PNCE   C2A 2189  13.205   7.013   8.311 -0.0618 -0.1270  0.1780
  244PNCE   C3A 2190  13.491   7.107   7.988  0.2960 -0.0023  0.0077
  244PNCE   C1B 2191  12.438   6.216   8.618 -0.4408 -0.1383 -0.0067
  244PNCE   C2B 2192  12.420   5.831   8.360 -0.3156 -0.1491  0.1635
  244PNCE   C3B 2193  12.564   5.378   8.254  0.0751  0.0517 -0.0192
  244PNCE   D4B 2194  12.494   5.205   7.791 -0.2703  0.2890 -0.1063
  244PNCE   C5B 2195  12.778   5.280   7.549 -0.1912 -0.2414  0.3303
  244PNCE   C6B 2196  12.827   5.250   7.166  0.1809  0.0011  0.2095
  245PNCE   AM1 2197  13.446  12.958   8.537  0.0841 -0.0263 -0.0707
  245PNCE   AM2 2198  13.169  13.268   8.520 -0.1614  0.2204  0.3548
  245PNCE   T1A 2199  13.140  12.797   8.355  0.1888 -0.1253 -0.3519
  245PNCE   C2A 2200  12.843  12.536   8.232  0.1715 -0.0432 -0.2983
  245PNCE   C3A 2201  12.448  12.482   8.501  0.2049  0.1516  0.1289
  245PNCE   C1B 2202  13.154  13.367   8.093 -0.2272  0.3551 -0.0373
  245PNCE   C2B 2203  13.231  13.217   7.697  0.1350 -0.2587 -0.0979
  245PNCE   C3B 2204  13.278  13.159   7.292  0.2746 -0.2612  0.0943
  245PNCE   D4B 2205  13.562  12.925   7.074  0.1020 -0.1852 -0.1572
  245PNCE   C5B 2206  13.783  12.870   6.732 -0.0945 -0.2348 -0.0315
  245PNCE   C6B 2207  14.045  13.026   6.399 -0.1770 -0.2602 -0.0777
  246CHOL   ROH 2208   3.933   7.546   5.645 -0.1368  0.0419  0.1065
  246CHOL    R1 2209   4.063   7.545   5.897 -0.1936 -0.1304  0.1353
  246CHOL    R2 2210   4.089   7.316   6.049  0.1297 -0.3257 -0.2033
  246CHOL    R3 2211   4.353   7.381   6.044  0.0361  0.1016 -0.0470
  246CHOL    R4 2212   4.333   7.170   6.246  0.3191 -0.3216 -0.4292
  246CHOL    R5 2213   4.422   7.367   6.273  0.0112 -0.2139 -0.0512
  246CHOL    C1 2214   4.722   7.146   6.356  0.3416  0.0818 -0.4141
  246CHOL    C2 2215   4.899   6.800   6.469 -0.0513 -0.1046  0.0711
  247XCA    COO 2216  13.440  10.971   9.217 -0.0569  0.0613  0.3208
  247XCA     C1 2217  13.517  10.910   8.783 -0.0708  0.1028 -0.0147
  247XCA     C2 2218  13.811  10.628   8.434 -0.0310 -0.1735 -0.1248
  247XCA     C3 2219  14.040  10.550   8.079  0.3039 -0.1452  0.1637
  247XCA     C4 2220  14.271  10.223   8.003  0.1533  0.0064  0.1594
  247XCA     C5 2221  14.679  10.141   7.621  0.2137  0.0502  0.0771
  247XCA     C6 2222  15.070  10.117   7.302  0.1049  0.0841 -0.1676
  248CHOL   ROH 2223  13.398  14.504   4.841  0.0580  0.1821  0.1328
  248CHOL    R1 2224  13.503  14.441   5.096 -0.0348  0.0077  0.1287
  248CHOL    R2 2225  13.662  14.615   5.239  0.1268 -0.1908  0.1928
  248CHOL    R3 2226  13.477  14.574   5.434  0.0625 -0.0541  0.1616
  248CHOL    R4 2227  13.698  14.710   5.570  0.2219 -0.3731  0.2365
  248CHOL    R5 2228  13.605  14.522   5.629 -0.0085 -0.2927  0.1492
  248CHOL    C1 2229  13.544  14.727   5.944  0.2169 -0.3509  0.2327
  248CHOL    C2 2230  13.600  14.866   6.237 -0.1094 -0.0280 -0.0544
  249XCA    COO 2231   1.538  15.027   9.177  0.0327  0.1822  0.3146
  249XCA     C1 2232   1.295  14.727   8.932 -0.0069  0.2369 -0.3440
  249XCA     C2 2233   1.012  14.591   8.619 -0.0419  0.0885  0.1889
  249XCA     C3 2234   0.876  14.352   8.294 -0.0875 -0.0056  0.0884
  249XCA     C4 2235   0.792  14.147   7.913 -0.4197 -0.1207  0.1142
  249XCA     C5 2236   0.617  13.839   7.638  0.1441 -0.0329  0.1701
  249XCA     C6 2237   0.389  13.500   7.754  0.1661  0.0546 -0.1538
  250CHOL   ROH 2238  12.017   0.404   5.482  0.0910  0.0087 -0.2441
  250CHOL    R1 2239  11.986   0.164   5.629  0.1173  0.0290 -0.2047
  250CHOL    R2 2240  12.153  -0.053   5.596  0.1345  0.0375 -0.1772
  250CHOL    R3 2241  12.185  -0.030   5.865  0.1435  0.0832 -0.1822
  250CHOL    R4 2242  12.304  -0.289   5.798 -0.0850 -0.0442 -0.1057
  250CHOL    R5 2243  12.150  -0.252   5.948 -0.0593  0.1351 -0.1225
  250CHOL    C1 2244  12.422  -0.405   6.168 -0.2043 -0.0488 -0.0689
  250CHOL    C2 2245  12.496  -0.745   5.849 -0.0417 -0.1053  0.2875
  251XCA    COO 2246   0.322   7.512   5.584 -0.0463  0.1983  0.0819
  251XCA     C1 2247   0.491   7.482   5.969 -0.1978  0.2465 -0.0596
  251XCA     C2 2248   0.378   7.397   6.340  0.0444  0.1161 -0.1913
  251XCA     C3 2249   0.307   7.434   6.809  0.0271  0.0856  0.0947
  251XCA     C4 2250   0.006   7.330   7.148  0.1278 -0.2122  0.0483
  251XCA     C5 2251  -0.344   7.168   7.226 -0.0924  0.1522 -0.1323
  251XCA     C6 2252  -0.497   6.872   7.143  0.0972 -0.1480  0.0251
  252XCA    COO 2253   3.414   7.994   9.694  0.4552  0.1339 -0.0490
  252XCA     C1 2254   3.274   8.121   9.350 -0.0285  0.1560 -0.1605
  252XCA     C2 2255   3.024   8.072   9.057  0.1656  0.0623 -0.3198
  252XCA     C3 2256   3.021   8.173   8.700  0.0009  0.1904 -0.1900
  252XCA     C4 2257   3.034   7.985   8.357  0.0848 -0.0173  0.0991
  252XCA     C5 2258   3.120   7.900   7.922  0.0999  0.1589 -0.3301
  252XCA     C6 2259   3.390   8.077   7.678  0.0521  0.1118 -0.1812
  253PNCE   AM1 2260   0.237  11.891   9.343 -0.2335  0.3103  0.1819
  253PNCE   AM2 2261   0.402  12.201   9.390 -0.0323  0.3323 -0.2394
  253PNCE   T1A 2262   0.147  11.510   9.111  0.2987  0.1606  0.2704
  253PNCE   C2A 2263  -0.044  11.174   9.001  0.0589  0.2732 -0.0460
  253PNCE   C3A 2264  -0.238  10.871   8.758 -0.0837 -0.3161  0.1951
  253PNCE   C1B 2265   0.500  12.427   8.998  0.2043 -0.4967  0.0953
  253PNCE   C2B 2266   0.616  12.605   8.543  0.0969  0.1616  0.2405
  253PNCE   C3B 2267   0.631  12.409   8.072  0.4600 -0.1608 -0.2177
  253PNCE   D4B 2268   0.760  12.036   7.865  0.2985 -0.0941 -0.0290
  253PNCE   C5B 2269   0.814  11.694   8.086  0.0271  0.4587  0.1195
  253PNCE   C6B 2270   0.719  11.272   8.119 -0.1485 -0.2522 -0.1833
  254XCA    COO 2271   3.347  14.542   8.216 -0.0997  0.0613  0.0810
  254XCA     C1 2272   3.141  14.619   7.801  0.0277  0.2850  0.2243
  254XCA     C2 2273   3.150  14.762   7.416 -0.0062 -0.0917  0.3012
  254XCA     C3 2274   3.336  14.617   7.017 -0.1853 -0.1251  0.0157
  254XCA     C4 2275   3.472  14.383   6.707 -0.0497 -0.1023 -0.0296
  254XCA     C5 2276   3.171  14.110   6.417 -0.1255  0.0539  0.0682
  254XCA     C6 2277   2.732  14.002   6.392  0.2919  0.1284 -0.0166
  255CHOL   ROH 2278   0.165   3.146   8.919 -0.0314  0.1113  0.1833
  255CHOL    R1 2279   0.239   3.274   8.677 -0.0684  0.1215  0.1778
  255CHOL    R2 2280   0.092   3.480   8.567 -0.1188  0.0830  0.1778
  255CHOL    R3 2281   0.330   3.611   8.575 -0.1484  0.1397  0.1643
  255CHOL    R4 2282   0.227   3.660   8.305 -0.0886 -0.0443  0.1050
  255CHOL    R5 2283   0.423   3.578   8.356 -0.0831  0.0279  0.2067
  255CHOL    C1 2284   0.530   3.886   8.159 -0.0989 -0.0652  0.0501
  255CHOL    C2 2285   0.718   4.181   7.984  0.1050 -0.1993 -0.1429
  256PNCE   AM1 2286   3.837   3.327   9.123 -0.1716  0.0486  0.0992
  256PNCE   AM2 2287   3.965   3.136   9.032 -0.2858 -0.0158 -0.1803
  256PNCE   T1A 2288   4.087   3.593   9.301  0.1367 -0.0944  0.1128
  256PNCE   C2A 2289   4.258   4.034   9.214  0.2919  0.0742 -0.1182
  256PNCE   C3A 2290   4.574   4.196   9.079  0.1994  0.0879 -0.4609
  256PNCE   C1B 2291   4.064   3.259   8.623  0.2460  0.2676 -0.0834
  256PNCE   C2B 2292   4.266   3.357   8.201 -0.0236 -0.0546  0.1414
  256PNCE   C3B 2293   4.370   3.594   7.853 -0.2191 -0.0904  0.0095
  256PNCE   D4B 2294   4.201   3.588   7.431 -0.1089  0.2215  0.2099
  256PNCE   C5B 2295   4.370   3.684   7.108 -0.0799 -0.0259  0.5428
  256PNCE   C6B 2296   4.631   3.962   6.820  0.0228 -0.3588  0.0102
  257PNCE   AM1 2297   6.194  12.395   8.378 -0.2368 -0.0142  0.2230
  257PNCE   AM2 2298   6.366  12.499   8.048 -0.0896  0.0619 -0.3208
  257PNCE   T1A 2299   6.482  12.081   8.267  0.1787 -0.0808 -0.2986
  257PNCE   C2A 2300   6.447  11.590   8.149  0.0303  0.0512  0.1826
  257PNCE   C3A 2301   6.520  11.364   7.832  0.1932  0.1740 -0.0550
  257PNCE   C1B 2302   6.167  12.288   7.709 -0.0753  0.1607  0.1470
  257PNCE   C2B 2303   5.871  12.053   7.611 -0.2987  0.1519  0.0604
  257PNCE   C3B 2304   5.810  11.693   7.700 -0.1206 -0.3181 -0.1897
  257PNCE   D4B 2305   5.471  11.476   7.841 -0.0427 -0.2650  0.2947
  257PNCE   C5B 2306   5.343  10.987   7.657  0.1280 -0.4029  0.1206
  257PNCE   C6B 2307   5.327  10.654   7.674  0.1745 -0.1209  0.2257
  258PNCE   AM1 2308  10.994  13.030   8.677 -0.2148  0.2760 -0.0133
  258PNCE   AM2 2309  10.789  12.855   8.428 -0.1053 -0.3711 -0.0663
  258PNCE   T1A 2310  11.405  13.128   8.785 -0.0110  0.1133  0.0411
  258PNCE   C2A 2311  11.823  13.302   8.540 -0.0407 -0.1829  0.5645
  258PNCE   C3A 2312  11.915  13.718   8.460 -0.0492  0.0055  0.3702
  258PNCE   C1B 2313  10.927  12.683   8.091  0.0117 -0.0335  0.0708
  258PNCE   C2B 2314  10.876  12.692   7.625 -0.1866  0.1713  0.1215
  258PNCE   C3B 2315  10.741  12.780   7.214  0.0767  0.0240 -0.1888
  258PNCE   D4B 2316  10.430  12.758   6.885 -0.0872 -0.4679  0.1860
  258PNCE   C5B 2317  10.439  12.510   6.568  0.0129 -0.1047  0.0772
  258PNCE   C6B 2318  10.317  12.429   6.143 -0.4147 -0.1178 -0.2347
  259CHOL   ROH 2319  12.715  14.425   8.431  0.1314 -0.1810 -0.0098
  259CHOL    R1 2320  12.790  14.258   8.216 -0.0428 -0.0988 -0.1363
  259CHOL    R2 2321  12.630  14.221   7.993 -0.1543  0.1085 -0.0910
  259CHOL    R3 2322  12.854  14.298   7.860 -0.1697  0.0682 -0.1421
  259CHOL    R4 2323  12.740  14.085   7.695 -0.1860  0.0095 -0.0585
  259CHOL    R5 2324  12.944  14.095   7.771 -0.1764  0.0382 -0.0840
  259CHOL    C1 2325  13.013  14.078   7.396 -0.2190 -0.0859 -0.0876
  259CHOL    C2 2326  12.886  14.228   7.042 -0.0089 -0.0357 -0.0982
  260XCA    COO 2327   4.367  10.923   9.211  0.0680 -0.1531  0.1320
  260XCA     C1 2328   4.018  10.940   8.849 -0.0842  0.0524 -0.1095
  260XCA     C2 2329   3.650  10.946   8.834 -0.0118  0.1555  0.2337
  260XCA     C3 2330   3.281  11.021   8.488 -0.2595  0.2125 -0.2330
  260XCA     C4 2331   2.881  10.914   8.293 -0.2587  0.0177  0.3384
  260XCA     C5 2332   2.738  10.520   8.213 -0.2411 -0.2023 -0.0186
  260XCA     C6 2333   2.949  10.262   7.982  0.1650 -0.0278 -0.2035
  261PNCE   AM1 2334   3.699  12.219   8.967  0.2436  0.1143  0.0208
  261PNCE   AM2 2335   3.972  12.377   8.842 -0.1856 -0.1036  0.1576
  261PNCE   T1A 2336   3.597  11.844   8.675  0.0531  0.2091  0.2617
  261PNCE   C2A 2337   3.176  11.651   8.495  0.1300  0.1122  0.1981
  261PNCE   C3A 2338   2.921  11.725   8.120  0.0793 -0.1037  0.1664
  261PNCE   C1B 2339   3.987  12.367   8.430 -0.0165  0.1688  0.3102
  261PNCE   C2B 2340   3.754  12.389   7.995 -0.3938  0.0170 -0.0351
  261PNCE   C3B 2341   3.613  12.338   7.552 -0.1974 -0.0958 -0.0675
  261PNCE   D4B 2342   3.685  12.304   7.078  0.3303  0.4725  0.0376
  261PNCE   C5B 2343   4.125  12.483   6.942 -0.1607  0.1636  0.0548
  261PNCE   C6B 2344   4.473  12.288   6.910  0.1661  0.0964 -0.0402
  262CHOL   ROH 2345  12.049   7.772   5.855  0.0357 -0.0840 -0.0389
  262CHOL    R1 2346  11.925   7.536   5.950 -0.2106  0.0175 -0.1051
  262CHOL    R2 2347  11.958   7.444   6.209 -0.0795 -0.2312 -0.2136
  262CHOL    R3 2348  11.686   7.449   6.211 -0.0798  0.1549  0.0658
  262CHOL    R4 2349  11.757   7.212   6.368 -0.2322 -0.3177 -0.5219
  262CHOL    R5 2350  11.622   7.219   6.197 -0.4106  0.2545 -0.3892
  262CHOL    C1 2351  11.385   7.081   6.463 -0.3215 -0.0057 -0.4392
  262CHOL    C2 2352  11.527   6.750   6.591 -0.1425  0.1342 -0.2974
  263PNCE   AM1 2353   0.337   0.284   8.245 -0.0114  0.2581  0.1842
  263PNCE   AM2 2354   0.266   0.134   8.483  0.0178  0.0499  0.1410
  263PNCE   T1A 2355   0.335   0.295   7.796  0.1803  0.1645  0.1463
  263PNCE   C2A 2356   0.208   0.062   7.439  0.0656  0.0436 -0.1549
  263PNCE   C3A 2357   0.063  -0.216   7.225 -0.1396 -0.2200 -0.0030
  263PNCE   C1B 2358   0.231  -0.195   8.156 -0.1525  0.0959 -0.0609
  263PNCE   C2B 2359   0.288  -0.426   7.694  0.4918  0.1288  0.1907
  263PNCE   C3B 2360   0.436  -0.577   7.355 -0.0592 -0.0816 -0.2350
  263PNCE   D4B 2361   0.264  -0.719   6.947 -0.2448 -0.0454 -0.0165
  263PNCE   C5B 2362   0.323  -1.029   6.574  0.1372 -0.4855 -0.2112
  263PNCE   C6B 2363   0.110  -1.289   6.355 -0.1819  0.4309  0.0694
  264CHOL   ROH 2364   9.877   3.465   7.984  0.2007 -0.0507 -0.0302
  264CHOL    R1 2365   9.744   3.299   7.797  0.3639 -0.0618 -0.1389
  264CHOL    R2 2366   9.484   3.345   7.714  0.1550 -0.4963  0.2188
  264CHOL    R3 2367   9.597   3.337   7.467 -0.0799  0.1344  0.0745
  264CHOL    R4 2368   9.330   3.221   7.431  0.1208 -0.3757  0.1847
  264CHOL    R5 2369   9.520   3.131   7.373  0.2612  0.1111 -0.1661
  264CHOL    C1 2370   9.346   3.142   7.034 -0.1196  0.2866  0.0294
  264CHOL    C2 2371   9.260   2.839   6.930  0.0088  0.5433 -0.0039
  265XCA    COO 2372  10.027   6.944   8.926 -0.0534 -0.1635  0.0270
  265XCA     C1 2373  10.017   6.684   8.486 -0.0126  0.2202  0.3832
  265XCA     C2 2374  10.116   6.647   8.123  0.0670 -0.1465 -0.0814
  265XCA     C3 2375  10.565   6.670   7.968 -0.4644  0.2848  0.0355
  265XCA     C4 2376  10.836   6.586   7.584 -0.1464 -0.2306  0.2244
  265XCA     C5 2377  11.049   6.795   7.263 -0.1964  0.0037 -0.0030
  265XCA     C6 2378  10.797   7.053   7.093  0.0718  0.2704  0.0401
  266PNCE   AM1 2379   6.667  11.125   8.268 -0.1004  0.4131 -0.0238
  266PNCE   AM2 2380   6.994  11.143   8.493  0.3387 -0.1685 -0.0362
  266PNCE   T1A 2381   6.552  10.867   7.859 -0.1719 -0.4125  0.0070
  266PNCE   C2A 2382   6.635  10.484   7.630  0.0574  0.1380 -0.0666
  266PNCE   C3A 2383   6.884  10.374   7.363  0.0328  0.3683 -0.2055
  266PNCE   C1B 2384   7.042  10.800   8.185 -0.0358 -0.3624 -0.0286
  266PNCE   C2B 2385   7.178  10.543   7.823  0.1215 -0.0123  0.0106
  266PNCE   C3B 2386   7.323  10.200   7.635 -0.2915  0.2861 -0.1662
  266PNCE   D4B 2387   7.321   9.900   7.298 -0.1959  0.1153 -0.0052
  266PNCE   C5B 2388   6.966   9.553   7.380 -0.1026 -0.3012 -0.0484
  266PNCE   C6B 2389   6.879   9.183   7.238 -0.2021  0.1132  0.3322
  267PNCE   AM1 2390  11.857   7.151   8.985 -0.1899 -0.1679 -0.0444
  267PNCE   AM2 2391  11.999   6.831   9.046 -0.1570 -0.2177  0.1545
  267PNCE   T1A 2392  12.027   7.167   8.570  0.0430 -0.0070  0.2596
  267PNCE   C2A 2393  12.321   7.460   8.383 -0.1326  0.1770  0.0347
  267PNCE   C3A 2394  12.626   7.580   8.464  0.1857 -0.1709 -0.0735
  267PNCE   C1B 2395  12.352   6.926   8.866  0.2503  0.0701  0.1295
  267PNCE   C2B 2396  12.523   6.990   8.639 -0.2807  0.3395  0.1215
  267PNCE   C3B 2397  12.749   7.138   8.269  0.2612 -0.0161  0.3357
  267PNCE   D4B 2398  12.498   7.478   7.938 -0.3766  0.2297 -0.0383
  267PNCE   C5B 2399  12.359   7.240   7.482 -0.0976 -0.0888 -0.3802
  267PNCE   C6B 2400  12.109   7.239   7.158 -0.2987  0.0694  0.2113
  268CHOL   ROH 2401  11.947  10.369   6.439 -0.4792 -0.0602  0.0696
  268CHOL    R1 2402  12.009  10.562   6.636 -0.1000 -0.0657 -0.0327
  268CHOL    R2 2403  11.822  10.655   6.817  0.0971  0.3256 -0.0045
  268CHOL    R3 2404  12.008  10.578   7.000  0.0366  0.0916 -0.0405
  268CHOL    R4 2405  11.878  10.810   7.121  0.3587  0.2465 -0.0118
  268CHOL    R5 2406  12.092  10.783   7.090  0.3140 -0.0200 -0.0501
  268CHOL    C1 2407  12.086  10.829   7.468  0.4543 -0.0193 -0.0499
  268CHOL    C2 2408  11.948  10.986   7.765  0.0238  0.0654 -0.3786
  269XCA    COO 2409  15.717   2.218   4.002 -0.0891  0.0256 -0.0616
  269XCA     C1 2410  15.846   1.964   4.305 -0.0921  0.0353  0.2610
  269XCA     C2 2411  15.653   1.967   4.723  0.0636  0.1041  0.0312
  269XCA     C3 2412  15.619   1.792   5.141 -0.2434 -0.1535 -0.0242
  269XCA     C4 2413  15.491   1.714   5.630  0.1520 -0.0456 -0.0243
  269XCA     C5 2414  15.578   1.519   5.928 -0.2859  0.0089  0.1423
  269XCA     C6 2415  15.870   1.631   6.189 -0.2049  0.2453 -0.4393
  270CHOL   ROH 2416  10.637  12.620   4.574  0.1388  0.2769 -0.0388
  270CHOL    R1 2417  10.769  12.786   4.761  0.0559  0.2423  0.0504
  270CHOL    R2 2418  10.699  13.051   4.802 -0.0370  0.1981  0.1512
  270CHOL    R3 2419  10.679  12.971   5.061 -0.0468  0.0877  0.1178
  270CHOL    R4 2420  10.656  13.263   5.072  0.0885  0.1038  0.2471
  270CHOL    R5 2421  10.795  13.140   5.185  0.0475 -0.0161  0.1798
  270CHOL    C1 2422  10.613  13.312   5.472  0.1524 -0.0549  0.2715
  270CHOL    C2 2423  10.755  13.364   5.780 -0.1080  0.2648 -0.2620
  271XCA    COO 2424   5.140   5.707   8.877  0.1041  0.2189  0.1104
  271XCA     C1 2425   5.183   5.693   8.350 -0.0989  0.0251  0.1563
  271XCA     C2 2426   5.026   5.491   7.990 -0.2401 -0.1037 -0.4181
  271XCA     C3 2427   4.779   5.461   7.592 -0.0090  0.1126  0.1538
  271XCA     C4 2428   4.630   5.657   7.257  0.0511 -0.2193 -0.0337
  271XCA     C5 2429   4.347   5.941   7.181 -0.0155  0.1743  0.1017
  271XCA     C6 2430   4.258   6.301   7.000  0.0687 -0.0541 -0.2116
  272PNCE   AM1 2431  10.734   7.976   8.697  0.0042  0.1628 -0.1865
  272PNCE   AM2 2432  10.524   7.664   8.586  0.0781  0.0732 -0.0483
  272PNCE   T1A 2433  10.786   8.366   8.377  0.0854  0.0612  0.2132
  272PNCE   C2A 2434  10.990   8.748   8.287 -0.0439  0.2298  0.1954
  272PNCE   C3A 2435  10.989   9.159   8.329 -0.0494  0.1250 -0.1693
  272PNCE   C1B 2436  10.399   7.726   8.268  0.2794 -0.3253  0.0740
  272PNCE   C2B 2437  10.388   7.698   7.712  0.2067 -0.1775 -0.2980
  272PNCE   C3B 2438  10.593   8.028   7.413  0.1373 -0.0938  0.1774
  272PNCE   D4B 2439  10.846   8.308   7.272 -0.0133  0.0111  0.0900
  272PNCE   C5B 2440  10.772   8.718   7.316 -0.1019 -0.1933  0.2371
  272PNCE   C6B 2441  10.705   9.082   7.142 -0.3295  0.0854  0.1014
  273CHOL   ROH 2442   9.094  10.791   5.345 -0.2461  0.0665 -0.0559
  273CHOL    R1 2443   8.939  10.587   5.467  0.0237 -0.0551  0.0921
  273CHOL    R2 2444   9.032  10.437   5.680  0.2118  0.2474  0.2323
  273CHOL    R3 2445   8.801  10.521   5.797  0.0753  0.0255  0.1290
  273CHOL    R4 2446   8.888  10.294   5.960  0.2625  0.1662  0.2172
  273CHOL    R5 2447   8.693  10.320   5.867  0.2680 -0.0726  0.1424
  273CHOL    C1 2448   8.588  10.290   6.233  0.1637 -0.0896  0.1114
  273CHOL    C2 2449   8.708  10.162   6.532 -0.0331  0.2558 -0.0773
  274CHOL   ROH 2450   8.044   1.454   4.254  0.1970 -0.0379 -0.2485
  274CHOL    R1 2451   8.163   1.402   4.506 -0.0181  0.0181 -0.1333
  274CHOL    R2 2452   8.427   1.328   4.533 -0.0832 -0.1381  0.0977
  274CHOL    R3 2453   8.436   1.540   4.703 -0.0709 -0.0532 -0.0083
  274CHOL    R4 2454   8.638   1.355   4.806 -0.0296  0.0176  0.0419
  274CHOL    R5 2455   8.473   1.443   4.918 -0.0164  0.0558  0.0327
  274CHOL    C1 2456   8.769   1.570   5.124  0.0133  0.1881 -0.0901
  274CHOL    C2 2457   8.804   1.632   5.582 -0.1765  0.0238 -0.2330
  275CHOL   ROH 2458   4.764   3.354   4.625 -0.1377  0.0248 -0.0073
  275CHOL    R1 2459   4.618   3.369   4.867 -0.0213 -0.0256  0.0660
  275CHOL    R2 2460   4.455   3.164   4.956 -0.1541  0.0481 -0.0160
  275CHOL    R3 2461   4.607   3.186   5.181 -0.0421 -0.2424 -0.0583
  275CHOL    R4 2462   4.363   3.048   5.268 -0.1711 -0.0256 -0.0474
  275CHOL    R5 2463   4.448   3.229   5.355  0.0641 -0.1614  0.0238
  275CHOL    C1 2464   4.451   3.001   5.661 -0.0758 -0.3412 -0.1054
  275CHOL    C2 2465   4.106   2.854   5.742  0.0414 -0.1700  0.3823
  276PNCE   AM1 2466  11.367  14.401   9.155  0.2019  0.1674 -0.1178
  276PNCE   AM2 2467  11.550  14.552   8.933  0.2009  0.0586  0.0609
  276PNCE   T1A 2468  11.327  14.032   8.868  0.1560  0.1928  0.0811
  276PNCE   C2A 2469  11.223  14.006   8.474 -0.1954  0.1643  0.2772
  276PNCE   C3A 2470  11.025  13.761   8.152  0.1917  0.2786  0.0413
  276PNCE   C1B 2471  11.576  14.671   8.468  0.0572 -0.0153 -0.1324
  276PNCE   C2B 2472  11.611  14.417   8.032 -0.1847 -0.0352 -0.2316
  276PNCE   C3B 2473  11.256  14.305   7.903  0.1128  0.2693 -0.1367
  276PNCE   D4B 2474  11.017  14.056   7.517  0.0484  0.3852 -0.0600
  276PNCE   C5B 2475  10.646  14.082   7.494 -0.1141  0.1021 -0.0341
  276PNCE   C6B 2476  10.337  14.142   7.213  0.0331 -0.1896  0.1147
  277PNCE   AM1 2477   2.950  15.768   7.962 -0.4723  0.0888  0.0387
  277PNCE   AM2 2478   3.258  15.759   7.777  0.1197  0.1101 -0.0238
  277PNCE   T1A 2479   2.583  15.570   7.972 -0.0575  0.1001 -0.0538
  277PNCE   C2A 2480   2.337  15.170   7.936 -0.3618 -0.0884 -0.0038
  277PNCE   C3A 2481   2.234  14.713   7.848 -0.3361 -0.1677  0.0884
  277PNCE   C1B 2482   3.424  15.550   7.425  0.1691 -0.0948 -0.2206
  277PNCE   C2B 2483   3.244  15.646   7.036 -0.2135  0.0065 -0.2975
  277PNCE   C3B 2484   3.219  15.677   6.594 -0.1305 -0.0778 -0.2418
  277PNCE   D4B 2485   3.198  15.663   6.169 -0.0802  0.1122  0.0901
  277PNCE   C5B 2486   3.093  15.974   5.904 -0.0230 -0.0399 -0.0251
  277PNCE   C6B 2487   2.686  15.870   5.558 -0.0255 -0.1001 -0.0026
  278PNCE   AM1 2488   4.725  12.132   9.308  0.2042 -0.0075  0.2374
  278PNCE   AM2 2489   5.014  11.947   9.467 -0.0961  0.0612 -0.0546
  278PNCE   T1A 2490   4.784  11.998   8.908 -0.0818  0.2328  0.2049
  278PNCE   C2A 2491   4.806  12.000   8.464 -0.1992 -0.2099 -0.0304
  278PNCE   C3A 2492   4.997  11.866   8.040  0.1821 -0.1466  0.0246
  278PNCE   C1B 2493   4.773  11.611   9.236 -0.2291 -0.1947 -0.0801
  278PNCE   C2B 2494   4.510  11.381   8.972  0.2211 -0.2841 -0.0035
  278PNCE   C3B 2495   4.534  10.957   8.751  0.1969 -0.1658  0.1170
  278PNCE   D4B 2496   4.510  10.763   8.395  0.1360  0.0893 -0.1471
  278PNCE   C5B 2497   4.072  10.783   8.378  0.0071  0.1844 -0.0693
  278PNCE   C6B 2498   3.842  10.976   8.075  0.1097 -0.2056  0.0654
  279CHOL   ROH 2499   5.514  14.534   5.796 -0.0017 -0.2110 -0.1682
  279CHOL    R1 2500   5.498  14.252   5.781  0.2015 -0.2248 -0.1544
  279CHOL    R2 2501   5.721  14.089   5.789  0.2997 -0.0794  0.1633
  279CHOL    R3 2502   5.587  13.970   5.993  0.1041 -0.1394  0.0031
  279CHOL    R4 2503   5.820  13.797   5.945  0.3007  0.0154  0.3425
  279CHOL    R5 2504   5.611  13.735   5.950  0.3314 -0.1323  0.0677
  279CHOL    C1 2505   5.751  13.515   6.228  0.1177  0.0143  0.2965
  279CHOL    C2 2506   5.825  13.234   6.295 -0.0578  0.3357 -0.4143
  280PNCE   AM1 2507   5.038   6.394   8.737 -0.2482 -0.0440  0.0714
  280PNCE   AM2 2508   4.919   6.125   8.621 -0.1689  0.0400 -0.1405
  280PNCE   T1A 2509   5.304   6.572   8.298  0.0006 -0.0398 -0.1428
  280PNCE   C2A 2510   5.248   6.768   7.968  0.1920  0.0086  0.1367
  280PNCE   C3A 2511   5.348   7.104   7.748  0.3208 -0.0678  0.1535
  280PNCE   C1B 2512   4.881   6.044   8.127  0.3651 -0.1025  0.3765
  280PNCE   C2B 2513   4.753   6.019   7.684 -0.2239  0.0968  0.0989
  280PNCE   C3B 2514   4.694   6.277   7.290  0.4046 -0.0592  0.2259
  280PNCE   D4B 2515   4.791   6.565   6.978 -0.0099 -0.0176 -0.0062
  280PNCE   C5B 2516   4.502   6.486   6.654  0.4695 -0.2305 -0.1984
  280PNCE   C6B 2517   4.512   6.712   6.222  0.0981  0.1117  0.0195
  281XCA    COO 2518   4.148   0.366   7.328  0.2591  0.1128  0.2314
  281XCA     C1 2519   4.134   0.610   6.897  0.2089 -0.2944  0.0740
  281XCA     C2 2520   3.901   0.831   6.682 -0.1523 -0.0382 -0.0263
  281XCA     C3 2521   3.720   0.966   6.273 -0.2226 -0.0243  0.5125
  281XCA     C4 2522   3.692   1.096   5.868  0.1809  0.0792 -0.2220
  281XCA     C5 2523   3.822   0.910   5.520 -0.4068  0.1811  0.0918
  281XCA     C6 2524   3.766   0.722   5.096 -0.1255 -0.1465  0.0625
  282CHOL   ROH 2525   1.567   9.063   6.246 -0.0956  0.0653 -0.0776
  282CHOL    R1 2526   1.599   9.110   6.524 -0.0219 -0.0796 -0.0601
  282CHOL    R2 2527   1.384   9.150   6.693  0.0310  0.0619 -0.0219
  282CHOL    R3 2528   1.498   8.946   6.832 -0.1537 -0.1103 -0.1195
  282CHOL    R4 2529   1.345   9.096   7.032  0.3252  0.1876  0.0345
  282CHOL    R5 2530   1.556   9.043   7.043  0.2536 -0.1697 -0.1985
  282CHOL    C1 2531   1.429   8.874   7.361  0.3232  0.0994 -0.0244
  282CHOL    C2 2532   1.275   9.190   7.511 -0.0818  0.2120  0.0840
  283CHOL   ROH 2533  13.893   5.017   5.618 -0.1885 -0.2040 -0.0138
  283CHOL    R1 2534  14.011   4.896   5.845 -0.0520 -0.0499 -0.0025
  283CHOL    R2 2535  13.907   4.923   6.099  0.0242  0.0070  0.0154
  283CHOL    R3 2536  13.913   4.651   6.096  0.1571  0.0059  0.1399
  283CHOL    R4 2537  13.808   4.720   6.361  0.0342  0.0898  0.0849
  283CHOL    R5 2538  13.979   4.590   6.318  0.1180  0.1465  0.1973
  283CHOL    C1 2539  13.756   4.347   6.510  0.1648  0.1369  0.2423
  283CHOL    C2 2540  13.744   4.465   6.843  0.1760  0.1942 -0.1238
  284CHOL   ROH 2541  11.778   8.103   6.470 -0.0487  0.1086  0.1077
  284CHOL    R1 2542  11.806   7.900   6.665 -0.3295  0.0596  0.1035
  284CHOL    R2 2543  11.639   7.681   6.678 -0.1928 -0.0889 -0.3665
  284CHOL    R3 2544  11.872   7.542   6.667 -0.0393  0.1114  0.1076
  284CHOL    R4 2545  11.667   7.339   6.720 -0.0238 -0.1033 -0.5796
  284CHOL    R5 2546  11.849   7.373   6.836 -0.3346 -0.0442 -0.0834
  284CHOL    C1 2547  11.902   7.009   6.735  0.2188  0.0762 -0.2585
  284CHOL    C2 2548  11.974   6.700   7.087 -0.1470  0.0247  0.0409
  285PNCE   AM1 2549   3.150  10.030   9.542  0.0285  0.0317  0.0508
  285PNCE   AM2 2550   2.825  10.309   9.564  0.0312 -0.0828  0.1977
  285PNCE   T1A 2551   3.357  10.074   9.136  0.2361 -0.0778  0.0081
  285PNCE   C2A 2552   3.297  10.335   8.792 -0.0412 -0.0779 -0.1413
  285PNCE   C3A 2553   3.174  10.354   8.385 -0.2255  0.1991  0.1668
  285PNCE   C1B 2554   2.611  10.615   9.276 -0.3106 -0.0759 -0.0255
  285PNCE   C2B 2555   2.208  10.755   8.964 -0.1319 -0.0994  0.1590
  285PNCE   C3B 2556   1.855  11.008   8.694  0.3050 -0.3709  0.0009
  285PNCE   D4B 2557   1.670  11.225   8.239 -0.1727  0.0581 -0.2927
  285PNCE   C5B 2558   1.587  11.703   8.277  0.2416 -0.0484 -0.0896
  285PNCE   C6B 2559   1.811  12.014   8.068 -0.2732  0.0610 -0.0198
  286CHOL   ROH 2560   0.288   6.997   6.957 -0.0753  0.0249  0.1634
  286CHOL    R1 2561   0.355   6.727   7.008  0.0680  0.0610  0.1680
  286CHOL    R2 2562   0.567   6.654   7.170 -0.0408  0.1774  0.3670
  286CHOL    R3 2563   0.377   6.510   7.300 -0.0722  0.0107  0.1412
  286CHOL    R4 2564   0.623   6.357   7.337 -0.0235  0.1228  0.2648
  286CHOL    R5 2565   0.435   6.282   7.257  0.0807  0.0620  0.0747
  286CHOL    C1 2566   0.476   6.048   7.555 -0.0430 -0.0655 -0.0067
  286CHOL    C2 2567   0.652   5.690   7.656 -0.4356  0.1251 -0.3623
  287PNCE   AM1 2568   5.971   3.565   9.290  0.1877 -0.0551  0.2568
  287PNCE   AM2 2569   5.888   3.326   9.021  0.1944 -0.1718  0.2153
  287PNCE   T1A 2570   5.970   3.785   8.846  0.0201  0.3890  0.0246
  287PNCE   C2A 2571   5.646   3.948   8.548 -0.0664 -0.1630 -0.3909
  287PNCE   C3A 2572   5.543   4.344   8.573  0.1706  0.1604  0.2126
  287PNCE   C1B 2573   5.898   3.373   8.526  0.0989 -0.2301  0.0149
  287PNCE   C2B 2574   5.633   3.558   8.231  0.0488  0.0879  0.1321
  287PNCE   C3B 2575   5.463   3.920   8.055  0.1452 -0.2682  0.0397
  287PNCE   D4B 2576   5.415   4.301   7.992  0.4251  0.0280 -0.0059
  287PNCE   C5B 2577   5.119   4.704   7.769  0.1058  0.1725 -0.0152
  287PNCE   C6B 2578   5.198   5.161   7.666 -0.1631 -0.2496 -0.1313
  288XCA    COO 2579  15.265   0.078   8.374  0.0601  0.3521  0.0823
  288XCA     C1 2580  15.099  -0.290   8.081  0.1107 -0.0417 -0.1981
  288XCA     C2 2581  15.147  -0.568   7.710  0.1514 -0.1443  0.0337
  288XCA     C3 2582  15.148  -0.732   7.257 -0.2816 -0.0199  0.0212
  288XCA     C4 2583  15.014  -1.010   6.951  0.0682  0.1017  0.2134
  288XCA     C5 2584  15.219  -0.987   6.594  0.1589 -0.0402 -0.1949
  288XCA     C6 2585  15.617  -0.940   6.372  0.1157  0.2562 -0.1616
  289CHOL   ROH 2586  10.277   1.429   6.496 -0.0220 -0.1415 -0.0627
  289CHOL    R1 2587  10.153   1.513   6.256  0.0197 -0.0467 -0.0518
  289CHOL    R2 2588  10.297   1.596   6.035  0.0605 -0.0037 -0.0130
  289CHOL    R3 2589  10.150   1.407   5.908  0.0420  0.0585 -0.0838
  289CHOL    R4 2590  10.197   1.612   5.705  0.0350  0.1384  0.0014
  289CHOL    R5 2591  10.004   1.531   5.765  0.0381  0.1237 -0.0202
  289CHOL    C1 2592  10.001   1.443   5.393  0.0029  0.2795 -0.0566
  289CHOL    C2 2593  10.088   1.177   5.149  0.2535 -0.1394 -0.3802
  290PNCE   AM1 2594  13.904  15.428   8.485 -0.3003  0.1669 -0.0631
  290PNCE   AM2 2595  13.842  15.156   8.634 -0.3490  0.2497 -0.0092
  290PNCE   T1A 2596  14.049  15.242   8.043  0.0479 -0.3205 -0.1067
  290PNCE   C2A 2597  14.256  14.973   7.800 -0.2349 -0.0422  0.0186
  290PNCE   C3A 2598  14.690  14.956   7.663  0.0804  0.1469 -0.3584
  290PNCE   C1B 2599  14.251  15.077   8.485  0.0842  0.3056  0.0853
  290PNCE   C2B 2600  14.593  14.930   8.231  0.0018 -0.4200  0.0016
  290PNCE   C3B 2601  14.909  15.042   8.084 -0.2045  0.0989 -0.2123
  290PNCE   D4B 2602  15.224  14.830   7.804  0.0268  0.0306  0.3352
  290PNCE   C5B 2603  14.931  14.621   7.407  0.0600  0.1147  0.2001
  290PNCE   C6B 2604  14.836  14.319   6.989 -0.0257  0.2242 -0.0177
  291XCA    COO 2605   4.359  15.178   7.310 -0.0169  0.0546 -0.0292
  291XCA     C1 2606   4.122  15.272   6.928  0.0378  0.1730  0.2014
  291XCA     C2 2607   4.026  15.066   6.627 -0.2161  0.2412  0.3132
  291XCA     C3 2608   4.242  14.859   6.234  0.2787 -0.3698  0.0020
  291XCA     C4 2609   4.362  14.965   5.702  0.1184  0.1959 -0.2632
  291XCA     C5 2610   4.446  14.930   5.353  0.0896 -0.1169  0.3399
  291XCA     C6 2611   4.445  15.137   5.047 -0.1146 -0.1658 -0.3075
  292CHOL   ROH 2612   3.591   5.157   5.359  0.3304  0.0442  0.0433
  292CHOL    R1 2613   3.668   5.173   5.631 -0.0333  0.0904  0.1505
  292CHOL    R2 2614   3.511   5.074   5.836 -0.1178 -0.2808 -0.0724
  292CHOL    R3 2615   3.737   4.937   5.900  0.0666  0.1115  0.1407
  292CHOL    R4 2616   3.544   4.863   6.107 -0.0712 -0.3927 -0.1665
  292CHOL    R5 2617   3.744   4.943   6.139 -0.2634 -0.0259  0.1535
  292CHOL    C1 2618   3.776   4.612   6.326  0.1289 -0.0897 -0.0212
  292CHOL    C2 2619   3.790   4.447   6.764 -0.0708  0.2709  0.2080
  293CHOL   ROH 2620   0.096   7.856   6.372 -0.0149  0.0869  0.0531
  293CHOL    R1 2621  -0.006   7.735   6.607  0.0138  0.0076  0.0247
  293CHOL    R2 2622  -0.145   7.877   6.799  0.0531 -0.0543  0.0971
  293CHOL    R3 2623  -0.334   7.686   6.758  0.0341 -0.0277  0.0582
  293CHOL    R4 2624  -0.402   7.804   7.017 -0.0475  0.0369  0.0106
  293CHOL    R5 2625  -0.371   7.592   6.975 -0.0690  0.0214  0.0634
  293CHOL    C1 2626  -0.730   7.582   7.106 -0.1240  0.1150 -0.0762
  293CHOL    C2 2627  -0.926   7.166   7.176  0.0055  0.0473 -0.2904
  294PNCE   AM1 2628  13.177   1.082   8.182 -0.1718 -0.0502  0.3153
  294PNCE   AM2 2629  13.285   0.874   8.235 -0.2286 -0.2868  0.0590
  294PNCE   T1A 2630  13.117   1.188   7.746 -0.1598  0.1839  0.5283
  294PNCE   C2A 2631  13.283   1.400   7.362 -0.0499  0.0649  0.2023
  294PNCE   C3A 2632  13.544   1.464   6.974  0.0476  0.0259 -0.0159
  294PNCE   C1B 2633  13.508   0.850   7.792 -0.2466  0.0204 -0.1543
  294PNCE   C2B 2634  13.602   0.773   7.359 -0.0621  0.0950  0.1684
  294PNCE   C3B 2635  13.462   0.566   6.953 -0.0680 -0.0178 -0.0862
  294PNCE   D4B 2636  13.285   0.353   6.557  0.0324 -0.1688 -0.0774
  294PNCE   C5B 2637  13.598   0.420   6.228 -0.1226  0.0199  0.2402
  294PNCE   C6B 2638  13.445   0.862   6.113  0.3212 -0.1826  0.1204
  295CHOL   ROH 2639   4.943  10.631   8.665 -0.1245 -0.0005  0.3559
  295CHOL    R1 2640   4.735  10.440   8.633 -0.2108  0.1504 -0.0362
  295CHOL    R2 2641   4.653  10.351   8.385  0.2489  0.1546 -0.1997
  295CHOL    R3 2642   4.703  10.106   8.492 -0.1652  0.1390 -0.0212
  295CHOL    R4 2643   4.597  10.051   8.224  0.2802  0.1562 -0.2135
  295CHOL    R5 2644   4.523   9.969   8.413 -0.1482  0.2763 -0.3152
  295CHOL    C1 2645   4.612   9.646   8.231 -0.0903  0.1424 -0.0539
  295CHOL    C2 2646   4.899   9.430   8.023  0.1609  0.2225  0.2653
  296PNCE   AM1 2647  11.679   5.036   8.707  0.2185 -0.2994  0.0948
  296PNCE   AM2 2648  11.665   5.243   8.427  0.0702  0.2019 -0.1917
  296PNCE   T1A 2649  12.047   4.837   8.448 -0.2570  0.2903 -0.0124
  296PNCE   C2A 2650  12.313   4.842   8.073 -0.2519  0.0778  0.1757
  296PNCE   C3A 2651  12.696   4.727   7.831 -0.0992 -0.2430 -0.0788
  296PNCE   C1B 2652  12.077   5.360   8.127 -0.2355  0.0157  0.0605
  296PNCE   C2B 2653  12.088   5.542   7.698 -0.0811 -0.0974  0.0181
  296PNCE   C3B 2654  11.921   5.784   7.320  0.0213  0.2167  0.1661
  296PNCE   D4B 2655  11.681   5.785   7.035 -0.0898  0.0205  0.0663
  296PNCE   C5B 2656  11.365   6.119   7.071  0.0951 -0.0248 -0.0054
  296PNCE   C6B 2657  11.497   6.524   7.049  0.4214  0.1227 -0.0464
  297XCA    COO 2658   2.948   8.527   5.680 -0.2307  0.2116  0.1336
  297XCA     C1 2659   3.060   8.485   6.140 -0.4584 -0.1912 -0.2581
  297XCA     C2 2660   2.884   8.677   6.601 -0.1125  0.2774  0.0847
  297XCA     C3 2661   3.091   8.580   7.031 -0.2899  0.0680  0.0237
  297XCA     C4 2662   3.434   8.526   7.400 -0.0700  0.0068  0.0980
  297XCA     C5 2663   3.840   8.555   7.530  0.1521  0.1209 -0.1841
  297XCA     C6 2664   4.175   8.430   7.226  0.0278 -0.1114  0.1105
  298CHOL   ROH 2665   2.740   9.895   9.401 -0.1547 -0.0271 -0.0217
  298CHOL    R1 2666   2.681   9.918   9.125 -0.1572  0.0358 -0.0161
  298CHOL    R2 2667   2.836   9.798   8.929 -0.1380  0.1112 -0.0466
  298CHOL    R3 2668   2.598   9.690   8.853 -0.1208  0.0939 -0.0761
  298CHOL    R4 2669   2.800   9.536   8.707 -0.0830  0.0135  0.0585
  298CHOL    R5 2670   2.628   9.639   8.621 -0.0482 -0.0122 -0.0441
  298CHOL    C1 2671   2.556   9.282   8.506 -0.0349 -0.0597  0.0920
  298CHOL    C2 2672   2.601   9.032   8.216 -0.2457 -0.3206 -0.1520
  299PNCE   AM1 2673  10.852  14.946   8.884  0.0455 -0.2730 -0.0785
  299PNCE   AM2 2674  11.018  14.686   8.841 -0.0439 -0.2174  0.1489
  299PNCE   T1A 2675  10.804  14.917   8.441 -0.1025 -0.1309  0.1630
  299PNCE   C2A 2676  10.842  15.030   7.938 -0.2102  0.2178  0.0090
  299PNCE   C3A 2677  11.071  15.021   7.442 -0.0328  0.2413 -0.1983
  299PNCE   C1B 2678  11.027  14.432   8.394  0.1602 -0.1915  0.0509
  299PNCE   C2B 2679  10.820  14.530   8.069  0.1104 -0.1302  0.4825
  299PNCE   C3B 2680  10.853  14.539   7.668 -0.0567 -0.1592  0.0355
  299PNCE   D4B 2681  10.780  14.538   7.165 -0.0439  0.0394  0.3312
  299PNCE   C5B 2682  10.899  14.248   7.057  0.0803  0.1094 -0.1001
  299PNCE   C6B 2683  11.146  13.901   6.892 -0.1328  0.0815  0.1587
  300XCA    COO 2684   9.397   6.662   6.774 -0.1980  0.0242 -0.1501
  300XCA     C1 2685   9.293   6.643   6.284 -0.4784 -0.0446  0.4058
  300XCA     C2 2686   8.876   6.506   6.215 -0.0979  0.0091  0.2536
  300XCA     C3 2687   8.507   6.448   6.022  0.1888 -0.1108  0.0825
  300XCA     C4 2688   8.094   6.352   5.937 -0.3421  0.2770  0.1131
  300XCA     C5 2689   7.671   6.588   6.165 -0.2347  0.3730 -0.1908
  300XCA     C6 2690   7.344   6.469   6.456 -0.3840 -0.1212  0.0134
  301CHOL   ROH 2691   2.146   0.217   7.722  0.0100  0.1024  0.0088
  301CHOL    R1 2692   2.172   0.036   7.506  0.1607 -0.0041  0.1098
  301CHOL    R2 2693   2.021   0.058   7.275 -0.0371 -0.3970  0.1752
  301CHOL    R3 2694   2.265   0.056   7.154 -0.0994 -0.0701  0.0404
  301CHOL    R4 2695   2.084  -0.074   6.962  0.0057 -0.3428  0.1630
  301CHOL    R5 2696   2.272  -0.154   7.039  0.1516 -0.0629  0.0644
  301CHOL    C1 2697   2.349  -0.152   6.665 -0.0279 -0.0043  0.0293
  301CHOL    C2 2698   2.284   0.118   6.383  0.0472  0.2540  0.1210
  302CHOL   ROH 2699   4.754  11.983   5.216 -0.0430  0.3495  0.0319
  302CHOL    R1 2700   4.912  12.026   5.447  0.0573  0.3057 -0.0288
  302CHOL    R2 2701   4.979  12.278   5.537 -0.0795  0.2933  0.1066
  302CHOL    R3 2702   4.871  12.188   5.770  0.1195  0.0507  0.1099
  302CHOL    R4 2703   5.052  12.404   5.851 -0.2577  0.3726  0.1185
  302CHOL    R5 2704   5.051  12.200   5.928  0.1279  0.3504  0.0823
  302CHOL    C1 2705   4.994  12.393   6.252 -0.1747  0.1910  0.1286
  302CHOL    C2 2706   5.017  12.118   6.538 -0.2401  0.2451  0.1717
  303XCA    COO 2707  10.919   1.051   8.682  0.2085 -0.0992  0.4191
  303XCA     C1 2708  11.085   0.949   8.215  0.3271 -0.2280 -0.0193
  303XCA     C2 2709  11.164   1.067   7.738 -0.0654  0.2426 -0.0810
  303XCA     C3 2710  11.093   1.189   7.209 -0.2375 -0.0180  0.2254
  303XCA     C4 2711  11.103   0.887   6.909  0.1381  0.0676  0.0167
  303XCA     C5 2712  11.239   0.423   6.573 -0.0829  0.2033 -0.0876
  303XCA     C6 2713  11.531   0.118   6.634  0.1787 -0.1090 -0.5003
  304PNCE   AM1 2714  13.677   8.681   9.643 -0.1283  0.0667 -0.3776
  304PNCE   AM2 2715  13.611   8.274   9.723 -0.1569 -0.2124 -0.0821
  304PNCE   T1A 2716  13.953   8.619   9.372 -0.0572  0.1251 -0.1177
  304PNCE   C2A 2717  14.318   8.887   9.262 -0.0960 -0.0335  0.2582
  304PNCE   C3A 2718  14.110   9.194   9.099  0.1390  0.0478  0.1373
  304PNCE   C1B 2719  14.050   8.169   9.598 -0.1433 -0.2051  0.3525
  304PNCE   C2B 2720  14.306   8.349   9.282 -0.1914  0.0636  0.0858
  304PNCE   C3B 2721  14.494   8.370   8.884  0.1438 -0.1181  0.2964
  304PNCE   D4B 2722  14.750   8.414   8.514 -0.1503  0.0416  0.1631
  304PNCE   C5B 2723  14.869   8.363   8.075 -0.0653  0.0104  0.0437
  304PNCE   C6B 2724  15.062   8.020   7.920 -0.4399  0.0906  0.1581
  305CHOL   ROH 2725  15.178   0.505   4.461 -0.0835 -0.0998 -0.1394
  305CHOL    R1 2726  15.242   0.533   4.735 -0.0709 -0.0638 -0.1458
  305CHOL    R2 2727  15.431   0.713   4.826 -0.0257 -0.0912 -0.1828
  305CHOL    R3 2728  15.227   0.799   4.984 -0.0027 -0.0135 -0.1953
  305CHOL    R4 2729  15.457   0.782   5.164  0.0201  0.0687 -0.2184
  305CHOL    R5 2730  15.263   0.689   5.193  0.0233  0.0856 -0.1478
  305CHOL    C1 2731  15.281   0.903   5.508  0.0684  0.2346 -0.2509
  305CHOL    C2 2732  15.396   1.041   5.878 -0.0355  0.2107  0.1044
  306CHOL   ROH 2733   1.965   2.075   7.561  0.1900 -0.1875  0.0402
  306CHOL    R1 2734   1.749   2.018   7.387  0.1141  0.0631  0.0473
  306CHOL    R2 2735   1.688   2.177   7.169  0.3917  0.0485 -0.0505
  306CHOL    R3 2736   1.707   1.942   7.034  0.0357 -0.0627  0.0838
  306CHOL    R4 2737   1.599   2.132   6.838  0.1453 -0.0586  0.0293
  306CHOL    R5 2738   1.514   1.939   6.892 -0.0515  0.0743  0.2003
  306CHOL    C1 2739   1.566   1.886   6.518 -0.3325 -0.2254  0.2019
  306CHOL    C2 2740   1.713   1.683   6.311  0.3255  0.2001  0.0960
  307CHOL   ROH 2741   5.342  10.504   6.902 -0.1061 -0.0253 -0.0121
  307CHOL    R1 2742   5.280  10.438   7.170 -0.0335 -0.1019 -0.0143
  307CHOL    R2 2743   5.082  10.566   7.313  0.0899 -0.0586  0.1155
  307CHOL    R3 2744   4.990  10.313   7.351 -0.0256 -0.0272  0.0520
  307CHOL    R4 2745   4.865  10.470   7.565  0.3065 -0.0778  0.2979
  307CHOL    R5 2746   4.982  10.288   7.589  0.2243 -0.1709  0.0509
  307CHOL    C1 2747   4.653  10.177   7.747  0.3242 -0.0594  0.3446
  307CHOL    C2 2748   4.338  10.081   7.839 -0.0802 -0.0281 -0.2760
  308XCA    COO 2749   5.759   9.380   4.977  0.1052 -0.1198 -0.0950
  308XCA     C1 2750   5.677   9.198   5.415 -0.0845  0.0051 -0.1258
  308XCA     C2 2751   5.734   9.121   5.841  0.0026  0.1364 -0.0043
  308XCA     C3 2752   5.935   9.393   6.017  0.1242  0.4113  0.0492
  308XCA     C4 2753   5.928   9.572   6.447 -0.0317 -0.2077 -0.1592
  308XCA     C5 2754   6.311   9.517   6.801  0.0869  0.1777 -0.2543
  308XCA     C6 2755   6.783   9.548   6.873 -0.2465  0.4446  0.2913
  309CHOL   ROH 2756   8.901   9.345   7.143 -0.0080 -0.0611  0.1588
  309CHOL    R1 2757   9.116   9.162   7.159  0.2346  0.1987 -0.0327
  309CHOL    R2 2758   9.086   8.892   7.107  0.3741  0.0603  0.5466
  309CHOL    R3 2759   9.288   8.936   6.931 -0.1002 -0.0380 -0.0614
  309CHOL    R4 2760   9.298   8.648   6.986  0.4112  0.0710  0.5897
  309CHOL    R5 2761   9.463   8.789   7.005  0.2870  0.3618 -0.1296
  309CHOL    C1 2762   9.612   8.547   6.751 -0.0124 -0.0152  0.0441
  309CHOL    C2 2763   9.989   8.411   6.716 -0.1094 -0.1120 -0.0008
  310CHOL   ROH 2764   5.516   8.554   6.666  0.0327 -0.1441 -0.0061
  310CHOL    R1 2765   5.267   8.645   6.764  0.0578 -0.0341 -0.0438
  310CHOL    R2 2766   5.076   8.474   6.868  0.0062  0.0608  0.0164
  310CHOL    R3 2767   5.090   8.641   7.082  0.0502  0.1365 -0.0447
  310CHOL    R4 2768   4.831   8.506   7.110  0.1442 -0.0099  0.1680
  310CHOL    R5 2769   4.867   8.722   7.110  0.0182  0.0127  0.0764
  310CHOL    C1 2770   4.702   8.682   7.451  0.2657  0.0199  0.1990
  310CHOL    C2 2771   4.452   8.593   7.655 -0.0117 -0.3172  0.0535
  311XCA    COO 2772  15.827  14.619   8.497  0.0035 -0.2080  0.0915
  311XCA     C1 2773  15.806  14.707   8.147  0.0949  0.0562  0.0838
  311XCA     C2 2774  15.785  14.449   7.775  0.2139 -0.0414 -0.1706
  311XCA     C3 2775  15.753  14.256   7.354  0.1369  0.1183 -0.1458
  311XCA     C4 2776  15.576  14.042   6.959  0.1266  0.1216 -0.0850
  311XCA     C5 2777  15.330  13.834   6.653  0.0147  0.0292 -0.0408
  311XCA     C6 2778  14.984  13.852   6.395  0.2661 -0.5990  0.0867
  312PNCE   AM1 2779   3.012   5.448   9.253 -0.0375  0.0893  0.0261
  312PNCE   AM2 2780   3.330   5.360   9.537  0.1691  0.1686 -0.0823
  312PNCE   T1A 2781   2.919   5.648   8.856 -0.0039  0.0009 -0.2396
  312PNCE   C2A 2782   3.147   5.728   8.421  0.3284 -0.1691  0.2735
  312PNCE   C3A 2783   3.437   5.980   8.216 -0.1757  0.4742 -0.0300
  312PNCE   C1B 2784   3.391   5.219   9.154  0.1560 -0.0233 -0.0655
  312PNCE   C2B 2785   3.007   5.121   8.839  0.0523  0.0429 -0.0896
  312PNCE   C3B 2786   2.725   5.292   8.509  0.1548 -0.0854 -0.0814
  312PNCE   D4B 2787   2.578   5.454   8.118 -0.1890 -0.0207  0.1651
  312PNCE   C5B 2788   2.615   5.171   7.723  0.0632 -0.0363  0.1958
  312PNCE   C6B 2789   2.675   5.215   7.308 -0.5627 -0.0908  0.0267
  313PNCE   AM1 2790  11.380   0.823   8.612 -0.1244 -0.0326  0.1577
  313PNCE   AM2 2791  11.764   0.981   8.573 -0.2525  0.1171  0.2166
  313PNCE   T1A 2792  11.231   0.461   8.400  0.0789  0.1281  0.1937
  313PNCE   C2A 2793  10.947   0.175   8.221 -0.1532  0.1678 -0.0656
  313PNCE   C3A 2794  10.759   0.047   7.942 -0.1066 -0.0172  0.2845
  313PNCE   C1B 2795  11.604   0.739   8.130  0.1142 -0.3681 -0.1383
  313PNCE   C2B 2796  11.233   0.622   7.869 -0.1951 -0.1097 -0.1717
  313PNCE   C3B 2797  10.868   0.471   7.674 -0.0271 -0.0420 -0.0569
  313PNCE   D4B 2798  10.561   0.367   7.622  0.2270  0.0133 -0.0030
  313PNCE   C5B 2799  10.311   0.593   7.785  0.2412  0.2296  0.2805
  313PNCE   C6B 2800  10.111   0.661   8.263 -0.0682 -0.1973 -0.3194
  314PNCE   AM1 2801   4.446  13.616   8.118  0.1331  0.3117  0.0962
  314PNCE   AM2 2802   4.328  13.789   7.935 -0.1309 -0.0124 -0.0650
  314PNCE   T1A 2803   4.224  13.232   8.041  0.3649  0.3615 -0.0260
  314PNCE   C2A 2804   3.920  13.036   7.899  0.0303  0.1524  0.0598
  314PNCE   C3A 2805   3.677  12.827   7.654 -0.0558  0.0277 -0.0328
  314PNCE   C1B 2806   4.088  13.513   7.666  0.1080 -0.2422  0.4260
  314PNCE   C2B 2807   3.997  13.222   7.307  0.1621 -0.2123 -0.1615
  314PNCE   C3B 2808   3.964  13.300   6.960 -0.1563  0.0946  0.0258
  314PNCE   D4B 2809   3.956  13.525   6.636  0.0540  0.2026 -0.0168
  314PNCE   C5B 2810   3.978  13.971   6.720  0.0046  0.1786  0.2122
  314PNCE   C6B 2811   3.944  14.287   7.062 -0.2997 -0.3637 -0.0471
  315XCA    COO 2812  13.922  10.924   5.219 -0.3112  0.1474 -0.2065
  315XCA     C1 2813  14.102  11.044   5.545  0.4390 -0.4320  0.0743
  315XCA     C2 2814  14.390  11.139   5.960 -0.1353  0.3159 -0.1648
  315XCA     C3 2815  14.434  11.176   6.437 -0.0630  0.0335 -0.0309
  315XCA     C4 2816  14.292  11.257   6.863 -0.2783  0.2554  0.1646
  315XCA     C5 2817  14.523  11.547   6.974 -0.2725  0.0148  0.1396
  315XCA     C6 2818  14.603  12.009   6.805  0.2194 -0.2207  0.2284
  316PNCE   AM1 2819   7.479   7.354   8.287  0.4438 -0.1360  0.0982
  316PNCE   AM2 2820   7.286   7.655   8.396  0.1898  0.3006 -0.2195
  316PNCE   T1A 2821   7.469   7.468   7.746  0.2121  0.0474  0.1265
  316PNCE   C2A 2822   7.466   7.563   7.358 -0.0558  0.0775 -0.1249
  316PNCE   C3A 2823   7.609   7.755   6.994 -0.0442 -0.0933  0.0372
  316PNCE   C1B 2824   7.221   7.821   8.035 -0.2075 -0.1018 -0.2016
  316PNCE   C2B 2825   7.269   7.991   7.613  0.0212  0.0656 -0.1306
  316PNCE   C3B 2826   7.335   8.087   7.276 -0.0026 -0.1385 -0.4365
  316PNCE   D4B 2827   7.546   8.338   7.028  0.0950 -0.0070  0.1853
  316PNCE   C5B 2828   7.419   8.331   6.603  0.0793  0.1508 -0.3362
  316PNCE   C6B 2829   7.500   8.134   6.354  0.2216 -0.0897 -0.3100
  317XCA    COO 2830   2.335   5.993   9.540 -0.1050 -0.2161  0.0347
  317XCA     C1 2831   2.381   5.918   9.111  0.0164  0.0539 -0.0336
  317XCA     C2 2832   2.086   6.034   8.713  0.2641  0.2524 -0.2413
  317XCA     C3 2833   2.159   6.031   8.274 -0.4311 -0.0365 -0.0938
  317XCA     C4 2834   2.282   5.838   7.898  0.0561  0.0911  0.0854
  317XCA     C5 2835   2.631   5.729   7.586  0.0084  0.0838  0.0043
  317XCA     C6 2836   2.984   5.544   7.485 -0.0795 -0.0411  0.1711
  318PNCE   AM1 2837  12.427  13.357   9.177 -0.2125  0.0068 -0.0106
  318PNCE   AM2 2838  12.243  13.090   8.920  0.0638 -0.0438 -0.0497
  318PNCE   T1A 2839  12.421  13.540   8.672  0.0115  0.4297 -0.0389
  318PNCE   C2A 2840  12.307  13.443   8.341 -0.3937 -0.0528  0.0590
  318PNCE   C3A 2841  12.094  13.691   7.972 -0.4425 -0.1363  0.1467
  318PNCE   C1B 2842  12.308  12.953   8.466 -0.1181  0.0008 -0.1433
  318PNCE   C2B 2843  12.377  12.799   8.090 -0.0933 -0.0060  0.0402
  318PNCE   C3B 2844  12.429  12.386   7.959  0.0088 -0.4276  0.0425
  318PNCE   D4B 2845  12.490  12.234   7.593 -0.1466  0.2430  0.1179
  318PNCE   C5B 2846  12.286  12.287   7.343 -0.1302 -0.2287 -0.1349
  318PNCE   C6B 2847  12.239  12.338   6.902 -0.3122  0.0539 -0.2747
  319PNCE   AM1 2848   0.060   8.706   9.694  0.1057 -0.3626  0.2473
  319PNCE   AM2 2849   0.389   8.693   9.547 -0.3048 -0.0251  0.0907
  319PNCE   T1A 2850  -0.134   9.007   9.418  0.1401 -0.0148 -0.2565
  319PNCE   C2A 2851  -0.481   9.331   9.293 -0.1610 -0.4824  0.1282
  319PNCE   C3A 2852  -0.468   9.682   8.943 -0.0448  0.1446 -0.0760
  319PNCE   C1B 2853   0.292   8.985   9.206 -0.1959  0.3116  0.1231
  319PNCE   C2B 2854   0.302   8.989   8.844  0.0535  0.1914 -0.2874
  319PNCE   C3B 2855   0.189   8.994   8.375  0.0001  0.0757 -0.1149
  319PNCE   D4B 2856   0.063   8.814   8.025  0.0616  0.0323  0.0297
  319PNCE   C5B 2857  -0.228   8.570   7.972 -0.1012  0.0064 -0.0594
  319PNCE   C6B 2858  -0.516   8.367   7.754  0.1298 -0.0892 -0.0481
  320CHOL   ROH 2859  14.393   8.238  10.121  0.2571  0.1300 -0.0755
  320CHOL    R1 2860  14.414   8.078   9.888  0.0880  0.0180 -0.0158
  320CHOL    R2 2861  14.521   8.173   9.652 -0.0448 -0.1073 -0.1287
  320CHOL    R3 2862  14.682   7.955   9.675 -0.0621 -0.1198 -0.1274
  320CHOL    R4 2863  14.630   7.979   9.387 -0.0335 -0.0983 -0.1305
  320CHOL    R5 2864  14.599   7.802   9.511 -0.0571 -0.1036 -0.1447
  320CHOL    C1 2865  14.845   7.662   9.255 -0.0431 -0.1047 -0.1303
  320CHOL    C2 2866  14.989   7.612   8.904  0.0234 -0.0778  0.3307
  321CHOL   ROH 2867   6.103   4.718   8.731  0.3670  0.0060  0.0353
  321CHOL    R1 2868   6.050   4.785   8.461  0.3677  0.0735  0.0525
  321CHOL    R2 2869   6.217   4.710   8.255  0.1731 -0.2026 -0.0060
  321CHOL    R3 2870   5.989   4.605   8.151 -0.0377  0.1487  0.0828
  321CHOL    R4 2871   6.151   4.680   7.917  0.1976 -0.5009  0.0131
  321CHOL    R5 2872   5.945   4.740   7.957  0.3049  0.0031 -0.1086
  321CHOL    C1 2873   5.898   4.563   7.622  0.0141 -0.3450  0.1076
  321CHOL    C2 2874   6.018   4.715   7.249 -0.2265  0.1829 -0.5509
  322CHOL   ROH 2875   3.939   3.543   4.362  0.1082 -0.1154  0.0386
  322CHOL    R1 2876   3.859   3.537   4.633 -0.0147 -0.0795  0.0024
  322CHOL    R2 2877   3.614   3.437   4.713  0.0008 -0.1744 -0.0864
  322CHOL    R3 2878   3.767   3.283   4.876 -0.0038 -0.0555  0.0343
  322CHOL    R4 2879   3.506   3.294   5.009 -0.1464 -0.2867 -0.1920
  322CHOL    R5 2880   3.699   3.344   5.097 -0.2571 -0.1239 -0.0160
  322CHOL    C1 2881   3.587   3.066   5.334 -0.2364 -0.2406 -0.1402
  322CHOL    C2 2882   3.365   3.082   5.607  0.1754 -0.0733 -0.0134
  323XCA    COO 2883  15.127  10.884   8.972 -0.0271 -0.1576  0.2227
  323XCA     C1 2884  15.235  10.988   8.457  0.1224 -0.0619 -0.1736
  323XCA     C2 2885  15.156  10.792   7.988 -0.1070  0.3324 -0.0510
  323XCA     C3 2886  15.255  10.608   7.599 -0.0368  0.0965  0.1216
  323XCA     C4 2887  14.928  10.606   7.256  0.0832  0.0556  0.1395
  323XCA     C5 2888  14.942  10.404   6.929  0.1210  0.3407 -0.0064
  323XCA     C6 2889  14.922  10.367   6.468 -0.3749 -0.0814 -0.0596
  324XCA    COO 2890   8.599  10.131   8.904  0.1744 -0.2073  0.0430
  324XCA     C1 2891   8.471  10.206   8.489  0.1179 -0.1170  0.0827
  324XCA     C2 2892   8.139  10.252   8.241 -0.2353 -0.2341  0.1595
  324XCA     C3 2893   8.100  10.094   7.791 -0.3966  0.0208  0.0768
  324XCA     C4 2894   8.322   9.998   7.368  0.1189  0.0647  0.0360
  324XCA     C5 2895   8.618   9.692   7.205  0.1698  0.0004  0.1390
  324XCA     C6 2896   8.944   9.815   7.031  0.1743 -0.2343  0.1303
  325CHOL   ROH 2897  10.795   3.498   7.304  0.1631 -0.1362  0.0464
  325CHOL    R1 2898  10.866   3.742   7.179  0.0423 -0.0704  0.1023
  325CHOL    R2 2899  10.964   3.958   7.321  0.1392 -0.1249  0.1293
  325CHOL    R3 2900  11.168   3.941   7.143 -0.0018 -0.0317 -0.0442
  325CHOL    R4 2901  11.156   4.225   7.213  0.0303 -0.0689  0.0742
  325CHOL    R5 2902  11.151   4.141   7.013 -0.1226  0.0140  0.0478
  325CHOL    C1 2903  11.459   4.364   6.984 -0.1653  0.0514 -0.1208
  325CHOL    C2 2904  11.425   4.643   6.688 -0.0240  0.0279 -0.2481
  326PNCE   AM1 2905   0.592   3.641   9.263 -0.1769 -0.1259  0.2517
  326PNCE   AM2 2906   0.522   3.222   9.289 -0.1224  0.0936  0.3554
  326PNCE   T1A 2907   0.683   3.729   8.852  0.2129  0.0984  0.0770
  326PNCE   C2A 2908   0.844   3.930   8.516 -0.0703 -0.0515 -0.0674
  326PNCE   C3A 2909   1.217   3.926   8.398 -0.2120  0.0225  0.4397
  326PNCE   C1B 2910   0.738   3.230   8.844  0.1450  0.0769  0.1653
  326PNCE   C2B 2911   0.953   3.387   8.517 -0.2451  0.0889  0.1381
  326PNCE   C3B 2912   0.859   3.585   8.153 -0.3106  0.1143 -0.0340
  326PNCE   D4B 2913   0.676   3.688   7.809  0.1084  0.0161 -0.0999
  326PNCE   C5B 2914   0.292   3.680   7.739 -0.4107  0.2446  0.3879
  326PNCE   C6B 2915  -0.108   3.637   7.972  0.1215  0.0678  0.0280
  327PNCE   AM1 2916   8.975   2.203   8.166 -0.1889  0.0578  0.0136
  327PNCE   AM2 2917   9.117   2.615   8.214  0.1665 -0.3420 -0.1344
  327PNCE   T1A 2918   9.292   2.280   7.904  0.2050 -0.1061  0.1148
  327PNCE   C2A 2919   9.186   2.288   7.476  0.0341 -0.1618 -0.2582
  327PNCE   C3A 2920   9.054   2.465   7.228 -0.1529  0.0948 -0.3603
  327PNCE   C1B 2921   8.918   2.590   7.882 -0.0827  0.0380 -0.1334
  327PNCE   C2B 2922   9.009   2.873   7.490  0.2305 -0.3121 -0.0604
  327PNCE   C3B 2923   8.889   3.059   7.122  0.0538  0.2177  0.0132
  327PNCE   D4B 2924   8.810   3.066   6.746 -0.0423  0.1494  0.1811
  327PNCE   C5B 2925   8.352   3.093   6.707  0.2001 -0.0686 -0.2267
  327PNCE   C6B 2926   7.880   3.203   6.498  0.0553 -0.0629 -0.2626
  328CHOL   ROH 2927   9.142   1.453   8.318 -0.3311 -0.0068 -0.0055
  328CHOL    R1 2928   9.029   1.517   8.067 -0.2598  0.0132 -0.0329
  328CHOL    R2 2929   8.929   1.768   8.008 -0.1930  0.0346 -0.0605
  328CHOL    R3 2930   9.100   1.751   7.797 -0.1473 -0.0063 -0.0202
  328CHOL    R4 2931   8.859   1.878   7.688 -0.0864  0.0593 -0.0757
  328CHOL    R5 2932   8.959   1.700   7.610 -0.1153  0.0351 -0.0550
  328CHOL    C1 2933   8.978   1.926   7.304  0.0187  0.0353 -0.0468
  328CHOL    C2 2934   8.755   2.101   7.124 -0.3164 -0.3739  0.2760
  329CHOL   ROH 2935   6.316   1.770   3.830  0.2042 -0.0185  0.1513
  329CHOL    R1 2936   6.136   1.798   4.046  0.0504 -0.0047  0.0242
  329CHOL    R2 2937   6.123   1.615   4.254 -0.0535  0.0401  0.0586
  329CHOL    R3 2938   6.161   1.837   4.407 -0.2021  0.0829  0.0346
  329CHOL    R4 2939   6.028   1.645   4.585  0.0117 -0.0256  0.0833
  329CHOL    R5 2940   5.964   1.849   4.543 -0.1775 -0.0810  0.0885
  329CHOL    C1 2941   6.007   1.870   4.921 -0.0898 -0.0236  0.0753
  329CHOL    C2 2942   6.045   1.894   5.256  0.0991 -0.1964 -0.3402
  330PNCE   AM1 2943   9.116   8.703   9.009  0.0297 -0.0990 -0.2732
  330PNCE   AM2 2944   9.329   8.487   9.007 -0.0530  0.2114  0.1752
  330PNCE   T1A 2945   9.063   8.952   8.614 -0.1630  0.2312 -0.0741
  330PNCE   C2A 2946   9.002   9.382   8.550  0.0422 -0.1567  0.0466
  330PNCE   C3A 2947   9.212   9.685   8.732  0.0900 -0.1459  0.1079
  330PNCE   C1B 2948   9.437   8.530   8.565 -0.0267 -0.0448 -0.2675
  330PNCE   C2B 2949   9.677   8.438   8.188 -0.3867  0.1965  0.0288
  330PNCE   C3B 2950   9.818   8.500   7.806  0.1954  0.1723 -0.0904
  330PNCE   D4B 2951   9.987   8.745   7.621 -0.0713 -0.0815  0.0093
  330PNCE   C5B 2952   9.972   9.158   7.763 -0.0678 -0.0714 -0.1184
  330PNCE   C6B 2953  10.029   9.550   7.771  0.3242 -0.0664  0.0649
  331PNCE   AM1 2954   9.321   6.948   8.441  0.0939  0.0900  0.3409
  331PNCE   AM2 2955   9.642   7.075   8.478 -0.1842  0.0744 -0.1303
  331PNCE   T1A 2956   9.086   6.921   8.089  0.0082  0.1676 -0.0973
  331PNCE   C2A 2957   8.835   6.820   7.739 -0.0367 -0.0733  0.2318
  331PNCE   C3A 2958   8.716   6.467   7.412  0.1003 -0.1413 -0.0069
  331PNCE   C1B 2959   9.866   7.124   8.108 -0.0415 -0.1313  0.2496
  331PNCE   C2B 2960  10.295   7.251   8.006 -0.2443 -0.0862 -0.3941
  331PNCE   C3B 2961  10.730   7.255   7.989  0.0586  0.1947  0.0794
  331PNCE   D4B 2962  11.085   7.357   8.237  0.1901  0.2812  0.0320
  331PNCE   C5B 2963  11.452   7.581   8.090 -0.0935  0.2163 -0.0068
  331PNCE   C6B 2964  11.904   7.731   8.257 -0.2950  0.1597  0.0704
  332PNCE   AM1 2965   0.208   5.048   9.102 -0.0764  0.2042 -0.0105
  332PNCE   AM2 2966   0.301   5.361   9.227 -0.0763 -0.0707  0.3010
  332PNCE   T1A 2967   0.420   4.963   8.707 -0.0410  0.1123 -0.1162
  332PNCE   C2A 2968   0.390   5.157   8.328  0.0038  0.2576 -0.2989
  332PNCE   C3A 2969   0.319   5.511   8.013  0.2124  0.2206  0.1127
  332PNCE   C1B 2970   0.340   5.505   8.728  0.0885 -0.1632 -0.2082
  332PNCE   C2B 2971   0.580   5.587   8.449  0.1118  0.2110  0.0457
  332PNCE   C3B 2972   0.844   5.193   8.528  0.1792  0.2489  0.1095
  332PNCE   D4B 2973   0.925   4.871   8.268 -0.0097  0.2310 -0.3038
  332PNCE   C5B 2974   1.161   4.989   7.858 -0.0484 -0.0078  0.2249
  332PNCE   C6B 2975   1.257   5.094   7.438  0.5153 -0.2307 -0.0158
  333PNCE   AM1 2976  12.884   5.259   8.891 -0.1515  0.0187 -0.0318
  333PNCE   AM2 2977  12.996   5.561   8.881 -0.0561 -0.0799  0.3060
  333PNCE   T1A 2978  13.054   5.162   8.520  0.1215  0.1246  0.2456
  333PNCE   C2A 2979  13.357   5.029   8.231  0.1178  0.2795 -0.1880
  333PNCE   C3A 2980  13.347   4.642   8.194  0.0991  0.0560 -0.1567
  333PNCE   C1B 2981  12.961   5.666   8.386  0.0706  0.1391 -0.2022
  333PNCE   C2B 2982  13.028   5.372   8.002  0.2458 -0.4127 -0.1369
  333PNCE   C3B 2983  13.101   5.648   7.604 -0.3185 -0.0287  0.3242
  333PNCE   D4B 2984  13.027   5.714   7.166  0.0473  0.2831 -0.1647
  333PNCE   C5B 2985  12.592   5.793   7.015 -0.0929 -0.1420 -0.1353
  333PNCE   C6B 2986  12.245   5.775   6.980 -0.0790 -0.3344  0.1506
  334PNCE   AM1 2987  15.267   7.315   9.242  0.1217  0.3491 -0.1340
  334PNCE   AM2 2988  15.634   7.313   9.195  0.1700 -0.2910  0.0413
  334PNCE   T1A 2989  15.076   7.045   8.962  0.1019 -0.2962  0.0771
  334PNCE   C2A 2990  14.991   7.151   8.518  0.1155 -0.0291 -0.1818
  334PNCE   C3A 2991  15.179   7.087   8.143  0.0999 -0.0665  0.2051
  334PNCE   C1B 2992  15.417   7.434   8.781 -0.1229  0.0705 -0.4098
  334PNCE   C2B 2993  15.253   7.531   8.355 -0.1356  0.3930  0.1427
  334PNCE   C3B 2994  15.378   7.523   7.922  0.2129 -0.1145 -0.3924
  334PNCE   D4B 2995  15.514   7.526   7.521 -0.1736 -0.1150 -0.0326
  334PNCE   C5B 2996  15.365   7.891   7.477  0.6345  0.1785  0.0600
  334PNCE   C6B 2997  15.145   8.221   7.253 -0.0021  0.3007  0.1670
  335PNCE   AM1 2998   5.662  13.682   7.687  0.0096 -0.1076  0.2834
  335PNCE   AM2 2999   6.005  13.665   7.902  0.4206  0.1825  0.0824
  335PNCE   T1A 3000   5.405  13.328   7.436 -0.2405 -0.0220  0.0238
  335PNCE   C2A 3001   5.266  12.969   7.171 -0.2960  0.1382  0.1115
  335PNCE   C3A 3002   5.522  12.681   7.048  0.1538  0.0314  0.2070
  335PNCE   C1B 3003   5.974  13.285   7.747 -0.0091  0.1494  0.0195
  335PNCE   C2B 3004   5.777  12.996   7.480 -0.1110 -0.1336 -0.0610
  335PNCE   C3B 3005   5.752  12.520   7.495  0.0050  0.4166 -0.1913
  335PNCE   D4B 3006   5.537  12.190   7.267 -0.0015  0.0839 -0.1534
  335PNCE   C5B 3007   5.643  11.767   7.182 -0.2853 -0.1785 -0.0397
  335PNCE   C6B 3008   5.719  11.322   7.286  0.0372 -0.0622 -0.0679
  336CHOL   ROH 3009   1.950  14.425   7.003 -0.0869 -0.2521  0.1467
  336CHOL    R1 3010   1.840  14.345   6.755 -0.3371 -0.1489  0.2210
  336CHOL    R2 3011   1.594  14.433   6.666 -0.1805  0.3498  0.2462
  336CHOL    R3 3012   1.736  14.508   6.447 -0.0663 -0.0782  0.1651
  336CHOL    R4 3013   1.460  14.483   6.352 -0.0852  0.1320  0.1697
  336CHOL    R5 3014   1.636  14.386   6.267 -0.1883 -0.1782  0.3003
  336CHOL    C1 3015   1.515  14.582   5.962  0.0775 -0.3966  0.0492
  336CHOL    C2 3016   1.129  14.866   5.713  0.0425  0.1326  0.3623
  337XCA    COO 3017   6.569  11.584   4.564 -0.1114  0.3137  0.4485
  337XCA     C1 3018   6.831  11.673   4.969  0.1941  0.2801 -0.0721
  337XCA     C2 3019   6.935  11.583   5.467 -0.1703 -0.1840  0.1252
  337XCA     C3 3020   7.199  11.648   5.845  0.3623  0.3093  0.0441
  337XCA     C4 3021   7.503  11.534   6.081  0.1202  0.2394 -0.1271
  337XCA     C5 3022   7.970  11.690   6.129  0.0980  0.0892  0.0845
  337XCA     C6 3023   8.346  11.713   6.287  0.2369 -0.1563 -0.1315
  338PNCE   AM1 3024  15.711   6.863   9.479  0.1241 -0.0561 -0.0141
  338PNCE   AM2 3025  15.995   6.665   9.428  0.1299 -0.2538 -0.1269
  338PNCE   T1A 3026  15.302   6.764   9.345 -0.0683 -0.0596 -0.4234
  338PNCE   C2A 3027  15.211   6.485   9.057 -0.0247 -0.1417 -0.1801
  338PNCE   C3A 3028  15.311   6.333   8.554 -0.1387  0.2761 -0.1593
  338PNCE   C1B 3029  16.079   6.722   9.014 -0.1827  0.2429  0.2231
  338PNCE   C2B 3030  15.984   6.991   8.584  0.0815  0.2573 -0.2852
  338PNCE   C3B 3031  15.732   7.144   8.262 -0.0170 -0.2384 -0.0236
  338PNCE   D4B 3032  15.770   7.262   7.874 -0.2384 -0.1966 -0.1289
  338PNCE   C5B 3033  15.873   7.021   7.568 -0.2129  0.1356  0.0164
  338PNCE   C6B 3034  15.800   6.711   7.312 -0.0204  0.0337  0.0768
  339CHOL   ROH 3035   2.635   4.713   7.503  0.0377  0.0022 -0.0364
  339CHOL    R1 3036   2.500   4.464   7.500  0.1127 -0.0406  0.0461
  339CHOL    R2 3037   2.384   4.361   7.271  0.0242 -0.0886  0.1095
  339CHOL    R3 3038   2.539   4.145   7.329  0.1243 -0.0357  0.0407
  339CHOL    R4 3039   2.331   4.041   7.150  0.1395 -0.0884  0.0589
  339CHOL    R5 3040   2.384   3.963   7.346  0.2056 -0.1043  0.0328
  339CHOL    C1 3041   2.446   3.653   7.134  0.3005 -0.0385 -0.0352
  339CHOL    C2 3042   2.350   3.314   7.319  0.3363  0.0970 -0.2467
  340PNCE   AM1 3043  15.371   8.913   9.837 -0.0202 -0.1042 -0.0117
  340PNCE   AM2 3044  15.276   8.610   9.849 -0.1354 -0.1110  0.0639
  340PNCE   T1A 3045  15.543   9.377   9.827  0.0986 -0.2604 -0.3245
  340PNCE   C2A 3046  15.544   9.790   9.443 -0.0238 -0.0645  0.2961
  340PNCE   C3A 3047  15.245  10.061   9.392  0.2043 -0.2576  0.2908
  340PNCE   C1B 3048  15.412   8.522   9.510  0.1337  0.0155 -0.0215
  340PNCE   C2B 3049  15.295   8.786   9.183  0.0911 -0.0673  0.0330
  340PNCE   C3B 3050  14.868   8.729   8.932  0.0458  0.0931  0.3261
  340PNCE   D4B 3051  14.670   8.962   8.645 -0.0290  0.0601 -0.1516
  340PNCE   C5B 3052  14.333   9.213   8.662 -0.1488 -0.1133 -0.0649
  340PNCE   C6B 3053  13.951   9.233   8.559  0.0291  0.0833  0.0344
  341PNCE   AM1 3054  13.939   5.803   9.072  0.4940  0.2567 -0.0234
  341PNCE   AM2 3055  13.938   5.453   8.889  0.4078 -0.1991  0.1842
  341PNCE   T1A 3056  14.023   5.886   8.654  0.2875  0.0225  0.0054
  341PNCE   C2A 3057  13.861   5.809   8.298 -0.1682  0.1847  0.1191
  341PNCE   C3A 3058  13.393   6.079   8.223 -0.0409 -0.0855  0.1262
  341PNCE   C1B 3059  14.229   5.439   8.487 -0.1715  0.1348 -0.1313
  341PNCE   C2B 3060  14.198   5.427   8.094  0.0611 -0.0777 -0.1590
  341PNCE   C3B 3061  14.499   5.423   7.698 -0.1006  0.0395  0.0910
  341PNCE   D4B 3062  14.417   5.368   7.194 -0.2411 -0.1595 -0.1041
  341PNCE   C5B 3063  14.419   4.982   7.058 -0.1037 -0.0618  0.2403
  341PNCE   C6B 3064  14.119   4.692   7.154  0.1403  0.0965 -0.0839
  342PNCE   AM1 3065  10.514   1.500   8.428  0.0613  0.0363 -0.0529
  342PNCE   AM2 3066  10.664   1.828   8.340 -0.0175 -0.0581 -0.1338
  342PNCE   T1A 3067  10.530   1.568   7.996  0.2604  0.0891 -0.2638
  342PNCE   C2A 3068  10.366   1.599   7.683  0.0503 -0.0276 -0.0730
  342PNCE   C3A 3069  10.315   1.452   7.304 -0.1597 -0.0450 -0.0519
  342PNCE   C1B 3070  10.651   2.041   7.979 -0.1286 -0.2627 -0.0358
  342PNCE   C2B 3071  10.493   2.022   7.441 -0.5034 -0.0409  0.1059
  342PNCE   C3B 3072  10.195   1.930   7.147  0.0382 -0.4036  0.2950
  342PNCE   D4B 3073   9.811   1.972   6.939  0.1102  0.0845  0.2640
  342PNCE   C5B 3074   9.772   1.774   6.542 -0.2341  0.2197 -0.2354
  342PNCE   C6B 3075   9.688   1.529   6.104  0.2547  0.1870 -0.2057
  343CHOL   ROH 3076   8.819  12.110   5.041  0.1477 -0.0071  0.0007
  343CHOL    R1 3077   8.680  12.167   5.282  0.1179  0.0401 -0.0285
  343CHOL    R2 3078   8.646  11.980   5.481 -0.0512  0.0313 -0.0704
  343CHOL    R3 3079   8.758  12.172   5.637  0.0230 -0.0632 -0.0043
  343CHOL    R4 3080   8.629  11.989   5.826 -0.1976  0.0030 -0.0756
  343CHOL    R5 3081   8.600  12.205   5.814 -0.0367  0.0313 -0.0690
  343CHOL    C1 3082   8.724  12.175   6.174 -0.2131 -0.1023 -0.0165
  343CHOL    C2 3083   8.866  11.839   6.453  0.3060 -0.0652 -0.1280
  344CHOL   ROH 3084  12.316   2.840   4.813  0.0890 -0.0441  0.0060
  344CHOL    R1 3085  12.403   2.627   4.978  0.1663 -0.1260 -0.1384
  344CHOL    R2 3086  12.670   2.559   5.005  0.2057  0.0435 -0.0765
  344CHOL    R3 3087  12.617   2.589   5.270  0.0598 -0.2224 -0.0720
  344CHOL    R4 3088  12.858   2.423   5.260  0.0760 -0.1960 -0.1058
  344CHOL    R5 3089  12.674   2.377   5.366  0.0212 -0.3148 -0.2501
  344CHOL    C1 3090  12.919   2.372   5.658 -0.1365 -0.5849 -0.1186
  344CHOL    C2 3091  13.174   2.384   5.670  0.1774 -0.1641  0.1174
  345PNCE   AM1 3092   7.008   2.615   7.630 -0.1179 -0.0057  0.1813
  345PNCE   AM2 3093   7.240   2.675   7.845 -0.2276 -0.1889 -0.0756
  345PNCE   T1A 3094   6.969   2.542   7.145  0.0486 -0.3101 -0.1203
  345PNCE   C2A 3095   6.841   2.754   6.827  0.1082 -0.2527 -0.0554
  345PNCE   C3A 3096   7.004   3.162   6.723  0.1144 -0.0628  0.0042
  345PNCE   C1B 3097   7.456   2.474   7.572  0.0225  0.0957 -0.2112
  345PNCE   C2B 3098   7.801   2.668   7.325 -0.1100 -0.0846 -0.1847
  345PNCE   C3B 3099   7.983   2.832   6.916 -0.1240 -0.2331 -0.0593
  345PNCE   D4B 3100   8.125   2.636   6.498  0.1825  0.1108  0.0484
  345PNCE   C5B 3101   8.484   2.529   6.218  0.1445 -0.2540  0.0727
  345PNCE   C6B 3102   8.691   2.549   5.844  0.0903  0.2068 -0.1844
  346PNCE   AM1 3103   8.003   3.973   8.012  0.0874  0.1016  0.0056
  346PNCE   AM2 3104   8.025   4.445   7.946 -0.2492  0.1323  0.0254
  346PNCE   T1A 3105   8.013   3.704   7.705  0.2501 -0.2281 -0.2008
  346PNCE   C2A 3106   7.963   3.774   7.274  0.0867 -0.0091 -0.4536
  346PNCE   C3A 3107   7.825   3.978   6.986  0.0605  0.0434 -0.0221
  346PNCE   C1B 3108   8.064   4.709   7.562  0.0237 -0.0128 -0.0353
  346PNCE   C2B 3109   7.920   4.905   7.187 -0.2104  0.1863  0.0866
  346PNCE   C3B 3110   7.991   5.300   6.892 -0.1337 -0.0478  0.0323
  346PNCE   D4B 3111   8.445   5.455   6.847 -0.2304  0.1096  0.0699
  346PNCE   C5B 3112   8.587   5.454   6.494 -0.3793 -0.3563  0.1594
  346PNCE   C6B 3113   8.832   5.625   6.085 -0.1203 -0.0783 -0.1940
  347PNCE   AM1 3114   8.872  12.907   7.982 -0.0766  0.0293  0.0634
  347PNCE   AM2 3115   8.564  12.924   7.937 -0.1953  0.0319  0.0297
  347PNCE   T1A 3116   8.894  13.106   7.518  0.0750 -0.1101 -0.1181
  347PNCE   C2A 3117   8.625  13.234   7.171  0.1660 -0.2446  0.3964
  347PNCE   C3A 3118   8.602  13.020   6.731  0.0906  0.2687 -0.2912
  347PNCE   C1B 3119   8.359  13.162   7.681 -0.2056 -0.0030  0.0731
  347PNCE   C2B 3120   8.219  13.458   7.269 -0.1838 -0.0136 -0.2838
  347PNCE   C3B 3121   8.231  13.353   6.849  0.0076  0.2258  0.1267
  347PNCE   D4B 3122   8.202  13.064   6.507 -0.4171 -0.2153 -0.1740
  347PNCE   C5B 3123   8.518  13.279   6.203 -0.2059 -0.0120  0.0151
  347PNCE   C6B 3124   8.885  13.370   6.069 -0.5201 -0.0775  0.2339
  348XCA    COO 3125  15.372  10.885   5.295 -0.1406  0.1017 -0.5801
  348XCA     C1 3126  15.206  11.274   5.591  0.0732 -0.0855  0.1463
  348XCA     C2 3127  15.220  11.725   5.867 -0.1459  0.1096  0.1333
  348XCA     C3 3128  15.343  12.100   5.985  0.0593  0.1420  0.3185
  348XCA     C4 3129  15.090  12.411   6.228 -0.1501  0.1127 -0.0473
  348XCA     C5 3130  15.195  12.722   6.457  0.2638 -0.1321  0.2830
  348XCA     C6 3131  15.296  13.139   6.731  0.2691 -0.0033 -0.0516
  349XCA    COO 3132   3.574   4.250   4.598  0.0992 -0.0978 -0.3357
  349XCA     C1 3133   3.507   4.229   5.011 -0.0071  0.1326 -0.0665
  349XCA     C2 3134   3.509   4.126   5.384 -0.2611  0.1005 -0.0927
  349XCA     C3 3135   3.342   3.987   5.858 -0.0455  0.5580  0.5763
  349XCA     C4 3136   2.878   3.887   5.960  0.0594  0.0023 -0.1870
  349XCA     C5 3137   2.539   3.830   6.018  0.1120 -0.0233 -0.1687
  349XCA     C6 3138   2.175   3.889   6.234  0.0661  0.0981  0.2530
  350XCA    COO 3139   4.874   0.899   7.503  0.0657  0.0039  0.1298
  350XCA     C1 3140   4.428   0.846   7.368 -0.1940 -0.1816 -0.0891
  350XCA     C2 3141   4.265   1.123   7.119 -0.0854  0.0808 -0.1041
  350XCA     C3 3142   4.091   1.478   6.797  0.0523  0.0457  0.0413
  350XCA     C4 3143   3.994   1.846   6.545 -0.0714 -0.0873 -0.3637
  350XCA     C5 3144   3.704   1.971   6.217  0.0783  0.0483 -0.0781
  350XCA     C6 3145   3.591   2.100   5.792 -0.0551 -0.0725  0.2563
  351CHOL   ROH 3146   3.968   7.026   5.660 -0.1427 -0.0005  0.0064
  351CHOL    R1 3147   3.878   6.928   5.910 -0.1494  0.1044  0.0468
  351CHOL    R2 3148   4.007   6.727   6.047 -0.3385 -0.0769 -0.0228
  351CHOL    R3 3149   4.008   6.908   6.249 -0.0043 -0.0770 -0.0200
  351CHOL    R4 3150   4.010   6.647   6.383 -0.3782 -0.0748 -0.0228
  351CHOL    R5 3151   3.869   6.810   6.417 -0.1145  0.1441  0.0147
  351CHOL    C1 3152   4.012   6.771   6.769 -0.0876 -0.0737 -0.0203
  351CHOL    C2 3153   3.736   6.540   6.992  0.0930  0.1131  0.0844
  352PNCE   AM1 3154   3.235   1.562   8.235 -0.1053 -0.1639  0.0821
  352PNCE   AM2 3155   3.081   1.387   8.094  0.1299  0.1601  0.0061
  352PNCE   T1A 3156   3.276   1.741   7.836 -0.3102 -0.0837  0.0610
  352PNCE   C2A 3157   3.030   1.644   7.355 -0.0459 -0.0917  0.2073
  352PNCE   C3A 3158   2.599   1.580   7.171 -0.0602  0.1286 -0.0442
  352PNCE   C1B 3159   2.950   1.282   7.670 -0.1568  0.1453 -0.0036
  352PNCE   C2B 3160   2.883   1.207   7.171 -0.3902  0.3321 -0.1287
  352PNCE   C3B 3161   2.994   1.526   6.882  0.0371  0.0690  0.0215
  352PNCE   D4B 3162   3.127   1.585   6.481  0.0276  0.3012 -0.2010
  352PNCE   C5B 3163   3.214   1.120   6.271 -0.0457  0.2152  0.2243
  352PNCE   C6B 3164   3.310   0.765   6.426  0.1812 -0.0349  0.0811
  353PNCE   AM1 3165  13.571   8.210   9.186  0.0709 -0.0341 -0.0343
  353PNCE   AM2 3166  13.313   8.223   9.053 -0.0551 -0.1336 -0.0303
  353PNCE   T1A 3167  14.018   8.080   8.885  0.1390  0.0421  0.1819
  353PNCE   C2A 3168  14.281   8.133   8.519  0.1698 -0.1330 -0.0292
  353PNCE   C3A 3169  14.373   8.299   8.137 -0.4305  0.2200 -0.3176
  353PNCE   C1B 3170  13.588   8.286   8.659  0.1744 -0.2926  0.2618
  353PNCE   C2B 3171  13.710   8.419   8.228  0.1077 -0.0028 -0.2423
  353PNCE   C3B 3172  13.478   8.472   7.887  0.0604 -0.0196 -0.1078
  353PNCE   D4B 3173  13.069   8.407   7.718 -0.1585  0.0369 -0.1450
  353PNCE   C5B 3174  13.098   8.226   7.257 -0.2440 -0.0197 -0.0091
  353PNCE   C6B 3175  13.305   8.274   6.812  0.1297  0.3740 -0.2896
  354PNCE   AM1 3176   9.724   6.372   8.194  0.0390  0.0215 -0.2583
  354PNCE   AM2 3177   9.603   6.040   8.039 -0.0623 -0.0983 -0.2827
  354PNCE   T1A 3178   9.627   6.743   7.909  0.0501  0.2049  0.1360
  354PNCE   C2A 3179   9.345   6.793   7.656  0.1298  0.3247 -0.0853
  354PNCE   C3A 3180   9.128   6.868   7.308 -0.1909 -0.2963  0.0142
  354PNCE   C1B 3181   9.665   6.311   7.676 -0.0176  0.1152  0.1380
  354PNCE   C2B 3182   9.624   6.533   7.194 -0.0518  0.1586 -0.1952
  354PNCE   C3B 3183   9.731   6.905   7.170  0.2259 -0.0619  0.2050
  354PNCE   D4B 3184   9.784   7.146   6.805  0.2151  0.0467  0.0915
  354PNCE   C5B 3185  10.121   7.022   6.542 -0.2798  0.2289 -0.1359
  354PNCE   C6B 3186  10.186   6.784   6.218 -0.1300  0.1923 -0.3823
  355XCA    COO 3187  11.769  15.207   8.777  0.0667  0.2034 -0.3034
  355XCA     C1 3188  11.669  15.292   8.450  0.3464 -0.0536  0.2729
  355XCA     C2 3189  11.900  15.078   8.174  0.2717 -0.1090  0.4390
  355XCA     C3 3190  11.923  14.754   7.953  0.1036 -0.3000 -0.0786
  355XCA     C4 3191  11.759  14.688   7.457  0.0109 -0.0827 -0.0824
  355XCA     C5 3192  11.540  14.756   7.106  0.4255 -0.1911  0.2543
  355XCA     C6 3193  11.090  14.967   6.925  0.1349  0.0628 -0.1096
  356CHOL   ROH 3194   7.186   1.092   4.497 -0.1001 -0.5809 -0.1150
  356CHOL    R1 3195   7.319   1.053   4.744 -0.2149 -0.5480 -0.0468
  356CHOL    R2 3196   7.374   0.802   4.845  0.2341 -0.5488 -0.2601
  356CHOL    R3 3197   7.628   0.897   4.856  0.0358 -0.0124  0.0348
  356CHOL    R4 3198   7.627   0.667   5.039  0.3855 -0.2280 -0.2294
  356CHOL    R5 3199   7.692   0.870   5.086 -0.0787 -0.1330  0.0510
  356CHOL    C1 3200   8.013   0.679   5.162  0.2875  0.4624  0.0653
  356CHOL    C2 3201   8.389   0.554   5.412  0.1821 -0.1538 -0.0288
  357PNCE   AM1 3202  13.531   6.094   8.924  0.1601  0.0946 -0.1002
  357PNCE   AM2 3203  13.163   6.034   9.049 -0.2679  0.3138 -0.2820
  357PNCE   T1A 3204  13.393   5.822   8.656  0.1856 -0.2301  0.0319
  357PNCE   C2A 3205  13.424   5.537   8.422 -0.3353  0.0717  0.0621
  357PNCE   C3A 3206  13.688   5.342   8.162  0.0576  0.0697 -0.1251
  357PNCE   C1B 3207  12.953   6.111   8.650 -0.3095 -0.1809  0.0522
  357PNCE   C2B 3208  12.873   6.137   8.271 -0.1487 -0.0873 -0.0574
  357PNCE   C3B 3209  13.046   6.013   7.891  0.2329  0.4143 -0.0833
  357PNCE   D4B 3210  13.427   6.155   7.735 -0.0859 -0.4118 -0.2641
  357PNCE   C5B 3211  13.606   5.999   7.442  0.0423  0.1451  0.4616
  357PNCE   C6B 3212  13.490   5.682   7.314  0.0456 -0.1663  0.0447
  358CHOL   ROH 3213   2.549   6.785   9.307 -0.5408 -0.1967  0.1193
  358CHOL    R1 3214   2.615   6.886   9.051 -0.2728 -0.2741  0.1552
  358CHOL    R2 3215   2.555   6.750   8.818 -0.3167 -0.1962  0.1231
  358CHOL    R3 3216   2.434   6.985   8.751  0.0131 -0.0391  0.0546
  358CHOL    R4 3217   2.456   6.836   8.498 -0.4578 -0.2839  0.1416
  358CHOL    R5 3218   2.527   7.040   8.536 -0.0787 -0.3622 -0.0758
  358CHOL    C1 3219   2.286   7.106   8.248 -0.2303 -0.1876  0.0880
  358CHOL    C2 3220   2.285   7.054   7.954  0.2462  0.0051  0.2944
  359XCA    COO 3221   4.766  14.449   3.804  0.3596  0.0776 -0.2820
  359XCA     C1 3222   5.034  14.272   4.095 -0.0964  0.1723  0.0834
  359XCA     C2 3223   5.421  14.455   4.506  0.5188  0.1230 -0.1455
  359XCA     C3 3224   5.647  14.533   4.703 -0.1447 -0.0185 -0.1929
  359XCA     C4 3225   5.738  14.654   5.288 -0.1589 -0.1150  0.0640
  359XCA     C5 3226   5.639  14.933   5.550  0.0615  0.1939  0.0618
  359XCA     C6 3227   5.642  14.961   6.074 -0.2224  0.0165 -0.0901
  360PNCE   AM1 3228  14.181  13.164   8.755 -0.0547 -0.2395 -0.1798
  360PNCE   AM2 3229  13.851  13.256   8.753 -0.1467  0.2139 -0.2338
  360PNCE   T1A 3230  14.213  13.092   8.376  0.0477 -0.0020 -0.2073
  360PNCE   C2A 3231  13.892  12.972   8.069 -0.2978  0.2541 -0.1948
  360PNCE   C3A 3232  13.465  12.925   8.005  0.0281  0.2186 -0.2382
  360PNCE   C1B 3233  13.736  13.341   8.334 -0.1633 -0.2073  0.1237
  360PNCE   C2B 3234  13.640  13.449   7.925  0.3392 -0.3359  0.0307
  360PNCE   C3B 3235  13.719  13.061   7.550 -0.0988 -0.1886  0.0071
  360PNCE   D4B 3236  13.697  12.630   7.507  0.0072 -0.1854  0.2095
  360PNCE   C5B 3237  13.896  12.316   7.743  0.1197 -0.0863  0.2523
  360PNCE   C6B 3238  13.746  12.084   8.162  0.0794  0.2009 -0.1994
  361XCA    COO 3239   0.276   9.273   9.575 -0.0860  0.1605 -0.0771
  361XCA     C1 3240   0.092   9.425   9.186  0.2523  0.2022 -0.1658
  361XCA     C2 3241  -0.139   9.434   8.723  0.4024 -0.1666  0.2218
  361XCA     C3 3242  -0.545   9.561   8.416  0.2243 -0.0163 -0.3972
  361XCA     C4 3243  -0.896   9.264   8.349  0.1705 -0.0003  0.1514
  361XCA     C5 3244  -1.241   9.251   8.230  0.0177 -0.0963 -0.0054
  361XCA     C6 3245  -1.664   9.156   8.141 -0.1094  0.1033 -0.0676
  362CHOL   ROH 3246   9.531  11.528   8.821  0.0732  0.0481 -0.0258
  362CHOL    R1 3247   9.591  11.282   8.696 -0.2149  0.0893 -0.2560
  362CHOL    R2 3248   9.559  11.241   8.425  0.1858  0.5418 -0.3841
  362CHOL    R3 3249   9.820  11.165   8.438  0.0214 -0.0176 -0.0035
  362CHOL    R4 3250   9.720  11.046   8.189  0.2354  0.6353 -0.4283
  362CHOL    R5 3251   9.821  10.941   8.352 -0.2850  0.1228 -0.4021
  362CHOL    C1 3252  10.058  10.861   8.064  0.1097  0.1649 -0.0967
  362CHOL    C2 3253  10.084  10.559   7.960  0.0299  0.0798  0.1074
  363CHOL   ROH 3254  13.504   1.333   8.348  0.1105  0.1689 -0.1007
  363CHOL    R1 3255  13.539   1.427   8.083 -0.0485  0.1633 -0.1254
  363CHOL    R2 3256  13.783   1.420   7.954 -0.0681  0.3851 -0.1864
  363CHOL    R3 3257  13.642   1.286   7.764  0.0130  0.2118 -0.1260
  363CHOL    R4 3258  13.893   1.360   7.632  0.0585  0.0939 -0.0921
  363CHOL    R5 3259  13.692   1.402   7.560  0.0904  0.0262 -0.2119
  363CHOL    C1 3260  13.825   1.200   7.266  0.2083 -0.2383  0.0197
  363CHOL    C2 3261  13.804   0.977   6.941 -0.1435  0.0595  0.1724
  364CHOL   ROH 3262   2.677  13.874   8.723 -0.3417  0.0974  0.0946
  364CHOL    R1 3263   2.630  13.628   8.591 -0.0771  0.1233 -0.0566
  364CHOL    R2 3264   2.391  13.490   8.613  0.1390 -0.2633  0.0413
  364CHOL    R3 3265   2.398  13.502   8.342 -0.1004 -0.0304  0.0440
  364CHOL    R4 3266   2.188  13.307   8.402  0.1337 -0.2672  0.0513
  364CHOL    R5 3267   2.359  13.277   8.270  0.0477 -0.0012 -0.1164
  364CHOL    C1 3268   2.076  13.212   8.024 -0.0941 -0.0507  0.0597
  364CHOL    C2 3269   1.906  13.207   7.718 -0.1431 -0.1538  0.1040
  365CHOL   ROH 3270   9.084   6.450   7.053  0.0687  0.0680 -0.0888
  365CHOL    R1 3271   8.951   6.400   6.809  0.0535  0.0459 -0.0760
  365CHOL    R2 3272   8.919   6.145   6.706 -0.0552  0.0261  0.0070
  365CHOL    R3 3273   8.656   6.216   6.701 -0.0249  0.1396 -0.0235
  365CHOL    R4 3274   8.678   5.992   6.512 -0.1226  0.0435  0.0764
  365CHOL    R5 3275   8.592   6.189   6.471 -0.0364  0.0640 -0.0121
  365CHOL    C1 3276   8.291   5.968   6.394 -0.1335  0.1601  0.0881
  365CHOL    C2 3277   8.124   5.701   6.520 -0.1895  0.0298  0.1806
  366PNCE   AM1 3278  11.100  10.293   9.148 -0.1291 -0.1878 -0.1069
  366PNCE   AM2 3279  10.757  10.402   9.051  0.0674 -0.0828  0.0047
  366PNCE   T1A 3280  11.451  10.320   8.766 -0.0689 -0.0443 -0.0113
  366PNCE   C2A 3281  11.416  10.240   8.314 -0.1631  0.1221 -0.3100
  366PNCE   C3A 3282  11.632  10.102   7.983  0.0885  0.0142 -0.0176
  366PNCE   C1B 3283  10.622  10.628   8.636 -0.5749  0.0085  0.1685
  366PNCE   C2B 3284  10.633  10.658   8.141  0.0970 -0.1982 -0.2694
  366PNCE   C3B 3285  10.823  10.579   7.672 -0.0100  0.2071  0.2568
  366PNCE   D4B 3286  10.803  10.499   7.280  0.0136  0.1941  0.0138
  366PNCE   C5B 3287  10.766  10.059   7.109 -0.1161 -0.0997 -0.3694
  366PNCE   C6B 3288  10.865   9.673   7.125 -0.1171 -0.1653  0.0156
  367CHOL   ROH 3289   4.881   8.544   5.293  0.2478  0.1434  0.1111
  367CHOL    R1 3290   4.929   8.656   5.548  0.2733 -0.0548  0.1955
  367CHOL    R2 3291   4.732   8.782   5.694  0.3894  0.2334  0.1101
  367CHOL    R3 3292   4.807   8.605   5.887 -0.0579  0.0072  0.0897
  367CHOL    R4 3293   4.688   8.831   6.034  0.4649  0.2881  0.1120
  367CHOL    R5 3294   4.886   8.743   6.066  0.2628 -0.2047  0.1218
  367CHOL    C1 3295   4.733   8.693   6.412  0.0889  0.1076  0.0939
  367CHOL    C2 3296   4.874   8.979   6.682 -0.0285  0.2041  0.1941
  368CHOL   ROH 3297   0.215   8.155   9.622  0.0321  0.0496 -0.0447
  368CHOL    R1 3298   0.213   8.282   9.369 -0.0446  0.0197 -0.0591
  368CHOL    R2 3299  -0.018   8.315   9.221 -0.0931  0.0213  0.0166
  368CHOL    R3 3300   0.056   8.576   9.222 -0.0711  0.0153 -0.0401
  368CHOL    R4 3301  -0.147   8.557   9.011 -0.0692 -0.0142 -0.0395
  368CHOL    R5 3302   0.054   8.639   8.990 -0.0619 -0.0357 -0.0544
  368CHOL    C1 3303  -0.153   8.944   8.890 -0.0348 -0.0404 -0.1254
  368CHOL    C2 3304  -0.592   9.127   8.798 -0.0419  0.0798  0.1366
  369PNCE   AM1 3305  14.853   0.296   8.610  0.2569 -0.0669  0.0795
  369PNCE   AM2 3306  14.832  -0.047   8.643  0.2310  0.1578  0.0935
  369PNCE   T1A 3307  14.787   0.043   8.119 -0.0518 -0.0170 -0.0474
  369PNCE   C2A 3308  14.758  -0.077   7.779 -0.2463 -0.2010 -0.1888
  369PNCE   C3A 3309  14.918  -0.148   7.377  0.3049  0.0689 -0.0086
  369PNCE   C1B 3310  14.819  -0.474   8.502 -0.4556  0.0968  0.4610
  369PNCE   C2B 3311  15.077  -0.770   8.682 -0.0956 -0.1364  0.1292
  369PNCE   C3B 3312  15.291  -1.008   8.406  0.3714  0.3045  0.2231
  369PNCE   D4B 3313  15.365  -1.385   8.104 -0.2783  0.1247 -0.3501
  369PNCE   C5B 3314  15.523  -1.747   8.096  0.1859 -0.0715 -0.0071
  369PNCE   C6B 3315  15.815  -2.079   8.081  0.1217  0.0100 -0.2215
  370PNCE   AM1 3316   8.179  13.115   8.182  0.3802 -0.0922  0.1400
  370PNCE   AM2 3317   8.321  13.336   8.135  0.2001 -0.1010 -0.1993
  370PNCE   T1A 3318   8.053  12.819   7.805  0.1374 -0.0947 -0.1633
  370PNCE   C2A 3319   7.863  12.573   7.517 -0.0906 -0.1603 -0.0526
  370PNCE   C3A 3320   7.650  12.273   7.339 -0.0448  0.0164 -0.1012
  370PNCE   C1B 3321   8.728  13.511   7.875 -0.0227 -0.2508 -0.2377
  370PNCE   C2B 3322   8.904  13.632   7.516 -0.1670 -0.0813  0.0846
  370PNCE   C3B 3323   8.943  14.102   7.388 -0.1275  0.1357 -0.1629
  370PNCE   D4B 3324   8.970  14.409   7.152 -0.2026  0.0046 -0.4525
  370PNCE   C5B 3325   8.658  14.818   7.055  0.1006  0.0758  0.0468
  370PNCE   C6B 3326   8.280  15.044   6.801 -0.0462  0.1257 -0.0604
  371CHOL   ROH 3327   7.533   4.416   7.703 -0.0985  0.1341 -0.0117
  371CHOL    R1 3328   7.419   4.455   7.447 -0.2856 -0.0999  0.0329
  371CHOL    R2 3329   7.564   4.554   7.233 -0.5676  0.1949 -0.0229
  371CHOL    R3 3330   7.475   4.329   7.110 -0.1617  0.0049  0.0113
  371CHOL    R4 3331   7.632   4.467   6.906 -0.2592  0.1814  0.0408
  371CHOL    R5 3332   7.427   4.398   6.886 -0.1543 -0.1442 -0.0421
  371CHOL    C1 3333   7.588   4.205   6.600  0.3013 -0.0048  0.1101
  371CHOL    C2 3334   7.586   3.772   6.440 -0.1858  0.2992 -0.0919
  372CHOL   ROH 3335   2.781   3.923   7.007 -0.1077 -0.1461  0.0957
  372CHOL    R1 3336   2.893   4.183   7.010 -0.2246 -0.0917 -0.1223
  372CHOL    R2 3337   2.740   4.410   7.045 -0.2570 -0.1816  0.3641
  372CHOL    R3 3338   2.915   4.459   7.247  0.2748 -0.1589 -0.0785
  372CHOL    R4 3339   2.877   4.719   7.117 -0.4557 -0.0651  0.2567
  372CHOL    R5 3340   3.067   4.619   7.156 -0.1874  0.1366 -0.3821
  372CHOL    C1 3341   3.122   4.944   7.348 -0.0721  0.0241 -0.2215
  372CHOL    C2 3342   3.341   5.187   7.369  0.2488  0.1367  0.0035
  373CHOL   ROH 3343   8.418   5.081   5.162 -0.2478 -0.0615  0.2308
  373CHOL    R1 3344   8.682   5.048   5.257 -0.1856  0.0218  0.0908
  373CHOL    R2 3345   8.740   4.919   5.495 -0.0345  0.2481  0.1812
  373CHOL    R3 3346   8.901   4.768   5.337 -0.1455  0.0892  0.2183
  373CHOL    R4 3347   9.051   4.801   5.587  0.0087  0.2972  0.0989
  373CHOL    R5 3348   9.122   4.846   5.386 -0.1070  0.1097  0.0148
  373CHOL    C1 3349   9.384   4.589   5.492 -0.0703  0.1765  0.0859
  373CHOL    C2 3350   9.514   4.475   5.796 -0.0849 -0.1635 -0.3020
  374XCA    COO 3351   5.279   0.095   7.602 -0.1607  0.2282 -0.1235
  374XCA     C1 3352   5.429   0.257   7.167  0.2008 -0.2270 -0.6089
  374XCA     C2 3353   5.332   0.170   6.811  0.2031 -0.3241  0.3791
  374XCA     C3 3354   5.141   0.224   6.373 -0.2064 -0.1640 -0.0793
  374XCA     C4 3355   4.871   0.281   6.077 -0.1759 -0.0842  0.0963
  374XCA     C5 3356   4.478   0.403   5.926 -0.1126  0.0835  0.0059
  374XCA     C6 3357   4.201   0.175   5.681  0.1649  0.1735 -0.1769
  375CHOL   ROH 3358  10.546  14.261   5.825  0.1201  0.0898  0.1209
  375CHOL    R1 3359  10.416  14.468   5.682  0.0809  0.0601  0.1135
  375CHOL    R2 3360  10.509  14.728   5.680  0.0939  0.0546  0.0152
  375CHOL    R3 3361  10.501  14.695   5.410 -0.0020 -0.0132  0.0258
  375CHOL    R4 3362  10.410  14.970   5.454  0.0713  0.0175 -0.0151
  375CHOL    R5 3363  10.305  14.815   5.342  0.0009  0.0105  0.0589
  375CHOL    C1 3364  10.345  15.080   5.070 -0.0319 -0.0678 -0.0229
  375CHOL    C2 3365   9.979  15.260   5.024  0.1071  0.0196 -0.2463
  376PNCE   AM1 3366   0.596   0.691   7.950  0.1480 -0.2528 -0.0271
  376PNCE   AM2 3367   0.732   0.621   8.294  0.0164  0.5234 -0.1060
  376PNCE   T1A 3368   0.633   0.551   7.511 -0.0422  0.2824  0.2416
  376PNCE   C2A 3369   0.444   0.427   7.148  0.1669 -0.0708  0.0345
  376PNCE   C3A 3370   0.507   0.293   6.655 -0.3008  0.2095  0.0179
  376PNCE   C1B 3371   0.999   0.404   7.881 -0.2021  0.1069 -0.4506
  376PNCE   C2B 3372   1.076   0.129   7.518 -0.0068  0.3312  0.1722
  376PNCE   C3B 3373   1.146  -0.101   7.251 -0.1983 -0.0753  0.1776
  376PNCE   D4B 3374   1.247  -0.538   6.968  0.1239  0.0931 -0.3312
  376PNCE   C5B 3375   1.298  -0.563   6.546  0.0676 -0.1871  0.0044
  376PNCE   C6B 3376   1.527  -0.871   6.174  0.2838 -0.0977 -0.2382
  377XCA    COO 3377  14.300   5.574   9.300 -0.0800 -0.2291 -0.0023
  377XCA     C1 3378  14.471   5.713   8.869 -0.1403 -0.0604 -0.2005
  377XCA     C2 3379  14.466   5.913   8.441  0.0370  0.0719  0.0028
  377XCA     C3 3380  14.289   6.077   8.099 -0.1000  0.2135  0.0817
  377XCA     C4 3381  14.010   5.890   7.789  0.0725 -0.3501  0.2997
  377XCA     C5 3382  13.862   5.481   7.623  0.0937 -0.0550 -0.0768
  377XCA     C6 3383  13.972   5.153   7.274  0.3212  0.1436 -0.0427
  378PNCE   AM1 3384   6.612   5.005   8.291  0.1553  0.0807 -0.1980
  378PNCE   AM2 3385   6.867   5.291   8.113 -0.1124  0.1129  0.0480
  378PNCE   T1A 3386   6.185   5.166   8.238  0.1105 -0.0727  0.0753
  378PNCE   C2A 3387   5.932   5.434   8.251 -0.0625 -0.1299 -0.1365
  378PNCE   C3A 3388   5.935   5.947   8.174  0.0643 -0.0273  0.3380
  378PNCE   C1B 3389   6.831   5.636   7.881  0.0270 -0.0741 -0.0730
  378PNCE   C2B 3390   7.030   5.840   7.392  0.2484  0.1647 -0.0532
  378PNCE   C3B 3391   7.275   5.696   7.009 -0.0587  0.2166 -0.4071
  378PNCE   D4B 3392   7.565   5.502   6.731 -0.0246 -0.2788 -0.1541
  378PNCE   C5B 3393   7.690   4.955   6.686  0.1453  0.3639  0.0190
  378PNCE   C6B 3394   7.396   4.650   6.498  0.1380  0.2496  0.0528
  379CHOL   ROH 3395  10.523   8.751   8.771  0.1921  0.0719  0.0906
  379CHOL    R1 3396  10.398   8.859   8.542  0.0969 -0.0478  0.0846
  379CHOL    R2 3397  10.462   9.109   8.441 -0.0881 -0.0140  0.0457
  379CHOL    R3 3398  10.502   8.970   8.211 -0.0059 -0.0175  0.0622
  379CHOL    R4 3399  10.467   9.250   8.126 -0.0651 -0.0333  0.0375
  379CHOL    R5 3400  10.356   9.076   8.052 -0.0035 -0.0675  0.0272
  379CHOL    C1 3401  10.508   9.202   7.726  0.0255 -0.0479  0.0484
  379CHOL    C2 3402  10.441   9.596   7.501  0.0329  0.0437  0.1584
  380CHOL   ROH 3403   7.087   7.205   8.104 -0.2193 -0.1255 -0.0478
  380CHOL    R1 3404   7.051   7.290   7.836 -0.1265 -0.0413 -0.0347
  380CHOL    R2 3405   7.172   7.165   7.622  0.0376  0.0949 -0.0250
  380CHOL    R3 3406   6.917   7.148   7.529  0.0902  0.0119 -0.1559
  380CHOL    R4 3407   7.082   7.037   7.314  0.2392  0.0664 -0.0728
  380CHOL    R5 3408   6.935   7.197   7.296  0.1951  0.0187 -0.1468
  380CHOL    C1 3409   6.790   6.947   7.047  0.4060 -0.0283 -0.2235
  380CHOL    C2 3410   6.647   6.688   6.885  0.1396  0.0559 -0.1233
  381CHOL   ROH 3411   2.935   9.395   7.435  0.1059 -0.0223  0.2784
  381CHOL    R1 3412   2.751   9.538   7.596 -0.0639  0.0320  0.0415
  381CHOL    R2 3413   2.797   9.797   7.682 -0.0620 -0.0077  0.1647
  381CHOL    R3 3414   2.556   9.844   7.567  0.1247  0.1336 -0.1823
  381CHOL    R4 3415   2.610  10.083   7.726 -0.0900 -0.0208  0.1296
  381CHOL    R5 3416   2.431   9.959   7.735 -0.1283 -0.0047 -0.2712
  381CHOL    C1 3417   2.273  10.294   7.643  0.0690  0.1043 -0.2166
  381CHOL    C2 3418   2.288  10.615   7.978  0.1794 -0.1204 -0.1003
  382PNCE   AM1 3419   3.982   6.566   8.744  0.3492  0.2112  0.4871
  382PNCE   AM2 3420   4.206   6.242   8.776 -0.0973 -0.0659  0.1407
  382PNCE   T1A 3421   4.064   6.652   8.261  0.3581  0.3472  0.2076
  382PNCE   C2A 3422   4.182   6.524   7.852 -0.2964 -0.1461 -0.0165
  382PNCE   C3A 3423   4.288   6.332   7.558 -0.0667 -0.1656 -0.1004
  382PNCE   C1B 3424   3.913   6.121   8.366  0.2437  0.2675 -0.3676
  382PNCE   C2B 3425   3.808   6.233   7.972 -0.3822  0.0444 -0.0787
  382PNCE   C3B 3426   3.496   6.114   7.697  0.0557  0.1880  0.2463
  382PNCE   D4B 3427   3.100   6.039   7.718  0.2523  0.2632  0.2493
  382PNCE   C5B 3428   2.763   5.922   8.071  0.0181 -0.1132 -0.0566
  382PNCE   C6B 3429   2.584   5.843   8.519  0.0924 -0.0799 -0.0200
  383PNCE   AM1 3430  10.156   7.603   8.860  0.1397  0.2015  0.0804
  383PNCE   AM2 3431  10.095   7.908   8.738  0.0740 -0.0291 -0.2701
  383PNCE   T1A 3432  10.167   7.284   8.587  0.0534 -0.0907  0.1922
  383PNCE   C2A 3433  10.506   6.876   8.415 -0.1106 -0.4166  0.2567
  383PNCE   C3A 3434  10.935   6.850   8.299  0.0942 -0.0522  0.0677
  383PNCE   C1B 3435   9.889   8.063   8.398 -0.0041 -0.1990 -0.1481
  383PNCE   C2B 3436  10.045   8.110   8.062 -0.2566 -0.0951 -0.0205
  383PNCE   C3B 3437  10.162   8.134   7.695  0.1755  0.0025 -0.3048
  383PNCE   D4B 3438  10.060   7.907   7.268 -0.0957  0.0851 -0.1580
  383PNCE   C5B 3439  10.080   7.541   7.088 -0.1737 -0.0772 -0.0144
  383PNCE   C6B 3440  10.167   7.074   7.121 -0.2074 -0.3555  0.2897
  384PNCE   AM1 3441   0.322   9.951  10.106  0.2306  0.2409 -0.3015
  384PNCE   AM2 3442   0.015   9.848   9.874  0.4572 -0.4212  0.0463
  384PNCE   T1A 3443   0.666  10.231   9.867 -0.2237  0.0213 -0.0815
  384PNCE   C2A 3444   1.078  10.504   9.779  0.4515 -0.0873 -0.1209
  384PNCE   C3A 3445   1.307  10.804  10.078 -0.3880 -0.1763 -0.0030
  384PNCE   C1B 3446   0.246   9.772   9.558  0.3100  0.4940  0.0429
  384PNCE   C2B 3447   0.540   9.690   9.272 -0.1147 -0.1466  0.0150
  384PNCE   C3B 3448   0.457   9.475   8.877  0.2200  0.1666 -0.2156
  384PNCE   D4B 3449   0.362   9.475   8.519  0.2359 -0.0449  0.2402
  384PNCE   C5B 3450   0.283   9.897   8.493 -0.0157 -0.1714 -0.1823
  384PNCE   C6B 3451   0.562  10.348   8.543 -0.0013 -0.1750  0.0844
  385CHOL   ROH 3452  12.709  13.859   8.499 -0.1242 -0.1903 -0.0518
  385CHOL    R1 3453  12.721  13.693   8.271  0.1333 -0.1050 -0.1035
  385CHOL    R2 3454  12.580  13.747   8.040  0.0122 -0.2719 -0.0710
  385CHOL    R3 3455  12.825  13.728   7.923  0.0400  0.1782 -0.1052
  385CHOL    R4 3456  12.635  13.674   7.706  0.1027 -0.2770 -0.0550
  385CHOL    R5 3457  12.803  13.548   7.767  0.3717  0.0733 -0.0390
  385CHOL    C1 3458  12.898  13.613   7.404  0.1815  0.1424 -0.0777
  385CHOL    C2 3459  13.151  13.610   6.993  0.1064  0.1521 -0.0366
  386PNCE   AM1 3460   0.951   9.442   9.720  0.0519 -0.0252  0.3219
  386PNCE   AM2 3461   1.239   9.222   9.519  0.1315 -0.2594 -0.4268
  386PNCE   T1A 3462   0.837   9.317   9.263 -0.0533 -0.1024  0.2304
  386PNCE   C2A 3463   0.925   9.380   8.868  0.0976 -0.3155  0.2995
  386PNCE   C3A 3464   1.152   9.609   8.477 -0.0712 -0.1031 -0.3777
  386PNCE   C1B 3465   1.474   8.848   9.287 -0.1485 -0.0101  0.0024
  386PNCE   C2B 3466   1.859   8.724   9.183  0.1942  0.0361 -0.1281
  386PNCE   C3B 3467   2.331   8.673   9.287  0.0786 -0.1574 -0.0224
  386PNCE   D4B 3468   2.754   8.774   9.491  0.0024 -0.2133 -0.1752
  386PNCE   C5B 3469   3.016   8.580   9.323  0.1179  0.0636  0.0232
  386PNCE   C6B 3470   3.276   8.502   8.978 -0.2524 -0.3056  0.1385
  387CHOL   ROH 3471   9.922   4.650   4.668  0.0283 -0.1140  0.3926
  387CHOL    R1 3472   9.699   4.643   4.843 -0.0347 -0.1312  0.3124
  387CHOL    R2 3473   9.445   4.715   4.762  0.0157 -0.0081  0.2605
  387CHOL    R3 3474   9.380   4.468   4.858 -0.0976 -0.0364  0.1133
  387CHOL    R4 3475   9.190   4.650   4.987 -0.0467 -0.0305  0.1834
  387CHOL    R5 3476   9.320   4.507   5.086 -0.1191 -0.1387  0.1258
  387CHOL    C1 3477   8.981   4.382   5.207 -0.1893 -0.0700  0.0005
  387CHOL    C2 3478   8.597   4.424   5.333  0.1230  0.1060  0.1514
  388CHOL   ROH 3479   8.601   1.162   5.799  0.0588  0.0212 -0.2065
  388CHOL    R1 3480   8.711   0.942   5.658 -0.1052 -0.0949 -0.1559
  388CHOL    R2 3481   8.960   0.838   5.715 -0.0264 -0.0271 -0.3766
  388CHOL    R3 3482   8.822   0.605   5.738  0.0144 -0.0206 -0.0018
  388CHOL    R4 3483   9.086   0.526   5.638 -0.1115 -0.0779 -0.3129
  388CHOL    R5 3484   8.894   0.475   5.550 -0.2385 -0.1611 -0.0074
  388CHOL    C1 3485   9.031   0.125   5.615 -0.1228 -0.1013  0.0759
  388CHOL    C2 3486   8.977  -0.212   5.865 -0.0659  0.4758 -0.2587
  389PNCE   AM1 3487  14.534   0.856   7.789  0.0274 -0.1861  0.1805
  389PNCE   AM2 3488  14.532   0.414   7.829  0.4245 -0.2425 -0.3894
  389PNCE   T1A 3489  14.368   0.730   7.327  0.1018 -0.2251  0.3327
  389PNCE   C2A 3490  14.337   1.011   6.960  0.2530 -0.0606 -0.0090
  389PNCE   C3A 3491  14.066   1.464   6.930  0.2534  0.1439  0.1461
  389PNCE   C1B 3492  14.733   0.365   7.461  0.2652 -0.2361 -0.0988
  389PNCE   C2B 3493  15.170   0.228   7.440  0.1185  0.1024  0.2187
  389PNCE   C3B 3494  15.584   0.234   7.330  0.0758 -0.4636  0.0883
  389PNCE   D4B 3495  15.840   0.278   6.979  0.1041 -0.0082 -0.5803
  389PNCE   C5B 3496  15.864   0.331   6.600  0.1487 -0.2869 -0.2662
  389PNCE   C6B 3497  16.011   0.296   6.195 -0.1715 -0.1332  0.2118
  390CHOL   ROH 3498   3.874  10.401   5.764  0.0178 -0.0322  0.0308
  390CHOL    R1 3499   3.947  10.520   6.011  0.0146 -0.1461  0.0865
  390CHOL    R2 3500   3.797  10.719   6.130  0.1584 -0.0119  0.0378
  390CHOL    R3 3501   3.801  10.550   6.343 -0.1243 -0.0490  0.0186
  390CHOL    R4 3502   3.716  10.808   6.454  0.3721  0.1127  0.0596
  390CHOL    R5 3503   3.882  10.685   6.524  0.1604 -0.2113  0.0213
  390CHOL    C1 3504   3.673  10.701   6.842  0.2310  0.1503  0.0542
  390CHOL    C2 3505   3.831  10.832   7.266  0.1216  0.1240 -0.4170
  391XCA    COO 3506   6.921   0.234   7.727 -0.0827 -0.4257  0.2064
  391XCA     C1 3507   7.190   0.304   7.378 -0.2732 -0.1390  0.1719
  391XCA     C2 3508   7.276   0.427   6.915  0.0025  0.0546 -0.1278
  391XCA     C3 3509   7.165   0.657   6.591  0.1699 -0.0791  0.3675
  391XCA     C4 3510   7.297   0.832   6.251 -0.2023  0.1539  0.0724
  391XCA     C5 3511   7.296   0.690   5.908 -0.2612  0.0949  0.1223
  391XCA     C6 3512   7.109   0.347   5.737  0.2443 -0.1469 -0.2021
  392CHOL   ROH 3513   1.032   1.563   5.467  0.0287 -0.1519 -0.1518
  392CHOL    R1 3514   1.231   1.383   5.556  0.0685 -0.0513 -0.0330
  392CHOL    R2 3515   1.201   1.226   5.781  0.0283 -0.0423 -0.0298
  392CHOL    R3 3516   1.259   1.024   5.609  0.2059 -0.0330  0.0183
  392CHOL    R4 3517   1.347   0.927   5.871 -0.1788 -0.0986  0.1258
  392CHOL    R5 3518   1.467   0.936   5.689  0.0735 -0.1053  0.2891
  392CHOL    C1 3519   1.488   0.562   5.763 -0.1327 -0.1227  0.2616
  392CHOL    C2 3520   1.764   0.339   6.098  0.1624 -0.0476 -0.1364
  393XCA    COO 3521   1.213   0.450   8.385 -0.1860 -0.0045  0.0376
  393XCA     C1 3522   1.262  -0.008   8.114  0.4628  0.0082 -0.0889
  393XCA     C2 3523   1.140  -0.255   7.785  0.1860  0.0588  0.0687
  393XCA     C3 3524   1.064  -0.615   7.463  0.3315  0.1050  0.3522
  393XCA     C4 3525   0.810  -0.576   7.078 -0.1679 -0.2495 -0.0702
  393XCA     C5 3526   0.650  -0.606   6.651 -0.0387 -0.0079  0.2292
  393XCA     C6 3527   0.557  -0.854   6.213 -0.1462 -0.0803  0.1520
  394PNCE   AM1 3528   0.998   0.941   7.535 -0.0356  0.1959 -0.2043
  394PNCE   AM2 3529   1.190   1.156   7.681 -0.0259  0.0381 -0.0718
  394PNCE   T1A 3530   1.059   0.609   7.245 -0.0979  0.1063 -0.3391
  394PNCE   C2A 3531   0.908   0.232   6.988 -0.0289  0.1987 -0.0649
  394PNCE   C3A 3532   0.885  -0.134   6.811 -0.1044  0.3799  0.1542
  394PNCE   C1B 3533   1.298   1.111   7.254 -0.1900  0.2456 -0.0434
  394PNCE   C2B 3534   1.411   0.764   6.834 -0.2394  0.0460 -0.1150
  394PNCE   C3B 3535   1.405   0.604   6.439 -0.0477 -0.1019 -0.0919
  394PNCE   D4B 3536   1.208   0.614   6.154  0.0931  0.1014  0.0308
  394PNCE   C5B 3537   0.824   0.919   6.100  0.0130 -0.0119 -0.1944
  394PNCE   C6B 3538   0.360   1.142   6.070  0.0201  0.1355 -0.1622
  395CHOL   ROH 3539   6.169   1.319   7.178 -0.1920 -0.3360 -0.2175
  395CHOL    R1 3540   6.037   1.331   6.928 -0.2184 -0.0599 -0.1921
  395CHOL    R2 3541   5.859   1.533   6.863 -0.0487  0.1370 -0.0375
  395CHOL    R3 3542   6.022   1.563   6.648 -0.0575  0.1329 -0.0460
  395CHOL    R4 3543   5.767   1.681   6.565 -0.0309  0.2507  0.0121
  395CHOL    R5 3544   5.878   1.527   6.459 -0.0956  0.2330 -0.0413
  395CHOL    C1 3545   5.866   1.796   6.189 -0.0287  0.3131  0.0330
  395CHOL    C2 3546   5.665   1.988   5.968 -0.3216  0.0736 -0.0676
  396CHOL   ROH 3547   2.458   3.493   8.699  0.1587  0.0414  0.1188
  396CHOL    R1 3548   2.350   3.605   8.462  0.0872  0.0293  0.1450
  396CHOL    R2 3549   2.418   3.857   8.372 -0.0030  0.0582  0.1544
  396CHOL    R3 3550   2.479   3.723   8.143  0.0011  0.0952  0.1344
  396CHOL    R4 3551   2.525   4.006   8.079 -0.0817  0.1130  0.1538
  396CHOL    R5 3552   2.400   3.866   7.968 -0.0599  0.0903  0.1584
  396CHOL    C1 3553   2.645   3.968   7.694 -0.1237  0.1795  0.1345
  396CHOL    C2 3554   2.955   4.029   7.502 -0.1716  0.1522 -0.2082
  397PNCE   AM1 3555  15.472   3.455   8.414 -0.0861  0.1010 -0.3319
  397PNCE   AM2 3556  15.205   3.176   8.338  0.0959  0.3179 -0.2840
  397PNCE   T1A 3557  15.754   3.234   8.196  0.1429 -0.0394  0.3383
  397PNCE   C2A 3558  16.258   3.307   8.030 -0.0673 -0.1168 -0.2574
  397PNCE   C3A 3559  16.659   3.182   7.946  0.0190 -0.2211 -0.1040
  397PNCE   C1B 3560  14.704   3.078   8.173 -0.1871  0.1224 -0.1968
  397PNCE   C2B 3561  14.255   2.927   8.022  0.1482  0.0407 -0.1545
  397PNCE   C3B 3562  13.834   2.771   7.690 -0.0646 -0.0382 -0.1156
  397PNCE   D4B 3563  13.664   2.366   7.446 -0.0381  0.1858  0.0936
  397PNCE   C5B 3564  13.234   2.352   7.289 -0.1043  0.1083 -0.2462
  397PNCE   C6B 3565  12.837   2.295   7.093 -0.1507 -0.2462  0.0300
  398CHOL   ROH 3566   7.816  12.065   5.110  0.3106 -0.1778 -0.0331
  398CHOL    R1 3567   7.734  12.258   5.299  0.1936 -0.1262 -0.1346
  398CHOL    R2 3568   7.710  12.202   5.569  0.0948 -0.0350 -0.1241
  398CHOL    R3 3569   7.877  12.415   5.595  0.0410  0.0083 -0.1302
  398CHOL    R4 3570   7.758  12.381   5.860  0.1060 -0.0642 -0.1081
  398CHOL    R5 3571   7.761  12.564   5.742  0.0293 -0.0454 -0.0836
  398CHOL    C1 3572   7.943  12.685   6.055  0.0620 -0.0407 -0.1045
  398CHOL    C2 3573   7.800  12.867   6.327 -0.0982 -0.0770  0.0636
  399CHOL   ROH 3574  15.613  11.947   9.105 -0.1498  0.2723  0.0551
  399CHOL    R1 3575  15.496  12.019   8.857 -0.0863  0.2529  0.0198
  399CHOL    R2 3576  15.567  12.250   8.721  0.1420  0.1083 -0.1103
  399CHOL    R3 3577  15.613  12.076   8.517 -0.0403 -0.0526 -0.0189
  399CHOL    R4 3578  15.556  12.332   8.386  0.2538 -0.0500 -0.1544
  399CHOL    R5 3579  15.457  12.142   8.347  0.0398  0.0366 -0.0603
  399CHOL    C1 3580  15.593  12.218   7.999  0.1477 -0.2932 -0.0943
  399CHOL    C2 3581  15.817  12.293   7.709  0.1724  0.0507 -0.1570
  400XCA    COO 3582  15.351  14.258   9.199 -0.2305  0.0529  0.1425
  400XCA     C1 3583  15.601  14.307   8.814  0.0620 -0.2926 -0.3949
  400XCA     C2 3584  15.761  14.041   8.557  0.1125 -0.1302 -0.1725
  400XCA     C3 3585  16.125  13.732   8.451  0.2949  0.1987 -0.2291
  400XCA     C4 3586  16.168  13.393   8.229  0.1366  0.2690  0.1701
  400XCA     C5 3587  16.504  13.062   8.273  0.2994  0.1145  0.0971
  400XCA     C6 3588  16.919  13.023   8.253 -0.1874 -0.0265 -0.1635
  401CHOL   ROH 3589   2.959   0.419   8.075  0.0067  0.0464 -0.0043
  401CHOL    R1 3590   2.887   0.460   7.805  0.0886 -0.0145 -0.0359
  401CHOL    R2 3591   3.030   0.352   7.595  0.0626 -0.1909  0.0355
  401CHOL    R3 3592   2.787   0.253   7.523  0.0125 -0.0633  0.0267
  401CHOL    R4 3593   2.981   0.087   7.378 -0.0649 -0.2386  0.1216
  401CHOL    R5 3594   2.813   0.195   7.292  0.0191 -0.1624  0.0520
  401CHOL    C1 3595   2.725  -0.161   7.185 -0.1862 -0.1467  0.1635
  401CHOL    C2 3596   2.759  -0.205   6.811  0.4358  0.0259  0.0307
  402CHOL   ROH 3597   1.874   7.203   9.289 -0.1894  0.0004 -0.0121
  402CHOL    R1 3598   1.839   7.415   9.104 -0.0253  0.0517  0.0139
  402CHOL    R2 3599   2.027   7.616   9.071  0.1719 -0.1305 -0.0204
  402CHOL    R3 3600   2.013   7.541   8.810  0.0256 -0.1019 -0.0212
  402CHOL    R4 3601   2.148   7.801   8.805  0.3983 -0.2942 -0.0338
  402CHOL    R5 3602   1.971   7.744   8.692  0.2997 -0.0364 -0.0084
  402CHOL    C1 3603   2.205   7.838   8.406  0.3928 -0.3626 -0.0422
  402CHOL    C2 3604   2.625   8.050   8.130 -0.0914  0.0544 -0.2788
  403XCA    COO 3605   2.098   9.442   9.685  0.1820  0.0730 -0.0851
  403XCA     C1 3606   2.115   9.148   9.299  0.2874 -0.0223  0.0037
  403XCA     C2 3607   2.088   9.120   8.918 -0.1415  0.0506 -0.2549
  403XCA     C3 3608   2.062   9.169   8.503 -0.2683 -0.1730 -0.0873
  403XCA     C4 3609   1.735   9.004   8.127 -0.3332  0.1707  0.0062
  403XCA     C5 3610   1.415   8.871   7.894 -0.0519  0.0759  0.1656
  403XCA     C6 3611   1.234   8.555   7.821  0.1364 -0.2591 -0.0944
  404XCA    COO 3612  10.580  11.015   4.900 -0.1781  0.1217 -0.1030
  404XCA     C1 3613  10.771  11.241   5.267  0.2161 -0.1001 -0.0415
  404XCA     C2 3614  10.773  11.511   5.599  0.1769  0.3779 -0.3015
  404XCA     C3 3615  10.607  11.714   5.863 -0.2065  0.0935  0.1418
  404XCA     C4 3616  10.581  11.971   6.025 -0.1535  0.0949  0.1220
  404XCA     C5 3617  10.433  12.032   6.509  0.1414 -0.3069  0.2642
  404XCA     C6 3618  10.263  11.826   6.729 -0.2952  0.1918  0.0505
  405PNCE   AM1 3619   4.531  14.325   7.342  0.1280 -0.0154 -0.0399
  405PNCE   AM2 3620   4.243  14.510   7.344 -0.0062 -0.2345 -0.1847
  405PNCE   T1A 3621   4.263  14.019   7.425  0.0208 -0.2754 -0.0018
  405PNCE   C2A 3622   3.923  13.804   7.306  0.3423  0.0440  0.0532
  405PNCE   C3A 3623   3.580  13.716   7.052 -0.2620  0.1044  0.0123
  405PNCE   C1B 3624   4.428  14.339   6.923  0.2561  0.1589  0.0509
  405PNCE   C2B 3625   4.345  14.297   6.487 -0.2535  0.0492  0.0039
  405PNCE   C3B 3626   4.193  14.331   6.122  0.0778 -0.1721 -0.0266
  405PNCE   D4B 3627   4.409  14.437   5.765  0.0569  0.0686  0.0648
  405PNCE   C5B 3628   4.579  14.418   5.379  0.0230  0.1909 -0.0041
  405PNCE   C6B 3629   4.940  14.247   5.188 -0.0044  0.0221  0.1569
  406PNCE   AM1 3630   1.515   1.544   7.779 -0.2694  0.0649  0.2686
  406PNCE   AM2 3631   1.678   1.824   7.787 -0.1272 -0.1146  0.0455
  406PNCE   T1A 3632   1.494   1.624   7.302 -0.1675  0.0665 -0.2051
  406PNCE   C2A 3633   1.552   1.418   6.888 -0.3196 -0.0349 -0.0230
  406PNCE   C3A 3634   1.775   1.074   6.672  0.2584  0.0085  0.2111
  406PNCE   C1B 3635   1.435   2.178   7.702  0.2810 -0.1592  0.0651
  406PNCE   C2B 3636   1.362   2.508   7.528 -0.0922 -0.0315  0.0166
  406PNCE   C3B 3637   1.160   2.747   7.222 -0.0099  0.1838 -0.0997
  406PNCE   D4B 3638   1.171   2.886   6.873 -0.1199  0.1277  0.2037
  406PNCE   C5B 3639   0.875   2.930   6.508  0.0063 -0.0556  0.0735
  406PNCE   C6B 3640   0.555   3.275   6.451 -0.0900  0.0913 -0.0656
  407PNCE   AM1 3641   9.836   2.424   8.140  0.0769 -0.0021  0.0184
  407PNCE   AM2 3642  10.173   2.477   8.156  0.3577 -0.4187 -0.1182
  407PNCE   T1A 3643   9.764   2.306   7.728  0.3340  0.2054 -0.0998
  407PNCE   C2A 3644   9.842   2.318   7.306 -0.1741 -0.3200  0.2042
  407PNCE   C3A 3645   9.565   2.387   6.924 -0.0767 -0.1143 -0.1032
  407PNCE   C1B 3646  10.378   2.497   7.745 -0.1183 -0.1451 -0.3172
  407PNCE   C2B 3647  10.321   2.407   7.300  0.3877  0.0340 -0.1574
  407PNCE   C3B 3648  10.127   2.418   6.875  0.4059  0.0200 -0.1854
  407PNCE   D4B 3649   9.827   2.255   6.427 -0.0065  0.3228 -0.1921
  407PNCE   C5B 3650   9.397   2.430   6.412  0.1836 -0.1811 -0.2619
  407PNCE   C6B 3651   9.040   2.359   6.740 -0.2054  0.1669 -0.2186
  408XCA    COO 3652   1.765   1.734   4.249 -0.3689 -0.0165 -0.0682
  408XCA     C1 3653   1.399   1.518   4.515 -0.0573 -0.1266  0.2008
  408XCA     C2 3654   1.113   1.375   4.918 -0.2262 -0.0691 -0.0278
  408XCA     C3 3655   1.029   1.119   5.238 -0.1678 -0.2445 -0.1934
  408XCA     C4 3656   0.770   0.857   5.456 -0.3073 -0.0496  0.0560
  408XCA     C5 3657   0.446   0.738   5.767  0.2272  0.0046  0.2468
  408XCA     C6 3658   0.230   0.350   5.666 -0.3177 -0.2649  0.1751
  409XCA    COO 3659   6.127   9.926   8.468 -0.4864  0.1252 -0.3409
  409XCA     C1 3660   6.084   9.699   8.073  0.0440  0.0779  0.0259
  409XCA     C2 3661   5.971   9.300   7.856 -0.0381 -0.0701  0.0250
  409XCA     C3 3662   6.114   9.193   7.479 -0.0612  0.2153  0.1929
  409XCA     C4 3663   6.385   9.143   7.225 -0.1900  0.1453  0.1791
  409XCA     C5 3664   6.586   8.976   6.914 -0.3033  0.0981  0.0926
  409XCA     C6 3665   6.472   8.746   6.534 -0.0714 -0.0999 -0.3887
  410CHOL   ROH 3666   6.179  10.678   6.426  0.1581 -0.1932  0.0455
  410CHOL    R1 3667   6.142  10.874   6.626  0.2603 -0.0613 -0.0611
  410CHOL    R2 3668   5.994  10.828   6.854  0.0136  0.2240 -0.1489
  410CHOL    R3 3669   6.221  10.909   6.980  0.0329 -0.0321 -0.0142
  410CHOL    R4 3670   6.015  10.918   7.187 -0.0500  0.1190 -0.1171
  410CHOL    R5 3671   6.148  11.080   7.130  0.1358 -0.0014 -0.0072
  410CHOL    C1 3672   6.240  11.047   7.499 -0.0689 -0.1825  0.0280
  410CHOL    C2 3673   6.083  11.154   7.864 -0.1757 -0.0989  0.0037
  411PNCE   AM1 3674   5.952  14.140   7.861 -0.1770 -0.2778  0.0479
  411PNCE   AM2 3675   6.031  14.400   7.606 -0.0207 -0.0491  0.0154
  411PNCE   T1A 3676   6.152  13.941   7.479  0.0216  0.1650  0.0849
  411PNCE   C2A 3677   6.558  14.051   7.301 -0.0317  0.4790 -0.2314
  411PNCE   C3A 3678   6.905  14.071   7.257 -0.2089  0.0973 -0.1691
  411PNCE   C1B 3679   6.278  14.464   7.240  0.3239 -0.1145  0.0407
  411PNCE   C2B 3680   6.199  14.545   6.837 -0.1348 -0.1241 -0.0076
  411PNCE   C3B 3681   6.194  14.485   6.453  0.0909 -0.2489 -0.2816
  411PNCE   D4B 3682   6.178  14.163   6.171 -0.0282  0.0483  0.1282
  411PNCE   C5B 3683   6.271  13.875   5.764 -0.2006 -0.2149  0.0347
  411PNCE   C6B 3684   6.015  13.614   5.473 -0.0608 -0.1921 -0.1377
  412CHOL   ROH 3685  12.269  11.078   5.789  0.0069 -0.3362  0.1412
  412CHOL    R1 3686  12.469  11.262   5.867 -0.1339 -0.2711  0.3553
  412CHOL    R2 3687  12.608  11.240   6.104  0.1070 -0.6399  0.1818
  412CHOL    R3 3688  12.825  11.250   5.941 -0.0424 -0.0315 -0.0075
  412CHOL    R4 3689  12.928  11.321   6.206  0.1346 -0.6682  0.1214
  412CHOL    R5 3690  12.952  11.436   6.022 -0.1193 -0.1376  0.3900
  412CHOL    C1 3691  13.319  11.377   6.112  0.0104 -0.1137 -0.0916
  412CHOL    C2 3692  13.661  11.533   6.029  0.1194  0.0723  0.1809
  413CHOL   ROH 3693   7.273   4.407   6.148  0.0138 -0.1179  0.2164
  413CHOL    R1 3694   7.258   4.166   6.296 -0.1472 -0.0922  0.2441
  413CHOL    R2 3695   7.019   4.062   6.388 -0.2530 -0.0851 -0.0119
  413CHOL    R3 3696   7.102   3.840   6.255 -0.0891 -0.1050  0.1204
  413CHOL    R4 3697   6.882   3.747   6.425 -0.4166 -0.0458 -0.2595
  413CHOL    R5 3698   7.083   3.664   6.416 -0.4217 -0.1067  0.0854
  413CHOL    C1 3699   6.880   3.355   6.322 -0.3580 -0.0418 -0.2794
  413CHOL    C2 3700   6.632   3.201   6.292  0.0746  0.1034 -0.0325
  414CHOL   ROH 3701   5.186  10.365   5.441  0.0932 -0.0487 -0.1070
  414CHOL    R1 3702   5.101  10.481   5.684  0.1830 -0.2913  0.0439
  414CHOL    R2 3703   5.236  10.445   5.923  0.6082 -0.0676 -0.1549
  414CHOL    R3 3704   5.237  10.717   5.926  0.0305 -0.0542 -0.0956
  414CHOL    R4 3705   5.323  10.639   6.195  0.5028  0.0503 -0.2035
  414CHOL    R5 3706   5.159  10.773   6.146  0.1476 -0.2783  0.0093
  414CHOL    C1 3707   5.374  11.007   6.358 -0.1009  0.1315 -0.1762
  414CHOL    C2 3708   5.506  11.047   6.728  0.2159  0.1798  0.2542
  415XCA    COO 3709   0.891   5.405   9.041  0.2013 -0.0030 -0.2546
  415XCA     C1 3710   0.978   5.758   8.760  0.0958 -0.0852 -0.0372
  415XCA     C2 3711   0.820   6.089   8.566 -0.0800  0.1466 -0.2093
  415XCA     C3 3712   0.534   5.968   8.142  0.0708 -0.0713  0.0197
  415XCA     C4 3713   0.127   5.955   7.903 -0.0682 -0.0081  0.1068
  415XCA     C5 3714  -0.347   5.893   7.743  0.1885  0.1310  0.2125
  415XCA     C6 3715  -0.454   5.741   7.339  0.1909 -0.2014 -0.1370
  416PNCE   AM1 3716   5.754  10.607   4.790 -0.4346 -0.4413 -0.1806
  416PNCE   AM2 3717   5.515  10.530   5.121 -0.0341 -0.0229 -0.0577
  416PNCE   T1A 3718   5.956  10.639   5.252  0.3093  0.1329 -0.2959
  416PNCE   C2A 3719   6.060  10.843   5.585  0.0714  0.5209  0.2065
  416PNCE   C3A 3720   6.416  10.887   5.419 -0.1368 -0.0539  0.1273
  416PNCE   C1B 3721   5.506  10.764   5.537  0.0661 -0.0765  0.0762
  416PNCE   C2B 3722   5.547  11.038   5.899  0.0864 -0.0001  0.1126
  416PNCE   C3B 3723   5.634  11.435   6.125 -0.0257 -0.1977  0.1593
  416PNCE   D4B 3724   6.070  11.536   6.270  0.0207 -0.0758 -0.3380
  416PNCE   C5B 3725   6.487  11.284   6.380  0.3181  0.0367 -0.1451
  416PNCE   C6B 3726   6.571  10.836   6.091  0.0452 -0.0501 -0.0304
  417CHOL   ROH 3727   7.452   3.844   4.667 -0.1899 -0.1609 -0.0329
  417CHOL    R1 3728   7.483   3.855   4.948  0.1447 -0.1239 -0.0684
  417CHOL    R2 3729   7.312   3.724   5.122  0.0551  0.2954  0.1611
  417CHOL    R3 3730   7.543   3.617   5.217 -0.0569 -0.1613 -0.0515
  417CHOL    R4 3731   7.350   3.583   5.435  0.1671  0.7228  0.3491
  417CHOL    R5 3732   7.546   3.677   5.448  0.4712  0.2432 -0.1377
  417CHOL    C1 3733   7.589   3.399   5.706  0.1271  0.5430  0.2589
  417CHOL    C2 3734   7.912   3.191   5.910  0.0718  0.0976 -0.1602
  418CHOL   ROH 3735   8.668   4.161   8.099  0.0593  0.1759 -0.0014
  418CHOL    R1 3736   8.814   4.185   7.857  0.0482 -0.0434 -0.0312
  418CHOL    R2 3737   8.920   3.967   7.725 -0.2328 -0.1936 -0.0043
  418CHOL    R3 3738   8.779   4.067   7.515 -0.1469 -0.0704 -0.0054
  418CHOL    R4 3739   8.952   3.861   7.397 -0.0494  0.0230 -0.0591
  418CHOL    R5 3740   8.936   4.069   7.334 -0.0488  0.0725  0.0719
  418CHOL    C1 3741   8.838   3.894   7.009  0.1381  0.2649 -0.0919
  418CHOL    C2 3742   8.986   3.926   6.675  0.1002  0.0045  0.2270
  419XCA    COO 3743   6.797   9.130   4.988 -0.0137  0.0878  0.1053
  419XCA     C1 3744   6.478   8.869   5.287  0.3719 -0.1859  0.0470
  419XCA     C2 3745   6.372   8.604   5.518 -0.1483 -0.2462 -0.2577
  419XCA     C3 3746   6.569   8.296   5.779 -0.1001 -0.1320 -0.2288
  419XCA     C4 3747   6.288   8.051   5.862  0.0243 -0.1576  0.0248
  419XCA     C5 3748   6.223   7.908   6.322 -0.0221 -0.0049  0.2427
  419XCA     C6 3749   6.231   7.536   6.578  0.0871 -0.1115  0.0812
  420PNCE   AM1 3750  14.777   3.851   8.679  0.0878 -0.0148  0.0528
  420PNCE   AM2 3751  15.171   3.848   8.662  0.0002  0.0261  0.0760
  420PNCE   T1A 3752  14.571   3.849   8.283 -0.1750  0.3339 -0.1646
  420PNCE   C2A 3753  14.759   4.033   7.919 -0.0911  0.0343 -0.2989
  420PNCE   C3A 3754  15.020   4.122   7.562 -0.0353 -0.0946  0.0181
  420PNCE   C1B 3755  15.305   4.147   8.364 -0.0755 -0.0416  0.0368
  420PNCE   C2B 3756  15.546   4.236   7.998 -0.4772 -0.2723  0.1090
  420PNCE   C3B 3757  15.623   4.394   7.587 -0.1157 -0.1588  0.1066
  420PNCE   D4B 3758  15.980   4.273   7.190  0.0587  0.0688 -0.0291
  420PNCE   C5B 3759  16.043   4.636   7.064  0.1219 -0.3096  0.0792
  420PNCE   C6B 3760  16.351   4.839   6.903  0.0532 -0.1878 -0.0322
  421CHOL   ROH 3761   5.861   7.762   5.054 -0.1498  0.0052  0.0601
  421CHOL    R1 3762   5.850   7.714   5.333 -0.2849  0.0913  0.0713
  421CHOL    R2 3763   5.612   7.685   5.470 -0.3519 -0.1301 -0.0813
  421CHOL    R3 3764   5.724   7.451   5.550 -0.1382  0.0219  0.0731
  421CHOL    R4 3765   5.522   7.510   5.753 -0.4200 -0.1913 -0.1409
  421CHOL    R5 3766   5.733   7.467   5.788 -0.3993  0.0773  0.0803
  421CHOL    C1 3767   5.575   7.188   5.994 -0.2591 -0.0843 -0.0305
  421CHOL    C2 3768   5.291   7.008   6.132 -0.1240  0.3217  0.2780
  422PNCE   AM1 3769  14.745   5.303   8.774 -0.2734  0.0421 -0.1103
  422PNCE   AM2 3770  15.087   5.244   9.011 -0.2269  0.4637 -0.0319
  422PNCE   T1A 3771  14.782   5.481   8.394 -0.0829 -0.4079 -0.1098
  422PNCE   C2A 3772  14.762   5.664   8.016 -0.3085  0.2279 -0.2367
  422PNCE   C3A 3773  14.867   5.823   7.677 -0.0688 -0.2021  0.0198
  422PNCE   C1B 3774  15.326   5.481   8.635 -0.2682 -0.4713  0.1001
  422PNCE   C2B 3775  15.422   5.848   8.353 -0.0153  0.3111  0.1301
  422PNCE   C3B 3776  15.600   6.261   8.172 -0.1663  0.0522  0.2729
  422PNCE   D4B 3777  15.603   6.687   7.945  0.4161  0.1205 -0.0435
  422PNCE   C5B 3778  15.340   6.949   7.672  0.0978  0.0630 -0.3641
  422PNCE   C6B 3779  14.972   7.200   7.707  0.3788 -0.3098  0.0211
  423PNCE   AM1 3780   1.776   2.641   8.443 -0.2439  0.1455  0.0866
  423PNCE   AM2 3781   2.104   2.590   8.372 -0.3315  0.0767 -0.1550
  423PNCE   T1A 3782   1.729   2.995   8.149  0.1543 -0.3811  0.0697
  423PNCE   C2A 3783   1.737   3.301   7.830 -0.0465  0.1134 -0.2933
  423PNCE   C3A 3784   1.838   3.332   7.418  0.1110 -0.2645  0.0732
  423PNCE   C1B 3785   2.179   2.857   8.088 -0.5672  0.2323 -0.0135
  423PNCE   C2B 3786   2.125   2.998   7.650  0.1000 -0.0155 -0.2657
  423PNCE   C3B 3787   2.046   2.949   7.123  0.0167 -0.2191  0.2656
  423PNCE   D4B 3788   2.073   3.033   6.750  0.0217  0.0397  0.2686
  423PNCE   C5B 3789   2.272   2.922   6.381 -0.0646 -0.0829 -0.1962
  423PNCE   C6B 3790   2.477   2.638   6.063  0.1366 -0.4004 -0.1229
  424CHOL   ROH 3791  12.214   1.660   5.351  0.0916  0.0308 -0.0317
  424CHOL    R1 3792  12.495   1.676   5.383  0.0931  0.0140 -0.0281
  424CHOL    R2 3793  12.627   1.915   5.421  0.1240  0.0241 -0.1539
  424CHOL    R3 3794  12.726   1.789   5.640  0.0911  0.1294 -0.0788
  424CHOL    R4 3795  12.945   1.961   5.548  0.1553 -0.0373 -0.2114
  424CHOL    R5 3796  12.955   1.746   5.586  0.0637 -0.0113 -0.0677
  424CHOL    C1 3797  13.223   1.869   5.828  0.1426  0.0257 -0.1745
  424CHOL    C2 3798  13.460   1.931   5.689  0.0366 -0.1175  0.1701
  425PNCE   AM1 3799  12.653   8.531   9.207 -0.3059 -0.2191  0.0485
  425PNCE   AM2 3800  12.862   8.782   9.177  0.0111 -0.1355 -0.0013
  425PNCE   T1A 3801  12.675   8.224   8.848 -0.1540 -0.2676  0.1051
  425PNCE   C2A 3802  12.465   8.054   8.556  0.0514  0.2335  0.0509
  425PNCE   C3A 3803  12.408   7.899   8.124  0.0709 -0.2126 -0.0740
  425PNCE   C1B 3804  13.028   8.717   8.651 -0.0249  0.0372  0.0565
  425PNCE   C2B 3805  13.332   8.831   8.275  0.3825 -0.0995  0.1304
  425PNCE   C3B 3806  13.824   8.851   8.215  0.0044 -0.0158 -0.1051
  425PNCE   D4B 3807  14.120   8.700   7.974 -0.4184  0.0225 -0.1102
  425PNCE   C5B 3808  14.385   9.037   7.684  0.1400 -0.0246 -0.1934
  425PNCE   C6B 3809  14.181   9.199   7.325 -0.2839  0.3321  0.1016
  426PNCE   AM1 3810  14.130   0.058   7.764 -0.0403  0.0447 -0.0975
  426PNCE   AM2 3811  13.973   0.302   7.553 -0.2118  0.2076 -0.2262
  426PNCE   T1A 3812  14.415  -0.017   7.441  0.0115 -0.1133  0.0090
  426PNCE   C2A 3813  14.631  -0.359   6.987 -0.1004  0.0626 -0.0510
  426PNCE   C3A 3814  15.031  -0.563   6.814  0.1858  0.0221  0.3206
  426PNCE   C1B 3815  14.049   0.355   7.060 -0.1591  0.0988 -0.1963
  426PNCE   C2B 3816  13.913   0.556   6.715  0.0996  0.2548  0.0599
  426PNCE   C3B 3817  13.880   0.807   6.402  0.0324 -0.0480 -0.1163
  426PNCE   D4B 3818  14.020   0.976   6.083  0.0535 -0.1003 -0.0428
  426PNCE   C5B 3819  14.360   0.885   6.045 -0.3637  0.0061  0.1832
  426PNCE   C6B 3820  14.533   0.507   5.997  0.1428  0.0330 -0.4260
  427PNCE   AM1 3821   7.686   6.110   8.404  0.0452 -0.0938 -0.2559
  427PNCE   AM2 3822   7.364   6.034   8.531 -0.0211 -0.1275 -0.0076
  427PNCE   T1A 3823   7.783   6.010   7.957  0.2089 -0.4130  0.1860
  427PNCE   C2A 3824   7.813   6.001   7.474  0.1499  0.1074 -0.0248
  427PNCE   C3A 3825   7.743   5.867   7.027  0.0444 -0.2500 -0.1205
  427PNCE   C1B 3826   7.354   5.782   8.199  0.0287  0.2438  0.1189
  427PNCE   C2B 3827   7.492   5.588   7.790  0.0002 -0.3131 -0.4068
  427PNCE   C3B 3828   7.761   5.514   7.400  0.0956  0.0663 -0.0426
  427PNCE   D4B 3829   8.184   5.725   7.197  0.0390 -0.0832 -0.0384
  427PNCE   C5B 3830   8.217   6.092   6.831 -0.1014 -0.0298  0.1513
  427PNCE   C6B 3831   8.161   6.393   6.506 -0.1062  0.1292  0.1201
  428PNCE   AM1 3832   5.455   1.236   7.360  0.1012 -0.0243  0.1421
  428PNCE   AM2 3833   5.169   1.369   7.456  0.3274 -0.0471  0.1373
  428PNCE   T1A 3834   5.647   1.064   6.995  0.1569  0.2903  0.0121
  428PNCE   C2A 3835   5.579   1.235   6.622 -0.0308  0.1273 -0.0248
  428PNCE   C3A 3836   5.529   1.091   6.184 -0.2201  0.1017 -0.3534
  428PNCE   C1B 3837   5.139   1.233   6.977  0.1520  0.3278 -0.0423
  428PNCE   C2B 3838   5.088   1.088   6.544 -0.1969  0.1135  0.2871
  428PNCE   C3B 3839   4.856   1.183   6.342 -0.4056  0.1332  0.1261
  428PNCE   D4B 3840   4.579   1.322   6.079  0.1390  0.0068  0.1661
  428PNCE   C5B 3841   4.655   1.580   5.760 -0.0932  0.0211  0.2280
  428PNCE   C6B 3842   4.962   1.553   5.454  0.0518  0.0305  0.0590
  429CHOL   ROH 3843   6.592   5.531   4.834  0.0480  0.0947  0.1465
  429CHOL    R1 3844   6.697   5.541   5.097  0.0786  0.0530  0.1370
  429CHOL    R2 3845   6.633   5.743   5.275  0.2119  0.1081  0.1320
  429CHOL    R3 3846   6.562   5.535   5.435  0.1021  0.1571  0.1464
  429CHOL    R4 3847   6.651   5.745   5.620  0.0347  0.1734  0.1414
  429CHOL    R5 3848   6.723   5.539   5.613  0.0065  0.1681  0.2264
  429CHOL    C1 3849   6.595   5.551   5.972 -0.1715  0.2573  0.1603
  429CHOL    C2 3850   6.539   5.274   6.288  0.1917  0.1505  0.2377
  430PNCE   AM1 3851  11.966  10.876   9.484  0.1472 -0.1606  0.1187
  430PNCE   AM2 3852  11.979  11.258   9.507 -0.3048 -0.4004 -0.2392
  430PNCE   T1A 3853  11.660  10.875   9.190  0.0559  0.0957 -0.3374
  430PNCE   C2A 3854  11.324  11.011   8.862 -0.1138  0.0989  0.1007
  430PNCE   C3A 3855  11.075  10.702   8.541 -0.2190  0.2193  0.0844
  430PNCE   C1B 3856  12.112  11.145   9.052  0.2130 -0.2988  0.1918
  430PNCE   C2B 3857  11.875  11.053   8.705  0.1134 -0.1171  0.0143
  430PNCE   C3B 3858  11.684  10.939   8.324 -0.1591  0.4037 -0.1792
  430PNCE   D4B 3859  11.580  10.663   7.893 -0.2217 -0.1150 -0.2736
  430PNCE   C5B 3860  11.608  10.748   7.468 -0.1183 -0.3007  0.0681
  430PNCE   C6B 3861  11.366  10.742   6.992  0.1415 -0.3023  0.0787
  431PNCE   AM1 3862  14.965  14.251   8.886  0.1018 -0.0757  0.3746
  431PNCE   AM2 3863  14.854  14.547   9.079 -0.2349 -0.2591  0.1722
  431PNCE   T1A 3864  15.048  14.191   8.457  0.0655  0.2225  0.0511
  431PNCE   C2A 3865  14.972  14.119   8.010 -0.0193  0.1458  0.3157
  431PNCE   C3A 3866  14.816  14.066   7.529  0.2301 -0.1235 -0.0966
  431PNCE   C1B 3867  14.806  14.616   8.615 -0.2564 -0.3686  0.2321
  431PNCE   C2B 3868  14.751  14.517   8.174 -0.0655 -0.0137 -0.0929
  431PNCE   C3B 3869  14.581  14.456   7.744  0.0668  0.0620  0.2326
  431PNCE   D4B 3870  14.306  14.611   7.400 -0.1428 -0.0481 -0.0507
  431PNCE   C5B 3871  14.499  14.716   7.065 -0.2002  0.1689  0.1311
  431PNCE   C6B 3872  14.539  15.029   6.810 -0.0040 -0.3082 -0.0023
  432XCA    COO 3873   4.024   0.630   3.817  0.1183  0.2834 -0.2188
  432XCA     C1 3874   4.371   0.460   4.089 -0.0589  0.3012  0.0955
  432XCA     C2 3875   4.259   0.524   4.585 -0.2377  0.0200  0.3857
  432XCA     C3 3876   4.149   0.454   4.968 -0.0960  0.1589  0.0825
  432XCA     C4 3877   3.852   0.300   5.364 -0.1883 -0.0648 -0.2001
  432XCA     C5 3878   3.671   0.260   5.741  0.1234  0.0684  0.3316
  432XCA     C6 3879   3.743   0.019   6.027  0.2241  0.2902 -0.3262
  433XCA    COO 3880  11.732   0.973   4.918 -0.2990 -0.2287 -0.0798
  433XCA     C1 3881  11.784   0.847   5.370  0.2511  0.2669 -0.0037
  433XCA     C2 3882  11.768   0.581   5.793 -0.0478  0.1585  0.0355
  433XCA     C3 3883  11.998   0.279   6.149 -0.1660 -0.1560  0.0749
  433XCA     C4 3884  12.454   0.064   6.284  0.6306 -0.2216  0.1256
  433XCA     C5 3885  12.915   0.112   6.266 -0.1361 -0.2813 -0.0464
  433XCA     C6 3886  13.312  -0.003   6.197 -0.4060 -0.0001  0.0651
  434CHOL   ROH 3887   7.022  14.673   6.260 -0.0383  0.1285  0.0393
  434CHOL    R1 3888   7.093  14.651   5.987  0.0017 -0.0156  0.0606
  434CHOL    R2 3889   7.131  14.872   5.825 -0.1586 -0.1012 -0.0971
  434CHOL    R3 3890   7.371  14.754   5.777 -0.0604  0.0513  0.0104
  434CHOL    R4 3891   7.271  14.831   5.512 -0.1312 -0.2815 -0.0629
  434CHOL    R5 3892   7.338  14.633   5.573  0.0358 -0.1709  0.1241
  434CHOL    C1 3893   7.579  14.697   5.284 -0.0231 -0.2433  0.0579
  434CHOL    C2 3894   7.445  14.731   4.826 -0.1351 -0.2760  0.2493
  435CHOL   ROH 3895   7.907   7.498   8.107 -0.0557  0.1467  0.0377
  435CHOL    R1 3896   8.050   7.477   7.864  0.0667  0.2217  0.1021
  435CHOL    R2 3897   7.926   7.472   7.617  0.1630 -0.0500  0.0544
  435CHOL    R3 3898   8.095   7.679   7.564 -0.0802  0.1479  0.0294
  435CHOL    R4 3899   7.944   7.640   7.315  0.1248 -0.2239 -0.0457
  435CHOL    R5 3900   8.161   7.644   7.336  0.1117  0.0838  0.0928
  435CHOL    C1 3901   8.114   7.931   7.090 -0.1256 -0.1394 -0.1274
  435CHOL    C2 3902   8.081   7.769   6.818 -0.3084  0.0463 -0.1211
  436XCA    COO 3903   1.625  10.440   5.730 -0.0791  0.2024  0.0430
  436XCA     C1 3904   1.322  10.698   6.022  0.2936  0.0007 -0.1346
  436XCA     C2 3905   1.236  11.001   6.359 -0.1134  0.3100  0.5222
  436XCA     C3 3906   1.263  11.168   6.720 -0.1314  0.2173  0.0215
  436XCA     C4 3907   1.161  11.454   6.997 -0.0738  0.3453 -0.0337
  436XCA     C5 3908   0.923  11.609   7.157  0.2718 -0.0853  0.1658
  436XCA     C6 3909   0.696  11.894   7.388  0.2438 -0.0230 -0.0188
  437CHOL   ROH 3910   3.449   6.489   6.045  0.0232  0.0360 -0.0877
  437CHOL    R1 3911   3.687   6.447   6.193  0.0311 -0.0229 -0.1158
  437CHOL    R2 3912   3.686   6.405   6.466  0.0552 -0.0004 -0.1110
  437CHOL    R3 3913   3.827   6.182   6.399 -0.0215 -0.0481 -0.1128
  437CHOL    R4 3914   3.928   6.256   6.664  0.1317  0.0191 -0.1898
  437CHOL    R5 3915   4.047   6.222   6.485  0.0311 -0.0612 -0.2414
  437CHOL    C1 3916   4.200   5.960   6.716  0.1043 -0.0143 -0.2373
  437CHOL    C2 3917   4.626   5.890   6.783 -0.2534 -0.0048 -0.0268
  438PNCE   AM1 3918   6.501  14.930   7.812  0.1070 -0.0155  0.0123
  438PNCE   AM2 3919   6.726  15.228   7.712  0.2816  0.0297  0.1064
  438PNCE   T1A 3920   6.457  14.873   7.411  0.0788  0.1291 -0.0302
  438PNCE   C2A 3921   6.668  14.897   7.008 -0.0486  0.5526  0.1536
  438PNCE   C3A 3922   6.669  14.582   6.598  0.2376 -0.0697  0.1301
  438PNCE   C1B 3923   6.770  15.338   7.288  0.0852 -0.4316  0.0840
  438PNCE   C2B 3924   6.923  15.293   6.887 -0.1162  0.1347  0.0495
  438PNCE   C3B 3925   7.005  15.408   6.414 -0.1751 -0.3386 -0.2596
  438PNCE   D4B 3926   6.985  15.261   6.083 -0.3878  0.3764 -0.0838
  438PNCE   C5B 3927   7.377  15.275   5.782  0.2032  0.0071  0.0189
  438PNCE   C6B 3928   7.712  15.162   5.505 -0.1207  0.0637 -0.1640
  439XCA    COO 3929  12.321  10.247   9.284 -0.3063 -0.1025  0.1401
  439XCA     C1 3930  12.103  10.491   8.951  0.1166  0.0696  0.1987
  439XCA     C2 3931  11.939  10.544   8.494  0.0982 -0.0990  0.0799
  439XCA     C3 3932  12.121  10.519   8.102 -0.2631  0.5011 -0.0106
  439XCA     C4 3933  12.363  10.671   7.811 -0.1277  0.1573  0.2211
  439XCA     C5 3934  12.502  11.003   7.664  0.1149 -0.0739  0.0383
  439XCA     C6 3935  12.297  11.282   7.462  0.2780 -0.2370 -0.1551
  440CHOL   ROH 3936  13.885  14.821   8.289 -0.0450  0.0548  0.0789
  440CHOL    R1 3937  13.916  14.765   8.013 -0.1227 -0.0098  0.0828
  440CHOL    R2 3938  13.704  14.687   7.853 -0.2141  0.1734  0.1105
  440CHOL    R3 3939  13.785  14.898   7.700 -0.0231  0.0787  0.0782
  440CHOL    R4 3940  13.567  14.774   7.548 -0.0074  0.1397  0.0064
  440CHOL    R5 3941  13.768  14.818   7.475  0.0546  0.0092  0.0968
  440CHOL    C1 3942  13.563  15.022   7.227  0.2921  0.0311 -0.0846
  440CHOL    C2 3943  13.732  15.353   7.026  0.1710 -0.2493  0.3695
  441CHOL   ROH 3944   1.771   7.402   5.674 -0.0455 -0.0841 -0.0311
  441CHOL    R1 3945   1.624   7.207   5.818  0.0362 -0.1642 -0.0557
  441CHOL    R2 3946   1.712   6.947   5.849  0.2060 -0.0976  0.0160
  441CHOL    R3 3947   1.677   7.001   6.113  0.0705 -0.0829 -0.0040
  441CHOL    R4 3948   1.715   6.711   6.101 -0.0839 -0.1074  0.0140
  441CHOL    R5 3949   1.549   6.816   6.195 -0.0864 -0.0153 -0.0875
  441CHOL    C1 3950   1.683   6.624   6.496 -0.3798 -0.0992 -0.0059
  441CHOL    C2 3951   1.353   6.584   6.790 -0.1901  0.4673  0.1686
  442CHOL   ROH 3952   7.404   8.988   8.921  0.0854  0.0311 -0.0659
  442CHOL    R1 3953   7.393   8.832   8.685  0.0446  0.1018 -0.1109
  442CHOL    R2 3954   7.414   8.942   8.433  0.2006  0.1551 -0.0748
  442CHOL    R3 3955   7.614   8.760   8.405  0.0789  0.0176 -0.0629
  442CHOL    R4 3956   7.561   8.854   8.133  0.1791  0.0780 -0.0632
  442CHOL    R5 3957   7.563   8.647   8.200  0.0263  0.0691 -0.0793
  442CHOL    C1 3958   7.834   8.632   7.932  0.0523 -0.0959 -0.0453
  442CHOL    C2 3959   8.179   8.555   7.746  0.0239  0.1121 -0.2608
  443CHOL   ROH 3960   0.225  13.240   5.165 -0.0924 -0.4843 -0.1310
  443CHOL    R1 3961   0.196  13.377   5.411 -0.1480 -0.3878 -0.1922
  443CHOL    R2 3962  -0.036  13.367   5.560 -0.1042 -0.5007 -0.1411
  443CHOL    R3 3963   0.132  13.288   5.758 -0.0007 -0.2669 -0.1310
  443CHOL    R4 3964  -0.101  13.398   5.898 -0.1918 -0.6070 -0.1468
  443CHOL    R5 3965   0.108  13.455   5.928 -0.2669 -0.3005 -0.1247
  443CHOL    C1 3966   0.020  13.341   6.281 -0.1457 -0.4494 -0.1406
  443CHOL    C2 3967  -0.164  13.516   6.519  0.1996  0.1221  0.0313
  444CHOL   ROH 3968   1.641   8.373   9.414  0.1832  0.1310  0.0971
  444CHOL    R1 3969   1.543   8.363   9.148  0.0215  0.0242  0.1585
  444CHOL    R2 3970   1.321   8.505   9.066  0.0294  0.0730  0.2119
  444CHOL    R3 3971   1.491   8.600   8.877 -0.0384 -0.1024  0.0597
  444CHOL    R4 3972   1.223   8.647   8.766 -0.0753 -0.0622  0.1808
  444CHOL    R5 3973   1.388   8.542   8.669 -0.1731 -0.1811  0.1504
  444CHOL    C1 3974   1.327   8.820   8.414 -0.1998 -0.3056  0.0197
  444CHOL    C2 3975   1.293   9.166   8.368 -0.2222 -0.0269 -0.1622
  445CHOL   ROH 3976  15.451   2.530   4.213 -0.0643  0.1425  0.2222
  445CHOL    R1 3977  15.309   2.448   4.443 -0.2375  0.2468  0.1546
  445CHOL    R2 3978  15.433   2.335   4.662 -0.4532 -0.0932  0.1098
  445CHOL    R3 3979  15.305   2.534   4.797 -0.1386  0.0506  0.2046
  445CHOL    R4 3980  15.339   2.318   4.994 -0.7917 -0.2548  0.0098
  445CHOL    R5 3981  15.152   2.418   4.941 -0.5322  0.2225 -0.0601
  445CHOL    C1 3982  15.164   2.495   5.314 -0.6937 -0.2140  0.0405
  445CHOL    C2 3983  15.070   2.603   5.667 -0.0355  0.0503  0.2147
  446XCA    COO 3984   8.457   2.553   8.044  0.1887  0.1266  0.2598
  446XCA     C1 3985   8.275   2.773   7.641 -0.0535  0.0224  0.0839
  446XCA     C2 3986   8.238   3.088   7.277  0.2229 -0.0018  0.4342
  446XCA     C3 3987   8.156   3.425   7.031  0.0830 -0.0134  0.1364
  446XCA     C4 3988   8.018   3.688   6.704 -0.1492 -0.4141  0.1446
  446XCA     C5 3989   8.049   4.106   6.543  0.0720  0.4454 -0.1022
  446XCA     C6 3990   7.749   4.259   6.197  0.1355 -0.1799 -0.1559
  447PNCE   AM1 3991  15.680   1.171   7.860  0.1649  0.1863  0.2342
  447PNCE   AM2 3992  15.325   1.380   7.617 -0.0219  0.0911  0.0037
  447PNCE   T1A 3993  15.682   1.095   7.452  0.1799  0.1178 -0.1728
  447PNCE   C2A 3994  15.399   1.054   7.096  0.1976 -0.0678 -0.0372
  447PNCE   C3A 3995  15.271   1.294   6.766 -0.0097 -0.0982 -0.0299
  447PNCE   C1B 3996  15.025   1.442   7.267  0.0042  0.3162 -0.2067
  447PNCE   C2B 3997  14.779   1.600   6.953 -0.0181  0.1126 -0.0724
  447PNCE   C3B 3998  14.540   1.503   6.677  0.1529  0.1339  0.1350
  447PNCE   D4B 3999  14.267   1.253   6.472  0.0945 -0.1901 -0.2116
  447PNCE   C5B 4000  13.891   1.348   6.408  0.2816 -0.4033  0.1194
  447PNCE   C6B 4001  13.667   1.584   6.522 -0.0313 -0.0864  0.1407
  448PNCE   AM1 4002  11.848  12.819   4.385 -0.0457  0.1136 -0.0691
  448PNCE   AM2 4003  11.844  13.127   4.339 -0.3090  0.0555 -0.0428
  448PNCE   T1A 4004  11.874  12.880   4.834  0.0158 -0.2348 -0.0412
  448PNCE   C2A 4005  11.811  13.320   5.156  0.3282 -0.1444  0.1780
  448PNCE   C3A 4006  11.542  13.570   5.230 -0.1878  0.0383  0.0404
  448PNCE   C1B 4007  12.035  13.354   4.597  0.1355  0.0490  0.2030
  448PNCE   C2B 4008  12.106  13.682   4.937 -0.0248 -0.0422  0.1376
  448PNCE   C3B 4009  12.035  13.731   5.423  0.0938  0.0995  0.0664
  448PNCE   D4B 4010  11.659  13.899   5.701 -0.0319  0.1359  0.4842
  448PNCE   C5B 4011  11.613  13.566   6.081  0.1309  0.1609  0.0226
  448PNCE   C6B 4012  11.512  13.236   6.293  0.2489  0.2150 -0.3503
  449CHOL   ROH 4013   7.042   8.658   8.392  0.0621 -0.1950  0.2024
  449CHOL    R1 4014   7.096   8.534   8.143 -0.0489 -0.1657  0.1634
  449CHOL    R2 4015   6.952   8.592   7.915 -0.0208  0.0105  0.1877
  449CHOL    R3 4016   7.198   8.641   7.811  0.0120 -0.1482  0.1878
  449CHOL    R4 4017   7.013   8.681   7.586  0.0314  0.0435  0.2064
  449CHOL    R5 4018   7.188   8.551   7.589 -0.0654 -0.0879  0.1671
  449CHOL    C1 4019   7.280   8.780   7.298  0.0926 -0.0865  0.2173
  449CHOL    C2 4020   7.183   8.737   6.932  0.3018 -0.1096 -0.1344
  450PNCE   AM1 4021   2.619  12.370   9.548  0.0772 -0.2159  0.0105
  450PNCE   AM2 4022   2.800  12.654   9.654 -0.1067 -0.0465 -0.2931
  450PNCE   T1A 4023   2.333  12.278   9.189  0.2577 -0.1095  0.0033
  450PNCE   C2A 4024   2.156  12.161   8.833 -0.1987 -0.0783 -0.1203
  450PNCE   C3A 4025   1.951  11.962   8.518  0.0860  0.1466  0.0738
  450PNCE   C1B 4026   2.591  12.891   9.298 -0.2823  0.0290 -0.0626
  450PNCE   C2B 4027   2.277  13.012   9.112 -0.2563  0.0678 -0.1342
  450PNCE   C3B 4028   2.016  13.315   8.785 -0.3244 -0.1450 -0.0683
  450PNCE   D4B 4029   1.754  13.512   8.604  0.1489 -0.0426  0.4568
  450PNCE   C5B 4030   1.308  13.363   8.555  0.0251 -0.2086  0.2406
  450PNCE   C6B 4031   0.856  13.312   8.662 -0.1555  0.2201  0.3412
  451PNCE   AM1 4032  13.469  11.528   9.249  0.0669  0.0823  0.1458
  451PNCE   AM2 4033  13.732  11.565   9.113  0.0706 -0.3190  0.3296
  451PNCE   T1A 4034  13.225  11.752   8.981  0.2682 -0.3382 -0.3970
  451PNCE   C2A 4035  13.263  11.905   8.516 -0.0983 -0.0496  0.0665
  451PNCE   C3A 4036  13.321  11.841   8.105 -0.2364 -0.0057 -0.5074
  451PNCE   C1B 4037  13.603  11.433   8.635  0.3900 -0.0253 -0.3621
  451PNCE   C2B 4038  13.707  11.225   8.297  0.0278  0.0830 -0.1110
  451PNCE   C3B 4039  13.678  11.452   7.937 -0.0949  0.0516  0.2087
  451PNCE   D4B 4040  13.578  11.844   7.704 -0.0929  0.0733 -0.3251
  451PNCE   C5B 4041  13.773  11.663   7.371  0.2745  0.0779  0.2450
  451PNCE   C6B 4042  13.809  11.431   7.027  0.1910  0.0780  0.0462
  452PNCE   AM1 4043  14.961   5.884   9.735 -0.0387 -0.0600  0.1558
  452PNCE   AM2 4044  14.759   5.556   9.660 -0.1825  0.1267  0.3116
  452PNCE   T1A 4045  15.073   6.091   9.367  0.1111 -0.0506  0.4682
  452PNCE   C2A 4046  15.385   6.026   9.016 -0.0586  0.3623  0.0773
  452PNCE   C3A 4047  15.759   5.745   8.896 -0.2068  0.0313 -0.1422
  452PNCE   C1B 4048  14.781   5.576   9.272  0.1316  0.1816  0.0333
  452PNCE   C2B 4049  15.015   5.750   8.932 -0.0664  0.0884  0.1737
  452PNCE   C3B 4050  15.016   5.917   8.523  0.0005  0.1666  0.1481
  452PNCE   D4B 4051  14.980   6.058   8.110  0.1451  0.4954 -0.2219
  452PNCE   C5B 4052  15.012   6.265   7.738 -0.0114 -0.1167  0.3652
  452PNCE   C6B 4053  14.888   6.739   7.781  0.0013  0.0405 -0.0757
  453PNCE   AM1 4054  11.461   1.750   8.403  0.1883 -0.0058  0.0944
  453PNCE   AM2 4055  11.368   1.434   8.428  0.1905  0.0831  0.2846
  453PNCE   T1A 4056  11.145   1.853   8.138 -0.0446 -0.1254 -0.1800
  453PNCE   C2A 4057  11.042   2.029   7.682  0.1119  0.0355 -0.1119
  453PNCE   C3A 4058  11.029   2.061   7.268 -0.0973  0.0904 -0.3229
  453PNCE   C1B 4059  11.444   1.440   8.007  0.2726  0.1094 -0.2616
  453PNCE   C2B 4060  11.316   1.571   7.588  0.2125  0.0106  0.0081
  453PNCE   C3B 4061  11.290   1.654   7.021 -0.1167  0.3415 -0.1851
  453PNCE   D4B 4062  11.361   1.966   6.767 -0.3423 -0.1907  0.1454
  453PNCE   C5B 4063  11.305   1.810   6.306 -0.0426  0.0252 -0.2812
  453PNCE   C6B 4064  10.941   1.731   6.105 -0.0215 -0.2039  0.0260
  454CHOL   ROH 4065   0.503   9.688   8.151 -0.1091 -0.0956  0.0269
  454CHOL    R1 4066   0.715   9.713   8.337 -0.0725 -0.2344  0.0053
  454CHOL    R2 4067   0.801   9.957   8.433  0.1927 -0.2781 -0.1110
  454CHOL    R3 4068   0.755   9.842   8.675  0.0789 -0.1205 -0.0558
  454CHOL    R4 4069   0.914  10.082   8.735  0.1954 -0.1745 -0.1541
  454CHOL    R5 4070   0.959   9.877   8.796  0.0715 -0.1650 -0.0319
  454CHOL    C1 4071   0.937  10.046   9.138  0.0900  0.0337 -0.1276
  454CHOL    C2 4072   1.029  10.358   9.291 -0.0946 -0.3263  0.1504
  455PNCE   AM1 4073  13.254   3.540   8.996  0.1817  0.0762  0.1079
  455PNCE   AM2 4074  13.073   3.360   8.793  0.0572 -0.0504  0.0530
  455PNCE   T1A 4075  13.380   3.647   8.530 -0.0888 -0.0858  0.0472
  455PNCE   C2A 4076  13.532   3.675   8.071 -0.3961  0.0996 -0.0967
  455PNCE   C3A 4077  13.528   3.298   7.699 -0.0950  0.1209 -0.0120
  455PNCE   C1B 4078  12.923   3.308   8.325 -0.1917  0.0220  0.1552
  455PNCE   C2B 4079  13.090   3.447   7.920 -0.0630  0.0531 -0.0137
  455PNCE   C3B 4080  13.085   3.170   7.449  0.0736 -0.2259  0.0760
  455PNCE   D4B 4081  12.886   2.795   7.261 -0.2269 -0.1413  0.0885
  455PNCE   C5B 4082  12.778   2.812   6.856  0.1815 -0.0039  0.0252
  455PNCE   C6B 4083  13.126   2.746   6.606 -0.2085  0.0072  0.0655
  456PNCE   AM1 4084   3.029   4.166   9.243 -0.3505  0.2902  0.1033
  456PNCE   AM2 4085   2.747   3.901   9.252  0.1795  0.1557 -0.2254
  456PNCE   T1A 4086   2.985   4.550   8.950  0.1201  0.2071  0.0019
  456PNCE   C2A 4087   2.947   4.703   8.540  0.1131 -0.1044 -0.0316
  456PNCE   C3A 4088   2.790   4.864   8.153 -0.2256 -0.1915 -0.1830
  456PNCE   C1B 4089   2.810   4.066   8.810 -0.1913 -0.0236 -0.0767
  456PNCE   C2B 4090   2.920   4.101   8.409 -0.0096 -0.0266 -0.0319
  456PNCE   C3B 4091   2.986   4.239   8.001  0.1395  0.2116  0.3062
  456PNCE   D4B 4092   3.065   4.579   7.678 -0.2656 -0.4222  0.3293
  456PNCE   C5B 4093   3.069   5.058   7.796 -0.2270  0.0161 -0.1194
  456PNCE   C6B 4094   3.185   5.313   8.212  0.2397 -0.1817  0.0890
  457PNCE   AM1 4095  11.862   2.754   4.725 -0.0547  0.0732 -0.1317
  457PNCE   AM2 4096  11.914   3.116   4.685  0.0242  0.0238  0.2918
  457PNCE   T1A 4097  11.954   2.660   5.164  0.1550  0.0489  0.2014
  457PNCE   C2A 4098  12.278   2.684   5.588 -0.0650  0.1629 -0.3078
  457PNCE   C3A 4099  12.543   2.597   5.885  0.1598 -0.1147  0.1448
  457PNCE   C1B 4100  12.047   3.107   5.116 -0.2607 -0.3754 -0.0826
  457PNCE   C2B 4101  11.940   3.117   5.477  0.1656  0.1320 -0.2095
  457PNCE   C3B 4102  11.729   2.900   5.726 -0.0239  0.0174 -0.1767
  457PNCE   D4B 4103  11.918   2.485   5.877  0.0359  0.0812 -0.2831
  457PNCE   C5B 4104  11.966   2.418   6.241 -0.1166  0.1936 -0.1246
  457PNCE   C6B 4105  12.034   2.350   6.666 -0.2447  0.1447 -0.1097
  458PNCE   AM1 4106   7.038   3.559   7.982 -0.1473 -0.1155 -0.0238
  458PNCE   AM2 4107   6.959   3.702   8.244 -0.0989  0.3867 -0.2465
  458PNCE   T1A 4108   7.190   3.688   7.590  0.2615 -0.2316 -0.1606
  458PNCE   C2A 4109   7.423   3.799   7.214  0.0228 -0.3228  0.0346
  458PNCE   C3A 4110   7.278   3.874   6.756  0.1903  0.1534 -0.4840
  458PNCE   C1B 4111   6.606   3.978   7.993  0.0002  0.1676 -0.3661
  458PNCE   C2B 4112   6.268   4.251   7.818  0.2151 -0.0493  0.1408
  458PNCE   C3B 4113   6.442   4.650   7.494  0.1910 -0.0793  0.0572
  458PNCE   D4B 4114   6.513   4.955   7.277  0.1352 -0.0558 -0.0590
  458PNCE   C5B 4115   6.135   4.975   6.831 -0.0518  0.1223 -0.1844
  458PNCE   C6B 4116   5.786   4.838   6.821 -0.0133 -0.0824 -0.3241
  459XCA    COO 4117  14.581   6.149   9.872  0.0570  0.0897  0.1093
  459XCA     C1 4118  14.591   6.187   9.387 -0.2417 -0.2851 -0.1742
  459XCA     C2 4119  14.718   6.181   8.868 -0.2311  0.1524 -0.0469
  459XCA     C3 4120  14.761   6.371   8.497  0.2826  0.3404  0.2304
  459XCA     C4 4121  15.019   6.653   8.318  0.1756  0.0753 -0.1740
  459XCA     C5 4122  15.416   6.854   8.536  0.0525  0.0208 -0.6098
  459XCA     C6 4123  15.584   6.954   8.888 -0.2890 -0.1463  0.2262
  460CHOL   ROH 4124  10.540   0.082   8.428 -0.1351 -0.0646 -0.0904
  460CHOL    R1 4125  10.359   0.254   8.294 -0.2036 -0.0619  0.0055
  460CHOL    R2 4126  10.307   0.234   8.024 -0.2168  0.0482  0.0029
  460CHOL    R3 4127  10.049   0.219   8.108 -0.2078 -0.0759  0.0127
  460CHOL    R4 4128  10.031   0.229   7.815 -0.2228  0.0591  0.0102
  460CHOL    R5 4129   9.929   0.360   7.956 -0.2594 -0.0383  0.0828
  460CHOL    C1 4130   9.628   0.213   7.773 -0.2178 -0.0511  0.0235
  460CHOL    C2 4131   9.402   0.250   7.438  0.1594  0.0638  0.1868
  461CHOL   ROH 4132   4.537  11.248   5.553  0.2110 -0.1764 -0.0970
  461CHOL    R1 4133   4.552  11.195   5.831  0.3639 -0.0852 -0.0878
  461CHOL    R2 4134   4.669  11.370   6.010  0.0753  0.1774 -0.1556
  461CHOL    R3 4135   4.429  11.349   6.136  0.1320 -0.2386 -0.0991
  461CHOL    R4 4136   4.621  11.410   6.349  0.0478  0.4645 -0.1900
  461CHOL    R5 4137   4.481  11.243   6.345  0.4269  0.1153  0.0231
  461CHOL    C1 4138   4.368  11.414   6.666  0.0850  0.2412 -0.1571
  461CHOL    C2 4139   4.281  11.801   6.968  0.1694  0.0064 -0.0907
  462CHOL   ROH 4140   8.972  15.136   6.119  0.0086 -0.1804  0.2204
  462CHOL    R1 4141   8.773  14.993   6.261 -0.1459 -0.1508  0.0364
  462CHOL    R2 4142   8.518  15.092   6.300 -0.0981 -0.0144 -0.0084
  462CHOL    R3 4143   8.443  14.856   6.188 -0.2056  0.1076 -0.2008
  462CHOL    R4 4144   8.211  14.941   6.346 -0.0079 -0.1286  0.2424
  462CHOL    R5 4145   8.313  14.748   6.358  0.0550 -0.1299 -0.1413
  462CHOL    C1 4146   7.961  14.631   6.267 -0.0563 -0.0806  0.2078
  462CHOL    C2 4147   7.556  14.519   6.185  0.3412  0.1694 -0.0950
  463CHOL   ROH 4148   5.269  14.865   7.242  0.1452 -0.0304 -0.1494
  463CHOL    R1 4149   5.087  14.744   7.061  0.0572 -0.0697 -0.0356
  463CHOL    R2 4150   5.159  14.669   6.806 -0.0606 -0.1466 -0.0464
  463CHOL    R3 4151   5.061  14.427   6.884 -0.0429 -0.1185  0.0642
  463CHOL    R4 4152   5.010  14.439   6.596 -0.1806 -0.1883  0.0830
  463CHOL    R5 4153   4.864  14.398   6.752 -0.1097 -0.1360  0.1656
  463CHOL    C1 4154   4.831  14.078   6.546 -0.2338 -0.1862  0.2621
  463CHOL    C2 4155   4.798  13.690   6.448  0.1846  0.1336  0.2546
  464CHOL   ROH 4156   6.828   8.112   8.287 -0.0587 -0.2077  0.0435
  464CHOL    R1 4157   6.818   8.073   8.006 -0.0382 -0.2220  0.0451
  464CHOL    R2 4158   6.683   8.244   7.837 -0.0469 -0.2461  0.0303
  464CHOL    R3 4159   6.923   8.257   7.711 -0.0419 -0.2247  0.0413
  464CHOL    R4 4160   6.727   8.320   7.503 -0.0136  0.1834  0.1269
  464CHOL    R5 4161   6.881   8.167   7.493 -0.1082  0.0952 -0.0851
  464CHOL    C1 4162   6.978   8.377   7.190  0.0105  0.4534  0.1934
  464CHOL    C2 4163   6.759   8.506   6.923 -0.0898  0.5033 -0.2653
  465XCA    COO 4164   6.872   6.161   5.186 -0.0339  0.0701 -0.2413
  465XCA     C1 4165   6.967   6.203   5.609  0.0602 -0.1045  0.3739
  465XCA     C2 4166   6.974   5.822   5.901  0.0141  0.2166 -0.0329
  465XCA     C3 4167   6.937   5.621   6.286  0.0802 -0.1575  0.1808
  465XCA     C4 4168   6.787   5.666   6.715  0.0969 -0.2041 -0.0319
  465XCA     C5 4169   6.657   5.729   7.060 -0.2260  0.2740  0.0209
  465XCA     C6 4170   6.504   5.528   7.422  0.1015 -0.1011  0.0012
  466PNCE   AM1 4171   9.968  11.377   9.006  0.1558 -0.3469  0.0992
  466PNCE   AM2 4172  10.162  11.445   9.308  0.0555 -0.0037  0.0208
  466PNCE   T1A 4173  10.244  11.409   8.638 -0.0345  0.1463  0.0986
  466PNCE   C2A 4174  10.303  11.197   8.298  0.0227  0.2172 -0.2536
  466PNCE   C3A 4175  10.670  11.178   8.086  0.1955 -0.1885 -0.1427
  466PNCE   C1B 4176  10.587  11.398   9.042  0.0310  0.0035 -0.1771
  466PNCE   C2B 4177  10.761  11.128   8.781  0.2441 -0.1389  0.0283
  466PNCE   C3B 4178  11.026  11.174   8.392  0.0890 -0.1035  0.1421
  466PNCE   D4B 4179  11.196  11.048   8.044 -0.1995  0.1448 -0.3974
  466PNCE   C5B 4180  11.086  10.977   7.694 -0.1763 -0.0012  0.2648
  466PNCE   C6B 4181  10.689  11.239   7.533 -0.1884  0.0144  0.0378
  467PNCE   AM1 4182  11.167   5.341   8.134  0.0252  0.0191 -0.1893
  467PNCE   AM2 4183  10.850   5.246   8.158  0.0014  0.0322 -0.0345
  467PNCE   T1A 4184  11.002   5.456   7.757 -0.1577 -0.0900 -0.2461
  467PNCE   C2A 4185  10.672   5.644   7.499  0.2158 -0.0335 -0.1522
  467PNCE   C3A 4186  10.604   5.854   7.194  0.3330  0.0322 -0.1652
  467PNCE   C1B 4187  10.678   5.637   8.051  0.3385 -0.0103 -0.2733
  467PNCE   C2B 4188  10.290   5.782   7.866  0.1138  0.0099 -0.2226
  467PNCE   C3B 4189  10.107   6.124   7.857  0.3315  0.1207 -0.0727
  467PNCE   D4B 4190  10.108   6.489   7.651 -0.1008  0.0615  0.1471
  467PNCE   C5B 4191  10.219   6.574   7.186 -0.1040  0.0190 -0.0521
  467PNCE   C6B 4192   9.987   6.663   6.838 -0.4164 -0.0021 -0.2592
  468XCA    COO 4193  14.402  12.897   5.380  0.0831 -0.1240  0.1343
  468XCA     C1 4194  14.257  13.047   5.705  0.2573  0.1769 -0.3051
  468XCA     C2 4195  14.469  13.123   6.045  0.0168  0.5433  0.0779
  468XCA     C3 4196  14.617  12.830   6.372 -0.2939 -0.0773 -0.1030
  468XCA     C4 4197  14.829  12.918   6.733  0.0420  0.2707 -0.1737
  468XCA     C5 4198  14.906  13.361   6.812 -0.0713 -0.1631  0.3251
  468XCA     C6 4199  14.698  13.753   6.773  0.0287  0.0276  0.2575
  469PNCE   AM1 4200   9.500  12.645   8.678  0.0186  0.2411  0.0643
  469PNCE   AM2 4201   9.576  12.334   8.715  0.0845  0.1435 -0.0079
  469PNCE   T1A 4202   9.536  12.740   8.252 -0.1308 -0.0626 -0.1742
  469PNCE   C2A 4203   9.371  12.945   7.853  0.1303 -0.0280  0.0673
  469PNCE   C3A 4204   9.294  12.792   7.400 -0.0920 -0.0362  0.3441
  469PNCE   C1B 4205   9.373  12.005   8.450  0.0777  0.2473  0.1970
  469PNCE   C2B 4206   9.665  11.764   8.346  0.0143 -0.0578 -0.0673
  469PNCE   C3B 4207   9.871  11.521   8.063 -0.0184 -0.0687 -0.0006
  469PNCE   D4B 4208  10.240  11.334   7.849  0.1000 -0.2584  0.0726
  469PNCE   C5B 4209  10.356  10.924   7.723 -0.0529 -0.0053  0.1198
  469PNCE   C6B 4210  10.462  10.807   7.317  0.3034  0.0396 -0.0132
  470XCA    COO 4211  14.741   0.588   4.251 -0.0442  0.0745 -0.1302
  470XCA     C1 4212  14.846   0.790   4.717  0.2050  0.2560  0.0047
  470XCA     C2 4213  14.848   0.873   5.179  0.0547 -0.0677 -0.0311
  470XCA     C3 4214  14.765   1.214   5.369 -0.0049 -0.0446  0.0914
  470XCA     C4 4215  14.666   1.333   5.763 -0.0572 -0.1118  0.1356
  470XCA     C5 4216  14.866   1.141   6.063  0.3056  0.1908  0.1108
  470XCA     C6 4217  15.284   1.138   6.329  0.1448  0.0192  0.0480
  471XCA    COO 4218   3.160  12.831   9.322 -0.0389  0.0926  0.1520
  471XCA     C1 4219   2.984  13.059   8.992  0.0402 -0.0242 -0.4217
  471XCA     C2 4220   2.624  13.162   8.778 -0.0175 -0.4924 -0.2473
  471XCA     C3 4221   2.371  12.914   8.538 -0.0298  0.1446 -0.1482
  471XCA     C4 4222   2.024  12.634   8.668 -0.2732 -0.0391  0.2305
  471XCA     C5 4223   1.628  12.376   8.622 -0.1086 -0.0375  0.3918
  471XCA     C6 4224   1.451  12.001   8.669 -0.0168  0.1965  0.0887
  472PNCE   AM1 4225  15.587   2.735   8.356  0.2000 -0.0774  0.2474
  472PNCE   AM2 4226  15.641   2.585   7.987 -0.0165  0.0530 -0.4167
  472PNCE   T1A 4227  16.024   2.782   8.428  0.3174  0.2304 -0.1534
  472PNCE   C2A 4228  16.450   3.049   8.379 -0.1041  0.1515  0.0787
  472PNCE   C3A 4229  16.848   2.842   8.236  0.1182  0.0787 -0.0377
  472PNCE   C1B 4230  15.839   2.893   7.634  0.0277  0.0412  0.0424
  472PNCE   C2B 4231  16.038   3.295   7.513 -0.0781 -0.2437  0.0018
  472PNCE   C3B 4232  16.482   3.344   7.432 -0.1270 -0.3342  0.1830
  472PNCE   D4B 4233  16.841   3.153   7.467 -0.0106 -0.2147  0.1129
  472PNCE   C5B 4234  17.184   3.248   7.298 -0.0041 -0.1944  0.0650
  472PNCE   C6B 4235  17.494   3.153   6.968  0.0368 -0.1856  0.1296
  473PNCE   AM1 4236  15.029   2.252   7.413 -0.0317  0.3611 -0.1164
  473PNCE   AM2 4237  15.094   2.485   7.668 -0.2399 -0.0907 -0.0052
  473PNCE   T1A 4238  15.133   1.948   7.077 -0.2115 -0.0933 -0.0810
  473PNCE   C2A 4239  15.173   1.800   6.747 -0.1426 -0.2451 -0.0335
  473PNCE   C3A 4240  15.482   1.672   6.510  0.0314 -0.4203  0.1620
  473PNCE   C1B 4241  15.411   2.601   7.489  0.1231  0.0171 -0.1659
  473PNCE   C2B 4242  15.601   2.954   7.191 -0.0623 -0.2980  0.0202
  473PNCE   C3B 4243  16.076   3.069   7.066 -0.1173 -0.1126 -0.2401
  473PNCE   D4B 4244  16.150   3.386   6.940  0.1313 -0.1612 -0.0756
  473PNCE   C5B 4245  16.269   3.789   7.222 -0.0535  0.2312  0.1129
  473PNCE   C6B 4246  16.407   4.072   7.424 -0.0510  0.1309 -0.3588
  474PNCE   AM1 4247   5.558   6.247   8.543  0.4319 -0.5057  0.0262
  474PNCE   AM2 4248   5.844   6.373   8.315  0.2818  0.1623 -0.1305
  474PNCE   T1A 4249   5.382   6.098   8.189  0.2000  0.0173 -0.4754
  474PNCE   C2A 4250   5.337   6.071   7.739 -0.1208  0.0571 -0.0583
  474PNCE   C3A 4251   5.188   6.132   7.341  0.1542  0.0621  0.4711
  474PNCE   C1B 4252   5.680   6.397   7.909  0.1843  0.1754  0.0635
  474PNCE   C2B 4253   5.738   6.233   7.497 -0.1232  0.1913  0.1760
  474PNCE   C3B 4254   5.783   5.884   7.650 -0.0833  0.0225 -0.0229
  474PNCE   D4B 4255   5.479   5.644   7.898 -0.3668  0.1040 -0.0994
  474PNCE   C5B 4256   5.514   5.221   8.115 -0.0922 -0.1936  0.2719
  474PNCE   C6B 4257   5.514   4.717   8.256  0.0627  0.2692 -0.0514
  475XCA    COO 4258   9.352  13.779   4.562  0.1867 -0.1309 -0.0013
  475XCA     C1 4259   9.565  13.889   4.915  0.1649 -0.3859 -0.1044
  475XCA     C2 4260   9.785  14.080   5.220 -0.3034  0.0101  0.1847
  475XCA     C3 4261   9.854  14.417   5.531  0.1145 -0.0011 -0.1149
  475XCA     C4 4262  10.083  14.790   5.848  0.0445 -0.0133 -0.1473
  475XCA     C5 4263   9.916  15.199   6.197  0.0848  0.1664 -0.0994
  475XCA     C6 4264   9.803  15.555   6.393 -0.1642 -0.0712  0.0807
  476PNCE   AM1 4265   7.305  13.569   8.149 -0.0487  0.2359  0.3106
  476PNCE   AM2 4266   7.373  13.247   8.275  0.1244 -0.0481  0.0437
  476PNCE   T1A 4267   6.980  13.522   7.796  0.1566  0.2274 -0.1131
  476PNCE   C2A 4268   6.682  13.614   7.565  0.1369  0.0487  0.3036
  476PNCE   C3A 4269   6.328  13.383   7.394  0.3879 -0.1250 -0.1869
  476PNCE   C1B 4270   7.285  13.181   7.761  0.0073  0.5195 -0.3071
  476PNCE   C2B 4271   7.277  13.453   7.403 -0.0722 -0.3282  0.2455
  476PNCE   C3B 4272   6.941  13.501   7.191  0.0857  0.3256  0.1592
  476PNCE   D4B 4273   6.608  13.641   6.988  0.0164  0.3718 -0.0566
  476PNCE   C5B 4274   6.227  13.713   7.012 -0.2477  0.1388  0.1931
  476PNCE   C6B 4275   5.947  14.049   6.852  0.2670 -0.0768  0.0017
  477CHOL   ROH 4276   6.476  13.056   8.221 -0.0634  0.0611  0.0042
  477CHOL    R1 4277   6.554  12.993   7.957 -0.0280 -0.0113  0.0315
  477CHOL    R2 4278   6.637  13.186   7.777  0.0742 -0.0707  0.0155
  477CHOL    R3 4279   6.855  13.025   7.755  0.0256 -0.1473  0.0888
  477CHOL    R4 4280   6.840  13.163   7.497  0.1604 -0.1392  0.0827
  477CHOL    R5 4281   6.850  12.948   7.529  0.0743 -0.1442  0.0860
  477CHOL    C1 4282   7.162  12.999   7.315  0.1650 -0.2511  0.1907
  477CHOL    C2 4283   7.183  13.119   6.957 -0.0717  0.1558 -0.2297
  478CHOL   ROH 4284  11.682   5.293   5.164  0.1042 -0.0906 -0.2257
  478CHOL    R1 4285  11.500   5.179   5.348  0.0512  0.0078 -0.2163
  478CHOL    R2 4286  11.491   4.908   5.400  0.0562  0.0376 -0.0523
  478CHOL    R3 4287  11.521   4.989   5.658 -0.0372  0.1990 -0.0910
  478CHOL    R4 4288  11.289   4.809   5.663  0.2958 -0.2445  0.0298
  478CHOL    R5 4289  11.297   5.013   5.739 -0.0728 -0.1926 -0.0533
  478CHOL    C1 4290  11.201   4.827   6.058  0.3476 -0.2573  0.0414
  478CHOL    C2 4291  11.116   4.525   6.326 -0.0303 -0.2023 -0.3797
  479XCA    COO 4292   8.875  11.634   8.786  0.1054  0.0497  0.0004
  479XCA     C1 4293   8.908  11.870   8.366  0.0447 -0.0852 -0.0154
  479XCA     C2 4294   8.991  11.901   7.995 -0.1109 -0.2671  0.1130
  479XCA     C3 4295   9.054  11.922   7.588  0.0308 -0.2830 -0.1436
  479XCA     C4 4296   8.933  11.680   7.211 -0.2626 -0.0693  0.1796
  479XCA     C5 4297   8.660  11.458   6.971  0.0249 -0.0720  0.3194
  479XCA     C6 4298   8.321  11.663   6.763 -0.1985 -0.0933  0.1519
  480CHOL   ROH 4299   7.784   3.657   4.451 -0.1110  0.2035 -0.0608
  480CHOL    R1 4300   7.968   3.514   4.611 -0.1308  0.1977 -0.0432
  480CHOL    R2 4301   8.240   3.558   4.601 -0.1209  0.1325 -0.0761
  480CHOL    R3 4302   8.212   3.594   4.869 -0.0910  0.2007 -0.0818
  480CHOL    R4 4303   8.503   3.590   4.824 -0.0910 -0.1170 -0.0732
  480CHOL    R5 4304   8.391   3.466   4.965 -0.2295  0.0212 -0.0587
  480CHOL    C1 4305   8.629   3.642   5.205 -0.0454 -0.1982 -0.0770
  480CHOL    C2 4306   8.869   3.990   5.406 -0.1564  0.1684  0.1429
  481CHOL   ROH 4307  11.724   9.941   5.729  0.0613 -0.0716 -0.0526
  481CHOL    R1 4308  11.712   9.919   6.011 -0.0699  0.1226 -0.0413
  481CHOL    R2 4309  11.528  10.058   6.163 -0.3524 -0.0145 -0.2509
  481CHOL    R3 4310  11.468   9.810   6.258 -0.0641 -0.0321 -0.1029
  481CHOL    R4 4311  11.432   9.988   6.488 -0.2488  0.0640 -0.2028
  481CHOL    R5 4312  11.556   9.808   6.480 -0.0435  0.1970 -0.1067
  481CHOL    C1 4313  11.321   9.714   6.766  0.0822  0.0933 -0.0358
  481CHOL    C2 4314  11.327   9.968   7.100  0.1421 -0.3507  0.1351
  482PNCE   AM1 4315  11.076  12.540   8.688  0.1190 -0.0458 -0.1893
  482PNCE   AM2 4316  11.304  12.688   8.473 -0.1366  0.1567 -0.1945
  482PNCE   T1A 4317  10.998  12.275   8.497 -0.0116  0.0686  0.4036
  482PNCE   C2A 4318  10.717  11.913   8.473 -0.3084 -0.2620 -0.1671
  482PNCE   C3A 4319  10.721  11.581   8.450  0.0499 -0.1173 -0.0790
  482PNCE   C1B 4320  11.524  12.874   8.091  0.3328 -0.1679  0.2322
  482PNCE   C2B 4321  11.596  12.974   7.663 -0.0867  0.0263 -0.0603
  482PNCE   C3B 4322  11.854  13.376   7.551  0.0761 -0.1095 -0.0084
  482PNCE   D4B 4323  12.265  13.615   7.374  0.1945  0.1898 -0.2172
  482PNCE   C5B 4324  12.339  14.027   7.530  0.0840 -0.2124 -0.0188
  482PNCE   C6B 4325  12.527  14.337   7.336  0.1807 -0.0496 -0.1817
  483PNCE   AM1 4326   7.102   2.126   7.838 -0.2475  0.0024 -0.0540
  483PNCE   AM2 4327   6.900   2.153   7.511 -0.1354 -0.0907  0.2153
  483PNCE   T1A 4328   7.520   2.015   7.719 -0.1623  0.0475  0.2690
  483PNCE   C2A 4329   7.633   2.013   7.264 -0.3205  0.0753  0.0445
  483PNCE   C3A 4330   7.513   2.001   6.812 -0.2526  0.2083  0.1463
  483PNCE   C1B 4331   7.185   2.154   7.290 -0.1590  0.0614 -0.0217
  483PNCE   C2B 4332   7.410   2.420   7.104 -0.1038 -0.0115 -0.0680
  483PNCE   C3B 4333   7.633   2.512   6.721 -0.0948 -0.3037 -0.1350
  483PNCE   D4B 4334   7.639   2.687   6.309  0.3783  0.1022 -0.0461
  483PNCE   C5B 4335   7.857   2.666   6.049  0.1339 -0.0936 -0.0891
  483PNCE   C6B 4336   8.083   2.422   5.823  0.2174 -0.0172  0.0352
  484PNCE   AM1 4337   2.454   5.474   9.374  0.3058  0.1942  0.0442
  484PNCE   AM2 4338   2.134   5.399   9.635  0.2466  0.0736 -0.2932
  484PNCE   T1A 4339   2.472   5.457   8.929  0.0471  0.2555 -0.2896
  484PNCE   C2A 4340   2.218   5.434   8.553 -0.2015  0.3654  0.0192
  484PNCE   C3A 4341   1.967   5.516   8.174  0.3077 -0.0348 -0.1222
  484PNCE   C1B 4342   1.954   5.526   9.318  0.0650  0.0564  0.2061
  484PNCE   C2B 4343   1.904   5.521   8.971 -0.0473 -0.0393  0.3400
  484PNCE   C3B 4344   1.691   5.632   8.555  0.2163 -0.3227  0.1816
  484PNCE   D4B 4345   1.332   5.867   8.404 -0.0849  0.0852  0.1562
  484PNCE   C5B 4346   1.035   5.647   8.238 -0.2398  0.0611 -0.1713
  484PNCE   C6B 4347   0.809   5.366   8.012 -0.1443  0.1932 -0.0353
  485PNCE   AM1 4348  13.322  14.542   8.385  0.1419 -0.0720 -0.2297
  485PNCE   AM2 4349  13.040  14.751   8.543  0.0563  0.0256 -0.2200
  485PNCE   T1A 4350  13.313  14.425   8.000  0.0871  0.0595 -0.2205
  485PNCE   C2A 4351  13.467  14.291   7.613  0.3830  0.1672  0.0958
  485PNCE   C3A 4352  13.487  14.040   7.237  0.3162  0.2562 -0.0224
  485PNCE   C1B 4353  12.977  14.900   8.175  0.1043 -0.2097 -0.1703
  485PNCE   C2B 4354  13.171  14.916   7.789 -0.1899 -0.5357  0.2091
  485PNCE   C3B 4355  13.081  15.047   7.372 -0.0147 -0.1891 -0.1489
  485PNCE   D4B 4356  13.222  15.083   6.919  0.3078  0.1869 -0.2299
  485PNCE   C5B 4357  13.128  14.969   6.528  0.2375  0.0553  0.1424
  485PNCE   C6B 4358  12.967  14.933   6.127  0.1550 -0.2472  0.3154
  486PNCE   AM1 4359   1.932   6.081   9.276  0.0266 -0.2721  0.1599
  486PNCE   AM2 4360   1.790   6.448   9.321 -0.3362  0.1586  0.2579
  486PNCE   T1A 4361   1.589   5.873   9.221 -0.1813 -0.1869 -0.3640
  486PNCE   C2A 4362   1.156   5.965   9.288 -0.0464  0.1852 -0.0613
  486PNCE   C3A 4363   0.707   5.994   9.176  0.0480  0.2268  0.1538
  486PNCE   C1B 4364   1.639   6.381   8.873  0.1469  0.0475 -0.0099
  486PNCE   C2B 4365   1.766   6.347   8.494  0.0593 -0.0473 -0.1656
  486PNCE   C3B 4366   1.699   6.054   8.133  0.1278  0.2004  0.5194
  486PNCE   D4B 4367   1.535   5.697   7.974 -0.0249 -0.0914 -0.0027
  486PNCE   C5B 4368   1.197   5.538   7.664  0.3203 -0.0696  0.1904
  486PNCE   C6B 4369   0.898   5.476   7.292 -0.1056 -0.0093 -0.3325
  487PNCE   AM1 4370   4.199   9.047   9.709 -0.1135 -0.0770  0.1067
  487PNCE   AM2 4371   3.866   8.931   9.655 -0.0605 -0.0045 -0.2334
  487PNCE   T1A 4372   4.216   8.668   9.394  0.1949 -0.0340  0.0131
  487PNCE   C2A 4373   4.055   8.446   9.116  0.0972  0.1619  0.1872
  487PNCE   C3A 4374   4.083   8.424   8.699  0.0233 -0.1564  0.2463
  487PNCE   C1B 4375   3.816   8.834   9.251  0.1323  0.0725  0.0762
  487PNCE   C2B 4376   3.937   8.920   8.850 -0.1977  0.1488 -0.3889
  487PNCE   C3B 4377   4.001   9.065   8.374  0.0960 -0.0930 -0.1057
  487PNCE   D4B 4378   3.886   8.867   7.981 -0.0094 -0.1778 -0.0168
  487PNCE   C5B 4379   3.431   8.553   7.935  0.0971 -0.0657 -0.0825
  487PNCE   C6B 4380   3.114   8.406   8.077 -0.0602 -0.2161  0.2170
  488PNCE   AM1 4381   8.196   1.473   7.993  0.1137  0.1081 -0.2457
  488PNCE   AM2 4382   8.165   1.833   8.065  0.1828  0.1117  0.1841
  488PNCE   T1A 4383   8.635   1.467   7.812  0.0396  0.1668 -0.2440
  488PNCE   C2A 4384   8.813   1.269   7.467 -0.2442 -0.0381 -0.4365
  488PNCE   C3A 4385   9.016   1.088   7.125 -0.1785  0.2303 -0.0911
  488PNCE   C1B 4386   8.551   2.039   8.011 -0.3814 -0.0368  0.0460
  488PNCE   C2B 4387   8.585   2.281   7.629 -0.0527 -0.0380  0.2344
  488PNCE   C3B 4388   8.590   2.605   7.249 -0.2398  0.4648  0.0176
  488PNCE   D4B 4389   8.530   2.643   6.750 -0.0922 -0.4839 -0.3191
  488PNCE   C5B 4390   8.470   2.304   6.702 -0.0236  0.0224 -0.1995
  488PNCE   C6B 4391   8.272   2.025   6.396 -0.0324 -0.0938  0.2284
  489XCA    COO 4392  15.005   0.619   7.745 -0.0896 -0.0589 -0.1441
  489XCA     C1 4393  15.258   0.675   7.384  0.3055  0.0336  0.1527
  489XCA     C2 4394  15.322   0.550   7.000 -0.1363  0.1995 -0.0145
  489XCA     C3 4395  15.377   0.240   6.753  0.1188  0.2612 -0.3900
  489XCA     C4 4396  15.143  -0.071   6.473 -0.2043  0.2949  0.0033
  489XCA     C5 4397  14.719  -0.292   6.490  0.3160 -0.1192  0.2298
  489XCA     C6 4398  14.297  -0.259   6.602 -0.0916 -0.1731  0.0878
  490CHOL   ROH 4399  10.969  10.972   5.648 -0.2610 -0.0228 -0.0781
  490CHOL    R1 4400  11.033  11.116   5.884 -0.2744 -0.1888  0.0293
  490CHOL    R2 4401  11.163  11.359   5.878 -0.0006 -0.3232  0.2233
  490CHOL    R3 4402  10.951  11.440   6.026 -0.0254 -0.1541  0.0973
  490CHOL    R4 4403  11.159  11.641   6.078  0.0455 -0.2340  0.0998
  490CHOL    R5 4404  11.048  11.526   6.228 -0.0736 -0.1140  0.1014
  490CHOL    C1 4405  10.957  11.881   6.334  0.0491 -0.0235 -0.0903
  490CHOL    C2 4406  10.875  12.207   6.437  0.0512  0.2705  0.2136
  491CHOL   ROH 4407  10.289  14.588   8.644  0.4144  0.0005 -0.1312
  491CHOL    R1 4408  10.404  14.614   8.386  0.1646  0.1014 -0.2346
  491CHOL    R2 4409  10.382  14.417   8.193  0.2965  0.0109 -0.1571
  491CHOL    R3 4410  10.283  14.621   8.043 -0.1355 -0.1733 -0.1401
  491CHOL    R4 4411  10.377  14.424   7.848  0.1304 -0.0292 -0.1572
  491CHOL    R5 4412  10.432  14.635   7.856 -0.2387  0.0743 -0.2064
  491CHOL    C1 4413  10.281  14.620   7.506 -0.3718 -0.2255 -0.1415
  491CHOL    C2 4414  10.208  14.789   7.095  0.1377  0.2872  0.0308
  492CHOL   ROH 4415  10.872   0.599   5.014  0.0461 -0.0920  0.0033
  492CHOL    R1 4416  10.763   0.700   5.254  0.2372  0.2754 -0.0605
  492CHOL    R2 4417  10.759   0.554   5.489 -0.4161  0.2531 -0.0799
  492CHOL    R3 4418  10.885   0.774   5.590  0.2939 -0.1673  0.0251
  492CHOL    R4 4419  10.744   0.655   5.819 -0.6019  0.4391 -0.1408
  492CHOL    R5 4420  10.729   0.862   5.750  0.3244  0.5126 -0.2744
  492CHOL    C1 4421  10.853   0.919   6.106 -0.0436  0.1527 -0.0777
  492CHOL    C2 4422  11.111   0.898   6.439 -0.1777 -0.0224 -0.4441
  493PNCE   AM1 4423  13.999  10.021   9.315  0.3176  0.0138 -0.0245
  493PNCE   AM2 4424  13.699  10.006   9.246  0.4635 -0.2342 -0.1587
  493PNCE   T1A 4425  14.491  10.167   9.262  0.0045 -0.1628  0.2937
  493PNCE   C2A 4426  14.878  10.018   9.116 -0.0289  0.2423 -0.2146
  493PNCE   C3A 4427  15.110  10.060   8.792 -0.2764 -0.0475 -0.1536
  493PNCE   C1B 4428  13.923   9.642   8.977  0.1073 -0.0544 -0.2953
  493PNCE   C2B 4429  13.891   9.730   8.481 -0.1319  0.1126  0.0917
  493PNCE   C3B 4430  13.915   9.784   8.071 -0.2882  0.0408  0.2344
  493PNCE   D4B 4431  13.891  10.067   7.729 -0.0863  0.0302  0.2655
  493PNCE   C5B 4432  13.573  10.113   7.353 -0.1708  0.0113 -0.2722
  493PNCE   C6B 4433  13.625   9.830   6.998 -0.6415 -0.3202 -0.3766
  494XCA    COO 4434   0.783   0.121   8.420 -0.1482 -0.0818 -0.0547
  494XCA     C1 4435   0.727  -0.010   8.021 -0.1955 -0.1484 -0.0923
  494XCA     C2 4436   0.668  -0.194   7.651 -0.2783  0.0167 -0.0094
  494XCA     C3 4437   0.631  -0.086   7.238 -0.3214 -0.1594  0.0638
  494XCA     C4 4438   0.417  -0.218   6.883 -0.1701  0.1919 -0.0218
  494XCA     C5 4439   0.456  -0.128   6.499  0.1329  0.2559 -0.2545
  494XCA     C6 4440   0.483  -0.301   6.139 -0.1921 -0.1851 -0.3812
  495CHOL   ROH 4441   7.625   9.877   5.409 -0.1440 -0.0207  0.0361
  495CHOL    R1 4442   7.664   9.835   5.686 -0.1730 -0.0098  0.0423
  495CHOL    R2 4443   7.898   9.903   5.816 -0.1192 -0.1624  0.0320
  495CHOL    R3 4444   7.730  10.041   5.979 -0.0190 -0.0144  0.0111
  495CHOL    R4 4445   7.919   9.912   6.161 -0.2256 -0.2775  0.0419
  495CHOL    R5 4446   7.702   9.900   6.170 -0.2437 -0.0344 -0.0352
  495CHOL    C1 4447   7.773  10.048   6.514 -0.1933 -0.2055  0.0280
  495CHOL    C2 4448   7.607   9.836   6.895 -0.1921  0.1456  0.0941
  496XCA    COO 4449   0.246   3.922   9.040  0.4349  0.0254  0.2618
  496XCA     C1 4450   0.343   4.066   8.727  0.2117 -0.0969  0.1586
  496XCA     C2 4451   0.488   4.256   8.439  0.0867 -0.1358  0.0384
  496XCA     C3 4452   0.486   4.523   8.233 -0.1736 -0.2664  0.0537
  496XCA     C4 4453   0.471   4.767   8.003 -0.0339  0.1335 -0.0525
  496XCA     C5 4454   0.279   5.010   7.740  0.1335  0.2498  0.1529
  496XCA     C6 4455   0.159   5.204   7.402 -0.3384  0.0781  0.4736
  497PNCE   AM1 4456   3.867   7.256   9.254  0.1794  0.2199  0.0307
  497PNCE   AM2 4457   4.187   7.299   9.428 -0.0459  0.3453 -0.2175
  497PNCE   T1A 4458   3.810   7.535   9.022 -0.5820  0.0782 -0.2962
  497PNCE   C2A 4459   3.776   7.860   8.536  0.2941 -0.2119 -0.1665
  497PNCE   C3A 4460   3.549   8.025   8.178  0.0924  0.0891  0.0409
  497PNCE   C1B 4461   4.247   7.373   8.936 -0.0036 -0.1404  0.1973
  497PNCE   C2B 4462   4.067   7.506   8.467 -0.0083 -0.1330  0.1623
  497PNCE   C3B 4463   3.923   7.688   8.050 -0.1230  0.1583 -0.1080
  497PNCE   D4B 4464   3.827   7.649   7.548 -0.1469  0.0711 -0.3067
  497PNCE   C5B 4465   3.548   7.317   7.406 -0.1048  0.0474  0.2852
  497PNCE   C6B 4466   3.164   7.089   7.341 -0.0788  0.2219  0.1380
  498CHOL   ROH 4467   6.842   3.068   7.603  0.0520  0.0113  0.1061
  498CHOL    R1 4468   6.924   3.307   7.475 -0.0388  0.0506  0.1199
  498CHOL    R2 4469   6.992   3.316   7.208  0.2237  0.0306  0.1827
  498CHOL    R3 4470   6.806   3.515   7.201  0.0428 -0.1408 -0.0637
  498CHOL    R4 4471   6.980   3.568   6.971  0.4679  0.1659  0.3107
  498CHOL    R5 4472   6.928   3.708   7.130  0.0130  0.0216  0.3038
  498CHOL    C1 4473   6.799   3.901   6.827  0.4403  0.0838  0.1540
  498CHOL    C2 4474   6.521   4.019   6.601  0.0617 -0.1277 -0.3336
  499PNCE   AM1 4475  11.887  10.055   8.681  0.0663  0.3067  0.2008
  499PNCE   AM2 4476  11.903   9.653   8.698  0.1157 -0.0751  0.1845
  499PNCE   T1A 4477  12.192   9.948   8.424 -0.1951 -0.0386  0.2729
  499PNCE   C2A 4478  12.544   9.902   8.204 -0.0696 -0.0503  0.0548
  499PNCE   C3A 4479  12.546  10.172   7.800 -0.1964 -0.1856  0.2224
  499PNCE   C1B 4480  11.729   9.743   8.290  0.0657 -0.2755 -0.3518
  499PNCE   C2B 4481  11.455   9.414   8.072 -0.1331  0.0371 -0.0854
  499PNCE   C3B 4482  11.281   9.049   7.855  0.1453  0.0685  0.0157
  499PNCE   D4B 4483  10.825   8.868   7.802  0.1287 -0.0937  0.0812
  499PNCE   C5B 4484  10.696   8.386   7.730  0.2103 -0.1028 -0.1826
  499PNCE   C6B 4485  10.640   8.109   7.925  0.0421  0.0896 -0.1202
  500PNCE   AM1 4486  14.813  12.677   9.283  0.2163 -0.1151 -0.2424
  500PNCE   AM2 4487  14.988  12.882   9.258  0.1913 -0.0144  0.1537
  500PNCE   T1A 4488  15.072  12.467   8.924 -0.4872  0.1799 -0.0740
  500PNCE   C2A 4489  15.153  12.462   8.535  0.0346  0.1427 -0.1217
  500PNCE   C3A 4490  15.153  12.570   8.129  0.0440 -0.2102  0.0511
  500PNCE   C1B 4491  15.049  12.950   8.806  0.3106  0.0048  0.1487
  500PNCE   C2B 4492  14.984  12.943   8.401 -0.1631 -0.1964  0.1066
  500PNCE   C3B 4493  15.189  13.087   8.052 -0.2285  0.1387 -0.2161
  500PNCE   D4B 4494  15.355  13.350   7.723 -0.0702 -0.2927 -0.1081
  500PNCE   C5B 4495  15.468  13.878   7.644 -0.3120 -0.0675 -0.2307
  500PNCE   C6B 4496  15.299  14.314   7.590 -0.2154 -0.2228 -0.1789
  501PNCE   AM1 4497   2.504  14.977   8.452  0.1347  0.0283 -0.0502
  501PNCE   AM2 4498   2.409  14.867   8.775  0.1996 -0.0328  0.1265
  501PNCE   T1A 4499   2.688  14.804   8.132 -0.0959 -0.1167  0.2881
  501PNCE   C2A 4500   2.665  14.323   7.967  0.0574 -0.0087 -0.1603
  501PNCE   C3A 4501   2.851  14.179   7.607 -0.0829  0.1045  0.3658
  501PNCE   C1B 4502   2.099  14.647   8.359  0.3687 -0.2484  0.0693
  501PNCE   C2B 4503   2.171  14.283   8.006 -0.1049  0.1961  0.1625
  501PNCE   C3B 4504   2.285  14.176   7.569 -0.0684 -0.1435  0.2473
  501PNCE   D4B 4505   2.075  13.723   7.374  0.0609  0.0573  0.2593
  501PNCE   C5B 4506   2.237  13.596   6.934 -0.0048 -0.1366 -0.1690
  501PNCE   C6B 4507   2.518  13.760   6.743 -0.0681 -0.0321  0.0506
  502PNCE   AM1 4508   5.694  10.581   8.876 -0.1862  0.3874  0.0184
  502PNCE   AM2 4509   5.422  10.660   8.695 -0.1584  0.2194 -0.0273
  502PNCE   T1A 4510   5.727  10.222   8.580 -0.3349  0.2889  0.4329
  502PNCE   C2A 4511   5.606   9.902   8.341 -0.1309  0.0188  0.0710
  502PNCE   C3A 4512   5.526   9.584   7.947 -0.1073  0.0278  0.1122
  502PNCE   C1B 4513   5.305  10.784   8.239 -0.0928 -0.2209 -0.0322
  502PNCE   C2B 4514   4.870  10.618   8.022  0.2660 -0.0013  0.1522
  502PNCE   C3B 4515   4.448  10.574   7.918  0.1065 -0.1661 -0.2003
  502PNCE   D4B 4516   3.983  10.557   7.816 -0.4062 -0.3011 -0.3429
  502PNCE   C5B 4517   3.869  10.316   7.541 -0.0429 -0.1068  0.0409
  502PNCE   C6B 4518   3.589   9.920   7.392  0.1885  0.1030  0.1915
  503CHOL   ROH 4519  15.567   2.118   7.534 -0.1419 -0.0826 -0.1061
  503CHOL    R1 4520  15.657   2.197   7.278  0.0449 -0.0135 -0.0218
  503CHOL    R2 4521  15.499   2.342   7.103  0.0877 -0.1566 -0.1844
  503CHOL    R3 4522  15.712   2.511   7.102 -0.0559  0.0303  0.0251
  503CHOL    R4 4523  15.548   2.597   6.876  0.2745 -0.3631 -0.3810
  503CHOL    R5 4524  15.759   2.546   6.871  0.3385 -0.1864  0.0653
  503CHOL    C1 4525  15.776   2.905   6.743  0.2486 -0.3079 -0.2989
  503CHOL    C2 4526  15.983   3.043   6.372  0.1728 -0.1405  0.0216
  504CHOL   ROH 4527  11.442   0.341   6.202  0.3206 -0.0342 -0.0221
  504CHOL    R1 4528  11.586   0.542   6.340  0.2219  0.0061  0.0228
  504CHOL    R2 4529  11.528   0.811   6.313  0.1738 -0.0093 -0.0170
  504CHOL    R3 4530  11.510   0.801   6.584  0.0687  0.0061 -0.0228
  504CHOL    R4 4531  11.596   1.075   6.525  0.2611 -0.0449  0.0004
  504CHOL    R5 4532  11.693   0.935   6.661  0.1261 -0.1047  0.0401
  504CHOL    C1 4533  11.618   1.220   6.903  0.2132 -0.0512  0.0053
  504CHOL    C2 4534  11.624   1.354   7.275  0.0441 -0.2583  0.0464
  505CHOL   ROH 4535   6.520   1.085   7.099 -0.2274 -0.3808  0.1778
  505CHOL    R1 4536   6.477   1.072   6.820 -0.0835 -0.2754  0.1498
  505CHOL    R2 4537   6.232   1.007   6.710 -0.0143 -0.2852 -0.0010
  505CHOL    R3 4538   6.265   1.242   6.577  0.0011 -0.2227  0.1124
  505CHOL    R4 4539   6.062   1.097   6.422  0.1307 -0.2186 -0.0668
  505CHOL    R5 4540   6.248   1.182   6.345  0.1544 -0.1363  0.0768
  505CHOL    C1 4541   5.995   1.369   6.130  0.2296 -0.1211  0.0014
  505CHOL    C2 4542   5.904   1.546   5.825  0.1178  0.3089  0.0815
  506CHOL   ROH 4543   2.939   2.471   5.070  0.0944 -0.1359  0.0604
  506CHOL    R1 4544   2.934   2.650   5.289  0.1870 -0.0008 -0.0464
  506CHOL    R2 4545   2.829   2.582   5.535 -0.0296  0.2639 -0.0590
  506CHOL    R3 4546   3.073   2.661   5.625  0.0199  0.0274  0.0222
  506CHOL    R4 4547   2.904   2.653   5.865 -0.1625  0.5245 -0.0826
  506CHOL    R5 4548   3.024   2.822   5.795  0.1192  0.2864 -0.1886
  506CHOL    C1 4549   3.177   2.769   6.141 -0.1934  0.4541 -0.0200
  506CHOL    C2 4550   3.254   3.221   6.212 -0.0886  0.0955 -0.0975
  507CHOL   ROH 4551  10.224   3.518   6.054 -0.0524 -0.1605 -0.0391
  507CHOL    R1 4552   9.995   3.650   6.155 -0.0775 -0.2094 -0.0331
  507CHOL    R2 4553   9.781   3.513   6.263  0.0630 -0.2442  0.2014
  507CHOL    R3 4554   9.826   3.677   6.476  0.0773 -0.0285  0.0357
  507CHOL    R4 4555   9.534   3.653   6.461  0.0793 -0.2701  0.2407
  507CHOL    R5 4556   9.649   3.838   6.465 -0.0571 -0.1729  0.0093
  507CHOL    C1 4557   9.432   3.888   6.775  0.1022 -0.0827  0.1081
  507CHOL    C2 4558   9.312   4.129   7.031  0.1850  0.1289 -0.1531
  508PNCE   AM1 4559  15.446   8.040   9.330  0.1687  0.2225 -0.3340
  508PNCE   AM2 4560  15.331   7.838   9.120  0.0084  0.0538  0.0766
  508PNCE   T1A 4561  15.872   7.831   9.155  0.5387  0.0545  0.0121
  508PNCE   C2A 4562  16.299   7.958   9.134  0.0679 -0.0974  0.0474
  508PNCE   C3A 4563  16.572   7.901   8.831  0.0907  0.0031  0.2071
  508PNCE   C1B 4564  15.518   7.957   8.766 -0.1588  0.0277 -0.1301
  508PNCE   C2B 4565  15.931   8.181   8.782 -0.1703  0.1440 -0.1629
  508PNCE   C3B 4566  16.213   8.068   8.544 -0.0098 -0.1822  0.0221
  508PNCE   D4B 4567  16.498   8.221   8.346 -0.0568 -0.1388  0.0968
  508PNCE   C5B 4568  16.334   8.494   8.112 -0.1595 -0.2635  0.3275
  508PNCE   C6B 4569  16.135   8.605   7.660  0.2760 -0.1443 -0.0506
  509CHOL   ROH 4570   0.573   2.127   8.016  0.0485  0.0363  0.0703
  509CHOL    R1 4571   0.666   2.294   7.807 -0.0513  0.0985  0.0750
  509CHOL    R2 4572   0.867   2.217   7.634  0.0759  0.2695  0.1457
  509CHOL    R3 4573   0.683   2.277   7.444  0.0719  0.0637  0.0816
  509CHOL    R4 4574   0.939   2.363   7.329  0.0687 -0.0396 -0.0077
  509CHOL    R5 4575   0.760   2.485   7.351  0.0615 -0.0254 -0.1327
  509CHOL    C1 4576   0.809   2.504   6.973  0.0608 -0.4128 -0.1571
  509CHOL    C2 4577   0.840   2.421   6.632 -0.2002 -0.0741 -0.2130
  510PNCE   AM1 4578  10.897   4.658   8.066  0.1490  0.0508  0.0968
  510PNCE   AM2 4579  10.679   4.401   8.098 -0.4173  0.1698  0.0770
  510PNCE   T1A 4580  11.198   4.903   7.752  0.1349 -0.1510  0.1689
  510PNCE   C2A 4581  11.516   4.948   7.539  0.0762  0.1518 -0.1486
  510PNCE   C3A 4582  11.659   4.680   7.241 -0.0008  0.0832 -0.0659
  510PNCE   C1B 4583  10.483   4.512   7.769 -0.2413 -0.1868  0.1078
  510PNCE   C2B 4584  10.429   4.759   7.327  0.2448 -0.0532 -0.0349
  510PNCE   C3B 4585  10.570   5.015   7.016  0.1088  0.1373 -0.1174
  510PNCE   D4B 4586  10.458   5.431   6.960  0.0866 -0.0965  0.0436
  510PNCE   C5B 4587  10.636   5.673   6.742 -0.1591  0.1042 -0.0295
  510PNCE   C6B 4588  10.582   5.857   6.393 -0.3539 -0.2205 -0.2138
  511PNCE   AM1 4589   6.749  10.222   8.580 -0.2721  0.0152  0.1589
  511PNCE   AM2 4590   6.822  10.567   8.562 -0.1514 -0.3583  0.2030
  511PNCE   T1A 4591   6.585  10.252   8.202 -0.0203 -0.1123  0.1431
  511PNCE   C2A 4592   6.428   9.985   7.874 -0.2022 -0.0605  0.1376
  511PNCE   C3A 4593   6.385   9.595   7.593  0.2686 -0.2610  0.0478
  511PNCE   C1B 4594   6.425  10.749   8.415 -0.0126  0.0200 -0.4015
  511PNCE   C2B 4595   6.167  11.160   8.353 -0.0049 -0.0263  0.0791
  511PNCE   C3B 4596   5.747  11.453   8.232  0.2022  0.1149  0.1434
  511PNCE   D4B 4597   5.392  11.712   8.373  0.1860  0.2983  0.2094
  511PNCE   C5B 4598   5.495  12.073   8.102  0.0033 -0.2199 -0.0022
  511PNCE   C6B 4599   5.726  12.370   8.018  0.2374 -0.2002 -0.0149
  512CHOL   ROH 4600  10.699   5.319   4.682 -0.2589 -0.1573  0.0934
  512CHOL    R1 4601  10.692   5.196   4.937 -0.0882 -0.0660  0.1409
  512CHOL    R2 4602  10.749   5.333   5.170 -0.2486  0.0962  0.0716
  512CHOL    R3 4603  10.505   5.239   5.247 -0.1261 -0.1859  0.1399
  512CHOL    R4 4604  10.650   5.284   5.498 -0.1263  0.1144  0.1140
  512CHOL    R5 4605  10.552   5.100   5.436  0.0942 -0.0526  0.2005
  512CHOL    C1 4606  10.364   5.168   5.760  0.0599 -0.1397  0.2028
  512CHOL    C2 4607  10.173   5.100   6.040 -0.1447  0.0681  0.0743
  513CHOL   ROH 4608  12.527  10.676   5.737 -0.0171  0.1632 -0.1644
  513CHOL    R1 4609  12.524  10.791   5.995 -0.0237  0.1452 -0.1565
  513CHOL    R2 4610  12.624  10.661   6.217 -0.1802  0.0602 -0.1337
  513CHOL    R3 4611  12.771  10.889   6.245 -0.0376 -0.0378 -0.0700
  513CHOL    R4 4612  12.737  10.788   6.518 -0.0896 -0.0987 -0.0994
  513CHOL    R5 4613  12.688  10.988   6.447  0.0318 -0.0463 -0.0376
  513CHOL    C1 4614  12.940  11.076   6.720  0.0972 -0.2831 -0.0196
  513CHOL    C2 4615  12.964  11.126   7.069 -0.1140 -0.0251  0.2148
  514PNCE   AM1 4616   4.132   4.934   9.366  0.1259 -0.1249 -0.1561
  514PNCE   AM2 4617   4.252   5.156   9.135  0.0936  0.1281 -0.1300
  514PNCE   T1A 4618   4.299   4.642   9.051 -0.1098  0.0883  0.1528
  514PNCE   C2A 4619   4.034   4.340   8.716 -0.5552  0.1207 -0.3132
  514PNCE   C3A 4620   3.714   4.169   8.641 -0.0079 -0.0715  0.0711
  514PNCE   C1B 4621   3.899   5.308   8.928  0.1152 -0.0570 -0.1118
  514PNCE   C2B 4622   3.895   5.270   8.543  0.1598 -0.4166 -0.0982
  514PNCE   C3B 4623   3.709   5.282   8.214 -0.0664  0.0293  0.0741
  514PNCE   D4B 4624   3.564   5.195   7.820  0.3220 -0.1829  0.1644
  514PNCE   C5B 4625   3.853   5.167   7.489  0.0133 -0.4283 -0.2932
  514PNCE   C6B 4626   4.019   4.860   7.166 -0.0304 -0.1526  0.1728
  515CHOL   ROH 4627  13.811   6.496   8.941  0.0211 -0.1104  0.0779
  515CHOL    R1 4628  13.800   6.679   8.725 -0.2422 -0.1267  0.0753
  515CHOL    R2 4629  14.026   6.772   8.596 -0.3652  0.2751  0.1403
  515CHOL    R3 4630  13.898   6.681   8.375 -0.1445  0.0464  0.1015
  515CHOL    R4 4631  14.046   6.915   8.283 -0.0751 -0.0222  0.0162
  515CHOL    R5 4632  13.833   6.879   8.257 -0.0527 -0.0669 -0.1533
  515CHOL    C1 4633  13.937   6.914   7.892  0.3009 -0.4099 -0.0925
  515CHOL    C2 4634  14.038   7.166   7.511  0.0364  0.1446  0.0649
  516CHOL   ROH 4635   8.616  12.436   5.022  0.2008  0.0602  0.1423
  516CHOL    R1 4636   8.414  12.501   5.210  0.1277  0.0455  0.0695
  516CHOL    R2 4637   8.420  12.410   5.471  0.0485  0.0593  0.0765
  516CHOL    R3 4638   8.396  12.675   5.529 -0.0034  0.0597  0.0546
  516CHOL    R4 4639   8.365  12.539   5.787 -0.0957  0.0706  0.0476
  516CHOL    R5 4640   8.227  12.683   5.699 -0.0742  0.0515 -0.0156
  516CHOL    C1 4641   8.310  12.862   6.025 -0.2283  0.0775  0.0101
  516CHOL    C2 4642   8.557  12.614   6.287  0.0720 -0.1193 -0.0777
  517PNCE   AM1 4643   5.963   2.736   8.306  0.1444  0.0051 -0.1459
  517PNCE   AM2 4644   5.765   2.389   8.188  0.0401  0.3861 -0.0782
  517PNCE   T1A 4645   5.633   3.042   8.215 -0.1116  0.2437  0.1708
  517PNCE   C2A 4646   5.191   3.171   8.152  0.0511  0.0387  0.3284
  517PNCE   C3A 4647   4.740   3.231   8.051 -0.3506 -0.0113 -0.1263
  517PNCE   C1B 4648   5.648   2.733   7.840 -0.1418  0.2975  0.1490
  517PNCE   C2B 4649   5.420   2.985   7.584  0.2070  0.1699  0.1602
  517PNCE   C3B 4650   5.431   3.315   7.248 -0.0345  0.0625 -0.2718
  517PNCE   D4B 4651   5.310   3.413   6.822  0.1279  0.1432  0.2298
  517PNCE   C5B 4652   5.099   3.764   6.749  0.0155 -0.1773 -0.0257
  517PNCE   C6B 4653   5.155   4.164   6.945  0.2002  0.6332  0.2654
  518PNCE   AM1 4654  11.557   3.933   4.770 -0.0736  0.0729 -0.0951
  518PNCE   AM2 4655  11.292   4.127   4.826 -0.0023 -0.2367 -0.1324
  518PNCE   T1A 4656  11.603   3.606   5.109 -0.0311 -0.0767  0.1994
  518PNCE   C2A 4657  11.494   3.405   5.474 -0.2630  0.1568 -0.1506
  518PNCE   C3A 4658  11.403   3.236   5.907  0.1621 -0.1263 -0.1126
  518PNCE   C1B 4659  11.217   4.003   5.146  0.4039  0.1097  0.1809
  518PNCE   C2B 4660  10.975   4.114   5.473 -0.0583  0.1065 -0.0333
  518PNCE   C3B 4661  10.878   4.159   5.956  0.3157 -0.0613 -0.0706
  518PNCE   D4B 4662  10.978   4.037   6.433  0.1234  0.0091 -0.0325
  518PNCE   C5B 4663  10.671   3.934   6.785  0.1515  0.0539 -0.2936
  518PNCE   C6B 4664  10.324   4.162   6.933 -0.0770  0.2248 -0.1173
  519XCA    COO 4665   7.892  12.677   5.130 -0.0967 -0.0016 -0.2549
  519XCA     C1 4666   7.899  12.966   5.440 -0.1203 -0.0781  0.0928
  519XCA     C2 4667   7.693  13.454   5.597  0.0047  0.0810  0.0216
  519XCA     C3 4668   7.493  13.482   6.025 -0.1661 -0.2185  0.2015
  519XCA     C4 4669   7.128  13.600   6.275  0.1314 -0.0763 -0.0636
  519XCA     C5 4670   6.586  13.674   6.338 -0.2607 -0.0818 -0.0822
  519XCA     C6 4671   6.185  13.603   6.124 -0.0349  0.0877 -0.1461
  520XCA    COO 4672   5.546   3.545   4.740 -0.0572 -0.3074  0.2313
  520XCA     C1 4673   5.554   3.486   5.247 -0.4855 -0.1603 -0.2765
  520XCA     C2 4674   5.511   3.489   5.686 -0.1815  0.3371  0.1525
  520XCA     C3 4675   5.675   3.725   5.989  0.0705 -0.2559  0.3241
  520XCA     C4 4676   5.689   4.158   6.192 -0.1054 -0.2559  0.0706
  520XCA     C5 4677   5.538   4.615   6.361  0.0574  0.0399 -0.1921
  520XCA     C6 4678   5.415   5.062   6.549  0.0889 -0.0038  0.0578
  521XCA    COO 4679   5.355   2.674   3.903 -0.0968  0.0111 -0.1213
  521XCA     C1 4680   5.455   2.317   3.984  0.4219 -0.0545 -0.1503
  521XCA     C2 4681   5.716   2.002   4.123  0.2503  0.2111  0.2081
  521XCA     C3 4682   5.643   1.632   4.211 -0.0813 -0.0182 -0.1681
  521XCA     C4 4683   5.657   1.446   4.544 -0.0869 -0.0425  0.1416
  521XCA     C5 4684   5.788   1.267   4.868 -0.0282  0.1046 -0.1064
  521XCA     C6 4685   5.767   0.945   5.293 -0.0222 -0.2787  0.1175
  522PNCE   AM1 4686   6.218  15.337   7.527 -0.4480 -0.0039 -0.0272
  522PNCE   AM2 4687   6.366  15.599   7.489  0.0299  0.0292 -0.0344
  522PNCE   T1A 4688   6.346  15.268   7.126 -0.2669  0.1698  0.1148
  522PNCE   C2A 4689   6.322  15.057   6.657  0.0099  0.2224  0.0417
  522PNCE   C3A 4690   6.098  15.124   6.272  0.1358  0.2412 -0.0903
  522PNCE   C1B 4691   6.709  15.898   7.323  0.0711 -0.1044  0.0160
  522PNCE   C2B 4692   6.827  16.045   6.997 -0.1295 -0.0605  0.4273
  522PNCE   C3B 4693   6.752  16.031   6.590 -0.4520 -0.4121 -0.0205
  522PNCE   D4B 4694   6.509  16.054   6.344  0.3575 -0.0007 -0.0994
  522PNCE   C5B 4695   6.096  16.156   6.097 -0.1787 -0.2309  0.5016
  522PNCE   C6B 4696   5.911  16.535   6.177  0.0999 -0.0999  0.1762
  523CHOL   ROH 4697   8.457  11.892   8.339 -0.1401  0.0398  0.0467
  523CHOL    R1 4698   8.543  11.938   8.073 -0.2316  0.1271  0.0314
  523CHOL    R2 4699   8.594  11.733   7.895 -0.0141  0.1764  0.0360
  523CHOL    R3 4700   8.417  11.868   7.739 -0.1967 -0.0401  0.0515
  523CHOL    R4 4701   8.583  11.716   7.550  0.1303  0.3200  0.0245
  523CHOL    R5 4702   8.545  11.931   7.546 -0.2313  0.2684  0.1209
  523CHOL    C1 4703   8.411  11.834   7.203  0.0428  0.2004  0.0323
  523CHOL    C2 4704   8.623  12.057   7.013 -0.1486 -0.0959  0.0955
  524XCA    COO 4705  12.295  15.649   4.456  0.0676  0.0312  0.0166
  524XCA     C1 4706  12.000  15.465   4.757 -0.2289 -0.1730 -0.0741
  524XCA     C2 4707  11.721  15.268   5.078  0.2289  0.1146  0.1826
  524XCA     C3 4708  11.686  15.474   5.555 -0.0304  0.0380  0.1985
  524XCA     C4 4709  11.672  15.618   5.964 -0.4699  0.3449  0.0362
  524XCA     C5 4710  11.890  15.671   6.322  0.1041 -0.2730 -0.2142
  524XCA     C6 4711  12.064  15.848   6.611  0.0938  0.1003 -0.5221
  525CHOL   ROH 4712   1.386  13.820   8.825 -0.0589  0.2183 -0.1556
  525CHOL    R1 4713   1.298  13.907   8.570  0.0228  0.2002 -0.1919
  525CHOL    R2 4714   1.458  13.897   8.345  0.0717  0.1113 -0.1603
  525CHOL    R3 4715   1.249  13.758   8.242  0.0516  0.1536 -0.1734
  525CHOL    R4 4716   1.385  13.872   8.009  0.0904  0.1078 -0.1632
  525CHOL    R5 4717   1.173  13.892   8.058  0.0954  0.1559 -0.1846
  525CHOL    C1 4718   1.146  13.726   7.715  0.0823  0.1456 -0.1771
  525CHOL    C2 4719   1.106  13.688   7.402 -0.1089 -0.3409 -0.2164
  526PNCE   AM1 4720  15.341   4.533   9.025 -0.2544 -0.0216  0.2441
  526PNCE   AM2 4721  15.402   4.347   8.789 -0.2550  0.1411  0.1365
  526PNCE   T1A 4722  15.531   4.926   8.886  0.2914  0.2055 -0.0642
  526PNCE   C2A 4723  15.780   5.183   8.685 -0.1269 -0.0649  0.0622
  526PNCE   C3A 4724  15.785   5.400   8.324 -0.0388  0.1566 -0.0065
  526PNCE   C1B 4725  15.356   4.636   8.427 -0.1357  0.0566  0.1907
  526PNCE   C2B 4726  15.341   5.084   8.397  0.0910 -0.1377 -0.2082
  526PNCE   C3B 4727  15.180   5.437   8.111 -0.3311 -0.0636 -0.0539
  526PNCE   D4B 4728  15.167   5.472   7.796 -0.0237 -0.1663  0.1016
  526PNCE   C5B 4729  15.453   5.215   7.481  0.3823 -0.1216  0.0515
  526PNCE   C6B 4730  15.635   4.854   7.210 -0.1997  0.1025  0.1676
  527XCA    COO 4731   1.363   8.603   9.713 -0.2268 -0.0497 -0.0726
  527XCA     C1 4732   1.079   8.351   9.414 -0.0712 -0.2910 -0.2933
  527XCA     C2 4733   1.134   8.110   9.071  0.1186 -0.3846  0.0136
  527XCA     C3 4734   1.093   8.160   8.627  0.2287  0.1147  0.1492
  527XCA     C4 4735   1.356   8.280   8.225  0.1002 -0.2686 -0.0825
  527XCA     C5 4736   1.724   8.523   8.288  0.3092  0.1146 -0.1039
  527XCA     C6 4737   1.909   8.731   8.662  0.2033  0.0805  0.0716
  528CHOL   ROH 4738   6.711   7.685   8.205 -0.0899  0.3160  0.0199
  528CHOL    R1 4739   6.813   7.597   7.956  0.0900  0.2518  0.1151
  528CHOL    R2 4740   6.670   7.617   7.721  0.0976 -0.1707  0.0684
  528CHOL    R3 4741   6.892   7.747   7.634 -0.0809  0.0952 -0.0026
  528CHOL    R4 4742   6.802   7.592   7.402  0.2074 -0.2732  0.1207
  528CHOL    R5 4743   7.001   7.590   7.491  0.1974  0.1205  0.1729
  528CHOL    C1 4744   7.088   7.701   7.136  0.1038 -0.0833  0.0844
  528CHOL    C2 4745   7.086   7.320   6.919  0.0875 -0.2525  0.0550
  529XCA    COO 4746  10.980   0.041   8.732  0.0081 -0.1213  0.0281
  529XCA     C1 4747  10.689  -0.328   8.629 -0.1125  0.2141  0.1826
  529XCA     C2 4748  10.640  -0.422   8.215 -0.1565  0.0519  0.0796
  529XCA     C3 4749  10.698  -0.394   7.708  0.0361  0.2870 -0.0232
  529XCA     C4 4750  10.554  -0.120   7.454 -0.0827  0.1371  0.3024
  529XCA     C5 4751  10.210   0.058   7.408 -0.2475 -0.0036  0.1734
  529XCA     C6 4752   9.868  -0.034   7.493 -0.0374 -0.1013  0.1198
  530PNCE   AM1 4753   0.737   1.363   7.753  0.0780  0.1638 -0.0190
  530PNCE   AM2 4754   0.877   1.447   8.016 -0.0811  0.1019  0.3001
  530PNCE   T1A 4755   0.897   1.432   7.287  0.0056 -0.2443 -0.1180
  530PNCE   C2A 4756   1.087   1.461   6.889  0.0297  0.1869 -0.3070
  530PNCE   C3A 4757   1.173   1.596   6.486 -0.1597  0.1398  0.0269
  530PNCE   C1B 4758   1.094   1.805   7.649  0.2590  0.2847  0.2522
  530PNCE   C2B 4759   1.247   2.044   7.266  0.2449 -0.1393  0.3119
  530PNCE   C3B 4760   1.251   2.365   6.979 -0.1815 -0.1457  0.1241
  530PNCE   D4B 4761   1.381   2.422   6.500  0.1217 -0.0757  0.2198
  530PNCE   C5B 4762   1.171   2.116   6.341  0.1180  0.1402 -0.1096
  530PNCE   C6B 4763   0.844   1.911   6.189 -0.0198 -0.1280 -0.2566
  531CHOL   ROH 4764   0.433   7.475   9.852 -0.0588 -0.2738 -0.0366
  531CHOL    R1 4765   0.546   7.564   9.608  0.0097 -0.2218  0.0135
  531CHOL    R2 4766   0.675   7.394   9.433 -0.0046 -0.1972 -0.0196
  531CHOL    R3 4767   0.497   7.495   9.254  0.0560 -0.0893 -0.0195
  531CHOL    R4 4768   0.702   7.364   9.090  0.0111 -0.1631 -0.0214
  531CHOL    R5 4769   0.633   7.570   9.072  0.1076 -0.1267  0.0019
  531CHOL    C1 4770   0.550   7.443   8.722  0.0772 -0.0419 -0.0222
  531CHOL    C2 4771   0.697   7.631   8.440  0.0101  0.2143  0.0129
  532PNCE   AM1 4772  11.576  11.823   8.963 -0.0571  0.0124  0.1175
  532PNCE   AM2 4773  11.252  11.968   8.852  0.1640  0.0323 -0.1081
  532PNCE   T1A 4774  11.631  11.613   8.640 -0.0432 -0.1579 -0.1797
  532PNCE   C2A 4775  11.400  11.416   8.278  0.1774 -0.2271  0.1628
  532PNCE   C3A 4776  11.040  11.490   8.009  0.3338  0.1371 -0.1046
  532PNCE   C1B 4777  11.242  11.836   8.411  0.1882 -0.0511 -0.0353
  532PNCE   C2B 4778  11.027  12.067   8.061  0.1430 -0.0900  0.1988
  532PNCE   C3B 4779  10.720  12.264   7.903 -0.1148 -0.0037 -0.0517
  532PNCE   D4B 4780  10.425  12.136   7.591  0.1594 -0.0449 -0.2365
  532PNCE   C5B 4781  10.427  11.730   7.261 -0.1185  0.0718  0.2883
  532PNCE   C6B 4782  10.615  11.375   6.983 -0.2341  0.0565  0.0515
  533PNCE   AM1 4783  13.064   7.412   9.340 -0.1470 -0.0163 -0.0916
  533PNCE   AM2 4784  13.040   7.093   9.379  0.1815  0.0328  0.1565
  533PNCE   T1A 4785  13.041   7.697   8.985 -0.2176 -0.0585  0.2782
  533PNCE   C2A 4786  13.099   8.062   8.598  0.0933 -0.0277 -0.4229
  533PNCE   C3A 4787  13.113   8.376   8.265  0.2000 -0.0669  0.2141
  533PNCE   C1B 4788  13.488   6.876   9.123  0.3334 -0.0919  0.0405
  533PNCE   C2B 4789  13.582   7.089   8.769  0.0257  0.0277 -0.0756
  533PNCE   C3B 4790  13.634   7.213   8.453  0.1046 -0.0700 -0.2949
  533PNCE   D4B 4791  13.799   7.422   8.232  0.2958 -0.2068 -0.2735
  533PNCE   C5B 4792  14.156   7.297   8.084  0.5434  0.1153  0.4399
  533PNCE   C6B 4793  14.411   7.335   7.761 -0.0221  0.3898  0.0943
  534PNCE   AM1 4794  13.832  10.280   8.817  0.1176 -0.2097  0.1970
  534PNCE   AM2 4795  13.724  10.510   9.027  0.1803 -0.1722  0.0778
  534PNCE   T1A 4796  14.242  10.209   8.755  0.0146  0.0407  0.1086
  534PNCE   C2A 4797  14.625  10.181   8.538 -0.2722 -0.1511  0.4711
  534PNCE   C3A 4798  14.783  10.139   8.096  0.4149  0.0197 -0.1642
  534PNCE   C1B 4799  13.388  10.452   8.587 -0.1874  0.1604 -0.1694
  534PNCE   C2B 4800  13.078  10.437   8.302 -0.1333 -0.1502  0.0852
  534PNCE   C3B 4801  12.980  10.143   8.019 -0.1652 -0.0194 -0.1672
  534PNCE   D4B 4802  12.849   9.747   7.778  0.1025  0.2412 -0.3000
  534PNCE   C5B 4803  12.647   9.853   7.376  0.1081 -0.2552  0.1014
  534PNCE   C6B 4804  12.703  10.150   6.997  0.1245  0.1478 -0.0670
  535PNCE   AM1 4805  11.469   6.879   8.817  0.1070 -0.1787 -0.2516
  535PNCE   AM2 4806  11.170   6.854   8.695 -0.5633 -0.0919 -0.0516
  535PNCE   T1A 4807  11.522   7.341   8.562  0.0588  0.0967 -0.1036
  535PNCE   C2A 4808  11.657   7.639   8.650 -0.0982  0.0882 -0.2263
  535PNCE   C3A 4809  12.110   7.729   8.752  0.1754  0.1000  0.1062
  535PNCE   C1B 4810  11.473   6.699   8.352 -0.1577 -0.0584  0.1068
  535PNCE   C2B 4811  11.768   6.635   8.060  0.2338 -0.0181 -0.1652
  535PNCE   C3B 4812  12.047   6.585   7.737 -0.1022  0.1501  0.0611
  535PNCE   D4B 4813  12.324   6.768   7.370  0.0190  0.0230 -0.1418
  535PNCE   C5B 4814  12.697   6.559   7.226  0.2525 -0.3337  0.0718
  535PNCE   C6B 4815  12.732   6.297   7.000  0.1476  0.1028  0.0785
  536CHOL   ROH 4816   7.213   2.015   4.217  0.0515  0.1269  0.0461
  536CHOL    R1 4817   7.139   1.985   4.489  0.0897  0.1387  0.0580
  536CHOL    R2 4818   7.068   2.198   4.648  0.0673  0.1404  0.0466
  536CHOL    R3 4819   6.844   2.050   4.692  0.1013  0.1014  0.0869
  536CHOL    R4 4820   6.896   2.184   4.948  0.2391 -0.0445  0.1376
  536CHOL    R5 4821   6.870   1.969   4.916  0.2347 -0.0284  0.0271
  536CHOL    C1 4822   6.587   2.035   5.164  0.3711 -0.1888  0.2286
  536CHOL    C2 4823   6.488   2.006   5.588 -0.0105 -0.1317 -0.1616
  537CHOL   ROH 4824   3.155  14.145   7.913 -0.0176  0.1999 -0.0711
  537CHOL    R1 4825   3.207  13.952   7.713  0.1651  0.2866 -0.1105
  537CHOL    R2 4826   3.023  13.757   7.642  0.4884 -0.1268  0.1276
  537CHOL    R3 4827   3.061  13.858   7.393 -0.0200 -0.0546  0.0703
  537CHOL    R4 4828   3.035  13.569   7.353  0.8077 -0.1577  0.1574
  537CHOL    R5 4829   3.198  13.695   7.283  0.3833  0.3239 -0.0091
  537CHOL    C1 4830   3.077  13.553   6.950  0.5164 -0.1079  0.1209
  537CHOL    C2 4831   3.015  13.533   6.502  0.2425 -0.3542  0.1945
  538PNCE   AM1 4832   7.491  15.395   7.948  0.2292 -0.0890 -0.0684
  538PNCE   AM2 4833   7.167  15.415   8.023  0.1234  0.1218  0.3778
  538PNCE   T1A 4834   7.909  15.467   7.585 -0.3274 -0.4240 -0.0356
  538PNCE   C2A 4835   8.086  15.708   7.171 -0.2674  0.3879  0.3755
  538PNCE   C3A 4836   8.391  15.533   7.010 -0.2257 -0.0141 -0.0832
  538PNCE   C1B 4837   7.153  15.569   7.627  0.5182 -0.2709 -0.0203
  538PNCE   C2B 4838   7.131  15.671   7.179 -0.1223  0.0949  0.1798
  538PNCE   C3B 4839   7.159  15.825   6.724  0.0008 -0.1142 -0.1463
  538PNCE   D4B 4840   7.203  16.056   6.339  0.5200 -0.2718 -0.1713
  538PNCE   C5B 4841   6.944  16.316   6.179 -0.2813  0.1867 -0.1474
  538PNCE   C6B 4842   6.606  16.356   5.886 -0.0232  0.1656 -0.3430
  539XCA    COO 4843   8.832  13.308   8.325  0.1399  0.1382 -0.2035
  539XCA     C1 4844   9.178  13.312   8.105 -0.1432 -0.1554  0.1215
  539XCA     C2 4845   9.383  13.337   7.647  0.3282  0.0102  0.0996
  539XCA     C3 4846   9.573  13.309   7.311  0.4135 -0.1076  0.2267
  539XCA     C4 4847   9.573  13.575   7.073 -0.1899 -0.5209  0.1242
  539XCA     C5 4848   9.517  13.747   6.768  0.0794  0.0168 -0.1199
  539XCA     C6 4849   9.152  13.676   6.475  0.5625 -0.1403 -0.2609
  540CHOL   ROH 4850   9.302  15.072   4.436  0.0809  0.4803  0.0060
  540CHOL    R1 4851   9.219  15.139   4.699 -0.1572  0.1945  0.0082
  540CHOL    R2 4852   8.962  15.095   4.790 -0.1707 -0.1556 -0.1826
  540CHOL    R3 4853   9.089  14.960   4.988 -0.1473 -0.1668 -0.2048
  540CHOL    R4 4854   8.839  15.050   5.110 -0.1229 -0.1566 -0.1641
  540CHOL    R5 4855   9.040  15.084   5.186 -0.1096 -0.1690 -0.1942
  540CHOL    C1 4856   8.888  14.897   5.482 -0.0732 -0.1678 -0.1741
  540CHOL    C2 4857   8.850  14.780   5.870  0.2266 -0.1934  0.0761
  541PNCE   AM1 4858   4.229   1.438   7.630  0.0758 -0.1438  0.0537
  541PNCE   AM2 4859   4.134   1.710   7.829  0.0885  0.0070  0.2187
  541PNCE   T1A 4860   3.943   1.431   7.376  0.1356  0.2409 -0.0606
  541PNCE   C2A 4861   3.703   1.214   6.974 -0.3163  0.0201 -0.1628
  541PNCE   C3A 4862   3.391   1.217   6.692 -0.0825 -0.1227  0.0326
  541PNCE   C1B 4863   4.257   1.942   7.484 -0.2239 -0.2087  0.1921
  541PNCE   C2B 4864   4.561   2.203   7.236 -0.0033  0.0137  0.0690
  541PNCE   C3B 4865   4.813   2.256   7.007  0.1471 -0.1786  0.1562
  541PNCE   D4B 4866   4.971   2.495   6.644  0.0429 -0.0806 -0.0957
  541PNCE   C5B 4867   5.451   2.594   6.708 -0.2498 -0.2334  0.1946
  541PNCE   C6B 4868   5.658   2.968   6.520 -0.2529 -0.1505 -0.0774
  542PNCE   AM1 4869   9.300  14.193   8.265 -0.0849  0.1752  0.0655
  542PNCE   AM2 4870   9.106  14.406   8.200  0.1582  0.2016 -0.2189
  542PNCE   T1A 4871   9.624  14.437   7.977 -0.0875  0.0776  0.1976
  542PNCE   C2A 4872   9.863  14.670   7.729  0.1176 -0.0510  0.0963
  542PNCE   C3A 4873   9.897  15.091   7.417 -0.0633  0.1928  0.2154
  542PNCE   C1B 4874   9.095  14.458   7.760 -0.1880  0.0720 -0.3210
  542PNCE   C2B 4875   9.341  14.502   7.495  0.1916 -0.1552  0.2543
  542PNCE   C3B 4876   9.500  14.766   7.139 -0.1648 -0.3667  0.0182
  542PNCE   D4B 4877   9.627  14.957   6.666  0.2029 -0.0317 -0.0570
  542PNCE   C5B 4878   9.781  14.589   6.372  0.0801  0.0778 -0.1033
  542PNCE   C6B 4879   9.767  14.370   6.057 -0.1881 -0.2240  0.0646
  543PNCE   AM1 4880   5.423  10.096   8.942 -0.1160  0.0496  0.0529
  543PNCE   AM2 4881   5.110  10.238   8.874 -0.1712  0.0035  0.2729
  543PNCE   T1A 4882   5.465   9.659   8.748  0.1068  0.3415 -0.1110
  543PNCE   C2A 4883   5.335   9.330   8.404  0.1402  0.0449 -0.1904
  543PNCE   C3A 4884   5.132   9.004   8.206 -0.1612  0.2408 -0.0907
  543PNCE   C1B 4885   5.200  10.269   8.389 -0.2659 -0.0862  0.5525
  543PNCE   C2B 4886   5.439  10.262   8.051 -0.0676 -0.0543  0.0292
  543PNCE   C3B 4887   5.794  10.050   7.936 -0.0274 -0.3203 -0.1215
  543PNCE   D4B 4888   5.914   9.738   7.567 -0.2229 -0.2696  0.3187
  543PNCE   C5B 4889   6.178  10.026   7.362  0.1325  0.0317 -0.4241
  543PNCE   C6B 4890   6.423  10.302   7.135  0.1385 -0.0649 -0.1397
  544CHOL   ROH 4891   4.373   4.994   4.922 -0.3282 -0.1168 -0.0681
  544CHOL    R1 4892   4.370   4.980   5.204 -0.0927 -0.0527 -0.0601
  544CHOL    R2 4893   4.141   5.025   5.353  0.0424  0.0387  0.1259
  544CHOL    R3 4894   4.201   4.781   5.457  0.0684  0.0467  0.1287
  544CHOL    R4 4895   4.067   4.924   5.676  0.0203  0.0230  0.1154
  544CHOL    R5 4896   4.262   4.826   5.685  0.0346  0.0533  0.1364
  544CHOL    C1 4897   4.079   4.636   5.961  0.0320  0.0214  0.1120
  544CHOL    C2 4898   4.227   4.713   6.288  0.1589 -0.2138  0.0805
  545PNCE   AM1 4899   5.787  15.147   6.959  0.2732  0.0334 -0.3331
  545PNCE   AM2 4900   5.925  14.927   7.228 -0.4610 -0.0311  0.2484
  545PNCE   T1A 4901   5.615  14.837   6.703 -0.0018 -0.1474 -0.4414
  545PNCE   C2A 4902   5.695  14.536   6.441  0.3195 -0.3842 -0.0195
  545PNCE   C3A 4903   5.676  14.116   6.401  0.0066  0.0274  0.1409
  545PNCE   C1B 4904   5.785  14.564   7.077  0.1734 -0.3629 -0.0313
  545PNCE   C2B 4905   5.492  14.275   6.819  0.0447  0.2193 -0.3944
  545PNCE   C3B 4906   5.232  13.911   6.638  0.1610 -0.0728  0.1392
  545PNCE   D4B 4907   5.331  13.503   6.330  0.0710  0.2475 -0.0552
  545PNCE   C5B 4908   5.330  13.049   6.406 -0.2276  0.3712 -0.3234
  545PNCE   C6B 4909   5.308  12.581   6.511  0.0567  0.3664  0.2210
  546PNCE   AM1 4910   7.328  14.921   7.788 -0.4108  0.3032 -0.1969
  546PNCE   AM2 4911   6.993  14.822   7.913  0.0555  0.3339  0.0103
  546PNCE   T1A 4912   7.474  14.753   7.408  0.0979  0.4804  0.1208
  546PNCE   C2A 4913   7.644  14.777   7.066 -0.0268  0.1379 -0.0764
  546PNCE   C3A 4914   7.725  14.911   6.591 -0.0301  0.1008 -0.0513
  546PNCE   C1B 4915   6.967  14.840   7.439 -0.0314  0.1829  0.1855
  546PNCE   C2B 4916   7.132  14.865   7.028  0.0548 -0.1023 -0.0474
  546PNCE   C3B 4917   7.108  14.935   6.617  0.0260 -0.3737 -0.1694
  546PNCE   D4B 4918   7.369  14.981   6.260 -0.0797  0.1602  0.0177
  546PNCE   C5B 4919   7.739  15.186   6.115 -0.1694 -0.2135 -0.2756
  546PNCE   C6B 4920   8.143  15.355   6.194 -0.1494 -0.0298 -0.3429
  547PNCE   AM1 4921  13.090   2.184   8.601 -0.1911 -0.2134 -0.0767
  547PNCE   AM2 4922  12.816   2.071   8.549  0.1979 -0.3616  0.0088
  547PNCE   T1A 4923  13.002   2.594   8.403 -0.1875 -0.0708 -0.0710
  547PNCE   C2A 4924  12.751   2.842   8.219 -0.0234  0.1905  0.5731
  547PNCE   C3A 4925  12.763   3.108   7.815  0.0787 -0.0509 -0.0170
  547PNCE   C1B 4926  12.627   2.300   8.129  0.1920 -0.0786  0.0593
  547PNCE   C2B 4927  12.719   2.021   7.848 -0.0373  0.0333  0.1147
  547PNCE   C3B 4928  12.741   1.918   7.416 -0.2408  0.0743  0.0387
  547PNCE   D4B 4929  12.518   1.766   7.021 -0.1845 -0.1012 -0.1018
  547PNCE   C5B 4930  12.541   2.005   6.655 -0.0598 -0.0175 -0.0546
  547PNCE   C6B 4931  12.399   2.172   6.319  0.3439  0.1261 -0.0398
  548PNCE   AM1 4932  13.274  12.394   8.601  0.0222  0.0320  0.1024
  548PNCE   AM2 4933  13.573  12.275   8.728 -0.1723  0.0905  0.1522
  548PNCE   T1A 4934  13.309  12.328   8.206 -0.1078 -0.2219 -0.0492
  548PNCE   C2A 4935  13.348  12.364   7.797  0.3972  0.0241  0.1112
  548PNCE   C3A 4936  13.039  12.329   7.519  0.1140 -0.2488  0.2361
  548PNCE   C1B 4937  13.804  11.862   8.644 -0.0747 -0.1831  0.2750
  548PNCE   C2B 4938  14.099  11.629   8.227  0.1193 -0.2951 -0.3794
  548PNCE   C3B 4939  14.103  11.669   7.815 -0.1363 -0.2048  0.1008
  548PNCE   D4B 4940  14.410  11.455   7.508  0.0532 -0.0092 -0.1634
  548PNCE   C5B 4941  14.822  11.466   7.432  0.0881  0.0044  0.5157
  548PNCE   C6B 4942  15.160  11.763   7.347  0.2585 -0.1142 -0.1525
  549CHOL   ROH 4943  11.060  13.241   8.270  0.2221  0.0594  0.0103
  549CHOL    R1 4944  11.181  13.274   8.016  0.2412 -0.2831 -0.0293
  549CHOL    R2 4945  11.178  13.077   7.824 -0.3774 -0.2937 -0.0263
  549CHOL    R3 4946  11.072  13.274   7.669  0.1177  0.0173  0.0055
  549CHOL    R4 4947  11.168  13.073   7.478 -0.4241 -0.2322 -0.0263
  549CHOL    R5 4948  11.218  13.285   7.479  0.1400 -0.3464 -0.0076
  549CHOL    C1 4949  11.063  13.255   7.132  0.0134  0.0956  0.0033
  549CHOL    C2 4950  11.047  13.443   6.772 -0.0415  0.2180 -0.0074
  550XCA    COO 4951   8.476   1.422   4.023 -0.0155 -0.0451  0.0601
  550XCA     C1 4952   8.367   1.026   4.212  0.0463 -0.0620 -0.2232
  550XCA     C2 4953   7.926   1.006   4.493  0.2322  0.0683 -0.0186
  550XCA     C3 4954   7.573   0.723   4.421 -0.2451 -0.1653  0.0547
  550XCA     C4 4955   7.380   0.424   4.674  0.2222 -0.1813 -0.2987
  550XCA     C5 4956   7.202   0.423   5.114  0.1931 -0.1734 -0.1579
  550XCA     C6 4957   7.468   0.304   5.424 -0.2116  0.1398  0.1284
  551PNCE   AM1 4958   8.682   6.985   8.320 -0.1718  0.0393  0.0270
  551PNCE   AM2 4959   8.794   7.049   8.561 -0.3525 -0.0549  0.1554
  551PNCE   T1A 4960   8.210   6.993   8.095  0.2536  0.2686  0.0944
  551PNCE   C2A 4961   7.779   7.080   7.840  0.1785 -0.0313  0.0180
  551PNCE   C3A 4962   7.560   7.008   7.438 -0.1318  0.1235 -0.0675
  551PNCE   C1B 4963   8.976   7.434   8.402  0.0181  0.1150 -0.3712
  551PNCE   C2B 4964   8.836   7.845   8.245 -0.1081 -0.0252  0.1862
  551PNCE   C3B 4965   8.842   8.118   7.890  0.2102 -0.1214  0.0388
  551PNCE   D4B 4966   9.105   8.198   7.590 -0.1450  0.0785  0.0692
  551PNCE   C5B 4967   9.267   7.816   7.545 -0.2030  0.3174  0.1861
  551PNCE   C6B 4968   9.479   7.758   7.185 -0.0352 -0.1973 -0.3307
  552XCA    COO 4969  15.826   9.900   6.053  0.1463 -0.1454 -0.0394
  552XCA     C1 4970  15.769   9.968   6.518 -0.0908 -0.2139  0.0274
  552XCA     C2 4971  15.811   9.934   6.943 -0.1499  0.1422 -0.0405
  552XCA     C3 4972  15.875   9.675   7.324  0.1325 -0.0226  0.3716
  552XCA     C4 4973  16.025   9.599   7.719 -0.4080 -0.0933 -0.1599
  552XCA     C5 4974  15.831   9.382   8.132 -0.1348  0.3930 -0.0498
  552XCA     C6 4975  15.531   9.114   8.179  0.1987 -0.1633 -0.0581
  553PNCE   AM1 4976   8.231   7.855   8.740  0.0439  0.2052 -0.3410
  553PNCE   AM2 4977   8.567   7.702   8.712 -0.2309  0.1021 -0.1385
  553PNCE   T1A 4978   8.188   7.830   8.255  0.0422 -0.2686 -0.1068
  553PNCE   C2A 4979   8.365   7.939   7.971  0.1456  0.0484 -0.0554
  553PNCE   C3A 4980   8.472   8.237   7.590  0.1625 -0.1404  0.1030
  553PNCE   C1B 4981   8.378   7.298   8.534  0.0974 -0.0389 -0.1185
  553PNCE   C2B 4982   8.485   7.374   8.154  0.0556 -0.2666  0.0301
  553PNCE   C3B 4983   8.486   7.313   7.715 -0.0495 -0.0425  0.1074
  553PNCE   D4B 4984   8.671   7.241   7.327 -0.1250  0.1175 -0.3688
  553PNCE   C5B 4985   8.994   7.396   7.356 -0.1545  0.4105  0.0047
  553PNCE   C6B 4986   9.353   7.323   7.602 -0.0006  0.2366  0.0500
  554CHOL   ROH 4987  11.985  14.579   7.057 -0.0556 -0.3921 -0.0027
  554CHOL    R1 4988  11.918  14.470   6.804 -0.0944 -0.2534 -0.0535
  554CHOL    R2 4989  11.675  14.516   6.682 -0.0634 -0.0800 -0.0511
  554CHOL    R3 4990  11.831  14.598   6.475 -0.0089 -0.0716 -0.0068
  554CHOL    R4 4991  11.582  14.509   6.349  0.0504 -0.1373 -0.0821
  554CHOL    R5 4992  11.784  14.443   6.299  0.0822 -0.1024 -0.0057
  554CHOL    C1 4993  11.675  14.582   5.961  0.1679 -0.1627 -0.0586
  554CHOL    C2 4994  11.639  14.431   5.597  0.2710  0.1626 -0.1369
  555CHOL   ROH 4995  11.603   6.406   5.236 -0.0144  0.1505  0.0668
  555CHOL    R1 4996  11.587   6.302   5.499  0.0060  0.1323  0.0604
  555CHOL    R2 4997  11.664   6.447   5.721 -0.0587  0.1479  0.0701
  555CHOL    R3 4998  11.413   6.387   5.807 -0.0428  0.0555  0.0548
  555CHOL    R4 4999  11.568   6.427   6.053 -0.0737  0.1307  0.0652
  555CHOL    R5 5000  11.447   6.253   6.002 -0.0034  0.0792  0.0660
  555CHOL    C1 5001  11.276   6.360   6.326 -0.0676  0.0338  0.0480
  555CHOL    C2 5002  11.355   6.252   6.580  0.3003  0.0997 -0.0731
  556CHOL   ROH 5003   7.768   4.190   5.767  0.1237 -0.2394 -0.1432
  556CHOL    R1 5004   8.037   4.275   5.740  0.0528 -0.0638 -0.3257
  556CHOL    R2 5005   8.119   4.446   5.539 -0.2608  0.2755 -0.1769
  556CHOL    R3 5006   8.217   4.591   5.748 -0.1037  0.0211 -0.0687
  556CHOL    R4 5007   8.232   4.772   5.518 -0.1580  0.2622  0.1147
  556CHOL    R5 5008   8.395   4.720   5.653 -0.1072  0.0600 -0.0219
  556CHOL    C1 5009   8.389   5.098   5.701  0.0493  0.0156  0.3860
  556CHOL    C2 5010   8.750   5.265   5.775 -0.1128 -0.1225  0.0622
  557PNCE   AM1 5011   6.595   3.272   7.945  0.1369  0.0279 -0.2047
  557PNCE   AM2 5012   6.559   2.908   8.002 -0.4232  0.0205  0.2480
  557PNCE   T1A 5013   6.605   3.627   7.624  0.1020  0.1061  0.2182
  557PNCE   C2A 5014   6.627   3.994   7.523 -0.1751 -0.1624 -0.3241
  557PNCE   C3A 5015   6.520   4.243   7.182 -0.0821 -0.1293 -0.3697
  557PNCE   C1B 5016   6.193   3.080   7.689  0.2548  0.1076  0.1613
  557PNCE   C2B 5017   5.776   3.273   7.740  0.0425  0.3292 -0.0212
  557PNCE   C3B 5018   5.498   3.613   7.651  0.2006  0.1137  0.0538
  557PNCE   D4B 5019   5.118   3.641   7.865 -0.2145  0.3194 -0.0724
  557PNCE   C5B 5020   5.139   3.670   8.385  0.3489 -0.0372  0.1446
  557PNCE   C6B 5021   5.425   3.474   8.785 -0.2532 -0.1863 -0.1123
  558CHOL   ROH 5022   3.027  12.337   9.357 -0.0525 -0.2865 -0.0006
  558CHOL    R1 5023   2.831  12.438   9.179  0.0300 -0.0356  0.0485
  558CHOL    R2 5024   2.897  12.579   8.950  0.1538 -0.1166  0.0358
  558CHOL    R3 5025   2.742  12.391   8.829 -0.1184  0.0798  0.0691
  558CHOL    R4 5026   2.723  12.627   8.655  0.2637  0.0701 -0.0005
  558CHOL    R5 5027   2.557  12.515   8.741  0.0766  0.3429  0.0113
  558CHOL    C1 5028   2.477  12.479   8.370  0.0722  0.3633  0.0097
  558CHOL    C2 5029   2.109  12.381   8.247  0.0525 -0.1151 -0.0860
  559PNCE   AM1 5030   7.507   6.829   8.252  0.1066  0.1158  0.2000
  559PNCE   AM2 5031   7.333   6.575   8.436 -0.1089  0.2161  0.0643
  559PNCE   T1A 5032   7.319   6.674   7.840 -0.1669 -0.0041 -0.3351
  559PNCE   C2A 5033   7.251   6.545   7.482  0.0739  0.2121  0.1281
  559PNCE   C3A 5034   6.843   6.300   7.239 -0.5060  0.2152  0.1273
  559PNCE   C1B 5035   7.271   6.261   8.116 -0.1492  0.3483  0.0825
  559PNCE   C2B 5036   7.378   6.097   7.667 -0.1110  0.0330  0.2581
  559PNCE   C3B 5037   7.347   6.125   7.229  0.3241 -0.3237 -0.0419
  559PNCE   D4B 5038   7.093   6.094   6.846 -0.6508 -0.1322 -0.0959
  559PNCE   C5B 5039   7.423   5.926   6.571 -0.0312 -0.0985 -0.0760
  559PNCE   C6B 5040   7.787   6.116   6.347  0.0417 -0.1877  0.4130
  560PNCE   AM1 5041  14.520  10.983   9.220  0.1141  0.2963  0.1815
  560PNCE   AM2 5042  14.771  11.214   9.153 -0.1563 -0.0846  0.2289
  560PNCE   T1A 5043  14.702  11.064   8.704  0.0786  0.2675 -0.2859
  560PNCE   C2A 5044  14.788  11.063   8.182  0.1524  0.3070  0.0946
  560PNCE   C3A 5045  14.585  11.125   7.853  0.1913  0.1783  0.1116
  560PNCE   C1B 5046  15.071  11.352   8.845 -0.0472 -0.2694  0.0075
  560PNCE   C2B 5047  15.470  11.527   8.915 -0.2719  0.2197 -0.3005
  560PNCE   C3B 5048  15.887  11.662   8.606 -0.2390  0.0684 -0.1217
  560PNCE   D4B 5049  16.158  11.575   8.158 -0.0578  0.0333 -0.2004
  560PNCE   C5B 5050  16.070  11.220   7.946  0.2514 -0.3742 -0.0036
  560PNCE   C6B 5051  16.033  10.844   7.680  0.1399 -0.0286 -0.0957
  561PNCE   AM1 5052   2.122   0.353   8.222  0.4281  0.0040 -0.0473
  561PNCE   AM2 5053   1.972   0.412   8.511  0.2936  0.3054  0.0414
  561PNCE   T1A 5054   2.094  -0.136   8.088  0.1722 -0.1877 -0.2110
  561PNCE   C2A 5055   1.872  -0.385   7.851  0.1851  0.1747 -0.1643
  561PNCE   C3A 5056   1.915  -0.720   7.705  0.1240 -0.3135 -0.2374
  561PNCE   C1B 5057   1.707   0.052   8.296 -0.2117  0.1165  0.1654
  561PNCE   C2B 5058   1.543  -0.411   8.225  0.2166  0.0110 -0.3411
  561PNCE   C3B 5059   1.468  -0.638   7.908  0.1763  0.1177  0.1718
  561PNCE   D4B 5060   1.365  -0.968   7.678 -0.0014  0.2728  0.0949
  561PNCE   C5B 5061   1.730  -1.260   7.663 -0.0675  0.0597 -0.0733
  561PNCE   C6B 5062   1.835  -1.532   7.404  0.1888  0.1855 -0.2167
  562PNCE   AM1 5063  14.000   6.419   9.713 -0.0455 -0.2321 -0.2908
  562PNCE   AM2 5064  14.276   6.611   9.891  0.1887 -0.1967  0.0136
  562PNCE   T1A 5065  14.074   6.375   9.329 -0.2916 -0.0840  0.0907
  562PNCE   C2A 5066  14.207   6.242   8.910  0.0760  0.2768 -0.0273
  562PNCE   C3A 5067  14.284   6.362   8.550 -0.0642  0.3932 -0.1186
  562PNCE   C1B 5068  14.297   6.862   9.478  0.0140  0.1032  0.0442
  562PNCE   C2B 5069  14.071   6.973   9.031  0.1180  0.2210 -0.0819
  562PNCE   C3B 5070  14.097   7.206   8.636 -0.1909  0.0480 -0.2255
  562PNCE   D4B 5071  14.111   7.657   8.610 -0.3049 -0.2881  0.0830
  562PNCE   C5B 5072  14.363   7.752   8.240 -0.0140  0.2232  0.0013
  562PNCE   C6B 5073  14.572   7.906   7.803  0.0962  0.2307  0.1135
  563PNCE   AM1 5074   6.551   2.504   7.610 -0.0570 -0.0184  0.3745
  563PNCE   AM2 5075   6.215   2.614   7.868  0.4010 -0.1053 -0.1238
  563PNCE   T1A 5076   6.597   2.832   7.291  0.0398 -0.0086  0.3995
  563PNCE   C2A 5077   6.448   3.246   7.295 -0.0480  0.1441 -0.0743
  563PNCE   C3A 5078   6.405   3.752   7.103 -0.0427 -0.2866  0.0899
  563PNCE   C1B 5079   6.063   2.617   7.372  0.1073 -0.2147  0.2292
  563PNCE   C2B 5080   6.181   2.858   6.988 -0.2018  0.0904  0.1664
  563PNCE   C3B 5081   6.478   3.028   6.725  0.0265 -0.1776  0.2601
  563PNCE   D4B 5082   6.542   3.525   6.662 -0.1086  0.0541 -0.0615
  563PNCE   C5B 5083   6.444   3.661   6.290 -0.2141 -0.1285  0.0539
  563PNCE   C6B 5084   6.089   3.965   6.244 -0.5274 -0.0299  0.2335
  564PNCE   AM1 5085   0.069  13.154   9.165  0.4491  0.0583 -0.1992
  564PNCE   AM2 5086  -0.144  13.590   9.015  0.0313 -0.2732  0.0235
  564PNCE   T1A 5087   0.225  13.314   8.750 -0.2723  0.3218 -0.0557
  564PNCE   C2A 5088   0.221  12.983   8.381  0.2199  0.2556  0.0744
  564PNCE   C3A 5089   0.361  12.850   7.966 -0.1926 -0.0650  0.1946
  564PNCE   C1B 5090  -0.183  13.556   8.512  0.1971 -0.0959 -0.2516
  564PNCE   C2B 5091  -0.197  13.254   8.176 -0.0896  0.3156  0.1391
  564PNCE   C3B 5092   0.012  13.211   7.768  0.1265  0.1056 -0.0064
  564PNCE   D4B 5093   0.067  12.855   7.492 -0.1361 -0.4607  0.0450
  564PNCE   C5B 5094  -0.140  12.860   7.020 -0.0194 -0.0364  0.0106
  564PNCE   C6B 5095  -0.196  12.904   6.568  0.0935  0.0267 -0.1045
  565CHOL   ROH 5096   4.112   8.104   9.581  0.1176  0.1060 -0.0277
  565CHOL    R1 5097   4.244   8.007   9.350  0.0841  0.1558 -0.0680
  565CHOL    R2 5098   4.122   7.839   9.168  0.1171  0.0401  0.0138
  565CHOL    R3 5099   4.198   8.030   8.990 -0.0887  0.0640 -0.0523
  565CHOL    R4 5100   4.122   7.801   8.825 -0.1347  0.0383  0.0115
  565CHOL    R5 5101   4.311   7.909   8.817 -0.1794  0.1043 -0.1384
  565CHOL    C1 5102   4.195   7.958   8.458 -0.4745  0.0596 -0.0518
  565CHOL    C2 5103   4.369   7.894   8.073  0.2943 -0.0679 -0.2209
  566CHOL   ROH 5104   2.145   7.345   5.913  0.1576 -0.0574 -0.0365
  566CHOL    R1 5105   2.113   7.259   6.180  0.0288 -0.0757 -0.0566
  566CHOL    R2 5106   2.328   7.211   6.347 -0.0508 -0.0619  0.0526
  566CHOL    R3 5107   2.199   7.386   6.511 -0.1543 -0.0844 -0.0046
  566CHOL    R4 5108   2.385   7.243   6.687 -0.0333  0.1162  0.0337
  566CHOL    R5 5109   2.170   7.265   6.716 -0.0465 -0.0220  0.0481
  566CHOL    C1 5110   2.297   7.425   7.038 -0.1204  0.1987 -0.0311
  566CHOL    C2 5111   2.046   7.517   7.338 -0.2131  0.0602  0.2034
  567PNCE   AM1 5112  10.151   5.361   8.189 -0.1464 -0.0385 -0.2645
  567PNCE   AM2 5113   9.831   5.359   8.406  0.0326  0.0382  0.2816
  567PNCE   T1A 5114  10.440   5.249   7.841 -0.1356 -0.1294 -0.4006
  567PNCE   C2A 5115  10.692   5.123   7.551  0.5361 -0.1300 -0.0908
  567PNCE   C3A 5116  11.029   5.196   7.339  0.0775  0.2258  0.2560
  567PNCE   C1B 5117   9.660   5.197   8.037  0.3271 -0.3814 -0.0515
  567PNCE   C2B 5118   9.475   5.439   7.761 -0.2788  0.0486 -0.0275
  567PNCE   C3B 5119   9.351   5.453   7.371 -0.0002 -0.1171  0.1726
  567PNCE   D4B 5120   9.485   5.596   7.029  0.2998  0.0840 -0.1591
  567PNCE   C5B 5121   9.354   5.323   6.815 -0.0665 -0.0983 -0.2902
  567PNCE   C6B 5122   9.388   5.101   6.442 -0.1426 -0.2426 -0.0268
  568PNCE   AM1 5123   7.921   8.920   9.136  0.2603 -0.1211 -0.0608
  568PNCE   AM2 5124   7.797   9.255   9.153 -0.1222 -0.0914 -0.0987
  568PNCE   T1A 5125   7.745   8.594   8.865 -0.3713 -0.1017  0.3182
  568PNCE   C2A 5126   7.782   8.312   8.605 -0.1822  0.0385 -0.0602
  568PNCE   C3A 5127   7.944   8.311   8.210  0.0350 -0.1231 -0.2178
  568PNCE   C1B 5128   8.047   9.279   8.667  0.0849  0.2761 -0.0108
  568PNCE   C2B 5129   8.406   9.437   8.325 -0.0367  0.2082 -0.2624
  568PNCE   C3B 5130   8.634   9.758   8.141  0.1767  0.3063  0.0960
  568PNCE   D4B 5131   9.128   9.657   8.083 -0.0762  0.0236  0.1004
  568PNCE   C5B 5132   9.456   9.295   7.931  0.1453 -0.1053 -0.1077
  568PNCE   C6B 5133   9.610   8.886   8.004  0.0440 -0.1762 -0.2083
  569PNCE   AM1 5134  14.099   3.388   8.753 -0.0596  0.0248 -0.3121
  569PNCE   AM2 5135  13.771   3.427   8.822 -0.1618 -0.0312  0.1089
  569PNCE   T1A 5136  14.337   3.356   8.351 -0.3038 -0.2334 -0.1612
  569PNCE   C2A 5137  14.405   3.416   7.911  0.0215 -0.3674  0.1392
  569PNCE   C3A 5138  14.520   3.645   7.602 -0.1415 -0.1439  0.2080
  569PNCE   C1B 5139  13.732   3.364   8.363  0.2364 -0.2686  0.0856
  569PNCE   C2B 5140  13.902   3.297   7.962  0.1401 -0.0130  0.2662
  569PNCE   C3B 5141  14.119   3.190   7.593 -0.0495  0.7065  0.2447
  569PNCE   D4B 5142  14.553   3.209   7.393  0.0105  0.0182 -0.1092
  569PNCE   C5B 5143  14.753   3.104   7.010  0.0135  0.0937  0.0758
  569PNCE   C6B 5144  14.995   3.280   6.655  0.1583 -0.1213 -0.0507
  570CHOL   ROH 5145   1.808  11.217   6.264 -0.0154  0.1901  0.2849
  570CHOL    R1 5146   1.689  11.391   6.453 -0.0579  0.1321  0.3128
  570CHOL    R2 5147   1.697  11.342   6.725 -0.0600  0.0834  0.3074
  570CHOL    R3 5148   1.802  11.593   6.734 -0.1081  0.1011  0.3547
  570CHOL    R4 5149   1.696  11.547   7.003 -0.3150  0.1258  0.2766
  570CHOL    R5 5150   1.651  11.716   6.873 -0.2384  0.0976  0.2160
  570CHOL    C1 5151   1.794  11.902   7.173 -0.5088  0.1672  0.3031
  570CHOL    C2 5152   1.806  11.966   7.553  0.1920  0.0605 -0.2579
  571XCA    COO 5153   7.571  13.994   4.227  0.4476 -0.0907 -0.0099
  571XCA     C1 5154   7.229  13.983   4.489  0.0540 -0.1182  0.1849
  571XCA     C2 5155   6.738  13.755   4.497 -0.0626 -0.1176 -0.0556
  571XCA     C3 5156   6.251  13.792   4.607  0.1253  0.0438 -0.0705
  571XCA     C4 5157   6.007  13.734   4.979  0.0108 -0.1043  0.5010
  571XCA     C5 5158   5.924  13.264   5.031  0.0737  0.2858 -0.0936
  571XCA     C6 5159   5.829  12.801   5.081  0.0977 -0.0965  0.2502
  572PNCE   AM1 5160  14.076  11.301   8.765  0.0459 -0.0412  0.0074
  572PNCE   AM2 5161  14.330  11.446   8.949 -0.3027 -0.0302 -0.3488
  572PNCE   T1A 5162  14.138  11.035   8.342  0.0508 -0.1721  0.0477
  572PNCE   C2A 5163  14.066  11.013   7.931 -0.1902  0.1655 -0.0823
  572PNCE   C3A 5164  14.012  11.089   7.518  0.1951  0.0756 -0.2809
  572PNCE   C1B 5165  14.690  11.758   9.044 -0.0170 -0.5122 -0.0621
  572PNCE   C2B 5166  15.015  11.911   8.734  0.0511 -0.4616 -0.0345
  572PNCE   C3B 5167  15.376  11.669   8.459  0.4449  0.0693  0.0161
  572PNCE   D4B 5168  15.645  11.759   8.138 -0.3708 -0.0389  0.1092
  572PNCE   C5B 5169  15.615  11.802   7.691  0.1619 -0.2736 -0.0897
  572PNCE   C6B 5170  15.797  12.042   7.309  0.3012  0.0867 -0.1348
  573CHOL   ROH 5171   3.880  13.683   8.143  0.0488 -0.1355 -0.0679
  573CHOL    R1 5172   3.796  13.413   8.140  0.0670 -0.1405 -0.1086
  573CHOL    R2 5173   3.551  13.332   8.240  0.1037 -0.1815 -0.0522
  573CHOL    R3 5174   3.524  13.222   7.993  0.0343 -0.1226 -0.0715
  573CHOL    R4 5175   3.304  13.108   8.150 -0.0594  0.0159 -0.1044
  573CHOL    R5 5176   3.453  12.997   8.035 -0.1360 -0.0773 -0.1130
  573CHOL    C1 5177   3.134  12.874   7.866 -0.2195  0.1861 -0.1529
  573CHOL    C2 5178   3.109  12.782   7.568  0.3869  0.0552 -0.1362
  574PNCE   AM1 5179   1.263  13.622   9.330 -0.2135  0.0396 -0.0722
  574PNCE   AM2 5180   1.374  13.821   9.344 -0.1660  0.1828 -0.1570
  574PNCE   T1A 5181   1.486  13.327   9.347 -0.1378  0.0156  0.0641
  574PNCE   C2A 5182   1.778  13.170   9.214 -0.2797 -0.0250 -0.0186
  574PNCE   C3A 5183   1.895  12.713   9.130  0.1340  0.1115 -0.0573
  574PNCE   C1B 5184   1.731  13.671   9.037  0.1631 -0.2147  0.2240
  574PNCE   C2B 5185   1.784  14.073   8.755 -0.1110  0.1291 -0.2307
  574PNCE   C3B 5186   1.794  14.205   8.396 -0.0587 -0.1658 -0.1635
  574PNCE   D4B 5187   1.758  14.097   7.908  0.0104 -0.1200 -0.0231
  574PNCE   C5B 5188   1.600  13.756   7.588 -0.1043 -0.0696  0.0822
  574PNCE   C6B 5189   1.615  13.541   7.301 -0.1624  0.0888  0.1073
  575PNCE   AM1 5190  11.474   2.534   8.354 -0.3185  0.3398  0.1300
  575PNCE   AM2 5191  11.256   2.898   8.329 -0.1596 -0.0621  0.2567
  575PNCE   T1A 5192  11.735   2.843   8.162  0.0779  0.0504 -0.2668
  575PNCE   C2A 5193  11.746   2.858   7.710 -0.0178 -0.2881 -0.0272
  575PNCE   C3A 5194  11.875   3.026   7.322  0.2914  0.0119  0.0604
  575PNCE   C1B 5195  11.241   2.981   7.893  0.1928 -0.0279  0.0404
  575PNCE   C2B 5196  11.366   3.089   7.387  0.3475  0.1487 -0.3135
  575PNCE   C3B 5197  11.470   2.948   7.062  0.1226  0.3299  0.2036
  575PNCE   D4B 5198  11.488   2.666   6.702  0.4454 -0.2251 -0.2074
  575PNCE   C5B 5199  11.544   2.344   6.491  0.0725  0.2081  0.2482
  575PNCE   C6B 5200  11.606   2.146   6.119 -0.2146 -0.0768  0.0841
  576XCA    COO 5201  13.373  15.149   8.405  0.0933  0.1682 -0.0123
  576XCA     C1 5202  13.527  15.089   8.117 -0.0473 -0.0291  0.0583
  576XCA     C2 5203  13.591  15.281   7.753 -0.1833  0.0588  0.0715
  576XCA     C3 5204  13.898  15.543   7.426 -0.1835  0.1050 -0.0394
  576XCA     C4 5205  14.150  15.624   7.084  0.2223 -0.1065  0.1997
  576XCA     C5 5206  14.472  15.961   6.860 -0.0190  0.0623  0.0392
  576XCA     C6 5207  14.917  16.008   7.012  0.1390 -0.0627 -0.0520
  577XCA    COO 5208   8.922  13.336   4.890 -0.1321 -0.1387 -0.2371
  577XCA     C1 5209   9.108  13.604   5.061 -0.1565 -0.0355 -0.2264
  577XCA     C2 5210   9.410  13.839   5.350  0.0532  0.1877 -0.2998
  577XCA     C3 5211   9.395  14.171   5.575  0.1546 -0.1095 -0.1579
  577XCA     C4 5212   9.304  14.477   6.058  0.2678  0.3439 -0.0183
  577XCA     C5 5213   9.096  14.713   6.335 -0.0637 -0.0215 -0.1240
  577XCA     C6 5214   9.103  14.777   6.804  0.2283 -0.1365  0.3297
  578PNCE   AM1 5215  13.799   0.875   8.187 -0.0372  0.0137 -0.1365
  578PNCE   AM2 5216  13.989   0.522   8.036  0.1015  0.0632 -0.1403
  578PNCE   T1A 5217  14.033   0.964   7.755 -0.0531  0.0750 -0.0908
  578PNCE   C2A 5218  14.278   1.192   7.389 -0.1399 -0.0788 -0.0079
  578PNCE   C3A 5219  14.515   1.406   7.283 -0.0619 -0.4520 -0.0369
  578PNCE   C1B 5220  13.561   0.419   7.931 -0.1551  0.3695 -0.1111
  578PNCE   C2B 5221  13.103   0.566   7.900 -0.0805  0.1622  0.2707
  578PNCE   C3B 5222  12.946   0.798   7.510  0.3904 -0.2053  0.3256
  578PNCE   D4B 5223  12.962   0.713   7.066 -0.1414  0.2302 -0.0769
  578PNCE   C5B 5224  12.924   0.251   6.971 -0.1644 -0.0075  0.0978
  578PNCE   C6B 5225  12.639  -0.076   6.800  0.1418 -0.2915 -0.0228
  579CHOL   ROH 5226   2.394   2.095   7.658  0.0751  0.2751 -0.2269
  579CHOL    R1 5227   2.540   2.168   7.427  0.0732  0.1766 -0.2587
  579CHOL    R2 5228   2.747   2.014   7.327  0.0580  0.1263 -0.2046
  579CHOL    R3 5229   2.602   2.024   7.098  0.0559  0.0480 -0.2075
  579CHOL    R4 5230   2.876   1.966   7.010  0.0110 -0.2711 -0.1688
  579CHOL    R5 5231   2.749   2.128   6.940  0.1465 -0.2179 -0.3083
  579CHOL    C1 5232   2.815   1.948   6.610 -0.0183 -0.5759 -0.1507
  579CHOL    C2 5233   2.692   1.849   6.235 -0.0182  0.0612  0.1456
  580PNCE   AM1 5234  12.643   1.224   8.358  0.1450  0.2742  0.2603
  580PNCE   AM2 5235  12.328   1.046   8.279 -0.1048  0.0889  0.0809
  580PNCE   T1A 5236  12.499   1.511   8.054 -0.1513 -0.3529  0.0612
  580PNCE   C2A 5237  12.353   1.547   7.695 -0.2399  0.0047  0.2227
  580PNCE   C3A 5238  11.897   1.581   7.658 -0.0417  0.2339  0.0723
  580PNCE   C1B 5239  12.072   1.118   7.939 -0.2368  0.0498 -0.0075
  580PNCE   C2B 5240  11.646   1.056   7.742 -0.0212  0.0323 -0.1390
  580PNCE   C3B 5241  11.503   0.853   7.375  0.0433 -0.0026  0.0311
  580PNCE   D4B 5242  11.537   0.590   7.023  0.1376 -0.1573 -0.4458
  580PNCE   C5B 5243  11.877   0.494   6.717 -0.2031  0.4839 -0.0417
  580PNCE   C6B 5244  12.258   0.678   6.532  0.1282  0.0249 -0.3328
  581CHOL   ROH 5245   2.579  13.136   4.833 -0.0426 -0.0032  0.0685
  581CHOL    R1 5246   2.497  13.178   5.101 -0.0984 -0.0968  0.0666
  581CHOL    R2 5247   2.633  13.073   5.317 -0.0756 -0.0739  0.0624
  581CHOL    R3 5248   2.638  13.332   5.399 -0.2121 -0.0880  0.1166
  581CHOL    R4 5249   2.679  13.176   5.644  0.0739 -0.1169  0.0559
  581CHOL    R5 5250   2.527  13.329   5.612 -0.0650 -0.2205  0.1943
  581CHOL    C1 5251   2.709  13.479   5.911  0.0327 -0.1552  0.1030
  581CHOL    C2 5252   2.574  13.519   6.240 -0.1092  0.1764  0.1572
  582CHOL   ROH 5253   1.987   4.589   9.147  0.0350  0.0889  0.1419
  582CHOL    R1 5254   2.078   4.636   8.883 -0.0386 -0.0472  0.0912
  582CHOL    R2 5255   2.060   4.446   8.683 -0.1453 -0.1314  0.1793
  582CHOL    R3 5256   1.930   4.645   8.550 -0.1434 -0.1607  0.1338
  582CHOL    R4 5257   1.999   4.449   8.343  0.3562  0.0520  0.0835
  582CHOL    R5 5258   2.047   4.662   8.341  0.1544  0.1034  0.3119
  582CHOL    C1 5259   1.843   4.637   8.020  0.6499  0.1313 -0.0148
  582CHOL    C2 5260   1.470   4.628   7.775 -0.6525 -0.0473 -0.3059
  583CHOL   ROH 5261   7.969   0.515   6.058  0.2571 -0.0614 -0.0904
  583CHOL    R1 5262   8.097   0.477   6.308  0.0828  0.0387  0.0138
  583CHOL    R2 5263   8.371   0.450   6.331  0.0382 -0.1665  0.1880
  583CHOL    R3 5264   8.344   0.655   6.508  0.1153  0.0001  0.0142
  583CHOL    R4 5265   8.584   0.512   6.596  0.1174  0.0115  0.0870
  583CHOL    R5 5266   8.410   0.561   6.718  0.1427  0.1577  0.0873
  583CHOL    C1 5267   8.683   0.740   6.916  0.2361  0.2715 -0.1349
  583CHOL    C2 5268   8.718   0.692   7.309 -0.1030  0.1184  0.2110
  584XCA    COO 5269   6.080  15.507   6.710  0.1591  0.0239 -0.1985
  584XCA     C1 5270   6.096  15.888   6.551 -0.0128  0.0723 -0.1903
  584XCA     C2 5271   6.148  16.360   6.560  0.0447 -0.0882 -0.0583
  584XCA     C3 5272   6.390  16.594   6.277 -0.4514 -0.1364 -0.0182
  584XCA     C4 5273   6.427  16.822   5.899 -0.4930  0.1769  0.0084
  584XCA     C5 5274   6.056  16.930   5.717 -0.1583  0.1415  0.2884
  584XCA     C6 5275   5.959  17.266   5.316 -0.0937  0.6370 -0.0305
  585PNCE   AM1 5276  13.829   1.483   4.099 -0.3866 -0.3482 -0.1374
  585PNCE   AM2 5277  13.680   1.175   4.289  0.1911  0.1549 -0.1974
  585PNCE   T1A 5278  13.545   1.599   4.545 -0.0369 -0.0373 -0.0621
  585PNCE   C2A 5279  13.372   1.680   4.876  0.0270  0.2951 -0.1713
  585PNCE   C3A 5280  13.333   1.651   5.242  0.0379  0.1282  0.0790
  585PNCE   C1B 5281  14.031   1.409   4.545  0.1840 -0.1659 -0.0490
  585PNCE   C2B 5282  14.283   1.546   4.740 -0.1219 -0.3632  0.2015
  585PNCE   C3B 5283  14.598   1.790   4.661  0.2035  0.1097  0.1080
  585PNCE   D4B 5284  14.669   2.177   4.902  0.3932  0.0260 -0.0895
  585PNCE   C5B 5285  14.418   2.532   4.811 -0.0698 -0.0527  0.0790
  585PNCE   C6B 5286  14.664   2.789   4.466  0.0527 -0.0546  0.1392
  586PNCE   AM1 5287  12.557   4.006   8.457  0.1808 -0.1336  0.0573
  586PNCE   AM2 5288  12.196   3.969   8.617  0.0695 -0.0325  0.1991
  586PNCE   T1A 5289  12.970   3.867   8.296 -0.0715 -0.1228  0.2518
  586PNCE   C2A 5290  13.360   4.140   8.278 -0.0147  0.0560  0.1008
  586PNCE   C3A 5291  13.703   4.292   8.521 -0.1639 -0.0780 -0.1583
  586PNCE   C1B 5292  12.091   4.174   8.302  0.0237 -0.0683 -0.1289
  586PNCE   C2B 5293  11.864   4.504   8.124 -0.0527  0.3421  0.0364
  586PNCE   C3B 5294  11.935   4.559   7.709 -0.0786 -0.2147 -0.0979
  586PNCE   D4B 5295  12.023   4.359   7.371 -0.3227  0.1618 -0.0047
  586PNCE   C5B 5296  12.446   4.352   7.307  0.0392 -0.2079 -0.2405
  586PNCE   C6B 5297  12.714   4.181   7.619  0.1980 -0.0789 -0.2283
  587CHOL   ROH 5298   0.886  12.760   5.485  0.1350  0.1424 -0.0438
  587CHOL    R1 5299   0.842  12.747   5.765  0.2083  0.0789 -0.0350
  587CHOL    R2 5300   1.017  12.621   5.938  0.2956  0.1127 -0.1007
  587CHOL    R3 5301   1.013  12.861   6.065  0.2408  0.0891 -0.0566
  587CHOL    R4 5302   1.134  12.678   6.258  0.0314  0.0185  0.0156
  587CHOL    R5 5303   0.963  12.808   6.292  0.0286  0.0525 -0.1080
  587CHOL    C1 5304   1.198  12.937   6.564 -0.1738 -0.0585  0.1247
  587CHOL    C2 5305   1.410  13.146   6.900 -0.2301 -0.3680 -0.3178
  588PNCE   AM1 5306   8.794  15.125   8.544  0.0867  0.0843 -0.0419
  588PNCE   AM2 5307   8.828  15.385   8.643 -0.0588  0.0431  0.1680
  588PNCE   T1A 5308   8.475  15.187   8.250  0.0701  0.2399 -0.0637
  588PNCE   C2A 5309   8.458  15.182   7.760 -0.0710 -0.1554  0.0216
  588PNCE   C3A 5310   8.315  15.139   7.326 -0.1485  0.1323 -0.3052
  588PNCE   C1B 5311   8.896  15.696   8.278 -0.0183 -0.1200  0.2170
  588PNCE   C2B 5312   8.797  15.873   7.934  0.1595 -0.0004 -0.1375
  588PNCE   C3B 5313   8.918  16.144   7.545 -0.1950  0.2404  0.2797
  588PNCE   D4B 5314   8.961  16.136   7.072 -0.0203 -0.1180  0.0114
  588PNCE   C5B 5315   8.720  15.831   6.784  0.2888  0.0545 -0.1221
  588PNCE   C6B 5316   8.940  15.655   6.380  0.2840  0.0069 -0.1320
  589CHOL   ROH 5317  10.689  13.112   7.933  0.1216  0.1350 -0.0692
  589CHOL    R1 5318  10.715  13.111   7.651 -0.0891  0.0361 -0.0903
  589CHOL    R2 5319  10.497  13.096   7.482 -0.2411  0.2878  0.0751
  589CHOL    R3 5320  10.606  13.321   7.375 -0.0168  0.1233 -0.0532
  589CHOL    R4 5321  10.470  13.190   7.151 -0.1453  0.1286  0.0205
  589CHOL    R5 5322  10.678  13.255   7.157 -0.0800 -0.0728 -0.0166
  589CHOL    C1 5323  10.555  13.457   6.858  0.1211 -0.1187 -0.1319
  589CHOL    C2 5324  10.684  13.786   6.629  0.0090  0.1236  0.1954
  590XCA    COO 5325   6.899   4.807   6.610 -0.1307 -0.0838 -0.5467
  590XCA     C1 5326   6.834   4.445   6.305 -0.1306  0.1974  0.0078
  590XCA     C2 5327   6.494   4.217   6.145 -0.4912  0.0814  0.1445
  590XCA     C3 5328   6.295   4.324   5.940  0.1109  0.1649  0.3570
  590XCA     C4 5329   5.947   4.305   5.684 -0.4014  0.2039  0.0216
  590XCA     C5 5330   5.741   4.325   5.326  0.2730  0.1280  0.3527
  590XCA     C6 5331   5.319   4.513   5.346  0.0877  0.1664 -0.0031
  591CHOL   ROH 5332   3.577   6.365   8.587 -0.0015  0.2098  0.1229
  591CHOL    R1 5333   3.449   6.493   8.369 -0.0114  0.1349  0.0842
  591CHOL    R2 5334   3.584   6.570   8.141  0.0080  0.1908  0.1133
  591CHOL    R3 5335   3.392   6.423   8.017  0.1121  0.0878  0.0738
  591CHOL    R4 5336   3.471   6.623   7.818 -0.0279  0.1928  0.1261
  591CHOL    R5 5337   3.269   6.581   7.887  0.0008  0.0332  0.1136
  591CHOL    C1 5338   3.226   6.515   7.514  0.0489  0.0972  0.0964
  591CHOL    C2 5339   3.089   6.294   7.203 -0.2340  0.0987 -0.2458
  592CHOL   ROH 5340  12.871  10.392   5.912 -0.3087 -0.0832  0.1505
  592CHOL    R1 5341  12.993  10.481   6.152 -0.1753 -0.1075  0.0931
  592CHOL    R2 5342  12.898  10.413   6.402 -0.0768 -0.0814  0.1441
  592CHOL    R3 5343  13.153  10.327   6.440 -0.0788 -0.1432  0.0191
  592CHOL    R4 5344  13.047  10.370   6.710  0.1795  0.1876  0.0622
  592CHOL    R5 5345  13.231  10.454   6.628  0.1404  0.0232 -0.1844
  592CHOL    C1 5346  13.373  10.264   6.926  0.3266  0.2863 -0.1029
  592CHOL    C2 5347  13.553  10.520   7.100 -0.1333  0.0164  0.1110
  593CHOL   ROH 5348   2.187  12.737   5.416  0.1111  0.1508  0.0710
  593CHOL    R1 5349   2.294  12.913   5.611 -0.1256  0.1183  0.2365
  593CHOL    R2 5350   2.197  12.924   5.870 -0.1119 -0.2928  0.2760
  593CHOL    R3 5351   2.458  12.881   5.934 -0.0317  0.0261  0.1773
  593CHOL    R4 5352   2.363  13.073   6.134 -0.1765 -0.1063  0.2118
  593CHOL    R5 5353   2.538  13.095   6.006 -0.2580  0.1125  0.1529
  593CHOL    C1 5354   2.704  13.120   6.348 -0.1389  0.3018  0.0817
  593CHOL    C2 5355   2.624  13.064   6.776 -0.2505 -0.0517  0.0474
  594CHOL   ROH 5356   9.526   1.818   8.149 -0.0327 -0.1778 -0.0724
  594CHOL    R1 5357   9.615   1.834   7.881 -0.0527 -0.1787 -0.0790
  594CHOL    R2 5358   9.499   1.689   7.677 -0.0802 -0.1647 -0.0730
  594CHOL    R3 5359   9.472   1.933   7.561 -0.0700 -0.1599 -0.0656
  594CHOL    R4 5360   9.394   1.744   7.352 -0.2064 -0.1446 -0.0294
  594CHOL    R5 5361   9.544   1.900   7.335 -0.1748 -0.1815 -0.0964
  594CHOL    C1 5362   9.308   2.006   7.055 -0.2702 -0.1284  0.0028
  594CHOL    C2 5363   9.288   1.912   6.603  0.3169 -0.0063 -0.1596
  595CHOL   ROH 5364   5.266  14.745   4.094 -0.1319  0.1002  0.1855
  595CHOL    R1 5365   5.525  14.857   4.119 -0.1651  0.1645  0.2420
  595CHOL    R2 5366   5.634  14.924   4.363 -0.1146 -0.0983  0.2938
  595CHOL    R3 5367   5.839  14.765   4.280 -0.0796  0.0775  0.0305
  595CHOL    R4 5368   5.945  14.907   4.515 -0.0325 -0.1085  0.1272
  595CHOL    R5 5369   6.035  14.898   4.316 -0.1233  0.1348  0.0691
  595CHOL    C1 5370   6.317  14.747   4.525  0.0481  0.0507 -0.2169
  595CHOL    C2 5371   6.480  14.401   4.530  0.1832  0.1031 -0.2140
  596CHOL   ROH 5372   8.492   9.855   6.799  0.0725  0.1415 -0.1463
  596CHOL    R1 5373   8.304  10.065   6.780  0.1058  0.1788 -0.0861
  596CHOL    R2 5374   8.033  10.026   6.817  0.0720  0.1747 -0.2823
  596CHOL    R3 5375   8.062  10.225   7.000 -0.0091  0.0162 -0.0963
  596CHOL    R4 5376   7.809  10.284   6.865  0.0494  0.1273 -0.1331
  596CHOL    R5 5377   7.978  10.420   6.890  0.0280  0.1102  0.0510
  596CHOL    C1 5378   7.705  10.621   7.065 -0.0398 -0.0493  0.1284
  596CHOL    C2 5379   7.410  10.787   6.811 -0.0617 -0.0652  0.2925
  597PNCE   AM1 5380   1.445   7.933   9.493  0.0918 -0.2849  0.0464
  597PNCE   AM2 5381   1.213   8.049   9.703  0.1628  0.1350 -0.1671
  597PNCE   T1A 5382   1.622   7.860   9.134 -0.2585  0.0301  0.0634
  597PNCE   C2A 5383   1.562   8.078   8.757  0.0377 -0.1711  0.1753
  597PNCE   C3A 5384   1.733   7.955   8.341 -0.0015  0.2755  0.2366
  597PNCE   C1B 5385   0.923   7.854   9.407 -0.0012 -0.0281  0.0735
  597PNCE   C2B 5386   1.046   7.596   8.991  0.0160 -0.0709  0.0323
  597PNCE   C3B 5387   1.202   7.714   8.550 -0.0987 -0.0103 -0.0844
  597PNCE   D4B 5388   1.052   7.843   8.198  0.0812 -0.1040  0.0113
  597PNCE   C5B 5389   0.896   8.120   7.948  0.0423  0.0941  0.0091
  597PNCE   C6B 5390   0.863   8.241   7.570  0.0229  0.1161  0.0670
  598XCA    COO 5391  13.235  14.915   4.658  0.1069  0.2428  0.1771
  598XCA     C1 5392  13.450  15.022   5.079  0.2111  0.0060  0.2399
  598XCA     C2 5393  13.364  15.043   5.492  0.0636  0.2887  0.0261
  598XCA     C3 5394  13.532  15.216   5.801  0.4045  0.1900  0.0073
  598XCA     C4 5395  13.345  15.286   6.213  0.1678 -0.0023 -0.3086
  598XCA     C5 5396  13.562  15.244   6.564 -0.3258  0.3400 -0.0615
  598XCA     C6 5397  13.950  15.052   6.629 -0.2377  0.2179  0.1058
  599CHOL   ROH 5398   2.546   9.008   6.297  0.0417  0.0014  0.1172
  599CHOL    R1 5399   2.396   9.109   6.514  0.1219  0.0336  0.1578
  599CHOL    R2 5400   2.476   9.080   6.777  0.2768  0.1721  0.1267
  599CHOL    R3 5401   2.448   9.350   6.782  0.1769  0.1643  0.0314
  599CHOL    R4 5402   2.402   9.265   7.059  0.2159  0.2420  0.0650
  599CHOL    R5 5403   2.270   9.388   6.937  0.1657  0.1511  0.0237
  599CHOL    C1 5404   2.332   9.627   7.228  0.0866  0.2753 -0.0604
  599CHOL    C2 5405   2.300   9.453   7.522  0.2184 -0.1559  0.1215
  600PNCE   AM1 5406   8.935   4.571   8.069 -0.0461 -0.1323  0.0611
  600PNCE   AM2 5407   8.618   4.580   7.879  0.2592 -0.0016 -0.2442
  600PNCE   T1A 5408   9.128   4.470   7.663 -0.3313 -0.0859  0.0864
  600PNCE   C2A 5409   9.484   4.420   7.429  0.0222 -0.0618 -0.0412
  600PNCE   C3A 5410   9.913   4.674   7.280 -0.1976  0.0601  0.0310
  600PNCE   C1B 5411   8.682   4.522   7.438 -0.4206 -0.2795  0.3993
  600PNCE   C2B 5412   8.629   4.384   7.003 -0.0671  0.3336  0.0198
  600PNCE   C3B 5413   8.602   4.544   6.579 -0.0186 -0.0188 -0.0540
  600PNCE   D4B 5414   8.244   4.380   6.193  0.0955 -0.1462  0.3952
  600PNCE   C5B 5415   8.124   3.977   6.062 -0.2406 -0.1461  0.1441
  600PNCE   C6B 5416   7.767   3.725   5.961 -0.0050 -0.1225  0.0125
  601XCA    COO 5417  13.784   7.791   9.432 -0.2152 -0.0310 -0.1704
  601XCA     C1 5418  14.236   7.751   9.237 -0.0994  0.2301  0.0643
  601XCA     C2 5419  14.473   7.801   8.959  0.2955 -0.4914 -0.2688
  601XCA     C3 5420  14.691   7.905   8.585 -0.1089 -0.0500 -0.1091
  601XCA     C4 5421  15.114   7.987   8.434 -0.1607 -0.3032 -0.2086
  601XCA     C5 5422  15.445   8.105   8.259  0.1197 -0.3003  0.1581
  601XCA     C6 5423  15.895   8.246   8.176 -0.0273 -0.0176  0.0163
  602CHOL   ROH 5424   1.857  10.801   6.013  0.1888  0.0760  0.0194
  602CHOL    R1 5425   1.738  10.784   6.269  0.1844  0.1144  0.0197
  602CHOL    R2 5426   1.879  10.711   6.495  0.1789  0.1447  0.0313
  602CHOL    R3 5427   1.781  10.945   6.593  0.1809  0.1595 -0.0017
  602CHOL    R4 5428   1.811  10.774   6.828  0.3463  0.2485  0.0477
  602CHOL    R5 5429   1.630  10.879   6.766  0.2881  0.1875  0.1052
  602CHOL    C1 5430   1.679  11.030   7.113  0.4456  0.3230  0.0262
  602CHOL    C2 5431   1.874  11.280   7.297 -0.0652 -0.1294 -0.1419
  603PNCE   AM1 5432   2.381   3.032   8.464 -0.1365  0.3170 -0.0749
  603PNCE   AM2 5433   2.597   2.757   8.564 -0.0758 -0.1186 -0.3254
  603PNCE   T1A 5434   2.510   3.214   8.112 -0.3080 -0.2499  0.1836
  603PNCE   C2A 5435   2.596   3.497   7.738  0.0049 -0.0025 -0.1712
  603PNCE   C3A 5436   2.921   3.529   7.438 -0.0482  0.1240 -0.2278
  603PNCE   C1B 5437   2.888   2.921   8.266  0.2963  0.1841  0.0979
  603PNCE   C2B 5438   2.940   2.990   7.866 -0.1449  0.0409  0.3009
  603PNCE   C3B 5439   2.820   2.991   7.424 -0.0672 -0.1429 -0.1715
  603PNCE   D4B 5440   2.958   3.039   7.011 -0.2215 -0.1191 -0.0463
  603PNCE   C5B 5441   2.966   3.506   6.845 -0.1699 -0.2546  0.0931
  603PNCE   C6B 5442   3.071   3.821   6.626 -0.3073  0.1714 -0.0596
  604XCA    COO 5443  14.157  13.214   5.015 -0.0695 -0.0279 -0.1824
  604XCA     C1 5444  14.289  13.364   5.334  0.0872  0.3117  0.2261
  604XCA     C2 5445  14.166  13.552   5.678 -0.2750 -0.0108  0.0083
  604XCA     C3 5446  14.115  13.895   5.902 -0.1322 -0.4511  0.0057
  604XCA     C4 5447  14.002  14.006   6.383 -0.0629 -0.3353  0.1929
  604XCA     C5 5448  13.942  13.948   6.738 -0.0399  0.0468  0.0517
  604XCA     C6 5449  13.609  13.766   6.838  0.1232  0.0416  0.0468
  605PNCE   AM1 5450   0.304   6.181   9.592 -0.0052  0.1253  0.1656
  605PNCE   AM2 5451  -0.046   6.319   9.699  0.3968  0.0213 -0.2894
  605PNCE   T1A 5452   0.250   6.263   9.177  0.0721 -0.1893  0.0722
  605PNCE   C2A 5453   0.336   6.068   8.773 -0.1641  0.1566 -0.1872
  605PNCE   C3A 5454   0.105   5.917   8.403 -0.1620 -0.0212 -0.0418
  605PNCE   C1B 5455  -0.247   6.317   9.371  0.2412  0.2010  0.2132
  605PNCE   C2B 5456  -0.161   6.409   8.881 -0.2259  0.0791  0.2616
  605PNCE   C3B 5457   0.045   6.510   8.485 -0.3279  0.1886 -0.1286
  605PNCE   D4B 5458   0.480   6.504   8.581  0.0286 -0.1878  0.0102
  605PNCE   C5B 5459   0.788   6.444   8.231 -0.0497  0.2247  0.0408
  605PNCE   C6B 5460   0.755   6.353   7.752 -0.0548 -0.4642  0.0332
  606CHOL   ROH 5461   9.265  13.177   5.242 -0.2818  0.3461  0.1785
  606CHOL    R1 5462   9.273  13.193   5.525 -0.0692  0.2569  0.1791
  606CHOL    R2 5463   9.106  13.042   5.687 -0.0831  0.3528  0.2479
  606CHOL    R3 5464   9.340  12.965   5.800 -0.0680  0.1175  0.0663
  606CHOL    R4 5465   9.149  12.970   6.022  0.0988  0.3220  0.2194
  606CHOL    R5 5466   9.341  13.072   6.015  0.2041  0.1296  0.0664
  606CHOL    C1 5467   9.394  12.855   6.324  0.2191  0.0831  0.0324
  606CHOL    C2 5468   9.504  12.600   6.762  0.4977  0.0327  0.2182
  607XCA    COO 5469   5.172   3.067   4.166 -0.2205 -0.1442 -0.0258
  607XCA     C1 5470   5.321   2.797   4.410 -0.1707 -0.3120  0.1553
  607XCA     C2 5471   5.248   2.571   4.803  0.1049  0.0335 -0.0823
  607XCA     C3 5472   5.370   2.407   5.210  0.2992  0.2205 -0.2756
  607XCA     C4 5473   5.414   2.366   5.584 -0.2749 -0.0767 -0.2513
  607XCA     C5 5474   5.295   2.412   5.914  0.1560 -0.1692 -0.1317
  607XCA     C6 5475   5.205   2.217   6.265 -0.0328  0.3426 -0.1969
  608XCA    COO 5476  14.398   4.455   5.313  0.0358  0.2649 -0.0303
  608XCA     C1 5477  14.555   4.149   5.564  0.1823  0.2064 -0.1401
  608XCA     C2 5478  14.706   4.279   5.997 -0.2408 -0.1537 -0.1859
  608XCA     C3 5479  14.773   4.408   6.374 -0.1796 -0.0952  0.1208
  608XCA     C4 5480  14.918   4.767   6.404 -0.0205 -0.3379  0.2062
  608XCA     C5 5481  15.064   5.034   6.134  0.0031  0.3184  0.0942
  608XCA     C6 5482  15.201   5.279   5.851  0.2945 -0.0826 -0.2357
  609XCA    COO 5483   8.014  11.218   4.428 -0.1618  0.1670  0.1267
  609XCA     C1 5484   8.065  11.081   4.868 -0.2342 -0.0005  0.1100
  609XCA     C2 5485   7.875  11.007   5.262  0.3256 -0.0104 -0.0005
  609XCA     C3 5486   7.909  10.893   5.698 -0.1758  0.0015  0.2511
  609XCA     C4 5487   7.788  10.940   6.145  0.1132 -0.0698 -0.0005
  609XCA     C5 5488   7.653  11.169   6.427 -0.3274  0.0118  0.1294
  609XCA     C6 5489   7.757  11.558   6.592  0.1666 -0.1526  0.1030
  610CHOL   ROH 5490  14.885   0.771   5.710  0.1623 -0.1176  0.1290
  610CHOL    R1 5491  14.620   0.808   5.617  0.1780  0.0540  0.1481
  610CHOL    R2 5492  14.505   0.642   5.428  0.1221  0.2453  0.0106
  610CHOL    R3 5493  14.312   0.615   5.618  0.1072  0.1656 -0.0156
  610CHOL    R4 5494  14.167   0.611   5.363  0.1472  0.0545 -0.0343
  610CHOL    R5 5495  14.127   0.741   5.533  0.0512  0.0545 -0.0582
  610CHOL    C1 5496  13.789   0.567   5.502  0.1479 -0.1313 -0.0851
  610CHOL    C2 5497  13.485   0.398   5.701 -0.1621  0.0548 -0.2158
  611CHOL   ROH 5498   9.129  13.798   8.191  0.0868  0.1463 -0.0185
  611CHOL    R1 5499   9.203  13.796   7.918 -0.0099  0.1152 -0.0450
  611CHOL    R2 5500   9.326  14.012   7.796 -0.0450  0.0989 -0.1115
  611CHOL    R3 5501   9.512  13.826   7.728 -0.0756  0.0849 -0.1570
  611CHOL    R4 5502   9.540  14.036   7.526  0.0241  0.1727 -0.0504
  611CHOL    R5 5503   9.510  13.823   7.488 -0.0202  0.1986 -0.1585
  611CHOL    C1 5504   9.840  13.875   7.305  0.0355  0.2026 -0.0575
  611CHOL    C2 5505   9.885  13.994   6.960  0.0494 -0.0270 -0.0639
  612CHOL   ROH 5506   7.121   8.788   5.097 -0.0519  0.1917  0.1348
  612CHOL    R1 5507   7.072   8.896   5.354 -0.0459  0.1325  0.1612
  612CHOL    R2 5508   7.099   9.166   5.409 -0.0422  0.1193  0.2234
  612CHOL    R3 5509   6.844   9.140   5.499 -0.0406  0.1011  0.2226
  612CHOL    R4 5510   6.976   9.312   5.697 -0.0809  0.1978  0.1673
  612CHOL    R5 5511   6.866   9.128   5.738 -0.0466  0.1900  0.2283
  612CHOL    C1 5512   6.664   9.372   5.949 -0.1020  0.2265  0.1337
  612CHOL    C2 5513   6.573   9.676   6.158 -0.2173  0.0061 -0.0608
  613CHOL   ROH 5514   7.110  12.101   8.515 -0.0964  0.0784 -0.1656
  613CHOL    R1 5515   6.967  11.969   8.309 -0.1467  0.3142 -0.2853
  613CHOL    R2 5516   6.909  12.089   8.067  0.4131  0.3596 -0.4090
  613CHOL    R3 5517   7.031  11.869   7.965  0.0552  0.0391 -0.1721
  613CHOL    R4 5518   6.823  11.937   7.769  0.1748  0.1849 -0.2550
  613CHOL    R5 5519   6.853  11.743   7.866 -0.1551  0.2281 -0.0477
  613CHOL    C1 5520   6.888  11.641   7.500 -0.3000 -0.2177  0.0570
  613CHOL    C2 5521   6.589  11.402   7.348  0.0901 -0.0260  0.1017
  614CHOL   ROH 5522   6.544   3.797   8.422 -0.0442 -0.0465 -0.1994
  614CHOL    R1 5523   6.393   3.672   8.218 -0.1472  0.0302 -0.1745
  614CHOL    R2 5524   6.124   3.720   8.180 -0.1754  0.0598 -0.0359
  614CHOL    R3 5525   6.203   3.778   7.927 -0.2741  0.1486 -0.0446
  614CHOL    R4 5526   5.928   3.680   7.899 -0.1125 -0.2548 -0.0360
  614CHOL    R5 5527   6.103   3.606   7.793 -0.0163 -0.0018 -0.0288
  614CHOL    C1 5528   5.888   3.710   7.496 -0.1687 -0.3546 -0.0442
  614CHOL    C2 5529   5.988   3.386   7.332 -0.3122 -0.1576  0.0675
  615PNCE   AM1 5530  11.303   8.439   8.506 -0.1180 -0.1744 -0.0838
  615PNCE   AM2 5531  11.231   8.187   8.674  0.0579 -0.0344  0.0138
  615PNCE   T1A 5532  11.126   8.225   8.006 -0.0168 -0.2775  0.0606
  615PNCE   C2A 5533  11.159   8.079   7.531  0.0324  0.0203  0.1250
  615PNCE   C3A 5534  11.170   7.836   7.215  0.2955 -0.1106  0.0613
  615PNCE   C1B 5535  11.130   7.779   8.477 -0.2670  0.1342  0.0698
  615PNCE   C2B 5536  10.965   7.767   8.025 -0.1571  0.0047 -0.0773
  615PNCE   C3B 5537  11.024   7.587   7.687  0.0254 -0.0968  0.2305
  615PNCE   D4B 5538  10.662   7.474   7.345 -0.3757 -0.5120  0.3130
  615PNCE   C5B 5539  10.278   7.315   7.523  0.1379  0.0379  0.1035
  615PNCE   C6B 5540   9.872   7.011   7.638  0.1129  0.0498  0.1445
  616CHOL   ROH 5541  14.849  11.041   5.604 -0.1295  0.0172 -0.0569
  616CHOL    R1 5542  14.888  11.044   5.884  0.0730  0.1026 -0.0834
  616CHOL    R2 5543  15.067  11.214   6.008 -0.0023  0.3057 -0.2410
  616CHOL    R3 5544  14.849  11.284   6.154  0.0290  0.1118 -0.0987
  616CHOL    R4 5545  15.071  11.433   6.275 -0.0003  0.1894 -0.1462
  616CHOL    R5 5546  14.931  11.301   6.379  0.1306  0.0614 -0.1331
  616CHOL    C1 5547  14.869  11.626   6.569  0.0303 -0.0604  0.0426
  616CHOL    C2 5548  14.982  11.752   6.904  0.1865 -0.3981 -0.1530
  617CHOL   ROH 5549   5.684   6.623   5.092  0.0059 -0.1615 -0.0959
  617CHOL    R1 5550   5.847   6.493   5.284 -0.0700 -0.0607  0.0371
  617CHOL    R2 5551   6.095   6.589   5.359  0.0223 -0.1730 -0.1295
  617CHOL    R3 5552   5.988   6.575   5.609  0.0555  0.2244 -0.0850
  617CHOL    R4 5553   6.278   6.584   5.652  0.1061 -0.3649 -0.1829
  617CHOL    R5 5554   6.140   6.435   5.730 -0.2006 -0.0261 -0.0386
  617CHOL    C1 5555   6.285   6.568   6.057  0.1860 -0.1036 -0.1724
  617CHOL    C2 5556   6.485   6.582   6.416  0.1217  0.0936  0.0333
  618CHOL   ROH 5557   1.445   8.270   6.112 -0.3191 -0.2099  0.0819
  618CHOL    R1 5558   1.429   8.165   6.375 -0.2121 -0.4869 -0.0175
  618CHOL    R2 5559   1.490   7.902   6.435  0.4150 -0.4056 -0.2193
  618CHOL    R3 5560   1.659   8.016   6.615  0.0359 -0.1300 -0.0258
  618CHOL    R4 5561   1.493   7.834   6.773  0.2930 -0.5726 -0.2512
  618CHOL    R5 5562   1.525   8.046   6.811 -0.1892 -0.5150 -0.1119
  618CHOL    C1 5563   1.654   7.901   7.139 -0.1341 -0.4110 -0.0881
  618CHOL    C2 5564   1.646   7.739   7.494 -0.3370 -0.1655 -0.0735
  619CHOL   ROH 5565   4.502  15.570   6.839 -0.1623  0.2067 -0.0176
  619CHOL    R1 5566   4.264  15.652   6.709 -0.0423  0.2412 -0.2217
  619CHOL    R2 5567   4.193  15.563   6.457 -0.0173 -0.0430 -0.1320
  619CHOL    R3 5568   3.964  15.489   6.582 -0.1339  0.3261 -0.1170
  619CHOL    R4 5569   3.897  15.486   6.298  0.0065 -0.0886 -0.1540
  619CHOL    R5 5570   3.790  15.592   6.454  0.0025  0.2484 -0.3738
  619CHOL    C1 5571   3.508  15.372   6.323 -0.0892  0.2312 -0.1527
  619CHOL    C2 5572   3.320  15.144   6.080 -0.0158  0.2624  0.1226
  620PNCE   AM1 5573   2.613  11.864   9.689  0.0747 -0.1485 -0.0079
  620PNCE   AM2 5574   2.915  11.611   9.597 -0.0724  0.2061 -0.1313
  620PNCE   T1A 5575   2.145  11.865   9.391 -0.0225  0.4157  0.3925
  620PNCE   C2A 5576   1.766  11.720   9.098 -0.0308 -0.0874 -0.1603
  620PNCE   C3A 5577   1.701  11.543   8.720  0.1900 -0.1637 -0.0723
  620PNCE   C1B 5578   2.481  11.560   9.287  0.1327 -0.0219 -0.1153
  620PNCE   C2B 5579   2.244  11.691   8.884 -0.3312  0.0960  0.0350
  620PNCE   C3B 5580   2.118  11.472   8.462  0.1422 -0.1645  0.0799
  620PNCE   D4B 5581   2.142  11.166   8.258  0.0297 -0.0145 -0.1150
  620PNCE   C5B 5582   2.494  11.035   7.886  0.2881  0.1234  0.1090
  620PNCE   C6B 5583   2.842  11.327   7.727 -0.0583  0.0519 -0.0643
  621XCA    COO 5584   6.018   8.355   8.856 -0.1700  0.2162 -0.2174
  621XCA     C1 5585   5.585   8.446   8.679 -0.0860  0.5082  0.0399
  621XCA     C2 5586   5.475   8.534   8.339  0.1350  0.0335 -0.0904
  621XCA     C3 5587   5.201   8.375   7.989  0.3657  0.0335 -0.1707
  621XCA     C4 5588   4.784   8.254   7.783 -0.0614  0.0496  0.0559
  621XCA     C5 5589   4.617   8.178   7.424  0.0868 -0.0001  0.0192
  621XCA     C6 5590   4.674   7.943   7.017 -0.0001  0.1459  0.0409
  622PNCE   AM1 5591   2.379   4.905   9.588 -0.2610 -0.1830 -0.1297
  622PNCE   AM2 5592   2.651   4.659   9.531 -0.0142  0.3940 -0.0228
  622PNCE   T1A 5593   2.307   5.014   9.139 -0.1836 -0.2183  0.1495
  622PNCE   C2A 5594   2.459   4.985   8.807 -0.0747  0.0006  0.0855
  622PNCE   C3A 5595   2.376   4.943   8.423 -0.0865 -0.2066 -0.2268
  622PNCE   C1B 5596   2.974   4.920   9.291 -0.0113 -0.1516 -0.1891
  622PNCE   C2B 5597   3.348   4.710   9.220  0.2089 -0.0282 -0.4719
  622PNCE   C3B 5598   3.778   4.699   8.959  0.0868  0.0240 -0.2500
  622PNCE   D4B 5599   3.965   4.801   8.548 -0.2961 -0.0410  0.0129
  622PNCE   C5B 5600   3.721   4.811   8.235 -0.1093  0.0751 -0.0930
  622PNCE   C6B 5601   3.334   4.820   8.085 -0.1465  0.0290  0.0876
  623CHOL   ROH 5602  12.839   0.825   8.242  0.1036  0.0117 -0.1197
  623CHOL    R1 5603  12.805   0.863   7.963  0.1328  0.1076 -0.1096
  623CHOL    R2 5604  12.575   0.789   7.830  0.1976  0.0402 -0.1778
  623CHOL    R3 5605  12.578   1.048   7.747  0.0737  0.0762 -0.0757
  623CHOL    R4 5606  12.388   0.914   7.568  0.0920  0.0652 -0.0923
  623CHOL    R5 5607  12.560   1.034   7.509  0.0329  0.1620 -0.0800
  623CHOL    C1 5608  12.281   1.230   7.338 -0.0858  0.1136  0.0534
  623CHOL    C2 5609  12.079   1.522   7.145 -0.0160 -0.0899 -0.0153
  624XCA    COO 5610   5.157   4.581   8.960 -0.0056  0.0076 -0.1932
  624XCA     C1 5611   4.982   4.370   8.782 -0.0024  0.0376 -0.0426
  624XCA     C2 5612   5.080   4.133   8.346  0.3055 -0.2611  0.1770
  624XCA     C3 5613   5.007   4.150   7.842  0.1275  0.1178 -0.2142
  624XCA     C4 5614   4.941   4.267   7.473  0.3385 -0.1160 -0.1677
  624XCA     C5 5615   5.118   4.617   7.252 -0.0944  0.3324  0.2675
  624XCA     C6 5616   5.379   5.003   7.109 -0.2036 -0.0729  0.1828
  625XCA    COO 5617   2.331   3.979   8.786 -0.0059  0.0110 -0.0199
  625XCA     C1 5618   2.471   4.333   8.551  0.2252  0.1436  0.2505
  625XCA     C2 5619   2.460   4.531   8.083  0.0314  0.1335  0.2315
  625XCA     C3 5620   2.195   4.373   7.825  0.0881  0.3998  0.2594
  625XCA     C4 5621   1.760   4.228   7.774  0.0868  0.3318  0.2098
  625XCA     C5 5622   1.460   4.244   7.428  0.1312 -0.0565  0.1375
  625XCA     C6 5623   1.391   4.129   6.992 -0.0093  0.0013 -0.0251
  626CHOL   ROH 5624  11.814   7.488   5.448 -0.0590  0.1140  0.1323
  626CHOL    R1 5625  11.745   7.251   5.587 -0.0080  0.0368  0.0272
  626CHOL    R2 5626  11.923   7.043   5.625  0.0999  0.1416  0.1084
  626CHOL    R3 5627  11.857   7.077   5.886 -0.1128  0.0414  0.0692
  626CHOL    R4 5628  11.919   6.792   5.862  0.0473  0.0792  0.0417
  626CHOL    R5 5629  11.737   6.878   5.943 -0.0572 -0.0333 -0.0715
  626CHOL    C1 5630  11.855   6.677   6.246 -0.1832 -0.0511 -0.0339
  626CHOL    C2 5631  11.963   6.238   6.316 -0.1030  0.1172 -0.1568
  627CHOL   ROH 5632   1.990   8.339   6.314  0.3093  0.1086 -0.0049
  627CHOL    R1 5633   2.056   8.227   6.566  0.2708  0.1740  0.0338
  627CHOL    R2 5634   2.091   8.380   6.792 -0.0877  0.2066  0.0711
  627CHOL    R3 5635   1.904   8.213   6.897  0.0464 -0.0404 -0.0741
  627CHOL    R4 5636   2.010   8.360   7.128 -0.3924  0.1800 -0.0007
  627CHOL    R5 5637   1.998   8.143   7.106 -0.0557  0.1499  0.0390
  627CHOL    C1 5638   1.787   8.190   7.421 -0.4439 -0.0673 -0.1788
  627CHOL    C2 5639   1.742   8.252   7.856  0.0186  0.1213  0.1233
  628CHOL   ROH 5640   5.669   4.669   5.004  0.1136  0.0994 -0.0166
  628CHOL    R1 5641   5.596   4.855   5.203  0.0488  0.1195 -0.0581
  628CHOL    R2 5642   5.500   5.107   5.143  0.0491  0.1093 -0.1143
  628CHOL    R3 5643   5.293   5.031   5.302  0.0114  0.1129 -0.1624
  628CHOL    R4 5644   5.353   5.306   5.386  0.0916  0.0554 -0.0446
  628CHOL    R5 5645   5.341   5.130   5.515  0.0237  0.0088 -0.1184
  628CHOL    C1 5646   5.073   5.349   5.676  0.0810  0.0274 -0.0493
  628CHOL    C2 5647   5.099   5.701   5.865  0.0363 -0.1491  0.1028
  629XCA    COO 5648   6.720   0.690   7.870 -0.2347 -0.1051  0.0460
  629XCA     C1 5649   6.988   0.788   7.586  0.1954  0.0127  0.0904
  629XCA     C2 5650   6.901   0.770   7.086 -0.1241  0.3385  0.0447
  629XCA     C3 5651   6.925   1.165   6.912  0.1204  0.0724  0.1927
  629XCA     C4 5652   6.702   1.430   6.696 -0.0040 -0.0297  0.0465
  629XCA     C5 5653   6.688   1.844   6.562  0.1121  0.0422  0.0351
  629XCA     C6 5654   6.893   2.224   6.240 -0.0059  0.1906  0.0250
  630PNCE   AM1 5655   3.673   1.975   8.044  0.2251  0.1395 -0.0136
  630PNCE   AM2 5656   3.639   2.256   8.174  0.0023  0.2485 -0.3177
  630PNCE   T1A 5657   3.707   1.941   7.597 -0.0757 -0.6014  0.1379
  630PNCE   C2A 5658   3.846   1.981   7.219 -0.1293 -0.0480  0.3506
  630PNCE   C3A 5659   3.815   2.138   6.906 -0.2519 -0.5115 -0.2024
  630PNCE   C1B 5660   3.831   2.648   7.944  0.3345 -0.0423  0.0323
  630PNCE   C2B 5661   3.967   2.843   7.489  0.2260 -0.0700  0.0680
  630PNCE   C3B 5662   4.172   3.001   7.142 -0.0675  0.2195 -0.0881
  630PNCE   D4B 5663   4.222   3.211   6.698 -0.1048  0.2483  0.1722
  630PNCE   C5B 5664   4.098   3.604   6.504 -0.1910 -0.0073  0.1074
  630PNCE   C6B 5665   4.181   4.062   6.369 -0.0367  0.0572 -0.3402
  631PNCE   AM1 5666  14.516   4.325   8.730  0.3189 -0.2165  0.3563
  631PNCE   AM2 5667  14.301   4.054   8.675 -0.0829  0.1239 -0.4075
  631PNCE   T1A 5668  14.823   4.313   8.489 -0.0644 -0.2802  0.0586
  631PNCE   C2A 5669  15.023   4.444   8.062  0.2838 -0.2173  0.1303
  631PNCE   C3A 5670  15.210   4.625   7.682 -0.0180 -0.1586 -0.0999
  631PNCE   C1B 5671  14.177   4.200   8.338  0.0415  0.3049 -0.0994
  631PNCE   C2B 5672  14.212   4.242   7.954 -0.0220 -0.0940 -0.1385
  631PNCE   C3B 5673  14.440   4.127   7.547 -0.1002  0.0386  0.1134
  631PNCE   D4B 5674  14.363   4.067   7.120  0.2648  0.0800 -0.0092
  631PNCE   C5B 5675  13.985   3.929   6.877 -0.1039 -0.1071 -0.1171
  631PNCE   C6B 5676  13.568   3.950   6.838 -0.2076 -0.1136 -0.1946
  632CHOL   ROH 5677  12.742  12.297   8.966 -0.0314  0.2777  0.1117
  632CHOL    R1 5678  12.865  12.214   8.725 -0.0358  0.4696  0.0435
  632CHOL    R2 5679  12.813  11.969   8.608  0.4670  0.2751  0.2146
  632CHOL    R3 5680  12.754  12.121   8.391 -0.1128  0.0348  0.1820
  632CHOL    R4 5681  12.851  11.867   8.280  0.6491  0.2721  0.2343
  632CHOL    R5 5682  12.925  12.066   8.233  0.0107  0.5134  0.1304
  632CHOL    C1 5683  12.818  11.950   7.885  0.2110  0.0446  0.2153
  632CHOL    C2 5684  13.074  11.844   7.628  0.1678 -0.3244  0.0483
  633CHOL   ROH 5685   2.826   9.536   7.032 -0.1015 -0.0121  0.2506
  633CHOL    R1 5686   2.823   9.733   7.235  0.0649 -0.0081  0.2512
  633CHOL    R2 5687   3.052   9.811   7.370  0.2043  0.0939 -0.0281
  633CHOL    R3 5688   2.975  10.059   7.289 -0.0034  0.0570  0.0522
  633CHOL    R4 5689   3.101  10.102   7.550  0.1559  0.1085 -0.0396
  633CHOL    R5 5690   2.902  10.168   7.490  0.0756 -0.0052  0.1112
  633CHOL    C1 5691   3.058  10.504   7.579 -0.0672  0.0825  0.0290
  633CHOL    C2 5692   2.981  10.776   7.799  0.0290  0.2372  0.0349
  634CHOL   ROH 5693  10.797   8.985   6.134  0.0172  0.2072 -0.0839
  634CHOL    R1 5694  10.837   8.894   6.399 -0.1604  0.3126 -0.0180
  634CHOL    R2 5695  10.638   8.899   6.590 -0.3738  0.1415 -0.2253
  634CHOL    R3 5696  10.698   8.635   6.614 -0.1083  0.2088 -0.1092
  634CHOL    R4 5697  10.495   8.685   6.821 -0.3164  0.0505 -0.2744
  634CHOL    R5 5698  10.692   8.594   6.850 -0.2393  0.2675 -0.1032
  634CHOL    C1 5699  10.468   8.312   6.977 -0.0337  0.0607 -0.1939
  634CHOL    C2 5700  10.308   8.450   7.275 -0.0041  0.0841 -0.0506
  635PNCE   AM1 5701   3.110  14.079   4.005  0.3285 -0.2730 -0.0490
  635PNCE   AM2 5702   3.297  13.945   3.821  0.1411  0.1160 -0.2576
  635PNCE   T1A 5703   3.296  14.384   4.333  0.0829 -0.0556  0.1690
  635PNCE   C2A 5704   3.484  14.481   4.716  0.0459 -0.2541  0.3321
  635PNCE   C3A 5705   3.574  14.631   5.146 -0.1525  0.1870  0.0210
  635PNCE   C1B 5706   3.608  13.634   4.126 -0.2654  0.3536 -0.0156
  635PNCE   C2B 5707   3.882  13.571   4.401  0.0386 -0.0483  0.1302
  635PNCE   C3B 5708   4.189  13.362   4.689  0.4371  0.1558  0.0665
  635PNCE   D4B 5709   4.306  13.176   5.002 -0.1827  0.0215  0.2956
  635PNCE   C5B 5710   4.021  13.328   5.339 -0.0077 -0.1053 -0.0120
  635PNCE   C6B 5711   3.735  13.372   5.640  0.0677 -0.1642  0.0124
  636XCA    COO 5712  10.680   1.158   5.073 -0.1867  0.1411  0.1436
  636XCA     C1 5713  10.517   1.056   5.402  0.0669 -0.0255 -0.4989
  636XCA     C2 5714  10.228   0.989   5.683 -0.1825 -0.1098 -0.2256
  636XCA     C3 5715  10.096   0.678   6.027 -0.0939  0.1621  0.1172
  636XCA     C4 5716  10.458   0.453   6.263  0.0353 -0.1399  0.1761
  636XCA     C5 5717  10.584   0.084   6.427 -0.1406 -0.3686 -0.2596
  636XCA     C6 5718  10.379  -0.291   6.393  0.1881  0.0006 -0.0819
  637PNCE   AM1 5719   8.661   9.679   5.151 -0.0285 -0.0293  0.3867
  637PNCE   AM2 5720   8.726  10.062   5.076  0.0570  0.1042  0.0024
  637PNCE   T1A 5721   8.474   9.599   5.560 -0.2673 -0.0111  0.0648
  637PNCE   C2A 5722   8.342   9.511   5.943  0.0626  0.2617 -0.1738
  637PNCE   C3A 5723   7.946   9.469   5.957 -0.0470 -0.1121  0.1428
  637PNCE   C1B 5724   8.890   9.903   5.496  0.1252  0.1616  0.2101
  637PNCE   C2B 5725   9.270   9.913   5.714  0.1728  0.0633 -0.3410
  637PNCE   C3B 5726   9.327  10.122   6.137 -0.2227  0.0573  0.1560
  637PNCE   D4B 5727   9.164  10.462   6.388 -0.1669  0.0291 -0.0404
  637PNCE   C5B 5728   9.296  10.716   6.612 -0.3963 -0.0424 -0.2504
  637PNCE   C6B 5729   9.516  10.975   6.741  0.0370  0.0837  0.1459
  638CHOL   ROH 5730   1.226   7.469   9.407  0.2484  0.0961 -0.0782
  638CHOL    R1 5731   1.435   7.454   9.217  0.2008  0.0864 -0.1292
  638CHOL    R2 5732   1.434   7.272   9.009  0.1597  0.0618 -0.1044
  638CHOL    R3 5733   1.468   7.494   8.857  0.1081  0.0439 -0.1433
  638CHOL    R4 5734   1.512   7.270   8.673 -0.0309  0.0167 -0.1501
  638CHOL    R5 5735   1.647   7.438   8.708  0.0174  0.0005 -0.2405
  638CHOL    C1 5736   1.590   7.478   8.333 -0.1903 -0.0265 -0.2133
  638CHOL    C2 5737   1.530   7.661   7.956 -0.1284  0.2163 -0.0913
  639XCA    COO 5738   4.709   5.375   9.046  0.0889 -0.1544  0.0952
  639XCA     C1 5739   4.374   5.327   8.677 -0.0416 -0.1155 -0.0410
  639XCA     C2 5740   4.241   5.174   8.215  0.2437  0.2072 -0.0186
  639XCA     C3 5741   4.177   5.288   7.842 -0.1598 -0.1306  0.0571
  639XCA     C4 5742   4.299   5.589   7.643 -0.0474  0.2268  0.0765
  639XCA     C5 5743   4.256   5.951   7.866 -0.3299  0.0123 -0.0233
  639XCA     C6 5744   4.396   6.121   8.249  0.0760  0.3114 -0.4549
  640XCA    COO 5745   3.437   9.688   9.878  0.0827 -0.2045  0.0458
  640XCA     C1 5746   3.569   9.833   9.501 -0.1104  0.0448 -0.2306
  640XCA     C2 5747   3.841   9.942   9.206 -0.2058 -0.5577 -0.2524
  640XCA     C3 5748   3.750   9.890   8.764 -0.0343  0.0724 -0.0822
  640XCA     C4 5749   3.594   9.977   8.412  0.0271 -0.1346 -0.0456
  640XCA     C5 5750   3.442  10.287   7.923 -0.0406 -0.0468 -0.0054
  640XCA     C6 5751   3.475  10.696   7.687  0.1887 -0.1412  0.1662
  641XCA    COO 5752  12.294   4.481   5.131 -0.2239 -0.1244  0.1661
  641XCA     C1 5753  12.129   4.199   5.417  0.0380 -0.1672 -0.1464
  641XCA     C2 5754  12.116   3.996   5.795  0.1644  0.0784  0.0335
  641XCA     C3 5755  12.062   4.009   6.213  0.1912  0.1478  0.1016
  641XCA     C4 5756  11.872   3.949   6.593  0.1639 -0.0686  0.0956
  641XCA     C5 5757  11.447   3.940   6.663 -0.0178 -0.1827 -0.0692
  641XCA     C6 5758  11.147   3.698   6.754 -0.1357 -0.1026  0.2217
  642PNCE   AM1 5759   3.502   7.888   5.560  0.2400 -0.0212 -0.1057
  642PNCE   AM2 5760   3.198   8.042   5.536 -0.2337  0.0436 -0.4560
  642PNCE   T1A 5761   3.819   8.093   5.943  0.0242 -0.5120  0.1917
  642PNCE   C2A 5762   3.897   8.170   6.351 -0.0244 -0.0665 -0.4421
  642PNCE   C3A 5763   4.116   8.247   6.737 -0.2787 -0.0635 -0.2163
  642PNCE   C1B 5764   3.441   8.435   5.758  0.3027  0.0265 -0.0160
  642PNCE   C2B 5765   3.531   8.584   6.179 -0.2121  0.0797 -0.1280
  642PNCE   C3B 5766   3.596   8.588   6.590  0.0130  0.1926  0.2503
  642PNCE   D4B 5767   3.778   8.648   6.982 -0.0673  0.1968 -0.0474
  642PNCE   C5B 5768   4.008   9.018   7.238 -0.1135  0.1350 -0.3953
  642PNCE   C6B 5769   4.142   9.213   7.569 -0.1735 -0.0653 -0.2917
  643CHOL   ROH 5770   9.603  12.920   7.084  0.0449 -0.0853  0.0550
  643CHOL    R1 5771   9.625  13.112   6.877  0.0801 -0.1417  0.0071
  643CHOL    R2 5772   9.658  13.041   6.612 -0.1440 -0.2202  0.0000
  643CHOL    R3 5773   9.439  13.198   6.576 -0.0344 -0.0383  0.1056
  643CHOL    R4 5774   9.594  13.227   6.328 -0.1006 -0.1255  0.0510
  643CHOL    R5 5775   9.522  13.388   6.456  0.0753 -0.0847  0.1036
  643CHOL    C1 5776   9.350  13.483   6.128  0.0276  0.1004  0.1797
  643CHOL    C2 5777   9.244  13.628   5.813  0.2988  0.0073 -0.0554
  644PNCE   AM1 5778   9.840   7.791   5.379 -0.1571  0.0395  0.0514
  644PNCE   AM2 5779   9.753   8.125   5.606  0.0580 -0.0965  0.1338
  644PNCE   T1A 5780   9.549   7.404   5.515  0.0990  0.1032 -0.1033
  644PNCE   C2A 5781   9.064   7.265   5.528  0.0053 -0.0071  0.3531
  644PNCE   C3A 5782   8.602   7.185   5.465  0.2050  0.1035  0.1086
  644PNCE   C1B 5783   9.682   7.776   5.893 -0.1210 -0.2019  0.2350
  644PNCE   C2B 5784   9.461   7.794   6.247 -0.2675 -0.0228  0.3482
  644PNCE   C3B 5785   9.045   7.611   6.432 -0.2059  0.0118  0.1678
  644PNCE   D4B 5786   8.627   7.503   6.580  0.1779  0.1013  0.3284
  644PNCE   C5B 5787   8.535   7.167   6.850  0.1310  0.0086  0.1874
  644PNCE   C6B 5788   8.755   6.829   6.995 -0.1443  0.1151 -0.1235
  645CHOL   ROH 5789  11.255  15.458   8.772  0.0452 -0.0017 -0.0848
  645CHOL    R1 5790  11.179  15.369   8.514  0.0204  0.0298 -0.0889
  645CHOL    R2 5791  11.070  15.538   8.324  0.0274  0.0598 -0.0689
  645CHOL    R3 5792  11.273  15.443   8.171  0.0094  0.0511 -0.0867
  645CHOL    R4 5793  11.072  15.536   7.979 -0.0517 -0.0527 -0.0690
  645CHOL    R5 5794  11.164  15.338   7.985 -0.0115 -0.0306 -0.0268
  645CHOL    C1 5795  11.264  15.445   7.633 -0.1149 -0.1266 -0.0858
  645CHOL    C2 5796  11.476  15.238   7.283  0.0576  0.2644  0.4573
  646PNCE   AM1 5797  13.314   2.109   4.606 -0.2393 -0.2091  0.1368
  646PNCE   AM2 5798  13.034   2.202   4.568  0.0489 -0.0385  0.0768
  646PNCE   T1A 5799  13.746   2.107   4.677 -0.0422  0.0196 -0.0216
  646PNCE   C2A 5800  14.186   2.090   4.832  0.1661  0.0761  0.0476
  646PNCE   C3A 5801  14.317   1.809   5.186  0.0391  0.5013  0.0029
  646PNCE   C1B 5802  13.129   2.487   4.836 -0.3530 -0.2255  0.0729
  646PNCE   C2B 5803  13.480   2.703   5.082 -0.1184  0.1538 -0.1254
  646PNCE   C3B 5804  13.643   2.880   5.380 -0.1807 -0.0745  0.2197
  646PNCE   D4B 5805  13.533   2.693   5.787 -0.0624  0.2037 -0.1321
  646PNCE   C5B 5806  13.723   2.747   6.094  0.2436  0.0757  0.0648
  646PNCE   C6B 5807  14.062   3.044   6.315 -0.0730  0.0617 -0.1443
  647XCA    COO 5808   2.449   1.396   8.208  0.2822  0.1071 -0.1916
  647XCA     C1 5809   2.502   1.216   7.773  0.1428 -0.3524 -0.1302
  647XCA     C2 5810   2.642   0.888   7.432  0.2507  0.2588  0.1066
  647XCA     C3 5811   2.386   0.460   7.264  0.0077 -0.0620 -0.1671
  647XCA     C4 5812   2.317   0.325   6.839 -0.1441 -0.0063 -0.0613
  647XCA     C5 5813   2.342   0.582   6.600  0.3015  0.0961  0.2220
  647XCA     C6 5814   2.038   0.634   6.550 -0.1275  0.1399  0.1392
  648CHOL   ROH 5815   4.542   7.707   9.458  0.1965  0.2772  0.0218
  648CHOL    R1 5816   4.513   7.714   9.176  0.0325  0.1010  0.0321
  648CHOL    R2 5817   4.703   7.828   9.010 -0.1624  0.1890 -0.1337
  648CHOL    R3 5818   4.695   7.585   8.889 -0.0072  0.1142  0.0009
  648CHOL    R4 5819   4.818   7.763   8.691  0.0330  0.0443 -0.0365
  648CHOL    R5 5820   4.645   7.634   8.660  0.0966 -0.0372 -0.0564
  648CHOL    C1 5821   4.878   7.497   8.391  0.2924 -0.1101  0.1464
  648CHOL    C2 5822   4.873   7.638   8.057  0.0989  0.1588  0.0242
  649PNCE   AM1 5823   6.624   8.293   4.519  0.2526  0.1586  0.2621
  649PNCE   AM2 5824   6.757   8.614   4.694 -0.3360  0.1949  0.3254
  649PNCE   T1A 5825   6.601   8.302   5.028 -0.2169  0.1661  0.1757
  649PNCE   C2A 5826   6.850   8.463   5.372  0.3437 -0.1427 -0.0851
  649PNCE   C3A 5827   6.885   8.671   5.692  0.0734 -0.1141  0.1152
  649PNCE   C1B 5828   7.055   8.349   4.914  0.0355  0.1262 -0.0251
  649PNCE   C2B 5829   6.985   7.967   5.156 -0.0568  0.0646  0.0261
  649PNCE   C3B 5830   7.137   7.609   5.347 -0.0040  0.0034  0.2719
  649PNCE   D4B 5831   7.254   7.411   5.693  0.3415  0.3168  0.1214
  649PNCE   C5B 5832   7.358   7.284   6.072  0.0647 -0.1579  0.2133
  649PNCE   C6B 5833   7.430   6.996   6.321  0.1501 -0.0366 -0.1764
  650CHOL   ROH 5834  13.704   6.308   5.451  0.2559  0.0433 -0.0056
  650CHOL    R1 5835  13.866   6.332   5.682  0.1365  0.0747  0.0737
  650CHOL    R2 5836  13.778   6.456   5.913 -0.0453 -0.0595  0.0664
  650CHOL    R3 5837  13.852   6.221   6.028  0.0602 -0.0440  0.0364
  650CHOL    R4 5838  13.767   6.390   6.252  0.0972 -0.0426  0.0763
  650CHOL    R5 5839  13.957   6.285   6.233  0.1280 -0.0011 -0.0005
  650CHOL    C1 5840  13.829   6.131   6.557  0.2791 -0.0182  0.0539
  650CHOL    C2 5841  13.875   5.955   6.877 -0.1357  0.1596  0.4105
  651PNCE   AM1 5842  12.070  10.665   5.998 -0.1446 -0.0623  0.1765
  651PNCE   AM2 5843  11.851  10.914   5.900 -0.0016  0.2542 -0.0358
  651PNCE   T1A 5844  11.855  10.940   6.380  0.2718 -0.2136 -0.0641
  651PNCE   C2A 5845  11.582  11.005   6.578  0.1798 -0.0837  0.3682
  651PNCE   C3A 5846  11.493  11.278   6.928 -0.1442 -0.2636  0.0830
  651PNCE   C1B 5847  11.628  11.350   6.130  0.0421 -0.0242 -0.2291
  651PNCE   C2B 5848  11.480  11.592   6.449  0.0169 -0.1483  0.1167
  651PNCE   C3B 5849  11.242  11.697   6.754 -0.4599  0.0909  0.0778
  651PNCE   D4B 5850  11.059  11.427   7.031  0.1539 -0.0615  0.1320
  651PNCE   C5B 5851  11.231  11.486   7.504 -0.1645  0.4039 -0.1026
  651PNCE   C6B 5852  11.529  11.252   7.791 -0.0154 -0.2825  0.0350
  652PNCE   AM1 5853   1.977   9.443   6.056 -0.0626 -0.2809  0.2756
  652PNCE   AM2 5854   2.100   9.210   6.155  0.2932  0.3586  0.0736
  652PNCE   T1A 5855   1.728   9.571   6.446 -0.1076 -0.0886 -0.2148
  652PNCE   C2A 5856   1.789   9.554   6.808 -0.0552 -0.0142  0.1101
  652PNCE   C3A 5857   1.888   9.413   7.170  0.5733 -0.0455  0.2763
  652PNCE   C1B 5858   2.275   9.592   6.394 -0.0778 -0.2974 -0.3241
  652PNCE   C2B 5859   2.184   9.824   6.682 -0.1867 -0.0705  0.0885
  652PNCE   C3B 5860   2.001   9.908   7.047 -0.0182  0.1307 -0.0146
  652PNCE   D4B 5861   1.981   9.872   7.458 -0.2803 -0.1188 -0.2654
  652PNCE   C5B 5862   2.085   9.703   7.883  0.3486  0.1898  0.1066
  652PNCE   C6B 5863   2.104   9.293   8.016 -0.3325  0.0911  0.0542
  653PNCE   AM1 5864   9.925   7.376   4.781 -0.0568  0.3036 -0.1554
  653PNCE   AM2 5865   9.744   7.674   4.884 -0.0577 -0.0210 -0.0380
  653PNCE   T1A 5866   9.643   7.195   5.041 -0.1485 -0.1343 -0.0886
  653PNCE   C2A 5867   9.359   7.031   5.221  0.1345  0.0329 -0.0892
  653PNCE   C3A 5868   9.079   6.732   5.294  0.0654 -0.0618 -0.0687
  653PNCE   C1B 5869   9.297   7.347   4.731 -0.0026 -0.2098 -0.2159
  653PNCE   C2B 5870   8.972   7.224   4.964 -0.1971 -0.1657 -0.2054
  653PNCE   C3B 5871   8.498   7.209   4.924 -0.0538  0.1421  0.0441
  653PNCE   D4B 5872   8.152   6.977   5.198  0.0592 -0.1276 -0.0930
  653PNCE   C5B 5873   8.128   6.979   5.620 -0.0497  0.4293 -0.1961
  653PNCE   C6B 5874   8.551   6.958   5.924 -0.2812  0.3525 -0.1987
  654PNCE   AM1 5875   2.056   5.888   5.496 -0.1134 -0.0993  0.1257
  654PNCE   AM2 5876   2.328   5.677   5.525  0.4288  0.2659 -0.0011
  654PNCE   T1A 5877   1.810   5.791   5.870  0.1104  0.0670 -0.0947
  654PNCE   C2A 5878   1.564   5.629   6.190  0.0510 -0.0194 -0.1480
  654PNCE   C3A 5879   1.415   5.771   6.485  0.0500 -0.1367 -0.1379
  654PNCE   C1B 5880   2.210   5.458   5.912  0.0063 -0.5033 -0.0427
  654PNCE   C2B 5881   2.487   5.567   6.284  0.3033 -0.0286  0.0333
  654PNCE   C3B 5882   2.669   5.692   6.622 -0.2976  0.2936  0.0949
  654PNCE   D4B 5883   2.689   5.726   7.092 -0.0511  0.0345  0.0282
  654PNCE   C5B 5884   2.640   6.097   7.244 -0.0612 -0.1416  0.1719
  654PNCE   C6B 5885   2.703   6.354   7.517  0.2674  0.2210  0.0183
  655CHOL   ROH 5886   9.509  15.396   4.837  0.1740 -0.0460 -0.0494
  655CHOL    R1 5887   9.527  15.563   5.065  0.0212 -0.1333  0.0283
  655CHOL    R2 5888   9.716  15.523   5.264  0.0466 -0.0637  0.0194
  655CHOL    R3 5889   9.777  15.783   5.212 -0.1718  0.0133  0.1398
  655CHOL    R4 5890   9.954  15.708   5.433  0.1463 -0.0519 -0.1322
  655CHOL    R5 5891   9.818  15.879   5.427  0.0357 -0.1264  0.1633
  655CHOL    C1 5892  10.149  16.060   5.483 -0.0006  0.0272 -0.1076
  655CHOL    C2 5893  10.357  16.306   5.646 -0.0255  0.2234  0.1063
  656PNCE   AM1 5894  13.235   0.880   4.778 -0.0594 -0.1722  0.1228
  656PNCE   AM2 5895  13.200   1.108   4.464  0.1055 -0.1306 -0.0446
  656PNCE   T1A 5896  13.490   0.929   5.114 -0.4240  0.2654  0.1014
  656PNCE   C2A 5897  13.395   0.875   5.523  0.1994  0.0799 -0.0285
  656PNCE   C3A 5898  13.012   0.949   5.785  0.1301  0.0528 -0.2167
  656PNCE   C1B 5899  13.045   1.255   4.957  0.0309 -0.0478 -0.1269
  656PNCE   C2B 5900  12.863   1.417   5.308 -0.0806 -0.0046  0.0505
  656PNCE   C3B 5901  13.219   1.407   5.695  0.0391  0.0449  0.2688
  656PNCE   D4B 5902  13.177   1.347   6.095 -0.0083  0.0444 -0.1171
  656PNCE   C5B 5903  12.878   1.358   6.490 -0.1870  0.4034  0.3132
  656PNCE   C6B 5904  12.466   1.460   6.616  0.0662 -0.2276 -0.0494
  657CHOL   ROH 5905   2.475   8.149   6.312  0.0523 -0.4769 -0.0907
  657CHOL    R1 5906   2.486   7.999   6.552  0.2571 -0.1780  0.0925
  657CHOL    R2 5907   2.583   8.105   6.788  0.0263  0.2752 -0.0034
  657CHOL    R3 5908   2.342   8.024   6.886  0.1366 -0.0261  0.0304
  657CHOL    R4 5909   2.500   8.090   7.124 -0.0109  0.4832 -0.0021
  657CHOL    R5 5910   2.396   7.903   7.085  0.3046  0.2642  0.1683
  657CHOL    C1 5911   2.226   8.006   7.410  0.0710  0.3215  0.0303
  657CHOL    C2 5912   2.126   7.967   7.695 -0.1566 -0.0624 -0.0152
  658CHOL   ROH 5913   7.172   1.719   7.586  0.1388  0.2325 -0.0011
  658CHOL    R1 5914   7.190   1.579   7.340 -0.1117  0.2845 -0.0511
  658CHOL    R2 5915   7.065   1.667   7.110  0.0788  0.6194 -0.0278
  658CHOL    R3 5916   7.316   1.649   7.006  0.0601  0.1641 -0.0146
  658CHOL    R4 5917   7.139   1.656   6.772  0.0658  0.3807 -0.0252
  658CHOL    R5 5918   7.291   1.506   6.815 -0.1788  0.1328  0.0315
  658CHOL    C1 5919   7.418   1.632   6.478  0.0406 -0.1859 -0.0112
  658CHOL    C2 5920   7.435   1.403   6.094  0.0057  0.1564  0.0037
  659PNCE   AM1 5921   9.454   5.520   4.335  0.1888 -0.0853  0.0282
  659PNCE   AM2 5922   9.660   5.861   4.331 -0.3674 -0.0695 -0.1996
  659PNCE   T1A 5923   9.436   5.542   4.780 -0.1116  0.2761 -0.1508
  659PNCE   C2A 5924   9.295   5.781   5.128 -0.3240  0.3382 -0.1755
  659PNCE   C3A 5925   8.837   5.849   5.114 -0.3395 -0.2027 -0.0007
  659PNCE   C1B 5926   9.412   6.107   4.722  0.1250 -0.2236  0.1536
  659PNCE   C2B 5927   9.032   6.343   4.871  0.2270 -0.1795 -0.1102
  659PNCE   C3B 5928   8.645   6.366   5.073 -0.4224  0.0679  0.2936
  659PNCE   D4B 5929   8.581   6.096   5.417  0.2443  0.0061  0.0679
  659PNCE   C5B 5930   8.143   5.995   5.576 -0.2485  0.0642 -0.2803
  659PNCE   C6B 5931   7.910   5.863   5.843 -0.1613 -0.1987 -0.1365
  660CHOL   ROH 5932   7.065   5.263   4.812  0.0188  0.3042  0.0205
  660CHOL    R1 5933   6.902   5.173   5.024  0.2116 -0.1465 -0.0089
  660CHOL    R2 5934   7.002   5.035   5.241  0.5736  0.1867  0.0514
  660CHOL    R3 5935   6.878   5.231   5.383 -0.0626 -0.1310 -0.0281
  660CHOL    R4 5936   6.942   5.023   5.581  0.5450  0.1107  0.0438
  660CHOL    R5 5937   6.746   5.113   5.544  0.2620 -0.4943 -0.0172
  660CHOL    C1 5938   6.791   5.201   5.912 -0.0689 -0.2320 -0.0354
  660CHOL    C2 5939   6.957   4.868   6.069 -0.0306 -0.0296  0.0872
  661PNCE   AM1 5940  13.576   7.321   5.695  0.0742  0.0783 -0.1939
  661PNCE   AM2 5941  13.286   7.321   5.546 -0.3976  0.2817  0.0769
  661PNCE   T1A 5942  13.395   7.184   6.026  0.0812 -0.2359 -0.1033
  661PNCE   C2A 5943  13.208   7.248   6.366  0.0753 -0.0782  0.1753
  661PNCE   C3A 5944  12.816   7.168   6.579  0.3223  0.0706  0.3358
  661PNCE   C1B 5945  13.140   6.915   5.657 -0.1268 -0.2725 -0.4124
  661PNCE   C2B 5946  12.945   6.551   5.842 -0.3222  0.0748  0.0910
  661PNCE   C3B 5947  12.626   6.256   5.871 -0.0856 -0.0767 -0.0177
  661PNCE   D4B 5948  12.451   6.035   6.106 -0.1758  0.0159 -0.1876
  661PNCE   C5B 5949  12.187   5.794   6.305 -0.0886 -0.1871 -0.0873
  661PNCE   C6B 5950  12.224   5.423   6.611 -0.2765  0.2659 -0.3084
  662PNCE   AM1 5951   9.806  12.228   4.625  0.1337 -0.1895 -0.0341
  662PNCE   AM2 5952  10.031  12.411   4.804 -0.5005  0.0158 -0.1161
  662PNCE   T1A 5953   9.496  12.542   4.770 -0.2966  0.1483  0.2059
  662PNCE   C2A 5954   9.403  12.778   5.164 -0.1824 -0.0606 -0.0565
  662PNCE   C3A 5955   9.507  12.642   5.556 -0.0126  0.2010  0.5664
  662PNCE   C1B 5956  10.309  12.735   4.979  0.3685  0.1561  0.1608
  662PNCE   C2B 5957  10.366  12.659   5.356 -0.0118 -0.1435  0.0811
  662PNCE   C3B 5958  10.140  12.603   5.691 -0.0622 -0.1858 -0.1422
  662PNCE   D4B 5959   9.793  12.795   5.858  0.1918 -0.1764  0.2052
  662PNCE   C5B 5960   9.737  13.243   5.896 -0.1867 -0.2192  0.1729
  662PNCE   C6B 5961   9.980  13.608   6.092  0.0569  0.0652 -0.0491
  663CHOL   ROH 5962   7.032  11.756   6.906 -0.0666 -0.3339  0.0194
  663CHOL    R1 5963   6.878  11.849   6.688  0.0530 -0.0832  0.0370
  663CHOL    R2 5964   6.683  11.694   6.567  0.0557  0.0850 -0.1926
  663CHOL    R3 5965   6.525  11.908   6.620  0.0988  0.0841 -0.0583
  663CHOL    R4 5966   6.421  11.800   6.369  0.0263  0.2161 -0.0849
  663CHOL    R5 5967   6.482  12.005   6.405  0.0642  0.1897 -0.0036
  663CHOL    C1 5968   6.119  12.063   6.303  0.0497  0.2914  0.1039
  663CHOL    C2 5969   6.015  12.371   6.060 -0.0640 -0.1659  0.1696
  664XCA    COO 5970  10.783   3.043   8.189  0.1493  0.1429  0.1892
  664XCA     C1 5971  10.409   2.991   7.900 -0.1633  0.0737 -0.3589
  664XCA     C2 5972  10.419   2.977   7.479 -0.0963 -0.2809 -0.0061
  664XCA     C3 5973  10.448   2.863   7.022  0.0896 -0.0093  0.0494
  664XCA     C4 5974  10.518   2.601   6.680 -0.0595 -0.3563 -0.1490
  664XCA     C5 5975  10.804   2.592   6.346 -0.0181 -0.1216  0.2064
  664XCA     C6 5976  10.748   2.384   6.011 -0.0973  0.1433 -0.1743
  665XCA    COO 5977  12.539  11.260   5.408 -0.1255 -0.1590 -0.0699
  665XCA     C1 5978  12.445  11.642   5.618 -0.1530 -0.2125 -0.4575
  665XCA     C2 5979  12.629  11.753   5.913 -0.0651  0.2449  0.1462
  665XCA     C3 5980  12.820  11.867   6.297 -0.0360 -0.0129  0.1079
  665XCA     C4 5981  12.898  12.148   6.595 -0.0612  0.1765 -0.3784
  665XCA     C5 5982  13.136  12.256   6.810  0.0522 -0.2108 -0.2539
  665XCA     C6 5983  13.261  12.484   7.098 -0.0835  0.1070  0.1052
  666XCA    COO 5984  11.830  12.807   8.709 -0.0464 -0.2755  0.0784
  666XCA     C1 5985  11.952  12.654   8.228  0.2800 -0.0529 -0.0314
  666XCA     C2 5986  11.977  12.627   7.738  0.1079  0.0710 -0.0825
  666XCA     C3 5987  11.954  12.692   7.404  0.2881 -0.2054  0.0772
  666XCA     C4 5988  11.900  12.724   6.969 -0.1869  0.2255 -0.1246
  666XCA     C5 5989  11.576  12.614   6.749 -0.0770  0.1432  0.0162
  666XCA     C6 5990  11.291  12.941   6.783  0.1585  0.0386 -0.0599
  667CHOL   ROH 5991  11.719   8.125   8.608  0.0887  0.2090 -0.0407
  667CHOL    R1 5992  11.582   8.049   8.372  0.1199  0.1176 -0.0295
  667CHOL    R2 5993  11.551   8.219   8.157 -0.0246  0.1026 -0.0201
  667CHOL    R3 5994  11.663   8.013   8.019  0.1106  0.1878 -0.0392
  667CHOL    R4 5995  11.556   8.192   7.813 -0.2528  0.0072 -0.0183
  667CHOL    R5 5996  11.515   7.979   7.833  0.0070 -0.0376  0.0798
  667CHOL    C1 5997  11.665   7.984   7.482 -0.2586  0.0317 -0.0352
  667CHOL    C2 5998  11.646   7.737   7.134 -0.0846  0.0184  0.1432
  668PNCE   AM1 5999   3.767   9.422   5.664 -0.2921 -0.0799  0.1064
  668PNCE   AM2 6000   3.468   9.526   5.686 -0.2088 -0.2854  0.1720
  668PNCE   T1A 6001   3.771   9.246   6.042  0.2910 -0.1333  0.0381
  668PNCE   C2A 6002   3.692   9.019   6.305 -0.0756 -0.0549  0.1865
  668PNCE   C3A 6003   3.923   9.015   6.633 -0.0202 -0.0867 -0.3550
  668PNCE   C1B 6004   3.593   9.687   6.193 -0.0328 -0.0482  0.3718
  668PNCE   C2B 6005   3.677   9.782   6.690  0.2840  0.3497  0.0479
  668PNCE   C3B 6006   3.986   9.948   6.991  0.0272  0.2983  0.2528
  668PNCE   D4B 6007   4.236   9.951   7.335 -0.0348 -0.1168 -0.3481
  668PNCE   C5B 6008   4.392  10.369   7.412 -0.1855 -0.1830  0.1144
  668PNCE   C6B 6009   4.286  10.764   7.445  0.0111 -0.1215 -0.3802
  669CHOL   ROH 6010   1.748   2.607   7.868  0.0685 -0.0857  0.0003
  669CHOL    R1 6011   1.894   2.458   7.677  0.2554  0.0627  0.0245
  669CHOL    R2 6012   1.825   2.452   7.409  0.0812 -0.2907  0.0751
  669CHOL    R3 6013   2.084   2.529   7.374 -0.0904  0.2253 -0.1614
  669CHOL    R4 6014   2.023   2.361   7.141  0.1857 -0.4056  0.1890
  669CHOL    R5 6015   2.190   2.336   7.279  0.3055  0.2493  0.1984
  669CHOL    C1 6016   2.381   2.380   6.952  0.0856  0.0119  0.0333
  669CHOL    C2 6017   2.456   2.251   6.599  0.0653 -0.0295 -0.1732
  670XCA    COO 6018   1.271   9.600   5.712  0.1352  0.1610  0.1551
  670XCA     C1 6019   1.458   9.804   6.062  0.1697  0.0417 -0.0841
  670XCA     C2 6020   1.371  10.087   6.365  0.1972  0.1107 -0.2591
  670XCA     C3 6021   1.464  10.495   6.471  0.1737  0.0177  0.0235
  670XCA     C4 6022   1.194  10.568   6.867  0.2691 -0.2102 -0.1155
  670XCA     C5 6023   1.073  10.835   7.142 -0.2304 -0.2697  0.0224
  670XCA     C6 6024   1.159  11.081   7.404 -0.0516 -0.0144 -0.2481
  671PNCE   AM1 6025   9.360   2.546   3.926 -0.0032 -0.2637 -0.0605
  671PNCE   AM2 6026   9.632   2.480   4.092  0.0517 -0.0213  0.1577
  671PNCE   T1A 6027   9.284   2.685   4.409  0.1139 -0.2460 -0.0756
  671PNCE   C2A 6028   9.107   2.945   4.713 -0.0812 -0.3404 -0.3731
  671PNCE   C3A 6029   8.721   3.185   4.772 -0.1687 -0.3531 -0.0560
  671PNCE   C1B 6030   9.375   2.214   4.293  0.3029 -0.1718  0.1439
  671PNCE   C2B 6031   9.292   2.113   4.689  0.1442 -0.1599 -0.2273
  671PNCE   C3B 6032   9.017   2.193   4.988  0.1617  0.1492  0.0884
  671PNCE   D4B 6033   8.880   2.035   5.295 -0.1119 -0.1527 -0.1892
  671PNCE   C5B 6034   8.536   2.132   5.498 -0.0533  0.0322 -0.1195
  671PNCE   C6B 6035   8.446   2.045   5.955  0.0175 -0.0795  0.1081
  672PNCE   AM1 6036   5.317   8.760   4.658  0.3483 -0.0546  0.2127
  672PNCE   AM2 6037   5.425   8.917   4.859 -0.0802 -0.0759 -0.1421
  672PNCE   T1A 6038   5.109   8.478   4.885 -0.0776  0.0362  0.1178
  672PNCE   C2A 6039   5.207   8.276   5.391  0.1216 -0.1195 -0.0105
  672PNCE   C3A 6040   5.171   7.916   5.649 -0.0419  0.4254  0.0901
  672PNCE   C1B 6041   5.294   8.841   5.331  0.1026  0.0298 -0.0334
  672PNCE   C2B 6042   5.261   8.990   5.721 -0.0831 -0.2224 -0.0028
  672PNCE   C3B 6043   5.387   8.909   6.117  0.0494 -0.2498  0.2054
  672PNCE   D4B 6044   5.776   8.791   6.274 -0.0213 -0.0192 -0.2727
  672PNCE   C5B 6045   6.096   9.051   6.363  0.0193 -0.2309 -0.0970
  672PNCE   C6B 6046   6.431   9.244   6.371 -0.2080 -0.3215 -0.2525
  673CHOL   ROH 6047  15.032  15.576   5.301  0.2436  0.3729  0.1547
  673CHOL    R1 6048  14.892  15.760   5.463  0.0680  0.2319  0.1666
  673CHOL    R2 6049  14.659  15.884   5.381  0.1153  0.2427  0.0528
  673CHOL    R3 6050  14.561  15.783   5.614 -0.0692  0.0616 -0.0987
  673CHOL    R4 6051  14.396  16.020   5.560  0.0438  0.1704  0.0038
  673CHOL    R5 6052  14.506  15.977   5.744 -0.0873 -0.0329  0.0407
  673CHOL    C1 6053  14.152  16.005   5.883 -0.1711 -0.0415 -0.1670
  673CHOL    C2 6054  14.016  16.310   5.935  0.2372  0.2107  0.2748
  674CHOL   ROH 6055  15.441   8.051   6.138  0.0062  0.0498 -0.0677
  674CHOL    R1 6056  15.349   7.924   6.374  0.0716  0.1361  0.0053
  674CHOL    R2 6057  15.292   8.064   6.606  0.0585  0.2316 -0.0540
  674CHOL    R3 6058  15.052   7.938   6.584  0.0926  0.1503  0.0341
  674CHOL    R4 6059  15.066   8.024   6.864  0.2239  0.0378  0.0633
  674CHOL    R5 6060  15.027   7.822   6.791  0.2582  0.0529  0.0015
  674CHOL    C1 6061  14.709   7.883   6.994  0.3521 -0.1513  0.2143
  674CHOL    C2 6062  14.543   8.043   7.336  0.3740  0.4200 -0.1523
  675CHOL   ROH 6063   0.550  14.759   6.939  0.0135  0.0145  0.0844
  675CHOL    R1 6064   0.817  14.696   6.869  0.0010  0.0046  0.0443
  675CHOL    R2 6065   0.926  14.761   6.624 -0.0207  0.0365  0.0415
  675CHOL    R3 6066   1.116  14.881   6.776  0.0043 -0.0030  0.0413
  675CHOL    R4 6067   1.259  14.791   6.537 -0.0540  0.1512 -0.0502
  675CHOL    R5 6068   1.312  14.747   6.744  0.0221  0.0553 -0.0907
  675CHOL    C1 6069   1.632  14.921   6.630 -0.0501  0.1807 -0.1036
  675CHOL    C2 6070   1.884  14.878   6.945 -0.0471 -0.1007  0.3081
  676PNCE   AM1 6071   6.596   2.127   3.768  0.3217  0.2758 -0.0509
  676PNCE   AM2 6072   6.884   1.964   3.834  0.0722 -0.1575 -0.0386
  676PNCE   T1A 6073   6.269   2.218   4.084  0.1789 -0.1121  0.1922
  676PNCE   C2A 6074   6.027   2.385   4.464 -0.1843  0.0872  0.1616
  676PNCE   C3A 6075   5.569   2.413   4.446 -0.0800  0.2477  0.1053
  676PNCE   C1B 6076   6.635   1.774   4.280 -0.3309 -0.1803  0.1519
  676PNCE   C2B 6077   6.521   1.698   4.710  0.4494  0.2735 -0.0723
  676PNCE   C3B 6078   6.467   1.562   5.082  0.0563 -0.0027  0.1708
  676PNCE   D4B 6079   6.430   1.195   5.432  0.2246 -0.3126 -0.1791
  676PNCE   C5B 6080   6.431   1.483   5.820 -0.1317  0.1309 -0.0649
  676PNCE   C6B 6081   6.651   1.870   5.998 -0.1193 -0.3114 -0.0172
  677PNCE   AM1 6082   6.362   9.837   8.905 -0.0457  0.1932 -0.2122
  677PNCE   AM2 6083   6.584   9.509   8.926 -0.0961  0.2036  0.3936
  677PNCE   T1A 6084   5.999   9.493   8.797  0.0167  0.2075  0.0732
  677PNCE   C2A 6085   5.746   9.152   8.673 -0.2583 -0.2020  0.1326
  677PNCE   C3A 6086   5.387   8.890   8.661 -0.0951 -0.2072  0.0545
  677PNCE   C1B 6087   6.493   9.261   8.487 -0.0340 -0.0121  0.0993
  677PNCE   C2B 6088   6.226   9.148   8.215 -0.0884 -0.1442  0.2218
  677PNCE   C3B 6089   6.185   8.820   7.870  0.2197 -0.0908  0.0058
  677PNCE   D4B 6090   6.301   8.451   7.678  0.0328  0.0020 -0.1417
  677PNCE   C5B 6091   6.312   8.031   7.985 -0.0166  0.1475 -0.0105
  677PNCE   C6B 6092   6.306   7.555   8.014 -0.1368  0.1619  0.2336
  678XCA    COO 6093  14.004  12.307   8.893 -0.0386 -0.0421 -0.0964
  678XCA     C1 6094  14.109  12.378   8.432  0.0162 -0.2042  0.0693
  678XCA     C2 6095  14.227  12.637   8.092  0.3403  0.2806  0.1456
  678XCA     C3 6096  14.167  12.911   7.664  0.1259  0.2114  0.0636
  678XCA     C4 6097  14.104  12.838   7.195 -0.0905 -0.1713  0.0857
  678XCA     C5 6098  14.286  13.122   6.891  0.1477  0.0435 -0.0701
  678XCA     C6 6099  14.464  13.339   6.514 -0.0638 -0.1076 -0.2920
  679CHOL   ROH 6100   0.692  10.167   5.673  0.4954 -0.1338  0.1549
  679CHOL    R1 6101   0.532  10.222   5.900  0.3972  0.0651  0.0410
  679CHOL    R2 6102   0.457  10.027   6.080 -0.0651  0.1278 -0.0618
  679CHOL    R3 6103   0.566  10.197   6.261  0.0728 -0.0909  0.0642
  679CHOL    R4 6104   0.409  10.008   6.422 -0.1115 -0.0515 -0.0776
  679CHOL    R5 6105   0.395  10.226   6.426  0.0865 -0.0428  0.0658
  679CHOL    C1 6106   0.483  10.158   6.791 -0.0090 -0.3611  0.0314
  679CHOL    C2 6107   0.644  10.290   7.047  0.1403  0.4132 -0.1817
  680XCA    COO 6108   6.023   9.827   5.015  0.2216 -0.1737 -0.0108
  680XCA     C1 6109   5.736   9.775   5.277  0.0882 -0.0825  0.1094
  680XCA     C2 6110   5.785   9.777   5.673  0.0378  0.0455  0.0549
  680XCA     C3 6111   5.642   9.829   6.119 -0.0489 -0.0330  0.3742
  680XCA     C4 6112   5.577  10.148   6.420  0.1362  0.0401  0.0649
  680XCA     C5 6113   5.245  10.256   6.500  0.0027 -0.1764  0.2170
  680XCA     C6 6114   5.014  10.597   6.578  0.0001  0.2830 -0.3234
  681CHOL   ROH 6115   0.266   9.691   6.697 -0.2113 -0.1083  0.1808
  681CHOL    R1 6116   0.324   9.699   6.974 -0.0863 -0.1093  0.1559
  681CHOL    R2 6117   0.544   9.573   7.084 -0.0199 -0.0888  0.0544
  681CHOL    R3 6118   0.595   9.820   7.184 -0.0033 -0.0847  0.0345
  681CHOL    R4 6119   0.645   9.637   7.408 -0.2678 -0.0435  0.1250
  681CHOL    R5 6120   0.514   9.811   7.410 -0.1970  0.0095 -0.0318
  681CHOL    C1 6121   0.753   9.907   7.691 -0.3965 -0.0134  0.1473
  681CHOL    C2 6122   0.968   9.937   7.919 -0.1265 -0.1241 -0.3340
  682PNCE   AM1 6123   0.735   2.585   4.375  0.0248 -0.2168 -0.0916
  682PNCE   AM2 6124   0.782   2.806   4.518 -0.0609 -0.5521  0.2849
  682PNCE   T1A 6125   0.678   2.263   4.646 -0.0227 -0.0479  0.0441
  682PNCE   C2A 6126   0.335   1.971   4.706  0.3719 -0.2198 -0.0006
  682PNCE   C3A 6127   0.205   1.597   4.930 -0.1886  0.0068  0.1445
  682PNCE   C1B 6128   0.881   3.118   4.940 -0.3865 -0.1317 -0.1225
  682PNCE   C2B 6129   0.793   3.263   5.355  0.2026  0.1921 -0.2441
  682PNCE   C3B 6130   0.673   3.131   5.822 -0.1173  0.1707  0.0570
  682PNCE   D4B 6131   0.367   2.895   5.939  0.2293  0.2549  0.2058
  682PNCE   C5B 6132   0.428   2.566   6.277 -0.0906 -0.0003  0.3384
  682PNCE   C6B 6133  -0.056   2.542   6.408  0.1033  0.1612  0.3798
  683CHOL   ROH 6134   3.033   0.920   4.122  0.3157  0.2270 -0.0263
  683CHOL    R1 6135   3.108   0.928   4.395  0.3104  0.0569 -0.0184
  683CHOL    R2 6136   3.369   0.895   4.479  0.3130  0.0229 -0.0342
  683CHOL    R3 6137   3.325   1.132   4.604  0.2912 -0.0601  0.1165
  683CHOL    R4 6138   3.466   0.968   4.803  0.3173 -0.1672  0.0082
  683CHOL    R5 6139   3.276   1.071   4.831  0.3077 -0.2066  0.0809
  683CHOL    C1 6140   3.481   1.233   5.109  0.2993 -0.3559  0.1744
  683CHOL    C2 6141   3.833   1.280   5.190 -0.3093 -0.1224 -0.1693
  684PNCE   AM1 6142   6.963  14.851   3.734  0.4221 -0.0229 -0.0510
  684PNCE   AM2 6143   7.365  14.808   3.788 -0.2651 -0.2182  0.0622
  684PNCE   T1A 6144   6.889  14.961   4.140 -0.1225  0.0507 -0.1089
  684PNCE   C2A 6145   6.745  14.991   4.549  0.0412 -0.1239 -0.3444
  684PNCE   C3A 6146   6.656  14.707   4.879  0.2026  0.0218 -0.0808
  684PNCE   C1B 6147   7.395  15.084   4.099 -0.0930  0.0378 -0.1988
  684PNCE   C2B 6148   7.186  15.314   4.363  0.0291 -0.1626 -0.3081
  684PNCE   C3B 6149   7.186  15.235   4.820 -0.1065 -0.1977  0.0434
  684PNCE   D4B 6150   7.158  15.236   5.323 -0.2541 -0.0843 -0.0411
  684PNCE   C5B 6151   6.972  15.630   5.436 -0.0613 -0.2229 -0.0932
  684PNCE   C6B 6152   6.729  15.884   5.796 -0.1849  0.1143 -0.2506
  685CHOL   ROH 6153   8.804   6.075   5.910 -0.0768 -0.1657 -0.0688
  685CHOL    R1 6154   8.538   5.984   5.942 -0.0863 -0.1638 -0.1391
  685CHOL    R2 6155   8.447   5.749   5.829 -0.0002 -0.2707  0.0069
  685CHOL    R3 6156   8.375   5.691   6.085 -0.1349 -0.0606  0.0182
  685CHOL    R4 6157   8.324   5.444   5.936  0.0062 -0.2038  0.2090
  685CHOL    R5 6158   8.182   5.551   6.062 -0.0899 -0.1228  0.0324
  685CHOL    C1 6159   8.184   5.213   6.238 -0.1167  0.0325  0.3373
  685CHOL    C2 6160   7.785   5.271   6.313 -0.0045  0.1226 -0.1108
  686XCA    COO 6161   1.408   0.803   3.783 -0.0166  0.0411  0.0579
  686XCA     C1 6162   1.207   0.667   4.161  0.0117  0.1525  0.0122
  686XCA     C2 6163   1.295   0.616   4.565 -0.1415  0.0060 -0.2758
  686XCA     C3 6164   1.329   1.025   4.681  0.1790  0.0252 -0.1686
  686XCA     C4 6165   1.544   1.157   5.099 -0.2236 -0.1194  0.0851
  686XCA     C5 6166   1.800   1.254   5.432  0.0453  0.1512 -0.2356
  686XCA     C6 6167   2.127   1.230   5.837  0.0156 -0.4508 -0.1688
  687PNCE   AM1 6168  15.150  13.659   4.919 -0.2451 -0.3305  0.2838
  687PNCE   AM2 6169  15.196  13.341   5.059  0.0669 -0.0485  0.1087
  687PNCE   T1A 6170  15.154  14.011   5.229  0.0405  0.2392 -0.2277
  687PNCE   C2A 6171  14.968  14.183   5.500 -0.2966  0.0012  0.1690
  687PNCE   C3A 6172  15.098  14.387   5.751  0.3053  0.1203 -0.0489
  687PNCE   C1B 6173  15.498  13.548   5.320  0.2653 -0.4884 -0.1062
  687PNCE   C2B 6174  15.515  13.823   5.662  0.0367 -0.0391  0.1562
  687PNCE   C3B 6175  15.692  13.875   6.056 -0.1403 -0.0097  0.2116
  687PNCE   D4B 6176  15.838  13.997   6.497  0.0832 -0.1921 -0.1276
  687PNCE   C5B 6177  15.987  13.804   6.825  0.0805  0.0429 -0.1926
  687PNCE   C6B 6178  16.165  14.012   7.246 -0.1208 -0.0121  0.1415
  688CHOL   ROH 6179   4.452   2.124   5.441  0.1936  0.0444 -0.0426
  688CHOL    R1 6180   4.310   2.067   5.680  0.0214 -0.0795 -0.1709
  688CHOL    R2 6181   4.266   1.809   5.769  0.1834 -0.1203 -0.2037
  688CHOL    R3 6182   4.382   1.902   5.996 -0.1167  0.0016 -0.0961
  688CHOL    R4 6183   4.273   1.641   6.070  0.2212 -0.1910 -0.2447
  688CHOL    R5 6184   4.236   1.830   6.172 -0.1384 -0.2667 -0.2185
  688CHOL    C1 6185   4.387   1.630   6.459 -0.0383 -0.1178 -0.1674
  688CHOL    C2 6186   4.702   1.477   6.759  0.3432 -0.1861 -0.0621
  689CHOL   ROH 6187   6.919   3.521   5.180  0.1899  0.1626  0.1896
  689CHOL    R1 6188   6.837   3.453   5.443  0.0934  0.0616  0.1345
  689CHOL    R2 6189   6.571   3.427   5.512  0.0622  0.1248  0.0492
  689CHOL    R3 6190   6.651   3.182   5.600 -0.0511  0.0502 -0.0525
  689CHOL    R4 6191   6.412   3.243   5.758  0.0482  0.1488  0.0576
  689CHOL    R5 6192   6.608   3.187   5.836  0.0438  0.0080 -0.0350
  689CHOL    C1 6193   6.395   2.907   5.984 -0.0663  0.0927 -0.0330
  689CHOL    C2 6194   6.110   2.938   6.271 -0.3394 -0.0739 -0.0280
  690PNCE   AM1 6195   4.608  13.131   4.479 -0.1238 -0.1665  0.2274
  690PNCE   AM2 6196   4.263  13.121   4.297  0.1277 -0.0673 -0.0565
  690PNCE   T1A 6197   4.635  13.555   4.677 -0.1149  0.2511 -0.0613
  690PNCE   C2A 6198   4.553  13.981   4.862  0.0150  0.3408 -0.0211
  690PNCE   C3A 6199   4.384  14.339   4.918  0.1581  0.0239 -0.1107
  690PNCE   C1B 6200   3.863  13.087   4.483  0.0702  0.2436 -0.2229
  690PNCE   C2B 6201   3.695  13.177   4.933  0.1104  0.2139  0.2550
  690PNCE   C3B 6202   3.669  12.860   5.350  0.2493 -0.3189 -0.3762
  690PNCE   D4B 6203   4.033  12.843   5.680  0.2526  0.0525  0.3296
  690PNCE   C5B 6204   3.955  13.089   5.982  0.1011 -0.1068 -0.1045
  690PNCE   C6B 6205   3.902  13.465   6.131 -0.2709  0.0346 -0.1508
  691PNCE   AM1 6206  13.426  13.613   4.654 -0.1696  0.1867  0.1199
  691PNCE   AM2 6207  13.436  13.362   4.880  0.0541 -0.4109  0.0314
  691PNCE   T1A 6208  12.950  13.660   4.873  0.1718  0.0879  0.1363
  691PNCE   C2A 6209  12.550  13.483   4.954 -0.0332 -0.2421  0.2414
  691PNCE   C3A 6210  12.269  13.126   5.031  0.1405 -0.0840 -0.3461
  691PNCE   C1B 6211  13.314  13.535   5.280  0.2412  0.0789  0.5419
  691PNCE   C2B 6212  12.977  13.716   5.479 -0.0448 -0.1160 -0.1357
  691PNCE   C3B 6213  12.849  13.997   5.702 -0.2962 -0.1492 -0.0459
  691PNCE   D4B 6214  12.517  14.281   5.710 -0.2149  0.0857 -0.3146
  691PNCE   C5B 6215  12.578  14.535   6.035 -0.1446  0.0476  0.0689
  691PNCE   C6B 6216  12.641  14.761   6.492  0.1158 -0.2021 -0.1613
  692PNCE   AM1 6217  11.158   5.182   4.561  0.0159  0.3061 -0.3458
  692PNCE   AM2 6218  10.905   4.945   4.475 -0.0170 -0.1962  0.1461
  692PNCE   T1A 6219  11.249   5.087   4.979  0.1142  0.0425  0.0365
  692PNCE   C2A 6220  10.980   4.893   5.304 -0.2329 -0.1742  0.1217
  692PNCE   C3A 6221  10.814   4.615   5.616  0.0204 -0.1327  0.0539
  692PNCE   C1B 6222  10.948   4.665   4.802 -0.4643  0.2682  0.0514
  692PNCE   C2B 6223  10.829   4.440   5.152  0.0008 -0.0120 -0.2475
  692PNCE   C3B 6224  10.513   4.272   5.422  0.0150 -0.1921  0.0970
  692PNCE   D4B 6225  10.153   4.205   5.633  0.0123 -0.0073 -0.0855
  692PNCE   C5B 6226   9.983   4.542   5.936 -0.2065  0.2739  0.2376
  692PNCE   C6B 6227  10.137   4.677   6.253  0.0368 -0.0859 -0.0716
  693CHOL   ROH 6228   2.362   1.203   7.325  0.4836 -0.1093 -0.1316
  693CHOL    R1 6229   2.181   0.994   7.265  0.4741 -0.1467  0.0299
  693CHOL    R2 6230   2.015   1.000   7.045  0.0748 -0.0481  0.3289
  693CHOL    R3 6231   2.129   0.759   6.993  0.0968  0.0401 -0.0691
  693CHOL    R4 6232   1.842   0.717   6.948 -0.0009 -0.0717  0.5246
  693CHOL    R5 6233   1.972   0.599   7.078  0.3518 -0.0927  0.1811
  693CHOL    C1 6234   1.849   0.325   6.842 -0.0244 -0.0027  0.2648
  693CHOL    C2 6235   1.769   0.046   6.623 -0.2489 -0.0796  0.0948
  694PNCE   AM1 6236   8.936  12.698   4.896 -0.2203  0.0620 -0.0515
  694PNCE   AM2 6237   8.616  12.818   4.759 -0.3567 -0.1743  0.0805
  694PNCE   T1A 6238   8.805  12.966   5.280  0.2712  0.0177  0.3622
  694PNCE   C2A 6239   8.787  13.421   5.510  0.0755 -0.0084 -0.2783
  694PNCE   C3A 6240   8.581  13.669   5.839 -0.0226  0.1782 -0.1889
  694PNCE   C1B 6241   8.301  12.996   5.091  0.1890  0.0164  0.0857
  694PNCE   C2B 6242   7.871  13.139   4.965  0.0891  0.0297 -0.4035
  694PNCE   C3B 6243   7.581  13.404   5.111 -0.1387  0.0579  0.2161
  694PNCE   D4B 6244   7.502  13.801   5.267  0.1316  0.0034 -0.0623
  694PNCE   C5B 6245   7.220  14.182   5.397  0.0130 -0.1051 -0.2373
  694PNCE   C6B 6246   6.868  14.349   5.599 -0.0963  0.2388 -0.2750
  695PNCE   AM1 6247  11.187   8.057   5.197  0.2567 -0.0063  0.1033
  695PNCE   AM2 6248  10.762   8.236   5.247 -0.4397 -0.3130 -0.0124
  695PNCE   T1A 6249  10.941   7.747   5.436  0.1184 -0.1643 -0.1775
  695PNCE   C2A 6250  10.751   7.509   5.792 -0.0996 -0.2115 -0.0269
  695PNCE   C3A 6251  10.450   7.142   5.691  0.0929 -0.0627  0.1210
  695PNCE   C1B 6252  10.630   8.160   5.715 -0.0380 -0.3492 -0.0488
  695PNCE   C2B 6253  10.262   8.195   5.994  0.1301 -0.0419  0.0409
  695PNCE   C3B 6254   9.972   8.061   6.325 -0.1318 -0.0610 -0.0354
  695PNCE   D4B 6255  10.035   7.919   6.717 -0.1219 -0.1594  0.0849
  695PNCE   C5B 6256  10.423   7.902   6.907 -0.2722 -0.1558 -0.1998
  695PNCE   C6B 6257  10.781   7.765   6.861 -0.3328 -0.2649 -0.1107
  696PNCE   AM1 6258   0.145   5.798   5.996 -0.2366  0.2931  0.0756
  696PNCE   AM2 6259   0.363   5.893   5.947 -0.1159  0.2418 -0.3911
  696PNCE   T1A 6260  -0.142   5.465   5.916  0.1316  0.2356  0.1370
  696PNCE   C2A 6261  -0.170   5.020   5.755 -0.3579  0.1715 -0.2064
  696PNCE   C3A 6262  -0.188   4.602   6.023 -0.2150  0.0705 -0.0869
  696PNCE   C1B 6263   0.384   5.926   6.413  0.2102  0.0670  0.0782
  696PNCE   C2B 6264   0.510   5.632   6.768 -0.2067 -0.3106 -0.3100
  696PNCE   C3B 6265   0.364   5.340   6.974  0.0677  0.2645 -0.0519
  696PNCE   D4B 6266  -0.054   5.350   7.011 -0.0681  0.4210 -0.1059
  696PNCE   C5B 6267  -0.241   5.748   6.871 -0.3475  0.1058  0.2861
  696PNCE   C6B 6268  -0.198   6.014   6.500  0.1296 -0.0356  0.2201
  697PNCE   AM1 6269   8.321  14.850   4.120  0.1033  0.2324 -0.0031
  697PNCE   AM2 6270   8.010  14.872   3.996  0.0957  0.1906 -0.2345
  697PNCE   T1A 6271   8.139  14.794   4.492 -0.1143  0.2174 -0.2563
  697PNCE   C2A 6272   7.921  14.867   4.877 -0.2373 -0.0347  0.0162
  697PNCE   C3A 6273   7.989  14.841   5.300  0.1534 -0.2094  0.2483
  697PNCE   C1B 6274   7.857  15.263   4.074  0.1210  0.0573 -0.1362
  697PNCE   C2B 6275   7.562  15.594   4.234 -0.3143  0.0353 -0.0142
  697PNCE   C3B 6276   7.713  16.020   4.374  0.0467  0.1995 -0.0941
  697PNCE   D4B 6277   7.981  16.358   4.273  0.1485 -0.0171  0.2874
  697PNCE   C5B 6278   8.360  16.406   4.416  0.3976 -0.0143 -0.0300
  697PNCE   C6B 6279   8.676  16.726   4.557 -0.2348 -0.1314  0.1728
  698PNCE   AM1 6280  14.013   3.939   4.960 -0.1017  0.1889  0.2390
  698PNCE   AM2 6281  13.721   4.082   4.941  0.2590 -0.0793  0.3672
  698PNCE   T1A 6282  13.999   3.498   5.088  0.1275  0.1298  0.0430
  698PNCE   C2A 6283  14.061   3.280   5.375 -0.1127 -0.0740 -0.0693
  698PNCE   C3A 6284  13.976   3.043   5.821  0.0802 -0.1179  0.2407
  698PNCE   C1B 6285  13.428   3.738   5.249 -0.2560 -0.1775 -0.3024
  698PNCE   C2B 6286  13.475   3.352   5.386  0.0910  0.2829  0.1137
  698PNCE   C3B 6287  13.466   3.189   5.888  0.1134  0.3982  0.0784
  698PNCE   D4B 6288  13.360   3.104   6.253  0.2009 -0.3711  0.3418
  698PNCE   C5B 6289  13.654   3.005   6.562 -0.0703 -0.0456  0.1027
  698PNCE   C6B 6290  13.510   2.702   6.894 -0.3291 -0.3023 -0.0390
  699XCA    COO 6291   5.533   5.229   8.612  0.0459 -0.0471  0.1539
  699XCA     C1 6292   5.234   4.891   8.590  0.2150  0.2378 -0.0402
  699XCA     C2 6293   4.924   4.645   8.400  0.0516  0.0332 -0.0578
  699XCA     C3 6294   4.725   4.468   8.053  0.0516 -0.1637  0.4069
  699XCA     C4 6295   4.592   4.545   7.636 -0.1330  0.3782 -0.1597
  699XCA     C5 6296   4.403   4.299   7.316 -0.1113 -0.2209 -0.1233
  699XCA     C6 6297   4.127   4.098   6.905  0.2538 -0.1407 -0.2063
  700XCA    COO 6298   0.971   9.901  10.115  0.1014 -0.1171 -0.0112
  700XCA     C1 6299   1.066   9.931   9.694 -0.1399  0.2203 -0.5295
  700XCA     C2 6300   1.247   9.733   9.342  0.3809  0.2213  0.1862
  700XCA     C3 6301   1.402   9.682   8.932  0.1624  0.0925 -0.1172
  700XCA     C4 6302   1.615   9.516   8.536  0.1803  0.0211 -0.1367
  700XCA     C5 6303   1.562   9.479   8.150  0.1137  0.3086  0.1285
  700XCA     C6 6304   1.285   9.486   7.951 -0.2670 -0.2090 -0.0930
  701PNCE   AM1 6305   2.580   9.008   5.790  0.1401 -0.1300  0.0907
  701PNCE   AM2 6306   2.427   9.330   5.817 -0.1119  0.1457  0.0384
  701PNCE   T1A 6307   2.894   8.892   5.958  0.0963  0.0607 -0.1179
  701PNCE   C2A 6308   3.128   8.986   6.347 -0.1309  0.1654 -0.0299
  701PNCE   C3A 6309   3.375   8.968   6.798  0.0479 -0.0113  0.1170
  701PNCE   C1B 6310   2.764   9.388   6.071 -0.0449  0.0961 -0.3055
  701PNCE   C2B 6311   2.794   9.392   6.499 -0.3020 -0.0527  0.4219
  701PNCE   C3B 6312   2.911   9.162   6.744  0.1328 -0.3015  0.2931
  701PNCE   D4B 6313   2.869   9.018   7.122 -0.2451  0.0463 -0.0226
  701PNCE   C5B 6314   3.262   9.062   7.278 -0.2619 -0.1800 -0.0792
  701PNCE   C6B 6315   3.545   8.993   7.576  0.1376  0.2029 -0.0826
  702PNCE   AM1 6316  10.416   2.386   4.190 -0.0121 -0.1287  0.0254
  702PNCE   AM2 6317  10.147   2.454   4.143  0.2418 -0.0668 -0.4671
  702PNCE   T1A 6318  10.556   2.366   4.629  0.0137  0.0394  0.2802
  702PNCE   C2A 6319  10.477   2.354   5.045 -0.1532 -0.2970 -0.1938
  702PNCE   C3A 6320  10.609   2.025   5.250  0.0940  0.1617 -0.1002
  702PNCE   C1B 6321  10.078   2.565   4.660  0.2707 -0.0387  0.1627
  702PNCE   C2B 6322   9.867   2.414   4.986  0.1511  0.1051 -0.0382
  702PNCE   C3B 6323   9.586   2.307   5.314 -0.0043 -0.0396  0.1449
  702PNCE   D4B 6324   9.314   2.031   5.617 -0.0387  0.1108 -0.2269
  702PNCE   C5B 6325   8.953   2.058   5.873  0.3802 -0.0305 -0.1560
  702PNCE   C6B 6326   8.854   2.176   6.298  0.0774  0.1998 -0.0520
  703CHOL   ROH 6327  12.547  10.784   8.950 -0.0125 -0.0353  0.0949
  703CHOL    R1 6328  12.527  10.848   8.675 -0.1658 -0.1598  0.0772
  703CHOL    R2 6329  12.292  10.819   8.532 -0.3803  0.2358  0.3437
  703CHOL    R3 6330  12.336  11.080   8.470  0.0963  0.1206  0.1397
  703CHOL    R4 6331  12.177  10.976   8.246 -0.3639  0.2861  0.3633
  703CHOL    R5 6332  12.368  11.080   8.232 -0.1471 -0.1057  0.0970
  703CHOL    C1 6333  12.150  11.312   8.022  0.0932  0.2075  0.1833
  703CHOL    C2 6334  11.932  11.598   7.769 -0.0822 -0.0700 -0.1328
  704PNCE   AM1 6335  10.472   5.977   8.902 -0.2613  0.0632 -0.0455
  704PNCE   AM2 6336  10.741   5.857   8.798  0.1227 -0.0324 -0.3445
  704PNCE   T1A 6337  10.480   5.966   8.400 -0.1473  0.0717  0.1512
  704PNCE   C2A 6338  10.588   6.174   8.086  0.0752 -0.2338  0.1118
  704PNCE   C3A 6339  10.541   6.195   7.580  0.0900  0.0162  0.2971
  704PNCE   C1B 6340  10.841   6.295   8.590 -0.0021 -0.1007  0.3471
  704PNCE   C2B 6341  11.053   6.425   8.137 -0.1926 -0.0220 -0.0961
  704PNCE   C3B 6342  11.273   6.551   7.762 -0.1381  0.0246 -0.1564
  704PNCE   D4B 6343  11.536   6.752   7.512  0.1811 -0.1160  0.2061
  704PNCE   C5B 6344  11.891   7.099   7.579  0.2076 -0.1933 -0.1122
  704PNCE   C6B 6345  12.112   7.187   7.914  0.0868  0.1182 -0.0841
  705PNCE   AM1 6346   9.950  15.583   4.701  0.3300 -0.4509  0.1341
  705PNCE   AM2 6347   9.777  15.848   4.511 -0.0334  0.2533  0.0047
  705PNCE   T1A 6348  10.246  15.672   5.133 -0.0383  0.0580 -0.0211
  705PNCE   C2A 6349  10.402  15.624   5.547  0.0458 -0.1034 -0.3082
  705PNCE   C3A 6350  10.396  15.874   5.889 -0.0960 -0.3578  0.3244
  705PNCE   C1B 6351   9.520  15.981   4.778 -0.0597  0.0631 -0.1202
  705PNCE   C2B 6352   9.315  15.932   5.214  0.1302 -0.1785  0.0773
  705PNCE   C3B 6353   9.499  16.141   5.596 -0.1641 -0.2345  0.1255
  705PNCE   D4B 6354   9.890  16.039   5.837 -0.1842 -0.4432  0.2184
  705PNCE   C5B 6355   9.936  15.664   5.910  0.2268  0.0771 -0.1681
  705PNCE   C6B 6356  10.273  15.348   5.905 -0.0293 -0.1002  0.0027
  706CHOL   ROH 6357   0.182   8.784   6.113 -0.3349 -0.0341 -0.0241
  706CHOL    R1 6358   0.142   8.901   6.368 -0.2080 -0.0215 -0.0098
  706CHOL    R2 6359  -0.070   8.833   6.531 -0.1640  0.0366  0.0700
  706CHOL    R3 6360   0.126   8.784   6.712 -0.1092 -0.0135 -0.0017
  706CHOL    R4 6361  -0.120   8.800   6.871 -0.0395  0.1301  0.0983
  706CHOL    R5 6362   0.063   8.914   6.904  0.0269  0.0559 -0.0014
  706CHOL    C1 6363   0.035   8.735   7.240  0.0845  0.1375  0.0474
  706CHOL    C2 6364  -0.112   8.484   7.457  0.0964 -0.1946  0.0374
  707XCA    COO 6365   0.658  13.942   4.776  0.0177 -0.1855 -0.1641
  707XCA     C1 6366   0.753  13.983   5.216  0.0328  0.4086  0.1411
  707XCA     C2 6367   0.848  13.955   5.670 -0.0852 -0.2513 -0.0078
  707XCA     C3 6368   0.963  14.199   6.033  0.1596  0.3282  0.1901
  707XCA     C4 6369   1.010  14.360   6.372  0.0610  0.0129 -0.0603
  707XCA     C5 6370   1.089  14.307   6.842 -0.0715 -0.0969 -0.1412
  707XCA     C6 6371   1.382  14.098   7.186  0.1362 -0.0564  0.3005
  708XCA    COO 6372  15.517  14.156   4.918 -0.2578 -0.1857  0.2874
  708XCA     C1 6373  15.664  14.218   5.389  0.0475  0.0397  0.1285
  708XCA     C2 6374  15.628  14.304   5.818 -0.0481  0.1541 -0.0084
  708XCA     C3 6375  15.535  14.311   6.268  0.1998 -0.1854 -0.0543
  708XCA     C4 6376  15.508  14.446   6.658  0.0002 -0.0468  0.1961
  708XCA     C5 6377  15.369  14.474   7.088 -0.0499  0.2157 -0.0534
  708XCA     C6 6378  15.545  14.735   7.407 -0.0131  0.0378 -0.2692
  709CHOL   ROH 6379   3.562  10.088   5.927 -0.2782 -0.1077  0.2096
  709CHOL    R1 6380   3.497  10.223   6.167  0.0603  0.0508  0.2205
  709CHOL    R2 6381   3.408  10.091   6.393 -0.2978  0.2466  0.2165
  709CHOL    R3 6382   3.615  10.223   6.511  0.0610 -0.2917  0.2198
  709CHOL    R4 6383   3.424  10.177   6.728 -0.1137  0.3215  0.1885
  709CHOL    R5 6384   3.510  10.368   6.670  0.4421  0.0629  0.1509
  709CHOL    C1 6385   3.626  10.350   7.033  0.3304 -0.1402  0.1754
  709CHOL    C2 6386   3.410  10.359   7.279 -0.0835  0.1133 -0.0554
  710CHOL   ROH 6387   8.240   0.788   8.110 -0.0863 -0.3029 -0.2673
  710CHOL    R1 6388   8.358   0.995   7.956 -0.1888 -0.0593 -0.0269
  710CHOL    R2 6389   8.421   0.963   7.688  0.2067  0.1422  0.0369
  710CHOL    R3 6390   8.270   1.187   7.660 -0.0943 -0.0668 -0.0608
  710CHOL    R4 6391   8.351   1.118   7.387  0.4428  0.2096  0.0136
  710CHOL    R5 6392   8.377   1.310   7.485 -0.0002  0.2005  0.1766
  710CHOL    C1 6393   8.168   1.418   7.185  0.2978  0.0527 -0.0915
  710CHOL    C2 6394   7.792   1.553   6.989 -0.2064 -0.1266  0.0667
  711CHOL   ROH 6395  13.178  11.689   5.072 -0.0211  0.1533 -0.0597
  711CHOL    R1 6396  13.383  11.676   5.266  0.0301  0.0626 -0.1197
  711CHOL    R2 6397  13.560  11.884   5.310 -0.0182  0.0791 -0.0047
  711CHOL    R3 6398  13.475  11.858   5.567  0.0523 -0.1412 -0.0009
  711CHOL    R4 6399  13.745  11.973   5.588 -0.0647  0.1424  0.0063
  711CHOL    R5 6400  13.672  11.793   5.688  0.1466  0.0105 -0.0687
  711CHOL    C1 6401  13.773  12.001   5.991 -0.0257 -0.0276  0.0163
  711CHOL    C2 6402  13.842  11.875   6.355  0.4028  0.0363  0.2927
  712CHOL   ROH 6403   8.740   7.840   4.970  0.0859 -0.0446 -0.0080
  712CHOL    R1 6404   8.667   7.757   5.230  0.0418  0.0394  0.0058
  712CHOL    R2 6405   8.850   7.660   5.412 -0.0169 -0.0612  0.0059
  712CHOL    R3 6406   8.747   7.855   5.571  0.1239  0.0285 -0.0091
  712CHOL    R4 6407   8.728   7.610   5.732  0.0159  0.0616  0.0392
  712CHOL    R5 6408   8.565   7.748   5.686  0.0826  0.1483  0.0445
  712CHOL    C1 6409   8.560   7.764   6.067  0.1671  0.2172  0.0445
  712CHOL    C2 6410   8.373   7.889   6.411 -0.2356 -0.0443  0.0322
  713XCA    COO 6411   2.387  11.355   5.406  0.1132  0.2115  0.6166
  713XCA     C1 6412   2.174  11.740   5.614  0.0471 -0.0099 -0.1421
  713XCA     C2 6413   2.192  12.034   5.992 -0.0415  0.3616  0.0144
  713XCA     C3 6414   2.302  12.209   6.435  0.2536  0.0505 -0.1142
  713XCA     C4 6415   2.492  12.364   6.917  0.1530 -0.4640  0.1625
  713XCA     C5 6416   2.826  12.467   7.319 -0.1147 -0.0795  0.0265
  713XCA     C6 6417   2.702  12.442   7.796 -0.0610  0.1194 -0.0054
  714CHOL   ROH 6418   8.483  10.483   5.191  0.4552  0.0125  0.0395
  714CHOL    R1 6419   8.537  10.536   5.464  0.2823  0.1155  0.0548
  714CHOL    R2 6420   8.463  10.772   5.587  0.0531  0.0921 -0.0372
  714CHOL    R3 6421   8.341  10.605   5.763  0.0841  0.0486 -0.0563
  714CHOL    R4 6422   8.379  10.854   5.912  0.1796 -0.0051  0.0210
  714CHOL    R5 6423   8.443  10.655   5.973  0.1679 -0.0417 -0.0717
  714CHOL    C1 6424   8.216  10.744   6.266  0.2824 -0.1024  0.0371
  714CHOL    C2 6425   7.987  10.855   6.696 -0.0417  0.0788  0.0418
  715CHOL   ROH 6426  11.398  11.025   5.808  0.0275 -0.2855  0.0601
  715CHOL    R1 6427  11.364  10.960   6.082 -0.0413 -0.1003  0.0954
  715CHOL    R2 6428  11.275  11.143   6.268 -0.0515  0.0263 -0.0384
  715CHOL    R3 6429  11.089  10.952   6.320 -0.0838  0.0976  0.0501
  715CHOL    R4 6430  11.142  11.076   6.580  0.0205  0.1142  0.0120
  715CHOL    R5 6431  11.153  10.863   6.533 -0.0545  0.1160  0.0435
  715CHOL    C1 6432  10.891  10.857   6.810  0.0321  0.2322  0.1244
  715CHOL    C2 6433  10.888  10.960   7.165 -0.2634  0.0891  0.1876
  716PNCE   AM1 6434   0.517   7.958   6.117  0.1419  0.0526  0.0292
  716PNCE   AM2 6435   0.477   8.227   5.751 -0.1966 -0.0205  0.3233
  716PNCE   T1A 6436   0.657   7.751   6.476 -0.0016  0.3453 -0.1018
  716PNCE   C2A 6437   0.896   7.713   6.842 -0.2704  0.0504 -0.1424
  716PNCE   C3A 6438   0.755   7.606   7.287 -0.0740  0.2557 -0.0203
  716PNCE   C1B 6439   0.512   8.458   6.205 -0.1136 -0.1122 -0.0553
  716PNCE   C2B 6440   0.493   8.263   6.658  0.4261 -0.2171 -0.1425
  716PNCE   C3B 6441   0.343   7.889   6.903 -0.0322  0.0431  0.1903
  716PNCE   D4B 6442   0.057   7.824   7.323  0.1986  0.1427 -0.0596
  716PNCE   C5B 6443   0.306   7.521   7.629  0.3663  0.0400  0.0664
  716PNCE   C6B 6444   0.744   7.335   7.796 -0.1021  0.1113 -0.2560
  717CHOL   ROH 6445   5.279   3.195   4.657  0.0563  0.1376  0.1258
  717CHOL    R1 6446   5.332   3.006   4.861  0.0106  0.0718  0.0772
  717CHOL    R2 6447   5.526   3.045   5.054 -0.0335  0.0105  0.1341
  717CHOL    R3 6448   5.319   3.000   5.225 -0.0718 -0.0459  0.0731
  717CHOL    R4 6449   5.559   2.982   5.392 -0.1077 -0.1054  0.1200
  717CHOL    R5 6450   5.401   2.832   5.375 -0.1060 -0.0983  0.0340
  717CHOL    C1 6451   5.384   2.902   5.749 -0.1869 -0.2258  0.0545
  717CHOL    C2 6452   5.593   3.019   5.965 -0.1091  0.2920 -0.2087
  718PNCE   AM1 6453  14.316   5.808   5.188 -0.1533  0.0008  0.0277
  718PNCE   AM2 6454  14.536   5.881   5.406  0.0584 -0.0857  0.0265
  718PNCE   T1A 6455  14.254   5.515   5.593  0.4294  0.2844  0.0882
  718PNCE   C2A 6456  14.186   5.289   6.002  0.0874 -0.5317  0.1710
  718PNCE   C3A 6457  13.998   5.319   6.351  0.0415 -0.1844 -0.3248
  718PNCE   C1B 6458  14.304   6.109   5.753 -0.3014 -0.1114 -0.1240
  718PNCE   C2B 6459  14.515   6.251   6.051 -0.2213  0.0330 -0.1712
  718PNCE   C3B 6460  14.389   6.221   6.480 -0.2286  0.3013  0.0049
  718PNCE   D4B 6461  14.274   6.305   6.879  0.0825 -0.1847 -0.1035
  718PNCE   C5B 6462  14.479   6.379   7.278  0.0208 -0.1829  0.2193
  718PNCE   C6B 6463  14.514   6.275   7.709  0.0493 -0.1249 -0.0545
  719PNCE   AM1 6464   8.958  14.207   4.181  0.0992 -0.1054 -0.0958
  719PNCE   AM2 6465   9.202  14.388   4.287  0.0300 -0.2222 -0.0166
  719PNCE   T1A 6466   8.973  14.131   4.690  0.2646  0.2000  0.4270
  719PNCE   C2A 6467   8.977  14.096   5.146  0.0168 -0.3183  0.2048
  719PNCE   C3A 6468   8.952  13.927   5.532  0.1963 -0.3181 -0.0675
  719PNCE   C1B 6469   9.016  14.632   4.673 -0.0943  0.1868  0.0396
  719PNCE   C2B 6470   8.946  14.584   5.107  0.6337  0.2281 -0.0595
  719PNCE   C3B 6471   8.787  14.447   5.516 -0.0335 -0.1693  0.0465
  719PNCE   D4B 6472   8.843  14.283   5.890  0.0191 -0.2748  0.0335
  719PNCE   C5B 6473   8.646  14.377   6.266  0.1393  0.2061 -0.0371
  719PNCE   C6B 6474   8.640  14.679   6.625  0.1171 -0.1599 -0.0791
  720PNCE   AM1 6475   2.294   9.814   5.955  0.0035  0.1735  0.2565
  720PNCE   AM2 6476   2.094  10.047   5.868 -0.0009 -0.0198  0.1622
  720PNCE   T1A 6477   2.656   9.860   6.180 -0.2736 -0.2450  0.3221
  720PNCE   C2A 6478   3.109   9.766   6.430  0.0570 -0.1240 -0.0579
  720PNCE   C3A 6479   3.377   9.433   6.540  0.1140  0.1102 -0.3420
  720PNCE   C1B 6480   1.928  10.258   6.274  0.0217  0.2253 -0.0613
  720PNCE   C2B 6481   1.890  10.220   6.701  0.2850  0.1370 -0.0054
  720PNCE   C3B 6482   1.686  10.367   7.023  0.0496  0.1224 -0.0387
  720PNCE   D4B 6483   1.407  10.555   7.336  0.1941  0.0523  0.0014
  720PNCE   C5B 6484   1.606  10.854   7.714  0.2323 -0.1785  0.2803
  720PNCE   C6B 6485   1.975  11.092   7.808 -0.1601  0.0563 -0.1166
  721XCA    COO 6486   7.427   2.703   4.156 -0.0376 -0.3549  0.2491
  721XCA     C1 6487   7.261   2.879   4.580  0.2118 -0.0163  0.0658
  721XCA     C2 6488   7.506   2.772   4.967  0.2856  0.0557  0.0489
  721XCA     C3 6489   7.729   2.554   5.237  0.2974 -0.3598 -0.1650
  721XCA     C4 6490   7.563   2.214   5.601  0.0257  0.1698 -0.1089
  721XCA     C5 6491   7.169   2.001   5.859  0.0389 -0.2966 -0.4163
  721XCA     C6 6492   7.043   1.728   6.256 -0.2167  0.0112 -0.0577
  722PNCE   AM1 6493   5.498   7.485   5.063  0.0065 -0.1152  0.1446
  722PNCE   AM2 6494   5.747   7.191   5.183  0.0277 -0.0990  0.0609
  722PNCE   T1A 6495   5.272   7.360   5.369 -0.1201 -0.1276 -0.0957
  722PNCE   C2A 6496   5.106   7.121   5.669 -0.1467 -0.1537 -0.0376
  722PNCE   C3A 6497   4.776   7.094   5.842  0.2852 -0.1311  0.0279
  722PNCE   C1B 6498   5.887   7.056   5.577 -0.0045 -0.2232 -0.3707
  722PNCE   C2B 6499   6.192   7.010   5.950  0.2198 -0.0834 -0.0801
  722PNCE   C3B 6500   6.517   7.105   6.281 -0.4198 -0.0727  0.1962
  722PNCE   D4B 6501   6.615   7.200   6.703  0.1658 -0.0146  0.1141
  722PNCE   C5B 6502   6.632   7.578   6.962  0.0909 -0.1539  0.3587
  722PNCE   C6B 6503   6.784   8.019   7.028  0.0736 -0.2278  0.1418
  723PNCE   AM1 6504  11.185   3.594   4.619  0.1364 -0.2067 -0.1343
  723PNCE   AM2 6505  11.469   3.475   4.530 -0.2931 -0.1766 -0.0574
  723PNCE   T1A 6506  11.056   3.503   5.025 -0.1489  0.2220 -0.0689
  723PNCE   C2A 6507  11.055   3.230   5.339 -0.0063 -0.0367  0.0286
  723PNCE   C3A 6508  10.948   3.269   5.679  0.1488 -0.2628  0.2462
  723PNCE   C1B 6509  11.421   3.165   4.892  0.1309 -0.0301 -0.1126
  723PNCE   C2B 6510  11.518   2.931   5.287 -0.2630  0.0249  0.1220
  723PNCE   C3B 6511  11.282   2.720   5.591 -0.0095 -0.0592 -0.1721
  723PNCE   D4B 6512  10.926   2.790   5.752 -0.2207  0.0928  0.2938
  723PNCE   C5B 6513  10.620   2.948   6.100 -0.2207  0.2532  0.3733
  723PNCE   C6B 6514  10.305   3.128   6.331  0.4632  0.2320  0.0732
  724PNCE   AM1 6515   6.406   0.021   3.202  0.3358  0.2231  0.1668
  724PNCE   AM2 6516   6.103  -0.203   3.196 -0.2661  0.0582  0.0140
  724PNCE   T1A 6517   6.752   0.194   3.559 -0.1073 -0.1786  0.1896
  724PNCE   C2A 6518   6.878   0.020   3.882  0.1623  0.0838 -0.0754
  724PNCE   C3A 6519   6.871  -0.361   4.009 -0.1778  0.1261 -0.1066
  724PNCE   C1B 6520   6.133  -0.522   3.613  0.0149 -0.0867 -0.1797
  724PNCE   C2B 6521   5.915  -0.692   3.868  0.1251 -0.0221  0.0903
  724PNCE   C3B 6522   5.807  -0.532   4.195  0.0488  0.0021  0.0418
  724PNCE   D4B 6523   5.675  -0.525   4.595  0.0347 -0.2495 -0.0689
  724PNCE   C5B 6524   5.802  -0.746   4.981 -0.2358 -0.1833  0.2282
  724PNCE   C6B 6525   6.071  -1.150   4.908  0.0424  0.1585 -0.0272
  725PNCE   AM1 6526   3.129   6.051   5.687  0.0973 -0.1820  0.2170
  725PNCE   AM2 6527   2.806   5.941   5.644  0.0604  0.3899  0.0416
  725PNCE   T1A 6528   3.310   6.013   6.065 -0.0082  0.0775  0.1378
  725PNCE   C2A 6529   3.518   5.817   6.444  0.0355 -0.0693  0.2277
  725PNCE   C3A 6530   3.561   5.639   6.760 -0.3161  0.2764 -0.0751
  725PNCE   C1B 6531   2.829   5.928   6.140 -0.0312 -0.1279 -0.0608
  725PNCE   C2B 6532   3.072   5.968   6.541  0.1529  0.0514  0.1577
  725PNCE   C3B 6533   2.826   6.128   6.745 -0.2473 -0.0919  0.1425
  725PNCE   D4B 6534   2.591   6.486   6.785 -0.0648  0.1515 -0.2475
  725PNCE   C5B 6535   2.332   6.452   7.122 -0.1168 -0.0189 -0.2178
  725PNCE   C6B 6536   2.196   6.270   7.533 -0.0470  0.0151 -0.1737
  726PNCE   AM1 6537   3.136   5.630   5.419 -0.0762  0.1195  0.1005
  726PNCE   AM2 6538   2.853   5.496   5.354  0.2629 -0.1786  0.3194
  726PNCE   T1A 6539   3.091   5.577   5.878  0.4807 -0.0674  0.1339
  726PNCE   C2A 6540   3.010   5.479   6.218 -0.0159  0.0529 -0.0299
  726PNCE   C3A 6541   2.858   5.164   6.496  0.2749  0.2124 -0.2508
  726PNCE   C1B 6542   2.644   5.345   5.811  0.0883  0.0434  0.3396
  726PNCE   C2B 6543   2.448   5.102   6.208  0.1181 -0.0460 -0.0919
  726PNCE   C3B 6544   2.393   5.119   6.639 -0.2300  0.1202 -0.1949
  726PNCE   D4B 6545   2.203   5.440   6.852  0.1381  0.3416 -0.0407
  726PNCE   C5B 6546   2.162   5.290   7.289  0.4383  0.0740  0.0087
  726PNCE   C6B 6547   2.135   5.415   7.684  0.0925  0.1159  0.1100
  727CHOL   ROH 6548  12.450  12.048   8.723 -0.3153 -0.0008  0.0040
  727CHOL    R1 6549  12.337  11.948   8.483 -0.1612  0.0356 -0.0846
  727CHOL    R2 6550  12.291  12.108   8.263 -0.0719  0.0813 -0.0697
  727CHOL    R3 6551  12.439  11.919   8.135  0.0391  0.1443 -0.0370
  727CHOL    R4 6552  12.240  12.006   7.937 -0.0669 -0.0693 -0.0245
  727CHOL    R5 6553  12.279  11.801   8.001  0.0966 -0.0195  0.0371
  727CHOL    C1 6554  12.348  11.769   7.627  0.0401 -0.0977  0.0323
  727CHOL    C2 6555  12.170  11.761   7.239 -0.3065  0.1713  0.2329
  728XCA    COO 6556   9.602  14.660   4.390 -0.1092 -0.2179 -0.0754
  728XCA     C1 6557   9.471  14.783   4.800 -0.0690 -0.0612 -0.0668
  728XCA     C2 6558   9.483  15.067   5.142 -0.0975 -0.0787 -0.1085
  728XCA     C3 6559   9.396  15.320   5.501  0.2257  0.1917 -0.1951
  728XCA     C4 6560   9.474  15.648   5.670 -0.0463 -0.2794 -0.0167
  728XCA     C5 6561   9.441  15.868   6.152 -0.2390  0.0688  0.1476
  728XCA     C6 6562   9.387  15.835   6.605  0.0239 -0.1366  0.1872
  729PNCE   AM1 6563   3.589   6.264   5.576  0.0183 -0.0503 -0.1627
  729PNCE   AM2 6564   3.651   6.656   5.467  0.1007 -0.1651 -0.3609
  729PNCE   T1A 6565   3.775   6.020   5.929  0.3501  0.1260 -0.3090
  729PNCE   C2A 6566   4.047   5.815   6.187  0.4002 -0.1845 -0.0073
  729PNCE   C3A 6567   4.379   5.638   6.360  0.0087  0.1150  0.1397
  729PNCE   C1B 6568   4.001   6.457   5.675 -0.2472 -0.1847  0.0676
  729PNCE   C2B 6569   4.125   6.286   6.047 -0.1373 -0.0142  0.1765
  729PNCE   C3B 6570   4.446   6.220   6.230  0.1081 -0.0234  0.1779
  729PNCE   D4B 6571   4.878   6.329   6.353 -0.0888  0.4244 -0.0907
  729PNCE   C5B 6572   5.014   6.176   6.670  0.2509 -0.0725  0.1378
  729PNCE   C6B 6573   5.118   5.807   6.925  0.1337 -0.1801  0.2383
  730XCA    COO 6574  13.876  12.901   5.367 -0.2218 -0.2320 -0.2458
  730XCA     C1 6575  13.794  12.900   5.802  0.2010 -0.0232  0.1123
  730XCA     C2 6576  13.626  12.641   6.226 -0.2130  0.0620  0.0604
  730XCA     C3 6577  13.585  12.417   6.682  0.0361 -0.0198 -0.2538
  730XCA     C4 6578  13.772  12.415   7.030 -0.1087  0.0506  0.0010
  730XCA     C5 6579  14.077  12.272   7.248 -0.1960 -0.0146 -0.1166
  730XCA     C6 6580  14.325  11.909   7.364  0.0350 -0.0723 -0.0984
  731PNCE   AM1 6581   6.678  15.516   3.486 -0.4632  0.0912 -0.5817
  731PNCE   AM2 6582   6.658  15.164   3.538 -0.1393  0.1681 -0.4535
  731PNCE   T1A 6583   6.451  15.577   3.860 -0.1174 -0.2059  0.0010
  731PNCE   C2A 6584   6.211  15.660   4.272 -0.2035 -0.0490  0.1524
  731PNCE   C3A 6585   6.151  15.533   4.647 -0.3764 -0.1900  0.2156
  731PNCE   C1B 6586   6.394  15.027   3.936 -0.0655  0.3361 -0.1991
  731PNCE   C2B 6587   6.417  15.199   4.274 -0.0640  0.1430  0.0741
  731PNCE   C3B 6588   6.635  15.558   4.509 -0.0133  0.0396 -0.2941
  731PNCE   D4B 6589   6.763  15.437   4.981 -0.2022 -0.2671  0.0747
  731PNCE   C5B 6590   6.728  15.010   5.246  0.4709  0.1102 -0.0034
  731PNCE   C6B 6591   6.646  14.935   5.639 -0.4401 -0.0374  0.1786
  732PNCE   AM1 6592  14.454   3.590   4.911  0.4458 -0.2342  0.2631
  732PNCE   AM2 6593  14.484   3.917   5.141 -0.1222 -0.0849  0.1433
  732PNCE   T1A 6594  14.594   3.268   5.227  0.0695 -0.0555  0.1908
  732PNCE   C2A 6595  14.656   3.021   5.636  0.2156  0.0771  0.1292
  732PNCE   C3A 6596  14.455   2.931   5.992 -0.0251  0.0013  0.1884
  732PNCE   C1B 6597  14.734   3.744   5.353 -0.1534  0.0213  0.0023
  732PNCE   C2B 6598  14.729   3.816   5.839  0.0432 -0.0281  0.0862
  732PNCE   C3B 6599  14.757   3.890   6.272 -0.0010  0.1501  0.1333
  732PNCE   D4B 6600  14.699   3.962   6.673 -0.3100  0.1277 -0.4000
  732PNCE   C5B 6601  14.572   3.649   6.917  0.0644  0.0149 -0.2229
  732PNCE   C6B 6602  14.177   3.530   7.205 -0.0631  0.0228  0.2320
  733PNCE   AM1 6603  10.582   7.818   5.078 -0.0175  0.1730  0.1112
  733PNCE   AM2 6604  10.321   7.690   4.955 -0.1066  0.3347  0.3530
  733PNCE   T1A 6605  10.398   7.600   5.435  0.1692 -0.1427 -0.0996
  733PNCE   C2A 6606  10.262   7.601   5.998 -0.0475  0.3408  0.1469
  733PNCE   C3A 6607  10.412   7.238   6.226  0.0295  0.1182  0.0486
  733PNCE   C1B 6608  10.064   7.331   5.239 -0.0159  0.2518  0.2348
  733PNCE   C2B 6609   9.989   7.299   5.648 -0.0554 -0.0099  0.1974
  733PNCE   C3B 6610   9.909   7.123   6.041  0.3005 -0.0926  0.0614
  733PNCE   D4B 6611   9.675   6.895   6.307  0.0184  0.0096  0.1854
  733PNCE   C5B 6612   9.827   6.382   6.465  0.1330 -0.2191 -0.3264
  733PNCE   C6B 6613  10.024   5.959   6.355 -0.2540 -0.0029 -0.1828
  734CHOL   ROH 6614   2.727  11.283   5.684 -0.3193  0.3126  0.1152
  734CHOL    R1 6615   2.626  11.343   5.941 -0.3091  0.0513  0.1834
  734CHOL    R2 6616   2.708  11.209   6.168 -0.0606  0.0330  0.0856
  734CHOL    R3 6617   2.762  11.460   6.258 -0.3462  0.0585  0.1968
  734CHOL    R4 6618   2.687  11.310   6.498 -0.1547 -0.1442  0.1348
  734CHOL    R5 6619   2.600  11.498   6.430 -0.3806 -0.2104  0.2284
  734CHOL    C1 6620   2.725  11.604   6.775 -0.4775 -0.2234  0.2679
  734CHOL    C2 6621   2.757  11.915   6.957  0.0337 -0.0002 -0.1508
  735CHOL   ROH 6622  14.647   2.069   6.123  0.0177 -0.1671  0.2558
  735CHOL    R1 6623  14.382   2.044   6.219 -0.0429  0.0039  0.1361
  735CHOL    R2 6624  14.160   2.082   6.058  0.0574 -0.1259 -0.0329
  735CHOL    R3 6625  14.093   1.835   6.148 -0.0509 -0.0112  0.2108
  735CHOL    R4 6626  13.868   1.915   5.978  0.1387 -0.2141 -0.1508
  735CHOL    R5 6627  13.857   1.847   6.184 -0.0955  0.0492 -0.0694
  735CHOL    C1 6628  13.635   1.586   6.016  0.0843 -0.1577  0.0093
  735CHOL    C2 6629  13.682   1.353   5.872 -0.0352  0.2036 -0.1957
  736XCA    COO 6630   4.961  14.989   3.839 -0.2887  0.1243  0.0735
  736XCA     C1 6631   4.737  14.955   4.273 -0.2421  0.0690 -0.3652
  736XCA     C2 6632   4.703  15.254   4.542  0.0718 -0.0045  0.0863
  736XCA     C3 6633   4.665  15.552   4.861 -0.3749 -0.1294  0.1137
  736XCA     C4 6634   4.932  15.482   5.231  0.2255  0.1022  0.4149
  736XCA     C5 6635   4.980  15.275   5.571 -0.1639  0.0067 -0.1794
  736XCA     C6 6636   5.164  15.128   5.930  0.1267 -0.1224  0.1025
  737PNCE   AM1 6637  13.067   4.741   5.563 -0.0434 -0.0412 -0.0321
  737PNCE   AM2 6638  12.834   4.544   5.409 -0.1929 -0.0550  0.2154
  737PNCE   T1A 6639  12.830   4.686   5.869 -0.2520 -0.5307  0.3574
  737PNCE   C2A 6640  12.769   4.560   6.260  0.1047  0.1180  0.3423
  737PNCE   C3A 6641  12.831   4.209   6.567  0.4129 -0.2155  0.2272
  737PNCE   C1B 6642  12.545   4.306   5.662 -0.0843  0.0279 -0.0620
  737PNCE   C2B 6643  12.600   4.050   6.054  0.0740 -0.2081 -0.1264
  737PNCE   C3B 6644  12.935   3.801   6.100 -0.0285  0.0548  0.2654
  737PNCE   D4B 6645  12.929   3.345   6.145 -0.0496 -0.3219 -0.0290
  737PNCE   C5B 6646  12.618   3.138   5.868 -0.0443 -0.0166  0.3948
  737PNCE   C6B 6647  12.376   3.397   5.495 -0.3728  0.0365  0.0885
  738PNCE   AM1 6648   4.033  11.773   5.334  0.0715 -0.1178  0.1006
  738PNCE   AM2 6649   3.738  11.721   5.408 -0.0733  0.1563  0.1121
  738PNCE   T1A 6650   4.093  12.028   5.606  0.1493  0.0130  0.2152
  738PNCE   C2A 6651   4.011  12.006   5.983 -0.3357 -0.0794 -0.1919
  738PNCE   C3A 6652   3.700  11.851   6.236  0.2642 -0.1952  0.2034
  738PNCE   C1B 6653   3.598  12.026   5.754 -0.0818 -0.2264  0.2465
  738PNCE   C2B 6654   3.239  12.143   6.008 -0.0966  0.0662 -0.1801
  738PNCE   C3B 6655   3.427  12.441   6.399 -0.1917 -0.1446 -0.0846
  738PNCE   D4B 6656   3.666  12.522   6.619  0.0739 -0.0045  0.3037
  738PNCE   C5B 6657   3.797  12.820   7.033  0.0341 -0.0024 -0.4206
  738PNCE   C6B 6658   3.953  12.645   7.345 -0.0257 -0.0499  0.2441
  739CHOL   ROH 6659  12.277   1.956   8.301  0.0227 -0.0699 -0.1019
  739CHOL    R1 6660  12.285   1.907   8.023  0.0074 -0.0724 -0.1023
  739CHOL    R2 6661  12.078   1.977   7.854  0.0430  0.0256 -0.1089
  739CHOL    R3 6662  12.275   2.107   7.718  0.1086 -0.0652 -0.1007
  739CHOL    R4 6663  12.083   2.026   7.511  0.1275 -0.0543 -0.1191
  739CHOL    R5 6664  12.297   1.984   7.514  0.1131 -0.1180 -0.0673
  739CHOL    C1 6665  12.271   2.177   7.185  0.2382 -0.1861 -0.1174
  739CHOL    C2 6666  12.411   2.468   6.951 -0.0670 -0.1422  0.0881
  740PNCE   AM1 6667   6.955   1.425   4.174  0.0150 -0.2664  0.1030
  740PNCE   AM2 6668   7.190   1.557   4.342  0.1622  0.0312  0.0923
  740PNCE   T1A 6669   6.833   1.031   4.227  0.0475 -0.0592 -0.2287
  740PNCE   C2A 6670   6.833   0.716   4.607  0.2776 -0.3088 -0.1452
  740PNCE   C3A 6671   6.723   0.559   4.994 -0.1430 -0.1386 -0.0817
  740PNCE   C1B 6672   7.130   1.599   4.772  0.1693 -0.0782 -0.0517
  740PNCE   C2B 6673   7.010   1.511   5.122 -0.0349 -0.1904  0.4086
  740PNCE   C3B 6674   6.805   1.635   5.465  0.0612 -0.1622  0.0115
  740PNCE   D4B 6675   6.997   1.424   5.859 -0.1198 -0.0964  0.1090
  740PNCE   C5B 6676   6.678   1.337   6.206 -0.2326  0.2255  0.2137
  740PNCE   C6B 6677   6.362   1.633   6.300 -0.1641  0.1161 -0.2503
  741PNCE   AM1 6678   0.149  12.788   5.068  0.0419 -0.3311 -0.1023
  741PNCE   AM2 6679   0.387  12.986   4.837 -0.0675 -0.2211  0.0446
  741PNCE   T1A 6680   0.058  12.396   5.295 -0.0079 -0.2417  0.0174
  741PNCE   C2A 6681  -0.119  12.335   5.732  0.0681 -0.1613 -0.1727
  741PNCE   C3A 6682  -0.259  12.491   6.123  0.1348  0.0980 -0.3462
  741PNCE   C1B 6683   0.671  13.030   5.142  0.1427  0.0317  0.2052
  741PNCE   C2B 6684   0.572  13.077   5.662 -0.0299 -0.4141  0.0138
  741PNCE   C3B 6685   0.472  13.210   6.066  0.2552  0.1477  0.1303
  741PNCE   D4B 6686   0.786  13.292   6.309  0.1465  0.0245  0.0663
  741PNCE   C5B 6687   0.782  13.212   6.759  0.0142 -0.1096  0.4487
  741PNCE   C6B 6688   0.897  13.214   7.156 -0.1225  0.4246 -0.1664
  742CHOL   ROH 6689   3.561  15.066   7.155 -0.0256  0.3124  0.0075
  742CHOL    R1 6690   3.290  15.121   7.213 -0.0712  0.2498 -0.1324
  742CHOL    R2 6691   3.116  15.229   7.028 -0.0459  0.0717 -0.2731
  742CHOL    R3 6692   2.965  15.012   7.090  0.0204  0.0503 -0.1947
  742CHOL    R4 6693   2.772  15.231   7.064 -0.0165  0.0311  0.0137
  742CHOL    R5 6694   2.795  15.097   7.235  0.1334  0.0001 -0.0377
  742CHOL    C1 6695   2.431  15.027   7.144  0.0629 -0.0127  0.2543
  742CHOL    C2 6696   2.129  14.779   7.332 -0.0474  0.0716 -0.0033
  743CHOL   ROH 6697   9.737  13.070   5.411 -0.0401  0.0644 -0.3225
  743CHOL    R1 6698   9.765  13.351   5.392  0.1420  0.0592 -0.1765
  743CHOL    R2 6699   9.634  13.525   5.562 -0.0192  0.0654 -0.3000
  743CHOL    R3 6700   9.885  13.620   5.606 -0.0256 -0.0885  0.1094
  743CHOL    R4 6701   9.709  13.809   5.745 -0.1856  0.2461 -0.5084
  743CHOL    R5 6702   9.861  13.858   5.597  0.1797 -0.0748 -0.2603
  743CHOL    C1 6703   9.989  14.063   5.893 -0.2885  0.2069 -0.2454
  743CHOL    C2 6704  10.177  14.064   6.308 -0.0864 -0.1463  0.2945
  744XCA    COO 6705   4.460  12.377   8.848  0.0266  0.0540 -0.2419
  744XCA     C1 6706   4.281  12.037   8.640  0.0837  0.2514  0.0849
  744XCA     C2 6707   4.059  11.895   8.268 -0.1477  0.0582 -0.1873
  744XCA     C3 6708   3.871  11.956   7.836 -0.1516 -0.3026 -0.1677
  744XCA     C4 6709   3.613  11.852   7.498  0.2393 -0.0166  0.1002
  744XCA     C5 6710   3.727  11.796   7.086  0.1227 -0.2997  0.0817
  744XCA     C6 6711   3.794  11.563   6.748  0.0295 -0.1635  0.2372
  745PNCE   AM1 6712   5.167  13.498   4.124 -0.1083 -0.0193  0.0420
  745PNCE   AM2 6713   5.462  13.474   4.297 -0.0165 -0.3509 -0.2296
  745PNCE   T1A 6714   4.978  13.810   4.299  0.1752  0.1933  0.0878
  745PNCE   C2A 6715   5.024  14.012   4.669 -0.2856 -0.2434 -0.0137
  745PNCE   C3A 6716   5.036  13.670   4.961  0.3563  0.1365  0.1990
  745PNCE   C1B 6717   5.540  13.546   4.734 -0.1260 -0.0944  0.1284
  745PNCE   C2B 6718   5.500  13.575   5.180  0.1269 -0.0104 -0.0444
  745PNCE   C3B 6719   5.571  13.448   5.555  0.2554 -0.0473 -0.3863
  745PNCE   D4B 6720   5.735  13.319   5.795  0.2703 -0.1236 -0.3456
  745PNCE   C5B 6721   5.737  12.925   5.749 -0.0678 -0.1310  0.1456
  745PNCE   C6B 6722   5.939  12.616   5.578 -0.1974  0.2772 -0.0256
  746PNCE   AM1 6723  15.678   7.537   6.085 -0.2413 -0.1962  0.1362
  746PNCE   AM2 6724  15.850   7.194   5.910  0.2150 -0.3633  0.1050
  746PNCE   T1A 6725  15.662   7.360   6.444  0.0045  0.1530 -0.0691
  746PNCE   C2A 6726  15.707   7.065   6.727 -0.0701  0.2443  0.2447
  746PNCE   C3A 6727  15.618   6.587   6.826 -0.3663  0.1163 -0.4034
  746PNCE   C1B 6728  16.098   6.907   6.221  0.0496 -0.3095 -0.1423
  746PNCE   C2B 6729  16.343   6.926   6.606 -0.0302 -0.1253  0.2339
  746PNCE   C3B 6730  16.568   7.151   7.000  0.1176 -0.2094  0.0872
  746PNCE   D4B 6731  16.322   7.051   7.435 -0.2461  0.0862 -0.0286
  746PNCE   C5B 6732  16.589   6.826   7.729  0.1913 -0.2733 -0.0122
  746PNCE   C6B 6733  16.845   6.834   8.059  0.2647 -0.2179  0.1829
  747XCA    COO 6734  11.368  13.346   5.693 -0.2509  0.0510 -0.1929
  747XCA     C1 6735  11.185  13.749   5.821  0.0013  0.1394  0.3573
  747XCA     C2 6736  10.879  13.935   5.919  0.3462  0.0272  0.0480
  747XCA     C3 6737  10.661  14.170   6.212 -0.2857  0.3075  0.0185
  747XCA     C4 6738  10.327  14.533   6.187 -0.1972 -0.1135 -0.2562
  747XCA     C5 6739  10.278  14.922   6.353 -0.1835  0.2044 -0.0064
  747XCA     C6 6740  10.118  15.134   6.670 -0.1108 -0.0722 -0.0982
  748CHOL   ROH 6741  10.929   1.457   8.191 -0.2715  0.3061  0.0803
  748CHOL    R1 6742  10.987   1.485   7.915 -0.1081  0.0920  0.0901
  748CHOL    R2 6743  10.833   1.368   7.718 -0.1337  0.1356  0.0823
  748CHOL    R3 6744  10.820   1.622   7.622  0.1703  0.0992 -0.0686
  748CHOL    R4 6745  10.759   1.451   7.391 -0.0997  0.0349  0.0485
  748CHOL    R5 6746  10.912   1.607   7.401  0.1032 -0.1519 -0.0815
  748CHOL    C1 6747  10.703   1.738   7.111  0.2054 -0.0579 -0.1128
  748CHOL    C2 6748  10.474   1.654   6.827  0.0238 -0.2992 -0.0837
  749PNCE   AM1 6749   7.209   9.457   4.938 -0.0969  0.0254 -0.0330
  749PNCE   AM2 6750   7.425   9.304   4.994  0.0559  0.0805 -0.0332
  749PNCE   T1A 6751   6.892   9.591   5.302 -0.1324  0.1057 -0.3319
  749PNCE   C2A 6752   6.797   9.830   5.643  0.2224  0.2022  0.1144
  749PNCE   C3A 6753   6.767  10.076   5.936  0.0336  0.0894  0.2243
  749PNCE   C1B 6754   7.407   9.493   5.463  0.2748 -0.0990  0.1002
  749PNCE   C2B 6755   7.269   9.652   5.825 -0.0104  0.0908  0.1463
  749PNCE   C3B 6756   7.094   9.504   6.220 -0.2870  0.1056  0.2010
  749PNCE   D4B 6757   7.061   9.158   6.538  0.2301 -0.0062 -0.0540
  749PNCE   C5B 6758   6.951   8.787   6.489 -0.1298  0.1929 -0.1190
  749PNCE   C6B 6759   6.925   8.423   6.190  0.1747  0.1484  0.2624
  750XCA    COO 6760  10.472   7.093   5.164 -0.0166 -0.1839 -0.0819
  750XCA     C1 6761  10.762   7.317   5.317 -0.0278  0.0311  0.2711
  750XCA     C2 6762  11.183   7.345   5.524  0.0692  0.0699  0.2924
  750XCA     C3 6763  11.298   7.380   5.928 -0.3952 -0.1633 -0.0539
  750XCA     C4 6764  10.982   7.332   6.200 -0.0967  0.0475 -0.0865
  750XCA     C5 6765  10.804   7.194   6.644 -0.1535 -0.0169  0.2032
  750XCA     C6 6766  10.441   7.352   6.826  0.0549 -0.2417 -0.1308
  751XCA    COO 6767   2.250  14.426   4.719 -0.1157  0.0660  0.1399
  751XCA     C1 6768   2.544  14.625   4.958 -0.2059 -0.2571 -0.4524
  751XCA     C2 6769   2.549  14.757   5.363  0.2380 -0.0082 -0.1153
  751XCA     C3 6770   2.239  14.729   5.754 -0.2318  0.0687  0.0582
  751XCA     C4 6771   1.976  14.657   6.099 -0.0201  0.0236 -0.2389
  751XCA     C5 6772   2.151  14.622   6.562 -0.1328 -0.1216  0.2677
  751XCA     C6 6773   2.415  14.285   6.713 -0.5774  0.1069  0.0839
  752PNCE   AM1 6774  11.280   0.806   5.135  0.0991 -0.1226 -0.1520
  752PNCE   AM2 6775  11.270   1.084   5.065  0.0294 -0.1160  0.1639
  752PNCE   T1A 6776  11.353   0.728   5.525 -0.0261 -0.1705 -0.1421
  752PNCE   C2A 6777  11.246   0.691   5.899 -0.2281 -0.2397 -0.2523
  752PNCE   C3A 6778  10.958   0.444   6.184  0.0048 -0.0627  0.1546
  752PNCE   C1B 6779  11.023   1.203   5.475 -0.2991  0.1170 -0.0146
  752PNCE   C2B 6780  11.059   1.287   5.894 -0.3028  0.1069 -0.0371
  752PNCE   C3B 6781  11.328   1.319   6.283  0.0203 -0.1518 -0.2657
  752PNCE   D4B 6782  11.196   1.381   6.673 -0.2245 -0.1088  0.0737
  752PNCE   C5B 6783  10.912   1.708   6.614 -0.1100  0.0943  0.2354
  752PNCE   C6B 6784  10.505   1.852   6.376 -0.2286  0.0933 -0.0459
  753PNCE   AM1 6785   3.647   0.347   4.289 -0.0617 -0.0897  0.1055
  753PNCE   AM2 6786   3.845   0.117   4.157  0.1117  0.1378 -0.6252
  753PNCE   T1A 6787   3.596   0.507   4.654 -0.0369 -0.1964  0.1863
  753PNCE   C2A 6788   3.409   0.312   5.020 -0.0588 -0.2120 -0.0429
  753PNCE   C3A 6789   3.288   0.282   5.444  0.3875  0.0308  0.1344
  753PNCE   C1B 6790   4.059   0.010   4.396 -0.1517 -0.1859  0.2580
  753PNCE   C2B 6791   4.116  -0.345   4.608  0.0635 -0.2525  0.1595
  753PNCE   C3B 6792   4.210  -0.744   4.520  0.4496 -0.0702 -0.3264
  753PNCE   D4B 6793   4.260  -1.117   4.493 -0.1461  0.1271 -0.3705
  753PNCE   C5B 6794   3.970  -1.389   4.475 -0.2884 -0.2486 -0.1869
  753PNCE   C6B 6795   3.671  -1.751   4.473  0.0265  0.1257 -0.1570
  754XCA    COO 6796   5.922   0.549   3.628 -0.0671 -0.0940 -0.1163
  754XCA     C1 6797   5.944   0.566   3.973 -0.3952  0.0213 -0.1991
  754XCA     C2 6798   5.950   0.365   4.388 -0.2411 -0.0688  0.1937
  754XCA     C3 6799   6.181   0.196   4.691 -0.0731 -0.1063 -0.0418
  754XCA     C4 6800   6.496   0.033   5.000 -0.0759 -0.1217 -0.0590
  754XCA     C5 6801   6.261   0.053   5.382  0.1860  0.1847 -0.1009
  754XCA     C6 6802   6.201  -0.124   5.827 -0.2398 -0.0231 -0.1960
  755PNCE   AM1 6803   7.826  13.500   4.508  0.3144 -0.0681  0.1266
  755PNCE   AM2 6804   8.165  13.475   4.496  0.0508  0.2715  0.3910
  755PNCE   T1A 6805   7.631  13.813   4.759  0.1411 -0.0284 -0.2584
  755PNCE   C2A 6806   7.359  14.214   4.962  0.0087 -0.3215  0.0900
  755PNCE   C3A 6807   7.091  14.595   5.175 -0.3074  0.1177 -0.2803
  755PNCE   C1B 6808   8.351  13.437   4.874 -0.1235  0.1980 -0.3461
  755PNCE   C2B 6809   8.445  13.506   5.189  0.1746 -0.2222 -0.1443
  755PNCE   C3B 6810   8.185  13.412   5.597 -0.4708  0.2141 -0.2870
  755PNCE   D4B 6811   8.324  13.127   5.653  0.1583 -0.1440  0.3306
  755PNCE   C5B 6812   8.729  12.846   5.844  0.0721 -0.1485 -0.1804
  755PNCE   C6B 6813   9.011  12.497   5.966 -0.1709 -0.3622 -0.0484
  756CHOL   ROH 6814   9.548  11.711   5.374  0.1064 -0.1645  0.0009
  756CHOL    R1 6815   9.538  11.648   5.649  0.0428 -0.1675 -0.0019
  756CHOL    R2 6816   9.642  11.813   5.844  0.1337 -0.2403  0.0121
  756CHOL    R3 6817   9.392  11.793   5.949  0.1111 -0.0830 -0.0092
  756CHOL    R4 6818   9.572  11.774   6.180  0.0799 -0.1747  0.0086
  756CHOL    R5 6819   9.415  11.633   6.126 -0.0006 -0.0848  0.0045
  756CHOL    C1 6820   9.297  11.733   6.475  0.0275  0.0113 -0.0134
  756CHOL    C2 6821   9.193  11.857   6.824  0.1631 -0.1644  0.1329
  757CHOL   ROH 6822   0.137  13.585   4.952  0.0595  0.0057 -0.0942
  757CHOL    R1 6823   0.150  13.795   5.141  0.0365 -0.0269 -0.0567
  757CHOL    R2 6824   0.064  13.767   5.401  0.0302 -0.0798 -0.0669
  757CHOL    R3 6825   0.315  13.853   5.460  0.0206 -0.0687 -0.0400
  757CHOL    R4 6826   0.154  13.930   5.693 -0.0560  0.1100 -0.1440
  757CHOL    R5 6827   0.281  14.061   5.574  0.0012  0.0162 -0.1929
  757CHOL    C1 6828   0.442  14.105   5.918 -0.1152  0.2308 -0.1637
  757CHOL    C2 6829   0.522  14.511   6.027 -0.0032  0.3056  0.0952
  758CHOL   ROH 6830   0.143  12.737   8.867  0.2608  0.0102 -0.1443
  758CHOL    R1 6831   0.069  12.530   8.689  0.0819  0.0246 -0.0889
  758CHOL    R2 6832   0.084  12.558   8.414 -0.0500 -0.0050 -0.1053
  758CHOL    R3 6833   0.232  12.330   8.432 -0.1311 -0.0615 -0.1569
  758CHOL    R4 6834   0.161  12.351   8.148  0.0725  0.1401 -0.1835
  758CHOL    R5 6835   0.127  12.179   8.278 -0.0661  0.0683 -0.3233
  758CHOL    C1 6836   0.344  12.018   8.009  0.0678  0.1716 -0.2776
  758CHOL    C2 6837   0.326  11.951   7.682 -0.1146  0.0015  0.2781
  759CHOL   ROH 6838   3.895  10.384   9.034  0.2188  0.0700 -0.1261
  759CHOL    R1 6839   3.863  10.510   8.782  0.1651 -0.0319 -0.1709
  759CHOL    R2 6840   3.758  10.378   8.562 -0.1049 -0.0527 -0.0347
  759CHOL    R3 6841   3.587  10.589   8.559  0.0852  0.1049 -0.0249
  759CHOL    R4 6842   3.604  10.503   8.279 -0.3283 -0.1803  0.0284
  759CHOL    R5 6843   3.638  10.704   8.355 -0.0479 -0.1350 -0.1996
  759CHOL    C1 6844   3.353  10.774   8.111 -0.2799 -0.1065  0.0743
  759CHOL    C2 6845   3.368  11.157   7.947  0.1383  0.3406  0.0278
  760CHOL   ROH 6846   2.031   3.282   8.275  0.3918  0.0475 -0.0494
  760CHOL    R1 6847   2.115   3.494   8.107  0.3934  0.0547 -0.0406
  760CHOL    R2 6848   2.168   3.459   7.838  0.3795  0.0692 -0.0491
  760CHOL    R3 6849   1.990   3.662   7.809  0.3848  0.0767 -0.0230
  760CHOL    R4 6850   2.146   3.664   7.561  0.3703  0.1021 -0.0235
  760CHOL    R5 6851   2.112   3.833   7.695  0.3798  0.0857 -0.0079
  760CHOL    C1 6852   1.966   3.974   7.373  0.3699  0.1283  0.0159
  760CHOL    C2 6853   1.869   4.244   7.092  0.0014  0.2151  0.2774
  761CHOL   ROH 6854   3.018  10.318   6.139  0.0635 -0.1004  0.0211
  761CHOL    R1 6855   2.908  10.268   6.395  0.0310 -0.0631  0.0148
  761CHOL    R2 6856   3.063  10.262   6.624  0.0161 -0.1177  0.0249
  761CHOL    R3 6857   2.884  10.447   6.712  0.0753 -0.0550  0.0133
  761CHOL    R4 6858   2.986  10.320   6.956 -0.0921 -0.1904  0.0128
  761CHOL    R5 6859   2.776  10.342   6.898 -0.0569 -0.0627 -0.0669
  761CHOL    C1 6860   2.773  10.528   7.231 -0.0995 -0.1738 -0.0051
  761CHOL    C2 6861   2.588  10.656   7.524 -0.2003  0.5598  0.0137
  762PNCE   AM1 6862   3.890   2.716   4.238  0.0751 -0.3008 -0.3256
  762PNCE   AM2 6863   4.187   2.674   4.144 -0.0429  0.0229 -0.2937
  762PNCE   T1A 6864   3.940   2.515   4.655 -0.0718 -0.0712 -0.1015
  762PNCE   C2A 6865   3.779   2.309   5.035 -0.0001 -0.0627  0.4531
  762PNCE   C3A 6866   3.941   2.059   5.390  0.0972  0.4031  0.0093
  762PNCE   C1B 6867   4.473   2.440   4.334  0.1336 -0.1419  0.0262
  762PNCE   C2B 6868   4.718   2.355   4.777 -0.0434 -0.2321  0.2210
  762PNCE   C3B 6869   4.772   2.300   5.139  0.5171  0.0700 -0.2098
  762PNCE   D4B 6870   4.900   2.253   5.558 -0.2523 -0.0440 -0.1076
  762PNCE   C5B 6871   5.128   1.923   5.774  0.1536 -0.5184 -0.0102
  762PNCE   C6B 6872   5.433   1.553   5.631 -0.0483  0.2913 -0.1268
  763PNCE   AM1 6873   7.000   3.924   4.733  0.0420  0.0045  0.1142
  763PNCE   AM2 6874   6.970   3.750   4.440 -0.1161 -0.2671 -0.3362
  763PNCE   T1A 6875   6.860   3.940   4.998  0.0511  0.1269 -0.1883
  763PNCE   C2A 6876   6.984   3.889   5.423 -0.0020  0.2095 -0.1551
  763PNCE   C3A 6877   7.271   3.810   5.824 -0.2707  0.4749  0.1649
  763PNCE   C1B 6878   7.155   3.461   4.780  0.3116 -0.1874 -0.4593
  763PNCE   C2B 6879   7.286   3.268   5.128  0.0752  0.0306 -0.0950
  763PNCE   C3B 6880   7.539   3.114   5.382 -0.0576 -0.2655  0.1592
  763PNCE   D4B 6881   7.478   2.900   5.773  0.1434  0.0643 -0.1117
  763PNCE   C5B 6882   7.309   2.485   5.958 -0.0149 -0.0997  0.4150
  763PNCE   C6B 6883   7.369   2.127   6.294  0.0733 -0.1201  0.0467
  764CHOL   ROH 6884  14.157   6.766   5.515  0.0065 -0.1965  0.0580
  764CHOL    R1 6885  14.070   6.746   5.784  0.1056 -0.0069  0.1070
  764CHOL    R2 6886  14.099   6.952   5.966 -0.0818  0.2307 -0.1204
  764CHOL    R3 6887  13.831   6.917   5.998 -0.0348 -0.0481 -0.0168
  764CHOL    R4 6888  13.929   6.982   6.266 -0.0047  0.0522 -0.0582
  764CHOL    R5 6889  13.810   6.809   6.211  0.1554 -0.0705 -0.0108
  764CHOL    C1 6890  13.580   6.967   6.471  0.0844 -0.3135  0.0754
  764CHOL    C2 6891  13.774   7.078   6.748  0.2203 -0.1159 -0.0268
  765PNCE   AM1 6892   3.078   7.361   5.938  0.1567  0.1852  0.1681
  765PNCE   AM2 6893   3.370   7.457   5.840  0.0071 -0.3143  0.2220
  765PNCE   T1A 6894   3.165   7.282   6.283 -0.0589 -0.4466  0.3557
  765PNCE   C2A 6895   3.402   7.387   6.659  0.1955 -0.3130  0.3800
  765PNCE   C3A 6896   3.509   7.099   6.906 -0.2513 -0.3263 -0.0140
  765PNCE   C1B 6897   3.623   7.666   6.236 -0.1018  0.0636  0.1014
  765PNCE   C2B 6898   4.079   7.640   6.409  0.2202 -0.0373 -0.1673
  765PNCE   C3B 6899   4.201   7.780   6.787  0.0840  0.0815 -0.2059
  765PNCE   D4B 6900   4.187   7.840   7.251  0.0429 -0.2212 -0.0343
  765PNCE   C5B 6901   3.789   8.055   7.297 -0.0984 -0.2231 -0.2554
  765PNCE   C6B 6902   3.490   8.231   7.021  0.0823  0.0030 -0.3513
  766PNCE   AM1 6903   2.659   2.199   3.968 -0.2959  0.0106 -0.1115
  766PNCE   AM2 6904   2.986   2.249   3.915 -0.0575 -0.2356 -0.0772
  766PNCE   T1A 6905   2.431   2.464   4.246 -0.2529 -0.0869  0.1106
  766PNCE   C2A 6906   2.441   2.712   4.619  0.0338  0.0423 -0.2354
  766PNCE   C3A 6907   2.509   2.678   5.070  0.1418 -0.1270 -0.1570
  766PNCE   C1B 6908   2.959   2.436   4.365  0.1219  0.1647 -0.0494
  766PNCE   C2B 6909   2.982   2.757   4.736  0.2175  0.1232 -0.0098
  766PNCE   C3B 6910   3.070   3.040   5.105 -0.1211  0.0382 -0.0611
  766PNCE   D4B 6911   3.090   3.391   5.341 -0.1071  0.1165 -0.1489
  766PNCE   C5B 6912   3.440   3.747   5.074  0.2535  0.3122 -0.2238
  766PNCE   C6B 6913   3.827   3.885   4.867 -0.0720  0.1496  0.4031
  767CHOL   ROH 6914   6.063  13.178   5.497  0.0662  0.4395  0.2886
  767CHOL    R1 6915   6.218  13.054   5.699  0.0815  0.3033  0.1957
  767CHOL    R2 6916   6.165  13.086   5.968  0.1722  0.2186  0.2299
  767CHOL    R3 6917   6.162  12.814   5.966  0.0685  0.2213  0.1173
  767CHOL    R4 6918   6.226  12.884   6.243  0.1686  0.0720  0.1232
  767CHOL    R5 6919   6.339  12.750   6.114  0.0797  0.0858  0.0401
  767CHOL    C1 6920   6.257  12.512   6.400  0.0691 -0.0112 -0.0445
  767CHOL    C2 6921   6.220  12.289   6.714  0.0419  0.1070  0.0610
  768XCA    COO 6922  11.387   6.197   4.610  0.1474 -0.0749  0.0864
  768XCA     C1 6923  11.522   5.799   4.970 -0.2103 -0.2765  0.0868
  768XCA     C2 6924  11.196   5.592   5.225  0.0636  0.1480 -0.1762
  768XCA     C3 6925  11.074   5.323   5.550  0.4132 -0.1907  0.1178
  768XCA     C4 6926  10.845   5.106   5.940 -0.1622 -0.1625 -0.1374
  768XCA     C5 6927  10.607   4.846   6.030  0.2050 -0.1970 -0.1396
  768XCA     C6 6928  10.478   4.452   5.984 -0.2587 -0.3449  0.4194
  769XCA    COO 6929   5.846   0.334   6.948  0.2025  0.0499  0.3772
  769XCA     C1 6930   5.687   0.498   6.643  0.3082  0.1828 -0.2369
  769XCA     C2 6931   5.393   0.654   6.418 -0.3456 -0.0150 -0.3211
  769XCA     C3 6932   5.175   0.680   6.058  0.1837 -0.0112 -0.3103
  769XCA     C4 6933   4.753   0.800   5.882  0.0616 -0.0044 -0.4192
  769XCA     C5 6934   4.657   1.118   5.628  0.0653  0.3275 -0.2238
  769XCA     C6 6935   4.548   1.318   5.341  0.0408 -0.3115 -0.1956
  770PNCE   AM1 6936   2.810   7.217   5.472 -0.0058  0.3690 -0.1949
  770PNCE   AM2 6937   2.536   7.307   5.639 -0.2150  0.3115  0.0469
  770PNCE   T1A 6938   2.868   6.970   5.793  0.0351 -0.2902 -0.1455
  770PNCE   C2A 6939   3.039   6.752   6.155  0.2280 -0.1309 -0.0876
  770PNCE   C3A 6940   3.364   6.872   6.473  0.4192 -0.3255 -0.2262
  770PNCE   C1B 6941   2.581   7.516   5.979 -0.1450 -0.1547 -0.2684
  770PNCE   C2B 6942   2.626   7.604   6.408  0.0919 -0.1042  0.5786
  770PNCE   C3B 6943   2.695   7.612   6.831 -0.0572  0.0479  0.3898
  770PNCE   D4B 6944   2.813   7.663   7.227  0.4113  0.2303 -0.3779
  770PNCE   C5B 6945   2.700   7.231   7.256 -0.0657 -0.3451  0.1988
  770PNCE   C6B 6946   2.824   6.715   7.192 -0.1182  0.2797 -0.0171
  771PNCE   AM1 6947   9.668   4.069   4.394 -0.1951 -0.0305 -0.0438
  771PNCE   AM2 6948   9.564   4.146   4.032 -0.0910 -0.0999  0.0170
  771PNCE   T1A 6949   9.821   3.679   4.615  0.1595 -0.3263  0.2540
  771PNCE   C2A 6950   9.973   3.401   4.871 -0.0895  0.2349 -0.0033
  771PNCE   C3A 6951   9.966   3.131   5.261 -0.2136 -0.0024 -0.0868
  771PNCE   C1B 6952   9.259   4.289   4.364  0.0214  0.1166 -0.1826
  771PNCE   C2B 6953   9.001   4.251   4.765 -0.2794  0.1505 -0.1469
  771PNCE   C3B 6954   8.763   3.999   4.896  0.1425  0.0171  0.1858
  771PNCE   D4B 6955   8.380   4.015   5.111 -0.3688  0.1339  0.1471
  771PNCE   C5B 6956   8.320   3.961   5.527 -0.0468 -0.1049  0.1878
  771PNCE   C6B 6957   8.620   4.168   5.841  0.0565  0.0403 -0.0726
  772CHOL   ROH 6958  12.122  13.524   6.844  0.0916 -0.1351  0.0555
  772CHOL    R1 6959  11.932  13.516   7.054  0.0349 -0.1264  0.0044
  772CHOL    R2 6960  11.787  13.739   7.131  0.1357 -0.0829  0.0646
  772CHOL    R3 6961  11.574  13.574   7.089  0.0554  0.0492 -0.0599
  772CHOL    R4 6962  11.473  13.781   7.270  0.2131 -0.1428  0.2614
  772CHOL    R5 6963  11.463  13.566   7.301  0.1472 -0.1849 -0.0161
  772CHOL    C1 6964  11.092  13.652   7.312  0.1828 -0.0536  0.2592
  772CHOL    C2 6965  10.739  13.712   7.162 -0.0920 -0.0183 -0.1141
  773PNCE   AM1 6966   5.231   4.143   4.857 -0.0947 -0.1141  0.4605
  773PNCE   AM2 6967   4.970   4.299   4.893 -0.1743  0.0551 -0.1377
  773PNCE   T1A 6968   5.225   3.745   5.025 -0.2500  0.0559 -0.0324
  773PNCE   C2A 6969   5.020   3.381   5.144 -0.0345  0.0756 -0.2528
  773PNCE   C3A 6970   5.012   3.238   5.551  0.3899 -0.2208 -0.1811
  773PNCE   C1B 6971   5.012   4.101   5.320  0.2270  0.0768  0.3664
  773PNCE   C2B 6972   4.792   4.099   5.809  0.0093 -0.1617 -0.3547
  773PNCE   C3B 6973   4.689   3.929   6.267  0.0330 -0.2434 -0.2025
  773PNCE   D4B 6974   4.633   3.571   6.562  0.1171  0.2350  0.2084
  773PNCE   C5B 6975   4.703   3.171   6.544  0.0397  0.2053  0.1309
  773PNCE   C6B 6976   4.584   2.771   6.759  0.2447  0.1665  0.2597
  774CHOL   ROH 6977   8.292  12.277   7.994  0.0543  0.0178  0.0202
  774CHOL    R1 6978   8.184  12.301   7.733  0.1109 -0.0512 -0.0095
  774CHOL    R2 6979   8.297  12.463   7.540  0.0835 -0.0112  0.0119
  774CHOL    R3 6980   8.296  12.234   7.394  0.2307 -0.0202  0.0225
  774CHOL    R4 6981   8.199  12.440   7.209  0.1013 -0.0833  0.0112
  774CHOL    R5 6982   8.101  12.252   7.257  0.2180 -0.1469  0.0193
  774CHOL    C1 6983   8.141  12.211   6.880  0.2499 -0.1336  0.0207
  774CHOL    C2 6984   8.426  12.190   6.537  0.0026 -0.0630 -0.1791
  775CHOL   ROH 6985  14.467  14.049   8.455 -0.1447 -0.3079  0.0584
  775CHOL    R1 6986  14.245  14.145   8.308 -0.0344 -0.1330  0.0055
  775CHOL    R2 6987  14.265  14.357   8.131  0.2079 -0.2399 -0.0957
  775CHOL    R3 6988  14.157  14.179   7.956  0.0136 -0.2050 -0.0146
  775CHOL    R4 6989  14.113  14.442   7.833  0.0696 -0.1909 -0.0128
  775CHOL    R5 6990  13.961  14.290   7.873  0.0156 -0.1141  0.0935
  775CHOL    C1 6991  13.923  14.325   7.495 -0.1935 -0.1296  0.1114
  775CHOL    C2 6992  13.843  14.342   7.076  0.2079 -0.1677 -0.1945
  776CHOL   ROH 6993  13.791   6.287   8.550 -0.0054  0.0360 -0.0111
  776CHOL    R1 6994  13.935   6.278   8.307 -0.0947 -0.1373 -0.0602
  776CHOL    R2 6995  13.814   6.225   8.064 -0.2360 -0.0253 -0.0195
  776CHOL    R3 6996  13.933   6.459   7.991 -0.0077 -0.1544 -0.0698
  776CHOL    R4 6997  13.877   6.322   7.738 -0.1836 -0.1285 -0.0400
  776CHOL    R5 6998  14.070   6.400   7.804 -0.0948 -0.3160 -0.0813
  776CHOL    C1 6999  14.025   6.597   7.480  0.0611 -0.3097 -0.0989
  776CHOL    C2 7000  14.108   6.700   7.137  0.1586 -0.0822  0.4205
  777CHOL   ROH 7001   4.768  15.214   6.953  0.0584 -0.0064 -0.0925
  777CHOL    R1 7002   4.692  15.133   6.693  0.1150  0.1036 -0.1442
  777CHOL    R2 7003   4.497  15.262   6.547  0.0142  0.0532 -0.0591
  777CHOL    R3 7004   4.693  15.280   6.360  0.0023  0.3196 -0.0503
  777CHOL    R4 7005   4.442  15.297   6.208 -0.0173 -0.0976 -0.0696
  777CHOL    R5 7006   4.606  15.157   6.172  0.2023  0.1476 -0.0317
  777CHOL    C1 7007   4.595  15.333   5.834 -0.0468  0.0645 -0.0674
  777CHOL    C2 7008   4.390  15.462   5.494 -0.0657 -0.0492 -0.0767
  778PNCE   AM1 7009   5.935   9.035   4.642  0.2508  0.0542 -0.3302
  778PNCE   AM2 7010   6.192   9.234   4.736 -0.2559  0.2041 -0.1673
  778PNCE   T1A 7011   5.933   8.881   5.081  0.0270 -0.1373  0.1000
  778PNCE   C2A 7012   6.039   8.496   5.216 -0.0030 -0.0690  0.3360
  778PNCE   C3A 7013   6.235   8.042   5.350 -0.3016 -0.0266 -0.1815
  778PNCE   C1B 7014   6.200   9.331   5.150 -0.1951  0.3183  0.2748
  778PNCE   C2B 7015   6.404   9.370   5.487  0.0934  0.2023 -0.0574
  778PNCE   C3B 7016   6.404   9.027   5.737  0.0722 -0.0059  0.1467
  778PNCE   D4B 7017   6.630   8.816   6.055  0.1003  0.0427 -0.0023
  778PNCE   C5B 7018   7.146   8.986   6.057 -0.0084  0.0911  0.0749
  778PNCE   C6B 7019   7.495   9.178   5.849  0.1780 -0.2162  0.0753
  779XCA    COO 7020   0.223   2.378   4.392 -0.1412  0.1071 -0.0297
  779XCA     C1 7021   0.107   2.453   4.693 -0.2526 -0.0319  0.1813
  779XCA     C2 7022   0.017   2.246   5.103 -0.2927  0.1944  0.1113
  779XCA     C3 7023  -0.131   2.206   5.462 -0.0714 -0.1931 -0.0161
  779XCA     C4 7024  -0.412   2.253   5.673 -0.1935  0.0674 -0.0053
  779XCA     C5 7025  -0.489   2.466   6.063  0.4195  0.1848 -0.0611
  779XCA     C6 7026  -0.622   2.561   6.459 -0.1579  0.0534  0.4436
  780PNCE   AM1 7027  12.820   0.101   4.631 -0.1572 -0.1586  0.0021
  780PNCE   AM2 7028  12.640   0.437   4.626  0.0618  0.0025 -0.1501
  780PNCE   T1A 7029  13.250   0.360   4.632  0.0392 -0.4098 -0.2029
  780PNCE   C2A 7030  13.595   0.568   4.819  0.2932 -0.0020  0.3289
  780PNCE   C3A 7031  13.994   0.707   4.959  0.3457  0.2906  0.0159
  780PNCE   C1B 7032  12.909   0.397   5.049  0.1055  0.1057  0.0796
  780PNCE   C2B 7033  12.965   0.378   5.432  0.3387  0.1222  0.1446
  780PNCE   C3B 7034  12.874   0.407   5.767 -0.0046 -0.1145  0.2071
  780PNCE   D4B 7035  13.125   0.511   6.069 -0.1074 -0.1802  0.1653
  780PNCE   C5B 7036  13.021   0.844   6.397  0.1385  0.0014  0.0994
  780PNCE   C6B 7037  12.734   0.899   6.721  0.3946 -0.2306 -0.1206
  781PNCE   AM1 7038   1.886   8.154   5.724  0.1816  0.1103  0.1323
  781PNCE   AM2 7039   2.212   8.128   5.897  0.2192 -0.1479  0.1974
  781PNCE   T1A 7040   1.706   7.711   5.978 -0.0286 -0.0019 -0.1719
  781PNCE   C2A 7041   1.761   7.517   6.329 -0.2107  0.1388  0.1292
  781PNCE   C3A 7042   1.757   7.155   6.597  0.1709 -0.0658  0.2222
  781PNCE   C1B 7043   2.162   7.792   6.220 -0.1530  0.0944 -0.0792
  781PNCE   C2B 7044   2.057   7.774   6.630  0.1608 -0.0300 -0.1795
  781PNCE   C3B 7045   1.771   7.489   6.890  0.0940 -0.1259 -0.2390
  781PNCE   D4B 7046   1.633   7.211   7.254 -0.0688  0.1836 -0.2293
  781PNCE   C5B 7047   1.272   7.034   6.917  0.0190 -0.4807  0.2200
  781PNCE   C6B 7048   1.160   6.934   6.514 -0.2897 -0.0029 -0.2270
  782PNCE   AM1 7049   4.505  10.070   5.820 -0.1758 -0.0277  0.0155
  782PNCE   AM2 7050   4.327  10.281   5.957 -0.0260 -0.0014 -0.0586
  782PNCE   T1A 7051   4.921  10.026   5.883 -0.0676 -0.2998 -0.0321
  782PNCE   C2A 7052   5.161   9.818   6.252 -0.0911 -0.0314  0.3037
  782PNCE   C3A 7053   5.439   9.727   6.600 -0.1428 -0.2820  0.2566
  782PNCE   C1B 7054   4.580  10.228   6.342  0.2761 -0.1952  0.0928
  782PNCE   C2B 7055   4.873   9.979   6.572  0.2279 -0.4507  0.1351
  782PNCE   C3B 7056   5.118   9.985   6.950  0.1558  0.0654 -0.2630
  782PNCE   D4B 7057   5.308   9.659   7.104  0.0040  0.1554 -0.0304
  782PNCE   C5B 7058   5.583   9.443   7.410  0.1340  0.2399 -0.2080
  782PNCE   C6B 7059   5.635   9.079   7.390  0.0262  0.0373 -0.0990
  783PNCE   AM1 7060   7.998   2.758   4.258 -0.1170  0.0683  0.2377
  783PNCE   AM2 7061   7.840   2.489   4.323 -0.3176 -0.0307 -0.1467
  783PNCE   T1A 7062   7.748   3.000   4.477  0.3335  0.3270 -0.1167
  783PNCE   C2A 7063   7.624   3.294   4.766 -0.1155 -0.0552 -0.3674
  783PNCE   C3A 7064   7.899   3.325   5.064 -0.2104  0.2169 -0.0315
  783PNCE   C1B 7065   7.460   2.393   4.550 -0.2397  0.2691 -0.2296
  783PNCE   C2B 7066   7.371   2.296   5.055  0.2456 -0.3514  0.4180
  783PNCE   C3B 7067   7.316   1.981   5.299 -0.3629 -0.0048  0.0262
  783PNCE   D4B 7068   7.322   1.619   5.574 -0.1312 -0.3764  0.2239
  783PNCE   C5B 7069   7.302   1.182   5.570 -0.3144  0.1497 -0.0529
  783PNCE   C6B 7070   7.353   0.820   5.433 -0.1619 -0.0306 -0.4042
  784CHOL   ROH 7071   7.467  13.167   4.515  0.2273  0.0732  0.0289
  784CHOL    R1 7072   7.421  13.406   4.661  0.0695  0.0488  0.0221
  784CHOL    R2 7073   7.191  13.556   4.633  0.0574  0.0066 -0.1346
  784CHOL    R3 7074   7.177  13.525   4.903 -0.1382 -0.0282 -0.1479
  784CHOL    R4 7075   7.026  13.771   4.848  0.2265  0.1898 -0.1864
  784CHOL    R5 7076   7.191  13.748   4.988  0.1173 -0.0629 -0.0967
  784CHOL    C1 7077   6.917  13.868   5.226  0.1412  0.2640 -0.2291
  784CHOL    C2 7078   6.707  13.843   5.495  0.1609 -0.0802  0.1323
  785PNCE   AM1 7079  11.637   8.297   5.554  0.4092 -0.2862  0.0044
  785PNCE   AM2 7080  11.517   7.968   5.555 -0.2940 -0.2654  0.1007
  785PNCE   T1A 7081  11.481   8.366   5.969 -0.3008 -0.1972  0.0116
  785PNCE   C2A 7082  11.341   8.276   6.391 -0.2531 -0.1033  0.2254
  785PNCE   C3A 7083  10.884   8.188   6.668 -0.2062 -0.2364  0.0177
  785PNCE   C1B 7084  11.646   7.889   5.959  0.1834 -0.2019 -0.0440
  785PNCE   C2B 7085  11.374   7.765   6.268 -0.1363  0.4444  0.0068
  785PNCE   C3B 7086  11.211   7.732   6.607 -0.0933  0.1177 -0.1843
  785PNCE   D4B 7087  11.220   7.487   6.841  0.3836 -0.1982 -0.0403
  785PNCE   C5B 7088  11.269   7.133   6.893 -0.2914 -0.0902 -0.1808
  785PNCE   C6B 7089  11.540   7.039   7.078  0.0379 -0.0515  0.0508
  786XCA    COO 7090  14.097   1.670   8.865 -0.1692  0.0791 -0.0930
  786XCA     C1 7091  13.793   1.735   8.547  0.3578  0.0400 -0.0404
  786XCA     C2 7092  13.827   1.877   8.119  0.0834  0.0614 -0.2710
  786XCA     C3 7093  13.538   1.843   7.742 -0.5129 -0.0623  0.0292
  786XCA     C4 7094  13.393   1.904   7.415 -0.1808  0.2811  0.1357
  786XCA     C5 7095  13.153   1.799   7.162 -0.3293 -0.1240  0.2771
  786XCA     C6 7096  12.951   1.708   6.851 -0.0212 -0.0865 -0.0806
  787CHOL   ROH 7097  12.688   6.659   8.397 -0.0457 -0.0132  0.0311
  787CHOL    R1 7098  12.894   6.669   8.203 -0.0113 -0.0111  0.0656
  787CHOL    R2 7099  12.919   6.479   8.004 -0.0276  0.0347  0.0103
  787CHOL    R3 7100  12.915   6.697   7.841  0.0484  0.0859  0.0780
  787CHOL    R4 7101  13.028   6.482   7.676 -0.1584  0.0736 -0.0321
  787CHOL    R5 7102  13.116   6.678   7.712 -0.0199  0.0006 -0.0082
  787CHOL    C1 7103  13.087   6.687   7.332 -0.1632  0.1445  0.0066
  787CHOL    C2 7104  13.022   6.825   6.944  0.0062 -0.1561  0.0915
  788CHOL   ROH 7105   7.241  15.189   7.311 -0.2182 -0.1538  0.0061
  788CHOL    R1 7106   7.412  15.299   7.113 -0.0467 -0.2903  0.0745
  788CHOL    R2 7107   7.446  15.183   6.865 -0.1346 -0.2524  0.0358
  788CHOL    R3 7108   7.377  15.431   6.776  0.1697 -0.1377  0.1115
  788CHOL    R4 7109   7.480  15.294   6.539 -0.1821 -0.2509  0.0326
  788CHOL    R5 7110   7.546  15.486   6.616  0.1461 -0.3587  0.0149
  788CHOL    C1 7111   7.435  15.590   6.266  0.0758 -0.1425  0.1019
  788CHOL    C2 7112   7.154  15.707   5.943  0.0106 -0.1527  0.0175
  789XCA    COO 7113   9.213  11.521   8.440  0.0866  0.0820 -0.0198
  789XCA     C1 7114   9.313  11.540   8.043  0.1924  0.2416 -0.0629
  789XCA     C2 7115   9.525  11.134   7.769  0.1630 -0.0805  0.0684
  789XCA     C3 7116   9.821  10.835   7.645 -0.2745 -0.0241  0.1686
  789XCA     C4 7117   9.935  10.713   7.309  0.0154 -0.1106  0.0503
  789XCA     C5 7118  10.081  10.800   6.907 -0.2588  0.0852 -0.1505
  789XCA     C6 7119  10.435  10.913   6.852  0.1524 -0.1099 -0.0816
  790XCA    COO 7120   7.848   1.929   3.962 -0.2233  0.0579  0.0850
  790XCA     C1 7121   7.631   1.894   4.364 -0.1009  0.0248  0.0320
  790XCA     C2 7122   7.546   1.798   4.854 -0.0716  0.0176  0.1276
  790XCA     C3 7123   7.780   1.767   5.258  0.0399 -0.3741 -0.1575
  790XCA     C4 7124   8.033   2.115   5.408  0.2199 -0.0204  0.0989
  790XCA     C5 7125   8.203   2.413   5.213 -0.1227 -0.3430  0.1153
  790XCA     C6 7126   8.030   2.618   4.808  0.0237 -0.0603  0.0811
  791CHOL   ROH 7127   2.583   6.890   6.144  0.1069  0.0915 -0.0727
  791CHOL    R1 7128   2.625   6.914   6.423 -0.0606  0.1882 -0.0566
  791CHOL    R2 7129   2.876   6.909   6.537 -0.1451  0.0853  0.1044
  791CHOL    R3 7130   2.797   7.145   6.646 -0.0676  0.1809 -0.0383
  791CHOL    R4 7131   3.045   7.077   6.788 -0.2467 -0.0071  0.2375
  791CHOL    R5 7132   2.852   7.124   6.878 -0.3165  0.1769  0.0332
  791CHOL    C1 7133   3.068   7.396   7.036 -0.2333  0.0287  0.1811
  791CHOL    C2 7134   3.322   7.731   7.199 -0.4127 -0.3587  0.1244
  792PNCE   AM1 7135   8.170   9.744   5.126  0.0834 -0.1627 -0.1318
  792PNCE   AM2 7136   8.151  10.005   5.107 -0.1838 -0.0530 -0.1731
  792PNCE   T1A 7137   7.970   9.554   5.359 -0.0832  0.0392  0.0073
  792PNCE   C2A 7138   7.781   9.128   5.369  0.3478 -0.0024  0.3675
  792PNCE   C3A 7139   7.585   8.792   5.127  0.5146 -0.1567  0.1589
  792PNCE   C1B 7140   8.332  10.107   5.513  0.1576 -0.2446  0.1228
  792PNCE   C2B 7141   8.332  10.047   5.932  0.1643  0.1268 -0.2343
  792PNCE   C3B 7142   8.386   9.858   6.356  0.2017  0.0363  0.0121
  792PNCE   D4B 7143   8.843   9.712   6.510  0.0697 -0.1986 -0.0462
  792PNCE   C5B 7144   9.166   9.862   6.519 -0.2406 -0.0454 -0.2240
  792PNCE   C6B 7145   9.571   9.664   6.454  0.0542  0.0311 -0.4311
  793XCA    COO 7146   0.549   2.288   8.678 -0.1337 -0.2354 -0.0777
  793XCA     C1 7147   0.676   2.506   8.240 -0.0005 -0.0091  0.1311
  793XCA     C2 7148   0.979   2.736   7.778  0.4886 -0.0492 -0.0058
  793XCA     C3 7149   1.393   2.913   7.789  0.0058  0.1292  0.1849
  793XCA     C4 7150   1.649   2.891   7.528 -0.0256  0.0956  0.2642
  793XCA     C5 7151   1.647   2.638   7.075  0.0414 -0.1867 -0.0606
  793XCA     C6 7152   1.886   2.548   6.726  0.0182 -0.2551 -0.3019
  794CHOL   ROH 7153  12.826   7.639   5.664 -0.1602  0.0831 -0.0405
  794CHOL    R1 7154  12.820   7.362   5.723 -0.0238  0.0702 -0.0783
  794CHOL    R2 7155  12.977   7.249   5.919 -0.1183  0.1537  0.0534
  794CHOL    R3 7156  12.738   7.155   6.010 -0.1408 -0.0141 -0.1729
  794CHOL    R4 7157  12.940   6.985   6.140 -0.1189  0.3732  0.3207
  794CHOL    R5 7158  12.769   6.917   6.022  0.1233  0.0311  0.1543
  794CHOL    C1 7159  12.695   6.743   6.353 -0.1403  0.3435  0.2640
  794CHOL    C2 7160  12.805   6.346   6.356 -0.0028  0.0456 -0.1454
  795PNCE   AM1 7161   4.346   5.645   4.758  0.0110  0.1893  0.2561
  795PNCE   AM2 7162   4.408   6.020   4.778  0.0290 -0.3243 -0.2581
  795PNCE   T1A 7163   4.402   5.450   5.200  0.0998 -0.1429 -0.2649
  795PNCE   C2A 7164   4.231   5.348   5.678 -0.0794 -0.1343  0.0216
  795PNCE   C3A 7165   3.961   5.450   5.838 -0.0201 -0.0199  0.0326
  795PNCE   C1B 7166   4.491   5.982   5.221 -0.0767  0.0818  0.0012
  795PNCE   C2B 7167   4.852   6.149   5.332  0.1991 -0.0373  0.1670
  795PNCE   C3B 7168   5.320   6.278   5.460 -0.1513  0.1805 -0.1698
  795PNCE   D4B 7169   5.463   6.233   5.770 -0.0071 -0.1371 -0.2605
  795PNCE   C5B 7170   5.309   6.493   6.198  0.2948  0.1388  0.0837
  795PNCE   C6B 7171   5.398   6.755   6.569 -0.0313  0.0711  0.2232
  796XCA    COO 7172   4.542   9.544   5.715  0.1526 -0.0313 -0.0325
  796XCA     C1 7173   4.676   9.651   6.154  0.0193 -0.0339  0.1103
  796XCA     C2 7174   4.405   9.824   6.614 -0.1585 -0.0097 -0.0194
  796XCA     C3 7175   4.597  10.054   6.995  0.1943 -0.1562  0.0710
  796XCA     C4 7176   4.749   9.939   7.330  0.1123  0.2742 -0.2390
  796XCA     C5 7177   4.994   9.602   7.549  0.0456  0.0402  0.2304
  796XCA     C6 7178   5.277   9.224   7.736  0.1592  0.0859  0.1393
  797XCA    COO 7179   3.503   2.421   4.057  0.2019 -0.0005  0.1191
  797XCA     C1 7180   3.447   2.523   4.469 -0.0126  0.1589  0.1567
  797XCA     C2 7181   3.202   2.224   4.809 -0.3287 -0.1301  0.0970
  797XCA     C3 7182   3.165   1.957   5.063  0.1031  0.1410 -0.1133
  797XCA     C4 7183   2.965   1.837   5.387 -0.0387 -0.1844  0.1265
  797XCA     C5 7184   3.134   1.747   5.757  0.0205  0.2042  0.0051
  797XCA     C6 7185   3.380   1.595   6.028  0.0742 -0.0128  0.0096
  798PNCE   AM1 7186  12.973  12.383   5.038 -0.0833  0.0531  0.1658
  798PNCE   AM2 7187  12.773  12.663   5.068  0.0091 -0.1238  0.2952
  798PNCE   T1A 7188  12.882  12.115   5.463  0.1686 -0.0061  0.1531
  798PNCE   C2A 7189  12.890  12.194   5.828  0.2187 -0.2016 -0.0952
  798PNCE   C3A 7190  12.910  12.379   6.125  0.0094 -0.1720 -0.1659
  798PNCE   C1B 7191  12.647  12.601   5.549  0.0616  0.2285 -0.1345
  798PNCE   C2B 7192  12.466  12.751   6.017  0.0982 -0.2570  0.2258
  798PNCE   C3B 7193  12.073  12.723   6.217 -0.3933 -0.3291 -0.2121
  798PNCE   D4B 7194  11.869  12.845   6.434 -0.2104 -0.1562  0.0810
  798PNCE   C5B 7195  11.829  13.171   6.720  0.1393 -0.3658 -0.0625
  798PNCE   C6B 7196  12.099  13.121   7.182 -0.1126 -0.0477  0.0980
  799CHOL   ROH 7197  15.679  15.581   4.658 -0.1456 -0.0281 -0.1635
  799CHOL    R1 7198  15.793  15.716   4.879  0.0403 -0.0059 -0.2703
  799CHOL    R2 7199  15.694  15.691   5.136 -0.1028  0.4589 -0.2703
  799CHOL    R3 7200  15.950  15.622   5.193 -0.2465  0.0202 -0.1152
  799CHOL    R4 7201  15.844  15.729   5.444 -0.0798  0.6888 -0.3092
  799CHOL    R5 7202  16.026  15.793   5.342  0.0816  0.1370 -0.4015
  799CHOL    C1 7203  16.173  15.687   5.678 -0.2014  0.4110 -0.1862
  799CHOL    C2 7204  16.379  15.953   5.926 -0.0612  0.0444  0.1709
  800PNCE   AM1 7205   3.214  11.708   5.081 -0.0617  0.0958  0.3806
  800PNCE   AM2 7206   3.278  11.467   5.344 -0.0276 -0.2561 -0.2470
  800PNCE   T1A 7207   3.022  12.029   5.196 -0.0156  0.1907 -0.1645
  800PNCE   C2A 7208   2.918  12.189   5.601 -0.1231  0.0604  0.2919
  800PNCE   C3A 7209   2.824  12.383   5.981 -0.0978 -0.2624 -0.0878
  800PNCE   C1B 7210   3.566  11.401   5.734  0.0752 -0.0522 -0.1047
  800PNCE   C2B 7211   3.903  11.521   5.904 -0.0322  0.0224 -0.2263
  800PNCE   C3B 7212   4.063  11.596   6.326  0.0863  0.0581 -0.1480
  800PNCE   D4B 7213   4.426  11.811   6.462 -0.1055 -0.0901 -0.0257
  800PNCE   C5B 7214   4.761  11.800   6.818  0.0447  0.1245 -0.3097
  800PNCE   C6B 7215   5.150  11.756   7.143  0.2086 -0.0229 -0.0929
  801CHOL   ROH 7216   1.048  10.689   7.664  0.2654  0.0008  0.1273
  801CHOL    R1 7217   0.914  10.732   7.909  0.1512  0.0450  0.0586
  801CHOL    R2 7218   0.649  10.808   7.923  0.1469  0.0648 -0.0776
  801CHOL    R3 7219   0.627  10.589   8.082  0.0597  0.0880 -0.0579
  801CHOL    R4 7220   0.357  10.703   8.076  0.0844  0.1318 -0.1509
  801CHOL    R5 7221   0.474  10.655   8.254  0.0210  0.1327 -0.1120
  801CHOL    C1 7222   0.167  10.436   8.314 -0.0340  0.1925 -0.1750
  801CHOL    C2 7223   0.065  10.328   8.698  0.0106  0.1126 -0.1193
  802CHOL   ROH 7224   4.557   4.528   4.784 -0.0214  0.0216 -0.0803
  802CHOL    R1 7225   4.670   4.643   5.017  0.2155 -0.0870 -0.1385
  802CHOL    R2 7226   4.566   4.600   5.269  0.0222  0.3763 -0.1288
  802CHOL    R3 7227   4.820   4.520   5.325 -0.1856 -0.2506 -0.0033
  802CHOL    R4 7228   4.707   4.599   5.584 -0.0086  0.4261 -0.1152
  802CHOL    R5 7229   4.893   4.671   5.496  0.2144 -0.2016 -0.2075
  802CHOL    C1 7230   5.027   4.523   5.821 -0.2216 -0.1335  0.0106
  802CHOL    C2 7231   4.842   4.563   6.150  0.0821  0.4240  0.1081
  803PNCE   AM1 7232  13.986   8.134   5.454  0.2585  0.1323  0.1097
  803PNCE   AM2 7233  13.995   7.824   5.303  0.1525 -0.0548  0.0570
  803PNCE   T1A 7234  14.111   8.003   5.845 -0.0786  0.0326  0.1019
  803PNCE   C2A 7235  14.203   7.851   6.259  0.2582 -0.0150 -0.0399
  803PNCE   C3A 7236  14.105   7.689   6.687 -0.2489 -0.0342 -0.2891
  803PNCE   C1B 7237  13.669   7.786   5.644 -0.0847 -0.1735 -0.4081
  803PNCE   C2B 7238  13.612   7.921   6.158 -0.0848 -0.2178  0.2498
  803PNCE   C3B 7239  13.761   8.016   6.555 -0.0536  0.2830 -0.1594
  803PNCE   D4B 7240  13.774   7.878   7.007  0.0770  0.1035  0.0782
  803PNCE   C5B 7241  13.645   7.395   7.187  0.0571 -0.0879  0.1917
  803PNCE   C6B 7242  13.487   7.092   7.405  0.3703 -0.1717  0.0480
  804PNCE   AM1 7243   1.755  13.163   5.040 -0.1036 -0.0471 -0.0936
  804PNCE   AM2 7244   1.508  13.423   4.971 -0.1404  0.0329 -0.2180
  804PNCE   T1A 7245   1.900  13.639   5.177  0.1441  0.2645  0.0225
  804PNCE   C2A 7246   1.938  13.922   5.525 -0.3916  0.0939  0.1359
  804PNCE   C3A 7247   1.889  14.051   6.035  0.0811 -0.0021  0.1505
  804PNCE   C1B 7248   1.568  13.413   5.458  0.0180 -0.0621 -0.0636
  804PNCE   C2B 7249   1.619  13.503   5.805 -0.2379 -0.0729 -0.1804
  804PNCE   C3B 7250   1.597  13.579   6.294  0.0789  0.1816 -0.1981
  804PNCE   D4B 7251   1.806  13.528   6.668  0.1718  0.1546 -0.2909
  804PNCE   C5B 7252   2.192  13.190   6.581 -0.2801 -0.1976  0.2235
  804PNCE   C6B 7253   2.234  12.778   6.500 -0.1237 -0.0764  0.1275
  805XCA    COO 7254   8.260  12.050   4.900 -0.0210 -0.1676 -0.0471
  805XCA     C1 7255   8.171  12.018   5.360 -0.0765 -0.0271 -0.4572
  805XCA     C2 7256   8.143  12.070   5.816 -0.3045 -0.2109  0.0678
  805XCA     C3 7257   8.168  12.316   6.142 -0.0946 -0.0647  0.1273
  805XCA     C4 7258   8.070  12.557   6.536 -0.0656 -0.4443 -0.2222
  805XCA     C5 7259   8.067  12.862   6.934  0.2128  0.0273  0.0720
  805XCA     C6 7260   8.208  12.896   7.283  0.0871 -0.0312 -0.4536
  806PNCE   AM1 7261  11.210   0.335   4.894  0.0636  0.2630  0.1779
  806PNCE   AM2 7262  10.902   0.092   4.861  0.1054  0.1291 -0.1369
  806PNCE   T1A 7263  11.086   0.283   5.332  0.1311 -0.1891  0.0920
  806PNCE   C2A 7264  10.889   0.213   5.768  0.1656  0.1205 -0.1841
  806PNCE   C3A 7265  10.786  -0.197   6.011 -0.0356  0.2278  0.3353
  806PNCE   C1B 7266  10.744  -0.359   4.953 -0.0443  0.1660  0.0412
  806PNCE   C2B 7267  10.735  -0.531   5.302  0.1420  0.0754 -0.0550
  806PNCE   C3B 7268  10.908  -0.853   5.480 -0.2265 -0.1549  0.1777
  806PNCE   D4B 7269  11.200  -1.054   5.795 -0.0018  0.1768 -0.1609
  806PNCE   C5B 7270  11.383  -0.963   6.177 -0.1743 -0.1905  0.1046
  806PNCE   C6B 7271  11.539  -0.880   6.680 -0.3657 -0.2019 -0.0213
  807PNCE   AM1 7272   8.767  11.798   4.697 -0.1859  0.1131  0.0391
  807PNCE   AM2 7273   9.049  11.727   4.707 -0.2507 -0.2894 -0.1094
  807PNCE   T1A 7274   8.625  11.612   5.164  0.1489 -0.3033  0.2703
  807PNCE   C2A 7275   8.856  11.508   5.620  0.1386  0.1899  0.0127
  807PNCE   C3A 7276   8.926  11.679   6.028 -0.1077  0.0514  0.3170
  807PNCE   C1B 7277   9.128  11.702   5.094 -0.1201  0.1972 -0.3265
  807PNCE   C2B 7278   9.080  11.912   5.456  0.1635 -0.0306 -0.0358
  807PNCE   C3B 7279   9.297  12.196   5.685 -0.4327 -0.2712 -0.0913
  807PNCE   D4B 7280   9.727  12.268   5.821 -0.1235 -0.1860 -0.0963
  807PNCE   C5B 7281   9.760  12.507   6.243  0.1151  0.0097  0.1128
  807PNCE   C6B 7282   9.963  12.685   6.664 -0.0628 -0.0612  0.2092
  808PNCE   AM1 7283   3.966   9.874   5.882  0.1899  0.5995 -0.1519
  808PNCE   AM2 7284   4.120   9.584   5.955 -0.0756  0.5465  0.5958
  808PNCE   T1A 7285   3.971  10.079   6.203 -0.4252 -0.0604  0.0069
  808PNCE   C2A 7286   4.046  10.227   6.535  0.1802  0.1385 -0.1267
  808PNCE   C3A 7287   4.271  10.511   6.779 -0.1134 -0.1581 -0.0866
  808PNCE   C1B 7288   4.068   9.533   6.398  0.4480  0.0635 -0.0721
  808PNCE   C2B 7289   4.092   9.487   6.809 -0.0138 -0.0270 -0.3119
  808PNCE   C3B 7290   3.709   9.353   6.939 -0.0937  0.1916 -0.4865
  808PNCE   D4B 7291   3.323   9.482   7.103  0.0253 -0.0259  0.0597
  808PNCE   C5B 7292   3.130   9.896   6.900  0.0064  0.1112 -0.0153
  808PNCE   C6B 7293   2.729   9.943   6.690  0.0321  0.1292 -0.1182
  809CHOL   ROH 7294   0.981   2.588   4.908  0.1402  0.0675 -0.0764
  809CHOL    R1 7295   1.157   2.425   5.058  0.0237  0.0739  0.0694
  809CHOL    R2 7296   1.411   2.362   4.972 -0.0078 -0.1579  0.1395
  809CHOL    R3 7297   1.483   2.462   5.214  0.0346 -0.0090  0.0670
  809CHOL    R4 7298   1.597   2.192   5.208  0.2528  0.0783  0.1103
  809CHOL    R5 7299   1.468   2.274   5.363  0.2620  0.0299  0.1454
  809CHOL    C1 7300   1.773   2.186   5.574  0.4443  0.3557  0.0252
  809CHOL    C2 7301   1.677   2.055   5.908 -0.0982  0.0607 -0.2506
  810PNCE   AM1 7302   3.065  15.230   7.952  0.4262  0.0820 -0.1356
  810PNCE   AM2 7303   3.268  15.151   7.659 -0.0620 -0.0023  0.0018
  810PNCE   T1A 7304   2.742  14.968   7.658 -0.0747 -0.1775 -0.1610
  810PNCE   C2A 7305   2.656  14.691   7.467 -0.0007 -0.0376 -0.0102
  810PNCE   C3A 7306   2.825  14.441   7.207 -0.1962 -0.0303 -0.2442
  810PNCE   C1B 7307   2.912  15.389   7.518 -0.3941 -0.0228 -0.0930
  810PNCE   C2B 7308   2.454  15.472   7.459  0.0296  0.2322 -0.0094
  810PNCE   C3B 7309   1.977  15.444   7.307  0.0152 -0.1525  0.1933
  810PNCE   D4B 7310   1.631  15.696   7.091  0.2633 -0.3201 -0.3199
  810PNCE   C5B 7311   1.631  16.169   7.244  0.1367  0.1991 -0.1142
  810PNCE   C6B 7312   1.392  16.422   7.600 -0.1447  0.1297  0.1078
  811PNCE   AM1 7313   4.746   6.544   4.733 -0.3068  0.1959  0.2597
  811PNCE   AM2 7314   4.805   6.871   4.768  0.1654 -0.0647 -0.2209
  811PNCE   T1A 7315   4.960   6.536   5.058  0.2736  0.1727  0.0807
  811PNCE   C2A 7316   4.870   6.657   5.506 -0.1980 -0.1376  0.0694
  811PNCE   C3A 7317   4.921   6.644   5.935  0.0450  0.0392 -0.1974
  811PNCE   C1B 7318   5.186   7.043   5.019 -0.5280 -0.4143  0.1247
  811PNCE   C2B 7319   5.275   6.795   5.327 -0.0805 -0.0218  0.0477
  811PNCE   C3B 7320   5.474   6.760   5.725  0.1517 -0.0960 -0.1727
  811PNCE   D4B 7321   5.704   6.722   6.039  0.1381 -0.1354 -0.1757
  811PNCE   C5B 7322   6.013   6.870   6.338  0.2384 -0.0720  0.4615
  811PNCE   C6B 7323   6.170   6.890   6.711 -0.3957  0.0476 -0.0348
  812CHOL   ROH 7324  10.936   5.773   8.411 -0.0976  0.1106  0.0801
  812CHOL    R1 7325  11.022   5.942   8.201 -0.2443  0.1617  0.0602
  812CHOL    R2 7326  11.146   5.845   7.974 -0.0340  0.2528  0.1343
  812CHOL    R3 7327  10.948   5.982   7.847 -0.1726 -0.0445  0.0202
  812CHOL    R4 7328  11.163   5.963   7.649 -0.0145  0.2963  0.1510
  812CHOL    R5 7329  11.063   6.145   7.715 -0.3395  0.1435  0.1007
  812CHOL    C1 7330  10.988   6.160   7.341 -0.1332  0.0425  0.0535
  812CHOL    C2 7331  10.694   6.392   7.183 -0.2442 -0.2948 -0.3166
  813PNCE   AM1 7332   3.554   5.717   5.603 -0.1546  0.1040  0.2989
  813PNCE   AM2 7333   3.672   5.609   5.396 -0.1964 -0.0652  0.0724
  813PNCE   T1A 7334   3.534   5.460   6.080 -0.1566  0.2376  0.0600
  813PNCE   C2A 7335   3.418   5.280   6.421 -0.1623  0.1114  0.1915
  813PNCE   C3A 7336   3.519   4.875   6.633  0.3690  0.4701 -0.1213
  813PNCE   C1B 7337   4.024   5.898   5.499 -0.2848 -0.1317 -0.1226
  813PNCE   C2B 7338   4.350   5.873   5.738  0.0718 -0.0582  0.1335
  813PNCE   C3B 7339   4.644   5.453   5.950 -0.0780 -0.0035  0.1688
  813PNCE   D4B 7340   4.989   5.325   6.196 -0.1051  0.1962 -0.1285
  813PNCE   C5B 7341   5.382   5.541   6.345 -0.0367 -0.0087  0.1650
  813PNCE   C6B 7342   5.336   5.946   6.272 -0.1271 -0.0471 -0.0607
  814CHOL   ROH 7343   8.222   6.393   4.362  0.0063 -0.0061  0.0231
  814CHOL    R1 7344   8.329   6.234   4.570 -0.0046  0.0498  0.0721
  814CHOL    R2 7345   8.243   6.254   4.832 -0.1151  0.0293  0.0391
  814CHOL    R3 7346   8.203   5.986   4.805  0.0079  0.0074  0.0355
  814CHOL    R4 7347   8.229   6.030   5.094 -0.1099  0.0344  0.0439
  814CHOL    R5 7348   8.343   5.889   4.974 -0.0059  0.0750  0.0883
  814CHOL    C1 7349   8.183   5.648   5.223  0.0086  0.0168  0.0434
  814CHOL    C2 7350   8.478   5.518   5.376  0.0716 -0.1680  0.1336
  815XCA    COO 7351   2.237   6.387   9.067  0.0757 -0.3122  0.1544
  815XCA     C1 7352   2.181   6.502   8.653 -0.0518  0.2267 -0.0132
  815XCA     C2 7353   2.022   6.743   8.325 -0.0887 -0.3552 -0.0429
  815XCA     C3 7354   1.802   7.071   8.118 -0.3256  0.2717  0.0862
  815XCA     C4 7355   1.832   7.165   7.683  0.1436 -0.2702  0.0087
  815XCA     C5 7356   2.056   6.941   7.389 -0.1581  0.0692 -0.2020
  815XCA     C6 7357   2.348   6.922   7.011 -0.0979  0.0224 -0.1900
  816PNCE   AM1 7358   7.350  11.573   8.585  0.0520 -0.1817  0.1405
  816PNCE   AM2 7359   7.512  11.777   8.526 -0.0249  0.1512 -0.3167
  816PNCE   T1A 7360   7.250  11.446   8.095 -0.0903 -0.0191 -0.0356
  816PNCE   C2A 7361   7.243  11.388   7.710 -0.2032  0.0725  0.0636
  816PNCE   C3A 7362   6.977  11.049   7.585  0.2543 -0.1994  0.1138
  816PNCE   C1B 7363   7.594  11.895   8.238  0.0484 -0.2757  0.2061
  816PNCE   C2B 7364   7.329  12.283   8.039  0.0710 -0.1890 -0.0155
  816PNCE   C3B 7365   7.129  12.229   7.639 -0.0724 -0.1355  0.1001
  816PNCE   D4B 7366   6.943  12.057   7.237 -0.0288 -0.1479 -0.0724
  816PNCE   C5B 7367   6.538  11.823   7.143  0.1410 -0.0318 -0.3953
  816PNCE   C6B 7368   6.140  11.575   7.273  0.1079  0.2996  0.2343
  817PNCE   AM1 7369  10.042   1.198   4.477 -0.2655  0.1716  0.0575
  817PNCE   AM2 7370   9.683   1.117   4.448  0.2024 -0.1415  0.0177
  817PNCE   T1A 7371   9.952   1.484   4.790  0.2590  0.0251  0.2079
  817PNCE   C2A 7372   9.746   1.549   5.027  0.0293 -0.3044 -0.0257
  817PNCE   C3A 7373   9.591   1.914   5.057 -0.1769 -0.4713 -0.3942
  817PNCE   C1B 7374   9.654   1.081   4.919 -0.0956 -0.0608 -0.0377
  817PNCE   C2B 7375   9.565   0.949   5.338  0.0742 -0.1049 -0.0627
  817PNCE   C3B 7376   9.772   1.138   5.780  0.3080  0.0862  0.0130
  817PNCE   D4B 7377   9.942   1.112   6.177 -0.0305  0.0129 -0.2358
  817PNCE   C5B 7378   9.718   1.275   6.520 -0.1471 -0.0779  0.2767
  817PNCE   C6B 7379   9.508   1.071   6.889  0.1210 -0.3462  0.0147
  818CHOL   ROH 7380  15.199   9.459   6.308 -0.1871  0.0041 -0.0024
  818CHOL    R1 7381  15.321   9.496   6.560 -0.1012 -0.0726 -0.0321
  818CHOL    R2 7382  15.307   9.734   6.699  0.0858 -0.0602 -0.0290
  818CHOL    R3 7383  15.212   9.575   6.898  0.0307  0.0010 -0.0061
  818CHOL    R4 7384  15.364   9.783   7.037 -0.0076  0.0407 -0.0274
  818CHOL    R5 7385  15.389   9.568   7.059 -0.0146  0.0484  0.0453
  818CHOL    C1 7386  15.309   9.663   7.420 -0.1137  0.1569 -0.0048
  818CHOL    C2 7387  15.505   9.498   7.705 -0.2196  0.0662 -0.3605
  819CHOL   ROH 7388   7.479   0.038   7.757  0.1167  0.1509 -0.0305
  819CHOL    R1 7389   7.644   0.065   7.529  0.0904  0.2481 -0.0384
  819CHOL    R2 7390   7.633  -0.109   7.315  0.2732  0.1629  0.0212
  819CHOL    R3 7391   7.597   0.119   7.173  0.0349  0.0789 -0.0585
  819CHOL    R4 7392   7.609  -0.094   6.971  0.4153  0.0260  0.0040
  819CHOL    R5 7393   7.730   0.088   6.976  0.1753  0.1950  0.0130
  819CHOL    C1 7394   7.561   0.130   6.636  0.2745 -0.1326 -0.0808
  819CHOL    C2 7395   7.658   0.348   6.379 -0.1666  0.0018  0.1967
  820CHOL   ROH 7396   3.736   2.907   8.353 -0.1281 -0.0077 -0.0603
  820CHOL    R1 7397   3.718   3.105   8.151 -0.2091 -0.0206 -0.0671
  820CHOL    R2 7398   3.933   3.175   7.993 -0.1614  0.2496  0.1053
  820CHOL    R3 7399   3.761   3.119   7.790  0.0655  0.0399 -0.0338
  820CHOL    R4 7400   3.929   3.336   7.686 -0.0041  0.1232  0.0365
  820CHOL    R5 7401   3.711   3.332   7.693 -0.0081 -0.0373 -0.1639
  820CHOL    C1 7402   3.765   3.376   7.318  0.3005 -0.1471 -0.1341
  820CHOL    C2 7403   3.858   3.577   6.929 -0.0870  0.0034  0.1820
  821CHOL   ROH 7404   7.754  15.085   7.410  0.0000  0.1112 -0.0715
  821CHOL    R1 7405   7.890  15.220   7.203 -0.0027  0.0451 -0.1164
  821CHOL    R2 7406   7.889  15.131   6.941 -0.1075  0.0291 -0.1097
  821CHOL    R3 7407   7.800  15.383   6.890 -0.0226  0.0609 -0.1027
  821CHOL    R4 7408   7.931  15.299   6.642 -0.1090 -0.0035 -0.1285
  821CHOL    R5 7409   7.972  15.481   6.755 -0.0141 -0.0124 -0.1464
  821CHOL    C1 7410   7.873  15.633   6.420 -0.0303  0.0073 -0.1330
  821CHOL    C2 7411   7.942  15.825   6.087 -0.2825 -0.1927  0.1122
  822CHOL   ROH 7412   0.625   8.202   9.583  0.1105  0.0166 -0.0418
  822CHOL    R1 7413   0.635   8.391   9.372  0.1776  0.0540 -0.0072
  822CHOL    R2 7414   0.725   8.327   9.119  0.1515  0.0681 -0.0255
  822CHOL    R3 7415   0.484   8.427   9.043  0.1856  0.1690  0.0029
  822CHOL    R4 7416   0.649   8.442   8.802  0.1591  0.1083 -0.0116
  822CHOL    R5 7417   0.538   8.605   8.893  0.2381  0.1486  0.0028
  822CHOL    C1 7418   0.379   8.603   8.546  0.1956  0.2265  0.0230
  822CHOL    C2 7419  -0.067   8.635   8.541  0.0439  0.2350  0.1298
  823PNCE   AM1 7420  14.546  11.455   4.946  0.2367  0.1707  0.2831
  823PNCE   AM2 7421  14.475  11.359   5.348  0.2435  0.1121 -0.0350
  823PNCE   T1A 7422  14.824  11.677   5.126  0.1428  0.0308 -0.0605
  823PNCE   C2A 7423  14.929  11.894   5.511 -0.1916  0.1451 -0.1102
  823PNCE   C3A 7424  14.872  12.238   5.788 -0.0862  0.0070 -0.1434
  823PNCE   C1B 7425  14.686  11.516   5.739 -0.4569 -0.0338  0.5438
  823PNCE   C2B 7426  14.767  11.789   6.168  0.1043  0.3201  0.0265
  823PNCE   C3B 7427  14.692  12.098   6.342  0.0935 -0.0518 -0.2161
  823PNCE   D4B 7428  14.561  12.427   6.152 -0.2812  0.2009 -0.0326
  823PNCE   C5B 7429  14.245  12.545   5.920 -0.0592 -0.0745  0.0266
  823PNCE   C6B 7430  13.864  12.415   5.823 -0.0600  0.1136  0.1331
  824PNCE   AM1 7431  15.159   0.159   4.136  0.2282  0.1218 -0.3793
  824PNCE   AM2 7432  14.869   0.157   4.462  0.1410 -0.1292 -0.1157
  824PNCE   T1A 7433  15.485   0.120   4.408 -0.0035 -0.0253 -0.2252
  824PNCE   C2A 7434  15.664   0.328   4.830  0.0985  0.3093 -0.0522
  824PNCE   C3A 7435  15.790   0.335   5.276  0.2168  0.0099  0.1318
  824PNCE   C1B 7436  14.892   0.285   4.940 -0.0354  0.1047  0.3044
  824PNCE   C2B 7437  14.906   0.420   5.358  0.3397  0.1102 -0.2826
  824PNCE   C3B 7438  15.028   0.379   5.717 -0.0620  0.0233 -0.0900
  824PNCE   D4B 7439  15.090   0.364   6.159  0.1025  0.4595 -0.1725
  824PNCE   C5B 7440  14.890   0.657   6.275 -0.1363  0.2579 -0.0741
  824PNCE   C6B 7441  14.716   1.061   6.514  0.0466 -0.2604 -0.0437
  825XCA    COO 7442   5.277   8.441   5.865  0.1810 -0.1442  0.0419
  825XCA     C1 7443   5.459   8.215   6.118  0.0906  0.0481  0.0244
  825XCA     C2 7444   5.825   8.216   6.338 -0.2987  0.1494 -0.0954
  825XCA     C3 7445   5.880   8.140   6.755 -0.2425  0.2189 -0.0349
  825XCA     C4 7446   5.494   8.092   6.891 -0.3750  0.2269  0.0393
  825XCA     C5 7447   5.128   8.051   7.172  0.2325  0.1744  0.3010
  825XCA     C6 7448   4.994   7.893   7.463  0.0878  0.1535  0.0564
  826XCA    COO 7449   2.451   2.255   8.557  0.2081 -0.4128  0.0213
  826XCA     C1 7450   2.434   2.205   8.146  0.0671 -0.1740 -0.2451
  826XCA     C2 7451   2.376   2.526   7.783  0.1949  0.0415  0.0161
  826XCA     C3 7452   2.531   2.634   7.345  0.1497  0.3819 -0.1130
  826XCA     C4 7453   2.521   2.832   6.922 -0.2822 -0.0430  0.2028
  826XCA     C5 7454   2.549   3.194   6.691  0.1557 -0.1062 -0.0850
  826XCA     C6 7455   2.438   3.773   6.588  0.3546  0.1765 -0.3004
  827XCA    COO 7456   9.335   9.731   4.793 -0.0386  0.0738  0.3129
  827XCA     C1 7457   9.337   9.765   5.200  0.2123  0.1898 -0.1865
  827XCA     C2 7458   9.522   9.590   5.508  0.1369 -0.2038  0.3743
  827XCA     C3 7459   9.543   9.488   5.954  0.0497  0.2378  0.0823
  827XCA     C4 7460   9.290   9.324   6.305 -0.0594 -0.2862 -0.0316
  827XCA     C5 7461   8.912   9.158   6.472  0.2370 -0.0007 -0.2460
  827XCA     C6 7462   8.522   9.262   6.366 -0.0086 -0.0538  0.1825
  828PNCE   AM1 7463   1.966  12.368   5.100 -0.0884 -0.0435  0.0767
  828PNCE   AM2 7464   1.788  12.676   5.196  0.5138 -0.1268  0.2440
  828PNCE   T1A 7465   1.857  12.320   5.581  0.0078  0.0349  0.2669
  828PNCE   C2A 7466   1.866  12.582   5.914 -0.3453  0.1451  0.0358
  828PNCE   C3A 7467   1.859  12.458   6.330  0.1937  0.2135  0.1385
  828PNCE   C1B 7468   1.822  12.964   5.598  0.2306 -0.0395  0.2701
  828PNCE   C2B 7469   1.784  13.011   6.068  0.0530 -0.3858  0.3143
  828PNCE   C3B 7470   1.707  12.928   6.525 -0.2019 -0.0822 -0.0228
  828PNCE   D4B 7471   1.869  12.709   6.858 -0.2967 -0.1058 -0.0076
  828PNCE   C5B 7472   2.244  12.847   7.038 -0.2785  0.3413  0.1203
  828PNCE   C6B 7473   2.429  12.794   7.434  0.0983  0.0365  0.1317
  829PNCE   AM1 7474   0.675   4.382   4.693 -0.2933 -0.2026 -0.1974
  829PNCE   AM2 7475   0.649   4.503   5.025  0.2867 -0.0470 -0.1129
  829PNCE   T1A 7476   0.709   3.978   4.851  0.1317  0.0311 -0.0070
  829PNCE   C2A 7477   0.557   3.776   5.254 -0.1187 -0.2306  0.0407
  829PNCE   C3A 7478   0.709   3.738   5.759 -0.1339  0.1998 -0.0847
  829PNCE   C1B 7479   0.683   4.553   5.471  0.0118 -0.2651 -0.1845
  829PNCE   C2B 7480   0.679   4.371   5.800 -0.3482 -0.0321 -0.3720
  829PNCE   C3B 7481   0.568   4.151   6.056 -0.3282  0.2090  0.0466
  829PNCE   D4B 7482   0.642   3.711   6.271 -0.3307 -0.1052 -0.0305
  829PNCE   C5B 7483   0.298   3.371   6.024 -0.2988  0.1525  0.1315
  829PNCE   C6B 7484   0.223   3.575   5.587  0.3305 -0.0238 -0.0366
  830PNCE   AM1 7485  11.960   4.260   4.707 -0.0742 -0.3049  0.1317
  830PNCE   AM2 7486  11.782   4.338   5.037 -0.3263  0.2342  0.2776
  830PNCE   T1A 7487  12.018   3.866   5.064  0.1458  0.2101 -0.0746
  830PNCE   C2A 7488  11.938   3.623   5.486 -0.0805  0.2458 -0.4414
  830PNCE   C3A 7489  11.918   3.526   5.826  0.2038 -0.0960 -0.0282
  830PNCE   C1B 7490  11.651   4.064   5.401  0.1068  0.0563 -0.1901
  830PNCE   C2B 7491  11.465   3.888   5.711  0.0782  0.2121 -0.0053
  830PNCE   C3B 7492  11.123   3.697   5.831  0.1591  0.0319  0.0573
  830PNCE   D4B 7493  10.731   3.466   6.111 -0.0752 -0.0572 -0.0383
  830PNCE   C5B 7494  10.687   3.530   6.504  0.2077  0.1089 -0.2926
  830PNCE   C6B 7495  10.680   3.322   6.886  0.1966  0.0319  0.5272
  831PNCE   AM1 7496   1.015   6.830   5.473  0.0148  0.1149 -0.1857
  831PNCE   AM2 7497   1.067   6.519   5.530 -0.0641  0.2008 -0.0971
  831PNCE   T1A 7498   1.217   7.025   5.895 -0.3341  0.0239  0.0860
  831PNCE   C2A 7499   1.334   7.272   6.186 -0.1981  0.1641 -0.0270
  831PNCE   C3A 7500   1.279   7.462   6.618  0.1542  0.0022  0.3902
  831PNCE   C1B 7501   1.120   6.577   5.987 -0.0368 -0.0648 -0.1111
  831PNCE   C2B 7502   1.152   6.498   6.290 -0.2168 -0.1475  0.1586
  831PNCE   C3B 7503   1.031   6.225   6.655  0.5115  0.0482  0.0795
  831PNCE   D4B 7504   1.041   6.231   7.085 -0.0470  0.0318 -0.2565
  831PNCE   C5B 7505   0.981   5.987   7.403 -0.2266 -0.0594  0.0970
  831PNCE   C6B 7506   1.116   6.000   7.872 -0.1072 -0.2574 -0.4002
  832XCA    COO 7507  12.796   0.305   8.259  0.1069 -0.2609  0.3077
  832XCA     C1 7508  12.682   0.316   7.748  0.0185 -0.0874  0.1142
  832XCA     C2 7509  12.541   0.416   7.394  0.0911 -0.1631 -0.0859
  832XCA     C3 7510  12.424   0.773   7.132  0.1251 -0.3823  0.1525
  832XCA     C4 7511  12.152   1.038   6.895  0.3014  0.0745  0.2556
  832XCA     C5 7512  11.981   1.356   6.640 -0.1826 -0.0410 -0.0018
  832XCA     C6 7513  11.640   1.591   6.597  0.0189 -0.1187 -0.1911
  833PNCE   AM1 7514   3.252   3.320   4.110 -0.3542  0.3711 -0.0137
  833PNCE   AM2 7515   3.548   3.345   4.028  0.0534  0.0228 -0.2265
  833PNCE   T1A 7516   3.135   3.288   4.532  0.1546 -0.0489  0.1026
  833PNCE   C2A 7517   3.057   3.553   4.832  0.1993 -0.3002  0.0570
  833PNCE   C3A 7518   2.790   3.634   5.090  0.0291 -0.1401 -0.1831
  833PNCE   C1B 7519   3.549   3.022   4.408 -0.0463 -0.2363  0.1580
  833PNCE   C2B 7520   3.416   2.922   4.799 -0.3185 -0.2533  0.0495
  833PNCE   C3B 7521   3.395   2.669   5.161 -0.0443  0.1999 -0.1167
  833PNCE   D4B 7522   3.386   2.303   5.331 -0.0496 -0.0171  0.1431
  833PNCE   C5B 7523   3.076   2.227   5.643 -0.0672 -0.2226  0.0228
  833PNCE   C6B 7524   2.709   2.207   5.890  0.4173 -0.1787  0.3669
  834PNCE   AM1 7525   1.479   3.529   4.380 -0.0811 -0.0852 -0.4088
  834PNCE   AM2 7526   1.216   3.624   4.606 -0.0314 -0.1388 -0.0764
  834PNCE   T1A 7527   1.761   3.617   4.773 -0.0745  0.1966  0.4377
  834PNCE   C2A 7528   1.827   3.483   5.281  0.0910  0.2461  0.1755
  834PNCE   C3A 7529   1.585   3.220   5.642  0.2507  0.2107  0.0407
  834PNCE   C1B 7530   0.761   3.530   4.619 -0.1584 -0.1598  0.0670
  834PNCE   C2B 7531   0.423   3.399   4.917 -0.0520 -0.4552 -0.3114
  834PNCE   C3B 7532   0.261   3.102   5.331 -0.1828 -0.0523  0.1598
  834PNCE   D4B 7533   0.253   2.672   5.377 -0.3354 -0.2145 -0.2231
  834PNCE   C5B 7534   0.273   2.445   5.719 -0.0061  0.1929 -0.1803
  834PNCE   C6B 7535  -0.005   2.390   5.968 -0.0278  0.1965 -0.2091
  835CHOL   ROH 7536  12.106   6.282   5.129  0.0794 -0.0595  0.0001
  835CHOL    R1 7537  11.886   6.113   5.183  0.0008  0.0187 -0.0707
  835CHOL    R2 7538  11.913   5.840   5.219 -0.1308 -0.0155 -0.2248
  835CHOL    R3 7539  11.784   5.890   5.453 -0.0810 -0.0815 -0.1828
  835CHOL    R4 7540  11.754   5.601   5.412 -0.1414 -0.0625 -0.2915
  835CHOL    R5 7541  11.594   5.745   5.448 -0.1093 -0.0453 -0.2081
  835CHOL    C1 7542  11.540   5.509   5.743 -0.1007 -0.1519 -0.2909
  835CHOL    C2 7543  11.279   5.435   5.977  0.0133 -0.1639 -0.3724
  836CHOL   ROH 7544  13.346  12.837   5.683  0.0049 -0.3265 -0.1292
  836CHOL    R1 7545  13.200  12.745   5.907 -0.0480 -0.3157 -0.1613
  836CHOL    R2 7546  13.162  12.899   6.134 -0.0285 -0.3411 -0.1521
  836CHOL    R3 7547  12.900  12.846   6.086 -0.0427 -0.2590 -0.1785
  836CHOL    R4 7548  12.906  12.951   6.360 -0.0199 -0.2794 -0.1543
  836CHOL    R5 7549  12.817  12.763   6.295 -0.0754 -0.2561 -0.1815
  836CHOL    C1 7550  12.511  12.931   6.448 -0.0284 -0.1664 -0.1803
  836CHOL    C2 7551  12.296  12.974   6.691  0.1332 -0.2720 -0.0562
  837PNCE   AM1 7552   6.945   6.163   8.796 -0.0811 -0.1639 -0.0682
  837PNCE   AM2 7553   6.815   5.847   8.815  0.1334  0.0461  0.1724
  837PNCE   T1A 7554   6.693   6.385   8.568  0.3011 -0.1362  0.2344
  837PNCE   C2A 7555   6.437   6.219   8.264  0.2929  0.0362 -0.0997
  837PNCE   C3A 7556   6.189   6.256   7.881  0.2446 -0.0856  0.1135
  837PNCE   C1B 7557   6.854   5.927   8.341  0.0140 -0.0908 -0.4589
  837PNCE   C2B 7558   6.872   6.145   7.872  0.1376  0.1480 -0.1823
  837PNCE   C3B 7559   6.593   5.988   7.622  0.3175 -0.2217 -0.1322
  837PNCE   D4B 7560   6.232   6.115   7.427 -0.5035  0.1303 -0.0265
  837PNCE   C5B 7561   6.158   5.780   7.095 -0.0242 -0.2524  0.1479
  837PNCE   C6B 7562   5.873   5.867   6.714  0.1769 -0.0612 -0.1510
  838PNCE   AM1 7563   5.539  15.560   3.838 -0.0194 -0.0926  0.2228
  838PNCE   AM2 7564   5.800  15.715   3.619 -0.1906  0.0364 -0.4267
  838PNCE   T1A 7565   5.278  15.331   4.010 -0.2376  0.2656 -0.0722
  838PNCE   C2A 7566   5.206  15.139   4.350  0.1959  0.0815 -0.2430
  838PNCE   C3A 7567   5.157  14.810   4.632 -0.3387  0.1311 -0.1491
  838PNCE   C1B 7568   5.858  15.930   3.983  0.1012  0.2152  0.3248
  838PNCE   C2B 7569   5.623  15.844   4.299 -0.0621  0.3944  0.1911
  838PNCE   C3B 7570   5.599  15.878   4.652  0.4756  0.0248 -0.0250
  838PNCE   D4B 7571   5.769  15.635   4.988 -0.0457 -0.3358 -0.0442
  838PNCE   C5B 7572   5.597  15.469   5.407  0.1250  0.0148 -0.0373
  838PNCE   C6B 7573   5.457  15.515   5.865 -0.2706 -0.1338  0.3458
  839PNCE   AM1 7574  11.790   8.892   5.940 -0.4111  0.4162 -0.1046
  839PNCE   AM2 7575  11.506   8.870   5.713  0.0864 -0.2334 -0.0771
  839PNCE   T1A 7576  11.705   8.786   6.349 -0.0508 -0.2160  0.0354
  839PNCE   C2A 7577  11.662   8.501   6.695  0.2763  0.0838  0.0616
  839PNCE   C3A 7578  11.364   8.128   6.914 -0.1718  0.1125  0.0019
  839PNCE   C1B 7579  11.293   8.832   6.147 -0.0648 -0.3665  0.0876
  839PNCE   C2B 7580  11.253   8.751   6.533 -0.0027 -0.0481 -0.2652
  839PNCE   C3B 7581  11.069   8.809   6.924 -0.0247 -0.0621 -0.0181
  839PNCE   D4B 7582  11.298   8.516   7.188 -0.1098  0.1861  0.2395
  839PNCE   C5B 7583  11.273   8.576   7.581 -0.0640  0.0317  0.2128
  839PNCE   C6B 7584  11.507   8.696   8.037 -0.2817  0.1978 -0.0245
  840XCA    COO 7585  11.166  12.365   4.438  0.1328  0.1048 -0.1835
  840XCA     C1 7586  10.952  12.393   4.974 -0.1228  0.0607  0.0264
  840XCA     C2 7587  10.885  12.197   5.412  0.0131  0.0709  0.0921
  840XCA     C3 7588  11.019  12.055   5.774 -0.0939 -0.2361 -0.2783
  840XCA     C4 7589  11.224  12.250   6.152 -0.2226  0.1530  0.2165
  840XCA     C5 7590  11.514  12.528   6.234  0.0579 -0.0895 -0.0038
  840XCA     C6 7591  11.690  12.909   5.989  0.1559  0.0932  0.3037
  841CHOL   ROH 7592   7.283  14.245   5.799 -0.4206 -0.2031 -0.0173
  841CHOL    R1 7593   7.242  14.122   6.050 -0.0365 -0.5170 -0.1000
  841CHOL    R2 7594   7.410  13.925   6.149  0.5828 -0.0892 -0.2521
  841CHOL    R3 7595   7.426  14.092   6.363  0.0827 -0.1783 -0.1322
  841CHOL    R4 7596   7.564  13.847   6.448  0.6331  0.0750 -0.2336
  841CHOL    R5 7597   7.401  13.947   6.553  0.3319 -0.3745 -0.2389
  841CHOL    C1 7598   7.668  13.958   6.824  0.1929  0.0868 -0.1101
  841CHOL    C2 7599   8.066  13.874   7.047 -0.2078  0.1467  0.0893
  842PNCE   AM1 7600  13.970  14.203   4.677  0.0294 -0.2157 -0.0317
  842PNCE   AM2 7601  13.648  14.139   4.625  0.1868 -0.0304 -0.1943
  842PNCE   T1A 7602  13.873  14.139   5.080  0.1673 -0.0149  0.2467
  842PNCE   C2A 7603  13.748  14.074   5.521 -0.0955  0.0506 -0.4045
  842PNCE   C3A 7604  13.659  13.704   5.850 -0.2117 -0.1826 -0.3268
  842PNCE   C1B 7605  13.444  13.928   5.018 -0.2351 -0.1447 -0.1509
  842PNCE   C2B 7606  13.240  14.174   5.381 -0.1515 -0.2944  0.1451
  842PNCE   C3B 7607  13.274  14.190   5.755 -0.2310  0.1224 -0.1663
  842PNCE   D4B 7608  13.304  13.878   6.128 -0.0786  0.0216 -0.3746
  842PNCE   C5B 7609  13.487  13.512   6.285  0.3139  0.0606  0.1849
  842PNCE   C6B 7610  13.534  13.114   6.189 -0.2247 -0.1088 -0.0609
  843CHOL   ROH 7611  15.613   5.535   7.970 -0.0420  0.4518  0.0424
  843CHOL    R1 7612  15.784   5.480   7.752  0.0038  0.1717  0.1445
  843CHOL    R2 7613  15.763   5.611   7.509  0.0388 -0.1521 -0.0399
  843CHOL    R3 7614  16.026   5.665   7.552  0.0259 -0.0729 -0.0608
  843CHOL    R4 7615  15.982   5.731   7.270 -0.0251 -0.0473 -0.0462
  843CHOL    R5 7616  16.135   5.598   7.350  0.0265 -0.0088 -0.0814
  843CHOL    C1 7617  16.357   5.852   7.172 -0.0745  0.0881 -0.0693
  843CHOL    C2 7618  16.414   6.158   6.862 -0.2998  0.2360  0.0513
  844XCA    COO 7619  11.232   2.568   4.351  0.0263  0.0942 -0.1352
  844XCA     C1 7620  11.406   2.596   4.844  0.2249 -0.1825  0.1806
  844XCA     C2 7621  11.482   2.353   5.095  0.0641 -0.1174 -0.1199
  844XCA     C3 7622  11.548   2.327   5.600  0.1803  0.0849  0.1092
  844XCA     C4 7623  11.426   2.597   6.056 -0.1708 -0.3302  0.0782
  844XCA     C5 7624  11.248   2.924   6.322 -0.1762  0.0490 -0.2037
  844XCA     C6 7625  11.171   3.435   6.336 -0.1293  0.0864  0.0916
  845PNCE   AM1 7626   4.251  10.720   5.662  0.1429  0.0300 -0.0110
  845PNCE   AM2 7627   4.568  10.519   5.557  0.1544  0.1426  0.2671
  845PNCE   T1A 7628   4.110  11.065   5.996  0.2226 -0.0174 -0.2004
  845PNCE   C2A 7629   4.091  11.082   6.499 -0.2006  0.2734  0.0044
  845PNCE   C3A 7630   4.056  10.986   6.899 -0.2103 -0.1513 -0.0302
  845PNCE   C1B 7631   4.766  10.606   5.987  0.0556  0.0743  0.1478
  845PNCE   C2B 7632   4.786  10.977   6.223 -0.0822 -0.1188  0.1022
  845PNCE   C3B 7633   4.964  11.092   6.610  0.1833 -0.0995 -0.1661
  845PNCE   D4B 7634   5.080  10.916   7.016 -0.1086  0.1285  0.0550
  845PNCE   C5B 7635   5.100  11.213   7.267 -0.1226 -0.1480  0.0646
  845PNCE   C6B 7636   5.044  11.539   7.656 -0.1540  0.1616  0.4183
  846CHOL   ROH 7637   5.035   0.144   4.109 -0.0385 -0.1738 -0.1508
  846CHOL    R1 7638   5.048   0.011   4.358 -0.0934 -0.0257 -0.0682
  846CHOL    R2 7639   5.022  -0.263   4.382  0.0438 -0.0243  0.0710
  846CHOL    R3 7640   5.260  -0.242   4.511 -0.0331  0.1737  0.1869
  846CHOL    R4 7641   5.096  -0.412   4.685  0.1360 -0.2908 -0.0781
  846CHOL    R5 7642   5.201  -0.230   4.743 -0.1518 -0.1946  0.1856
  846CHOL    C1 7643   5.362  -0.479   4.983  0.1175 -0.2601 -0.0561
  846CHOL    C2 7644   5.293  -0.735   5.237  0.2711 -0.2412  0.0549
  847XCA    COO 7645  13.140  13.781   8.703  0.0070  0.4761  0.1394
  847XCA     C1 7646  13.151  13.862   8.201  0.0073 -0.0347 -0.0512
  847XCA     C2 7647  13.253  13.777   7.753  0.3408  0.1288  0.0251
  847XCA     C3 7648  13.549  13.539   7.395 -0.5035 -0.1791  0.3091
  847XCA     C4 7649  13.825  13.319   7.041  0.0077 -0.2605 -0.0189
  847XCA     C5 7650  13.925  13.497   6.646 -0.3243  0.0473  0.0313
  847XCA     C6 7651  14.113  13.470   6.223  0.1020 -0.1870 -0.0408
  848CHOL   ROH 7652  11.579   9.379   6.275  0.0149 -0.2117 -0.0639
  848CHOL    R1 7653  11.624   9.328   6.550  0.0248 -0.0189 -0.0290
  848CHOL    R2 7654  11.496   9.125   6.686  0.0505  0.0614  0.1108
  848CHOL    R3 7655  11.750   9.052   6.750  0.0589  0.1314  0.1614
  848CHOL    R4 7656  11.581   8.905   6.939  0.0663  0.2100  0.2364
  848CHOL    R5 7657  11.749   9.035   6.989  0.0486  0.2626  0.1734
  848CHOL    C1 7658  11.868   8.709   7.147  0.0834  0.3622  0.3569
  848CHOL    C2 7659  11.829   8.607   7.559  0.3086  0.3269  0.0629
  849CHOL   ROH 7660   6.761   1.325   4.534 -0.0161 -0.0525  0.0503
  849CHOL    R1 7661   6.711   1.139   4.741 -0.3112  0.1562  0.1745
  849CHOL    R2 7662   6.913   1.038   4.901 -0.4070 -0.3155  0.0102
  849CHOL    R3 7663   6.754   1.128   5.102  0.0214  0.2006  0.1397
  849CHOL    R4 7664   6.969   0.980   5.237 -0.3059 -0.4690 -0.0313
  849CHOL    R5 7665   6.754   0.950   5.262 -0.4016  0.1952  0.1454
  849CHOL    C1 7666   6.852   1.031   5.622  0.1550 -0.0739  0.0662
  849CHOL    C2 7667   6.917   0.957   6.011  0.0018 -0.1398  0.0305
  850CHOL   ROH 7668   3.982   0.057   6.864  0.3232  0.0092  0.0635
  850CHOL    R1 7669   4.057   0.218   6.644  0.1633 -0.0803 -0.0580
  850CHOL    R2 7670   4.022   0.137   6.382 -0.1416 -0.1362 -0.0035
  850CHOL    R3 7671   3.889   0.373   6.360 -0.0670 -0.0861  0.0722
  850CHOL    R4 7672   4.027   0.341   6.103 -0.2113 -0.1344 -0.0038
  850CHOL    R5 7673   4.038   0.514   6.236 -0.0775 -0.1393 -0.0040
  850CHOL    C1 7674   3.905   0.682   5.920 -0.1819 -0.0864  0.0672
  850CHOL    C2 7675   4.265   0.652   5.567  0.3196 -0.1091  0.1395
  851PNCE   AM1 7676   8.172   4.416   4.625 -0.2691  0.0952 -0.0572
  851PNCE   AM2 7677   7.979   4.684   4.587  0.0443  0.2197 -0.1963
  851PNCE   T1A 7678   7.746   4.419   4.940 -0.0113  0.0022  0.0537
  851PNCE   C2A 7679   7.675   4.605   5.365 -0.1922  0.1346 -0.0297
  851PNCE   C3A 7680   7.504   4.596   5.781 -0.0688 -0.1474  0.5265
  851PNCE   C1B 7681   7.578   4.816   4.638  0.1655  0.1597 -0.2420
  851PNCE   C2B 7682   7.305   4.809   5.021 -0.0655 -0.3118  0.0142
  851PNCE   C3B 7683   7.121   4.581   5.399  0.0582  0.2642 -0.0737
  851PNCE   D4B 7684   7.000   4.491   5.736 -0.0242  0.0321 -0.4661
  851PNCE   C5B 7685   6.814   4.075   5.838 -0.0043  0.1590 -0.2147
  851PNCE   C6B 7686   6.793   3.633   5.904  0.0746  0.0609  0.0329
  852XCA    COO 7687   2.432  12.638   4.644  0.1804 -0.2222  0.0374
  852XCA     C1 7688   2.537  12.638   5.181 -0.0624 -0.0336 -0.2011
  852XCA     C2 7689   2.780  12.699   5.605 -0.1938  0.0058  0.2776
  852XCA     C3 7690   2.947  12.897   5.967 -0.0453 -0.0563  0.0678
  852XCA     C4 7691   3.124  13.222   6.026  0.1202  0.4766  0.0575
  852XCA     C5 7692   3.455  13.440   6.278  0.0930 -0.0908 -0.0696
  852XCA     C6 7693   3.556  13.823   6.526 -0.2280  0.0280 -0.3279
  853PNCE   AM1 7694   4.289   8.906   5.146  0.1360  0.0076  0.0202
  853PNCE   AM2 7695   4.463   9.154   5.280 -0.1355 -0.2438  0.1850
  853PNCE   T1A 7696   4.290   8.646   5.448  0.0633  0.1622  0.0138
  853PNCE   C2A 7697   4.338   8.577   5.840 -0.0964 -0.0677 -0.1563
  853PNCE   C3A 7698   4.504   8.398   6.149 -0.0730 -0.1872 -0.1593
  853PNCE   C1B 7699   4.845   9.136   5.440  0.3375 -0.0458 -0.1224
  853PNCE   C2B 7700   4.854   9.204   5.850  0.0660 -0.1299  0.1171
  853PNCE   C3B 7701   4.982   9.217   6.275  0.0356  0.2268  0.0566
  853PNCE   D4B 7702   5.054   9.481   6.671 -0.0946 -0.1632 -0.0605
  853PNCE   C5B 7703   4.856   9.564   6.986  0.0369 -0.2775 -0.0095
  853PNCE   C6B 7704   4.497   9.520   7.281 -0.0655  0.0901 -0.0916
  854CHOL   ROH 7705   0.534   0.991   7.317  0.2191  0.0136 -0.0006
  854CHOL    R1 7706   0.589   0.958   7.041 -0.0106 -0.1160 -0.0346
  854CHOL    R2 7707   0.840   0.895   6.946 -0.0236  0.0975 -0.2327
  854CHOL    R3 7708   0.708   0.691   6.825  0.0786 -0.1376  0.0424
  854CHOL    R4 7709   0.990   0.649   6.755  0.0499  0.1561 -0.2493
  854CHOL    R5 7710   0.822   0.662   6.616 -0.1245 -0.1296 -0.0691
  854CHOL    C1 7711   0.953   0.314   6.530  0.1885 -0.0305 -0.0007
  854CHOL    C2 7712   1.333   0.185   6.796 -0.2266  0.4028  0.6295
  855PNCE   AM1 7713   0.146  14.444   4.345  0.1866 -0.4388  0.0826
  855PNCE   AM2 7714   0.322  14.591   4.094 -0.1799 -0.0467  0.0957
  855PNCE   T1A 7715   0.240  14.788   4.721  0.0186 -0.0332  0.1990
  855PNCE   C2A 7716   0.302  15.153   4.977  0.4401  0.1816 -0.0464
  855PNCE   C3A 7717   0.426  15.348   5.390 -0.4542 -0.1597 -0.4080
  855PNCE   C1B 7718   0.595  14.875   4.325  0.3564 -0.0505  0.4249
  855PNCE   C2B 7719   0.713  15.200   4.681  0.1197  0.0517 -0.1216
  855PNCE   C3B 7720   0.973  15.176   4.973 -0.2059  0.0121 -0.2696
  855PNCE   D4B 7721   1.111  15.306   5.413 -0.0307  0.3272  0.0231
  855PNCE   C5B 7722   1.398  15.252   5.751  0.5560 -0.3608  0.2470
  855PNCE   C6B 7723   1.878  15.166   5.860 -0.0083 -0.3219  0.1051
  856CHOL   ROH 7724  15.042   6.655   5.853  0.0467  0.1826  0.2186
  856CHOL    R1 7725  15.056   6.638   6.135 -0.0020  0.1752  0.2210
  856CHOL    R2 7726  14.832   6.644   6.296 -0.0434 -0.0039  0.1739
  856CHOL    R3 7727  14.935   6.412   6.393  0.1111  0.0664  0.1789
  856CHOL    R4 7728  14.736   6.494   6.593  0.1185 -0.0183  0.2192
  856CHOL    R5 7729  14.946   6.446   6.630  0.1546  0.1033  0.1708
  856CHOL    C1 7730  14.778   6.189   6.856  0.3575  0.0393  0.2502
  856CHOL    C2 7731  14.883   6.007   7.235 -0.0177 -0.4840 -0.2055
  857CHOL   ROH 7732   4.416   8.915   8.822  0.0024  0.0591  0.0452
  857CHOL    R1 7733   4.385   8.880   8.542 -0.1444  0.0620  0.0606
  857CHOL    R2 7734   4.451   8.646   8.413 -0.0482  0.1233 -0.0006
  857CHOL    R3 7735   4.195   8.660   8.322 -0.1177 -0.0595  0.1574
  857CHOL    R4 7736   4.298   8.406   8.217  0.0989  0.1426 -0.1420
  857CHOL    R5 7737   4.206   8.567   8.102 -0.1374  0.1597  0.0601
  857CHOL    C1 7738   3.968   8.280   8.018  0.1194 -0.0176 -0.0762
  857CHOL    C2 7739   4.158   8.104   7.658 -0.0956  0.0858 -0.1938
  858CHOL   ROH 7740  12.712  13.257   8.488  0.1132 -0.0328 -0.1416
  858CHOL    R1 7741  12.722  13.057   8.289  0.1341 -0.0769 -0.0962
  858CHOL    R2 7742  12.708  13.115   8.019  0.0551 -0.1459 -0.1054
  858CHOL    R3 7743  12.940  12.974   8.009  0.0990 -0.0736 -0.1253
  858CHOL    R4 7744  12.849  12.987   7.731  0.0068 -0.1980 -0.1062
  858CHOL    R5 7745  12.901  12.807   7.842  0.0998 -0.1449 -0.0574
  858CHOL    C1 7746  13.149  12.780   7.553  0.0197 -0.1604 -0.1255
  858CHOL    C2 7747  12.926  12.758   7.290 -0.0255  0.0503 -0.1247
  859CHOL   ROH 7748  10.861  11.781   7.230 -0.1399 -0.0083 -0.0597
  859CHOL    R1 7749  10.815  11.684   7.491 -0.0876 -0.1042 -0.0852
  859CHOL    R2 7750  10.819  11.847   7.714  0.0141 -0.1940 -0.0167
  859CHOL    R3 7751  10.572  11.742   7.756  0.0012 -0.1535  0.0066
  859CHOL    R4 7752  10.667  11.814   8.023  0.0619 -0.2375  0.0019
  859CHOL    R5 7753  10.592  11.620   7.960  0.0117 -0.2047 -0.0280
  859CHOL    C1 7754  10.347  11.696   8.242  0.0777 -0.2246  0.0346
  859CHOL    C2 7755  10.117  11.832   8.470  0.0721 -0.4514  0.4106
  860PNCE   AM1 7756   2.039   6.674   5.517 -0.0525 -0.1608  0.0072
  860PNCE   AM2 7757   2.265   6.858   5.687  0.0925  0.1718  0.0221
  860PNCE   T1A 7758   2.053   6.399   5.840  0.2008 -0.1292 -0.0411
  860PNCE   C2A 7759   2.000   6.300   6.206 -0.0609  0.3264 -0.2552
  860PNCE   C3A 7760   2.001   6.325   6.638 -0.1249 -0.0668 -0.3536
  860PNCE   C1B 7761   2.164   6.789   6.136  0.0182  0.4683  0.0208
  860PNCE   C2B 7762   2.144   6.811   6.516 -0.0212  0.0665 -0.0499
  860PNCE   C3B 7763   1.861   6.741   6.968  0.1561  0.0735 -0.0622
  860PNCE   D4B 7764   1.616   6.651   7.218  0.4120  0.0059 -0.1292
  860PNCE   C5B 7765   1.718   6.471   7.526 -0.2685 -0.0431  0.1617
  860PNCE   C6B 7766   2.001   6.647   7.830  0.0185 -0.1410 -0.1578
  861PNCE   AM1 7767   4.598  12.667   4.930 -0.1992 -0.0761  0.1599
  861PNCE   AM2 7768   4.847  12.740   4.716  0.0785 -0.0320 -0.0223
  861PNCE   T1A 7769   4.779  12.595   5.284 -0.1024  0.1092 -0.2983
  861PNCE   C2A 7770   4.714  12.641   5.694  0.2111  0.1725 -0.1187
  861PNCE   C3A 7771   4.819  12.785   6.114  0.0695  0.1339 -0.0875
  861PNCE   C1B 7772   4.823  13.106   5.107 -0.3058  0.2824 -0.2822
  861PNCE   C2B 7773   4.539  13.488   5.381 -0.1582  0.1044 -0.1625
  861PNCE   C3B 7774   4.228  13.612   5.710 -0.0419 -0.0661  0.1032
  861PNCE   D4B 7775   4.021  13.904   5.753 -0.0506 -0.0017 -0.1617
  861PNCE   C5B 7776   3.806  13.814   5.394 -0.0329  0.0312 -0.0880
  861PNCE   C6B 7777   3.438  13.502   5.235  0.0683 -0.1482 -0.3562
  862XCA    COO 7778   4.194   7.939   5.018  0.0846  0.0374 -0.2090
  862XCA     C1 7779   4.343   7.615   5.323  0.2621  0.0132  0.0470
  862XCA     C2 7780   4.365   7.249   5.585 -0.0362 -0.2881 -0.2408
  862XCA     C3 7781   4.364   6.839   5.780 -0.3174  0.1295 -0.0082
  862XCA     C4 7782   4.528   6.381   5.741 -0.1475  0.2852 -0.0110
  862XCA     C5 7783   4.773   6.127   5.853  0.2497  0.0989  0.2760
  862XCA     C6 7784   4.857   5.862   6.255  0.1320  0.0736 -0.0744
  863CHOL   ROH 7785  14.237   7.811   7.157  0.0706  0.1057  0.1441
  863CHOL    R1 7786  14.064   7.648   7.311  0.0525  0.1049  0.1248
  863CHOL    R2 7787  14.051   7.665   7.587  0.0751  0.0522  0.1334
  863CHOL    R3 7788  13.786   7.701   7.539  0.0801  0.1115  0.1553
  863CHOL    R4 7789  13.796   7.576   7.803  0.0552 -0.1734  0.0196
  863CHOL    R5 7790  13.681   7.508   7.633  0.0661  0.0152 -0.0614
  863CHOL    C1 7791  13.399   7.559   7.884  0.0484 -0.2490 -0.0260
  863CHOL    C2 7792  12.994   7.558   8.136  0.0832 -0.4102 -0.3263
  864PNCE   AM1 7793   8.865   8.442   4.877  0.2705  0.1081  0.1139
  864PNCE   AM2 7794   9.050   8.173   4.850 -0.0849  0.1529  0.2751
  864PNCE   T1A 7795   8.493   8.181   5.172  0.2268 -0.2252  0.0714
  864PNCE   C2A 7796   8.477   8.209   5.652 -0.0400 -0.2474 -0.0481
  864PNCE   C3A 7797   8.494   8.325   6.086  0.0114  0.1694  0.1137
  864PNCE   C1B 7798   8.950   8.171   5.276  0.0615  0.3520 -0.1410
  864PNCE   C2B 7799   9.274   7.931   5.519 -0.4253 -0.2114  0.0571
  864PNCE   C3B 7800   9.145   7.682   5.831 -0.0991 -0.2044 -0.1200
  864PNCE   D4B 7801   9.354   7.294   6.047 -0.0454  0.0023  0.2061
  864PNCE   C5B 7802   9.423   7.306   6.427  0.0110 -0.2506  0.1391
  864PNCE   C6B 7803   9.493   7.565   6.714  0.0833 -0.0603  0.0767
  865PNCE   AM1 7804   2.795  13.558   4.813  0.0028 -0.1568  0.1462
  865PNCE   AM2 7805   2.974  13.421   4.568  0.1395 -0.0228 -0.0460
  865PNCE   T1A 7806   2.904  13.641   5.206  0.1124  0.0202  0.0962
  865PNCE   C2A 7807   2.998  13.570   5.549  0.0245 -0.0931 -0.1450
  865PNCE   C3A 7808   3.081  13.744   5.987 -0.2838  0.0149  0.1345
  865PNCE   C1B 7809   3.455  13.459   4.636 -0.0269 -0.1156  0.0952
  865PNCE   C2B 7810   3.771  13.636   4.875  0.0735  0.0207 -0.2144
  865PNCE   C3B 7811   4.195  13.694   5.095 -0.1278  0.2810 -0.1977
  865PNCE   D4B 7812   4.328  13.923   5.324  0.4259 -0.1118  0.3182
  865PNCE   C5B 7813   4.543  13.949   5.692 -0.2453  0.3024  0.1010
  865PNCE   C6B 7814   4.796  14.149   6.018 -0.1410 -0.1030  0.0080
  866PNCE   AM1 7815   0.484   5.330   5.319  0.0824 -0.2355 -0.0886
  866PNCE   AM2 7816   0.166   5.315   5.519  0.0738 -0.2506  0.0533
  866PNCE   T1A 7817   0.677   5.040   5.595  0.2067 -0.2226 -0.1984
  866PNCE   C2A 7818   0.699   4.925   5.982 -0.1592  0.3676 -0.0655
  866PNCE   C3A 7819   0.542   5.132   6.396 -0.1157 -0.3284  0.2812
  866PNCE   C1B 7820   0.300   5.244   5.842 -0.3347  0.2919  0.2909
  866PNCE   C2B 7821   0.065   5.036   6.164  0.2014 -0.1267 -0.1451
  866PNCE   C3B 7822  -0.297   5.048   6.223  0.2022 -0.0062 -0.0766
  866PNCE   D4B 7823  -0.597   5.064   6.620  0.2409  0.1683  0.0222
  866PNCE   C5B 7824  -0.528   5.298   6.971 -0.2888  0.1561 -0.0781
  866PNCE   C6B 7825  -0.930   5.449   7.299  0.0077  0.0317 -0.0401
  867CHOL   ROH 7826   5.267  13.055   8.384 -0.0344  0.3006 -0.0639
  867CHOL    R1 7827   5.171  12.878   8.185  0.0394  0.2343 -0.0413
  867CHOL    R2 7828   4.907  12.800   8.170  0.0730  0.1146 -0.0267
  867CHOL    R3 7829   4.927  12.891   7.915  0.0270  0.0944 -0.0375
  867CHOL    R4 7830   4.739  12.666   7.900  0.0990  0.0309 -0.0014
  867CHOL    R5 7831   4.921  12.692   7.781  0.0830  0.0777 -0.0158
  867CHOL    C1 7832   4.660  12.673   7.502  0.0710 -0.0366  0.0032
  867CHOL    C2 7833   4.486  12.412   7.361  0.2269  0.2751 -0.2684
  868PNCE   AM1 7834   6.743   3.188   4.589 -0.1020 -0.0824  0.1452
  868PNCE   AM2 7835   6.661   3.477   4.664 -0.0284 -0.0468 -0.1208
  868PNCE   T1A 7836   6.875   3.068   4.995 -0.1884 -0.1273  0.1323
  868PNCE   C2A 7837   7.026   2.904   5.416 -0.3665 -0.2060  0.0999
  868PNCE   C3A 7838   7.284   2.585   5.446 -0.2644 -0.0208 -0.3226
  868PNCE   C1B 7839   6.407   3.468   5.050 -0.0056 -0.2201 -0.1060
  868PNCE   C2B 7840   6.119   3.651   5.264 -0.0649 -0.4039 -0.4659
  868PNCE   C3B 7841   5.858   3.793   5.469 -0.4282 -0.1250  0.1982
  868PNCE   D4B 7842   5.456   3.915   5.478  0.1304 -0.3063 -0.0207
  868PNCE   C5B 7843   5.396   4.263   5.782 -0.4835 -0.1712  0.1596
  868PNCE   C6B 7844   5.547   4.723   5.715  0.4064  0.4333  0.1707
  869PNCE   AM1 7845  14.460  15.005   4.741  0.1180  0.1888  0.0208
  869PNCE   AM2 7846  14.258  15.216   4.498 -0.1132 -0.0868 -0.0150
  869PNCE   T1A 7847  14.392  15.128   5.161  0.1638  0.0117  0.1509
  869PNCE   C2A 7848  14.556  15.270   5.415 -0.1214  0.1323  0.1636
  869PNCE   C3A 7849  14.593  15.300   5.847 -0.0508 -0.2314 -0.0023
  869PNCE   C1B 7850  14.044  15.394   4.915  0.3305  0.3186  0.0950
  869PNCE   C2B 7851  14.200  15.616   5.357 -0.0120  0.2628  0.0549
  869PNCE   C3B 7852  14.133  15.482   5.778 -0.1532 -0.2106  0.0002
  869PNCE   D4B 7853  14.427  15.720   6.073 -0.1588  0.2625  0.0955
  869PNCE   C5B 7854  14.918  15.787   5.956 -0.1679  0.3307  0.1152
  869PNCE   C6B 7855  15.242  15.605   5.904 -0.1264 -0.2155  0.1717
  870XCA    COO 7856  12.151  13.965   7.016 -0.1748  0.0193  0.0811
  870XCA     C1 7857  12.082  13.956   6.603  0.3008  0.0743  0.3640
  870XCA     C2 7858  11.775  13.979   6.260 -0.0256 -0.0478  0.0027
  870XCA     C3 7859  11.440  14.186   5.988  0.5966 -0.0539 -0.0105
  870XCA     C4 7860  11.150  14.390   6.164  0.1234  0.0070  0.1644
  870XCA     C5 7861  10.818  14.639   6.125 -0.1186  0.0166 -0.1912
  870XCA     C6 7862  10.677  15.076   5.967  0.1187  0.0210 -0.2429
  871CHOL   ROH 7863   2.842   1.776   4.022  0.2065 -0.1443  0.0189
  871CHOL    R1 7864   2.770   1.804   4.294  0.2227 -0.0948  0.0183
  871CHOL    R2 7865   2.895   1.984   4.463  0.0555  0.1259 -0.0881
  871CHOL    R3 7866   2.641   2.070   4.507 -0.0346 -0.1336 -0.0853
  871CHOL    R4 7867   2.775   2.095   4.767 -0.0076  0.1422 -0.1191
  871CHOL    R5 7868   2.588   1.989   4.726  0.0983 -0.0872 -0.0340
  871CHOL    C1 7869   2.466   2.240   4.986 -0.1289 -0.0919 -0.1346
  871CHOL    C2 7870   2.620   2.247   5.354 -0.1020 -0.0566  0.0707
  872CHOL   ROH 7871   7.104   4.166   7.958  0.0695 -0.1377  0.0121
  872CHOL    R1 7872   7.142   4.283   7.703  0.0485 -0.0610  0.0443
  872CHOL    R2 7873   7.170   4.133   7.473  0.0336  0.0092 -0.0015
  872CHOL    R3 7874   6.965   4.288   7.385  0.0256  0.0324  0.0574
  872CHOL    R4 7875   7.076   4.165   7.142 -0.1709 -0.1299  0.0418
  872CHOL    R5 7876   7.044   4.378   7.177 -0.0776 -0.0985 -0.0426
  872CHOL    C1 7877   6.828   4.329   6.867 -0.2976 -0.1892  0.1222
  872CHOL    C2 7878   6.525   4.584   6.818 -0.1925  0.1306  0.0072
  873XCA    COO 7879  11.213  15.602   4.443  0.1840  0.2391  0.1799
  873XCA     C1 7880  11.269  15.605   4.897  0.1161 -0.1553  0.1022
  873XCA     C2 7881  11.441  15.822   5.241 -0.4581  0.0265  0.0293
  873XCA     C3 7882  11.387  15.933   5.647 -0.0065 -0.2413  0.1255
  873XCA     C4 7883  11.234  15.810   5.977  0.3890  0.0236 -0.0263
  873XCA     C5 7884  11.102  15.780   6.394 -0.1878  0.1698 -0.2174
  873XCA     C6 7885  11.222  15.469   6.715  0.2527 -0.6459 -0.3598
  874CHOL   ROH 7886   1.710   0.536   8.139  0.1284  0.0576 -0.2321
  874CHOL    R1 7887   1.580   0.381   7.941  0.2836  0.0691 -0.3484
  874CHOL    R2 7888   1.713   0.275   7.723  0.4969 -0.0631 -0.1734
  874CHOL    R3 7889   1.605   0.042   7.812  0.2753  0.0230 -0.2190
  874CHOL    R4 7890   1.660  -0.005   7.528  0.1899  0.0210 -0.2119
  874CHOL    R5 7891   1.469  -0.034   7.630  0.1831  0.1878 -0.2068
  874CHOL    C1 7892   1.527  -0.387   7.498 -0.1969  0.1509 -0.2772
  874CHOL    C2 7893   1.609  -0.748   7.275 -0.0365 -0.0867  0.1364
  875PNCE   AM1 7894  15.624  14.814   4.444 -0.0126 -0.0306  0.2000
  875PNCE   AM2 7895  15.375  14.661   4.573  0.1187 -0.1898 -0.2313
  875PNCE   T1A 7896  15.711  15.076   4.665 -0.1392 -0.1031  0.3269
  875PNCE   C2A 7897  15.603  15.251   5.035  0.0996  0.1109 -0.1994
  875PNCE   C3A 7898  15.497  15.420   5.527  0.0225 -0.1211  0.1532
  875PNCE   C1B 7899  15.532  14.649   4.932 -0.0230 -0.3508  0.0552
  875PNCE   C2B 7900  15.731  14.750   5.267  0.0699 -0.2995 -0.1555
  875PNCE   C3B 7901  15.886  15.066   5.442 -0.1643  0.0387  0.2435
  875PNCE   D4B 7902  15.944  15.335   5.836 -0.1160 -0.3040 -0.0182
  875PNCE   C5B 7903  15.534  15.191   5.980 -0.1317  0.0348 -0.1189
  875PNCE   C6B 7904  15.335  15.335   6.402  0.1495  0.2537 -0.0142
  876CHOL   ROH 7905  12.072   3.077   5.948  0.1421  0.0953 -0.3307
  876CHOL    R1 7906  12.233   3.215   6.136  0.1627  0.0856 -0.3406
  876CHOL    R2 7907  12.301   3.107   6.382 -0.1046  0.2145 -0.2042
  876CHOL    R3 7908  12.554   3.160   6.299  0.0058 -0.1131 -0.0916
  876CHOL    R4 7909  12.576   3.131   6.589 -0.1835 -0.0204 -0.0687
  876CHOL    R5 7910  12.645   3.300   6.470  0.0770 -0.1478 -0.1026
  876CHOL    C1 7911  12.974   3.195   6.632 -0.1257 -0.4646  0.1159
  876CHOL    C2 7912  13.256   3.150   6.894  0.0176  0.0747  0.1045
  877CHOL   ROH 7913  13.450   9.973   8.831 -0.1624  0.0087  0.0448
  877CHOL    R1 7914  13.525   9.977   8.558 -0.0162  0.0973  0.0847
  877CHOL    R2 7915  13.456   9.775   8.382  0.2547  0.0491  0.0272
  877CHOL    R3 7916  13.354   9.981   8.237  0.1524 -0.0259 -0.0074
  877CHOL    R4 7917  13.382   9.760   8.045  0.2073 -0.0591  0.0425
  877CHOL    R5 7918  13.462   9.961   8.023  0.1252 -0.0344 -0.0190
  877CHOL    C1 7919  13.242   9.944   7.712  0.0837 -0.1925  0.0189
  877CHOL    C2 7920  13.057  10.129   7.410 -0.1537  0.0773 -0.1517
  878CHOL   ROH 7921  15.814  11.407   5.979 -0.1624 -0.0543 -0.1353
  878CHOL    R1 7922  15.562  11.494   6.074 -0.1073  0.0523 -0.0862
  878CHOL    R2 7923  15.505  11.519   6.343 -0.0576  0.0355 -0.0750
  878CHOL    R3 7924  15.436  11.772   6.273  0.0541  0.0813 -0.0229
  878CHOL    R4 7925  15.311  11.731   6.535  0.1891  0.1498  0.0536
  878CHOL    R5 7926  15.212  11.797   6.352  0.1163  0.2170  0.1164
  878CHOL    C1 7927  15.134  12.093   6.580  0.4377  0.2592  0.1773
  878CHOL    C2 7928  14.966  12.327   6.758  0.3698 -0.2466  0.1801
  879CHOL   ROH 7929   4.800   5.165   8.566 -0.1970 -0.1183  0.1070
  879CHOL    R1 7930   4.774   5.176   8.284 -0.0798 -0.1263  0.0953
  879CHOL    R2 7931   4.901   4.998   8.115 -0.1343 -0.2287  0.1629
  879CHOL    R3 7932   4.649   4.957   8.022 -0.1268 -0.0670  0.0672
  879CHOL    R4 7933   4.796   5.069   7.794  0.0315 -0.1475  0.1250
  879CHOL    R5 7934   4.608   5.143   7.877  0.0449 -0.0329  0.0587
  879CHOL    C1 7935   4.498   5.071   7.519  0.1349  0.0515  0.0133
  879CHOL    C2 7936   4.356   5.266   7.279 -0.0110  0.2237  0.2118
  880CHOL   ROH 7937  14.126   2.770   7.397  0.0700  0.2290 -0.0445
  880CHOL    R1 7938  14.346   2.766   7.218  0.1071  0.0163  0.0025
  880CHOL    R2 7939  14.589   2.652   7.284  0.0330 -0.0787  0.1131
  880CHOL    R3 7940  14.549   2.512   7.054  0.0093 -0.1807  0.1796
  880CHOL    R4 7941  14.841   2.519   7.089  0.0303  0.0088  0.0515
  880CHOL    R5 7942  14.729   2.581   6.912 -0.0913 -0.1168  0.0768
  880CHOL    C1 7943  14.951   2.311   6.759  0.0065 -0.0361  0.0779
  880CHOL    C2 7944  15.421   2.225   6.673 -0.1007 -0.2232 -0.1718
  881PNCE   AM1 7945   0.483  11.812   5.228 -0.1817  0.1974 -0.2569
  881PNCE   AM2 7946   0.557  12.093   5.335  0.0471 -0.2845  0.1514
  881PNCE   T1A 7947   0.281  12.017   5.712  0.0260 -0.2195 -0.1868
  881PNCE   C2A 7948  -0.014  11.944   6.015  0.1568  0.1852  0.2869
  881PNCE   C3A 7949  -0.112  12.088   6.341 -0.1961  0.0873 -0.2238
  881PNCE   C1B 7950   0.452  12.473   5.597  0.0266 -0.0630  0.1165
  881PNCE   C2B 7951   0.452  12.711   5.985  0.1299  0.3119 -0.0753
  881PNCE   C3B 7952   0.044  12.922   6.119  0.0072  0.1740  0.1827
  881PNCE   D4B 7953  -0.390  13.135   6.217 -0.1162  0.3029  0.2050
  881PNCE   C5B 7954  -0.535  13.547   6.137 -0.0237 -0.0337  0.1624
  881PNCE   C6B 7955  -0.727  13.919   5.938  0.0763  0.2187  0.1640
  882XCA    COO 7956   8.344   9.277   5.015 -0.4388  0.0018 -0.1158
  882XCA     C1 7957   8.629   9.091   5.415  0.2467  0.0924 -0.2419
  882XCA     C2 7958   8.702   9.056   5.900 -0.1600 -0.2408 -0.4506
  882XCA     C3 7959   8.609   8.775   6.281  0.0718 -0.2801  0.0652
  882XCA     C4 7960   8.444   8.396   6.554 -0.3202  0.1748  0.0534
  882XCA     C5 7961   8.508   8.057   6.857 -0.1064 -0.1434 -0.0305
  882XCA     C6 7962   8.506   7.618   7.030 -0.1733 -0.2319 -0.0692
  883XCA    COO 7963   1.066  13.667   4.930 -0.0882 -0.0305 -0.2162
  883XCA     C1 7964   1.210  13.837   5.351 -0.1698 -0.2590 -0.1117
  883XCA     C2 7965   1.363  13.881   5.715  0.5156 -0.0009  0.2832
  883XCA     C3 7966   1.412  14.011   6.141 -0.1282 -0.1381 -0.0782
  883XCA     C4 7967   1.555  14.012   6.565  0.0046  0.4557  0.3880
  883XCA     C5 7968   1.794  13.888   6.954 -0.2783  0.1746 -0.2556
  883XCA     C6 7969   2.245  14.060   7.068 -0.0690 -0.0367 -0.0943
  884PNCE   AM1 7970  15.406   3.027   4.327 -0.1564 -0.1066 -0.2257
  884PNCE   AM2 7971  15.142   2.918   4.554  0.2739  0.1286  0.0021
  884PNCE   T1A 7972  15.633   2.843   4.668 -0.1047 -0.2492  0.0594
  884PNCE   C2A 7973  15.600   2.683   5.110  0.0676 -0.0662  0.2476
  884PNCE   C3A 7974  15.623   2.717   5.694 -0.0480  0.1965  0.0867
  884PNCE   C1B 7975  15.288   3.058   4.964 -0.0688  0.1585  0.0492
  884PNCE   C2B 7976  15.320   3.074   5.409 -0.3754 -0.0032 -0.1618
  884PNCE   C3B 7977  15.197   2.998   5.884 -0.0277 -0.0714 -0.1955
  884PNCE   D4B 7978  14.970   2.950   6.261  0.1419  0.2102  0.0143
  884PNCE   C5B 7979  14.724   2.516   6.194 -0.0972  0.2622  0.2099
  884PNCE   C6B 7980  14.479   2.373   5.909  0.0402  0.0491  0.0308
  885CHOL   ROH 7981  12.282  10.797   6.409 -0.0690 -0.1362 -0.0370
  885CHOL    R1 7982  12.266  10.903   6.671  0.0238 -0.0851 -0.0512
  885CHOL    R2 7983  12.246  11.174   6.722 -0.0251 -0.0786 -0.0992
  885CHOL    R3 7984  12.027  11.099   6.863  0.0595 -0.1084  0.0170
  885CHOL    R4 7985  12.110  11.352   6.984 -0.0253  0.0023 -0.1541
  885CHOL    R5 7986  12.076  11.164   7.088  0.1029  0.0435 -0.0356
  885CHOL    C1 7987  11.824  11.385   7.270  0.0539  0.0213 -0.0771
  885CHOL    C2 7988  11.578  11.661   7.232  0.0968 -0.0349 -0.3664
  886XCA    COO 7989   7.413   1.089   7.816 -0.2187  0.0427  0.1722
  886XCA     C1 7990   7.537   1.448   7.587 -0.1070  0.3948  0.0653
  886XCA     C2 7991   7.894   1.739   7.535 -0.0800  0.0091 -0.0157
  886XCA     C3 7992   8.367   1.814   7.498  0.0573  0.1313 -0.2685
  886XCA     C4 7993   8.641   1.597   7.169  0.2443  0.0696  0.1212
  886XCA     C5 7994   9.058   1.572   6.989  0.0079 -0.2504 -0.1799
  886XCA     C6 7995   9.473   1.583   6.932  0.0297  0.1202 -0.1752
  887PNCE   AM1 7996  10.222   9.891   4.957  0.2451  0.1198  0.2279
  887PNCE   AM2 7997  10.392   9.726   5.175 -0.1317  0.1818 -0.1112
  887PNCE   T1A 7998   9.878   9.913   5.149  0.0818  0.3800 -0.0127
  887PNCE   C2A 7999   9.792  10.005   5.565  0.0117  0.0891 -0.0833
  887PNCE   C3A 8000   9.756   9.898   6.022  0.2628 -0.0096 -0.0432
  887PNCE   C1B 8001  10.130   9.542   5.535  0.1602  0.1427  0.1369
  887PNCE   C2B 8002  10.093   9.561   5.971 -0.3309  0.1163 -0.1241
  887PNCE   C3B 8003  10.192   9.794   6.373 -0.0359 -0.1575 -0.0022
  887PNCE   D4B 8004  10.001   9.932   6.638  0.0072  0.1676 -0.1338
  887PNCE   C5B 8005   9.929   9.669   6.878  0.2386 -0.0544  0.1935
  887PNCE   C6B 8006   9.997   9.439   7.200 -0.3211 -0.1301 -0.1588
  888PNCE   AM1 8007  11.962   8.376   5.969  0.1421 -0.1673 -0.1771
  888PNCE   AM2 8008  12.194   8.142   6.061  0.0005 -0.2178 -0.2345
  888PNCE   T1A 8009  12.082   8.429   6.469 -0.1633 -0.2678 -0.1589
  888PNCE   C2A 8010  12.069   8.306   6.890 -0.2768  0.1601  0.0410
  888PNCE   C3A 8011  11.790   8.242   7.118  0.0664 -0.0480 -0.2353
  888PNCE   C1B 8012  12.199   7.857   6.452 -0.1104 -0.3851  0.2219
  888PNCE   C2B 8013  12.155   7.806   6.955 -0.0230  0.1894 -0.0502
  888PNCE   C3B 8014  12.255   7.960   7.393 -0.0423 -0.2589 -0.0007
  888PNCE   D4B 8015  12.048   7.705   7.774 -0.1742 -0.3443 -0.2023
  888PNCE   C5B 8016  11.614   7.516   7.626  0.1148  0.1429  0.1660
  888PNCE   C6B 8017  11.261   7.310   7.352 -0.1522 -0.3157  0.0121
  889PNCE   AM1 8018  14.537   7.840   5.453 -0.0811 -0.2612  0.1088
  889PNCE   AM2 8019  14.484   7.528   5.352  0.0015  0.2049  0.2154
  889PNCE   T1A 8020  14.622   7.816   5.989 -0.2377 -0.1543  0.0296
  889PNCE   C2A 8021  14.597   7.602   6.405  0.0705  0.2637  0.1818
  889PNCE   C3A 8022  14.691   7.470   6.827 -0.0470 -0.1040  0.0810
  889PNCE   C1B 8023  14.318   7.187   5.651  0.2002 -0.1533  0.0927
  889PNCE   C2B 8024  14.324   7.327   6.122  0.1616 -0.0389 -0.3547
  889PNCE   C3B 8025  14.231   7.214   6.567  0.1842 -0.0759  0.1019
  889PNCE   D4B 8026  14.296   7.258   7.094  0.0772  0.1863  0.0376
  889PNCE   C5B 8027  14.521   7.542   7.322 -0.2435 -0.0558  0.0781
  889PNCE   C6B 8028  14.892   7.689   7.535  0.2533  0.0726 -0.3647
  890CHOL   ROH 8029   6.630   5.539   8.477 -0.2965  0.1217  0.1219
  890CHOL    R1 8030   6.419   5.572   8.292 -0.1514  0.1290 -0.0469
  890CHOL    R2 8031   6.431   5.753   8.083  0.0057  0.1566 -0.0229
  890CHOL    R3 8032   6.373   5.534   7.933  0.1450  0.1656 -0.0893
  890CHOL    R4 8033   6.216   5.750   7.812 -0.1476  0.0509  0.0994
  890CHOL    R5 8034   6.141   5.557   7.881  0.0923 -0.0554  0.0539
  890CHOL    C1 8035   6.036   5.543   7.514 -0.1062 -0.0021  0.1083
  890CHOL    C2 8036   6.032   5.279   7.309  0.0435  0.0108  0.0103
  891PNCE   AM1 8037   0.038  13.280   4.553  0.4545 -0.0398 -0.1222
  891PNCE   AM2 8038   0.366  13.464   4.569  0.2594  0.0088 -0.3646
  891PNCE   T1A 8039  -0.168  13.224   4.954 -0.1288 -0.0452  0.1519
  891PNCE   C2A 8040  -0.250  13.027   5.260  0.3228 -0.0388 -0.0138
  891PNCE   C3A 8041   0.037  12.802   5.614 -0.0306 -0.0088 -0.1814
  891PNCE   C1B 8042   0.618  13.459   4.959 -0.0277 -0.1307 -0.2225
  891PNCE   C2B 8043   0.718  13.514   5.377  0.0458 -0.2243  0.3272
  891PNCE   C3B 8044   0.546  13.624   5.731 -0.0179  0.0288  0.4909
  891PNCE   D4B 8045   0.469  13.717   6.138  0.2789 -0.4787 -0.2147
  891PNCE   C5B 8046   0.549  14.092   6.433  0.2386 -0.0605 -0.0305
  891PNCE   C6B 8047   0.626  14.355   6.662  0.1881 -0.0098  0.0562
  892PNCE   AM1 8048  13.402  12.696   5.124 -0.2057  0.0878 -0.1740
  892PNCE   AM2 8049  13.372  13.016   5.235  0.2080 -0.2633  0.1707
  892PNCE   T1A 8050  13.306  12.441   5.434  0.0354 -0.3622  0.0441
  892PNCE   C2A 8051  13.399  12.203   5.838  0.1721  0.1960  0.1610
  892PNCE   C3A 8052  13.214  11.843   5.926  0.1398 -0.3941 -0.1966
  892PNCE   C1B 8053  12.955  12.969   5.455 -0.1152 -0.0909 -0.3103
  892PNCE   C2B 8054  12.752  13.213   5.801 -0.1072 -0.0505  0.1345
  892PNCE   C3B 8055  12.588  13.215   6.131 -0.1392 -0.1293  0.1162
  892PNCE   D4B 8056  12.697  13.352   6.558  0.2159  0.0470 -0.2825
  892PNCE   C5B 8057  13.082  13.323   6.564  0.1374  0.0399 -0.0280
  892PNCE   C6B 8058  13.429  13.301   6.738 -0.2212  0.0830 -0.1879
  893CHOL   ROH 8059   2.741   7.438   9.544  0.2928 -0.0835  0.0031
  893CHOL    R1 8060   2.872   7.400   9.295  0.2733  0.0394 -0.0268
  893CHOL    R2 8061   2.749   7.278   9.080  0.3687 -0.1639  0.0316
  893CHOL    R3 8062   2.821   7.506   8.951  0.0346 -0.0907 -0.0343
  893CHOL    R4 8063   2.858   7.293   8.752  0.5004 -0.1269  0.0770
  893CHOL    R5 8064   3.007   7.441   8.814  0.2197  0.1646  0.0848
  893CHOL    C1 8065   2.990   7.516   8.441  0.2636 -0.0368  0.0415
  893CHOL    C2 8066   3.038   7.457   8.112 -0.2137  0.0342  0.0653
  894XCA    COO 8067  15.739  10.794   5.692 -0.0118 -0.0087  0.0980
  894XCA     C1 8068  15.535  11.068   5.945 -0.3218 -0.0341  0.3147
  894XCA     C2 8069  15.340  11.071   6.393  0.0824  0.2958  0.0015
  894XCA     C3 8070  15.201  10.817   6.704 -0.0789 -0.2048  0.1721
  894XCA     C4 8071  14.714  10.859   6.711 -0.1143  0.1554  0.2241
  894XCA     C5 8072  14.395  10.587   6.889  0.0366  0.0716 -0.0477
  894XCA     C6 8073  14.509  10.282   7.122 -0.0443  0.0346  0.1552
  895PNCE   AM1 8074  12.243   7.517   5.296  0.3178 -0.1739  0.2611
  895PNCE   AM2 8075  12.453   7.752   5.417 -0.0464 -0.1735 -0.2811
  895PNCE   T1A 8076  12.288   7.295   5.791  0.4806 -0.2121 -0.1697
  895PNCE   C2A 8077  12.317   7.120   6.244 -0.0549 -0.0226 -0.2895
  895PNCE   C3A 8078  12.376   7.397   6.601  0.0159 -0.0806 -0.2041
  895PNCE   C1B 8079  12.504   7.816   5.912 -0.1803 -0.1399  0.3619
  895PNCE   C2B 8080  12.689   7.537   6.217  0.0445 -0.0456 -0.2259
  895PNCE   C3B 8081  12.819   7.637   6.745  0.2651 -0.0117  0.1642
  895PNCE   D4B 8082  12.639   7.653   7.192  0.0843 -0.1843 -0.0293
  895PNCE   C5B 8083  12.790   7.700   7.628  0.1541 -0.2047 -0.1932
  895PNCE   C6B 8084  12.905   8.015   8.005  0.0662 -0.1008 -0.0694
  896XCA    COO 8085   8.449   4.885   4.366 -0.0530  0.1125 -0.1902
  896XCA     C1 8086   8.501   5.125   4.744 -0.3611 -0.1405  0.0884
  896XCA     C2 8087   8.668   5.481   4.862  0.0874 -0.0946  0.2571
  896XCA     C3 8088   8.861   5.846   4.579 -0.2275  0.2710  0.0909
  896XCA     C4 8089   9.130   5.962   4.351 -0.0368  0.0031 -0.0995
  896XCA     C5 8090   9.377   6.381   4.329  0.0747  0.1643  0.1765
  896XCA     C6 8091   9.144   6.758   4.055  0.0758 -0.0638 -0.0747
  897CHOL   ROH 8092  10.538   9.859   8.727 -0.2114 -0.0565  0.1715
  897CHOL    R1 8093  10.678   9.890   8.483 -0.0388 -0.2144  0.2490
  897CHOL    R2 8094  10.626  10.096   8.307 -0.1566 -0.5189 -0.0793
  897CHOL    R3 8095  10.893  10.141   8.331 -0.2282 -0.1417  0.0935
  897CHOL    R4 8096  10.823  10.250   8.068 -0.1667 -0.5452 -0.1050
  897CHOL    R5 8097  10.980  10.105   8.111 -0.0030 -0.2976  0.2007
  897CHOL    C1 8098  11.188  10.382   7.952 -0.2398 -0.2063  0.0422
  897CHOL    C2 8099  11.299  10.323   7.499 -0.1410  0.1320 -0.1290
  898CHOL   ROH 8100   6.777   2.218   4.251 -0.2605  0.3317 -0.1622
  898CHOL    R1 8101   6.576   2.291   4.436 -0.3082 -0.0097 -0.0737
  898CHOL    R2 8102   6.426   2.105   4.574  0.2149 -0.2756  0.1533
  898CHOL    R3 8103   6.514   2.243   4.791  0.0498  0.0756  0.0067
  898CHOL    R4 8104   6.232   2.187   4.847  0.1568 -0.4270  0.1596
  898CHOL    R5 8105   6.329   2.382   4.852 -0.2058 -0.2220 -0.0403
  898CHOL    C1 8106   6.201   2.365   5.211 -0.0321 -0.1855  0.0258
  898CHOL    C2 8107   5.844   2.552   5.322  0.0611 -0.0969  0.1910
  899CHOL   ROH 8108  11.224   6.508   5.437 -0.0939  0.1634  0.0528
  899CHOL    R1 8109  11.040   6.488   5.651 -0.0432  0.1916  0.1009
  899CHOL    R2 8110  11.017   6.261   5.807 -0.2020  0.1007 -0.0394
  899CHOL    R3 8111  11.057   6.436   6.011  0.0349 -0.0661  0.0603
  899CHOL    R4 8112  10.883   6.228   6.123 -0.2781  0.1338 -0.0691
  899CHOL    R5 8113  10.846   6.443   6.124  0.0374  0.1853  0.0441
  899CHOL    C1 8114  10.841   6.373   6.499 -0.1001 -0.0034  0.0071
  899CHOL    C2 8115  10.940   6.070   6.813  0.1363 -0.0191 -0.1011
  900CHOL   ROH 8116  11.488  12.230   8.324 -0.2770 -0.0553 -0.0212
  900CHOL    R1 8117  11.461  12.256   8.043  0.1026 -0.0863 -0.0660
  900CHOL    R2 8118  11.296  12.444   7.926 -0.1824 -0.4614 -0.2923
  900CHOL    R3 8119  11.523  12.513   7.793 -0.1225  0.1098  0.0759
  900CHOL    R4 8120  11.305  12.584   7.611 -0.0314 -0.7166 -0.4051
  900CHOL    R5 8121  11.477  12.459   7.565  0.4612 -0.2492  0.0236
  900CHOL    C1 8122  11.522  12.732   7.302  0.1129 -0.3291 -0.1250
  900CHOL    C2 8123  11.571  13.088   7.185  0.1175 -0.1490  0.2252
  901CHOL   ROH 8124   7.229   3.193   7.677 -0.0216  0.0216 -0.0673
  901CHOL    R1 8125   7.385   3.094   7.463 -0.0986 -0.0090 -0.1095
  901CHOL    R2 8126   7.289   2.910   7.281 -0.1914  0.0285 -0.0967
  901CHOL    R3 8127   7.368   3.097   7.100 -0.1819  0.0162 -0.1059
  901CHOL    R4 8128   7.338   2.850   6.944 -0.2292  0.0174 -0.1006
  901CHOL    R5 8129   7.514   2.978   6.952 -0.2104 -0.0059 -0.1173
  901CHOL    C1 8130   7.441   2.991   6.578 -0.2423 -0.0007 -0.1115
  901CHOL    C2 8131   7.112   2.926   6.252 -0.2191  0.0353 -0.1584
  902PNCE   AM1 8132  12.746   5.618   5.692 -0.0896 -0.0184  0.1310
  902PNCE   AM2 8133  13.087   5.583   5.502 -0.0191  0.2422  0.0011
  902PNCE   T1A 8134  12.655   5.566   5.998 -0.1839 -0.1663  0.0348
  902PNCE   C2A 8135  12.701   5.297   6.504 -0.1024  0.2134  0.1538
  902PNCE   C3A 8136  12.591   5.067   6.706 -0.2543  0.0294 -0.0297
  902PNCE   C1B 8137  13.243   5.664   5.892 -0.0107 -0.0434  0.0012
  902PNCE   C2B 8138  13.130   5.545   6.354 -0.3105 -0.2087  0.2132
  902PNCE   C3B 8139  13.145   5.351   6.746  0.2039  0.0043  0.0951
  902PNCE   D4B 8140  13.499   5.305   7.005  0.2686 -0.1251 -0.1970
  902PNCE   C5B 8141  13.288   5.154   7.379 -0.0330  0.1055 -0.1602
  902PNCE   C6B 8142  13.104   4.971   7.740 -0.0161 -0.0761 -0.3533
  903CHOL   ROH 8143   0.298   7.243   9.014  0.1861 -0.1468 -0.0303
  903CHOL    R1 8144   0.123   7.403   8.859  0.0765 -0.1799  0.0584
  903CHOL    R2 8145   0.210   7.616   8.708 -0.0662 -0.0519  0.1555
  903CHOL    R3 8146   0.081   7.485   8.507  0.0012 -0.0335  0.0999
  903CHOL    R4 8147   0.080   7.767   8.426 -0.0577 -0.0054  0.1767
  903CHOL    R5 8148  -0.093   7.636   8.441 -0.0280 -0.0578  0.1137
  903CHOL    C1 8149  -0.116   7.733   8.073  0.0106  0.0390  0.1369
  903CHOL    C2 8150  -0.098   8.041   7.729  0.1443 -0.1205 -0.0743
  904PNCE   AM1 8151   2.637   4.125   4.462 -0.0987  0.0590  0.0226
  904PNCE   AM2 8152   2.311   4.314   4.531 -0.0774  0.1744 -0.2606
  904PNCE   T1A 8153   2.530   4.133   4.936 -0.0316 -0.2955 -0.0435
  904PNCE   C2A 8154   2.557   4.006   5.340 -0.1005  0.1545  0.0454
  904PNCE   C3A 8155   2.607   3.702   5.548 -0.0603 -0.1212 -0.3500
  904PNCE   C1B 8156   1.950   4.084   4.812  0.1053 -0.2389  0.0400
  904PNCE   C2B 8157   1.918   3.964   5.192 -0.1168 -0.0066 -0.0603
  904PNCE   C3B 8158   2.104   3.962   5.680 -0.4668  0.4521 -0.0061
  904PNCE   D4B 8159   1.924   4.268   5.932  0.1653  0.1060  0.0789
  904PNCE   C5B 8160   1.985   4.353   6.379  0.3584  0.0804 -0.3010
  904PNCE   C6B 8161   2.388   4.253   6.713 -0.0729 -0.2327 -0.1486
  905CHOL   ROH 8162   2.254   3.536   4.392 -0.0410 -0.0015 -0.0430
  905CHOL    R1 8163   2.333   3.536   4.664 -0.0411  0.0190 -0.0429
  905CHOL    R2 8164   2.234   3.716   4.847 -0.0315  0.0410 -0.0593
  905CHOL    R3 8165   2.171   3.491   4.986 -0.0437  0.0571 -0.0388
  905CHOL    R4 8166   2.260   3.682   5.190  0.0994  0.0259 -0.0705
  905CHOL    R5 8167   2.336   3.480   5.159  0.0248  0.0028 -0.1068
  905CHOL    C1 8168   2.217   3.450   5.520  0.1642  0.0322 -0.0576
  905CHOL    C2 8169   1.965   3.456   5.960  0.1124  0.0517 -0.2257
  906PNCE   AM1 8170  10.661   4.181   4.597 -0.1979 -0.1885  0.2057
  906PNCE   AM2 8171  10.835   3.925   4.673 -0.0560  0.0214  0.3277
  906PNCE   T1A 8172  10.396   4.303   4.913 -0.3998 -0.0324 -0.0059
  906PNCE   C2A 8173  10.067   4.515   5.129  0.2766  0.1802  0.0099
  906PNCE   C3A 8174   9.800   4.415   5.353  0.0834  0.1784 -0.2056
  906PNCE   C1B 8175  10.704   3.847   5.115  0.1061  0.0233  0.2181
  906PNCE   C2B 8176  10.665   3.726   5.501  0.1302  0.1238  0.0650
  906PNCE   C3B 8177  10.445   3.864   5.810  0.1332  0.1645  0.2497
  906PNCE   D4B 8178  10.126   4.091   6.103 -0.0138  0.1164 -0.0951
  906PNCE   C5B 8179   9.997   4.254   6.529 -0.0807 -0.1703 -0.0158
  906PNCE   C6B 8180   9.806   4.093   6.922 -0.1865 -0.1693 -0.1584
  907PNCE   AM1 8181   5.263   5.125   4.528  0.3072  0.1712 -0.1264
  907PNCE   AM2 8182   5.411   4.782   4.504 -0.1223 -0.1806 -0.0421
  907PNCE   T1A 8183   5.181   5.367   4.902 -0.0863  0.1687  0.1303
  907PNCE   C2A 8184   5.053   5.680   5.198 -0.0283 -0.1270 -0.2260
  907PNCE   C3A 8185   4.741   5.625   5.488 -0.0610 -0.0569  0.0899
  907PNCE   C1B 8186   5.171   4.764   4.922  0.2987 -0.1621 -0.3191
  907PNCE   C2B 8187   4.806   5.139   5.226 -0.0597  0.2687 -0.0462
  907PNCE   C3B 8188   4.616   5.061   5.584  0.0374  0.1138  0.0550
  907PNCE   D4B 8189   4.565   4.947   5.974 -0.0188 -0.1861  0.3747
  907PNCE   C5B 8190   4.191   5.186   6.186 -0.3354  0.1723  0.1332
  907PNCE   C6B 8191   3.898   5.406   6.432  0.0309 -0.2137 -0.0115
  908PNCE   AM1 8192   0.827   6.089   6.104 -0.0602 -0.1543 -0.2181
  908PNCE   AM2 8193   0.873   6.161   5.809 -0.2339  0.2944  0.0284
  908PNCE   T1A 8194   0.878   5.836   6.408  0.5983  0.1250 -0.1830
  908PNCE   C2A 8195   0.992   5.391   6.396 -0.0926  0.0161 -0.0753
  908PNCE   C3A 8196   0.987   4.911   6.502  0.0110 -0.2254  0.2603
  908PNCE   C1B 8197   1.280   6.052   5.883  0.3665  0.0194  0.3965
  908PNCE   C2B 8198   1.518   6.232   6.077  0.4480  0.0731 -0.1129
  908PNCE   C3B 8199   1.516   6.210   6.500 -0.2177 -0.1687 -0.1728
  908PNCE   D4B 8200   1.557   6.058   6.958  0.1311  0.0830  0.2197
  908PNCE   C5B 8201   1.883   6.110   7.162  0.0186  0.2973  0.1872
  908PNCE   C6B 8202   2.237   5.809   7.265  0.0584  0.0606  0.0380
  909PNCE   AM1 8203   3.194  10.128   5.643  0.1742 -0.2799 -0.0556
  909PNCE   AM2 8204   3.449  10.407   5.571  0.0852 -0.0650 -0.1398
  909PNCE   T1A 8205   3.168   9.807   5.945 -0.0266  0.2361  0.0001
  909PNCE   C2A 8206   3.249   9.358   6.045 -0.0215  0.1103  0.2088
  909PNCE   C3A 8207   3.380   9.020   5.870  0.1669  0.0556  0.2256
  909PNCE   C1B 8208   3.356  10.623   6.024  0.0155  0.1487  0.2834
  909PNCE   C2B 8209   3.231  10.634   6.368 -0.3149  0.0661 -0.0926
  909PNCE   C3B 8210   3.225  10.796   6.786 -0.1366 -0.0232  0.1655
  909PNCE   D4B 8211   3.211  10.824   7.241 -0.2275  0.1345  0.1606
  909PNCE   C5B 8212   3.046  11.162   7.356  0.1304 -0.2581  0.0329
  909PNCE   C6B 8213   2.639  11.460   7.204 -0.1090  0.1638  0.1614
  910XCA    COO 8214   3.459   5.727   9.116  0.3083 -0.1201  0.0977
  910XCA     C1 8215   3.242   6.155   8.925 -0.1799 -0.3516 -0.1165
  910XCA     C2 8216   3.018   6.288   8.481 -0.2570  0.2975 -0.0494
  910XCA     C3 8217   2.976   6.650   8.216  0.1660  0.0364 -0.0968
  910XCA     C4 8218   2.751   7.009   8.083  0.1548  0.1177 -0.2050
  910XCA     C5 8219   2.681   7.290   7.756 -0.3308 -0.0954  0.0624
  910XCA     C6 8220   2.510   7.691   7.642 -0.5081  0.0565 -0.0920
  911PNCE   AM1 8221  13.740   9.594   5.737  0.1214 -0.2692  0.2404
  911PNCE   AM2 8222  13.766   9.901   5.689  0.1734 -0.1237 -0.0396
  911PNCE   T1A 8223  13.769   9.294   6.100 -0.0226  0.0442  0.1300
  911PNCE   C2A 8224  14.141   9.304   6.385 -0.0741  0.2528 -0.1027
  911PNCE   C3A 8225  14.379   9.118   6.759 -0.0702 -0.1789  0.0366
  911PNCE   C1B 8226  13.689  10.334   5.830 -0.1842  0.0786  0.0200
  911PNCE   C2B 8227  13.661  10.569   6.187  0.1566  0.0309 -0.0057
  911PNCE   C3B 8228  13.752  10.694   6.688 -0.1946 -0.1549  0.4028
  911PNCE   D4B 8229  13.934  10.908   6.978 -0.2254 -0.0559 -0.2146
  911PNCE   C5B 8230  14.041  10.616   7.259  0.1665  0.0382 -0.3285
  911PNCE   C6B 8231  13.860  10.636   7.540  0.0075 -0.0781  0.1921
  912CHOL   ROH 8232  13.063   0.763   5.236 -0.0441  0.0204  0.0232
  912CHOL    R1 8233  12.838   0.875   5.366 -0.0053  0.0408  0.0734
  912CHOL    R2 8234  12.582   0.779   5.329 -0.0327  0.1104  0.0745
  912CHOL    R3 8235  12.584   0.759   5.600 -0.0093  0.0416  0.0692
  912CHOL    R4 8236  12.304   0.814   5.532 -0.0485 -0.1237  0.0956
  912CHOL    R5 8237  12.428   0.925   5.673 -0.1154 -0.0794  0.1190
  912CHOL    C1 8238  12.145   0.816   5.905 -0.0359 -0.3246  0.1028
  912CHOL    C2 8239  11.940   0.962   6.170 -0.0415 -0.3673 -0.1268
  913CHOL   ROH 8240  13.227   4.164   4.960 -0.1232  0.3399 -0.0249
  913CHOL    R1 8241  13.102   4.250   5.198 -0.1736  0.1127  0.0330
  913CHOL    R2 8242  13.024   4.074   5.397  0.0765 -0.0492 -0.0077
  913CHOL    R3 8243  13.175   4.237   5.555 -0.0779  0.0777  0.0126
  913CHOL    R4 8244  13.052   4.046   5.740  0.0854 -0.0515 -0.0085
  913CHOL    R5 8245  13.045   4.263   5.754 -0.1140 -0.0565  0.0086
  913CHOL    C1 8246  13.211   4.182   6.088 -0.0545  0.0664  0.0101
  913CHOL    C2 8247  13.362   4.050   6.373  0.1008  0.0639  0.1635
  914CHOL   ROH 8248   4.316  11.644   5.773 -0.0074 -0.0021  0.0930
  914CHOL    R1 8249   4.483  11.809   5.932 -0.0190  0.0278  0.0747
  914CHOL    R2 8250   4.515  12.079   5.883  0.1284 -0.0147 -0.0871
  914CHOL    R3 8251   4.440  12.102   6.143 -0.0051  0.1870 -0.1411
  914CHOL    R4 8252   4.636  12.316   6.103  0.1918  0.0035 -0.1415
  914CHOL    R5 8253   4.641  12.162   6.258 -0.0239  0.0828 -0.0559
  914CHOL    C1 8254   4.637  12.475   6.476  0.1034  0.2034 -0.2239
  914CHOL    C2 8255   4.624  12.731   6.589 -0.0653 -0.0947  0.1556
  915XCA    COO 8256   3.482  12.651   8.936 -0.3212 -0.1952 -0.3366
  915XCA     C1 8257   3.174  12.832   8.618 -0.3121  0.0405 -0.0587
  915XCA     C2 8258   2.938  12.728   8.265  0.4124  0.2638 -0.1456
  915XCA     C3 8259   2.547  12.867   8.075  0.1956  0.0506 -0.1816
  915XCA     C4 8260   2.256  12.728   7.892  0.0921  0.1498  0.2235
  915XCA     C5 8261   1.877  12.749   7.968 -0.0960 -0.0624 -0.0527
  915XCA     C6 8262   1.429  12.900   7.880  0.2877  0.1263 -0.0736
  916PNCE   AM1 8263   9.523   1.591   4.597  0.1606  0.0586  0.0290
  916PNCE   AM2 8264   9.307   1.520   4.400  0.1271  0.1208 -0.3085
  916PNCE   T1A 8265   9.150   1.670   4.841  0.2017 -0.1411  0.0134
  916PNCE   C2A 8266   9.191   1.678   5.257 -0.1263 -0.3250  0.0065
  916PNCE   C3A 8267   9.502   1.444   5.491  0.1249 -0.1307 -0.0464
  916PNCE   C1B 8268   9.152   1.152   4.566  0.1397  0.0244  0.0733
  916PNCE   C2B 8269   9.142   1.206   5.017  0.0632  0.3423 -0.2804
  916PNCE   C3B 8270   9.080   1.223   5.464  0.1002  0.0700  0.1126
  916PNCE   D4B 8271   9.065   1.394   5.879 -0.2483  0.1715 -0.0584
  916PNCE   C5B 8272   8.807   1.211   6.210  0.2523  0.2428 -0.1615
  916PNCE   C6B 8273   8.686   0.818   6.217 -0.0252 -0.4036  0.0426
  917CHOL   ROH 8274   4.897   3.491   7.165  0.0119 -0.1239  0.1150
  917CHOL    R1 8275   5.095   3.621   7.319 -0.0534  0.0005  0.0955
  917CHOL    R2 8276   5.286   3.786   7.208 -0.0830  0.0122  0.0595
  917CHOL    R3 8277   5.192   3.964   7.389 -0.1693  0.0597 -0.0313
  917CHOL    R4 8278   5.449   4.075   7.304 -0.0668 -0.0304  0.1617
  917CHOL    R5 8279   5.386   4.037   7.509 -0.2405  0.0090  0.1160
  917CHOL    C1 8280   5.455   4.411   7.530 -0.1383 -0.0107  0.1361
  917CHOL    C2 8281   5.541   4.845   7.539 -0.0775  0.0001 -0.3321
  918CHOL   ROH 8282  13.389   0.337   5.219  0.0752  0.1396  0.2113
  918CHOL    R1 8283  13.308   0.082   5.309  0.0762  0.1233  0.1642
  918CHOL    R2 8284  13.389  -0.024   5.551  0.0273  0.1057  0.1699
  918CHOL    R3 8285  13.122  -0.053   5.592  0.0200  0.0745  0.1054
  918CHOL    R4 8286  13.247  -0.238   5.782 -0.0031 -0.0103  0.0462
  918CHOL    R5 8287  13.093  -0.287   5.635  0.0250  0.0498 -0.0084
  918CHOL    C1 8288  12.913  -0.389   5.956 -0.0279 -0.1070 -0.0864
  918CHOL    C2 8289  12.860  -0.410   6.399  0.0580  0.5768  0.1439
  919CHOL   ROH 8290   2.975  15.214   3.928  0.2047  0.0474  0.1055
  919CHOL    R1 8291   3.038  15.019   4.123  0.2173  0.1083  0.1624
  919CHOL    R2 8292   3.267  15.033   4.278  0.1101  0.2812  0.3064
  919CHOL    R3 8293   3.089  15.013   4.483 -0.0063  0.1748  0.1973
  919CHOL    R4 8294   3.350  15.051   4.613 -0.0355 -0.1513  0.3722
  919CHOL    R5 8295   3.208  14.890   4.652 -0.1716 -0.1001  0.1223
  919CHOL    C1 8296   3.232  15.043   5.001 -0.2297 -0.5032  0.3082
  919CHOL    C2 8297   3.381  15.113   5.315 -0.1667  0.0070 -0.1816
  920CHOL   ROH 8298   5.185   8.555   6.379  0.2468  0.0046  0.0414
  920CHOL    R1 8299   5.088   8.291   6.407  0.3450 -0.0528 -0.1351
  920CHOL    R2 8300   5.248   8.080   6.485  0.3588  0.0108  0.0245
  920CHOL    R3 8301   5.056   8.047   6.675  0.1343 -0.1197 -0.2193
  920CHOL    R4 8302   5.199   7.791   6.668  0.2086 -0.0755 -0.1499
  920CHOL    R5 8303   4.984   7.820   6.648  0.2254 -0.1265 -0.3988
  920CHOL    C1 8304   4.991   7.592   6.953 -0.0896 -0.2481 -0.4803
  920CHOL    C2 8305   5.006   7.366   7.322  0.0518  0.0786  0.2651
  921PNCE   AM1 8306  13.651  10.707   5.527  0.1399  0.1861  0.1782
  921PNCE   AM2 8307  13.370  10.837   5.400  0.1869  0.1124  0.1555
  921PNCE   T1A 8308  13.660  10.960   5.859  0.0885 -0.0808  0.0909
  921PNCE   C2A 8309  13.827  11.097   6.365 -0.2592  0.0215 -0.2477
  921PNCE   C3A 8310  13.821  11.403   6.536 -0.0535  0.1426  0.1993
  921PNCE   C1B 8311  13.303  10.675   5.875 -0.1863 -0.0017 -0.1828
  921PNCE   C2B 8312  13.242  10.871   6.190  0.1267  0.0706  0.1472
  921PNCE   C3B 8313  13.360  10.960   6.519 -0.2740  0.0678  0.0781
  921PNCE   D4B 8314  13.360  11.336   6.744  0.3108 -0.0961  0.1265
  921PNCE   C5B 8315  13.285  11.678   6.439  0.1511  0.1756  0.0474
  921PNCE   C6B 8316  13.343  12.091   6.357 -0.1247 -0.1403  0.0089
  922CHOL   ROH 8317   1.998   8.044   9.609  0.0946  0.2044  0.0548
  922CHOL    R1 8318   2.003   8.202   9.374  0.2832  0.0874 -0.0205
  922CHOL    R2 8319   2.204   8.181   9.185  0.1629 -0.3782 -0.1027
  922CHOL    R3 8320   1.997   8.141   9.015  0.0076 -0.0692  0.0068
  922CHOL    R4 8321   2.213   8.247   8.846  0.1211 -0.4564 -0.1195
  922CHOL    R5 8322   2.010   8.326   8.862  0.2475 -0.1109 -0.0342
  922CHOL    C1 8323   2.022   8.250   8.489 -0.0492 -0.2120 -0.0267
  922CHOL    C2 8324   2.232   8.277   8.099  0.0536 -0.1814  0.0205
  923PNCE   AM1 8325  13.491   5.881   5.453  0.0219 -0.1258  0.2992
  923PNCE   AM2 8326  13.893   5.897   5.488 -0.0140 -0.1116  0.0012
  923PNCE   T1A 8327  13.393   6.257   5.766 -0.0970  0.1092  0.1573
  923PNCE   C2A 8328  13.396   6.685   6.076 -0.1218 -0.2119 -0.6715
  923PNCE   C3A 8329  13.157   6.702   6.453  0.1495  0.1836  0.1084
  923PNCE   C1B 8330  13.789   5.829   5.856 -0.2088  0.2706  0.0822
  923PNCE   C2B 8331  13.634   5.773   6.149  0.0029  0.0231 -0.0156
  923PNCE   C3B 8332  13.619   5.674   6.539  0.2459 -0.0273  0.0461
  923PNCE   D4B 8333  13.381   5.786   6.801 -0.4892 -0.1388 -0.0865
  923PNCE   C5B 8334  12.970   5.942   6.649  0.0050 -0.0173 -0.4060
  923PNCE   C6B 8335  12.623   5.767   6.526  0.2263 -0.1110  0.0155
  924PNCE   AM1 8336   8.643  15.085   4.340 -0.0813  0.2734  0.0316
  924PNCE   AM2 8337   8.321  15.330   4.204  0.0865 -0.3603  0.0927
  924PNCE   T1A 8338   8.505  14.957   4.748  0.1441  0.1891  0.1119
  924PNCE   C2A 8339   8.403  14.778   5.035 -0.0159  0.1601  0.1456
  924PNCE   C3A 8340   8.466  14.828   5.374  0.2695 -0.0109 -0.0356
  924PNCE   C1B 8341   8.155  15.345   4.625  0.0154 -0.0489 -0.2878
  924PNCE   C2B 8342   8.018  15.640   4.949 -0.0881  0.2521  0.2161
  924PNCE   C3B 8343   8.059  15.920   5.313 -0.1348  0.1071  0.1416
  924PNCE   D4B 8344   8.150  16.059   5.704  0.1465 -0.3763  0.3282
  924PNCE   C5B 8345   8.622  16.031   5.809 -0.0143 -0.2671 -0.0208
  924PNCE   C6B 8346   9.020  16.086   6.086  0.0198 -0.0595  0.0273
  925CHOL   ROH 8347   5.907  15.427   5.938 -0.1176 -0.1796  0.0703
  925CHOL    R1 8348   5.927  15.199   5.771 -0.0520 -0.0990 -0.0333
  925CHOL    R2 8349   6.019  15.213   5.511  0.0298  0.0311  0.0006
  925CHOL    R3 8350   6.191  15.022   5.596  0.0139  0.0010 -0.0352
  925CHOL    R4 8351   6.128  14.947   5.320 -0.0437  0.0185 -0.0243
  925CHOL    R5 8352   6.111  14.820   5.496 -0.0337  0.0167 -0.0266
  925CHOL    C1 8353   6.354  14.612   5.289 -0.1015 -0.0171 -0.0725
  925CHOL    C2 8354   6.409  14.200   5.334 -0.0603 -0.4076  0.1063
  926CHOL   ROH 8355  14.323  11.855   5.147 -0.1334  0.0255  0.0467
  926CHOL    R1 8356  14.316  11.869   5.429 -0.1809  0.1151  0.0419
  926CHOL    R2 8357  14.484  12.034   5.574 -0.0129 -0.0409  0.0320
  926CHOL    R3 8358  14.251  12.125   5.680  0.0676  0.2702 -0.0485
  926CHOL    R4 8359  14.417  12.056   5.912 -0.1552 -0.0937  0.0074
  926CHOL    R5 8360  14.214  11.985   5.871 -0.2472  0.2352 -0.1302
  926CHOL    C1 8361  14.159  12.154   6.209 -0.1625  0.1676 -0.0824
  926CHOL    C2 8362  14.013  12.390   6.486 -0.2672  0.2676 -0.0164
  927PNCE   AM1 8363  14.953  14.891   4.795  0.2817  0.0450 -0.0367
  927PNCE   AM2 8364  15.200  15.111   4.728 -0.1251  0.1218  0.0134
  927PNCE   T1A 8365  14.794  15.381   4.927 -0.4357 -0.3568 -0.2665
  927PNCE   C2A 8366  14.587  15.758   4.839  0.2718 -0.0744  0.1157
  927PNCE   C3A 8367  14.359  16.092   5.079  0.1990 -0.2752 -0.2800
  927PNCE   C1B 8368  15.156  15.109   5.195  0.2981  0.0858  0.2902
  927PNCE   C2B 8369  15.106  15.062   5.594 -0.1039  0.0301 -0.0499
  927PNCE   C3B 8370  15.057  15.138   5.992  0.1538  0.1792  0.1809
  927PNCE   D4B 8371  14.788  15.095   6.331 -0.0835  0.0566 -0.1449
  927PNCE   C5B 8372  14.285  15.212   6.262 -0.0996 -0.3369  0.0531
  927PNCE   C6B 8373  13.855  15.419   6.206  0.0050 -0.2534 -0.0267
  928CHOL   ROH 8374   0.885   8.690   9.739  0.0814  0.1313  0.0751
  928CHOL    R1 8375   0.808   8.823   9.502  0.1042  0.0725  0.0346
  928CHOL    R2 8376   0.990   8.893   9.305  0.1226  0.0210  0.0331
  928CHOL    R3 8377   0.820   8.754   9.144  0.1353 -0.0177  0.0528
  928CHOL    R4 8378   0.987   8.910   8.960  0.0929  0.0034  0.0325
  928CHOL    R5 8379   0.769   8.907   8.967  0.0940 -0.0358  0.0492
  928CHOL    C1 8380   0.826   8.790   8.608  0.0875 -0.0431  0.0505
  928CHOL    C2 8381   0.938   8.590   8.275 -0.1348 -0.0731 -0.1551
  929CHOL   ROH 8382  15.175   2.836   6.859  0.1169  0.3278  0.1911
  929CHOL    R1 8383  15.369   2.985   6.717  0.1905  0.0968  0.0440
  929CHOL    R2 8384  15.483   2.895   6.483 -0.0362 -0.0786 -0.0033
  929CHOL    R3 8385  15.398   3.134   6.387  0.1518 -0.0104 -0.0077
  929CHOL    R4 8386  15.553   3.017   6.167 -0.1527 -0.2452 -0.0957
  929CHOL    R5 8387  15.581   3.214   6.255  0.1359 -0.2492 -0.1776
  929CHOL    C1 8388  15.512   3.312   5.893 -0.0442 -0.2783 -0.1535
  929CHOL    C2 8389  15.706   3.215   5.712  0.2174 -0.3047  0.3630
  930CHOL   ROH 8390  10.325  14.050   6.745  0.1571 -0.0462  0.1348
  930CHOL    R1 8391  10.490  14.268   6.816  0.0954  0.0371  0.0247
  930CHOL    R2 8392  10.666  14.387   6.638  0.0794 -0.0207 -0.0275
  930CHOL    R3 8393  10.533  14.613   6.709  0.0175 -0.0113 -0.1683
  930CHOL    R4 8394  10.763  14.708   6.554  0.2311 -0.0248  0.1276
  930CHOL    R5 8395  10.706  14.772   6.754 -0.0138 -0.0393  0.0679
  930CHOL    C1 8396  10.696  15.107   6.572  0.2611 -0.0183  0.0856
  930CHOL    C2 8397  10.987  15.136   6.481  0.3421  0.1147 -0.0512
  931CHOL   ROH 8398   8.902  11.181   8.473 -0.1193  0.1276 -0.0552
  931CHOL    R1 8399   9.056  11.004   8.315  0.0423  0.1916  0.0280
  931CHOL    R2 8400   8.944  10.844   8.119  0.1847 -0.0090  0.1068
  931CHOL    R3 8401   9.131  10.963   7.961  0.0718  0.0891  0.0457
  931CHOL    R4 8402   9.084  10.702   7.836  0.1915  0.0486  0.0813
  931CHOL    R5 8403   9.276  10.784   7.896  0.1603  0.1686  0.0219
  931CHOL    C1 8404   9.340  10.731   7.523  0.0895  0.1744  0.0091
  931CHOL    C2 8405   9.430  10.648   7.161 -0.1445  0.3513 -0.1212
  932XCA    COO 8406   0.161  13.981   4.588 -0.2318 -0.0512  0.1348
  932XCA     C1 8407   0.128  14.277   4.965  0.4505 -0.2671 -0.2986
  932XCA     C2 8408   0.555  14.432   4.989  0.1648  0.2795  0.0498
  932XCA     C3 8409   0.688  14.804   5.159  0.0602 -0.1539 -0.0648
  932XCA     C4 8410   0.604  14.920   5.651 -0.1482 -0.1581 -0.1637
  932XCA     C5 8411   0.723  15.221   5.809  0.0698 -0.0624  0.3250
  932XCA     C6 8412   0.857  15.584   5.733  0.0586 -0.1437 -0.1062
  933XCA    COO 8413  14.286   0.246   8.654 -0.0686  0.0559 -0.0038
  933XCA     C1 8414  14.390  -0.125   8.426 -0.0562 -0.1368 -0.2909
  933XCA     C2 8415  14.498  -0.397   8.084 -0.1061  0.0107 -0.0141
  933XCA     C3 8416  14.477  -0.471   7.620  0.0630  0.2623 -0.1238
  933XCA     C4 8417  14.204  -0.671   7.280 -0.0099  0.1047 -0.0137
  933XCA     C5 8418  14.007  -0.958   7.108 -0.0820 -0.0064 -0.0776
  933XCA     C6 8419  13.611  -1.039   6.833 -0.0845 -0.3236  0.1785
  934CHOL   ROH 8420   3.908   7.698   9.500 -0.0005  0.0963 -0.0352
  934CHOL    R1 8421   3.722   7.853   9.353 -0.0157 -0.0185 -0.1400
  934CHOL    R2 8422   3.790   8.095   9.237 -0.1400  0.1062  0.0351
  934CHOL    R3 8423   3.693   7.977   9.012  0.1918  0.1072 -0.1131
  934CHOL    R4 8424   3.657   8.264   8.967 -0.1235  0.0858  0.0147
  934CHOL    R5 8425   3.503   8.110   8.952  0.0768 -0.0953 -0.1990
  934CHOL    C1 8426   3.489   8.252   8.598  0.1976  0.0750 -0.1363
  934CHOL    C2 8427   3.718   8.513   8.337  0.0201 -0.3128  0.0464
  935PNCE   AM1 8428   0.372   9.585   6.182 -0.0539  0.3955 -0.0980
  935PNCE   AM2 8429   0.417   9.319   6.307  0.0790 -0.4230  0.0605
  935PNCE   T1A 8430   0.690   9.655   6.588  0.0744 -0.0847 -0.2270
  935PNCE   C2A 8431   0.998   9.641   7.000 -0.1811 -0.3841  0.1261
  935PNCE   C3A 8432   1.399   9.521   7.115 -0.1838  0.0068  0.2286
  935PNCE   C1B 8433   0.404   9.207   6.734 -0.0726 -0.0728  0.2006
  935PNCE   C2B 8434   0.296   9.210   7.203 -0.2544  0.1795  0.2546
  935PNCE   C3B 8435   0.271   9.155   7.554  0.0354 -0.2598 -0.0147
  935PNCE   D4B 8436   0.434   9.172   7.925  0.1003 -0.0400  0.1322
  935PNCE   C5B 8437   0.783   9.470   7.857 -0.0726  0.0304 -0.2163
  935PNCE   C6B 8438   1.146   9.747   7.522 -0.1546  0.1825  0.1446
  936CHOL   ROH 8439   4.761  12.741   8.545  0.0285  0.1933 -0.0481
  936CHOL    R1 8440   4.682  12.480   8.470  0.1138  0.0985  0.1764
  936CHOL    R2 8441   4.449  12.430   8.330  0.1096 -0.1048  0.2379
  936CHOL    R3 8442   4.618  12.302   8.158  0.1437 -0.1786  0.3278
  936CHOL    R4 8443   4.349  12.222   8.073  0.1511  0.1779 -0.0118
  936CHOL    R5 8444   4.515  12.089   8.122 -0.0534 -0.0390  0.0731
  936CHOL    C1 8445   4.448  11.980   7.762  0.2074  0.2730 -0.0728
  936CHOL    C2 8446   4.575  11.927   7.445 -0.0175  0.1923  0.2577
  937PNCE   AM1 8447  10.415  10.680   5.499  0.3733 -0.0129 -0.0962
  937PNCE   AM2 8448  10.486  11.071   5.557  0.3965  0.4501 -0.2066
  937PNCE   T1A 8449  10.183  10.404   5.762 -0.0499  0.0431  0.0043
  937PNCE   C2A 8450  10.005  10.379   6.107 -0.4170  0.0759  0.1874
  937PNCE   C3A 8451  10.101  10.483   6.493 -0.0647 -0.1959 -0.1162
  937PNCE   C1B 8452  10.271  11.351   5.860 -0.2331  0.0755 -0.0808
  937PNCE   C2B 8453  10.222  11.559   6.181 -0.1169 -0.0978 -0.2865
  937PNCE   C3B 8454   9.916  11.655   6.446 -0.2620  0.0560  0.0525
  937PNCE   D4B 8455   9.791  11.789   6.828  0.0311 -0.1244 -0.0918
  937PNCE   C5B 8456   9.960  11.792   7.236 -0.0702 -0.1856 -0.0390
  937PNCE   C6B 8457  10.010  11.795   7.680 -0.0798 -0.1476 -0.2488
  938XCA    COO 8458   9.465   7.542   8.385  0.2111  0.3919 -0.0073
  938XCA     C1 8459   9.354   7.411   8.039  0.2627 -0.1445  0.0635
  938XCA     C2 8460   8.924   7.430   7.855 -0.0932 -0.1534 -0.1350
  938XCA     C3 8461   8.718   7.771   7.560  0.1292  0.0400  0.0366
  938XCA     C4 8462   8.898   7.876   7.195  0.0269  0.1847  0.1673
  938XCA     C5 8463   9.035   7.668   6.956 -0.5408  0.3501  0.0379
  938XCA     C6 8464   9.051   7.162   6.686  0.0754 -0.0847  0.1102
  939CHOL   ROH 8465   5.291   9.089   9.139  0.0567 -0.1939 -0.0673
  939CHOL    R1 8466   5.053   9.118   8.989 -0.0067 -0.1281  0.0438
  939CHOL    R2 8467   5.035   9.282   8.768 -0.0291 -0.2166 -0.0216
  939CHOL    R3 8468   4.947   9.056   8.646 -0.2201 -0.2231  0.1247
  939CHOL    R4 8469   4.827   9.274   8.492  0.0683 -0.2129 -0.0951
  939CHOL    R5 8470   4.722   9.106   8.582 -0.1449 -0.0340 -0.0002
  939CHOL    C1 8471   4.624   9.057   8.217 -0.0543 -0.2168 -0.0008
  939CHOL    C2 8472   4.411   8.955   7.977  0.0057  0.0471 -0.2737
  940CHOL   ROH 8473  13.246  11.303   8.898  0.0917  0.3965 -0.0536
  940CHOL    R1 8474  13.176  11.261   8.627  0.0638  0.2650 -0.0260
  940CHOL    R2 8475  13.057  11.457   8.472  0.0129  0.1755 -0.0960
  940CHOL    R3 8476  13.266  11.406   8.305 -0.0017  0.1365 -0.1035
  940CHOL    R4 8477  13.038  11.450   8.127 -0.0001  0.1866 -0.0962
  940CHOL    R5 8478  13.170  11.277   8.127 -0.0344  0.1584 -0.1035
  940CHOL    C1 8479  13.222  11.399   7.770 -0.0215  0.1562 -0.1035
  940CHOL    C2 8480  13.288  11.452   7.401  0.1440  0.0198  0.1035
  941CHOL   ROH 8481  14.450   9.370   9.528 -0.1234  0.0019  0.0458
  941CHOL    R1 8482  14.390   9.556   9.323 -0.1564  0.0429  0.0911
  941CHOL    R2 8483  14.583   9.660   9.155 -0.1712  0.1202  0.1125
  941CHOL    R3 8484  14.417   9.568   8.960 -0.1570  0.1334  0.0955
  941CHOL    R4 8485  14.550   9.800   8.841  0.0150 -0.0070  0.0344
  941CHOL    R5 8486  14.335   9.766   8.854 -0.0045  0.1279 -0.0254
  941CHOL    C1 8487  14.374   9.796   8.475  0.1367 -0.0687 -0.0271
  941CHOL    C2 8488  14.436   9.728   8.092 -0.2767 -0.1303 -0.1268
  942PNCE   AM1 8489  12.733   1.699   4.881  0.1356 -0.5297 -0.0688
  942PNCE   AM2 8490  12.566   1.876   4.620 -0.1411 -0.0215 -0.0200
  942PNCE   T1A 8491  12.981   2.011   5.042 -0.0961 -0.0394  0.1298
  942PNCE   C2A 8492  13.321   2.181   5.274  0.1219  0.0229 -0.0380
  942PNCE   C3A 8493  13.647   2.365   5.445 -0.1180 -0.1444  0.1780
  942PNCE   C1B 8494  12.493   2.113   5.011  0.0659 -0.1817 -0.1843
  942PNCE   C2B 8495  12.216   2.158   5.386 -0.0986 -0.1098 -0.1588
  942PNCE   C3B 8496  12.387   2.107   5.737 -0.0794 -0.0525 -0.0503
  942PNCE   D4B 8497  12.752   2.081   5.947 -0.0273  0.2896  0.1834
  942PNCE   C5B 8498  12.959   2.423   6.173 -0.0397 -0.1426  0.3412
  942PNCE   C6B 8499  13.264   2.501   6.212 -0.2611 -0.0804  0.1614
  943PNCE   AM1 8500   3.424  12.412   4.995  0.1149  0.1666 -0.0781
  943PNCE   AM2 8501   3.214  12.591   5.120  0.3668 -0.0260  0.0763
  943PNCE   T1A 8502   3.862  12.591   4.900  0.0495 -0.1928 -0.3509
  943PNCE   C2A 8503   4.153  12.743   5.156  0.0439 -0.0384 -0.0369
  943PNCE   C3A 8504   4.437  12.953   5.417  0.0530  0.4399  0.2377
  943PNCE   C1B 8505   3.286  12.592   5.568 -0.2741  0.1955  0.1584
  943PNCE   C2B 8506   3.611  12.516   5.871 -0.1391  0.2621 -0.3570
  943PNCE   C3B 8507   3.915  12.464   6.123  0.1165  0.0277  0.1589
  943PNCE   D4B 8508   4.215  12.299   6.483  0.1330 -0.0614  0.0724
  943PNCE   C5B 8509   3.934  12.024   6.658  0.2220  0.0111  0.0713
  943PNCE   C6B 8510   3.517  12.024   6.677  0.0987 -0.0534 -0.3666
  944PNCE   AM1 8511   0.593   6.540   5.665 -0.2288 -0.0575  0.0084
  944PNCE   AM2 8512   0.562   6.523   5.987 -0.0926 -0.1813 -0.1346
  944PNCE   T1A 8513   0.639   7.023   5.859  0.1203 -0.1954 -0.0406
  944PNCE   C2A 8514   0.856   7.179   6.210  0.0507  0.0612  0.0752
  944PNCE   C3A 8515   0.836   7.295   6.550  0.0177  0.0982  0.0849
  944PNCE   C1B 8516   0.617   6.435   6.440 -0.0795  0.3591 -0.2373
  944PNCE   C2B 8517   0.851   6.657   6.786 -0.0380 -0.2986 -0.0414
  944PNCE   C3B 8518   1.054   6.704   7.178 -0.1532  0.0290 -0.2591
  944PNCE   D4B 8519   1.176   6.426   7.520  0.2589 -0.0241  0.1467
  944PNCE   C5B 8520   1.518   6.038   7.499 -0.3171  0.3609 -0.0347
  944PNCE   C6B 8521   1.887   5.850   7.614  0.2635  0.1818  0.1127
  945CHOL   ROH 8522   0.951  14.728   6.115 -0.1380 -0.0776 -0.0175
  945CHOL    R1 8523   1.016  14.971   6.246 -0.0309 -0.0759 -0.0721
  945CHOL    R2 8524   1.104  15.195   6.109 -0.0449 -0.1075 -0.1361
  945CHOL    R3 8525   0.897  15.315   6.239  0.0353 -0.0531 -0.0582
  945CHOL    R4 8526   1.058  15.536   6.135  0.0654 -0.0957 -0.0957
  945CHOL    R5 8527   0.995  15.508   6.342  0.1267 -0.0902 -0.0777
  945CHOL    C1 8528   0.838  15.848   6.272  0.2050 -0.0378  0.0010
  945CHOL    C2 8529   0.667  16.310   6.216  0.0708 -0.0820  0.1231
  946CHOL   ROH 8530  10.238   1.081   8.036 -0.2199 -0.1989 -0.0653
  946CHOL    R1 8531  10.054   1.058   7.822 -0.0552 -0.0821 -0.2231
  946CHOL    R2 8532  10.095   1.180   7.577  0.2296 -0.1051 -0.1946
  946CHOL    R3 8533  10.059   0.928   7.482  0.1531 -0.0840 -0.2194
  946CHOL    R4 8534   9.979   1.102   7.261  0.2440 -0.0452 -0.2140
  946CHOL    R5 8535   9.861   0.942   7.349  0.1783 -0.0079 -0.2439
  946CHOL    C1 8536   9.877   0.820   6.988  0.1806  0.0094 -0.2486
  946CHOL    C2 8537   9.923   0.871   6.622  0.1036  0.1422  0.0810
  947XCA    COO 8538   4.332   3.730   4.652  0.0190 -0.1578  0.1355
  947XCA     C1 8539   4.200   3.569   5.142  0.0558 -0.0398  0.2671
  947XCA     C2 8540   4.014   3.307   5.489 -0.2725 -0.0994 -0.0703
  947XCA     C3 8541   3.750   3.190   5.836 -0.0435 -0.3589 -0.1211
  947XCA     C4 8542   3.664   2.862   6.054 -0.2110  0.2270 -0.0725
  947XCA     C5 8543   3.527   2.451   6.193  0.1420  0.1261 -0.0364
  947XCA     C6 8544   3.189   2.062   6.147  0.4058 -0.1377  0.3306
  948PNCE   AM1 8545   3.634   1.367   3.729 -0.0553 -0.0176 -0.0274
  948PNCE   AM2 8546   3.716   1.015   3.654  0.1193 -0.1498  0.0270
  948PNCE   T1A 8547   3.829   1.612   4.075 -0.3066  0.1224 -0.1018
  948PNCE   C2A 8548   4.201   1.439   4.340 -0.0560 -0.3206  0.0363
  948PNCE   C3A 8549   4.400   1.040   4.314  0.1439 -0.1855  0.5267
  948PNCE   C1B 8550   3.935   1.025   4.072  0.2408  0.1924 -0.1434
  948PNCE   C2B 8551   3.822   0.892   4.431  0.2242  0.3444  0.2147
  948PNCE   C3B 8552   3.996   1.044   4.751 -0.0056  0.1572  0.1219
  948PNCE   D4B 8553   4.284   1.026   5.088 -0.0093 -0.4347  0.0742
  948PNCE   C5B 8554   4.550   0.689   5.158 -0.3021  0.0934 -0.0783
  948PNCE   C6B 8555   4.934   0.740   5.107 -0.1497 -0.2587 -0.0464
  949XCA    COO 8556  10.522   6.645   4.982  0.3256  0.1498 -0.1285
  949XCA     C1 8557  10.725   6.354   5.311  0.4796  0.0157  0.1493
  949XCA     C2 8558  10.553   6.290   5.784  0.2514 -0.0391  0.2507
  949XCA     C3 8559  10.402   6.251   6.166 -0.0309 -0.0899  0.1407
  949XCA     C4 8560  10.389   6.344   6.521 -0.0029 -0.1588 -0.1012
  949XCA     C5 8561  10.179   6.240   6.894 -0.2207 -0.1260  0.0834
  949XCA     C6 8562  10.122   6.024   7.328 -0.2801 -0.2343 -0.0379
  950CHOL   ROH 8563  15.497   1.724   7.403 -0.0600 -0.1075  0.2400
  950CHOL    R1 8564  15.498   1.532   7.195 -0.1030 -0.2204  0.3434
  950CHOL    R2 8565  15.607   1.582   6.947 -0.4766 -0.2239  0.1726
  950CHOL    R3 8566  15.749   1.356   6.999 -0.1429 -0.0344  0.1205
  950CHOL    R4 8567  15.839   1.440   6.734 -0.4099  0.0560  0.0534
  950CHOL    R5 8568  15.762   1.243   6.788 -0.1197 -0.0440  0.1262
  950CHOL    C1 8569  16.107   1.145   6.659 -0.0579  0.3969 -0.0650
  950CHOL    C2 8570  16.221   0.755   6.445  0.2545  0.2092 -0.2825
  951CHOL   ROH 8571  11.057   4.170   8.194 -0.0197  0.0258 -0.1354
  951CHOL    R1 8572  11.215   4.077   7.978  0.1173 -0.2101  0.0603
  951CHOL    R2 8573  11.251   3.809   7.925 -0.4076 -0.2778 -0.0228
  951CHOL    R3 8574  11.163   3.878   7.677  0.1266  0.0740 -0.1322
  951CHOL    R4 8575  11.271   3.606   7.646 -0.7232 -0.3044 -0.0293
  951CHOL    R5 8576  11.325   3.783   7.528  0.0180 -0.4407  0.0621
  951CHOL    C1 8577  11.200   3.552   7.251 -0.4054  0.0103 -0.1358
  951CHOL    C2 8578  11.573   3.455   7.076  0.0368  0.2141  0.2843
  952XCA    COO 8579   5.667   8.662   5.567  0.2705  0.1842  0.0985
  952XCA     C1 8580   5.934   8.462   5.864  0.0094 -0.0960 -0.0231
  952XCA     C2 8581   6.262   8.434   6.219  0.2802  0.1019 -0.0220
  952XCA     C3 8582   6.351   8.260   6.656 -0.0954  0.0965 -0.2138
  952XCA     C4 8583   6.339   7.939   6.864  0.0420  0.0154  0.0238
  952XCA     C5 8584   6.115   7.560   7.046 -0.2374 -0.1880  0.1043
  952XCA     C6 8585   6.329   7.127   7.152 -0.0183 -0.2895  0.2671
  953CHOL   ROH 8586   1.992   3.528   8.738  0.0464 -0.1443 -0.1820
  953CHOL    R1 8587   1.935   3.619   8.477  0.0032 -0.0908 -0.1546
  953CHOL    R2 8588   1.731   3.515   8.323 -0.0591 -0.0211 -0.1224
  953CHOL    R3 8589   1.654   3.775   8.306 -0.0039 -0.0011 -0.0613
  953CHOL    R4 8590   1.495   3.637   8.102  0.0609  0.1030 -0.1821
  953CHOL    R5 8591   1.621   3.812   8.072  0.1060  0.0909 -0.0622
  953CHOL    C1 8592   1.286   3.953   7.957  0.1825  0.1940 -0.1596
  953CHOL    C2 8593   1.046   4.076   7.633  0.0009  0.2896  0.1616
  954PNCE   AM1 8594  13.936   0.813   4.488 -0.1915 -0.1899  0.0799
  954PNCE   AM2 8595  14.141   0.946   4.318 -0.1712  0.3724  0.1234
  954PNCE   T1A 8596  13.787   1.116   4.804  0.1415 -0.2144  0.0555
  954PNCE   C2A 8597  13.862   1.521   5.041 -0.3616  0.1505 -0.3766
  954PNCE   C3A 8598  13.745   1.940   5.190 -0.3351  0.0201 -0.0583
  954PNCE   C1B 8599  14.355   1.060   4.741  0.0994  0.3182  0.1152
  954PNCE   C2B 8600  14.314   1.221   5.151 -0.1363  0.2646  0.0331
  954PNCE   C3B 8601  14.279   1.158   5.631 -0.1804  0.2988 -0.2586
  954PNCE   D4B 8602  14.189   1.391   5.953  0.1148 -0.0427 -0.1645
  954PNCE   C5B 8603  14.537   1.549   6.159 -0.1177 -0.0745  0.2114
  954PNCE   C6B 8604  14.950   1.508   6.379 -0.1004 -0.2458  0.1117
  955XCA    COO 8605   5.379  12.645   4.785 -0.2154 -0.0729 -0.0486
  955XCA     C1 8606   5.616  12.996   4.597 -0.1021  0.3019 -0.3188
  955XCA     C2 8607   5.979  13.352   4.557 -0.0549  0.0130 -0.2964
  955XCA     C3 8608   6.432  13.344   4.737  0.0435  0.1092 -0.0806
  955XCA     C4 8609   6.774  13.357   5.087  0.2905 -0.2163  0.2452
  955XCA     C5 8610   6.990  13.453   5.450  0.0285 -0.1367  0.0594
  955XCA     C6 8611   7.155  13.769   5.707  0.0854  0.0896  0.1195
  956PNCE   AM1 8612   9.983  11.872   4.980 -0.1524 -0.1549  0.0166
  956PNCE   AM2 8613  10.297  11.883   4.925 -0.0416  0.0248  0.0711
  956PNCE   T1A 8614   9.495  12.038   5.017  0.6261 -0.3353 -0.1077
  956PNCE   C2A 8615   9.212  12.306   5.166 -0.0149 -0.1649 -0.0021
  956PNCE   C3A 8616   8.987  12.570   5.437 -0.2204  0.4946  0.0497
  956PNCE   C1B 8617  10.378  12.148   5.203  0.0467  0.0908 -0.0707
  956PNCE   C2B 8618  10.463  12.275   5.659 -0.2411 -0.2708 -0.2358
  956PNCE   C3B 8619  10.768  12.416   5.964 -0.0786 -0.2035  0.0484
  956PNCE   D4B 8620  11.003  12.666   6.267  0.2060 -0.1844  0.0674
  956PNCE   C5B 8621  10.946  12.594   6.724  0.3953 -0.0548  0.2135
  956PNCE   C6B 8622  11.179  12.543   7.087 -0.0029 -0.0031  0.1949
  957CHOL   ROH 8623  13.326   6.510   8.851  0.0498 -0.0928  0.0233
  957CHOL    R1 8624  13.415   6.454   8.589  0.3526  0.0377  0.0957
  957CHOL    R2 8625  13.259   6.500   8.366  0.3248 -0.5162 -0.0034
  957CHOL    R3 8626  13.474   6.644   8.283 -0.0329  0.0784  0.0387
  957CHOL    R4 8627  13.338   6.566   8.036  0.3291 -0.5253 -0.0052
  957CHOL    R5 8628  13.548   6.533   8.084  0.4255  0.1307  0.1606
  957CHOL    C1 8629  13.586   6.740   7.766 -0.0041  0.0275  0.0335
  957CHOL    C2 8630  13.511   6.522   7.461  0.1179  0.0134 -0.2172
  958PNCE   AM1 8631   5.401  10.069   5.699  0.0412 -0.0186 -0.0755
  958PNCE   AM2 8632   5.638  10.166   5.436 -0.2424 -0.3809 -0.1552
  958PNCE   T1A 8633   5.733  10.260   5.915 -0.4413 -0.2360  0.1067
  958PNCE   C2A 8634   5.770  10.543   6.227  0.0190 -0.1678 -0.2417
  958PNCE   C3A 8635   5.712  10.574   6.633 -0.0460  0.4610 -0.1975
  958PNCE   C1B 8636   6.053  10.294   5.584 -0.0228 -0.0765 -0.2887
  958PNCE   C2B 8637   6.203  10.501   5.922  0.1246 -0.0564 -0.2959
  958PNCE   C3B 8638   6.453  10.339   6.174  0.2516 -0.1506 -0.2507
  958PNCE   D4B 8639   6.600  10.134   6.367  0.3352 -0.0321 -0.3976
  958PNCE   C5B 8640   6.966  10.006   6.454 -0.1636 -0.0407 -0.1012
  958PNCE   C6B 8641   7.312  10.209   6.579  0.2915  0.4660 -0.1193
  959CHOL   ROH 8642   0.048   2.062   8.014 -0.0763 -0.1094  0.0641
  959CHOL    R1 8643   0.053   2.117   7.737 -0.0999 -0.0078  0.0829
  959CHOL    R2 8644   0.035   2.374   7.635  0.0617  0.0474  0.1826
  959CHOL    R3 8645   0.265   2.305   7.508 -0.0152 -0.0732  0.1085
  959CHOL    R4 8646   0.155   2.524   7.348  0.1945  0.1756  0.3040
  959CHOL    R5 8647   0.214   2.327   7.276 -0.0073  0.1790  0.1306
  959CHOL    C1 8648   0.441   2.546   7.062  0.1997  0.1370  0.3051
  959CHOL    C2 8649   0.381   2.732   6.745 -0.0276 -0.0611 -0.1299
  960CHOL   ROH 8650   0.758   3.584   6.779 -0.2823 -0.1983 -0.0033
  960CHOL    R1 8651   0.534   3.748   6.725 -0.1764  0.0296  0.2284
  960CHOL    R2 8652   0.509   4.004   6.825  0.3142  0.1615  0.0407
  960CHOL    R3 8653   0.473   4.068   6.564 -0.0471 -0.0420  0.0336
  960CHOL    R4 8654   0.303   4.256   6.711  0.3968  0.2821  0.1532
  960CHOL    R5 8655   0.241   4.125   6.548 -0.0191  0.1944  0.3684
  960CHOL    C1 8656   0.148   4.463   6.398  0.1056  0.1612  0.2122
  960CHOL    C2 8657   0.170   4.692   6.579  0.1566 -0.0722 -0.1362
  961PNCE   AM1 8658   6.540   0.941   3.670  0.1791  0.3856  0.1188
  961PNCE   AM2 8659   6.400   0.691   3.838  0.0031  0.2898  0.0373
  961PNCE   T1A 8660   6.434   1.260   4.026  0.1301 -0.1937  0.4840
  961PNCE   C2A 8661   6.282   1.272   4.544  0.1588 -0.2190 -0.1435
  961PNCE   C3A 8662   6.234   1.099   4.973  0.3835  0.0223 -0.1544
  961PNCE   C1B 8663   6.349   0.803   4.194  0.0024  0.0733 -0.2166
  961PNCE   C2B 8664   6.339   0.728   4.651  0.1215 -0.1284  0.0667
  961PNCE   C3B 8665   6.218   0.604   4.993  0.2335 -0.1306 -0.1363
  961PNCE   D4B 8666   6.286   0.619   5.375  0.1677 -0.0740 -0.0100
  961PNCE   C5B 8667   5.901   0.563   5.614  0.0895 -0.3013  0.2997
  961PNCE   C6B 8668   5.586   0.739   5.794 -0.2692  0.3931  0.0628
  962CHOL   ROH 8669   4.952   2.704   5.982  0.1973  0.2698 -0.0215
  962CHOL    R1 8670   4.988   2.811   5.722  0.2306  0.0453 -0.1121
  962CHOL    R2 8671   5.053   2.654   5.503 -0.0764 -0.1963 -0.0368
  962CHOL    R3 8672   4.832   2.770   5.396  0.0304  0.0305 -0.0162
  962CHOL    R4 8673   5.021   2.749   5.173  0.0108 -0.1116 -0.0214
  962CHOL    R5 8674   4.919   2.929   5.239  0.1806 -0.0243  0.0091
  962CHOL    C1 8675   4.795   2.913   4.879  0.1619  0.1506  0.0071
  962CHOL    C2 8676   4.890   2.943   4.539 -0.0304 -0.4299 -0.1585
  963PNCE   AM1 8677  15.188  10.675   5.687 -0.1953 -0.1485  0.3098
  963PNCE   AM2 8678  15.291  10.446   5.585  0.1070  0.2125  0.1490
  963PNCE   T1A 8679  14.894  10.440   5.915 -0.0263  0.1623 -0.1128
  963PNCE   C2A 8680  14.586  10.167   6.129  0.1681 -0.2074  0.2239
  963PNCE   C3A 8681  14.441  10.236   6.547  0.2393 -0.1721  0.0382
  963PNCE   C1B 8682  15.410  10.200   5.888  0.3052 -0.1254  0.0793
  963PNCE   C2B 8683  15.427  10.137   6.282  0.0818  0.0050 -0.2263
  963PNCE   C3B 8684  15.361  10.190   6.733  0.0772 -0.0276 -0.0772
  963PNCE   D4B 8685  15.401  10.533   7.041  0.0688  0.0359 -0.2916
  963PNCE   C5B 8686  15.705  10.587   7.409 -0.3632  0.2071 -0.0730
  963PNCE   C6B 8687  15.646  10.503   7.912  0.0664  0.0305  0.0890
  964CHOL   ROH 8688   7.160  10.250   8.313 -0.1929  0.2317  0.0233
  964CHOL    R1 8689   7.133  10.119   8.063 -0.1822  0.1718  0.0533
  964CHOL    R2 8690   6.926   9.945   8.009 -0.2062  0.1945  0.0706
  964CHOL    R3 8691   6.886  10.109   7.796 -0.1478  0.1465  0.0223
  964CHOL    R4 8692   6.805   9.843   7.701 -0.1246  0.1251  0.0611
  964CHOL    R5 8693   6.949   9.977   7.606 -0.0979  0.1024  0.0692
  964CHOL    C1 8694   6.698   9.939   7.322 -0.0223  0.0396  0.0103
  964CHOL    C2 8695   6.809  10.096   6.988 -0.1317  0.2365 -0.4934
  965XCA    COO 8696   4.960  15.769   7.045  0.2156 -0.0211 -0.2974
  965XCA     C1 8697   4.895  16.289   6.909  0.1950 -0.1951 -0.1278
  965XCA     C2 8698   4.755  16.579   7.031 -0.0997  0.0425  0.1628
  965XCA     C3 8699   4.555  16.743   6.728  0.3630  0.1905 -0.2314
  965XCA     C4 8700   4.308  16.931   6.591  0.0743 -0.4089 -0.0130
  965XCA     C5 8701   4.125  17.121   6.305 -0.2530 -0.2194  0.0310
  965XCA     C6 8702   3.850  17.284   6.180 -0.0901 -0.1187  0.0297
  966XCA    COO 8703  12.446   3.554   4.862  0.0951 -0.1692  0.1662
  966XCA     C1 8704  12.628   3.795   5.185 -0.0464  0.2222  0.0692
  966XCA     C2 8705  12.682   3.765   5.577 -0.5875 -0.0944 -0.1777
  966XCA     C3 8706  12.447   3.621   5.937 -0.3574 -0.0105 -0.2970
  966XCA     C4 8707  12.400   3.709   6.455 -0.0218 -0.1251  0.0612
  966XCA     C5 8708  12.531   3.525   6.816  0.4824  0.0847  0.0281
  966XCA     C6 8709  12.754   3.297   7.084 -0.1136 -0.0803  0.0095
  967PNCE   AM1 8710   7.441  10.704   8.592  0.0465  0.2262 -0.0581
  967PNCE   AM2 8711   7.561  10.909   8.434  0.0159  0.0219 -0.3256
  967PNCE   T1A 8712   7.616  10.382   8.308 -0.1537 -0.0300 -0.0321
  967PNCE   C2A 8713   7.747  10.486   7.886 -0.0248  0.0248  0.1620
  967PNCE   C3A 8714   7.912  10.529   7.482 -0.0466 -0.1075  0.2298
  967PNCE   C1B 8715   7.479  10.945   7.939 -0.1496  0.0810  0.0579
  967PNCE   C2B 8716   7.487  10.916   7.520 -0.1026 -0.0352  0.1607
  967PNCE   C3B 8717   7.324  10.631   7.362 -0.0439  0.0567 -0.0969
  967PNCE   D4B 8718   7.296  10.327   7.056  0.0357  0.0379 -0.1818
  967PNCE   C5B 8719   6.914  10.482   6.774 -0.0971  0.1736  0.1170
  967PNCE   C6B 8720   6.643  10.789   6.649 -0.2363 -0.3010 -0.0094
  968PNCE   AM1 8721   4.660   8.289   4.795 -0.0470  0.0337  0.2148
  968PNCE   AM2 8722   4.409   8.427   4.992 -0.2917 -0.1877  0.2143
  968PNCE   T1A 8723   4.808   7.971   5.020 -0.0667 -0.2012  0.2067
  968PNCE   C2A 8724   4.877   7.511   5.176 -0.0692  0.0480 -0.1906
  968PNCE   C3A 8725   4.731   7.113   5.240  0.0229  0.0492  0.0457
  968PNCE   C1B 8726   4.576   8.233   5.348 -0.1032 -0.1925 -0.0958
  968PNCE   C2B 8727   4.784   8.206   5.724 -0.3532 -0.2383  0.3028
  968PNCE   C3B 8728   4.908   7.968   6.136  0.2640 -0.1335 -0.2336
  968PNCE   D4B 8729   4.813   7.632   6.309  0.1162 -0.2736  0.0506
  968PNCE   C5B 8730   4.637   7.531   6.679 -0.1468  0.0445 -0.1964
  968PNCE   C6B 8731   4.530   7.478   7.072  0.0967 -0.3502 -0.2500
  969PNCE   AM1 8732   8.741   8.599   5.582  0.2432 -0.1091 -0.3448
  969PNCE   AM2 8733   8.918   8.636   5.366 -0.2013 -0.1129 -0.1648
  969PNCE   T1A 8734   8.341   8.672   5.774 -0.0594  0.3425  0.0116
  969PNCE   C2A 8735   7.863   8.757   5.874  0.1467  0.0906  0.0382
  969PNCE   C3A 8736   7.427   8.776   5.610  0.3403  0.0842  0.0558
  969PNCE   C1B 8737   9.205   8.410   5.655 -0.0567  0.1367  0.4333
  969PNCE   C2B 8738   9.395   8.202   6.002 -0.0023 -0.2436  0.0060
  969PNCE   C3B 8739   9.332   8.255   6.455 -0.1095  0.2960  0.2759
  969PNCE   D4B 8740   9.493   8.088   6.789  0.0432 -0.0577 -0.0576
  969PNCE   C5B 8741   9.277   8.235   7.166  0.1337 -0.2216 -0.0592
  969PNCE   C6B 8742   8.755   8.378   7.222  0.1076  0.0610 -0.2734
  970CHOL   ROH 8743  11.957   5.909   7.945 -0.3859 -0.1452 -0.2161
  970CHOL    R1 8744  12.122   6.090   7.803 -0.2365 -0.1199 -0.0107
  970CHOL    R2 8745  12.285   6.010   7.594 -0.1894 -0.0437  0.0113
  970CHOL    R3 8746  12.153   6.205   7.459 -0.0235  0.1251  0.0836
  970CHOL    R4 8747  12.367   6.120   7.277 -0.3562 -0.3407 -0.1396
  970CHOL    R5 8748  12.326   6.323   7.342  0.0652 -0.2222 -0.1728
  970CHOL    C1 8749  12.290   6.366   6.965 -0.2974 -0.3552 -0.1596
  970CHOL    C2 8750  12.380   6.178   6.582  0.0530  0.2055 -0.1272
  971PNCE   AM1 8751   7.927   7.814   4.548 -0.0791 -0.1388  0.0751
  971PNCE   AM2 8752   7.612   7.868   4.676  0.0419 -0.0103  0.2942
  971PNCE   T1A 8753   8.043   8.001   4.878 -0.0114  0.1248  0.0646
  971PNCE   C2A 8754   8.027   8.386   5.092  0.1681 -0.0232 -0.1066
  971PNCE   C3A 8755   8.009   8.376   5.542 -0.2853 -0.0887  0.1594
  971PNCE   C1B 8756   7.521   7.818   5.131 -0.0304 -0.2143 -0.0477
  971PNCE   C2B 8757   7.758   7.609   5.572 -0.0882 -0.3637  0.2315
  971PNCE   C3B 8758   7.729   7.624   6.074  0.3856 -0.0281  0.1312
  971PNCE   D4B 8759   7.885   7.825   6.297 -0.1234 -0.2183 -0.2996
  971PNCE   C5B 8760   7.957   8.204   6.592 -0.3329  0.1529  0.1963
  971PNCE   C6B 8761   7.865   8.557   6.750 -0.0093 -0.3333 -0.0717
  972CHOL   ROH 8762   3.069  10.461   9.175 -0.1932 -0.1928  0.0261
  972CHOL    R1 8763   2.887  10.286   9.048 -0.2723 -0.0769 -0.0231
  972CHOL    R2 8764   2.708  10.371   8.856 -0.0908  0.0194 -0.1546
  972CHOL    R3 8765   2.822  10.173   8.708 -0.1720 -0.1255 -0.0262
  972CHOL    R4 8766   2.589  10.258   8.551 -0.1067 -0.0991 -0.1052
  972CHOL    R5 8767   2.636  10.055   8.614 -0.2184 -0.0869  0.0187
  972CHOL    C1 8768   2.627  10.008   8.235 -0.1921 -0.3041  0.0441
  972CHOL    C2 8769   2.346  10.103   8.173  0.2577  0.1800 -0.2245
  973PNCE   AM1 8770   2.073   8.749   6.063  0.0280 -0.1304  0.2362
  973PNCE   AM2 8771   2.377   8.597   6.083  0.4461  0.0840  0.2577
  973PNCE   T1A 8772   2.026   8.860   6.460  0.3282  0.1642 -0.1467
  973PNCE   C2A 8773   1.960   8.978   6.846 -0.0206 -0.2050  0.0343
  973PNCE   C3A 8774   1.971   8.850   7.245 -0.0229 -0.0045  0.4791
  973PNCE   C1B 8775   2.419   8.540   6.520  0.1393 -0.1262 -0.2619
  973PNCE   C2B 8776   2.451   8.557   6.966 -0.0453 -0.0507 -0.5332
  973PNCE   C3B 8777   2.661   8.497   7.303 -0.0467  0.0242 -0.3369
  973PNCE   D4B 8778   2.733   8.310   7.724  0.0693  0.0338  0.2976
  973PNCE   C5B 8779   2.580   8.682   7.925  0.1142  0.1480  0.0518
  973PNCE   C6B 8780   2.189   8.771   8.190  0.5565  0.1044 -0.2137
  974XCA    COO 8781   1.387   5.110   5.411 -0.0856  0.2319  0.3193
  974XCA     C1 8782   1.518   4.859   5.732  0.2165  0.0697  0.1140
  974XCA     C2 8783   1.483   4.428   5.802  0.0161  0.1534  0.0369
  974XCA     C3 8784   1.526   4.185   6.233  0.1172  0.1935  0.1017
  974XCA     C4 8785   1.710   4.026   6.566 -0.0424  0.3353  0.0681
  974XCA     C5 8786   2.008   3.862   6.801  0.1073  0.0916 -0.1122
  974XCA     C6 8787   2.061   3.511   6.946  0.2036 -0.1533  0.2858
  975CHOL   ROH 8788  13.231   5.188   5.657 -0.2290 -0.2092 -0.1107
  975CHOL    R1 8789  13.216   5.180   5.939 -0.1387 -0.1426 -0.1060
  975CHOL    R2 8790  12.983   5.116   6.074 -0.0652 -0.1865 -0.0256
  975CHOL    R3 8791  13.142   4.930   6.193  0.0284 -0.1010 -0.0097
  975CHOL    R4 8792  12.905   4.944   6.364 -0.0478 -0.2640 -0.0638
  975CHOL    R5 8793  13.112   4.967   6.427 -0.0641 -0.1360 -0.0052
  975CHOL    C1 8794  13.009   4.671   6.644  0.0502 -0.2290 -0.0711
  975CHOL    C2 8795  13.141   4.868   7.037  0.1555  0.1086 -0.4413
  976XCA    COO 8796   0.944   9.912   6.202 -0.2968  0.0128  0.0633
  976XCA     C1 8797   0.944  10.059   6.651 -0.1747 -0.1278 -0.4762
  976XCA     C2 8798   1.117  10.131   7.073  0.1562  0.0609  0.1851
  976XCA     C3 8799   0.999  10.186   7.371  0.2882 -0.1347 -0.1064
  976XCA     C4 8800   1.309  10.197   7.702 -0.0049  0.1089  0.2739
  976XCA     C5 8801   1.517  10.471   8.056  0.0228  0.1036  0.1575
  976XCA     C6 8802   1.787  10.751   8.290 -0.1307  0.3169 -0.0285
  977PNCE   AM1 8803   6.047  12.232   4.240  0.3082  0.1492  0.0239
  977PNCE   AM2 8804   6.359  12.430   4.494  0.2204  0.1905  0.0019
  977PNCE   T1A 8805   5.835  11.923   4.546 -0.0427  0.0551  0.3380
  977PNCE   C2A 8806   5.654  11.947   4.943  0.3010  0.0150  0.3492
  977PNCE   C3A 8807   5.738  11.733   5.314 -0.3420  0.2035  0.0607
  977PNCE   C1B 8808   6.467  12.344   4.922  0.1101  0.2111  0.1377
  977PNCE   C2B 8809   6.378  12.454   5.330 -0.3749  0.1280 -0.2520
  977PNCE   C3B 8810   6.449  12.385   5.817 -0.0132 -0.2138 -0.0021
  977PNCE   D4B 8811   6.655  12.425   6.168  0.0143  0.3551 -0.3350
  977PNCE   C5B 8812   7.069  12.286   6.357 -0.1044  0.1746  0.1046
  977PNCE   C6B 8813   7.305  11.893   6.423  0.1609  0.1173 -0.0943
  978XCA    COO 8814   2.451   7.952   9.816  0.0157 -0.0101 -0.0620
  978XCA     C1 8815   2.479   8.256   9.545 -0.2127  0.0774 -0.1134
  978XCA     C2 8816   2.627   8.396   9.039  0.4233 -0.0024  0.0837
  978XCA     C3 8817   2.881   8.753   8.922 -0.2124  0.1536 -0.0595
  978XCA     C4 8818   2.963   9.083   8.709 -0.0282 -0.0023 -0.0505
  978XCA     C5 8819   3.068   9.321   8.462  0.0783  0.1468  0.1296
  978XCA     C6 8820   2.996   9.379   8.006 -0.1124 -0.0054  0.3110
  979PNCE   AM1 8821  11.489   9.548   5.858  0.0871 -0.0440 -0.1017
  979PNCE   AM2 8822  11.634   9.386   5.699 -0.1650 -0.2367 -0.1033
  979PNCE   T1A 8823  11.087   9.714   5.974 -0.1438 -0.1738 -0.2425
  979PNCE   C2A 8824  10.985   9.957   6.318 -0.0090 -0.0590  0.1978
  979PNCE   C3A 8825  10.639   9.967   6.640  0.2505 -0.2797 -0.0405
  979PNCE   C1B 8826  12.042   9.377   5.965 -0.1842  0.0387 -0.1567
  979PNCE   C2B 8827  12.129   9.856   6.196  0.0323  0.2082 -0.0617
  979PNCE   C3B 8828  12.005   9.901   6.621  0.0120  0.3490  0.0809
  979PNCE   D4B 8829  11.767   9.739   6.977  0.1502  0.1940  0.2024
  979PNCE   C5B 8830  11.970   9.426   7.273  0.0296 -0.0655  0.2143
  979PNCE   C6B 8831  12.150   8.999   7.328 -0.1382 -0.0505  0.0770
  980PNCE   AM1 8832  11.034   1.435   4.792 -0.2621 -0.4168 -0.1907
  980PNCE   AM2 8833  11.080   1.668   4.495 -0.3405 -0.0281  0.2629
  980PNCE   T1A 8834  11.073   1.655   5.185 -0.0358  0.0396  0.0305
  980PNCE   C2A 8835  10.943   1.783   5.584 -0.0654  0.1206 -0.2295
  980PNCE   C3A 8836  10.636   1.908   5.763  0.0956  0.0988 -0.0721
  980PNCE   C1B 8837  10.780   1.901   4.784 -0.0625  0.2767 -0.1228
  980PNCE   C2B 8838  10.981   2.244   5.020  0.2899  0.2672 -0.1332
  980PNCE   C3B 8839  11.021   2.298   5.471  0.1212 -0.0975  0.2233
  980PNCE   D4B 8840  11.163   2.123   5.925 -0.0821  0.3991 -0.0971
  980PNCE   C5B 8841  11.379   1.794   5.762  0.2107 -0.3420 -0.0556
  980PNCE   C6B 8842  11.470   1.584   5.543 -0.1912  0.1129  0.1219
  981PNCE   AM1 8843   2.325   1.818   4.104 -0.0727  0.0905  0.2885
  981PNCE   AM2 8844   2.457   1.557   4.149 -0.0378 -0.0312 -0.0339
  981PNCE   T1A 8845   2.184   2.014   4.456 -0.1696  0.1076  0.2385
  981PNCE   C2A 8846   2.059   2.128   4.864  0.1720 -0.1801 -0.2520
  981PNCE   C3A 8847   2.167   2.075   5.291 -0.0718  0.0615 -0.4105
  981PNCE   C1B 8848   2.173   1.482   4.524  0.4246 -0.0603 -0.1967
  981PNCE   C2B 8849   2.146   1.130   4.871  0.0607 -0.2700  0.1061
  981PNCE   C3B 8850   2.379   1.125   5.330  0.0248  0.2473 -0.1116
  981PNCE   D4B 8851   2.694   0.980   5.732 -0.1266 -0.1032 -0.1034
  981PNCE   C5B 8852   3.179   1.083   5.706  0.1748 -0.1333  0.2273
  981PNCE   C6B 8853   3.386   1.352   5.551  0.0865 -0.1645 -0.0525
  982CHOL   ROH 8854   4.953   2.263   7.511  0.1384 -0.1906 -0.1150
  982CHOL    R1 8855   4.928   2.501   7.359 -0.0027 -0.1705 -0.0610
  982CHOL    R2 8856   5.142   2.666   7.306 -0.1052 -0.0227 -0.0083
  982CHOL    R3 8857   5.064   2.631   7.048 -0.0656 -0.0095 -0.0227
  982CHOL    R4 8858   5.197   2.892   7.051  0.1446 -0.1103 -0.0356
  982CHOL    R5 8859   4.997   2.850   6.976  0.1264  0.0345 -0.0806
  982CHOL    C1 8860   5.155   2.991   6.659  0.3272 -0.1490 -0.0651
  982CHOL    C2 8861   5.238   2.845   6.313  0.0914  0.1502  0.0666
  983PNCE   AM1 8862  13.283   8.398   6.085 -0.1062  0.1665  0.3060
  983PNCE   AM2 8863  13.027   8.246   5.896  0.0451  0.0507 -0.2758
  983PNCE   T1A 8864  13.528   8.457   6.450  0.0272  0.0165 -0.1297
  983PNCE   C2A 8865  13.862   8.510   6.775  0.0734 -0.1160  0.0814
  983PNCE   C3A 8866  13.995   8.798   6.966  0.0069 -0.0971  0.1944
  983PNCE   C1B 8867  12.902   8.045   6.245 -0.1776 -0.1592  0.0026
  983PNCE   C2B 8868  12.832   8.122   6.675 -0.0072  0.2794 -0.2084
  983PNCE   C3B 8869  12.546   8.199   7.088  0.0220 -0.1296 -0.1316
  983PNCE   D4B 8870  12.200   8.420   7.380 -0.0969  0.0484 -0.1285
  983PNCE   C5B 8871  12.076   8.216   7.811 -0.1620  0.1641 -0.2157
  983PNCE   C6B 8872  12.068   8.216   8.280  0.0017  0.0929  0.3513
  984XCA    COO 8873   2.071  14.922   4.590  0.2901 -0.1439  0.3602
  984XCA     C1 8874   2.032  14.869   5.017  0.0902 -0.2724 -0.0351
  984XCA     C2 8875   2.032  14.974   5.409 -0.3029  0.0142 -0.0576
  984XCA     C3 8876   2.335  15.202   5.555 -0.2790  0.0317 -0.0862
  984XCA     C4 8877   2.414  15.232   5.968 -0.1218 -0.0424  0.0321
  984XCA     C5 8878   2.452  15.272   6.338  0.0027  0.1174  0.1526
  984XCA     C6 8879   2.257  15.265   6.781  0.3944  0.4671  0.2961
  985CHOL   ROH 8880   5.064   8.601   9.168  0.1541 -0.0728  0.0525
  985CHOL    R1 8881   5.021   8.684   8.901  0.0126 -0.0464  0.0833
  985CHOL    R2 8882   5.114   8.541   8.684  0.0681  0.0784  0.0292
  985CHOL    R3 8883   4.854   8.552   8.606  0.0365 -0.1138  0.0980
  985CHOL    R4 8884   5.006   8.578   8.357 -0.0306  0.2766  0.0823
  985CHOL    R5 8885   4.851   8.714   8.429 -0.1593  0.0568  0.2461
  985CHOL    C1 8886   4.699   8.611   8.095 -0.1176  0.2116  0.1777
  985CHOL    C2 8887   4.915   8.738   7.865 -0.2297 -0.1073  0.2858
  986CHOL   ROH 8888  14.914  13.197   5.429 -0.0788  0.0518 -0.1527
  986CHOL    R1 8889  14.745  13.261   5.646 -0.1537 -0.0293 -0.1858
  986CHOL    R2 8890  14.843  13.342   5.892 -0.2356 -0.1860 -0.0993
  986CHOL    R3 8891  14.678  13.554   5.852 -0.1696 -0.1258 -0.0514
  986CHOL    R4 8892  14.725  13.550   6.141 -0.2443 -0.2635 -0.0390
  986CHOL    R5 8893  14.531  13.552   6.041 -0.2186 -0.1700 -0.0892
  986CHOL    C1 8894  14.502  13.871   6.249 -0.1875 -0.2520  0.0411
  986CHOL    C2 8895  14.513  14.180   6.558  0.1236 -0.2227 -0.0153
  987XCA    COO 8896  10.692   3.303   4.726  0.1079  0.3612 -0.1251
  987XCA     C1 8897  10.454   3.270   4.980 -0.1948  0.0499 -0.0337
  987XCA     C2 8898  10.484   3.144   5.409  0.0269  0.0655  0.0531
  987XCA     C3 8899  10.227   3.040   5.756  0.2350  0.0452 -0.0354
  987XCA     C4 8900  10.159   2.677   6.078  0.3559  0.0663  0.0458
  987XCA     C5 8901  10.259   2.333   6.183  0.2475  0.0305 -0.1605
  987XCA     C6 8902  10.050   1.961   6.083 -0.0688 -0.0939  0.0011
  988PNCE   AM1 8903  12.042  11.403   5.391  0.1492  0.3306  0.0034
  988PNCE   AM2 8904  11.815  11.265   5.535 -0.1154  0.0123 -0.1221
  988PNCE   T1A 8905  11.952  11.794   5.530 -0.2298  0.0087  0.3993
  988PNCE   C2A 8906  11.874  12.137   5.771  0.4624 -0.0097 -0.1473
  988PNCE   C3A 8907  12.040  12.596   5.721 -0.1076 -0.1900 -0.4572
  988PNCE   C1B 8908  12.030  11.481   5.887 -0.3385 -0.2464 -0.2195
  988PNCE   C2B 8909  12.122  11.822   6.155  0.0316 -0.0851  0.2272
  988PNCE   C3B 8910  12.268  11.979   6.480 -0.4144 -0.0313 -0.0010
  988PNCE   D4B 8911  12.399  11.846   6.845 -0.3782 -0.1365  0.2630
  988PNCE   C5B 8912  12.551  11.474   7.005 -0.0593 -0.0386  0.1909
  988PNCE   C6B 8913  12.497  11.025   7.097  0.1046  0.1800 -0.0915
  989CHOL   ROH 8914   3.303   2.029   4.193 -0.1318  0.0089  0.0294
  989CHOL    R1 8915   3.231   1.786   4.318  0.0158  0.0057  0.1095
  989CHOL    R2 8916   3.383   1.670   4.517  0.0404  0.2110  0.2080
  989CHOL    R3 8917   3.149   1.676   4.655 -0.0110  0.0851  0.1303
  989CHOL    R4 8918   3.325   1.505   4.815  0.0294  0.1576  0.1770
  989CHOL    R5 8919   3.125   1.455   4.743  0.0736  0.0620  0.1050
  989CHOL    C1 8920   3.071   1.415   5.119 -0.0252  0.0083  0.0862
  989CHOL    C2 8921   2.841   1.402   5.450  0.2001 -0.0689 -0.0277
  990CHOL   ROH 8922   5.127  14.444   5.591 -0.0931  0.0587  0.0097
  990CHOL    R1 8923   5.132  14.170   5.663 -0.3507  0.0605  0.0331
  990CHOL    R2 8924   4.950  13.987   5.565 -0.1459  0.1150 -0.4452
  990CHOL    R3 8925   5.173  13.852   5.491  0.0254  0.0410  0.1428
  990CHOL    R4 8926   4.958  13.653   5.478 -0.1120  0.1774 -0.6991
  990CHOL    R5 8927   5.146  13.634   5.588 -0.4385 -0.0321 -0.1016
  990CHOL    C1 8928   5.173  13.331   5.358  0.0684  0.1444 -0.2949
  990CHOL    C2 8929   5.453  13.082   5.144  0.2088  0.0101 -0.0834
  991CHOL   ROH 8930   5.825   9.371   8.302  0.2327 -0.1492 -0.0223
  991CHOL    R1 8931   5.757   9.111   8.214  0.2278 -0.1245 -0.0911
  991CHOL    R2 8932   5.534   9.059   8.060  0.1136 -0.1060  0.0741
  991CHOL    R3 8933   5.715   8.942   7.895  0.0024  0.0152 -0.1393
  991CHOL    R4 8934   5.459   8.813   7.829  0.0107 -0.2296  0.2363
  991CHOL    R5 8935   5.645   8.712   7.884  0.1825 -0.0542  0.0179
  991CHOL    C1 8936   5.586   8.559   7.540 -0.1536 -0.1880  0.1302
  991CHOL    C2 8937   5.606   8.530   7.156 -0.1616  0.1622  0.0384
  992CHOL   ROH 8938   3.747   6.429   7.509 -0.0095 -0.0860  0.0346
  992CHOL    R1 8939   3.846   6.215   7.352 -0.0233  0.0517 -0.1652
  992CHOL    R2 8940   3.908   5.968   7.458  0.3016  0.0534 -0.3292
  992CHOL    R3 8941   3.738   5.878   7.266  0.1399 -0.0005 -0.1631
  992CHOL    R4 8942   3.893   5.642   7.344  0.2347  0.0353 -0.2682
  992CHOL    R5 8943   3.867   5.719   7.142  0.0438 -0.0029 -0.2550
  992CHOL    C1 8944   3.725   5.368   7.097  0.0439 -0.0259 -0.0768
  992CHOL    C2 8945   3.856   5.247   6.862  0.2359  0.0176  0.1005
  993CHOL   ROH 8946   6.227   5.510   5.007 -0.1293 -0.0006 -0.0292
  993CHOL    R1 8947   6.183   5.684   5.227 -0.1646 -0.0406 -0.0041
  993CHOL    R2 8948   6.006   5.625   5.431 -0.1407 -0.1141 -0.0026
  993CHOL    R3 8949   6.224   5.668   5.588 -0.1435 -0.0790 -0.0085
  993CHOL    R4 8950   6.004   5.628   5.776 -0.1018 -0.2591 -0.0004
  993CHOL    R5 8951   6.140   5.797   5.771 -0.1815 -0.1942  0.0549
  993CHOL    C1 8952   6.206   5.671   6.125 -0.0818 -0.3106 -0.0046
  993CHOL    C2 8953   6.312   5.774   6.605  0.1083  0.0130 -0.2259
  994CHOL   ROH 8954  11.090   8.170   5.691  0.2214  0.1523  0.2706
  994CHOL    R1 8955  10.999   7.953   5.848  0.1468  0.0860  0.1367
  994CHOL    R2 8956  10.971   7.968   6.122  0.0528 -0.0411  0.1339
  994CHOL    R3 8957  10.717   7.886   6.069  0.0632  0.0050  0.0081
  994CHOL    R4 8958  10.757   7.827   6.354 -0.0256 -0.1587 -0.0083
  994CHOL    R5 8959  10.691   7.687   6.200  0.0117 -0.0692 -0.1102
  994CHOL    C1 8960  10.394   7.667   6.439 -0.0615 -0.1839 -0.2092
  994CHOL    C2 8961  10.049   7.504   6.460  0.2317  0.1337  0.4874
  995PNCE   AM1 8962   7.858   8.603   4.455  0.1039 -0.4085 -0.1183
  995PNCE   AM2 8963   7.867   8.408   4.632  0.1380 -0.1715 -0.0409
  995PNCE   T1A 8964   8.063   8.846   4.909  0.0525 -0.0884  0.2802
  995PNCE   C2A 8965   8.243   8.825   5.294  0.0575  0.0108  0.1088
  995PNCE   C3A 8966   8.146   9.116   5.691  0.0741 -0.0396 -0.2603
  995PNCE   C1B 8967   7.543   8.281   4.935 -0.2106 -0.2663  0.2967
  995PNCE   C2B 8968   7.452   8.304   5.352 -0.1916  0.0640  0.0790
  995PNCE   C3B 8969   7.681   8.057   5.734 -0.2497  0.2515  0.1709
  995PNCE   D4B 8970   7.969   8.281   6.060 -0.4207  0.0195  0.0382
  995PNCE   C5B 8971   8.095   8.593   6.270  0.4460 -0.1482  0.0225
  995PNCE   C6B 8972   8.267   8.838   6.656 -0.1061  0.2054 -0.4577
  996CHOL   ROH 8973   4.875   7.506   5.600 -0.0795  0.0558  0.0587
  996CHOL    R1 8974   4.959   7.563   5.864 -0.0426 -0.1319  0.0889
  996CHOL    R2 8975   5.160   7.421   5.990  0.1980 -0.0167 -0.1572
  996CHOL    R3 8976   5.267   7.669   6.027 -0.1077  0.0875  0.0734
  996CHOL    R4 8977   5.368   7.511   6.251  0.2896 -0.0797 -0.2082
  996CHOL    R5 8978   5.263   7.701   6.264  0.0364 -0.2289  0.1248
  996CHOL    C1 8979   5.590   7.795   6.438  0.0559 -0.0185 -0.0215
  996CHOL    C2 8980   5.759   7.663   6.735 -0.2840 -0.1160  0.0383
  997PNCE   AM1 8981  12.498   9.122   5.928  0.1878 -0.1350 -0.2080
  997PNCE   AM2 8982  12.296   8.793   6.015  0.3899  0.2154  0.0585
  997PNCE   T1A 8983  12.610   9.541   6.141  0.0975  0.0256  0.0666
  997PNCE   C2A 8984  12.577   9.507   6.529 -0.1553 -0.1153  0.0103
  997PNCE   C3A 8985  12.801   9.605   6.978  0.3315 -0.1646 -0.1858
  997PNCE   C1B 8986  12.124   9.057   6.376  0.1360 -0.0440  0.0751
  997PNCE   C2B 8987  12.110   9.351   6.711  0.0023  0.3658 -0.4647
  997PNCE   C3B 8988  12.308   9.700   6.945 -0.1945 -0.1308  0.0987
  997PNCE   D4B 8989  12.153   9.938   7.329  0.0374 -0.3153 -0.1838
  997PNCE   C5B 8990  12.391  10.320   7.321 -0.0061 -0.2388  0.1268
  997PNCE   C6B 8991  12.759  10.540   7.487 -0.0434 -0.2217 -0.0805
  998PNCE   AM1 8992   6.215   3.314   4.212  0.1993 -0.4430 -0.1588
  998PNCE   AM2 8993   5.966   3.169   4.082 -0.0548 -0.2068  0.3617
  998PNCE   T1A 8994   6.019   3.294   4.613  0.0196 -0.1792 -0.3443
  998PNCE   C2A 8995   5.959   3.111   5.045  0.2410 -0.0020 -0.2780
  998PNCE   C3A 8996   5.939   3.209   5.503 -0.0340  0.2322  0.0504
  998PNCE   C1B 8997   5.796   2.876   4.409 -0.2598  0.0033  0.5673
  998PNCE   C2B 8998   5.781   2.693   4.837 -0.0201  0.0408  0.0529
  998PNCE   C3B 8999   5.756   2.300   4.913 -0.0376  0.2815 -0.2481
  998PNCE   D4B 9000   5.580   1.974   4.713  0.0417  0.0027 -0.0348
  998PNCE   C5B 9001   5.489   1.690   4.914  0.2213 -0.2247 -0.3486
  998PNCE   C6B 9002   5.408   1.333   5.211  0.1139  0.4470 -0.1838
  999CHOL   ROH 9003   7.071   1.263   7.537 -0.0415 -0.0279  0.0684
  999CHOL    R1 9004   7.128   1.135   7.291 -0.1598 -0.0187  0.0361
  999CHOL    R2 9005   7.315   1.231   7.113 -0.1136 -0.1146  0.0369
  999CHOL    R3 9006   7.418   0.980   7.135 -0.2853 -0.1929 -0.0296
  999CHOL    R4 9007   7.449   1.049   6.851  0.1481  0.0379  0.0605
  999CHOL    R5 9008   7.352   0.871   6.932 -0.0695  0.0178 -0.2220
  999CHOL    C1 9009   7.623   0.707   6.720  0.1393  0.0533  0.0117
  999CHOL    C2 9010   7.743   0.832   6.333 -0.0146 -0.1396  0.0144
 1000CHOL   ROH 9011   5.294   1.181   3.945 -0.2534  0.2910  0.0460
 1000CHOL    R1 9012   5.337   1.246   4.217 -0.0269  0.2464  0.0230
 1000CHOL    R2 9013   5.166   1.165   4.418 -0.0070  0.4389  0.1200
 1000CHOL    R3 9014   5.393   1.063   4.527 -0.0563  0.1843 -0.0081
 1000CHOL    R4 9015   5.189   1.032   4.736  0.0115  0.3708  0.0900
 1000CHOL    R5 9016   5.383   1.129   4.757  0.1281  0.1654  0.0070
 1000CHOL    C1 9017   5.417   0.858   5.023 -0.0239  0.0921 -0.0477
 1000CHOL    C2 9018   5.385   0.622   5.284  0.1538  0.0544 -0.2853
 1001XCA    COO 9019   5.814   7.888   8.578  0.0649  0.2318  0.0466
 1001XCA     C1 9020   5.886   7.706   8.244  0.0485  0.4301 -0.0246
 1001XCA     C2 9021   5.871   7.726   7.767 -0.0504 -0.2115 -0.0095
 1001XCA     C3 9022   5.515   7.637   7.566  0.0033 -0.2553 -0.3726
 1001XCA     C4 9023   5.450   7.596   7.092 -0.0656  0.1256  0.0807
 1001XCA     C5 9024   5.353   7.262   6.837  0.0478 -0.0253  0.1969
 1001XCA     C6 9025   5.100   7.297   6.575  0.0573 -0.1986 -0.0026
 1002CHOL   ROH 9026   4.243   9.205   5.677 -0.0258 -0.1862 -0.0491
 1002CHOL    R1 9027   4.356   9.098   5.913  0.0220 -0.1175 -0.0408
 1002CHOL    R2 9028   4.510   9.250   6.086 -0.0271 -0.0414 -0.0636
 1002CHOL    R3 9029   4.331   9.161   6.271  0.0118 -0.0858 -0.0472
 1002CHOL    R4 9030   4.560   9.256   6.428 -0.0410  0.0707 -0.0632
 1002CHOL    R5 9031   4.466   9.059   6.440  0.0586  0.0257 -0.0167
 1002CHOL    C1 9032   4.421   9.176   6.801 -0.0125  0.0941 -0.0475
 1002CHOL    C2 9033   4.550   9.076   7.122  0.0144  0.1165  0.1841
 1003PNCE   AM1 9034   3.425  15.575   4.188 -0.1642 -0.1984 -0.0255
 1003PNCE   AM2 9035   3.269  15.876   4.271 -0.0927 -0.2156  0.0344
 1003PNCE   T1A 9036   3.677  15.302   4.408  0.1180  0.0574  0.0363
 1003PNCE   C2A 9037   3.801  14.919   4.752  0.2299 -0.1467 -0.3778
 1003PNCE   C3A 9038   4.041  14.726   5.007 -0.0651 -0.1439 -0.0177
 1003PNCE   C1B 9039   3.431  15.805   4.690 -0.1614  0.1091  0.0465
 1003PNCE   C2B 9040   3.831  15.846   4.866 -0.0717 -0.0857  0.2815
 1003PNCE   C3B 9041   4.156  15.847   5.123 -0.1975 -0.0180 -0.2065
 1003PNCE   D4B 9042   4.598  15.948   5.310  0.3668 -0.2523  0.0649
 1003PNCE   C5B 9043   4.673  15.859   5.716 -0.1908 -0.1111  0.0063
 1003PNCE   C6B 9044   4.916  15.543   6.079  0.0971  0.2242  0.0794
 1004CHOL   ROH 9045  11.114  11.653   5.386  0.0749  0.0478 -0.2770
 1004CHOL    R1 9046  11.203  11.691   5.652 -0.1488  0.0612 -0.2009
 1004CHOL    R2 9047  11.469  11.667   5.724 -0.2238 -0.0703  0.0511
 1004CHOL    R3 9048  11.430  11.917   5.825 -0.1808 -0.0233 -0.0479
 1004CHOL    R4 9049  11.653  11.807   5.981 -0.2999 -0.0563  0.0978
 1004CHOL    R5 9050  11.468  11.892   6.060 -0.3071  0.0381 -0.0211
 1004CHOL    C1 9051  11.723  12.122   6.226 -0.3040 -0.0041  0.0321
 1004CHOL    C2 9052  11.865  12.278   6.478  0.0220  0.0059  0.2131
 1005PNCE   AM1 9053  10.531  12.378   8.679 -0.1918  0.1037 -0.0191
 1005PNCE   AM2 9054  10.377  12.648   8.646 -0.0538 -0.0677  0.1260
 1005PNCE   T1A 9055  10.502  12.338   8.305 -0.0948  0.1737  0.4413
 1005PNCE   C2A 9056  10.221  12.117   8.047 -0.2794  0.1285  0.0414
 1005PNCE   C3A 9057   9.909  12.336   7.780 -0.1098 -0.2182  0.3048
 1005PNCE   C1B 9058  10.045  12.508   8.400 -0.0718 -0.2430 -0.2742
 1005PNCE   C2B 9059   9.775  12.239   8.223 -0.0303  0.0447 -0.1062
 1005PNCE   C3B 9060   9.536  11.965   7.906  0.0465 -0.4616 -0.0211
 1005PNCE   D4B 9061   9.488  11.590   7.579 -0.0910 -0.1080  0.1765
 1005PNCE   C5B 9062   9.839  11.332   7.364  0.2164 -0.2465 -0.0695
 1005PNCE   C6B 9063  10.241  11.239   7.337 -0.1398  0.2103 -0.3292
 1006PNCE   AM1 9064   0.308   1.580   3.848 -0.4355  0.2583 -0.2080
 1006PNCE   AM2 9065   0.633   1.493   3.840  0.3292  0.0171 -0.1122
 1006PNCE   T1A 9066   0.057   1.554   4.111 -0.0872  0.1124 -0.0260
 1006PNCE   C2A 9067  -0.209   1.504   4.628  0.2071  0.1494 -0.0391
 1006PNCE   C3A 9068  -0.127   1.168   4.969 -0.0256 -0.0020  0.1464
 1006PNCE   C1B 9069   0.698   1.538   4.226 -0.0540  0.0813  0.0624
 1006PNCE   C2B 9070   0.764   1.675   4.689  0.1257 -0.0207  0.1572
 1006PNCE   C3B 9071   0.716   1.907   5.103  0.0932  0.0594  0.2346
 1006PNCE   D4B 9072   0.937   2.189   5.364  0.3210  0.3572  0.0261
 1006PNCE   C5B 9073   1.218   2.032   5.710  0.1629 -0.1100  0.0570
 1006PNCE   C6B 9074   1.262   1.658   5.945 -0.1108 -0.2339  0.0256
 1007PNCE   AM1 9075   4.655   1.393   3.965 -0.1384  0.0361  0.1553
 1007PNCE   AM2 9076   4.975   1.535   3.859 -0.0359 -0.1098  0.2228
 1007PNCE   T1A 9077   4.718   1.443   4.338 -0.0538  0.0140  0.0780
 1007PNCE   C2A 9078   4.514   1.599   4.780  0.0697 -0.2293 -0.0601
 1007PNCE   C3A 9079   4.675   1.765   5.115  0.1729  0.2145  0.0757
 1007PNCE   C1B 9080   5.162   1.749   4.213 -0.3766  0.1178  0.1187
 1007PNCE   C2B 9081   5.183   1.639   4.515  0.0624 -0.1125 -0.0827
 1007PNCE   C3B 9082   5.017   1.455   4.876 -0.5007 -0.1164 -0.1364
 1007PNCE   D4B 9083   4.735   1.170   4.824 -0.0414 -0.3664  0.2989
 1007PNCE   C5B 9084   4.748   0.770   4.630 -0.0309 -0.0671 -0.0231
 1007PNCE   C6B 9085   4.796   0.505   4.346 -0.2617 -0.0586  0.0815
 1008CHOL   ROH 9086   4.328  12.796   8.592  0.1036  0.2584  0.0432
 1008CHOL    R1 9087   4.229  12.819   8.327  0.1991  0.1740  0.0020
 1008CHOL    R2 9088   4.380  12.751   8.106  0.1717 -0.1832  0.0998
 1008CHOL    R3 9089   4.166  12.593   8.049 -0.0099  0.0330  0.1553
 1008CHOL    R4 9090   4.351  12.551   7.826 -0.0891 -0.1462  0.0954
 1008CHOL    R5 9091   4.142  12.609   7.811 -0.0487  0.0720  0.1519
 1008CHOL    C1 9092   4.134  12.285   7.610 -0.4115  0.0783  0.1451
 1008CHOL    C2 9093   4.066  12.129   7.313  0.1218 -0.2487  0.2028
 1009CHOL   ROH 9094   3.272   2.698   8.088 -0.0096 -0.2153 -0.3123
 1009CHOL    R1 9095   3.392   2.868   7.896 -0.1144  0.0041 -0.1875
 1009CHOL    R2 9096   3.467   2.779   7.645  0.2769  0.1398 -0.1238
 1009CHOL    R3 9097   3.313   2.987   7.561 -0.0046 -0.1139 -0.2575
 1009CHOL    R4 9098   3.495   2.935   7.338  0.2023  0.1032 -0.1498
 1009CHOL    R5 9099   3.463   3.127   7.437 -0.1464  0.0874 -0.2124
 1009CHOL    C1 9100   3.367   3.221   7.080 -0.1054 -0.1562 -0.2904
 1009CHOL    C2 9101   3.689   3.099   6.854 -0.0318 -0.0545 -0.0202
 1010CHOL   ROH 9102  14.664   4.585   5.709 -0.2405  0.0136  0.0501
 1010CHOL    R1 9103  14.629   4.709   5.961 -0.0855 -0.0860  0.1219
 1010CHOL    R2 9104  14.397   4.840   6.031  0.0771  0.1681  0.1943
 1010CHOL    R3 9105  14.404   4.672   6.245 -0.1355  0.0331  0.0989
 1010CHOL    R4 9106  14.242   4.899   6.335  0.1905  0.2210  0.2424
 1010CHOL    R5 9107  14.417   4.817   6.434  0.0920 -0.0863  0.1800
 1010CHOL    C1 9108  14.159   4.775   6.711  0.0569  0.1251  0.1808
 1010CHOL    C2 9109  13.956   5.017   6.777  0.0432  0.0701 -0.1598
 1011XCA    COO 9110   6.194  10.374   8.697  0.0586  0.0564 -0.1216
 1011XCA     C1 9111   6.108  10.371   8.279  0.0868  0.0138 -0.0446
 1011XCA     C2 9112   6.186  10.400   7.827 -0.3343 -0.0885  0.1529
 1011XCA     C3 9113   6.177  10.597   7.427  0.0384 -0.2463  0.0015
 1011XCA     C4 9114   6.595  10.781   7.207 -0.0080  0.0399 -0.2402
 1011XCA     C5 9115   7.042  10.961   7.091  0.1079  0.0648  0.0780
 1011XCA     C6 9116   7.263  11.274   7.158 -0.0558  0.0075 -0.3670
 1012PNCE   AM1 9117   1.360  14.596   4.729 -0.2280  0.1322  0.1247
 1012PNCE   AM2 9118   1.710  14.498   4.922 -0.2098  0.0482  0.1343
 1012PNCE   T1A 9119   1.290  14.733   5.192  0.1450 -0.0033  0.1847
 1012PNCE   C2A 9120   1.586  14.723   5.434 -0.2609  0.3638  0.0664
 1012PNCE   C3A 9121   1.839  14.415   5.692  0.2914 -0.0545  0.3485
 1012PNCE   C1B 9122   1.611  14.255   5.237  0.3410 -0.0228  0.3755
 1012PNCE   C2B 9123   1.323  14.339   5.568 -0.3227 -0.3408 -0.2557
 1012PNCE   C3B 9124   0.916  14.488   5.486  0.2149 -0.0492 -0.1104
 1012PNCE   D4B 9125   0.580  14.350   5.452 -0.1438  0.1683 -0.1390
 1012PNCE   C5B 9126   0.217  14.541   5.631 -0.0107 -0.2156 -0.2215
 1012PNCE   C6B 9127   0.095  14.866   5.948  0.0032  0.0847 -0.0416
 1013CHOL   ROH 9128  14.109  15.789   4.478 -0.0360 -0.0621  0.0151
 1013CHOL    R1 9129  13.985  15.942   4.681  0.0010 -0.0219  0.0082
 1013CHOL    R2 9130  13.799  15.835   4.855  0.0028  0.0216  0.0394
 1013CHOL    R3 9131  13.967  15.934   5.044  0.0338  0.0235  0.0105
 1013CHOL    R4 9132  13.724  15.863   5.191  0.0417  0.0739  0.0435
 1013CHOL    R5 9133  13.825  16.056   5.193  0.0659  0.0599  0.0098
 1013CHOL    C1 9134  13.839  15.973   5.565  0.0935  0.1060  0.0188
 1013CHOL    C2 9135  13.719  15.780   5.874 -0.2138  0.1415 -0.1563
 1014PNCE   AM1 9136   7.409   5.676   4.510  0.0846 -0.0594  0.0473
 1014PNCE   AM2 9137   7.013   5.666   4.465  0.0137 -0.0903 -0.0426
 1014PNCE   T1A 9138   7.544   5.272   4.703 -0.1961  0.1025  0.0291
 1014PNCE   C2A 9139   7.553   5.260   5.122  0.2921  0.2252  0.1924
 1014PNCE   C3A 9140   7.373   4.956   5.460 -0.1626  0.5420 -0.0783
 1014PNCE   C1B 9141   7.137   5.786   4.899  0.0646 -0.0470  0.2106
 1014PNCE   C2B 9142   7.148   5.568   5.268  0.0159 -0.1369  0.0318
 1014PNCE   C3B 9143   7.184   5.397   5.663 -0.1174 -0.1086 -0.0329
 1014PNCE   D4B 9144   7.389   5.089   5.939  0.4558 -0.1288 -0.1948
 1014PNCE   C5B 9145   7.297   5.186   6.281  0.1427  0.1907  0.1382
 1014PNCE   C6B 9146   7.132   5.245   6.642 -0.3262 -0.1656  0.1923
 1015XCA    COO 9147   1.083   7.023   9.547 -0.1846 -0.4745 -0.2773
 1015XCA     C1 9148   1.034   7.015   9.123 -0.1807 -0.0184 -0.0488
 1015XCA     C2 9149   1.050   7.222   8.731 -0.1457  0.1238  0.0905
 1015XCA     C3 9150   1.103   7.281   8.295 -0.0482 -0.0019 -0.0812
 1015XCA     C4 9151   1.263   7.278   7.886  0.1154 -0.1023 -0.0753
 1015XCA     C5 9152   1.178   7.598   7.567 -0.2200 -0.2383 -0.0280
 1015XCA     C6 9153   1.301   7.575   7.126 -0.0632 -0.2266  0.1457
 1016CHOL   ROH 9154   9.195  13.725   7.236 -0.0258  0.1065 -0.0716
 1016CHOL    R1 9155   9.059  13.516   7.103 -0.0427  0.1024 -0.0488
 1016CHOL    R2 9156   9.190  13.335   6.939 -0.0589  0.0804 -0.0391
 1016CHOL    R3 9157   9.071  13.152   7.101 -0.0624  0.1018 -0.0180
 1016CHOL    R4 9158   9.198  12.993   6.889 -0.1365  0.0795 -0.0455
 1016CHOL    R5 9159   8.989  12.984   6.951 -0.1256  0.1201 -0.0036
 1016CHOL    C1 9160   9.092  12.622   7.012 -0.1850  0.0991 -0.0295
 1016CHOL    C2 9161   9.228  12.273   7.069 -0.0398  0.0029  0.0715
 1017XCA    COO 9162   0.676   0.454   3.705 -0.0286 -0.2709 -0.0001
 1017XCA     C1 9163   0.680   0.651   4.138 -0.1608  0.1650 -0.0843
 1017XCA     C2 9164   0.469   0.816   4.520 -0.0482  0.2283 -0.2549
 1017XCA     C3 9165   0.708   0.785   4.874 -0.1088  0.1416 -0.3556
 1017XCA     C4 9166   1.089   0.610   5.075  0.1481 -0.1553  0.1954
 1017XCA     C5 9167   1.186   0.508   5.436  0.0567  0.0969 -0.2576
 1017XCA     C6 9168   0.897   0.446   5.744 -0.1698  0.0451 -0.2501
 1018CHOL   ROH 9169   9.096   0.366   6.632  0.0391 -0.0576 -0.0615
 1018CHOL    R1 9170   9.010   0.626   6.703 -0.0496 -0.1031 -0.0021
 1018CHOL    R2 9171   9.182   0.842   6.711 -0.1174 -0.0554  0.0812
 1018CHOL    R3 9172   8.999   0.954   6.544 -0.1273 -0.0609  0.0873
 1018CHOL    R4 9173   9.096   1.177   6.707  0.0225 -0.0193 -0.0477
 1018CHOL    R5 9174   8.888   1.118   6.678 -0.0149  0.0508  0.0492
 1018CHOL    C1 9175   8.874   1.477   6.548  0.0947 -0.0034 -0.1171
 1018CHOL    C2 9176   8.668   1.842   6.608  0.1079  0.1568 -0.2344
 1019PNCE   AM1 9177  14.737   8.935   9.687  0.1633  0.0429 -0.0293
 1019PNCE   AM2 9178  15.023   9.071   9.503 -0.0241 -0.0311 -0.2453
 1019PNCE   T1A 9179  14.836   8.564   9.530 -0.1467 -0.0742 -0.0666
 1019PNCE   C2A 9180  14.991   8.231   9.295 -0.3345  0.0307  0.0306
 1019PNCE   C3A 9181  14.901   8.117   8.978 -0.0111  0.4463 -0.2272
 1019PNCE   C1B 9182  14.859   9.205   9.154  0.2056 -0.0705 -0.0961
 1019PNCE   C2B 9183  14.894   9.526   8.825 -0.1646 -0.1869  0.0482
 1019PNCE   C3B 9184  14.799   9.727   8.438 -0.3318 -0.1181 -0.3244
 1019PNCE   D4B 9185  15.202   9.989   8.261 -0.5067  0.1091 -0.1234
 1019PNCE   C5B 9186  15.337  10.069   7.729 -0.0554 -0.1354  0.1192
 1019PNCE   C6B 9187  15.536  10.088   7.350 -0.0897 -0.2351 -0.0660
 1020XCA    COO 9188  12.378   7.044   5.436 -0.1254 -0.1433  0.1651
 1020XCA     C1 9189  12.377   6.806   5.762  0.0028  0.2223 -0.0373
 1020XCA     C2 9190  12.317   6.566   6.171  0.3051 -0.0858  0.0369
 1020XCA     C3 9191  12.142   6.597   6.607 -0.0371  0.1746  0.1990
 1020XCA     C4 9192  12.425   6.861   6.876  0.1793  0.0034  0.1777
 1020XCA     C5 9193  12.628   7.163   7.064  0.0704 -0.0730 -0.2150
 1020XCA     C6 9194  12.992   7.212   7.306  0.0414 -0.0147 -0.2682
 1021PNCE   AM1 9195   7.104   7.039   4.724  0.0603 -0.0129  0.2146
 1021PNCE   AM2 9196   7.234   6.996   5.032 -0.2752 -0.3499 -0.1629
 1021PNCE   T1A 9197   6.768   6.791   5.003 -0.1010  0.0726  0.3028
 1021PNCE   C2A 9198   6.659   6.627   5.428 -0.2545 -0.1575  0.2927
 1021PNCE   C3A 9199   6.699   6.621   5.841  0.1813 -0.2097  0.0569
 1021PNCE   C1B 9200   7.177   6.627   5.326 -0.3165  0.1841 -0.0178
 1021PNCE   C2B 9201   7.206   6.580   5.896  0.0749  0.2694 -0.0714
 1021PNCE   C3B 9202   6.906   6.391   6.218 -0.0227  0.0460  0.0735
 1021PNCE   D4B 9203   6.710   6.132   6.465  0.1443  0.1699 -0.0098
 1021PNCE   C5B 9204   6.539   6.222   6.832  0.1485 -0.0227 -0.0995
 1021PNCE   C6B 9205   6.242   6.501   7.114  0.2004 -0.0196  0.3645
 1022XCA    COO 9206  14.319   1.156   8.086 -0.2634 -0.0683  0.2180
 1022XCA     C1 9207  14.275   1.571   7.801 -0.0836 -0.0168  0.0273
 1022XCA     C2 9208  14.324   1.947   7.625 -0.1011  0.1497  0.0481
 1022XCA     C3 9209  14.124   2.331   7.401  0.0388  0.0319  0.2272
 1022XCA     C4 9210  14.056   2.397   6.996 -0.1863  0.1644  0.0729
 1022XCA     C5 9211  14.042   2.705   6.763  0.1932  0.1746 -0.0083
 1022XCA     C6 9212  14.157   3.135   6.921  0.1991 -0.0340  0.0647
 1023CHOL   ROH 9213   4.008   4.771   4.940 -0.2282  0.2108 -0.0610
 1023CHOL    R1 9214   4.092   4.509   5.007 -0.1812  0.1882 -0.2058
 1023CHOL    R2 9215   4.094   4.414   5.267  0.0494  0.1200 -0.2306
 1023CHOL    R3 9216   3.943   4.215   5.161 -0.0582  0.1555 -0.1469
 1023CHOL    R4 9217   3.997   4.129   5.436 -0.0001  0.1853 -0.1472
 1023CHOL    R5 9218   4.035   4.014   5.255 -0.1000  0.1382 -0.1405
 1023CHOL    C1 9219   3.800   3.775   5.435 -0.1301  0.2566 -0.0201
 1023CHOL    C2 9220   3.522   3.580   5.513  0.0254  0.1243 -0.1409
 1024XCA    COO 9221  14.973   2.366   8.725 -0.2910 -0.0148 -0.2778
 1024XCA     C1 9222  14.616   2.405   8.444  0.0009 -0.0060 -0.1910
 1024XCA     C2 9223  14.679   2.581   8.013  0.0829  0.0546 -0.1088
 1024XCA     C3 9224  14.638   2.840   7.640  0.1172  0.2618 -0.1710
 1024XCA     C4 9225  15.028   2.907   7.363 -0.0456  0.1069  0.0509
 1024XCA     C5 9226  15.194   3.282   7.134 -0.4006  0.0002 -0.0366
 1024XCA     C6 9227  15.175   3.671   6.875  0.0649 -0.0540  0.2615
 1025CHOL   ROH 9228   2.317   0.424   4.204 -0.1395  0.0110 -0.0818
 1025CHOL    R1 9229   2.199   0.233   4.378  0.1737 -0.0842  0.0347
 1025CHOL    R2 9230   2.320   0.151   4.612  0.2223  0.4207  0.2060
 1025CHOL    R3 9231   2.084   0.226   4.723 -0.0266  0.0168 -0.0301
 1025CHOL    R4 9232   2.187   0.021   4.904  0.3360  0.4570  0.2738
 1025CHOL    R5 9233   1.991   0.023   4.810  0.3782 -0.0991  0.1458
 1025CHOL    C1 9234   1.887   0.016   5.176  0.1684  0.0991  0.0917
 1025CHOL    C2 9235   1.638   0.236   5.455  0.2210  0.3072 -0.0922
 1026CHOL   ROH 9236   0.692  11.058   6.891  0.0731 -0.2096 -0.2564
 1026CHOL    R1 9237   0.617  10.962   7.147  0.0195 -0.0973 -0.2296
 1026CHOL    R2 9238   0.470  10.730   7.181  0.0571 -0.1090 -0.1564
 1026CHOL    R3 9239   0.677  10.663   7.345  0.0233  0.0127 -0.0615
 1026CHOL    R4 9240   0.446  10.517   7.452  0.0610 -0.1418 -0.1817
 1026CHOL    R5 9241   0.578  10.650   7.563 -0.0755 -0.0628 -0.1086
 1026CHOL    C1 9242   0.626  10.329   7.763  0.0316 -0.0467 -0.1073
 1026CHOL    C2 9243   0.471  10.151   8.045 -0.0962  0.1881  0.2531
 1027PNCE   AM1 9244   3.056   7.815   6.155  0.0681  0.2999  0.0880
 1027PNCE   AM2 9245   3.237   7.944   6.070  0.0396 -0.2804  0.0315
 1027PNCE   T1A 9246   3.114   7.751   6.653 -0.1635  0.0622 -0.1009
 1027PNCE   C2A 9247   2.989   8.007   6.941 -0.0842  0.4016 -0.0629
 1027PNCE   C3A 9248   3.057   8.159   7.348 -0.0748 -0.4301 -0.1251
 1027PNCE   C1B 9249   3.425   8.150   6.460  0.0670 -0.2050  0.0405
 1027PNCE   C2B 9250   3.653   7.824   6.777 -0.1340 -0.0676  0.2492
 1027PNCE   C3B 9251   3.790   7.539   7.066 -0.1500 -0.0517  0.1678
 1027PNCE   D4B 9252   4.070   7.236   7.290  0.0698  0.0498  0.0868
 1027PNCE   C5B 9253   4.176   7.314   7.736  0.1829  0.0793  0.0905
 1027PNCE   C6B 9254   4.470   7.427   8.167 -0.0209 -0.0861  0.1154
 1028CHOL   ROH 9255   2.949  15.370   4.336 -0.2837  0.0415 -0.0047
 1028CHOL    R1 9256   3.099  15.440   4.566 -0.1458  0.1847 -0.1364
 1028CHOL    R2 9257   3.028  15.649   4.732 -0.2325  0.0818 -0.0466
 1028CHOL    R3 9258   3.040  15.457   4.924  0.1708  0.0699 -0.0749
 1028CHOL    R4 9259   3.041  15.712   5.071 -0.1721  0.0612 -0.0445
 1028CHOL    R5 9260   3.186  15.550   5.090  0.1053  0.2888 -0.1338
 1028CHOL    C1 9261   3.060  15.569   5.450  0.2417  0.0381 -0.0698
 1028CHOL    C2 9262   3.381  15.629   5.711  0.0640  0.2407  0.0061
 1029PNCE   AM1 9263  12.477   5.192   5.507  0.2252 -0.0590  0.1501
 1029PNCE   AM2 9264  12.472   4.961   5.355 -0.1469 -0.4085  0.1275
 1029PNCE   T1A 9265  12.519   5.083   5.878  0.0284  0.0305 -0.3263
 1029PNCE   C2A 9266  12.370   5.005   6.165 -0.1489  0.1567  0.2633
 1029PNCE   C3A 9267  12.048   4.882   6.527 -0.1112  0.3554  0.1088
 1029PNCE   C1B 9268  12.256   4.693   5.671 -0.0046  0.1663  0.0989
 1029PNCE   C2B 9269  12.297   4.499   6.055 -0.1228 -0.0186  0.2108
 1029PNCE   C3B 9270  12.350   4.345   6.415 -0.1338 -0.1339 -0.0689
 1029PNCE   D4B 9271  12.381   4.055   6.804 -0.1560 -0.3282  0.0590
 1029PNCE   C5B 9272  12.132   3.776   6.950 -0.2325 -0.1742  0.0680
 1029PNCE   C6B 9273  12.059   3.356   6.741 -0.2547 -0.1146  0.2306
 1030XCA    COO 9274  11.932   5.533   4.852 -0.1217  0.0490  0.0162
 1030XCA     C1 9275  12.192   5.453   5.206  0.2038 -0.0222  0.0529
 1030XCA     C2 9276  11.952   5.196   5.578 -0.1993  0.4799 -0.2216
 1030XCA     C3 9277  11.836   4.864   5.997  0.1847 -0.2269  0.0230
 1030XCA     C4 9278  11.598   4.897   6.307  0.1918  0.0517  0.3438
 1030XCA     C5 9279  11.314   5.132   6.574  0.1909 -0.2468 -0.0137
 1030XCA     C6 9280  10.980   5.220   6.864  0.2214 -0.1764 -0.2145
 1031CHOL   ROH 9281  14.847   3.441   8.439  0.1764 -0.0967  0.1767
 1031CHOL    R1 9282  14.923   3.561   8.194  0.0469  0.0051  0.1842
 1031CHOL    R2 9283  15.070   3.795   8.183  0.0279  0.0246  0.2023
 1031CHOL    R3 9284  15.235   3.646   8.027 -0.0408  0.0906  0.0661
 1031CHOL    R4 9285  15.246   3.915   7.910 -0.0947  0.1257  0.1678
 1031CHOL    R5 9286  15.200   3.730   7.805 -0.1379  0.1727  0.1172
 1031CHOL    C1 9287  15.504   3.845   7.606 -0.2305  0.2465  0.0198
 1031CHOL    C2 9288  15.795   3.890   7.376  0.0437 -0.1636 -0.0039
 1032PNCE   AM1 9289   5.692   1.044   3.432  0.2939 -0.0378  0.2270
 1032PNCE   AM2 9290   6.044   1.010   3.660 -0.1478  0.1577  0.1928
 1032PNCE   T1A 9291   5.519   0.785   3.772  0.0885 -0.1727 -0.3197
 1032PNCE   C2A 9292   5.459   0.703   4.237 -0.2318  0.3114  0.1745
 1032PNCE   C3A 9293   5.247   0.555   4.547  0.2426 -0.1483  0.1661
 1032PNCE   C1B 9294   5.828   1.089   4.069 -0.0802 -0.0015 -0.1640
 1032PNCE   C2B 9295   5.881   1.023   4.380 -0.1277  0.1952 -0.1053
 1032PNCE   C3B 9296   5.782   0.821   4.709 -0.0243 -0.2986  0.1817
 1032PNCE   D4B 9297   5.688   0.457   4.846 -0.0080 -0.0395  0.0469
 1032PNCE   C5B 9298   5.791   0.228   5.217  0.2273  0.1936  0.4322
 1032PNCE   C6B 9299   5.766   0.080   5.563 -0.1065  0.0656 -0.1927
 1033PNCE   AM1 9300   9.989   6.744   4.962  0.0554 -0.0450 -0.0402
 1033PNCE   AM2 9301  10.076   6.480   5.134 -0.0173 -0.0533 -0.0592
 1033PNCE   T1A 9302   9.830   6.880   5.310  0.1487  0.0133  0.3436
 1033PNCE   C2A 9303   9.561   6.963   5.697 -0.1127 -0.2016  0.1804
 1033PNCE   C3A 9304   9.198   6.871   5.853  0.1258  0.2599 -0.3711
 1033PNCE   C1B 9305  10.229   6.185   5.453 -0.0473 -0.2889 -0.1064
 1033PNCE   C2B 9306  10.162   5.981   5.809 -0.1681  0.1647  0.1453
 1033PNCE   C3B 9307  10.252   5.598   6.079  0.0096  0.1373  0.6006
 1033PNCE   D4B 9308  10.387   5.360   6.385 -0.2842 -0.2282  0.1099
 1033PNCE   C5B 9309  10.442   4.996   6.514 -0.0290 -0.0635 -0.1472
 1033PNCE   C6B 9310  10.245   4.625   6.800  0.2673 -0.2274  0.1430
 1034PNCE   AM1 9311   3.073  11.024   5.470 -0.1971  0.0858  0.2892
 1034PNCE   AM2 9312   3.025  10.713   5.595  0.0376 -0.0947  0.1714
 1034PNCE   T1A 9313   3.170  11.113   5.916 -0.1084 -0.0630 -0.0561
 1034PNCE   C2A 9314   3.126  11.180   6.355 -0.4265 -0.0474  0.2272
 1034PNCE   C3A 9315   3.029  11.233   6.825  0.0275  0.2767 -0.2243
 1034PNCE   C1B 9316   2.829  10.732   6.001 -0.0457  0.3291 -0.0452
 1034PNCE   C2B 9317   2.731  10.819   6.412  0.2720  0.0656 -0.1094
 1034PNCE   C3B 9318   2.598  10.841   6.871 -0.1769  0.1509  0.1276
 1034PNCE   D4B 9319   2.305  11.038   7.264 -0.0932  0.2908  0.3015
 1034PNCE   C5B 9320   2.331  11.358   7.561  0.0855  0.0408  0.7075
 1034PNCE   C6B 9321   2.618  11.743   7.713 -0.1093 -0.1349  0.0525
 1035CHOL   ROH 9322   3.309  13.840   4.361 -0.1055  0.1883 -0.2151
 1035CHOL    R1 9323   3.223  13.952   4.607 -0.0483  0.2605 -0.2279
 1035CHOL    R2 9324   3.287  13.841   4.852 -0.2169  0.1774 -0.2195
 1035CHOL    R3 9325   3.382  14.091   4.904  0.0270  0.0805 -0.1835
 1035CHOL    R4 9326   3.364  13.963   5.166 -0.0261  0.0402 -0.2108
 1035CHOL    R5 9327   3.276  14.153   5.109  0.1360  0.1344 -0.1447
 1035CHOL    C1 9328   3.497  14.268   5.398  0.3140 -0.1306 -0.1720
 1035CHOL    C2 9329   3.696  14.338   5.742 -0.0245 -0.1517  0.4356
 1036PNCE   AM1 9330   7.334  11.791   4.944  0.2692  0.1217 -0.3879
 1036PNCE   AM2 9331   7.138  11.934   4.752  0.0306 -0.4703 -0.0930
 1036PNCE   T1A 9332   7.228  12.012   5.414  0.1326 -0.2171 -0.1277
 1036PNCE   C2A 9333   7.341  12.233   5.791  0.2826  0.0632  0.3356
 1036PNCE   C3A 9334   7.601  12.004   6.007  0.1176 -0.0599 -0.0320
 1036PNCE   C1B 9335   6.885  12.153   5.091 -0.0126  0.0112 -0.0105
 1036PNCE   C2B 9336   6.882  12.421   5.498 -0.1834  0.0111 -0.0106
 1036PNCE   C3B 9337   7.045  12.602   5.898  0.2273  0.0525 -0.2288
 1036PNCE   D4B 9338   7.411  12.616   6.144  0.0285 -0.0355  0.0310
 1036PNCE   C5B 9339   7.679  12.358   6.341  0.1161  0.0372  0.0052
 1036PNCE   C6B 9340   7.930  12.001   6.508  0.0526  0.0831 -0.0222
 1037XCA    COO 9341  11.899  14.884   9.148  0.1832  0.0457  0.1134
 1037XCA     C1 9342  11.983  14.844   8.647 -0.0422 -0.2593 -0.0858
 1037XCA     C2 9343  12.133  14.586   8.426  0.0490 -0.1355  0.1364
 1037XCA     C3 9344  12.442  14.655   8.097 -0.2123  0.3878 -0.0619
 1037XCA     C4 9345  12.646  14.719   7.704  0.0497 -0.0352 -0.2180
 1037XCA     C5 9346  13.022  14.539   7.493  0.1168 -0.0989 -0.2007
 1037XCA     C6 9347  13.319  14.548   7.126 -0.0219  0.0638  0.0546
 1038PNCE   AM1 9348  14.223   2.451   4.222  0.1491  0.2046 -0.1086
 1038PNCE   AM2 9349  13.894   2.626   4.197 -0.0003  0.4868  0.0022
 1038PNCE   T1A 9350  14.531   2.202   4.411  0.0036 -0.1280 -0.1142
 1038PNCE   C2A 9351  14.969   2.109   4.506  0.1599  0.0077  0.0759
 1038PNCE   C3A 9352  15.357   2.012   4.287  0.1623  0.0561  0.1862
 1038PNCE   C1B 9353  13.964   2.560   4.594  0.1306 -0.1035 -0.1010
 1038PNCE   C2B 9354  13.959   2.536   4.979  0.3685  0.0484  0.0503
 1038PNCE   C3B 9355  14.106   2.297   5.288  0.3545 -0.0185  0.0081
 1038PNCE   D4B 9356  14.011   2.039   5.566  0.0560 -0.1746 -0.2193
 1038PNCE   C5B 9357  13.963   1.632   5.546  0.3224  0.0037  0.2354
 1038PNCE   C6B 9358  13.846   1.171   5.440  0.1940 -0.4477 -0.0249
 1039CHOL   ROH 9359   6.595   7.867   4.865 -0.0194  0.1376  0.0291
 1039CHOL    R1 9360   6.522   7.792   5.129  0.1090 -0.0948  0.0025
 1039CHOL    R2 9361   6.694   7.658   5.298  0.3800  0.1959 -0.0250
 1039CHOL    R3 9362   6.639   7.865   5.466 -0.0571  0.0446  0.0300
 1039CHOL    R4 9363   6.801   7.681   5.626  0.1905  0.2709  0.0322
 1039CHOL    R5 9364   6.606   7.762   5.679  0.0243 -0.0879 -0.0242
 1039CHOL    C1 9365   6.811   7.888   5.974 -0.3301  0.1725  0.1171
 1039CHOL    C2 9366   7.203   7.806   6.149  0.2547  0.0949  0.1865
 1040CHOL   ROH 9367   6.691   9.796   8.383  0.3079  0.1761 -0.2188
 1040CHOL    R1 9368   6.609   9.633   8.166  0.1538  0.1564 -0.1469
 1040CHOL    R2 9369   6.788   9.524   7.987  0.0427 -0.0276 -0.1439
 1040CHOL    R3 9370   6.665   9.291   8.056 -0.1034  0.0774 -0.0427
 1040CHOL    R4 9371   6.747   9.253   7.776 -0.0349 -0.1287 -0.0009
 1040CHOL    R5 9372   6.546   9.226   7.858 -0.0776  0.0269 -0.0443
 1040CHOL    C1 9373   6.608   8.877   7.719 -0.2173 -0.0890  0.1775
 1040CHOL    C2 9374   6.568   8.762   7.455 -0.1241  0.1004  0.1204
 1041CHOL   ROH 9375   7.310   9.926   8.657 -0.0257  0.3693  0.0262
 1041CHOL    R1 9376   7.497   9.966   8.449  0.0361  0.1254  0.0270
 1041CHOL    R2 9377   7.563   9.767   8.268 -0.1576  0.0013  0.0557
 1041CHOL    R3 9378   7.494   9.956   8.085  0.0356  0.0477  0.0358
 1041CHOL    R4 9379   7.698   9.794   7.951 -0.2096 -0.1862  0.0197
 1041CHOL    R5 9380   7.699  10.011   7.975  0.0533 -0.2054 -0.0236
 1041CHOL    C1 9381   7.712   9.988   7.595 -0.0584 -0.2518 -0.0200
 1041CHOL    C2 9382   7.762  10.088   7.290  0.1638 -0.2518  0.2016
 1042PNCE   AM1 9383  10.704   9.225   5.298 -0.0945  0.0407  0.1502
 1042PNCE   AM2 9384  10.803   9.433   5.289  0.0649 -0.0740 -0.3712
 1042PNCE   T1A 9385  10.443   9.094   5.612 -0.0456 -0.3919  0.3253
 1042PNCE   C2A 9386  10.286   9.098   6.050 -0.1094 -0.2000  0.1535
 1042PNCE   C3A 9387  10.094   9.296   6.411  0.0021 -0.0865  0.2265
 1042PNCE   C1B 9388  10.732   9.836   5.609  0.1814 -0.2154  0.0616
 1042PNCE   C2B 9389  10.420   9.950   5.912  0.0896  0.1541  0.1528
 1042PNCE   C3B 9390  10.478  10.226   6.167  0.1361 -0.0592 -0.1433
 1042PNCE   D4B 9391  10.620  10.525   6.595  0.0414  0.1794  0.1972
 1042PNCE   C5B 9392  10.379  10.398   6.933 -0.0026  0.1837  0.1018
 1042PNCE   C6B 9393   9.869  10.319   7.013 -0.0726  0.0946 -0.1139
 1043PNCE   AM1 9394   8.708  10.807   4.924 -0.3321 -0.1829 -0.0270
 1043PNCE   AM2 9395   8.861  10.439   4.837 -0.0119 -0.3323  0.0988
 1043PNCE   T1A 9396   8.460  10.965   5.154 -0.0378  0.2558  0.0728
 1043PNCE   C2A 9397   8.297  11.221   5.520 -0.0742 -0.0802 -0.1928
 1043PNCE   C3A 9398   8.347  11.610   5.666 -0.1499 -0.2941  0.1190
 1043PNCE   C1B 9399   9.150  10.316   5.195 -0.0007  0.2298 -0.3418
 1043PNCE   C2B 9400   9.381  10.303   5.404 -0.0506 -0.0488 -0.5084
 1043PNCE   C3B 9401   9.547  10.439   5.822 -0.0980  0.2078 -0.0597
 1043PNCE   D4B 9402   9.607  10.604   6.228  0.0684 -0.2232  0.0107
 1043PNCE   C5B 9403   9.587  10.269   6.600 -0.1396  0.0441  0.1387
 1043PNCE   C6B 9404   9.506   9.954   6.888  0.3275  0.0418  0.1389
 1044PNCE   AM1 9405   1.020   8.937   6.034 -0.0464  0.3670  0.0821
 1044PNCE   AM2 9406   1.215   8.731   6.213 -0.3032  0.0779  0.2878
 1044PNCE   T1A 9407   0.690   8.923   6.325  0.2392 -0.0420  0.1767
 1044PNCE   C2A 9408   0.741   8.688   6.693  0.3603  0.1299  0.0146
 1044PNCE   C3A 9409   0.445   8.771   7.036 -0.0125  0.0495  0.0423
 1044PNCE   C1B 9410   1.204   8.739   6.599  0.3517 -0.3025 -0.1962
 1044PNCE   C2B 9411   1.113   8.661   7.043  0.1206 -0.1622 -0.0238
 1044PNCE   C3B 9412   0.810   8.657   7.357 -0.0585  0.0021  0.0271
 1044PNCE   D4B 9413   0.744   8.688   7.761 -0.0507  0.1656 -0.0471
 1044PNCE   C5B 9414   0.925   9.037   8.008  0.0989  0.0494 -0.1605
 1044PNCE   C6B 9415   0.801   9.225   8.396 -0.0210  0.1304  0.1811
 1045CHOL   ROH 9416  13.940  10.174   8.380 -0.0324  0.3163 -0.0149
 1045CHOL    R1 9417  13.737  10.173   8.183  0.0441  0.2242 -0.0935
 1045CHOL    R2 9418  13.535  10.361   8.176 -0.0721  0.0973 -0.1358
 1045CHOL    R3 9419  13.622  10.398   7.921  0.0020  0.1997 -0.0969
 1045CHOL    R4 9420  13.342  10.485   7.918 -0.0392  0.0788 -0.1696
 1045CHOL    R5 9421  13.434  10.338   7.785  0.0724  0.1505 -0.1767
 1045CHOL    C1 9422  13.311  10.592   7.528  0.0495  0.1641 -0.1528
 1045CHOL    C2 9423  13.045  10.995   7.593  0.0435 -0.0257 -0.2079
 1046CHOL   ROH 9424  10.420   3.360   8.183 -0.1336 -0.0931  0.1870
 1046CHOL    R1 9425  10.298   3.458   7.947  0.1205 -0.0332  0.0787
 1046CHOL    R2 9426  10.405   3.417   7.696  0.1229 -0.4233  0.1463
 1046CHOL    R3 9427  10.159   3.315   7.642 -0.0625  0.0028  0.1418
 1046CHOL    R4 9428  10.263   3.400   7.381  0.3370 -0.6456  0.0569
 1046CHOL    R5 9429  10.072   3.458   7.470  0.3723 -0.0842 -0.1729
 1046CHOL    C1 9430   9.949   3.294   7.148  0.2876 -0.3752  0.0006
 1046CHOL    C2 9431  10.216   3.291   6.834  0.2671  0.1773  0.1304
 1047PNCE   AM1 9432   1.588   2.854   4.719  0.0500  0.0229  0.0250
 1047PNCE   AM2 9433   1.360   2.856   4.886  0.0250  0.1525 -0.0868
 1047PNCE   T1A 9434   1.865   2.574   4.924 -0.0435 -0.1090 -0.0991
 1047PNCE   C2A 9435   2.053   2.548   5.272  0.0081  0.3259  0.3084
 1047PNCE   C3A 9436   2.340   2.605   5.579  0.1042  0.0790 -0.1039
 1047PNCE   C1B 9437   1.237   2.902   5.303  0.0140  0.1998  0.2533
 1047PNCE   C2B 9438   1.184   2.959   5.713  0.1195  0.1065  0.0024
 1047PNCE   C3B 9439   1.128   2.869   6.063  0.1965 -0.1693  0.1732
 1047PNCE   D4B 9440   0.885   2.572   6.145  0.3508 -0.0921  0.1770
 1047PNCE   C5B 9441   0.810   2.497   5.817 -0.3935 -0.1504 -0.0608
 1047PNCE   C6B 9442   0.796   2.743   5.480 -0.3641  0.0076 -0.1326
 1048CHOL   ROH 9443   5.742   8.108   5.244 -0.1024 -0.2534 -0.2114
 1048CHOL    R1 9444   5.814   8.113   5.517  0.0677 -0.0679 -0.2570
 1048CHOL    R2 9445   5.644   8.028   5.718  0.1077  0.2683 -0.0704
 1048CHOL    R3 9446   5.854   7.869   5.784  0.0048  0.1367 -0.0592
 1048CHOL    R4 9447   5.651   7.812   5.987 -0.0211  0.2901 -0.0490
 1048CHOL    R5 9448   5.857   7.871   6.023  0.0161  0.1573 -0.0622
 1048CHOL    C1 9449   5.853   7.536   6.206 -0.1927  0.1791 -0.0261
 1048CHOL    C2 9450   5.686   7.245   6.474 -0.0494  0.0944 -0.0094
 1049CHOL   ROH 9451  13.541  12.150   7.302  0.0161  0.2331 -0.1271
 1049CHOL    R1 9452  13.349  11.945   7.267  0.2881 -0.0318 -0.0932
 1049CHOL    R2 9453  13.106  11.987   7.142  0.0805 -0.2838  0.2231
 1049CHOL    R3 9454  13.186  11.780   6.987  0.2212 -0.0269 -0.0601
 1049CHOL    R4 9455  12.900  11.807   6.932  0.0841 -0.4247  0.3371
 1049CHOL    R5 9456  13.004  11.625   6.994  0.4628 -0.3271  0.0543
 1049CHOL    C1 9457  12.856  11.506   6.663  0.2183 -0.2654  0.1376
 1049CHOL    C2 9458  12.484  11.526   6.489  0.2280  0.4030 -0.0912
 1050CHOL   ROH 9459   0.170   1.901   7.350  0.0097  0.0621 -0.0371
 1050CHOL    R1 9460   0.080   1.895   7.082 -0.0324  0.0239 -0.0217
 1050CHOL    R2 9461   0.057   2.123   6.927  0.0322 -0.0106 -0.0772
 1050CHOL    R3 9462   0.216   1.984   6.756 -0.0477 -0.1160 -0.0681
 1050CHOL    R4 9463   0.053   2.156   6.583  0.2426  0.1842 -0.0640
 1050CHOL    R5 9464   0.075   1.939   6.567 -0.0139  0.1575 -0.1657
 1050CHOL    C1 9465   0.199   2.044   6.222  0.2900  0.1987 -0.0477
 1050CHOL    C2 9466   0.060   1.903   5.811  0.1683 -0.2599  0.1387
 1051CHOL   ROH 9467   3.240   0.710   8.110 -0.1679  0.0538 -0.2001
 1051CHOL    R1 9468   3.189   0.803   7.848 -0.1466  0.0322 -0.2124
 1051CHOL    R2 9469   3.389   0.899   7.683 -0.1744  0.3077 -0.0936
 1051CHOL    R3 9470   3.292   0.713   7.510  0.1462  0.2093 -0.1737
 1051CHOL    R4 9471   3.291   0.964   7.358 -0.1432  0.2443 -0.1155
 1051CHOL    R5 9472   3.122   0.829   7.387  0.0297  0.0024 -0.2105
 1051CHOL    C1 9473   3.143   0.827   7.006  0.1760  0.1149 -0.2035
 1051CHOL    C2 9474   2.927   1.029   6.695 -0.0709  0.0621  0.0115
 1052CHOL   ROH 9475  11.003   2.521   8.207 -0.1377  0.1580 -0.0485
 1052CHOL    R1 9476  10.870   2.480   7.961 -0.1895  0.2257 -0.0314
 1052CHOL    R2 9477  10.813   2.686   7.786  0.1603  0.2159 -0.1588
 1052CHOL    R3 9478  10.944   2.528   7.608 -0.0833 -0.1112 -0.0593
 1052CHOL    R4 9479  10.714   2.631   7.459  0.1811  0.3421 -0.1874
 1052CHOL    R5 9480  10.770   2.421   7.483 -0.2622  0.2167 -0.1057
 1052CHOL    C1 9481  10.780   2.450   7.102 -0.0356  0.1086 -0.1106
 1052CHOL    C2 9482  10.608   2.206   6.934  0.1544  0.0770 -0.2265
 1053CHOL   ROH 9483  14.793   6.646   9.560 -0.0058 -0.3858 -0.1555
 1053CHOL    R1 9484  14.791   6.628   9.277 -0.1435 -0.3469 -0.1580
 1053CHOL    R2 9485  14.559   6.593   9.132 -0.2362 -0.1496 -0.0620
 1053CHOL    R3 9486  14.646   6.816   9.002 -0.1222 -0.1973 -0.0683
 1053CHOL    R4 9487  14.510   6.657   8.796 -0.4058 -0.0290 -0.0157
 1053CHOL    R5 9488  14.713   6.736   8.786 -0.3390 -0.2104 -0.1331
 1053CHOL    C1 9489  14.563   6.903   8.478 -0.3976 -0.0036  0.0053
 1053CHOL    C2 9490  14.533   7.019   8.101 -0.2730  0.1428  0.0106
 1054PNCE   AM1 9491  11.593  11.679   5.265  0.1505  0.4408  0.4412
 1054PNCE   AM2 9492  11.724  11.829   5.054 -0.1286  0.0382 -0.0972
 1054PNCE   T1A 9493  11.458  12.073   5.418  0.3803  0.0900 -0.0502
 1054PNCE   C2A 9494  11.379  12.449   5.744  0.2506  0.1973  0.1116
 1054PNCE   C3A 9495  11.248  12.817   5.836 -0.0631 -0.1574  0.3013
 1054PNCE   C1B 9496  11.950  12.160   5.215  0.1789 -0.0230  0.0404
 1054PNCE   C2B 9497  11.806  12.630   5.289 -0.0576 -0.0799 -0.1474
 1054PNCE   C3B 9498  11.661  12.958   5.515  0.0286 -0.3753  0.0722
 1054PNCE   D4B 9499  11.866  13.314   5.668  0.1134  0.1500 -0.1595
 1054PNCE   C5B 9500  12.123  13.179   6.001 -0.1028  0.1780 -0.1942
 1054PNCE   C6B 9501  12.201  13.432   6.380  0.2076 -0.0939  0.0130
 1055CHOL   ROH 9502  13.568   4.750   5.659  0.0339 -0.0311  0.1005
 1055CHOL    R1 9503  13.486   4.751   5.930  0.0411 -0.0765  0.1045
 1055CHOL    R2 9504  13.272   4.602   6.021 -0.0094 -0.0362  0.0742
 1055CHOL    R3 9505  13.455   4.506   6.198 -0.0287 -0.1402  0.0359
 1055CHOL    R4 9506  13.202   4.508   6.347  0.0221  0.0344  0.1002
 1055CHOL    R5 9507  13.390   4.601   6.408  0.0922 -0.0856  0.0434
 1055CHOL    C1 9508  13.333   4.364   6.702  0.0223 -0.0220  0.0794
 1055CHOL    C2 9509  12.941   4.380   7.000  0.3309 -0.0074 -0.0205
 1056PNCE   AM1 9510  14.869   8.727   5.697  0.3923 -0.1938 -0.1380
 1056PNCE   AM2 9511  14.809   9.015   5.449 -0.1226  0.0298 -0.1487
 1056PNCE   T1A 9512  14.762   8.787   6.155  0.0612  0.1314  0.1694
 1056PNCE   C2A 9513  14.775   8.798   6.584  0.1134 -0.1892 -0.0189
 1056PNCE   C3A 9514  14.947   8.729   7.002  0.1224 -0.3335  0.0976
 1056PNCE   C1B 9515  14.576   9.147   5.757 -0.0499  0.0200 -0.2126
 1056PNCE   C2B 9516  14.249   8.997   5.983  0.1922  0.1319 -0.2644
 1056PNCE   C3B 9517  13.898   8.861   6.203 -0.2706 -0.2547  0.0127
 1056PNCE   D4B 9518  13.655   9.030   6.548 -0.1534 -0.0145 -0.1474
 1056PNCE   C5B 9519  13.453   8.826   6.977  0.0757  0.1440  0.4612
 1056PNCE   C6B 9520  13.074   8.737   7.280  0.1839 -0.2664 -0.0468
 1057CHOL   ROH 9521   8.753  13.915   6.292  0.0291  0.0665 -0.1867
 1057CHOL    R1 9522   8.986  14.075   6.290  0.0360  0.0571 -0.1345
 1057CHOL    R2 9523   9.024  14.284   6.468  0.0529 -0.0144 -0.0551
 1057CHOL    R3 9524   9.256  14.152   6.522  0.0507 -0.0447 -0.1168
 1057CHOL    R4 9525   9.290  14.417   6.644 -0.0650 -0.1999  0.2706
 1057CHOL    R5 9526   9.425  14.320   6.503  0.0285  0.0211  0.2032
 1057CHOL    C1 9527   9.662  14.370   6.798 -0.1358 -0.3364  0.4023
 1057CHOL    C2 9528  10.094  14.437   6.728 -0.0826  0.0010 -0.1335
 1058PNCE   AM1 9529   1.314   2.213   4.235 -0.1100 -0.0466  0.1537
 1058PNCE   AM2 9530   1.001   2.099   4.351 -0.1117  0.2320 -0.1395
 1058PNCE   T1A 9531   1.532   1.995   4.561 -0.0791  0.0731 -0.0488
 1058PNCE   C2A 9532   1.636   1.784   4.882  0.0188 -0.1847  0.0818
 1058PNCE   C3A 9533   1.969   1.632   5.129  0.1966 -0.2273  0.0478
 1058PNCE   C1B 9534   1.109   2.026   4.822 -0.1885  0.1741  0.1223
 1058PNCE   C2B 9535   1.238   1.842   5.187  0.0621  0.0704 -0.0216
 1058PNCE   C3B 9536   1.586   1.768   5.472 -0.0027 -0.0636 -0.1386
 1058PNCE   D4B 9537   1.973   1.702   5.646  0.1118  0.1778 -0.1253
 1058PNCE   C5B 9538   2.149   2.012   5.796 -0.2320 -0.1658  0.0712
 1058PNCE   C6B 9539   2.298   2.134   6.130  0.0371  0.6288 -0.1631
 1059CHOL   ROH 9540   9.610  10.938   5.347  0.0632  0.0040  0.0834
 1059CHOL    R1 9541   9.507  10.782   5.560 -0.1476 -0.0528 -0.0564
 1059CHOL    R2 9542   9.469  10.885   5.814  0.0191 -0.2333  0.0465
 1059CHOL    R3 9543   9.216  10.793   5.778 -0.1223  0.1657 -0.0311
 1059CHOL    R4 9544   9.226  10.869   6.060 -0.0065 -0.0801  0.0315
 1059CHOL    R5 9545   9.165  10.676   5.980 -0.2923  0.0716 -0.1272
 1059CHOL    C1 9546   8.847  10.773   6.169 -0.1542  0.3838 -0.0501
 1059CHOL    C2 9547   8.601  10.889   6.428  0.3067 -0.1542 -0.0518
 1060PNCE   AM1 9548   6.710  12.113   4.582  0.1757  0.2339 -0.1588
 1060PNCE   AM2 9549   6.824  12.445   4.318  0.0605  0.1099  0.0744
 1060PNCE   T1A 9550   6.312  11.903   4.854 -0.1471 -0.0339  0.2370
 1060PNCE   C2A 9551   6.117  11.555   4.886  0.1085  0.2024 -0.2191
 1060PNCE   C3A 9552   5.776  11.485   4.692 -0.1502 -0.0929 -0.1947
 1060PNCE   C1B 9553   6.715  12.765   4.646  0.0531 -0.2145 -0.0940
 1060PNCE   C2B 9554   6.860  12.745   5.095 -0.0118 -0.0484 -0.1379
 1060PNCE   C3B 9555   6.813  12.965   5.504 -0.1053  0.1701 -0.2210
 1060PNCE   D4B 9556   6.646  12.908   5.860  0.0046 -0.1306 -0.0075
 1060PNCE   C5B 9557   6.534  13.188   6.185  0.1306 -0.2713  0.1930
 1060PNCE   C6B 9558   6.314  13.280   6.617  0.0311 -0.2160 -0.0592
 1061PNCE   AM1 9559  14.184   9.552   5.959  0.0264  0.3659 -0.1322
 1061PNCE   AM2 9560  14.156   9.937   5.960  0.2099  0.3298 -0.3069
 1061PNCE   T1A 9561  14.263   9.768   6.373  0.0867  0.0276 -0.0133
 1061PNCE   C2A 9562  14.391   9.734   6.716  0.1129  0.1940 -0.1338
 1061PNCE   C3A 9563  14.432   9.553   7.045 -0.0253  0.0058  0.0461
 1061PNCE   C1B 9564  14.131  10.379   6.083 -0.2248  0.1954  0.3171
 1061PNCE   C2B 9565  14.526  10.657   6.296  0.1473  0.1264  0.2613
 1061PNCE   C3B 9566  14.880  10.827   6.262 -0.2851 -0.3179  0.1452
 1061PNCE   D4B 9567  15.291  10.637   6.162 -0.0891  0.0997 -0.1860
 1061PNCE   C5B 9568  15.629  10.580   6.468  0.3676 -0.1239  0.2576
 1061PNCE   C6B 9569  15.875  10.393   6.751 -0.1880  0.1088 -0.2383
 1062CHOL   ROH 9570  12.116   6.615   8.433  0.1217  0.0163  0.0161
 1062CHOL    R1 9571  12.196   6.732   8.188  0.0867  0.1343  0.0608
 1062CHOL    R2 9572  12.380   6.938   8.174  0.2775 -0.0330  0.1184
 1062CHOL    R3 9573  12.506   6.770   8.002  0.0146 -0.0198 -0.0963
 1062CHOL    R4 9574  12.517   7.031   7.871  0.1392  0.0760  0.0876
 1062CHOL    R5 9575  12.441   6.846   7.785 -0.0804  0.1973  0.0023
 1062CHOL    C1 9576  12.716   6.927   7.533 -0.1882  0.1518 -0.1318
 1062CHOL    C2 9577  12.959   7.154   7.782 -0.2117 -0.1677  0.0052
 1063PNCE   AM1 9578  13.694  11.553   4.892 -0.0062 -0.1864  0.1039
 1063PNCE   AM2 9579  13.869  11.749   5.001  0.0254  0.1405 -0.1027
 1063PNCE   T1A 9580  13.596  11.261   5.274 -0.0678 -0.0334  0.0554
 1063PNCE   C2A 9581  13.305  11.300   5.629 -0.2569 -0.0211 -0.0005
 1063PNCE   C3A 9582  13.000  11.556   5.569 -0.2506  0.0187  0.0236
 1063PNCE   C1B 9583  14.005  11.526   5.387  0.0574  0.0875  0.1221
 1063PNCE   C2B 9584  14.194  11.561   5.798 -0.0368  0.3298  0.2808
 1063PNCE   C3B 9585  14.311  11.613   6.141  0.0022  0.0086 -0.0753
 1063PNCE   D4B 9586  14.402  11.675   6.487  0.2983  0.0381 -0.0633
 1063PNCE   C5B 9587  14.132  11.955   6.793  0.0489  0.2235 -0.3316
 1063PNCE   C6B 9588  13.678  11.948   6.805  0.2566 -0.1094 -0.0835
 1064CHOL   ROH 9589   8.361   4.142   7.748 -0.0044 -0.1577  0.1299
 1064CHOL    R1 9590   8.303   4.027   7.496  0.0001 -0.2380  0.1646
 1064CHOL    R2 9591   8.296   4.174   7.263 -0.2477 -0.2614  0.1496
 1064CHOL    R3 9592   8.474   3.987   7.177 -0.0960 -0.0933  0.0954
 1064CHOL    R4 9593   8.317   4.057   6.938 -0.3102 -0.3302  0.1708
 1064CHOL    R5 9594   8.350   3.856   7.018 -0.0460 -0.2713  0.2056
 1064CHOL    C1 9595   8.496   3.813   6.669 -0.2041 -0.2125  0.1324
 1064CHOL    C2 9596   8.527   4.093   6.471  0.0722  0.0676  0.1874
 1065PNCE   AM1 9597   3.315   4.649   4.602 -0.3082  0.1494 -0.0882
 1065PNCE   AM2 9598   3.155   4.399   4.419 -0.1669 -0.0049 -0.0478
 1065PNCE   T1A 9599   3.136   4.664   5.009  0.0913  0.0005 -0.1718
 1065PNCE   C2A 9600   3.211   4.693   5.399  0.6026 -0.0907 -0.0709
 1065PNCE   C3A 9601   3.328   4.558   5.771 -0.0226  0.1768 -0.1745
 1065PNCE   C1B 9602   3.066   4.141   4.770 -0.3992 -0.0621 -0.0102
 1065PNCE   C2B 9603   3.038   4.039   5.114  0.2837  0.3149  0.0665
 1065PNCE   C3B 9604   3.057   3.853   5.480 -0.0796  0.1214  0.0478
 1065PNCE   D4B 9605   3.182   3.514   5.839 -0.1735  0.1015  0.3609
 1065PNCE   C5B 9606   2.925   3.296   5.806  0.1244 -0.1289 -0.2329
 1065PNCE   C6B 9607   2.486   3.271   5.888 -0.3462 -0.1013 -0.0555
 1066XCA    COO 9608   2.833  11.322   5.085 -0.0957 -0.2611 -0.0394
 1066XCA     C1 9609   2.821  11.633   5.433 -0.0894  0.0399 -0.1511
 1066XCA     C2 9610   2.646  11.832   5.811 -0.1523  0.0983  0.2679
 1066XCA     C3 9611   2.711  11.908   6.224 -0.2760 -0.4663 -0.0095
 1066XCA     C4 9612   2.957  12.144   6.553 -0.0558 -0.0825 -0.1611
 1066XCA     C5 9613   3.119  12.406   6.850 -0.1721  0.2162  0.1227
 1066XCA     C6 9614   3.286  12.538   7.195 -0.0129 -0.0212  0.3132
 1067PNCE   AM1 9615   7.629   4.322   4.397  0.0954  0.1480 -0.1543
 1067PNCE   AM2 9616   7.845   4.118   4.350 -0.1032  0.0652  0.0015
 1067PNCE   T1A 9617   7.287   4.315   4.704  0.0047 -0.1148 -0.0328
 1067PNCE   C2A 9618   7.216   4.208   5.106 -0.4621 -0.0191  0.3264
 1067PNCE   C3A 9619   7.439   4.109   5.439  0.1059  0.0827  0.1722
 1067PNCE   C1B 9620   7.959   3.987   4.744 -0.1176  0.1422 -0.0619
 1067PNCE   C2B 9621   7.842   3.948   5.204 -0.0753  0.2367  0.0871
 1067PNCE   C3B 9622   8.011   3.613   5.560 -0.0184  0.0769 -0.2769
 1067PNCE   D4B 9623   8.235   3.312   5.410 -0.1470 -0.3131  0.1358
 1067PNCE   C5B 9624   8.616   3.183   5.287 -0.1836 -0.1084 -0.1128
 1067PNCE   C6B 9625   9.067   3.077   5.277  0.0492  0.2866  0.0831
 1068PNCE   AM1 9626  15.051   1.280   4.072  0.2673 -0.2863 -0.2093
 1068PNCE   AM2 9627  15.358   1.447   4.053 -0.1096  0.1527 -0.1964
 1068PNCE   T1A 9628  15.144   1.579   4.482  0.1508  0.1975  0.0344
 1068PNCE   C2A 9629  15.191   1.796   4.856 -0.1735 -0.0089  0.1586
 1068PNCE   C3A 9630  15.162   1.953   5.232  0.0967 -0.1767 -0.1818
 1068PNCE   C1B 9631  15.565   1.125   4.330  0.1359 -0.1743 -0.1767
 1068PNCE   C2B 9632  15.801   0.986   4.511 -0.0787  0.0296  0.0970
 1068PNCE   C3B 9633  16.020   0.680   4.921 -0.1189 -0.1221  0.2505
 1068PNCE   D4B 9634  16.160   0.815   5.228 -0.1695 -0.1856 -0.6357
 1068PNCE   C5B 9635  16.403   0.426   5.275 -0.1496  0.0519  0.2096
 1068PNCE   C6B 9636  16.536   0.124   5.445  0.0715  0.2524 -0.0424
 1069PNCE   AM1 9637   2.832   4.948   5.263  0.2372 -0.0092 -0.1543
 1069PNCE   AM2 9638   3.158   5.125   5.154  0.1136 -0.0024 -0.0476
 1069PNCE   T1A 9639   2.764   4.819   5.685 -0.1418 -0.0621 -0.1394
 1069PNCE   C2A 9640   2.688   4.717   6.140  0.2278  0.0459 -0.2529
 1069PNCE   C3A 9641   2.417   4.671   6.387 -0.2453  0.1899  0.1362
 1069PNCE   C1B 9642   3.159   5.171   5.624  0.2182  0.0359  0.0963
 1069PNCE   C2B 9643   3.071   5.008   5.989  0.0863  0.0813  0.3511
 1069PNCE   C3B 9644   3.165   4.786   6.285  0.0620  0.2454  0.1765
 1069PNCE   D4B 9645   2.991   4.706   6.659  0.1150  0.3011  0.1119
 1069PNCE   C5B 9646   3.128   5.104   6.906 -0.0009 -0.0065 -0.2922
 1069PNCE   C6B 9647   3.056   5.515   6.824 -0.2079  0.1269  0.0206
 1070PNCE   AM1 9648  10.768   2.747   4.257  0.0216 -0.1232  0.0370
 1070PNCE   AM2 9649  10.667   3.072   4.242  0.1873  0.1428 -0.1212
 1070PNCE   T1A 9650  10.810   2.805   4.746 -0.0826  0.1654  0.0457
 1070PNCE   C2A 9651  10.871   2.788   5.237 -0.1609  0.0188 -0.1162
 1070PNCE   C3A 9652  10.523   2.547   5.567  0.2801  0.0941 -0.0621
 1070PNCE   C1B 9653  10.354   3.017   4.560  0.2725  0.0611  0.0262
 1070PNCE   C2B 9654  10.309   2.845   5.024  0.1623  0.0724 -0.1451
 1070PNCE   C3B 9655  10.118   2.609   5.365 -0.0047  0.0301  0.0472
 1070PNCE   D4B 9656   9.983   2.344   5.723  0.2452  0.2230  0.1335
 1070PNCE   C5B 9657   9.704   2.290   5.995  0.2678 -0.2124 -0.1793
 1070PNCE   C6B 9658   9.505   2.007   6.172  0.1795 -0.1027 -0.1190
 1071CHOL   ROH 9659   6.571   4.341   5.084 -0.1136  0.1743 -0.0423
 1071CHOL    R1 9660   6.605   4.187   5.319 -0.0871  0.1995 -0.0299
 1071CHOL    R2 9661   6.416   4.179   5.520 -0.1134  0.1344 -0.0581
 1071CHOL    R3 9662   6.433   3.911   5.481 -0.0009  0.1384 -0.0414
 1071CHOL    R4 9663   6.226   3.943   5.686 -0.0689  0.0704 -0.0974
 1071CHOL    R5 9664   6.403   3.817   5.699 -0.0236  0.1377 -0.0442
 1071CHOL    C1 9665   6.131   3.553   5.745  0.0628  0.0370 -0.1046
 1071CHOL    C2 9666   5.927   3.359   6.061 -0.0015 -0.2225 -0.3913
 1072PNCE   AM1 9667   9.311   4.785   4.276  0.1605 -0.3632  0.2201
 1072PNCE   AM2 9668   9.360   5.025   4.130 -0.1418 -0.2480 -0.0260
 1072PNCE   T1A 9669   8.968   4.697   4.545 -0.1952 -0.1352  0.1548
 1072PNCE   C2A 9670   8.663   4.636   4.893  0.0518 -0.1721 -0.0570
 1072PNCE   C3A 9671   8.219   4.672   5.036 -0.2452 -0.0645  0.0935
 1072PNCE   C1B 9672   9.186   5.169   4.573 -0.0913 -0.1927  0.1363
 1072PNCE   C2B 9673   9.083   5.140   4.970  0.0478 -0.1774  0.1041
 1072PNCE   C3B 9674   8.979   5.413   5.279  0.0005 -0.2125  0.0792
 1072PNCE   D4B 9675   8.882   5.738   5.591  0.0267  0.1039 -0.0796
 1072PNCE   C5B 9676   9.265   5.881   5.740 -0.0405 -0.2092  0.3356
 1072PNCE   C6B 9677   9.663   5.844   5.769  0.2632  0.1866 -0.0794
 1073XCA    COO 9678   4.845   3.888   4.623 -0.0408 -0.3677  0.0884
 1073XCA     C1 9679   4.706   3.788   5.018 -0.5215  0.1637 -0.1243
 1073XCA     C2 9680   4.627   3.648   5.398  0.1933 -0.0899 -0.1713
 1073XCA     C3 9681   4.336   3.762   5.589  0.0059  0.1538 -0.3524
 1073XCA     C4 9682   4.089   3.939   5.849 -0.2134 -0.3960  0.0000
 1073XCA     C5 9683   3.839   3.688   5.892 -0.1127  0.0510 -0.1731
 1073XCA     C6 9684   3.456   3.711   6.236 -0.0524 -0.0541  0.0677
 1074XCA    COO 9685   7.815   0.636   8.012  0.0002  0.2317 -0.0567
 1074XCA     C1 9686   7.957   0.820   7.608 -0.0788 -0.2231  0.0374
 1074XCA     C2 9687   7.845   1.163   7.335  0.2061  0.1634 -0.1798
 1074XCA     C3 9688   7.883   1.017   6.992 -0.3542 -0.0401 -0.1076
 1074XCA     C4 9689   8.068   0.934   6.692  0.0567  0.1417  0.0486
 1074XCA     C5 9690   8.245   1.065   6.271  0.1869  0.0523 -0.2248
 1074XCA     C6 9691   8.289   0.802   5.883 -0.0109 -0.1229 -0.1604
 1075XCA    COO 9692  14.598   9.453   5.198  0.1577 -0.1439 -0.0234
 1075XCA     C1 9693  14.596   9.631   5.622 -0.0634 -0.1416  0.0043
 1075XCA     C2 9694  14.664   9.597   6.074 -0.0104  0.1629  0.0467
 1075XCA     C3 9695  14.793   9.264   6.438  0.1840  0.3224  0.0390
 1075XCA     C4 9696  14.824   9.328   6.855 -0.1140  0.0692  0.0753
 1075XCA     C5 9697  14.724   9.149   7.294  0.2157 -0.1435  0.1856
 1075XCA     C6 9698  15.118   9.177   7.383  0.0606 -0.2275 -0.1506
 1076PNCE   AM1 9699   2.441   0.927   3.985 -0.1560  0.0847  0.3197
 1076PNCE   AM2 9700   2.589   1.055   4.147 -0.1301 -0.1724 -0.1638
 1076PNCE   T1A 9701   2.118   0.857   4.397 -0.1924 -0.0871  0.1377
 1076PNCE   C2A 9702   1.909   0.671   4.801 -0.0869 -0.2105 -0.0418
 1076PNCE   C3A 9703   1.750   0.730   5.180 -0.0919  0.2373  0.0452
 1076PNCE   C1B 9704   2.507   1.117   4.516  0.1900  0.1673  0.1177
 1076PNCE   C2B 9705   2.746   1.008   4.914  0.0206 -0.2810 -0.0441
 1076PNCE   C3B 9706   2.896   0.867   5.270 -0.1354  0.0323 -0.1543
 1076PNCE   D4B 9707   2.971   0.613   5.614  0.1126  0.1439 -0.4959
 1076PNCE   C5B 9708   2.877   0.732   6.088  0.0574 -0.0730 -0.0844
 1076PNCE   C6B 9709   2.788   0.610   6.493 -0.1066 -0.1623 -0.1054
 1077CHOL   ROH 9710   3.350   3.009   8.448  0.1127  0.0764  0.2128
 1077CHOL    R1 9711   3.250   3.154   8.227  0.0390 -0.1684  0.0811
 1077CHOL    R2 9712   3.346   3.404   8.158 -0.3098 -0.0357  0.0612
 1077CHOL    R3 9713   3.383   3.287   7.916  0.0616 -0.0737  0.1304
 1077CHOL    R4 9714   3.381   3.574   7.859 -0.2558 -0.0904  0.0360
 1077CHOL    R5 9715   3.257   3.422   7.764  0.0221 -0.2842 -0.0293
 1077CHOL    C1 9716   3.436   3.562   7.457  0.1244 -0.1580  0.0864
 1077CHOL    C2 9717   3.230   3.778   7.141  0.0946 -0.1228  0.1840
 1078CHOL   ROH 9718   9.890  10.852   5.712 -0.1431 -0.0974  0.1859
 1078CHOL    R1 9719   9.913  10.897   5.991 -0.1090  0.0494  0.1603
 1078CHOL    R2 9720  10.150  10.859   6.128 -0.1274 -0.0145  0.1751
 1078CHOL    R3 9721  10.107  11.116   6.208  0.0294  0.0591  0.0291
 1078CHOL    R4 9722  10.262  10.996   6.425 -0.0129  0.0966  0.0819
 1078CHOL    R5 9723  10.071  11.100   6.444  0.0478  0.2182  0.0441
 1078CHOL    C1 9724  10.286  11.316   6.673  0.2010  0.2305 -0.1094
 1078CHOL    C2 9725   9.882  11.321   6.832  0.0282 -0.3607 -0.2473
 1079XCA    COO 9726   5.090  15.265   7.345  0.0867  0.3084 -0.0275
 1079XCA     C1 9727   5.252  15.228   6.906 -0.1989 -0.1175  0.2021
 1079XCA     C2 9728   5.172  15.067   6.455  0.4643  0.0720 -0.3175
 1079XCA     C3 9729   5.258  14.727   6.268 -0.3443  0.0722 -0.1165
 1079XCA     C4 9730   5.240  14.272   6.134 -0.0681 -0.3728 -0.0726
 1079XCA     C5 9731   5.145  13.817   6.026 -0.0677 -0.3181  0.1975
 1079XCA     C6 9732   4.783  13.638   5.989  0.0992  0.1665  0.4073
 1080PNCE   AM1 9733   2.086  14.076   5.069 -0.0508  0.0542 -0.1561
 1080PNCE   AM2 9734   2.249  13.747   4.839  0.0395  0.0644  0.2449
 1080PNCE   T1A 9735   2.277  14.347   5.323 -0.0042 -0.2689 -0.1712
 1080PNCE   C2A 9736   2.575  14.356   5.750 -0.4614 -0.0597  0.3224
 1080PNCE   C3A 9737   2.860  14.210   5.950  0.0072  0.0891  0.2865
 1080PNCE   C1B 9738   2.389  13.713   5.264  0.1934  0.2057 -0.1453
 1080PNCE   C2B 9739   2.598  13.870   5.564  0.2487  0.0186 -0.3344
 1080PNCE   C3B 9740   2.399  13.919   5.973  0.2589 -0.2934 -0.0172
 1080PNCE   D4B 9741   2.353  14.340   6.193  0.0130 -0.2600 -0.1531
 1080PNCE   C5B 9742   2.561  14.670   6.185  0.2157  0.0665  0.0775
 1080PNCE   C6B 9743   2.807  14.805   5.773  0.0590 -0.0602 -0.0702
 1081CHOL   ROH 9744   8.080   2.269   7.858 -0.0521 -0.0054 -0.1198
 1081CHOL    R1 9745   7.994   2.325   7.594 -0.1359 -0.1266 -0.1195
 1081CHOL    R2 9746   8.171   2.386   7.390 -0.2161  0.0425 -0.1413
 1081CHOL    R3 9747   8.045   2.182   7.263 -0.0065 -0.1111 -0.1069
 1081CHOL    R4 9748   8.122   2.366   7.049 -0.1318 -0.1040 -0.1452
 1081CHOL    R5 9749   7.922   2.287   7.087 -0.0692 -0.2743 -0.1625
 1081CHOL    C1 9750   7.975   2.161   6.731  0.1139 -0.3335 -0.1151
 1081CHOL    C2 9751   7.903   1.774   6.550 -0.2769  0.2421  0.2148
 1082PNCE   AM1 9752   2.590   6.447   5.829 -0.1971  0.2249 -0.2417
 1082PNCE   AM2 9753   2.445   6.271   5.547  0.3599  0.1105 -0.1310
 1082PNCE   T1A 9754   2.508   6.393   6.262 -0.0789 -0.1690  0.0069
 1082PNCE   C2A 9755   2.441   6.149   6.504  0.2305  0.0989  0.1128
 1082PNCE   C3A 9756   2.288   5.954   6.827 -0.0896 -0.0414 -0.2260
 1082PNCE   C1B 9757   2.300   5.957   5.951 -0.0007  0.1663  0.1593
 1082PNCE   C2B 9758   2.046   5.846   6.324 -0.1471  0.2097  0.0110
 1082PNCE   C3B 9759   1.881   5.797   6.638 -0.1897 -0.0230  0.0147
 1082PNCE   D4B 9760   1.691   5.431   6.815 -0.5188 -0.0805 -0.2445
 1082PNCE   C5B 9761   1.279   5.312   6.931 -0.0060  0.3578 -0.3618
 1082PNCE   C6B 9762   0.853   5.279   6.854  0.0533 -0.1946  0.1198
 1083CHOL   ROH 9763  14.490  11.405   8.514  0.0396 -0.2037 -0.0737
 1083CHOL    R1 9764  14.629  11.461   8.275  0.0721 -0.0128 -0.0105
 1083CHOL    R2 9765  14.503  11.551   8.046  0.0952  0.0950  0.0255
 1083CHOL    R3 9766  14.685  11.752   8.063  0.0377  0.1373  0.1809
 1083CHOL    R4 9767  14.604  11.749   7.781  0.0345  0.3241  0.1689
 1083CHOL    R5 9768  14.808  11.738   7.858  0.0426  0.3242  0.1644
 1083CHOL    C1 9769  14.834  12.052   7.643 -0.0549  0.4974  0.3984
 1083CHOL    C2 9770  14.757  12.096   7.292 -0.2655  0.1712  0.0952
 1084XCA    COO 9771   6.494  11.147   4.890 -0.0256  0.0272 -0.0089
 1084XCA     C1 9772   6.492  11.370   5.280  0.3235 -0.1882  0.4063
 1084XCA     C2 9773   6.385  11.726   5.328  0.3854 -0.2848  0.0525
 1084XCA     C3 9774   6.584  12.025   5.501 -0.0855  0.2533 -0.1455
 1084XCA     C4 9775   6.863  12.057   5.872  0.4136  0.0666 -0.3213
 1084XCA     C5 9776   6.859  11.826   6.164 -0.0199  0.1187  0.1560
 1084XCA     C6 9777   6.957  11.426   6.235  0.0241  0.3002  0.1689
 1085PNCE   AM1 9778  15.639   4.264   4.819 -0.0530 -0.3331  0.1012
 1085PNCE   AM2 9779  15.983   4.260   5.030 -0.1085  0.1481 -0.1373
 1085PNCE   T1A 9780  15.430   4.155   5.219  0.0389  0.2244 -0.0974
 1085PNCE   C2A 9781  15.133   3.907   5.501  0.0798 -0.1491  0.1471
 1085PNCE   C3A 9782  14.983   3.384   5.578 -0.0273 -0.1851 -0.0478
 1085PNCE   C1B 9783  15.934   4.239   5.486 -0.0935  0.0717 -0.0628
 1085PNCE   C2B 9784  15.927   4.158   5.946  0.0262 -0.2450 -0.2950
 1085PNCE   C3B 9785  15.627   4.138   6.248 -0.0333 -0.3632  0.1043
 1085PNCE   D4B 9786  15.646   4.288   6.724  0.2152 -0.1440 -0.0907
 1085PNCE   C5B 9787  15.480   4.353   7.043  0.1588 -0.0970  0.0146
 1085PNCE   C6B 9788  15.360   4.087   7.229  0.2632 -0.0927 -0.2111
 1086PNCE   AM1 9789  15.353   8.495   5.919  0.0591  0.0519  0.1740
 1086PNCE   AM2 9790  15.710   8.593   5.765  0.3061 -0.2239  0.0154
 1086PNCE   T1A 9791  15.187   8.491   6.345 -0.1996 -0.1391 -0.1984
 1086PNCE   C2A 9792  15.328   8.506   6.782  0.1680 -0.0884  0.2966
 1086PNCE   C3A 9793  15.369   8.673   7.220 -0.0990  0.0747 -0.0905
 1086PNCE   C1B 9794  15.784   8.419   6.177 -0.1143 -0.1422  0.0140
 1086PNCE   C2B 9795  15.777   8.371   6.617 -0.0462  0.1538  0.2135
 1086PNCE   C3B 9796  15.815   8.292   6.996 -0.3410  0.1698 -0.1495
 1086PNCE   D4B 9797  16.265   8.332   7.251  0.5324 -0.0866 -0.1544
 1086PNCE   C5B 9798  16.611   8.172   7.070 -0.2766  0.2826  0.2910
 1086PNCE   C6B 9799  17.019   8.076   7.083  0.0509  0.0148 -0.1975
 1087CHOL   ROH 9800  14.612  13.615   7.429  0.0911 -0.0709  0.1274
 1087CHOL    R1 9801  14.836  13.611   7.256  0.0077  0.0420  0.0151
 1087CHOL    R2 9802  15.080  13.720   7.326  0.0363  0.0152 -0.0402
 1087CHOL    R3 9803  15.173  13.473   7.262  0.0197  0.0565 -0.2290
 1087CHOL    R4 9804  15.395  13.653   7.199  0.0490  0.0860 -0.0460
 1087CHOL    R5 9805  15.304  13.507   7.065  0.0542  0.2047 -0.1808
 1087CHOL    C1 9806  15.665  13.382   7.065  0.0406  0.1662 -0.2268
 1087CHOL    C2 9807  16.015  13.208   7.130  0.1569 -0.0407  0.1195
 1088CHOL   ROH 9808   8.297   7.427   5.709  0.3563  0.1340  0.1334
 1088CHOL    R1 9809   8.345   7.395   5.986  0.1190  0.1032  0.1714
 1088CHOL    R2 9810   8.187   7.516   6.179 -0.0623  0.0557  0.0475
 1088CHOL    R3 9811   8.163   7.261   6.272 -0.1117  0.0417  0.0011
 1088CHOL    R4 9812   8.109   7.430   6.505 -0.1533  0.0199  0.0179
 1088CHOL    R5 9813   8.255   7.269   6.492 -0.1627  0.0029  0.0285
 1088CHOL    C1 9814   8.042   7.141   6.781 -0.2527 -0.0139 -0.0430
 1088CHOL    C2 9815   7.873   6.791   7.032 -0.0963 -0.1020 -0.1422
 1089XCA    COO 9816   3.808  15.801   7.700  0.0325  0.1700 -0.1205
 1089XCA     C1 9817   3.676  16.030   7.377 -0.1308 -0.0659  0.1534
 1089XCA     C2 9818   3.228  16.249   7.145  0.1083  0.0523  0.1778
 1089XCA     C3 9819   3.042  16.113   6.784  0.1948 -0.1280  0.1600
 1089XCA     C4 9820   2.815  15.940   6.424  0.0504 -0.2149 -0.0737
 1089XCA     C5 9821   2.692  15.647   6.146  0.1946 -0.3785 -0.2400
 1089XCA     C6 9822   2.904  15.436   5.858  0.0316 -0.0675  0.1385
 1090CHOL   ROH 9823  11.048  13.206   6.164  0.0541 -0.0165 -0.2034
 1090CHOL    R1 9824  11.113  13.481   6.179  0.1010 -0.0275 -0.1856
 1090CHOL    R2 9825  10.941  13.669   6.286  0.1461 -0.0072 -0.1364
 1090CHOL    R3 9826  11.154  13.729   6.443  0.1824 -0.0643 -0.1655
 1090CHOL    R4 9827  11.066  13.987   6.338  0.1228 -0.0220  0.0091
 1090CHOL    R5 9828  11.267  13.905   6.326  0.1262  0.0139 -0.0943
 1090CHOL    C1 9829  11.339  14.228   6.516  0.1433 -0.0843  0.0666
 1090CHOL    C2 9830  11.236  14.551   6.710  0.2967 -0.2654  0.1863
 1091XCA    COO 9831  14.671   1.058   4.319 -0.1707  0.2458 -0.0062
 1091XCA     C1 9832  14.792   1.308   4.626 -0.0319  0.0162 -0.0425
 1091XCA     C2 9833  14.749   1.585   5.037 -0.2328  0.2894 -0.1894
 1091XCA     C3 9834  14.806   1.729   5.444  0.2040 -0.1160  0.3670
 1091XCA     C4 9835  14.929   2.007   5.751  0.0032 -0.3540  0.2815
 1091XCA     C5 9836  15.208   1.985   6.049  0.0048  0.2433  0.1593
 1091XCA     C6 9837  15.577   2.066   6.231 -0.1157 -0.0309  0.2498
 1092CHOL   ROH 9838   2.161  10.438   9.788  0.1785 -0.0679 -0.1594
 1092CHOL    R1 9839   2.274  10.459   9.530  0.1496 -0.1059 -0.1756
 1092CHOL    R2 9840   2.359  10.238   9.386  0.1370 -0.1274 -0.1522
 1092CHOL    R3 9841   2.194  10.339   9.195  0.1137 -0.1585 -0.1480
 1092CHOL    R4 9842   2.343  10.125   9.060  0.1132 -0.1645 -0.1379
 1092CHOL    R5 9843   2.325  10.333   8.995  0.0951 -0.1734 -0.1592
 1092CHOL    C1 9844   2.179  10.155   8.691  0.0776 -0.2154 -0.1257
 1092CHOL    C2 9845   1.956  10.276   8.361  0.1027 -0.0815  0.2095
 1093XCA    COO 9846   1.849   0.640   3.993 -0.2946 -0.0521  0.1263
 1093XCA     C1 9847   1.720   0.461   4.398  0.0527  0.0941 -0.0002
 1093XCA     C2 9848   1.565   0.236   4.787  0.2785 -0.2164 -0.2683
 1093XCA     C3 9849   1.383   0.075   5.049  0.1447 -0.0893  0.2647
 1093XCA     C4 9850   1.251  -0.088   5.459 -0.2013  0.0285  0.2930
 1093XCA     C5 9851   1.249   0.034   5.884  0.1187 -0.2325 -0.0045
 1093XCA     C6 9852   1.302   0.122   6.320  0.0083  0.0156 -0.1668
 1094PNCE   AM1 9853   9.812  13.231   4.464 -0.1678  0.2447  0.1321
 1094PNCE   AM2 9854   9.682  13.455   4.382 -0.3627  0.0095  0.0655
 1094PNCE   T1A 9855   9.788  12.931   4.906 -0.0740  0.3247  0.2716
 1094PNCE   C2A 9856   9.888  12.640   5.235 -0.3238 -0.1394  0.0630
 1094PNCE   C3A 9857   9.895  12.246   5.311 -0.0440 -0.2024 -0.2837
 1094PNCE   C1B 9858   9.945  13.733   4.603  0.0425  0.0602  0.1560
 1094PNCE   C2B 9859  10.223  13.982   4.816 -0.0193  0.1124 -0.1287
 1094PNCE   C3B 9860  10.571  14.076   4.822 -0.3305 -0.1310 -0.0198
 1094PNCE   D4B 9861  11.065  14.185   4.941  0.2021  0.4542 -0.1734
 1094PNCE   C5B 9862  11.313  14.295   4.659 -0.0858  0.2954  0.1205
 1094PNCE   C6B 9863  11.611  13.965   4.617  0.0204  0.0620 -0.1013
 1095XCA    COO 9864  10.480  10.205   5.317  0.1238  0.4358  0.0489
 1095XCA     C1 9865  10.745  10.348   5.705  0.0889 -0.0571  0.1678
 1095XCA     C2 9866  10.548  10.693   5.963 -0.3069  0.1897  0.1921
 1095XCA     C3 9867  10.605  11.089   6.120 -0.0005 -0.1510  0.2873
 1095XCA     C4 9868  10.727  11.244   6.470  0.1051 -0.0514  0.0632
 1095XCA     C5 9869  10.667  11.603   6.489 -0.0483  0.0126 -0.0974
 1095XCA     C6 9870  10.802  11.880   6.793 -0.2352 -0.0606 -0.0575
 1096XCA    COO 9871   0.725  11.387   5.582  0.4668 -0.2130  0.0291
 1096XCA     C1 9872   0.427  10.994   5.676  0.0539  0.2640 -0.0523
 1096XCA     C2 9873   0.186  11.011   6.003 -0.0249  0.0461 -0.2287
 1096XCA     C3 9874   0.022  11.029   6.341 -0.1298  0.0104  0.2521
 1096XCA     C4 9875  -0.131  11.046   6.771 -0.1893  0.0733  0.0480
 1096XCA     C5 9876  -0.337  11.001   7.180  0.2066  0.1190  0.0459
 1096XCA     C6 9877  -0.200  11.075   7.617  0.0747  0.2448 -0.1002
 1097PNCE   AM1 9878   0.478  15.236   3.836 -0.2333  0.0714  0.0793
 1097PNCE   AM2 9879   0.391  14.936   3.721 -0.1136 -0.0705  0.1685
 1097PNCE   T1A 9880   0.440  15.564   4.087 -0.0456 -0.3183  0.1366
 1097PNCE   C2A 9881   0.278  15.828   4.461 -0.0742 -0.0105  0.1833
 1097PNCE   C3A 9882   0.354  16.016   4.856  0.3242  0.0711  0.1551
 1097PNCE   C1B 9883   0.154  15.039   4.190 -0.2836  0.2619  0.3194
 1097PNCE   C2B 9884   0.263  15.370   4.539  0.2737  0.2749  0.1465
 1097PNCE   C3B 9885   0.454  15.570   4.838 -0.0743  0.1038  0.0626
 1097PNCE   D4B 9886   0.798  15.598   5.173  0.2173  0.3270  0.4179
 1097PNCE   C5B 9887   0.887  15.946   4.947 -0.0371  0.0203 -0.2834
 1097PNCE   C6B 9888   0.820  16.221   4.631 -0.1960 -0.3089  0.0034
 1098PNCE   AM1 9889   7.264   1.117   3.845  0.2784  0.1183  0.0633
 1098PNCE   AM2 9890   7.006   0.982   3.606  0.1839 -0.1061 -0.1772
 1098PNCE   T1A 9891   7.546   1.279   4.177 -0.0484 -0.0248  0.0900
 1098PNCE   C2A 9892   7.660   1.366   4.652 -0.1499  0.0397 -0.3574
 1098PNCE   C3A 9893   7.508   1.377   5.105 -0.1052 -0.0172 -0.0511
 1098PNCE   C1B 9894   6.909   0.669   3.875  0.3566  0.0087  0.0394
 1098PNCE   C2B 9895   7.125   0.407   4.172 -0.1596 -0.0599  0.4064
 1098PNCE   C3B 9896   7.164   0.015   4.336 -0.5917  0.0749 -0.2223
 1098PNCE   D4B 9897   7.463  -0.155   4.745 -0.0250 -0.0802 -0.1661
 1098PNCE   C5B 9898   7.705   0.170   4.969  0.4113  0.1408 -0.0851
 1098PNCE   C6B 9899   7.958   0.559   4.718  0.1952 -0.0625 -0.0193
 1099PNCE   AM1 9900   9.753   2.964   3.891  0.1010  0.0503 -0.1113
 1099PNCE   AM2 9901   9.456   3.102   3.993  0.1153  0.3151  0.0788
 1099PNCE   T1A 9902   9.797   2.861   4.352  0.1574  0.1086  0.0445
 1099PNCE   C2A 9903   9.695   2.861   4.822  0.0649  0.1646 -0.1201
 1099PNCE   C3A 9904   9.367   2.581   4.928 -0.1434  0.4600 -0.0170
 1099PNCE   C1B 9905   9.478   3.238   4.455  0.2189 -0.3200  0.1704
 1099PNCE   C2B 9906   9.470   3.252   4.915  0.1545 -0.1935 -0.2385
 1099PNCE   C3B 9907   9.537   2.906   5.260  0.2420 -0.3569  0.0401
 1099PNCE   D4B 9908   9.679   2.763   5.653  0.0369  0.1664  0.0040
 1099PNCE   C5B 9909   9.664   2.858   6.006  0.0128 -0.1872 -0.1121
 1099PNCE   C6B 9910   9.885   3.069   6.143  0.0552  0.0925  0.2367
 1100CHOL   ROH 9911  11.526   6.859   5.267 -0.1918  0.2669 -0.0606
 1100CHOL    R1 9912  11.518   6.814   5.547 -0.1152 -0.0170 -0.1013
 1100CHOL    R2 9913  11.426   7.003   5.726  0.2106 -0.0809  0.1441
 1100CHOL    R3 9914  11.263   6.801   5.806 -0.0114  0.0400  0.0046
 1100CHOL    R4 9915  11.305   6.962   6.047  0.1868 -0.1844  0.1222
 1100CHOL    R5 9916  11.338   6.748   6.027 -0.0547 -0.2090 -0.0386
 1100CHOL    C1 9917  11.081   6.749   6.309 -0.0354 -0.1312 -0.0214
 1100CHOL    C2 9918  11.066   6.681   6.709  0.1401 -0.0642  0.0605
 1101XCA    COO 9919   5.721  13.170   8.593 -0.0391  0.1955 -0.0620
 1101XCA     C1 9920   5.996  12.979   8.201 -0.2719  0.2930  0.0116
 1101XCA     C2 9921   6.059  12.794   7.890 -0.0490 -0.1518  0.1465
 1101XCA     C3 9922   6.282  12.725   7.440 -0.2645 -0.2589 -0.1114
 1101XCA     C4 9923   5.964  12.561   7.076 -0.2715  0.0155 -0.3122
 1101XCA     C5 9924   5.716  12.340   6.734 -0.0391 -0.0909  0.3465
 1101XCA     C6 9925   5.412  12.015   6.790 -0.0360  0.3398  0.3072
 1102PNCE   AM1 9926   2.164  11.170   5.838  0.0283  0.2164 -0.1389
 1102PNCE   AM2 9927   2.349  10.969   5.939 -0.2770 -0.2359  0.2274
 1102PNCE   T1A 9928   2.164  11.576   6.096 -0.1105  0.2572 -0.1857
 1102PNCE   C2A 9929   2.234  11.714   6.570  0.1858 -0.0870  0.0133
 1102PNCE   C3A 9930   2.175  11.927   6.879 -0.3443  0.0918  0.0091
 1102PNCE   C1B 9931   2.267  11.040   6.332 -0.3405  0.1858  0.3605
 1102PNCE   C2B 9932   2.174  11.155   6.740 -0.1653 -0.3826  0.2825
 1102PNCE   C3B 9933   2.205  11.479   7.025 -0.1110  0.2878  0.0815
 1102PNCE   D4B 9934   2.325  11.843   7.347 -0.1126 -0.0819 -0.1023
 1102PNCE   C5B 9935   2.121  12.312   7.235 -0.1074  0.0348  0.0099
 1102PNCE   C6B 9936   1.964  12.668   7.407  0.3486 -0.3599 -0.3757
 1103CHOL   ROH 9937  13.575   7.357   9.367 -0.2496  0.0533  0.0686
 1103CHOL    R1 9938  13.574   7.436   9.095 -0.1858 -0.0466  0.0390
 1103CHOL    R2 9939  13.476   7.680   9.010 -0.1299 -0.0599 -0.0695
 1103CHOL    R3 9940  13.721   7.703   8.896 -0.1040 -0.1438 -0.0314
 1103CHOL    R4 9941  13.544   7.859   8.723  0.0074  0.0400  0.0240
 1103CHOL    R5 9942  13.678   7.699   8.661 -0.0779 -0.0053 -0.0378
 1103CHOL    C1 9943  13.815   7.985   8.448  0.1118  0.0194  0.1142
 1103CHOL    C2 9944  13.941   7.877   8.069 -0.0146 -0.0109  0.2526
 1104XCA    COO 9945  10.364  14.974   4.562  0.1787 -0.2256 -0.0228
 1104XCA     C1 9946  10.388  14.655   4.888 -0.1551  0.2612 -0.3545
 1104XCA     C2 9947  10.394  14.303   5.201  0.3051 -0.1132 -0.1965
 1104XCA     C3 9948  10.239  14.060   5.477 -0.1817 -0.0136  0.0815
 1104XCA     C4 9949  10.413  13.749   5.829  0.0152  0.1709  0.0063
 1104XCA     C5 9950  10.509  13.730   6.157 -0.1927  0.0018 -0.1307
 1104XCA     C6 9951  10.498  13.339   6.393 -0.0470 -0.0583 -0.0777
 1105CHOL   ROH 9952  10.371   5.639   4.681 -0.0256  0.2264  0.0953
 1105CHOL    R1 9953  10.383   5.613   4.963 -0.0397  0.1483  0.0871
 1105CHOL    R2 9954  10.227   5.765   5.133 -0.1641 -0.0202  0.1099
 1105CHOL    R3 9955  10.153   5.522   5.230 -0.0025 -0.1009  0.0405
 1105CHOL    R4 9956  10.128   5.704   5.458 -0.1298 -0.1617  0.0960
 1105CHOL    R5 9957  10.241   5.518   5.452  0.0030 -0.0930  0.0468
 1105CHOL    C1 9958  10.002   5.440   5.739  0.0419 -0.3198  0.0228
 1105CHOL    C2 9959   9.742   5.392   6.075 -0.0872 -0.1720 -0.3075
 1106PNCE   AM1 9960   2.286   5.156   5.181  0.0224  0.0291 -0.0190
 1106PNCE   AM2 9961   2.433   5.182   5.405 -0.1938  0.3494  0.0563
 1106PNCE   T1A 9962   1.948   5.246   5.529 -0.1477  0.1986 -0.2479
 1106PNCE   C2A 9963   1.843   5.195   5.961 -0.0036 -0.1280 -0.4706
 1106PNCE   C3A 9964   1.977   5.343   6.372  0.0855 -0.2357  0.2948
 1106PNCE   C1B 9965   2.285   4.958   5.786 -0.1748 -0.1945 -0.0074
 1106PNCE   C2B 9966   2.037   4.757   6.024 -0.0562 -0.0065  0.2695
 1106PNCE   C3B 9967   1.639   4.680   6.202  0.4134 -0.0258 -0.2541
 1106PNCE   D4B 9968   1.553   4.522   6.585  0.2834  0.4470 -0.0390
 1106PNCE   C5B 9969   1.145   4.535   6.803  0.2830 -0.3400  0.1120
 1106PNCE   C6B 9970   1.058   4.830   7.035  0.3687  0.2034  0.0789
 1107CHOL   ROH 9971   8.594   5.545   7.706 -0.0560  0.1666 -0.2641
 1107CHOL    R1 9972   8.671   5.505   7.437  0.0741  0.1031 -0.2178
 1107CHOL    R2 9973   8.919   5.405   7.366  0.0966  0.0593 -0.0726
 1107CHOL    R3 9974   8.770   5.222   7.230  0.1435  0.0496 -0.1129
 1107CHOL    R4 9975   9.027   5.225   7.091  0.1783  0.0739 -0.0508
 1107CHOL    R5 9976   8.831   5.252   7.001  0.1968  0.0603 -0.0983
 1107CHOL    C1 9977   8.951   4.948   6.805  0.2700  0.0734 -0.0760
 1107CHOL    C2 9978   8.848   5.067   6.325  0.2544  0.0916  0.1701
 1108CHOL   ROH 9979  13.430   5.239   8.908  0.0709  0.0427  0.0144
 1108CHOL    R1 9980  13.520   5.153   8.654 -0.1333 -0.1094 -0.0093
 1108CHOL    R2 9981  13.786   5.155   8.583 -0.2011 -0.0187 -0.2736
 1108CHOL    R3 9982  13.740   4.893   8.526 -0.1182 -0.0920 -0.0185
 1108CHOL    R4 9983  13.976   4.965   8.366 -0.2308 -0.1293 -0.2032
 1108CHOL    R5 9984  13.792   4.874   8.292 -0.2303 -0.2762 -0.0296
 1108CHOL    C1 9985  14.043   4.608   8.185 -0.1702 -0.2626  0.0772
 1108CHOL    C2 9986  14.296   4.964   7.916  0.1209 -0.0625  0.2785
 1109CHOL   ROH 9987   0.263  12.331   6.096  0.1177  0.0682 -0.0557
 1109CHOL    R1 9988   0.260  12.496   6.325  0.3256  0.0598 -0.0470
 1109CHOL    R2 9989   0.062  12.481   6.517  0.2669  0.3448 -0.0906
 1109CHOL    R3 9990   0.272  12.449   6.686  0.1889  0.0193 -0.0451
 1109CHOL    R4 9991   0.041  12.490   6.862  0.1928  0.3424 -0.0932
 1109CHOL    R5 9992   0.228  12.602   6.865  0.3651  0.0746 -0.0405
 1109CHOL    C1 9993   0.227  12.465   7.221  0.0763  0.0354 -0.0522
 1109CHOL    C2 9994   0.456  12.459   7.499  0.3848 -0.0456 -0.2288
 1110PNCE   AM1 9995   0.979   9.381   6.171 -0.2983 -0.0897  0.3555
 1110PNCE   AM2 9996   1.253   9.390   6.179 -0.1542  0.1220 -0.4418
 1110PNCE   T1A 9997   0.947   9.160   6.652 -0.1553  0.0654  0.2312
 1110PNCE   C2A 9998   0.825   9.159   7.086  0.0084 -0.3002  0.0668
 1110PNCE   C3A 9999   0.722   9.159   7.453 -0.3078 -0.0988 -0.0689
 1110PNCE   C1B10000   1.262   9.641   6.613 -0.4193 -0.0226  0.0441
 1110PNCE   C2B10001   1.508   9.941   6.861  0.1338 -0.0531  0.2404
 1110PNCE   C3B10002   1.503  10.014   7.319 -0.1779 -0.0262 -0.3426
 1110PNCE   D4B10003   1.788  10.372   7.636  0.0591  0.0320 -0.1035
 1110PNCE   C5B10004   1.979  10.630   7.436  0.3181  0.1561 -0.0103
 1110PNCE   C6B10005   2.157  10.596   7.060 -0.0208 -0.0732 -0.5474
 1111XCA    COO10006  13.105   8.191   5.385  0.0708  0.2391  0.3411
 1111XCA     C110007  13.217   7.843   5.630  0.0108 -0.2652  0.0506
 1111XCA     C210008  13.188   7.676   5.994  0.2702 -0.1908  0.0784
 1111XCA     C310009  13.289   7.746   6.485  0.3161  0.2501  0.0455
 1111XCA     C410010  13.270   7.760   6.962 -0.1959  0.1699 -0.1543
 1111XCA     C510011  13.251   7.753   7.384 -0.2153  0.6575  0.2624
 1111XCA     C610012  13.446   7.968   7.654 -0.2781  0.0639  0.0544
 1112CHOL   ROH10013  12.484   8.880   8.895  0.1449 -0.1184  0.1737
 1112CHOL    R110014  12.517   8.643   8.743 -0.0590 -0.0301 -0.0127
 1112CHOL    R210015  12.353   8.580   8.529 -0.0563  0.3248 -0.1269
 1112CHOL    R310016  12.589   8.560   8.396 -0.0288  0.1813 -0.0584
 1112CHOL    R410017  12.386   8.494   8.196 -0.0153  0.3544 -0.1304
 1112CHOL    R510018  12.559   8.374   8.249 -0.1145  0.2248 -0.0965
 1112CHOL    C110019  12.627   8.426   7.877  0.0343  0.2371 -0.0682
 1112CHOL    C210020  12.602   8.257   7.587 -0.1099 -0.1706 -0.1172
 1113CHOL   ROH10021  14.205  14.621   4.840 -0.2124  0.1430 -0.2418
 1113CHOL    R110022  14.213  14.510   5.101 -0.0850 -0.0622 -0.3306
 1113CHOL    R210023  14.223  14.665   5.329  0.2681 -0.2395 -0.2151
 1113CHOL    R310024  14.005  14.519   5.399  0.1869 -0.0835 -0.1363
 1113CHOL    R410025  14.126  14.597   5.653  0.3219 -0.1548 -0.1811
 1113CHOL    R510026  14.075  14.395   5.591  0.1602 -0.1225 -0.1529
 1113CHOL    C110027  13.865  14.420   5.908  0.2771  0.0409 -0.0872
 1113CHOL    C210028  13.657  14.222   6.088 -0.0213 -0.0982 -0.0888
 1114XCA    COO10029   5.904   6.914   4.755 -0.0125  0.0690  0.0198
 1114XCA     C110030   6.223   6.942   5.088  0.1019  0.1669 -0.1127
 1114XCA     C210031   6.349   6.993   5.498 -0.0965  0.0327 -0.1915
 1114XCA     C310032   6.613   7.172   5.766  0.2011  0.0487 -0.0509
 1114XCA     C410033   6.849   7.398   6.032 -0.1048  0.0099  0.0454
 1114XCA     C510034   7.050   7.359   6.450 -0.1873 -0.3534  0.0548
 1114XCA     C610035   7.558   7.409   6.497 -0.1001  0.3045  0.0553
 1115CHOL   ROH10036  14.187   7.567   5.761  0.2499 -0.1223  0.0605
 1115CHOL    R110037  13.977   7.584   5.951  0.2065 -0.0166  0.0050
 1115CHOL    R210038  13.874   7.362   6.080  0.1178  0.0432  0.0455
 1115CHOL    R310039  13.932   7.506   6.303  0.1017  0.0933  0.0159
 1115CHOL    R410040  13.675   7.379   6.362 -0.0065  0.2821 -0.0551
 1115CHOL    R510041  13.721   7.592   6.376  0.1220  0.2570 -0.1177
 1115CHOL    C110042  13.614   7.524   6.736 -0.0941  0.4683 -0.1416
 1115CHOL    C210043  13.208   7.313   6.867 -0.0349  0.2931 -0.2039
 1116XCA    COO10044   5.358  13.905   3.880 -0.0068  0.1475 -0.3420
 1116XCA     C110045   5.671  14.272   4.114  0.1451  0.1158 -0.2970
 1116XCA     C210046   6.011  14.347   4.466 -0.4824  0.2291  0.0851
 1116XCA     C310047   6.024  14.216   4.906  0.1886  0.0421  0.0767
 1116XCA     C410048   5.929  14.142   5.364 -0.0983 -0.0180 -0.0474
 1116XCA     C510049   6.063  14.392   5.699  0.0202  0.0048 -0.1237
 1116XCA     C610050   6.293  14.663   5.951 -0.0028 -0.0666  0.3848
 1117PNCE   AM110051   3.168   1.283   3.843  0.3229 -0.0275 -0.2546
 1117PNCE   AM210052   2.852   1.383   3.814 -0.0027 -0.3441 -0.2771
 1117PNCE   T1A10053   3.474   1.267   4.201  0.2881  0.1157  0.2404
 1117PNCE   C2A10054   3.720   1.368   4.576  0.0670  0.3283  0.3331
 1117PNCE   C3A10055   4.010   1.614   4.826 -0.0114  0.0355  0.1247
 1117PNCE   C1B10056   2.962   1.378   4.271  0.0759  0.1426  0.0071
 1117PNCE   C2B10057   2.679   1.531   4.640 -0.2746 -0.0898 -0.0863
 1117PNCE   C3B10058   2.562   1.669   5.098 -0.0853 -0.2288 -0.2387
 1117PNCE   D4B10059   2.485   1.743   5.540 -0.2704  0.1775 -0.0276
 1117PNCE   C5B10060   2.565   1.456   5.863 -0.0074 -0.2034  0.1435
 1117PNCE   C6B10061   2.889   1.401   6.049 -0.0072 -0.0761  0.2589
 1118PNCE   AM110062   6.345   2.834   3.948  0.2437  0.1135  0.2588
 1118PNCE   AM210063   6.722   2.563   3.906 -0.3624 -0.1319 -0.0206
 1118PNCE   T1A10064   6.431   2.820   4.333 -0.4702  0.1613 -0.3646
 1118PNCE   C2A10065   6.302   2.849   4.749  0.0979 -0.2861 -0.0179
 1118PNCE   C3A10066   6.439   2.976   5.224 -0.0404  0.3171 -0.0759
 1118PNCE   C1B10067   6.912   2.620   4.298  0.3018  0.2850 -0.1195
 1118PNCE   C2B10068   6.814   2.594   4.695 -0.1097 -0.1438 -0.1518
 1118PNCE   C3B10069   6.733   2.560   5.086  0.3105 -0.0590 -0.2120
 1118PNCE   D4B10070   6.808   2.358   5.498 -0.0925  0.1640  0.0753
 1118PNCE   C5B10071   6.510   2.393   5.918  0.3207 -0.1448 -0.1728
 1118PNCE   C6B10072   6.189   2.460   6.097  0.1696  0.0079 -0.1238
 1119PNCE   AM110073  14.726  13.511   4.704 -0.0766  0.0129  0.0402
 1119PNCE   AM210074  14.648  13.854   4.695  0.1760 -0.0234 -0.3143
 1119PNCE   T1A10075  14.741  13.612   5.217 -0.1940 -0.0256 -0.2402
 1119PNCE   C2A10076  14.990  13.626   5.511 -0.1140  0.0220  0.1551
 1119PNCE   C3A10077  15.293  13.278   5.649  0.1613  0.0889 -0.1491
 1119PNCE   C1B10078  14.679  14.193   5.009  0.3106 -0.1588  0.2532
 1119PNCE   C2B10079  15.018  14.444   5.040 -0.2099  0.0622  0.0416
 1119PNCE   C3B10080  15.172  14.616   5.361 -0.0791 -0.1966 -0.0131
 1119PNCE   D4B10081  15.503  14.777   5.720 -0.2061  0.3885 -0.0365
 1119PNCE   C5B10082  15.242  14.669   6.113  0.0311  0.4223  0.5295
 1119PNCE   C6B10083  15.089  14.389   6.379  0.1148 -0.1029  0.0337
 1120PNCE   AM110084  10.428   0.458   4.907  0.2730  0.2533  0.2718
 1120PNCE   AM210085  10.128   0.282   4.922  0.0536 -0.1070 -0.1903
 1120PNCE   T1A10086  10.188   0.717   5.202  0.0378  0.1944 -0.0326
 1120PNCE   C2A10087   9.846   0.654   5.543 -0.1934  0.1356  0.3109
 1120PNCE   C3A10088   9.425   0.786   5.814 -0.0473  0.0270 -0.4617
 1120PNCE   C1B10089   9.774   0.398   5.117  0.4670 -0.2325 -0.0397
 1120PNCE   C2B10090   9.392   0.568   5.119  0.1647  0.1878 -0.1177
 1120PNCE   C3B10091   8.964   0.769   5.168  0.0066 -0.0233 -0.0545
 1120PNCE   D4B10092   8.686   1.069   5.197 -0.0065 -0.0880 -0.0015
 1120PNCE   C5B10093   8.368   1.078   5.363 -0.1208 -0.1596  0.0175
 1120PNCE   C6B10094   7.909   1.191   5.282 -0.3635  0.0402 -0.0593
 1121PNCE   AM110095   1.407  12.381   5.695  0.0193  0.1597  0.0575
 1121PNCE   AM210096   1.415  12.686   5.547  0.2309  0.0265  0.5325
 1121PNCE   T1A10097   1.332  12.352   6.091  0.1154 -0.0776  0.0397
 1121PNCE   C2A10098   1.428  12.455   6.521  0.2806 -0.3266  0.3145
 1121PNCE   C3A10099   1.367  12.664   6.913 -0.1960  0.2164 -0.0571
 1121PNCE   C1B10100   1.340  12.971   5.821  0.0553 -0.0389  0.2930
 1121PNCE   C2B10101   1.289  13.229   6.102 -0.0411 -0.3987 -0.1047
 1121PNCE   C3B10102   1.208  13.413   6.541  0.0586  0.0202 -0.0932
 1121PNCE   D4B10103   1.185  13.742   6.840 -0.1414  0.0848 -0.2392
 1121PNCE   C5B10104   0.743  13.886   6.938 -0.1578 -0.1944  0.3611
 1121PNCE   C6B10105   0.527  13.545   7.084  0.0246 -0.0177 -0.0710
 1122CHOL   ROH10106   6.300   7.144   8.375 -0.0862 -0.1268 -0.0441
 1122CHOL    R110107   6.113   7.073   8.175  0.0411 -0.1374 -0.1607
 1122CHOL    R210108   5.931   7.254   8.071 -0.0465 -0.2002 -0.1214
 1122CHOL    R310109   6.039   7.177   7.834  0.1036  0.0199 -0.1268
 1122CHOL    R410110   5.783   7.300   7.762  0.0591 -0.0976 -0.1572
 1122CHOL    R510111   5.852   7.102   7.705  0.2079 -0.0165 -0.2563
 1122CHOL    C110112   5.798   7.256   7.360  0.2615  0.1688 -0.1831
 1122CHOL    C210113   5.809   7.127   7.035 -0.1228 -0.0842 -0.3190
 1123CHOL   ROH10114   9.192  14.875   8.346 -0.0063 -0.1928 -0.0497
 1123CHOL    R110115   9.124  14.971   8.089 -0.4154 -0.0548  0.1019
 1123CHOL    R210116   8.950  15.182   8.050 -0.0375  0.3616  0.5278
 1123CHOL    R310117   9.156  15.285   7.907 -0.1208 -0.1312  0.0175
 1123CHOL    R410118   8.920  15.431   7.813 -0.0460  0.2997  0.4640
 1123CHOL    R510119   9.064  15.324   7.689 -0.5227 -0.0640  0.1916
 1123CHOL    C110120   9.097  15.673   7.540 -0.1291 -0.1990 -0.0522
 1123CHOL    C210121   9.086  15.690   7.204  0.0938  0.4048  0.0465
 1124XCA    COO10122   9.166   3.563   3.899  0.1266  0.1110  0.2602
 1124XCA     C110123   9.294   3.790   4.259 -0.0994  0.3248  0.3172
 1124XCA     C210124   9.363   3.917   4.780 -0.0604  0.0795 -0.0885
 1124XCA     C310125   9.310   4.077   5.167 -0.1297 -0.0365 -0.0654
 1124XCA     C410126   9.374   3.999   5.604  0.0621  0.3980  0.2141
 1124XCA     C510127   9.045   3.805   5.838  0.2653  0.0567 -0.0329
 1124XCA     C610128   8.690   3.731   6.116  0.3976 -0.0743  0.0320
 1125CHOL   ROH10129  11.400   2.551   7.889 -0.0811 -0.0324  0.0139
 1125CHOL    R110130  11.385   2.599   7.611  0.0683 -0.0903 -0.0063
 1125CHOL    R210131  11.485   2.422   7.423 -0.0568 -0.2570  0.0718
 1125CHOL    R310132  11.233   2.437   7.322 -0.0111 -0.0069 -0.0091
 1125CHOL    R410133  11.394   2.329   7.103 -0.1143 -0.4704  0.1491
 1125CHOL    R510134  11.264   2.503   7.095  0.1369 -0.2954 -0.0715
 1125CHOL    C110135  11.104   2.289   6.822 -0.1049 -0.3599  0.1181
 1125CHOL    C210136  11.043   2.172   6.417  0.1510  0.1352 -0.1862
 1126PNCE   AM110137  13.081  14.525   4.431 -0.2393  0.2598 -0.2699
 1126PNCE   AM210138  13.171  14.216   4.478 -0.2641  0.3080 -0.1043
 1126PNCE   T1A10139  12.659  14.198   4.456  0.3454 -0.3057 -0.0393
 1126PNCE   C2A10140  12.521  14.035   4.887  0.2260  0.0632 -0.1042
 1126PNCE   C3A10141  12.504  13.880   5.315  0.1891  0.0472 -0.1078
 1126PNCE   C1B10142  13.071  14.154   4.868  0.2880  0.0463  0.0071
 1126PNCE   C2B10143  12.798  14.319   5.218  0.1164 -0.1703 -0.1206
 1126PNCE   C3B10144  12.648  14.727   5.448  0.1541  0.0286  0.1845
 1126PNCE   D4B10145  12.840  15.159   5.464  0.4458 -0.1745 -0.0495
 1126PNCE   C5B10146  12.599  15.498   5.456  0.1890 -0.1538  0.1536
 1126PNCE   C6B10147  12.683  15.787   5.789  0.0716 -0.1982  0.3570
 1127CHOL   ROH10148   5.330  14.361   7.276  0.0614 -0.1413 -0.2748
 1127CHOL    R110149   5.204  14.131   7.170 -0.1067 -0.0819 -0.2082
 1127CHOL    R210150   4.950  14.053   7.244 -0.1508  0.1025 -0.1563
 1127CHOL    R310151   4.905  14.059   6.976 -0.1820  0.0756 -0.1515
 1127CHOL    R410152   4.669  13.926   7.088 -0.0198 -0.2130 -0.1446
 1127CHOL    R510153   4.797  13.850   6.929  0.0566 -0.0483 -0.1624
 1127CHOL    C110154   4.462  13.859   6.745  0.0273 -0.4219 -0.1333
 1127CHOL    C210155   4.301  13.822   6.282 -0.0617  0.0836 -0.1274
 1128PNCE   AM110156   1.044   4.639   9.177 -0.3876  0.0840 -0.1679
 1128PNCE   AM210157   0.705   4.805   9.161  0.0389 -0.2006 -0.2239
 1128PNCE   T1A10158   1.193   4.831   8.799  0.4304  0.1853  0.0710
 1128PNCE   C2A10159   1.448   4.768   8.484  0.0206 -0.1068 -0.1946
 1128PNCE   C3A10160   1.501   4.373   8.211 -0.3819  0.0021  0.0395
 1128PNCE   C1B10161   0.787   4.568   8.790 -0.3176 -0.0418  0.2301
 1128PNCE   C2B10162   0.975   4.396   8.347  0.1095  0.0233 -0.2139
 1128PNCE   C3B10163   1.087   4.510   7.991 -0.0584 -0.1428 -0.1459
 1128PNCE   D4B10164   1.043   4.553   7.495  0.0634 -0.2082  0.1309
 1128PNCE   C5B10165   1.447   4.681   7.224  0.0039 -0.1111 -0.0824
 1128PNCE   C6B10166   1.749   5.042   7.080  0.0810 -0.1176  0.2353
 1129CHOL   ROH10167   2.071   6.783   9.284  0.1131 -0.0428 -0.0747
 1129CHOL    R110168   2.091   6.865   9.013 -0.1584 -0.0683 -0.1043
 1129CHOL    R210169   1.869   6.930   8.861 -0.3023  0.0681  0.1587
 1129CHOL    R310170   2.006   7.161   8.821 -0.1983 -0.0218 -0.0154
 1129CHOL    R410171   1.882   7.104   8.563 -0.1675 -0.1950  0.0071
 1129CHOL    R510172   2.092   7.142   8.599 -0.1592 -0.2507  0.0170
 1129CHOL    C110173   2.018   7.423   8.352  0.0086 -0.4325 -0.2447
 1129CHOL    C210174   2.049   7.556   7.950 -0.2650  0.0386  0.1087
 1130PNCE   AM110175   7.962   7.212   4.815  0.0784 -0.0372 -0.1544
 1130PNCE   AM210176   7.961   7.029   4.431  0.1891 -0.0361  0.1822
 1130PNCE   T1A10177   8.051   7.486   5.206  0.2356 -0.1517  0.1942
 1130PNCE   C2A10178   8.198   7.836   5.418  0.1386  0.2056 -0.1807
 1130PNCE   C3A10179   8.107   7.818   5.862 -0.1158  0.2334  0.2398
 1130PNCE   C1B10180   8.466   7.188   4.449  0.3122  0.0085 -0.2073
 1130PNCE   C2B10181   8.881   7.195   4.476 -0.0035  0.0512 -0.1064
 1130PNCE   C3B10182   9.135   6.837   4.654 -0.0048  0.0759  0.1290
 1130PNCE   D4B10183   9.487   6.644   4.930 -0.0324 -0.0197  0.0627
 1130PNCE   C5B10184   9.605   6.344   5.324  0.3035 -0.3503 -0.2444
 1130PNCE   C6B10185   9.395   6.411   5.742 -0.2096  0.3431  0.0849
 1131PNCE   AM110186   5.962   5.326   4.686 -0.2639 -0.1116  0.0620
 1131PNCE   AM210187   5.735   5.311   4.701  0.0883 -0.1673 -0.0072
 1131PNCE   T1A10188   5.938   5.200   5.156  0.0152  0.0477  0.0403
 1131PNCE   C2A10189   5.781   5.216   5.537 -0.0380  0.0137 -0.1970
 1131PNCE   C3A10190   5.567   5.189   5.982 -0.0654  0.1324  0.1581
 1131PNCE   C1B10191   5.587   5.591   5.041  0.1533  0.0473  0.1469
 1131PNCE   C2B10192   5.468   5.733   5.483  0.0633  0.0563  0.0768
 1131PNCE   C3B10193   5.599   5.692   5.907 -0.2019  0.1355  0.2211
 1131PNCE   D4B10194   5.778   5.756   6.231 -0.1994 -0.2511 -0.2924
 1131PNCE   C5B10195   6.041   5.365   6.400 -0.5656  0.0791 -0.0455
 1131PNCE   C6B10196   5.874   5.026   6.381  0.1398 -0.3933 -0.1510
 1132PNCE   AM110197   3.843   8.542   5.149 -0.1295  0.0617  0.0133
 1132PNCE   AM210198   3.808   8.286   5.043 -0.0683 -0.0341 -0.1125
 1132PNCE   T1A10199   3.778   8.902   5.427 -0.0548  0.1181  0.2144
 1132PNCE   C2A10200   3.865   8.804   5.870  0.0683  0.0096 -0.0572
 1132PNCE   C3A10201   4.045   8.669   6.246  0.0351  0.2203 -0.0924
 1132PNCE   C1B10202   3.995   8.141   5.379 -0.0366  0.1096 -0.0302
 1132PNCE   C2B10203   4.290   8.082   5.763  0.1613  0.2428 -0.1976
 1132PNCE   C3B10204   4.421   7.896   6.096 -0.0896 -0.0139  0.0446
 1132PNCE   D4B10205   4.508   8.002   6.514  0.4020 -0.3036 -0.3768
 1132PNCE   C5B10206   4.618   8.345   6.689  0.2151 -0.2043 -0.1636
 1132PNCE   C6B10207   4.362   8.676   6.728 -0.0528  0.0325 -0.1397
 1133PNCE   AM110208  10.696  13.236   4.367 -0.0798  0.3552 -0.1681
 1133PNCE   AM210209  10.392  12.968   4.460 -0.1211 -0.0369 -0.0426
 1133PNCE   T1A10210  10.646  13.587   4.644 -0.3199 -0.0080 -0.0137
 1133PNCE   C2A10211  10.906  13.676   4.992  0.0485 -0.2756  0.1681
 1133PNCE   C3A10212  10.927  13.582   5.320  0.0341  0.5326 -0.0558
 1133PNCE   C1B10213  10.232  13.265   4.729  0.0267  0.0111  0.0336
 1133PNCE   C2B10214  10.237  13.199   5.208 -0.1236 -0.2378  0.2009
 1133PNCE   C3B10215  10.176  13.142   5.617 -0.2975 -0.0714  0.1522
 1133PNCE   D4B10216  10.291  13.261   5.954 -0.1434  0.0483 -0.0456
 1133PNCE   C5B10217  10.047  13.109   6.286  0.4590 -0.2003 -0.1084
 1133PNCE   C6B10218  10.137  13.163   6.706 -0.2037 -0.0531 -0.1897
 1134PNCE   AM110219   7.254   6.603   4.671 -0.1892 -0.0328 -0.0275
 1134PNCE   AM210220   7.112   6.465   4.897  0.6510  0.0474  0.0448
 1134PNCE   T1A10221   7.585   6.807   4.761 -0.0117  0.1395 -0.6657
 1134PNCE   C2A10222   7.966   6.660   4.804 -0.0814 -0.1514 -0.2188
 1134PNCE   C3A10223   8.389   6.739   4.817  0.2391  0.2882  0.1295
 1134PNCE   C1B10224   7.381   6.249   5.077 -0.2986 -0.0564 -0.3243
 1134PNCE   C2B10225   7.838   6.233   5.268 -0.0962 -0.0448  0.0522
 1134PNCE   C3B10226   8.144   6.455   5.264 -0.0422 -0.0870 -0.1143
 1134PNCE   D4B10227   8.462   6.590   5.498 -0.0496  0.1951 -0.1364
 1134PNCE   C5B10228   8.862   6.451   5.624  0.1602  0.0222 -0.0408
 1134PNCE   C6B10229   9.060   6.184   5.362 -0.1219 -0.2720  0.2117
 1135CHOL   ROH10230  12.617  13.283   5.363 -0.2507 -0.2447  0.1364
 1135CHOL    R110231  12.443  13.471   5.485 -0.2082 -0.2331  0.1816
 1135CHOL    R210232  12.368  13.453   5.750  0.0334 -0.1034  0.2654
 1135CHOL    R310233  12.462  13.709   5.760 -0.0412 -0.0655  0.0269
 1135CHOL    R410234  12.292  13.682   5.998  0.0842  0.0658  0.1256
 1135CHOL    R510235  12.277  13.836   5.844 -0.0367 -0.0572  0.0167
 1135CHOL    C110236  12.336  14.055   6.151  0.0437  0.2000 -0.1797
 1135CHOL    C210237  12.256  14.409   6.400  0.2548  0.2278 -0.1447
 1136PNCE   AM110238   5.186  10.917   5.064  0.1263  0.1635  0.2124
 1136PNCE   AM210239   4.943  10.708   5.201  0.4936 -0.0012 -0.2572
 1136PNCE   T1A10240   5.325  11.205   5.375 -0.1850 -0.1413  0.0516
 1136PNCE   C2A10241   5.500  11.497   5.647  0.0810 -0.1694  0.0706
 1136PNCE   C3A10242   5.332  11.816   6.005  0.1053  0.2782 -0.0516
 1136PNCE   C1B10243   4.878  10.923   5.512 -0.1123  0.1780 -0.2867
 1136PNCE   C2B10244   5.036  11.099   5.806 -0.1278 -0.1829  0.0162
 1136PNCE   C3B10245   5.123  11.341   6.205  0.1692 -0.0306  0.4407
 1136PNCE   D4B10246   5.126  11.556   6.541 -0.1647 -0.1877  0.1311
 1136PNCE   C5B10247   5.532  11.511   6.769  0.1815 -0.0031 -0.1840
 1136PNCE   C6B10248   5.958  11.279   6.720 -0.1919  0.1778  0.1353
 1137CHOL   ROH10249   2.980  11.783   8.877 -0.0012 -0.1913 -0.1444
 1137CHOL    R110250   2.738  11.754   8.733 -0.0360 -0.1174 -0.1009
 1137CHOL    R210251   2.582  11.970   8.660  0.0163 -0.0687 -0.0735
 1137CHOL    R310252   2.607  11.863   8.411 -0.0594 -0.0776 -0.0775
 1137CHOL    R410253   2.382  12.049   8.389  0.0730  0.0791 -0.0732
 1137CHOL    R510254   2.382  11.839   8.334 -0.0753  0.0823 -0.0803
 1137CHOL    C110255   2.289  11.995   7.999  0.0348  0.1567 -0.0769
 1137CHOL    C210256   2.210  12.266   7.703  0.0654  0.3062 -0.1934
 1138PNCE   AM110257   6.431   5.082   4.735  0.2274 -0.0241  0.1774
 1138PNCE   AM210258   6.491   4.862   4.575  0.0550  0.1402  0.2367
 1138PNCE   T1A10259   6.399   5.052   5.111  0.3884 -0.1441 -0.0064
 1138PNCE   C2A10260   6.267   5.208   5.583 -0.2652 -0.2670 -0.0227
 1138PNCE   C3A10261   6.200   5.185   5.927 -0.2029  0.1296  0.1168
 1138PNCE   C1B10262   6.728   4.729   4.957  0.1709  0.0451  0.1167
 1138PNCE   C2B10263   6.631   4.682   5.331  0.0523  0.1412 -0.1216
 1138PNCE   C3B10264   6.525   4.816   5.821  0.0824  0.2041  0.0088
 1138PNCE   D4B10265   6.441   4.800   6.174 -0.0981 -0.1722 -0.1051
 1138PNCE   C5B10266   6.212   4.504   6.472 -0.0781  0.0711 -0.1100
 1138PNCE   C6B10267   6.053   4.359   6.922  0.2683  0.0228  0.0466
 1139PNCE   AM110268   6.722  10.054   5.066 -0.0404  0.2900 -0.2075
 1139PNCE   AM210269   6.736  10.485   4.914 -0.1423 -0.0489 -0.1514
 1139PNCE   T1A10270   7.025  10.153   5.277 -0.3006 -0.1045 -0.2284
 1139PNCE   C2A10271   7.270  10.106   5.643  0.0750  0.0975 -0.0112
 1139PNCE   C3A10272   7.278  10.113   6.025  0.2644  0.1263  0.1395
 1139PNCE   C1B10273   6.876  10.750   5.182 -0.2162 -0.0208  0.0330
 1139PNCE   C2B10274   7.017  11.074   5.378  0.0004 -0.1091 -0.1315
 1139PNCE   C3B10275   6.900  11.156   5.774 -0.1209 -0.0164  0.1623
 1139PNCE   D4B10276   6.579  11.390   5.862 -0.1883  0.2955  0.0599
 1139PNCE   C5B10277   6.198  11.140   5.937  0.2627 -0.3222 -0.0610
 1139PNCE   C6B10278   5.926  11.042   6.276  0.0062 -0.1209  0.1785
 1140XCA    COO10279  15.752   0.135   8.072  0.0458  0.0171 -0.0220
 1140XCA     C110280  15.641  -0.123   7.668  0.1359 -0.1256  0.0561
 1140XCA     C210281  15.367  -0.308   7.389  0.1537  0.0916 -0.0563
 1140XCA     C310282  15.271  -0.181   6.997 -0.0327  0.0892 -0.3214
 1140XCA     C410283  15.651  -0.144   6.650 -0.0503 -0.0919 -0.1829
 1140XCA     C510284  15.806  -0.279   6.287  0.1757  0.0540 -0.0800
 1140XCA     C610285  16.008  -0.577   6.395  0.3517  0.1946 -0.3732
 1141CHOL   ROH10286   9.861   2.942   8.117  0.0536 -0.2580 -0.1223
 1141CHOL    R110287   9.959   2.969   7.853  0.0103 -0.2422 -0.1372
 1141CHOL    R210288   9.985   2.754   7.681 -0.0869 -0.2211 -0.1798
 1141CHOL    R310289   9.833   2.909   7.516 -0.0733 -0.1479 -0.1234
 1141CHOL    R410290   9.991   2.741   7.335 -0.0593 -0.0714 -0.1855
 1141CHOL    R510291   9.977   2.958   7.331 -0.0577 -0.0684 -0.0911
 1141CHOL    C110292   9.852   2.878   6.980 -0.0304  0.0845 -0.1359
 1141CHOL    C210293   9.852   2.774   6.551 -0.0712 -0.1195 -0.0297
 1142PNCE   AM110294  12.233   1.064   4.500  0.1078  0.0227  0.1820
 1142PNCE   AM210295  12.218   0.779   4.697  0.2963 -0.0598 -0.0728
 1142PNCE   T1A10296  12.297   1.361   4.800  0.1626  0.0035 -0.0893
 1142PNCE   C2A10297  12.039   1.862   4.848  0.0195  0.1965 -0.1157
 1142PNCE   C3A10298  11.871   2.277   4.819  0.0757  0.0290 -0.3098
 1142PNCE   C1B10299  12.316   0.514   5.045 -0.0470 -0.0327 -0.0371
 1142PNCE   C2B10300  12.458   0.277   5.394  0.3311  0.1314 -0.1983
 1142PNCE   C3B10301  12.379   0.355   5.862  0.0382 -0.0697  0.0736
 1142PNCE   D4B10302  12.590   0.558   6.209 -0.3943  0.3017  0.2215
 1142PNCE   C5B10303  12.701   0.436   6.575 -0.1695 -0.3334  0.0548
 1142PNCE   C6B10304  12.382   0.341   6.902  0.2291 -0.1136  0.2311
 1143PNCE   AM110305  13.340   9.209   5.728 -0.2261  0.1108 -0.1211
 1143PNCE   AM210306  13.181   9.388   5.529  0.0556  0.0861  0.0634
 1143PNCE   T1A10307  13.388   9.009   6.026 -0.2024  0.1553  0.1098
 1143PNCE   C2A10308  13.210   8.788   6.436  0.4400  0.2572  0.1654
 1143PNCE   C3A10309  12.953   8.502   6.410 -0.0853  0.1894  0.0616
 1143PNCE   C1B10310  13.277   9.725   5.875 -0.0548  0.3724 -0.0295
 1143PNCE   C2B10311  13.502   9.661   6.230  0.0741  0.1534 -0.0107
 1143PNCE   C3B10312  13.814   9.622   6.585 -0.0477 -0.0055 -0.0085
 1143PNCE   D4B10313  13.969   9.453   6.904 -0.3438 -0.3663  0.1636
 1143PNCE   C5B10314  13.967   9.645   7.300  0.1446 -0.0674  0.0377
 1143PNCE   C6B10315  13.617   9.642   7.589  0.1254 -0.1483  0.1168
 1144CHOL   ROH10316   0.042   4.373   9.064 -0.0702  0.1876  0.1723
 1144CHOL    R110317   0.129   4.502   8.828  0.0072  0.1629  0.1873
 1144CHOL    R210318   0.045   4.426   8.576  0.2795 -0.0245  0.1475
 1144CHOL    R310319  -0.025   4.688   8.555  0.0599 -0.0927 -0.0213
 1144CHOL    R410320  -0.022   4.590   8.279  0.0886 -0.2815  0.0446
 1144CHOL    R510321   0.085   4.763   8.356 -0.0384 -0.1379 -0.0934
 1144CHOL    C110322  -0.126   4.932   8.087 -0.2288 -0.4952 -0.1736
 1144CHOL    C210323  -0.379   5.038   7.942  0.2428 -0.3044 -0.0059
 1145CHOL   ROH10324  12.004   0.836   7.429  0.2865 -0.1718 -0.2000
 1145CHOL    R110325  11.948   0.622   7.253  0.1627 -0.2190 -0.1038
 1145CHOL    R210326  12.060   0.371   7.282  0.0521 -0.2577 -0.0178
 1145CHOL    R310327  11.801   0.289   7.279  0.0139 -0.1428  0.0531
 1145CHOL    R410328  11.944   0.087   7.123 -0.1040 -0.2529  0.0843
 1145CHOL    R510329  11.770   0.200   7.059 -0.0657 -0.1923  0.0835
 1145CHOL    C110330  11.633  -0.155   7.027 -0.2306 -0.1422  0.2103
 1145CHOL    C210331  11.724  -0.414   6.800 -0.0107 -0.1519 -0.2768
 1146PNCE   AM110332  10.500   4.670   4.172  0.0631 -0.0825 -0.2503
 1146PNCE   AM210333  10.337   4.547   4.319  0.1162 -0.0591  0.3156
 1146PNCE   T1A10334  10.482   4.732   4.707 -0.4381 -0.0276 -0.1651
 1146PNCE   C2A10335  10.451   4.780   5.131 -0.0150 -0.0346 -0.1580
 1146PNCE   C3A10336  10.340   4.695   5.583 -0.0521  0.1870 -0.4522
 1146PNCE   C1B10337  10.114   4.196   4.533  0.2528 -0.0762  0.1618
 1146PNCE   C2B10338  10.271   3.869   4.791 -0.1411 -0.4597  0.2278
 1146PNCE   C3B10339  10.223   3.842   5.200  0.0095  0.1819  0.2298
 1146PNCE   D4B10340  10.178   3.521   5.542  0.2389 -0.0997 -0.0842
 1146PNCE   C5B10341   9.867   3.401   5.755  0.0800 -0.0587 -0.1670
 1146PNCE   C6B10342   9.457   3.544   5.873 -0.0656  0.2582 -0.3850
 1147CHOL   ROH10343  13.208  12.622   6.459  0.0852 -0.0597  0.1109
 1147CHOL    R110344  13.043  12.694   6.678  0.0242 -0.0184  0.0530
 1147CHOL    R210345  13.086  12.923   6.827 -0.0071  0.0044  0.0339
 1147CHOL    R310346  12.826  12.972   6.765  0.0148  0.0069 -0.0540
 1147CHOL    R410347  12.893  13.174   6.966 -0.0852 -0.0583  0.0383
 1147CHOL    R510348  12.726  13.035   6.973 -0.0760 -0.0705 -0.0766
 1147CHOL    C110349  12.537  13.367   6.989 -0.1100 -0.0925 -0.0417
 1147CHOL    C210350  12.567  13.714   6.985 -0.0535 -0.0682  0.1559
 1148CHOL   ROH10351   7.503  14.324   7.670  0.0098 -0.3856  0.0615
 1148CHOL    R110352   7.384  14.250   7.423 -0.1284 -0.1465  0.0538
 1148CHOL    R210353   7.188  14.401   7.302  0.1587  0.2411  0.0584
 1148CHOL    R310354   7.358  14.392   7.089  0.1520 -0.0707  0.0602
 1148CHOL    R410355   7.092  14.433   6.971  0.2226  0.5039  0.0620
 1148CHOL    R510356   7.234  14.276   6.920 -0.0944  0.2096  0.0356
 1148CHOL    C110357   7.195  14.443   6.579  0.2536  0.3642  0.0658
 1148CHOL    C210358   6.947  14.124   6.413 -0.0996 -0.0547  0.0774
 1149XCA    COO10359  14.548   3.254   4.571 -0.2329 -0.2842 -0.1458
 1149XCA     C110360  14.218   3.059   4.950 -0.0191 -0.3146  0.0736
 1149XCA     C210361  14.216   2.784   5.365  0.1774  0.0227 -0.0212
 1149XCA     C310362  14.028   2.526   5.744  0.0234  0.1750  0.1411
 1149XCA     C410363  14.205   2.537   6.287 -0.0456  0.0438 -0.0369
 1149XCA     C510364  14.481   2.299   6.653 -0.0669  0.1611  0.1689
 1149XCA     C610365  14.732   1.927   6.546  0.1025  0.2536 -0.2646
 1150PNCE   AM110366  15.594   6.392   5.654 -0.2623 -0.2665 -0.1283
 1150PNCE   AM210367  15.920   6.239   5.674 -0.0912  0.0182  0.1785
 1150PNCE   T1A10368  15.531   6.036   5.960 -0.0181  0.0295  0.1120
 1150PNCE   C2A10369  15.316   5.767   6.149  0.0282 -0.0629  0.2548
 1150PNCE   C3A10370  14.946   5.581   6.271 -0.0258  0.2043 -0.2986
 1150PNCE   C1B10371  15.944   6.258   6.143 -0.0554  0.0778 -0.0447
 1150PNCE   C2B10372  15.986   6.338   6.635  0.0317 -0.0126  0.1107
 1150PNCE   C3B10373  15.900   6.186   7.052 -0.3243  0.0347  0.1434
 1150PNCE   D4B10374  15.847   6.125   7.461 -0.3377 -0.2239 -0.1211
 1150PNCE   C5B10375  16.055   6.486   7.740 -0.0419 -0.1642 -0.0834
 1150PNCE   C6B10376  16.136   6.863   8.061 -0.1683 -0.1141  0.1191
 1151XCA    COO10377  15.813  10.228   5.560 -0.2090 -0.3384  0.1465
 1151XCA     C110378  15.961  10.430   6.015  0.2099 -0.2036 -0.0706
 1151XCA     C210379  16.187  10.664   6.328  0.1576 -0.1895  0.1412
 1151XCA     C310380  16.162  10.782   6.758 -0.2844  0.1361 -0.0209
 1151XCA     C410381  15.987  11.024   7.193 -0.1551 -0.1840 -0.0420
 1151XCA     C510382  16.351  11.346   7.307 -0.0219  0.2023  0.1194
 1151XCA     C610383  16.727  11.468   7.689 -0.0177  0.3300  0.2097
 1152CHOL   ROH10384   7.039  12.818   8.081 -0.0228  0.1787  0.0057
 1152CHOL    R110385   6.966  12.644   7.870  0.0793  0.1652 -0.0198
 1152CHOL    R210386   6.775  12.447   7.899  0.1557  0.0815 -0.0636
 1152CHOL    R310387   6.663  12.568   7.683  0.1366  0.0551 -0.0681
 1152CHOL    R410388   6.605  12.283   7.647  0.1743  0.0473 -0.0534
 1152CHOL    R510389   6.701  12.415   7.503  0.1540  0.0522 -0.0606
 1152CHOL    C110390   6.401  12.300   7.297  0.1672  0.0025 -0.0517
 1152CHOL    C210391   6.136  12.092   7.153 -0.0272  0.2384  0.0230
 1153PNCE   AM110392  10.313   1.954   4.494  0.2201  0.0560 -0.0485
 1153PNCE   AM210393  10.309   1.599   4.445  0.0568 -0.2484 -0.0290
 1153PNCE   T1A10394  10.127   1.959   4.878 -0.1893  0.0261  0.2669
 1153PNCE   C2A10395  10.079   1.902   5.288 -0.3332 -0.0225 -0.0980
 1153PNCE   C3A10396   9.805   1.934   5.529  0.3234  0.2027  0.1424
 1153PNCE   C1B10397  10.447   1.539   4.896 -0.0919 -0.1391 -0.1457
 1153PNCE   C2B10398  10.570   1.544   5.347 -0.0360 -0.2011 -0.1855
 1153PNCE   C3B10399  10.596   1.368   5.769 -0.0607  0.0240 -0.1059
 1153PNCE   D4B10400  10.481   1.174   6.086 -0.1628  0.1640 -0.0677
 1153PNCE   C5B10401  10.723   1.325   6.359  0.0307 -0.3329 -0.0950
 1153PNCE   C6B10402  10.785   1.270   6.872 -0.0092 -0.0940  0.0162
 1154XCA    COO10403   7.302   0.518   7.919 -0.0177 -0.0266 -0.3851
 1154XCA     C110404   7.467   0.700   7.484 -0.1056 -0.0376 -0.0779
 1154XCA     C210405   7.677   0.584   7.140  0.0269  0.0104 -0.2413
 1154XCA     C310406   7.984   0.404   6.759 -0.4493 -0.1668 -0.1949
 1154XCA     C410407   8.271   0.050   6.587  0.1689  0.1955 -0.0245
 1154XCA     C510408   8.481  -0.375   6.566 -0.0567 -0.1273  0.2102
 1154XCA     C610409   8.804  -0.637   6.711 -0.2727 -0.1763  0.0725
 1155CHOL   ROH10410   4.292   3.259   4.440 -0.1333  0.0633  0.2016
 1155CHOL    R110411   4.127   3.208   4.665 -0.1075 -0.0776  0.1887
 1155CHOL    R210412   3.956   2.992   4.678 -0.0109 -0.1550  0.1247
 1155CHOL    R310413   4.089   2.941   4.909  0.0117 -0.1693  0.1096
 1155CHOL    R410414   3.817   2.846   4.959 -0.0277 -0.0355  0.1801
 1155CHOL    R510415   3.929   2.986   5.082  0.0620 -0.0596  0.1315
 1155CHOL    C110416   3.862   2.713   5.340 -0.0162  0.0208  0.1980
 1155CHOL    C210417   3.629   2.623   5.658 -0.3373  0.0152  0.1451
 1156CHOL   ROH10418  10.336   6.733   5.457  0.1960 -0.2572 -0.1180
 1156CHOL    R110419  10.220   6.642   5.699  0.2698 -0.2591 -0.0824
 1156CHOL    R210420   9.950   6.667   5.752  0.3276 -0.0015  0.1196
 1156CHOL    R310421   9.966   6.399   5.795  0.0796 -0.0444 -0.0347
 1156CHOL    R410422   9.762   6.492   5.984  0.3998  0.0931  0.2505
 1156CHOL    R510423   9.939   6.375   6.032  0.3285 -0.1307 -0.0135
 1156CHOL    C110424   9.668   6.139   6.159  0.2089  0.1080  0.1819
 1156CHOL    C210425   9.233   6.085   6.255 -0.3432  0.1967 -0.4772
 1157CHOL   ROH10426   5.182  11.354   8.171  0.0626  0.0584 -0.0208
 1157CHOL    R110427   5.088  11.148   8.001  0.2482  0.0578 -0.1266
 1157CHOL    R210428   4.818  11.099   7.962  0.2822 -0.3533  0.0810
 1157CHOL    R310429   4.885  11.127   7.700  0.0013  0.0128  0.0405
 1157CHOL    R410430   4.701  10.900   7.705  0.1571 -0.1131 -0.0515
 1157CHOL    R510431   4.900  10.903   7.618  0.0679  0.1219 -0.2523
 1157CHOL    C110432   4.696  10.810   7.310 -0.1794  0.3704 -0.1666
 1157CHOL    C210433   4.685  10.574   7.064  0.1968 -0.1895  0.0510
 1158PNCE   AM110434  14.976   7.605   5.634  0.0525  0.1302  0.2997
 1158PNCE   AM210435  14.908   7.227   5.611 -0.0278 -0.0456  0.1255
 1158PNCE   T1A10436  15.171   7.640   6.090  0.0075 -0.1691 -0.0821
 1158PNCE   C2A10437  15.132   7.497   6.487 -0.0841 -0.0833  0.1773
 1158PNCE   C3A10438  15.239   7.254   6.787  0.3687 -0.1441  0.0680
 1158PNCE   C1B10439  14.834   7.249   6.056 -0.2245 -0.0293 -0.1916
 1158PNCE   C2B10440  14.698   7.067   6.530  0.1101 -0.1152 -0.0878
 1158PNCE   C3B10441  14.499   6.828   6.829  0.3279  0.0478  0.0590
 1158PNCE   D4B10442  14.526   6.866   7.325  0.1137 -0.1223 -0.0993
 1158PNCE   C5B10443  14.374   6.819   7.739 -0.0013  0.1108 -0.0471
 1158PNCE   C6B10444  14.401   6.544   8.114  0.0748 -0.0451 -0.4979
 1159CHOL   ROH10445   5.148   3.426   5.973 -0.0247 -0.0714  0.0418
 1159CHOL    R110446   5.263   3.652   6.099 -0.0658 -0.0951  0.1205
 1159CHOL    R210447   5.199   3.911   6.027  0.0409 -0.0859  0.0723
 1159CHOL    R310448   5.143   3.936   6.292 -0.1400 -0.0657  0.0340
 1159CHOL    R410449   5.125   4.209   6.187  0.2059 -0.0273  0.0424
 1159CHOL    R510450   5.245   4.143   6.356  0.0163 -0.1676  0.1328
 1159CHOL    C110451   5.029   4.405   6.528  0.1322  0.0258 -0.0108
 1159CHOL    C210452   5.168   4.642   6.753  0.2770  0.0724  0.0108
 1160XCA    COO10453  15.512  15.202   8.781 -0.2714  0.0740  0.0318
 1160XCA     C110454  15.545  15.303   8.380 -0.1152 -0.1598 -0.1884
 1160XCA     C210455  15.575  15.466   8.082  0.1215 -0.1280  0.1504
 1160XCA     C310456  15.627  15.154   7.701 -0.0014  0.0722  0.0459
 1160XCA     C410457  15.752  15.165   7.302 -0.1296 -0.0277 -0.0924
 1160XCA     C510458  15.647  15.260   6.901  0.1968  0.0738  0.2194
 1160XCA     C610459  15.562  14.882   6.944 -0.1302  0.0706 -0.0340
 1161CHOL   ROH10460   2.706   3.177   4.089 -0.0267  0.2856  0.0363
 1161CHOL    R110461   2.658   3.271   4.352  0.0344  0.1803  0.0860
 1161CHOL    R210462   2.474   3.153   4.521  0.0604  0.1230  0.0765
 1161CHOL    R310463   2.686   3.138   4.690  0.0952  0.0374  0.0250
 1161CHOL    R410464   2.453   3.154   4.866  0.1475  0.1583  0.0817
 1161CHOL    R510465   2.629   3.283   4.871  0.2079  0.0770  0.0288
 1161CHOL    C110466   2.640   3.140   5.225  0.2309  0.0984  0.0364
 1161CHOL    C210467   2.626   3.012   5.458  0.1811  0.1787 -0.0699
 1162CHOL   ROH10468   7.531   7.316   4.962  0.0160  0.0411  0.0541
 1162CHOL    R110469   7.535   7.321   5.245 -0.0335  0.0484  0.0544
 1162CHOL    R210470   7.456   7.104   5.398  0.0416  0.0135  0.0448
 1162CHOL    R310471   7.702   7.135   5.510  0.0095  0.1312  0.0851
 1162CHOL    R410472   7.542   7.005   5.718  0.0840 -0.0906  0.0022
 1162CHOL    R510473   7.657   7.189   5.738 -0.0496 -0.0192  0.1089
 1162CHOL    C110474   7.822   6.977   6.009  0.0785 -0.0408  0.0152
 1162CHOL    C210475   8.195   6.786   6.241 -0.1673  0.1761  0.3568
 1163CHOL   ROH10476   5.229  13.775   7.537 -0.1199  0.2993  0.1635
 1163CHOL    R110477   5.056  13.653   7.350 -0.0182  0.1617  0.1580
 1163CHOL    R210478   5.104  13.656   7.078  0.0248  0.1381  0.1662
 1163CHOL    R310479   5.078  13.386   7.104  0.1777  0.1265  0.2118
 1163CHOL    R410480   5.002  13.443   6.826 -0.1580  0.0781  0.2885
 1163CHOL    R510481   4.884  13.333   6.973  0.0544  0.0303  0.4278
 1163CHOL    C110482   4.918  13.066   6.703 -0.1209  0.0324  0.4024
 1163CHOL    C210483   4.844  13.202   6.341 -0.1810  0.0780  0.0826
 1164CHOL   ROH10484   2.380  14.461   7.126  0.2621 -0.0940 -0.0161
 1164CHOL    R110485   2.427  14.674   6.945  0.0834 -0.1090 -0.0830
 1164CHOL    R210486   2.673  14.798   6.922 -0.0561  0.1927 -0.0138
 1164CHOL    R310487   2.645  14.734   6.659  0.1503  0.0403 -0.0014
 1164CHOL    R410488   2.816  14.972   6.660 -0.1766  0.2804 -0.0215
 1164CHOL    R510489   2.631  14.946   6.548 -0.0924 -0.0231 -0.0963
 1164CHOL    C110490   2.872  15.014   6.260 -0.0531  0.1886 -0.0144
 1164CHOL    C210491   2.936  15.350   6.406 -0.1196  0.0848 -0.0030
 1165CHOL   ROH10492  11.561   4.100   8.264 -0.0831 -0.0930  0.1703
 1165CHOL    R110493  11.723   3.921   8.117  0.0201 -0.0506  0.2317
 1165CHOL    R210494  11.710   3.899   7.842  0.0086 -0.1742  0.2421
 1165CHOL    R310495  11.978   3.945   7.858 -0.0181  0.0051  0.1988
 1165CHOL    R410496  11.931   3.872   7.578  0.0157 -0.2515  0.2556
 1165CHOL    R510497  12.075   3.781   7.714  0.0784 -0.0540  0.3279
 1165CHOL    C110498  12.311   3.900   7.439 -0.0051 -0.1282  0.2228
 1165CHOL    C210499  12.645   3.886   7.202 -0.1238 -0.0667  0.1069
 1166PNCE   AM110500  13.724  15.059   4.596  0.2333 -0.0296 -0.1152
 1166PNCE   AM210501  13.755  14.733   4.678  0.2590 -0.2289 -0.0672
 1166PNCE   T1A10502  13.464  15.325   4.666 -0.2667 -0.1880  0.5914
 1166PNCE   C2A10503  13.193  15.703   4.841  0.0728  0.1378 -0.0100
 1166PNCE   C3A10504  12.856  15.726   5.106 -0.0444  0.1418  0.3824
 1166PNCE   C1B10505  13.900  14.969   5.122 -0.2782  0.1080  0.2196
 1166PNCE   C2B10506  14.070  15.071   5.533 -0.2973  0.1125  0.0073
 1166PNCE   C3B10507  14.012  15.010   5.860  0.1607 -0.4685 -0.2578
 1166PNCE   D4B10508  14.198  14.715   6.180  0.2238 -0.0692  0.0925
 1166PNCE   C5B10509  14.326  14.368   6.016 -0.1252 -0.1307 -0.1496
 1166PNCE   C6B10510  14.734  14.199   6.030  0.1609 -0.1345  0.0606
 1167XCA    COO10511  10.654   8.696   5.389 -0.2000  0.2708 -0.2103
 1167XCA     C110512  10.578   8.689   5.837  0.1460 -0.0038 -0.1442
 1167XCA     C210513  10.418   8.673   6.221  0.2175 -0.1748  0.0545
 1167XCA     C310514  10.194   8.754   6.477 -0.1174  0.2615  0.4996
 1167XCA     C410515   9.810   8.932   6.627  0.0471 -0.2928  0.0346
 1167XCA     C510516   9.663   9.203   6.915  0.1851  0.0876  0.0781
 1167XCA     C610517   9.327   9.416   6.862 -0.0655  0.0356 -0.3054
 1168PNCE   AM110518   4.809  11.238   4.971  0.1923 -0.1530 -0.2816
 1168PNCE   AM210519   4.824  11.591   4.925  0.1171 -0.0804  0.0320
 1168PNCE   T1A10520   4.894  11.396   5.371 -0.3660  0.2153  0.0504
 1168PNCE   C2A10521   4.958  11.664   5.755 -0.2958 -0.1587  0.0962
 1168PNCE   C3A10522   4.856  11.744   6.215 -0.0544  0.1374 -0.3040
 1168PNCE   C1B10523   5.216  11.731   5.126 -0.0905  0.1144 -0.0835
 1168PNCE   C2B10524   5.405  12.043   5.510 -0.1157  0.0923  0.0770
 1168PNCE   C3B10525   5.538  12.283   5.743  0.0835 -0.0334 -0.0352
 1168PNCE   D4B10526   5.501  12.236   6.186 -0.2397  0.3669 -0.2152
 1168PNCE   C5B10527   5.653  11.872   6.420 -0.1072  0.1184  0.1049
 1168PNCE   C6B10528   5.926  11.859   6.761  0.0701  0.1594  0.3023
 1169PNCE   AM110529   7.602  11.676   5.450  0.1282 -0.1553  0.0621
 1169PNCE   AM210530   7.455  11.352   5.313  0.1417 -0.2028 -0.0300
 1169PNCE   T1A10531   7.889  11.437   5.649  0.0721 -0.1999 -0.1518
 1169PNCE   C2A10532   8.168  11.227   5.997 -0.3011  0.0429  0.0721
 1169PNCE   C3A10533   8.208  11.196   6.419  0.2214 -0.2134  0.0152
 1169PNCE   C1B10534   7.386  11.143   5.651 -0.1754  0.1040 -0.1320
 1169PNCE   C2B10535   7.306  10.972   6.013  0.1177 -0.1046 -0.1163
 1169PNCE   C3B10536   7.139  10.965   6.441  0.1245 -0.0273 -0.2152
 1169PNCE   D4B10537   7.141  11.363   6.685  0.0060 -0.2101  0.3195
 1169PNCE   C5B10538   6.824  11.366   6.940  0.0623 -0.0921  0.2872
 1169PNCE   C6B10539   6.411  11.434   6.849  0.0125 -0.3536  0.0308
 1170XCA    COO10540   9.004   3.172   4.244  0.0959 -0.3589 -0.1561
 1170XCA     C110541   9.061   3.506   4.588  0.2002 -0.0844  0.0273
 1170XCA     C210542   9.118   3.567   5.096 -0.1562 -0.0807  0.0402
 1170XCA     C310543   9.076   3.518   5.447  0.2046 -0.0091  0.1113
 1170XCA     C410544   8.634   3.530   5.638 -0.0592  0.0521 -0.0491
 1170XCA     C510545   8.422   3.378   5.908 -0.1009  0.0593 -0.3292
 1170XCA     C610546   8.169   3.534   6.260  0.3170 -0.2167 -0.3106
 1171CHOL   ROH10547   2.992   6.358   6.020  0.2754  0.0451 -0.0596
 1171CHOL    R110548   3.029   6.331   6.299  0.4266 -0.0731 -0.0891
 1171CHOL    R210549   3.268   6.393   6.424  0.3875  0.2249 -0.1449
 1171CHOL    R310550   3.110   6.551   6.578  0.1905 -0.1152  0.0129
 1171CHOL    R410551   3.364   6.534   6.724  0.3386  0.3423 -0.1846
 1171CHOL    R510552   3.165   6.489   6.803  0.4802 -0.0635 -0.0434
 1171CHOL    C110553   3.271   6.765   7.044  0.1254  0.0914 -0.0595
 1171CHOL    C210554   3.535   6.800   7.359  0.1917 -0.1572  0.3445
 1172CHOL   ROH10555  14.471  12.790   8.748 -0.3683 -0.0866 -0.1451
 1172CHOL    R110556  14.466  12.695   8.481 -0.1892 -0.1795 -0.1175
 1172CHOL    R210557  14.568  12.841   8.269 -0.2727 -0.1413 -0.1319
 1172CHOL    R310558  14.711  12.614   8.224 -0.0239 -0.0121 -0.0154
 1172CHOL    R410559  14.710  12.754   7.966 -0.1823 -0.1451 -0.0889
 1172CHOL    R510560  14.649  12.548   8.003  0.0429 -0.1963  0.0192
 1172CHOL    C110561  14.926  12.490   7.748  0.1039 -0.0259  0.0456
 1172CHOL    C210562  14.996  12.561   7.502 -0.1166 -0.0224  0.1015
 1173PNCE   AM110563  15.587  11.585   5.579 -0.0403 -0.2784 -0.0951
 1173PNCE   AM210564  15.758  11.278   5.361 -0.1868  0.2584 -0.1717
 1173PNCE   T1A10565  15.402  12.006   5.445  0.0103 -0.1422 -0.0278
 1173PNCE   C2A10566  15.259  12.522   5.656  0.3078  0.0970  0.1147
 1173PNCE   C3A10567  15.388  12.842   5.833 -0.0364  0.4230 -0.1875
 1173PNCE   C1B10568  16.081  11.456   5.683  0.1359 -0.0292  0.0077
 1173PNCE   C2B10569  16.267  11.471   6.011  0.0915  0.0458 -0.0643
 1173PNCE   C3B10570  15.989  11.529   6.409  0.5148  0.5200 -0.1254
 1173PNCE   D4B10571  15.777  11.589   6.806  0.0233 -0.0867 -0.0218
 1173PNCE   C5B10572  15.583  11.967   6.849  0.1290 -0.1488 -0.0661
 1173PNCE   C6B10573  15.466  12.385   6.700 -0.2118 -0.0237  0.1729
 1174CHOL   ROH10574   4.058   4.951   6.625 -0.0610  0.0645 -0.1618
 1174CHOL    R110575   4.329   5.026   6.658 -0.1046  0.1978 -0.0901
 1174CHOL    R210576   4.535   4.842   6.665 -0.0323  0.2734  0.2008
 1174CHOL    R310577   4.637   4.997   6.467  0.0046  0.1185  0.0982
 1174CHOL    R410578   4.846   4.797   6.520 -0.1214 -0.0002  0.0889
 1174CHOL    R510579   4.871   5.014   6.519  0.0348 -0.0244 -0.0085
 1174CHOL    C110580   5.123   4.918   6.249 -0.1386 -0.3050 -0.0727
 1174CHOL    C210581   5.106   4.938   5.857  0.1214  0.0508  0.0321
 1175CHOL   ROH10582   8.340  11.614   8.685 -0.0756 -0.0133 -0.0948
 1175CHOL    R110583   8.412  11.478   8.448 -0.0463 -0.1054 -0.0328
 1175CHOL    R210584   8.226  11.369   8.276 -0.0268 -0.0703 -0.0678
 1175CHOL    R310585   8.355  11.521   8.091  0.1026 -0.1772 -0.0677
 1175CHOL    R410586   8.189  11.336   7.934 -0.0884 -0.0262 -0.0662
 1175CHOL    R510587   8.404  11.368   7.913 -0.0524 -0.2224 -0.0793
 1175CHOL    C110588   8.289  11.459   7.561 -0.0028 -0.1007 -0.0651
 1175CHOL    C210589   8.207  11.434   7.240  0.1244 -0.1405  0.0455
 1176XCA    COO10590   4.904  11.493   8.650  0.2471  0.0365  0.3948
 1176XCA     C110591   4.687  11.550   8.263 -0.0955 -0.0388  0.0036
 1176XCA     C210592   4.582  11.489   7.853  0.0360 -0.1433  0.2924
 1176XCA     C310593   4.569  11.355   7.359 -0.1616  0.3225  0.0395
 1176XCA     C410594   4.613  11.197   6.997  0.0502 -0.1121  0.2275
 1176XCA     C510595   4.558  10.855   6.645  0.1592 -0.1563 -0.1500
 1176XCA     C610596   4.291  10.635   6.303 -0.0090 -0.4355  0.0584
 1177XCA    COO10597   2.748  12.310   4.876  0.0820 -0.1156 -0.0734
 1177XCA     C110598   2.555  12.152   5.234 -0.1532  0.1018  0.1578
 1177XCA     C210599   2.368  12.353   5.642  0.0040  0.0249  0.1223
 1177XCA     C310600   2.303  12.499   6.093 -0.3725 -0.0867  0.0659
 1177XCA     C410601   2.700  12.681   6.407 -0.0206 -0.1090 -0.0544
 1177XCA     C510602   3.087  12.881   6.476  0.2299  0.1023  0.2903
 1177XCA     C610603   3.339  12.867   6.800  0.2204  0.0234 -0.2449
 1178XCA    COO10604   5.213   1.906   7.475 -0.3196 -0.0043  0.1096
 1178XCA     C110605   5.271   2.196   7.226  0.2959  0.2206  0.2677
 1178XCA     C210606   5.399   2.094   6.807 -0.3298  0.2494  0.2717
 1178XCA     C310607   5.675   2.197   6.469 -0.0609  0.0112  0.1190
 1178XCA     C410608   5.720   2.547   6.239 -0.1112  0.1214  0.1809
 1178XCA     C510609   5.802   2.640   5.810  0.0666 -0.2210 -0.1503
 1178XCA     C610610   6.201   2.673   5.619  0.1017  0.4507  0.1315
 1179XCA    COO10611  13.808   8.672   5.304  0.0560  0.2085 -0.1155
 1179XCA     C110612  13.979   8.552   5.761  0.0457  0.0222 -0.1819
 1179XCA     C210613  14.027   8.400   6.125 -0.0126 -0.1555  0.0205
 1179XCA     C310614  14.289   8.542   6.461  0.0845  0.1768  0.0870
 1179XCA     C410615  14.476   8.558   6.851 -0.3760 -0.1413  0.0529
 1179XCA     C510616  14.530   8.631   7.295  0.0902  0.0656 -0.0175
 1179XCA     C610617  14.410   8.399   7.675 -0.3195  0.0178  0.2142
 1180CHOL   ROH10618  12.789   2.365   6.622 -0.1244 -0.0603 -0.1222
 1180CHOL    R110619  13.068   2.316   6.623 -0.1120  0.0065 -0.1383
 1180CHOL    R210620  13.220   2.326   6.853 -0.0837  0.1250 -0.1583
 1180CHOL    R310621  13.293   2.075   6.777 -0.0370  0.1156 -0.0788
 1180CHOL    R410622  13.512   2.169   6.950 -0.1475  0.1295  0.0451
 1180CHOL    R510623  13.531   2.090   6.747 -0.0193  0.1047  0.0703
 1180CHOL    C110624  13.751   1.842   6.935 -0.1410  0.1233  0.2383
 1180CHOL    C210625  13.951   1.876   7.270 -0.0037 -0.2374  0.0637
 1181PNCE   AM110626   1.156   4.005   4.980  0.1086 -0.0463 -0.0625
 1181PNCE   AM210627   1.497   3.977   4.949  0.4000  0.0186  0.3487
 1181PNCE   T1A10628   0.966   4.106   5.367  0.0666  0.1831  0.3786
 1181PNCE   C2A10629   1.102   4.092   5.784 -0.1088 -0.0330 -0.0054
 1181PNCE   C3A10630   1.119   3.879   6.088 -0.1853 -0.1133 -0.2658
 1181PNCE   C1B10631   1.472   4.063   5.377  0.0396  0.1014 -0.2556
 1181PNCE   C2B10632   1.582   3.905   5.852 -0.0548 -0.1142 -0.1000
 1181PNCE   C3B10633   1.562   3.617   6.228  0.1067 -0.2049  0.2498
 1181PNCE   D4B10634   1.859   3.451   6.465 -0.2056  0.1973  0.0302
 1181PNCE   C5B10635   2.272   3.392   6.323 -0.0486 -0.1135 -0.0833
 1181PNCE   C6B10636   2.781   3.458   6.327 -0.3520  0.1003 -0.0655
 1182CHOL   ROH10637  15.189   1.034   4.524 -0.2483 -0.0415  0.0387
 1182CHOL    R110638  15.295   1.148   4.761 -0.1589 -0.0789  0.0166
 1182CHOL    R210639  15.170   1.355   4.895 -0.0432 -0.0177  0.0268
 1182CHOL    R310640  15.188   1.185   5.107 -0.0857 -0.0150  0.0331
 1182CHOL    R410641  15.139   1.448   5.227  0.0026  0.0094  0.0238
 1182CHOL    R510642  15.302   1.311   5.275 -0.0361 -0.0412  0.0215
 1182CHOL    C110643  15.138   1.342   5.618 -0.0106  0.0277  0.0281
 1182CHOL    C210644  15.122   1.479   5.894  0.0618 -0.1854  0.1707
 1183PNCE   AM110645   2.449   4.854   4.748  0.3891 -0.0384 -0.0480
 1183PNCE   AM210646   2.664   4.610   4.867 -0.0944 -0.0596  0.0571
 1183PNCE   T1A10647   2.142   4.556   5.037 -0.2282 -0.1354 -0.1162
 1183PNCE   C2A10648   1.729   4.560   5.283  0.0357 -0.2749  0.0689
 1183PNCE   C3A10649   1.266   4.583   5.399 -0.1458  0.2205 -0.2504
 1183PNCE   C1B10650   2.727   4.463   5.258 -0.1537  0.1093  0.1813
 1183PNCE   C2B10651   2.874   4.327   5.576  0.2213 -0.1021 -0.1251
 1183PNCE   C3B10652   3.083   4.332   6.093  0.2925  0.1790  0.0833
 1183PNCE   D4B10653   3.400   4.324   6.368 -0.1834  0.1706  0.2917
 1183PNCE   C5B10654   3.328   4.286   6.888 -0.3328  0.2336  0.1049
 1183PNCE   C6B10655   3.344   4.289   7.317 -0.0784 -0.0889  0.2027
 1184PNCE   AM110656   1.478   3.283   5.026  0.2296 -0.5564  0.2786
 1184PNCE   AM210657   1.236   3.575   5.263 -0.0508  0.0876  0.0262
 1184PNCE   T1A10658   1.670   2.952   5.244  0.0682  0.0006 -0.1074
 1184PNCE   C2A10659   1.587   2.637   5.630  0.0872 -0.2945  0.0055
 1184PNCE   C3A10660   1.433   2.549   6.010  0.0127  0.2757  0.2035
 1184PNCE   C1B10661   1.142   3.486   5.744  0.1445  0.2021  0.2142
 1184PNCE   C2B10662   1.081   3.359   6.186  0.3180 -0.1578  0.1056
 1184PNCE   C3B10663   1.194   3.384   6.598 -0.0685  0.0325  0.0723
 1184PNCE   D4B10664   1.496   3.614   6.738  0.0482 -0.1273 -0.3130
 1184PNCE   C5B10665   1.635   3.723   7.156 -0.4313 -0.0832  0.1092
 1184PNCE   C6B10666   1.605   3.806   7.627  0.1424 -0.0868  0.1005
 1185PNCE   AM110667  11.711  13.629   4.232  0.3128  0.1481 -0.2321
 1185PNCE   AM210668  11.944  13.743   4.045 -0.0100  0.0107  0.1249
 1185PNCE   T1A10669  11.550  13.400   4.689  0.0881 -0.2159 -0.0016
 1185PNCE   C2A10670  11.154  13.233   4.867 -0.0916 -0.0618 -0.0807
 1185PNCE   C3A10671  11.267  13.174   5.294 -0.1026  0.1864  0.0530
 1185PNCE   C1B10672  11.770  14.246   4.264 -0.1126 -0.0991  0.0982
 1185PNCE   C2B10673  11.824  14.491   4.638  0.0011  0.0504  0.1223
 1185PNCE   C3B10674  11.616  14.605   5.038  0.1758 -0.1596  0.4751
 1185PNCE   D4B10675  11.247  14.550   5.299 -0.0448  0.0937  0.0044
 1185PNCE   C5B10676  10.860  14.577   5.160 -0.1363  0.1804  0.2738
 1185PNCE   C6B10677  10.776  14.958   4.908 -0.1013  0.0484  0.1604
 1186XCA    COO10678   7.920  15.557   3.640  0.1890  0.1599  0.0103
 1186XCA     C110679   8.052  15.729   4.105  0.2750  0.1323 -0.0365
 1186XCA     C210680   8.152  15.824   4.499  0.0807 -0.2139  0.2390
 1186XCA     C310681   8.372  16.098   4.795  0.0013  0.2880 -0.0182
 1186XCA     C410682   8.456  16.528   4.955  0.3859  0.0266 -0.4585
 1186XCA     C510683   8.197  16.880   4.876 -0.1970  0.2226 -0.0949
 1186XCA     C610684   8.023  17.300   4.932  0.2244 -0.1586  0.0695
 1187CHOL   ROH10685   1.026  11.277   5.990  0.3208  0.2392 -0.0350
 1187CHOL    R110686   0.849  11.376   6.188  0.1731  0.1493 -0.1207
 1187CHOL    R210687   0.918  11.393   6.455 -0.0372 -0.0032 -0.0543
 1187CHOL    R310688   0.844  11.653   6.424  0.0145  0.0217  0.0286
 1187CHOL    R410689   0.868  11.616   6.714 -0.0365 -0.0904  0.0212
 1187CHOL    R510690   0.695  11.694   6.607 -0.0068 -0.0196  0.0217
 1187CHOL    C110691   0.769  11.989   6.836  0.0125 -0.1178  0.1430
 1187CHOL    C210692   0.536  12.246   6.990 -0.2958  0.2289  0.2060
 1188XCA    COO10693  10.393  10.094   9.112 -0.0313 -0.0829 -0.0666
 1188XCA     C110694  10.325  10.239   8.697  0.0731  0.0098  0.0031
 1188XCA     C210695  10.210  10.257   8.307  0.2609 -0.2759  0.1884
 1188XCA     C310696  10.008  10.089   7.972 -0.2389  0.0011 -0.1813
 1188XCA     C410697   9.726  10.310   7.557 -0.3492 -0.1760  0.2186
 1188XCA     C510698   9.458  10.202   7.333  0.1538  0.2911 -0.0400
 1188XCA     C610699   9.200  10.321   6.936  0.1061  0.0030 -0.2955
 1189XCA    COO10700  12.089   5.070   4.916  0.0994  0.0614 -0.2892
 1189XCA     C110701  11.905   4.876   5.207 -0.3374  0.0776 -0.1582
 1189XCA     C210702  11.764   4.555   5.546  0.2945  0.2269  0.0313
 1189XCA     C310703  11.810   4.361   5.933 -0.1725  0.1807  0.1440
 1189XCA     C410704  11.744   4.422   6.442 -0.0453  0.2140  0.0749
 1189XCA     C510705  11.981   4.442   6.858 -0.1835 -0.0300 -0.1000
 1189XCA     C610706  12.508   4.564   6.820 -0.0790  0.0788  0.3426
 1190PNCE   AM110707  11.863   1.416   4.626 -0.2634  0.0697  0.1659
 1190PNCE   AM210708  11.516   1.419   4.668  0.0878  0.2168  0.0062
 1190PNCE   T1A10709  11.871   1.424   5.171  0.3366  0.1314  0.5501
 1190PNCE   C2A10710  11.855   1.289   5.591 -0.0642 -0.0448  0.0832
 1190PNCE   C3A10711  11.560   1.119   5.858 -0.0085  0.0767 -0.0451
 1190PNCE   C1B10712  11.517   1.833   4.908  0.1309 -0.0276  0.1776
 1190PNCE   C2B10713  11.716   1.966   5.269 -0.2392  0.0238  0.0314
 1190PNCE   C3B10714  11.911   1.874   5.679 -0.0802 -0.1511  0.0920
 1190PNCE   D4B10715  12.214   1.683   5.860 -0.2736 -0.2024  0.0341
 1190PNCE   C5B10716  12.221   1.336   5.925 -0.1104 -0.1795  0.1281
 1190PNCE   C6B10717  12.534   1.104   6.214 -0.2740 -0.3782 -0.2136
 1191PNCE   AM110718  10.961   8.972   5.638  0.6163  0.0016  0.1042
 1191PNCE   AM210719  11.035   9.262   5.785  0.3861  0.1296 -0.1258
 1191PNCE   T1A10720  10.992   8.564   5.872 -0.2904  0.4050  0.2109
 1191PNCE   C2A10721  10.842   8.387   6.214  0.0716  0.0696  0.1412
 1191PNCE   C3A10722  10.448   8.228   6.478  0.1577  0.0371 -0.0152
 1191PNCE   C1B10723  11.104   9.320   6.257 -0.0097 -0.1217  0.2209
 1191PNCE   C2B10724  11.054   9.298   6.738  0.3452 -0.1074 -0.2358
 1191PNCE   C3B10725  11.369   9.384   7.111 -0.0444  0.2213  0.1191
 1191PNCE   D4B10726  11.424   9.520   7.515  0.0472 -0.1480 -0.0801
 1191PNCE   C5B10727  11.232   9.885   7.767  0.3303  0.0095  0.1509
 1191PNCE   C6B10728  10.848  10.093   7.598 -0.1540 -0.0072  0.3720
 1192CHOL   ROH10729   1.352  11.533   6.278  0.0693 -0.0301 -0.0521
 1192CHOL    R110730   1.379  11.628   6.543  0.0812 -0.0715 -0.0375
 1192CHOL    R210731   1.420  11.895   6.602  0.1367 -0.0834  0.0016
 1192CHOL    R310732   1.202  11.859   6.761  0.1222 -0.0630 -0.0155
 1192CHOL    R410733   1.342  12.088   6.878  0.0743 -0.0213 -0.0603
 1192CHOL    R510734   1.280  11.907   6.982  0.0830  0.0052 -0.0204
 1192CHOL    C110735   1.092  12.168   7.187  0.0243  0.0340 -0.1123
 1192CHOL    C210736   1.051  12.697   7.338  0.2358 -0.2038 -0.1310
 1193PNCE   AM110737   1.165  15.388   4.280 -0.0777  0.0873 -0.1063
 1193PNCE   AM210738   0.891  15.358   4.145  0.2995  0.1548 -0.1555
 1193PNCE   T1A10739   1.099  14.983   4.423  0.0639 -0.2178  0.3131
 1193PNCE   C2A10740   0.874  14.670   4.690  0.3424  0.1479 -0.4459
 1193PNCE   C3A10741   1.073  14.257   4.931  0.2830 -0.1395 -0.2868
 1193PNCE   C1B10742   0.853  15.675   4.559 -0.2094 -0.2453 -0.2319
 1193PNCE   C2B10743   1.236  15.520   4.747 -0.0155  0.0003  0.0059
 1193PNCE   C3B10744   1.684  15.585   4.817 -0.0558  0.1945 -0.1697
 1193PNCE   D4B10745   2.060  15.387   4.955  0.2749  0.2788 -0.2265
 1193PNCE   C5B10746   2.400  15.181   5.060  0.0958 -0.0665  0.1684
 1193PNCE   C6B10747   2.780  15.117   4.869 -0.0652 -0.0807 -0.1804
 1194CHOL   ROH10748   5.639  11.010   4.949 -0.0813 -0.1513  0.0032
 1194CHOL    R110749   5.755  11.045   5.205 -0.1296 -0.1309  0.0225
 1194CHOL    R210750   5.998  11.173   5.242 -0.1847 -0.0425  0.0679
 1194CHOL    R310751   5.854  11.326   5.414 -0.2640 -0.1130  0.0646
 1194CHOL    R410752   6.130  11.345   5.511 -0.2195  0.2300 -0.0869
 1194CHOL    R510753   5.955  11.287   5.628 -0.1038  0.0952  0.0337
 1194CHOL    C110754   6.072  11.590   5.829 -0.3143  0.3225 -0.1802
 1194CHOL    C210755   6.402  11.863   5.922  0.0729 -0.1839 -0.3281
 1195CHOL   ROH10756  12.804   6.984   9.019  0.1455 -0.2659 -0.1298
 1195CHOL    R110757  12.890   7.225   8.897  0.1019 -0.2231 -0.0685
 1195CHOL    R210758  13.157   7.295   8.880  0.0856 -0.2795 -0.2325
 1195CHOL    R310759  13.101   7.317   8.614 -0.0947 -0.1041 -0.1869
 1195CHOL    R410760  13.337   7.487   8.655 -0.0220 -0.1342 -0.2009
 1195CHOL    R510761  13.149   7.546   8.562 -0.1028 -0.0507 -0.0470
 1195CHOL    C110762  13.390   7.618   8.276 -0.2539  0.1150 -0.1397
 1195CHOL    C210763  13.462   7.970   8.167  0.0394 -0.1594  0.1069
 1196CHOL   ROH10764   7.622  14.357   4.573  0.1172  0.2216 -0.1482
 1196CHOL    R110765   7.765  14.273   4.803 -0.2809  0.0990  0.0654
 1196CHOL    R210766   8.027  14.351   4.852 -0.0925 -0.5425  0.1629
 1196CHOL    R310767   7.923  14.433   5.089 -0.0678  0.0279 -0.0096
 1196CHOL    R410768   8.208  14.401   5.142 -0.1555 -0.5236  0.1993
 1196CHOL    R510769   8.045  14.312   5.254 -0.4291 -0.0139  0.2394
 1196CHOL    C110770   8.216  14.508   5.533 -0.1691  0.0229  0.0586
 1196CHOL    C210771   8.373  14.474   5.885 -0.1404  0.1008 -0.2672
 1197CHOL   ROH10772   3.619   3.237   8.639  0.2117 -0.0814 -0.1071
 1197CHOL    R110773   3.657   3.469   8.481  0.3469  0.0108  0.0554
 1197CHOL    R210774   3.876   3.501   8.314  0.2156 -0.1380 -0.1590
 1197CHOL    R310775   3.684   3.545   8.126  0.0568  0.2795  0.0880
 1197CHOL    R410776   3.933   3.637   8.002  0.1240 -0.3587 -0.2732
 1197CHOL    R510777   3.749   3.751   8.023  0.4219  0.1016 -0.0476
 1197CHOL    C110778   3.787   3.758   7.644 -0.0784 -0.0952 -0.1080
 1197CHOL    C210779   3.729   3.884   7.295  0.1663  0.0093  0.1536
 1198PNCE   AM110780  12.770  15.387   4.560 -0.1119  0.0889  0.0818
 1198PNCE   AM210781  12.740  15.097   4.449 -0.1259 -0.2040 -0.4544
 1198PNCE   T1A10782  12.979  15.286   4.940 -0.0695  0.0451  0.0587
 1198PNCE   C2A10783  13.317  15.451   5.222  0.2839 -0.0194  0.0255
 1198PNCE   C3A10784  13.752  15.413   5.393  0.1878  0.0400  0.0756
 1198PNCE   C1B10785  12.477  15.053   4.899  0.1313 -0.0853 -0.1023
 1198PNCE   C2B10786  12.287  15.088   5.386 -0.2450 -0.0194 -0.0030
 1198PNCE   C3B10787  12.032  15.146   5.687  0.0436 -0.0428  0.3276
 1198PNCE   D4B10788  11.679  15.067   5.848 -0.0899 -0.2246  0.0061
 1198PNCE   C5B10789  11.442  15.062   5.484 -0.2498  0.0376  0.1076
 1198PNCE   C6B10790  11.267  15.058   5.129 -0.0017 -0.2500 -0.2424
 1199PNCE   AM110791   1.305  11.882   5.616 -0.3709 -0.1372 -0.0335
 1199PNCE   AM210792   1.266  11.589   5.740  0.2625 -0.0008  0.1774
 1199PNCE   T1A10793   1.722  11.918   5.904 -0.1486 -0.1568 -0.1458
 1199PNCE   C2A10794   1.772  11.965   6.327  0.1541  0.0300 -0.0735
 1199PNCE   C3A10795   1.751  12.173   6.776  0.0191 -0.0349  0.2542
 1199PNCE   C1B10796   1.166  11.878   6.067  0.1701 -0.3292  0.0531
 1199PNCE   C2B10797   1.043  12.071   6.374  0.3975  0.1711  0.1020
 1199PNCE   C3B10798   0.940  12.357   6.684 -0.2307 -0.2336  0.0293
 1199PNCE   D4B10799   0.879  12.745   6.836 -0.0286  0.0111 -0.1583
 1199PNCE   C5B10800   0.559  12.835   7.082  0.0017 -0.2438 -0.0293
 1199PNCE   C6B10801   0.468  13.091   7.511  0.0605  0.1255  0.0281
 1200CHOL   ROH10802   3.392  11.454   8.813 -0.0023  0.2083 -0.2175
 1200CHOL    R110803   3.573  11.382   8.607  0.0092  0.1170 -0.1745
 1200CHOL    R210804   3.526  11.439   8.341  0.0703  0.0829 -0.1883
 1200CHOL    R310805   3.771  11.555   8.356  0.1055  0.0103 -0.1747
 1200CHOL    R410806   3.751  11.460   8.079 -0.0075  0.2172 -0.2464
 1200CHOL    R510807   3.912  11.417   8.220  0.0280  0.0700 -0.3238
 1200CHOL    C110808   4.112  11.582   7.941 -0.0199  0.2270 -0.2675
 1200CHOL    C210809   4.092  11.645   7.578  0.0383 -0.0222 -0.1418
 1201CHOL   ROH10810  13.795   5.454   5.463  0.1074 -0.0644 -0.0219
 1201CHOL    R110811  13.629   5.426   5.691  0.0877  0.2801  0.0104
 1201CHOL    R210812  13.609   5.189   5.832 -0.4304  0.2923 -0.0322
 1201CHOL    R310813  13.675   5.347   6.043 -0.0116  0.1074 -0.0135
 1201CHOL    R410814  13.547   5.113   6.163 -0.3957  0.3016 -0.0223
 1201CHOL    R510815  13.493   5.321   6.196  0.0144  0.4033  0.0767
 1201CHOL    C110816  13.573   5.216   6.554  0.0176  0.1334  0.0009
 1201CHOL    C210817  13.497   4.901   6.687 -0.2296 -0.1926  0.1569
 1202XCA    COO10818   0.431   1.661   8.131 -0.3621 -0.1325  0.0763
 1202XCA     C110819   0.523   1.840   7.657 -0.0381  0.0872  0.3020
 1202XCA     C210820   0.628   1.906   7.193 -0.1554  0.0860 -0.0163
 1202XCA     C310821   0.764   1.905   6.883  0.4209 -0.1128 -0.2443
 1202XCA     C410822   0.541   1.741   6.476 -0.1751  0.2675 -0.0878
 1202XCA     C510823   0.454   1.720   5.973  0.0589  0.1051  0.0410
 1202XCA     C610824   0.744   1.818   5.664  0.4584 -0.0289  0.1048
 1203PNCE   AM110825   4.085   9.244   9.242  0.0812 -0.2228  0.1301
 1203PNCE   AM210826   4.094   9.513   9.292 -0.0947 -0.3661 -0.0633
 1203PNCE   T1A10827   3.889   9.373   8.826 -0.1498 -0.1025  0.0220
 1203PNCE   C2A10828   3.665   9.499   8.453  0.1828 -0.0097 -0.2067
 1203PNCE   C3A10829   3.655   9.377   7.989 -0.2930  0.0460  0.0543
 1203PNCE   C1B10830   3.662   9.420   9.246  0.1275 -0.1139 -0.0979
 1203PNCE   C2B10831   3.415   9.616   8.983 -0.2023  0.0717  0.1250
 1203PNCE   C3B10832   3.192   9.843   8.675  0.0532  0.0318 -0.1792
 1203PNCE   D4B10833   3.038   9.848   8.218 -0.2890 -0.1733 -0.2648
 1203PNCE   C5B10834   3.252   9.825   7.891 -0.2200  0.3602 -0.0179
 1203PNCE   C6B10835   3.323   9.482   7.629 -0.1477 -0.0998  0.0688
 1204CHOL   ROH10836   6.523   6.804   8.396 -0.3200  0.2009  0.2582
 1204CHOL    R110837   6.436   6.701   8.147 -0.0334  0.1833  0.1616
 1204CHOL    R210838   6.169   6.660   8.089  0.0576 -0.2682  0.0311
 1204CHOL    R310839   6.226   6.816   7.874 -0.1334 -0.0355  0.1444
 1204CHOL    R410840   5.988   6.665   7.794  0.0035 -0.2151  0.0649
 1204CHOL    R510841   6.175   6.678   7.685 -0.0245  0.0622  0.0418
 1204CHOL    C110842   5.936   6.815   7.421 -0.2075  0.0341  0.1910
 1204CHOL    C210843   5.554   6.724   7.334 -0.0329  0.0552  0.4619
 1205CHOL   ROH10844  12.312  14.431   4.560  0.0891  0.1474  0.0316
 1205CHOL    R110845  12.344  14.493   4.834  0.1085  0.0566  0.0511
 1205CHOL    R210846  12.132  14.503   5.010  0.1096  0.0705  0.0568
 1205CHOL    R310847  12.283  14.326   5.152  0.0559 -0.0192  0.0009
 1205CHOL    R410848  12.038  14.359   5.310  0.1581  0.1729  0.1204
 1205CHOL    R510849  12.243  14.385   5.381  0.2117  0.0361  0.0141
 1205CHOL    C110850  12.124  14.110   5.617  0.1359  0.1483  0.1050
 1205CHOL    C210851  11.995  14.252   5.880 -0.1731  0.1099  0.0457
 1206PNCE   AM110852  11.220  10.534   5.530 -0.0335 -0.0201  0.1053
 1206PNCE   AM210853  11.534  10.537   5.677  0.2199  0.1835 -0.3284
 1206PNCE   T1A10854  11.140  10.617   5.916 -0.2771 -0.1522  0.0383
 1206PNCE   C2A10855  10.981  10.461   6.319  0.2815 -0.2120  0.2292
 1206PNCE   C3A10856  11.006  10.295   6.784 -0.2385 -0.0164  0.1029
 1206PNCE   C1B10857  11.574  10.554   6.111 -0.0276  0.1599  0.0903
 1206PNCE   C2B10858  11.466  10.465   6.399 -0.3370 -0.0050 -0.2464
 1206PNCE   C3B10859  11.574  10.277   6.810  0.0212 -0.2116 -0.0805
 1206PNCE   D4B10860  11.709  10.313   7.196 -0.1398  0.2123  0.2651
 1206PNCE   C5B10861  11.709   9.923   7.473 -0.0732 -0.2453 -0.0538
 1206PNCE   C6B10862  11.849   9.625   7.828  0.3606 -0.5022  0.0051
 1207CHOL   ROH10863   0.890   7.368   5.540  0.0491  0.0972 -0.0114
 1207CHOL    R110864   0.960   7.404   5.812  0.1746  0.0894 -0.0420
 1207CHOL    R210865   1.166   7.570   5.892  0.0844  0.2414 -0.1216
 1207CHOL    R310866   0.973   7.682   6.047  0.0783  0.0454  0.0165
 1207CHOL    R410867   1.225   7.766   6.170  0.0859  0.2413 -0.1219
 1207CHOL    R510868   1.058   7.666   6.270  0.2299  0.0769 -0.0373
 1207CHOL    C110869   1.077   7.985   6.478  0.0811  0.0572  0.0076
 1207CHOL    C210870   1.017   8.294   6.655  0.1990  0.0282 -0.1743
 1208PNCE   AM110871  11.775  12.330   4.494 -0.0267 -0.0964  0.0476
 1208PNCE   AM210872  11.585  12.188   4.663 -0.0300 -0.0553  0.0129
 1208PNCE   T1A10873  12.074  12.446   4.773 -0.0729 -0.1781  0.0168
 1208PNCE   C2A10874  12.286  12.599   5.210  0.1873 -0.2560 -0.1705
 1208PNCE   C3A10875  12.252  12.993   5.510 -0.2347 -0.5053 -0.3334
 1208PNCE   C1B10876  11.448  12.471   5.008  0.0810 -0.2494 -0.5007
 1208PNCE   C2B10877  11.156  12.696   5.301  0.0137  0.0544  0.0639
 1208PNCE   C3B10878  10.809  12.804   5.539  0.0641  0.3336  0.0326
 1208PNCE   D4B10879  10.559  12.851   5.873 -0.0919 -0.0808 -0.0060
 1208PNCE   C5B10880  10.570  12.890   6.314 -0.1870  0.2762 -0.0125
 1208PNCE   C6B10881  10.772  13.018   6.709  0.0502  0.1634  0.0984
 1209XCA    COO10882  12.520  12.142   4.900  0.1267  0.2056  0.2368
 1209XCA     C110883  12.380  12.140   5.478  0.2597  0.3754  0.2390
 1209XCA     C210884  12.370  12.211   5.910 -0.1339 -0.1199  0.0034
 1209XCA     C310885  12.451  12.428   6.387 -0.0724  0.1408  0.2255
 1209XCA     C410886  12.615  12.573   6.745 -0.4030 -0.0974  0.0654
 1209XCA     C510887  12.405  12.779   7.120 -0.0821 -0.1779 -0.1403
 1209XCA     C610888  12.464  12.713   7.609  0.0918 -0.1121 -0.0247
 1210PNCE   AM110889  14.644   6.796   5.467 -0.0648 -0.0152 -0.0697
 1210PNCE   AM210890  14.692   6.483   5.303 -0.2777  0.2711  0.2894
 1210PNCE   T1A10891  14.587   6.723   5.923  0.3381 -0.0130 -0.2175
 1210PNCE   C2A10892  14.334   6.675   6.266  0.0486  0.2207 -0.0464
 1210PNCE   C3A10893  14.065   6.732   6.599 -0.1406 -0.1602  0.1387
 1210PNCE   C1B10894  14.820   6.190   5.636 -0.1693 -0.3071  0.2658
 1210PNCE   C2B10895  15.065   6.182   6.020  0.2466 -0.0734  0.1450
 1210PNCE   C3B10896  14.882   5.977   6.467 -0.1688  0.2634 -0.2654
 1210PNCE   D4B10897  14.614   5.747   6.582 -0.0576  0.2227  0.1992
 1210PNCE   C5B10898  14.421   5.823   6.960 -0.0191  0.2955 -0.0441
 1210PNCE   C6B10899  14.483   5.868   7.419  0.3188  0.0957 -0.1534
 1211PNCE   AM110900   9.171   9.112   5.157 -0.3939 -0.0406  0.0864
 1211PNCE   AM210901   9.461   9.313   5.130 -0.1957  0.0223  0.1725
 1211PNCE   T1A10902   9.013   9.358   5.433 -0.2790  0.0869  0.2007
 1211PNCE   C2A10903   9.006   9.490   5.887  0.1132 -0.0428 -0.2967
 1211PNCE   C3A10904   8.773   9.890   6.058 -0.2747  0.1069  0.0555
 1211PNCE   C1B10905   9.382   9.042   5.590  0.2570 -0.0216  0.2807
 1211PNCE   C2B10906   9.247   8.894   5.970  0.0532 -0.0195 -0.0800
 1211PNCE   C3B10907   8.970   8.523   6.091 -0.1546  0.0575 -0.2760
 1211PNCE   D4B10908   8.902   8.017   6.069 -0.0085 -0.0673  0.0679
 1211PNCE   C5B10909   8.808   8.090   6.408  0.1227  0.0247 -0.1666
 1211PNCE   C6B10910   9.015   8.161   6.802  0.0337 -0.0119 -0.2345
 1212CHOL   ROH10911   1.228  13.131   5.083  0.0086  0.3245 -0.1272
 1212CHOL    R110912   1.112  13.285   5.290 -0.0392  0.2519 -0.1000
 1212CHOL    R210913   1.007  13.172   5.519  0.0067  0.1804 -0.1170
 1212CHOL    R310914   1.176  13.345   5.643 -0.0518  0.2202 -0.0915
 1212CHOL    R410915   0.922  13.376   5.784 -0.0095 -0.0597  0.0665
 1212CHOL    R510916   1.040  13.535   5.694 -0.1689  0.0903  0.1066
 1212CHOL    C110917   1.031  13.658   6.055 -0.0739 -0.1622  0.1974
 1212CHOL    C210918   0.933  13.841   6.409 -0.0257 -0.2150  0.0920
 1213PNCE   AM110919   8.911   1.943   4.431  0.1053 -0.0027  0.0959
 1213PNCE   AM210920   8.747   2.283   4.274  0.1183  0.0338  0.0046
 1213PNCE   T1A10921   8.457   1.816   4.394  0.1071 -0.0459 -0.0353
 1213PNCE   C2A10922   8.105   1.842   4.566  0.1406  0.0052  0.0556
 1213PNCE   C3A10923   7.879   2.169   4.753  0.0878 -0.1920 -0.0862
 1213PNCE   C1B10924   8.864   2.487   4.637 -0.0452 -0.1647  0.3452
 1213PNCE   C2B10925   8.539   2.644   4.856  0.3765  0.1041  0.3096
 1213PNCE   C3B10926   8.658   2.593   5.226  0.1213  0.0532 -0.0603
 1213PNCE   D4B10927   9.089   2.508   5.539  0.2343  0.0049  0.1002
 1213PNCE   C5B10928   9.179   2.603   5.924  0.1529  0.1815  0.0736
 1213PNCE   C6B10929   8.959   2.716   6.294  0.1163 -0.0345  0.2224
 1214PNCE   AM110930  10.157   5.065   4.331 -0.0907  0.1071  0.0717
 1214PNCE   AM210931  10.199   5.148   4.553  0.0534  0.1311 -0.0146
 1214PNCE   T1A10932   9.726   5.103   4.566  0.1079 -0.4310 -0.2282
 1214PNCE   C2A10933   9.597   5.109   4.974 -0.2530 -0.0610  0.1928
 1214PNCE   C3A10934   9.578   4.913   5.208  0.1827  0.2895 -0.0379
 1214PNCE   C1B10935  10.103   5.131   5.015  0.0428  0.2350 -0.0948
 1214PNCE   C2B10936  10.082   5.094   5.455 -0.0313 -0.2254  0.2395
 1214PNCE   C3B10937   9.813   4.977   5.723  0.1285 -0.0168  0.1396
 1214PNCE   D4B10938   9.674   4.930   6.027  0.0005 -0.0674 -0.2138
 1214PNCE   C5B10939   9.875   5.092   6.473  0.3608 -0.0755 -0.0717
 1214PNCE   C6B10940  10.086   5.211   6.806  0.0394 -0.1742 -0.1295
 1215XCA    COO10941   6.152   7.460   4.765  0.0193  0.2208  0.2199
 1215XCA     C110942   6.179   7.408   5.295  0.0387  0.1620  0.2198
 1215XCA     C210943   6.171   7.574   5.643 -0.1922 -0.0272 -0.0557
 1215XCA     C310944   6.340   7.544   6.009 -0.1920  0.1830 -0.1653
 1215XCA     C410945   6.640   7.653   6.369 -0.3639 -0.0447 -0.3676
 1215XCA     C510946   6.854   7.931   6.458 -0.0610 -0.1638  0.1526
 1215XCA     C610947   7.200   7.863   6.700 -0.4593  0.5582  0.1663
 1216CHOL   ROH10948  11.741   4.929   6.886 -0.1195  0.3414 -0.2942
 1216CHOL    R110949  11.951   5.008   7.058 -0.2051  0.0974 -0.0698
 1216CHOL    R210950  12.168   5.155   6.970  0.0334 -0.0944  0.1704
 1216CHOL    R310951  12.095   5.322   7.172 -0.0045 -0.0666  0.1332
 1216CHOL    R410952  12.381   5.374   7.131 -0.0347  0.0341  0.0870
 1216CHOL    R510953  12.285   5.322   7.319  0.0107  0.0494  0.1104
 1216CHOL    C110954  12.438   5.658   7.414 -0.1100  0.1351  0.0034
 1216CHOL    C210955  12.558   5.730   7.827  0.0053  0.1287 -0.0799
 1217CHOL   ROH10956  14.237   4.580   7.628 -0.0164  0.1078 -0.0303
 1217CHOL    R110957  13.996   4.728   7.648 -0.0031  0.1268 -0.0134
 1217CHOL    R210958  13.839   4.726   7.875 -0.0342  0.0658 -0.0369
 1217CHOL    R310959  13.867   4.996   7.858 -0.0045  0.0694  0.0602
 1217CHOL    R410960  13.581   4.948   7.815 -0.0189  0.1176  0.0838
 1217CHOL    R510961  13.715   5.061   7.685 -0.0235  0.1512  0.1052
 1217CHOL    C110962  13.457   5.331   7.763  0.0181  0.1512  0.2452
 1217CHOL    C210963  13.482   5.688   7.864  0.0370 -0.1765 -0.0804
 1218CHOL   ROH10964   2.090   4.768   5.405 -0.0366 -0.1264 -0.1333
 1218CHOL    R110965   2.157   4.574   5.599 -0.0975  0.0668  0.0852
 1218CHOL    R210966   2.401   4.444   5.602 -0.2602 -0.2485  0.0207
 1218CHOL    R310967   2.410   4.535   5.858  0.1158  0.1205 -0.1121
 1218CHOL    R410968   2.547   4.276   5.866 -0.2617 -0.0800  0.1302
 1218CHOL    R510969   2.381   4.339   5.992 -0.0554  0.3543  0.2055
 1218CHOL    C110970   2.641   4.264   6.261  0.0903  0.3644  0.0694
 1218CHOL    C210971   2.831   4.217   6.537 -0.1323  0.2135 -0.0941
 1219CHOL   ROH10972   7.491   8.960   6.657 -0.1268  0.2631 -0.0698
 1219CHOL    R110973   7.454   8.869   6.391 -0.2028  0.1247 -0.0126
 1219CHOL    R210974   7.600   8.661   6.283 -0.1747  0.1249  0.0280
 1219CHOL    R310975   7.353   8.559   6.229 -0.1616  0.0126  0.1730
 1219CHOL    R410976   7.526   8.448   6.020 -0.2420  0.1373  0.0362
 1219CHOL    R510977   7.340   8.557   5.990 -0.3185  0.0517  0.1794
 1219CHOL    C110978   7.253   8.229   5.817 -0.2688  0.0390  0.1771
 1219CHOL    C210979   7.119   8.016   5.606 -0.0068  0.4479 -0.0194
 1220XCA    COO10980   7.915   5.163   4.451 -0.0121 -0.0040  0.0123
 1220XCA     C110981   8.013   5.104   4.873 -0.1309  0.1694 -0.0132
 1220XCA     C210982   7.984   5.146   5.248 -0.2726  0.3638 -0.0831
 1220XCA     C310983   7.984   5.439   5.573 -0.1100 -0.1219  0.0634
 1220XCA     C410984   7.685   5.443   5.714 -0.0950  0.2107 -0.3353
 1220XCA     C510985   7.489   5.686   6.127 -0.0427  0.1789  0.0537
 1220XCA     C610986   7.310   6.095   6.146 -0.5055 -0.1400 -0.1005
 1221CHOL   ROH10987  15.396   7.228   5.812  0.1047 -0.1627  0.1261
 1221CHOL    R110988  15.306   7.049   6.012 -0.2150 -0.0823  0.0620
 1221CHOL    R210989  15.456   6.987   6.236 -0.2094 -0.6079 -0.0641
 1221CHOL    R310990  15.232   7.065   6.368  0.0548 -0.1259  0.1198
 1221CHOL    R410991  15.335   6.841   6.525 -0.2528 -0.2826  0.0846
 1221CHOL    R510992  15.134   6.862   6.445 -0.2860  0.0911  0.2643
 1221CHOL    C110993  15.054   6.830   6.817 -0.0301  0.3592  0.3439
 1221CHOL    C210994  14.904   6.603   7.193 -0.2582  0.0886  0.0592
 1222PNCE   AM110995   0.838  10.850   5.382 -0.1813  0.0236 -0.0366
 1222PNCE   AM210996   1.042  10.989   5.615  0.1206  0.2264 -0.1326
 1222PNCE   T1A10997   0.880  10.598   5.829  0.1572  0.0082 -0.4126
 1222PNCE   C2A10998   0.914  10.533   6.288 -0.3602  0.2086 -0.1547
 1222PNCE   C3A10999   0.728  10.503   6.604  0.0172  0.2728  0.1136
 1222PNCE   C1B11000   0.702  10.961   6.137 -0.0661  0.2164 -0.1308
 1222PNCE   C2B11001   0.500  11.168   6.422 -0.0856 -0.1655 -0.0525
 1222PNCE   C3B11002   0.361  11.398   6.821  0.2173  0.2245 -0.2106
 1222PNCE   D4B11003   0.317  11.757   7.019  0.0903  0.1243 -0.0649
 1222PNCE   C5B11004   0.275  11.960   6.652  0.0904  0.0615 -0.2422
 1222PNCE   C6B11005   0.481  11.878   6.261 -0.0280 -0.3783 -0.0447
 1223PNCE   AM111006   7.311  14.611   4.338 -0.3494  0.0266  0.1887
 1223PNCE   AM211007   7.627  14.752   4.343  0.1099  0.2088  0.2910
 1223PNCE   T1A11008   7.009  14.553   4.583 -0.4064  0.0346 -0.3670
 1223PNCE   C2A11009   6.793  14.239   4.891 -0.2163  0.2097 -0.1497
 1223PNCE   C3A11010   6.541  13.823   4.978 -0.0459 -0.2636  0.0208
 1223PNCE   C1B11011   7.655  15.090   4.524 -0.1042 -0.2763 -0.1091
 1223PNCE   C2B11012   7.691  15.254   4.949 -0.0809 -0.0823 -0.0127
 1223PNCE   C3B11013   7.533  15.610   5.290 -0.1495  0.2082  0.1096
 1223PNCE   D4B11014   7.599  15.710   5.714  0.0808 -0.1260 -0.0086
 1223PNCE   C5B11015   7.627  16.105   5.851  0.1998  0.1636  0.1086
 1223PNCE   C6B11016   7.806  16.446   5.644 -0.0963  0.1776  0.0966
 1224PNCE   AM111017   8.433  14.053   4.312  0.0316 -0.1819  0.0865
 1224PNCE   AM211018   8.482  14.385   4.467  0.0816 -0.1069  0.1312
 1224PNCE   T1A11019   8.165  13.979   4.636  0.0475 -0.0320 -0.0642
 1224PNCE   C2A11020   8.090  13.876   4.990 -0.1174  0.0051 -0.0439
 1224PNCE   C3A11021   7.991  13.837   5.367  0.0445 -0.1857  0.1326
 1224PNCE   C1B11022   8.542  14.302   4.865  0.1742 -0.6659  0.2436
 1224PNCE   C2B11023   8.442  14.064   5.318 -0.0167  0.0392 -0.2331
 1224PNCE   C3B11024   8.264  14.046   5.676  0.1492  0.2657 -0.2592
 1224PNCE   D4B11025   8.305  14.041   6.159  0.2076 -0.0922  0.0854
 1224PNCE   C5B11026   8.149  13.684   6.414 -0.0471  0.0793  0.0622
 1224PNCE   C6B11027   7.812  13.456   6.512 -0.0268 -0.0859 -0.1408
 1225XCA    COO11028   3.607   5.049   4.774 -0.2302 -0.2444 -0.3170
 1225XCA     C111029   3.628   4.743   5.143  0.2197 -0.2576  0.1273
 1225XCA     C211030   3.777   4.614   5.500  0.2351 -0.1762  0.1213
 1225XCA     C311031   3.773   4.325   5.820 -0.1990  0.1239 -0.2017
 1225XCA     C411032   3.766   4.116   6.184  0.0826  0.1473 -0.0571
 1225XCA     C511033   3.667   3.929   6.631  0.0773 -0.1515 -0.0886
 1225XCA     C611034   3.429   3.474   6.668  0.0125  0.0364  0.1335
 1226CHOL   ROH11035  13.115   9.262   7.933  0.1917 -0.3427 -0.0594
 1226CHOL    R111036  13.234   9.450   7.757  0.0029 -0.2359 -0.0748
 1226CHOL    R211037  13.289   9.391   7.493 -0.0448 -0.1623 -0.0983
 1226CHOL    R311038  13.142   9.615   7.446 -0.2156 -0.2555 -0.0235
 1226CHOL    R411039  13.282   9.563   7.193  0.0357  0.0787  0.0346
 1226CHOL    R511040  13.283   9.750   7.306 -0.2234 -0.0084  0.1950
 1226CHOL    C111041  13.140   9.874   6.975 -0.0778  0.1314  0.1824
 1226CHOL    C211042  12.916   9.907   6.624  0.3818  0.0139 -0.0349
 1227CHOL   ROH11043  11.044   6.229   4.919 -0.2082  0.1115  0.1751
 1227CHOL    R111044  11.090   6.016   5.100 -0.1290  0.0864  0.1253
 1227CHOL    R211045  11.282   6.030   5.299 -0.0143  0.0425  0.0174
 1227CHOL    R311046  11.072   5.966   5.460  0.0712  0.0477  0.1317
 1227CHOL    R411047  11.305   5.977   5.640  0.1929 -0.0649 -0.0114
 1227CHOL    R511048  11.164   5.811   5.618  0.1355 -0.0241  0.0271
 1227CHOL    C111049  11.121   5.887   5.990  0.3938 -0.1225  0.0791
 1227CHOL    C211050  11.103   5.861   6.334  0.0930  0.0224 -0.0868
 1228XCA    COO11051   5.579  15.624   6.647  0.0092  0.2085  0.0963
 1228XCA     C111052   5.684  15.956   6.323  0.2492 -0.2137  0.0248
 1228XCA     C211053   5.434  16.037   5.928  0.0954 -0.0318  0.1134
 1228XCA     C311054   5.172  15.899   5.563  0.0552 -0.0401  0.1006
 1228XCA     C411055   5.252  15.829   5.173  0.0007  0.3718  0.0206
 1228XCA     C511056   5.016  15.999   4.837 -0.0042  0.2346 -0.1799
 1228XCA     C611057   4.641  16.156   4.838  0.1462  0.2445  0.2993
 1229CHOL   ROH11058   9.724  14.123   4.513  0.2385 -0.0412 -0.0576
 1229CHOL    R111059   9.874  14.253   4.715  0.0413 -0.0675  0.1070
 1229CHOL    R211060   9.929  14.524   4.709  0.1690 -0.1001  0.1158
 1229CHOL    R311061   9.817  14.519   4.957 -0.1446  0.0098 -0.0156
 1229CHOL    R411062   9.956  14.776   4.944  0.3731 -0.2254  0.2312
 1229CHOL    R511063   9.980  14.624   5.098 -0.0955 -0.3423  0.2163
 1229CHOL    C111064   9.868  14.919   5.313  0.1975 -0.1952  0.1751
 1229CHOL    C211065   9.847  15.227   5.661  0.3720 -0.0380 -0.0347
 1230CHOL   ROH11066   5.654  13.324   8.126 -0.0551  0.0726 -0.1244
 1230CHOL    R111067   5.489  13.102   8.063 -0.0788  0.0963 -0.1473
 1230CHOL    R211068   5.443  13.020   7.804  0.0215  0.0448 -0.1503
 1230CHOL    R311069   5.530  12.780   7.899 -0.0774  0.0474 -0.0515
 1230CHOL    R411070   5.355  12.712   7.673  0.0944  0.0372 -0.1813
 1230CHOL    R511071   5.341  12.635   7.877 -0.0746  0.0638 -0.1833
 1230CHOL    C111072   5.386  12.308   7.686  0.0439  0.0353 -0.1065
 1230CHOL    C211073   5.357  11.913   7.652 -0.3282 -0.1752  0.2672
 1231CHOL   ROH11074   0.685  11.909   9.070  0.0637  0.1187 -0.0206
 1231CHOL    R111075   0.885  11.762   8.934  0.0779  0.1003  0.0185
 1231CHOL    R211076   0.825  11.552   8.764  0.1012  0.0033  0.1259
 1231CHOL    R311077   0.975  11.695   8.588  0.0390 -0.0442  0.0355
 1231CHOL    R411078   0.977  11.421   8.483  0.2022 -0.1276  0.2408
 1231CHOL    R511079   1.151  11.546   8.525  0.1292  0.0036  0.1678
 1231CHOL    C111080   1.206  11.480   8.153  0.2027 -0.2482  0.2229
 1231CHOL    C211081   1.142  11.172   7.955 -0.0233  0.1728 -0.0212
 1232XCA    COO11082  13.502   4.490   5.290  0.0690 -0.1391 -0.3208
 1232XCA     C111083  13.631   4.271   5.683 -0.2080 -0.0398 -0.2789
 1232XCA     C211084  13.794   3.964   6.071  0.0727  0.0857  0.2471
 1232XCA     C311085  13.859   3.931   6.391  0.1453  0.2696 -0.1786
 1232XCA     C411086  14.252   3.716   6.556  0.0200  0.0272 -0.2563
 1232XCA     C511087  14.526   3.335   6.420 -0.2157  0.0475 -0.0957
 1232XCA     C611088  14.544   2.869   6.588  0.1680  0.2006 -0.3010
 1233PNCE   AM111089   3.989   2.065   4.154 -0.1914  0.0377 -0.0265
 1233PNCE   AM211090   3.676   2.049   4.470 -0.0709 -0.0186  0.4096
 1233PNCE   T1A11091   4.269   2.007   4.537 -0.1855 -0.0321 -0.1217
 1233PNCE   C2A11092   4.278   2.040   5.027 -0.1304 -0.1864  0.1504
 1233PNCE   C3A11093   4.247   1.701   5.348 -0.1808 -0.1212  0.2632
 1233PNCE   C1B11094   3.609   1.878   4.873  0.0325  0.1326  0.1948
 1233PNCE   C2B11095   3.499   1.786   5.400  0.0392  0.1157 -0.1360
 1233PNCE   C3B11096   3.754   1.625   5.691 -0.1662  0.2397  0.1074
 1233PNCE   D4B11097   4.077   1.350   5.716  0.2788  0.3613  0.2566
 1233PNCE   C5B11098   4.196   1.068   5.826 -0.0086  0.2015  0.0051
 1233PNCE   C6B11099   4.305   0.906   6.110 -0.1086 -0.1137  0.1864
 1234PNCE   AM111100  13.951   4.231   5.320  0.1746 -0.2716 -0.3058
 1234PNCE   AM211101  14.014   4.583   5.586  0.0975 -0.1924  0.2571
 1234PNCE   T1A11102  13.860   3.848   5.516 -0.2406 -0.1730 -0.0715
 1234PNCE   C2A11103  13.798   3.498   5.770 -0.1180 -0.1008  0.1745
 1234PNCE   C3A11104  13.843   3.462   6.211 -0.1111  0.0198  0.3744
 1234PNCE   C1B11105  14.239   4.478   5.836  0.0999 -0.1588 -0.0946
 1234PNCE   C2B11106  14.234   4.250   6.173 -0.2967 -0.3092 -0.1167
 1234PNCE   C3B11107  14.307   4.266   6.537  0.1779  0.0064 -0.0672
 1234PNCE   D4B11108  14.573   4.505   6.820  0.2405  0.1045 -0.2928
 1234PNCE   C5B11109  15.085   4.425   6.754  0.2109  0.1385  0.1733
 1234PNCE   C6B11110  15.447   4.662   6.562 -0.3885 -0.2040  0.0461
 1235PNCE   AM111111  15.778   9.087   5.706 -0.3177  0.3510  0.2429
 1235PNCE   AM211112  15.935   9.313   5.865 -0.0276  0.2654  0.2352
 1235PNCE   T1A11113  15.525   9.009   6.078 -0.2857  0.3342  0.0585
 1235PNCE   C2A11114  15.251   9.005   6.503  0.0021  0.1611  0.0067
 1235PNCE   C3A11115  15.342   9.047   6.873  0.1370 -0.0694 -0.1773
 1235PNCE   C1B11116  15.746   9.321   6.400  0.0021 -0.2101 -0.0008
 1235PNCE   C2B11117  15.750   9.355   6.866  0.0150 -0.0290 -0.2353
 1235PNCE   C3B11118  15.616   9.216   7.328  0.0280  0.0389  0.1078
 1235PNCE   D4B11119  15.499   8.961   7.664 -0.3831  0.0108  0.1426
 1235PNCE   C5B11120  15.102   9.322   7.880  0.0071  0.1501  0.1392
 1235PNCE   C6B11121  15.043   9.690   7.871  0.0129 -0.0648 -0.0551
 1236PNCE   AM111122   0.880   1.320   3.363  0.1737  0.2952  0.0027
 1236PNCE   AM211123   1.093   1.327   3.711  0.2727  0.0973  0.1825
 1236PNCE   T1A11124   0.657   1.065   3.695  0.1065  0.2494  0.3179
 1236PNCE   C2A11125   0.423   1.150   4.112  0.0977 -0.1615 -0.1216
 1236PNCE   C3A11126   0.322   1.337   4.495 -0.2198 -0.1047  0.0428
 1236PNCE   C1B11127   0.978   1.115   4.042 -0.0905  0.0529  0.0625
 1236PNCE   C2B11128   0.875   1.078   4.465  0.0098  0.0143  0.1189
 1236PNCE   C3B11129   0.624   1.266   4.898 -0.1823 -0.0476 -0.2049
 1236PNCE   D4B11130   0.533   1.287   5.277  0.2566  0.1685  0.0555
 1236PNCE   C5B11131   0.677   1.290   5.648 -0.4308 -0.1404  0.0271
 1236PNCE   C6B11132   0.793   1.406   6.091  0.0705 -0.2102  0.0672
 1237CHOL   ROH11133   3.602  11.439   7.730  0.0551 -0.1785 -0.0325
 1237CHOL    R111134   3.488  11.301   7.511  0.0622 -0.1479 -0.0555
 1237CHOL    R211135   3.418  11.428   7.276 -0.0328 -0.0948  0.0003
 1237CHOL    R311136   3.576  11.238   7.164  0.0162  0.0013 -0.0949
 1237CHOL    R411137   3.424  11.350   6.939 -0.1634 -0.0694 -0.0086
 1237CHOL    R511138   3.439  11.139   6.994 -0.0168 -0.0644 -0.0300
 1237CHOL    C111139   3.576  11.126   6.638 -0.1934  0.0357 -0.1031
 1237CHOL    C211140   3.642  11.295   6.305 -0.0426  0.2930  0.1804
 1238XCA    COO11141   6.232   6.502   4.837  0.1285  0.3580  0.1775
 1238XCA     C111142   6.433   6.294   5.088  0.2458  0.0613  0.1919
 1238XCA     C211143   6.452   6.156   5.461  0.1861  0.0938 -0.1067
 1238XCA     C311144   6.471   6.105   5.955 -0.0840 -0.0278 -0.1646
 1238XCA     C411145   6.191   6.146   6.314 -0.0143 -0.0840 -0.1706
 1238XCA     C511146   6.089   6.411   6.637 -0.0544 -0.0895  0.0834
 1238XCA     C611147   5.775   6.665   6.815 -0.0862 -0.2554 -0.0824
 1239XCA    COO11148  11.562   4.755   4.910  0.2114  0.1904  0.3436
 1239XCA     C111149  11.344   4.477   5.271 -0.0848  0.0968  0.0289
 1239XCA     C211150  11.290   4.399   5.733 -0.2865 -0.1757 -0.1215
 1239XCA     C311151  11.395   4.168   6.111 -0.0667 -0.1581  0.0212
 1239XCA     C411152  11.599   3.805   6.222  0.1664  0.2249 -0.2624
 1239XCA     C511153  11.817   3.492   6.328 -0.1283  0.0676 -0.1833
 1239XCA     C611154  11.766   2.919   6.250 -0.0380 -0.1394 -0.0081
 1240PNCE   AM111155   1.654  15.376   4.088  0.0365  0.0679  0.1785
 1240PNCE   AM211156   1.658  15.191   4.319 -0.1295 -0.0258 -0.0562
 1240PNCE   T1A11157   1.590  15.767   4.345 -0.3152 -0.0445 -0.2300
 1240PNCE   C2A11158   1.216  15.983   4.378  0.1282  0.1531  0.0502
 1240PNCE   C3A11159   0.711  15.973   4.193 -0.0600  0.0125  0.2433
 1240PNCE   C1B11160   1.527  15.043   4.718  0.2229  0.0086 -0.0901
 1240PNCE   C2B11161   1.598  15.178   5.200 -0.4224 -0.0611  0.1166
 1240PNCE   C3B11162   1.740  15.514   5.480 -0.2824  0.2784  0.3597
 1240PNCE   D4B11163   1.746  15.750   5.853  0.1260 -0.1037  0.0643
 1240PNCE   C5B11164   1.586  15.536   6.250 -0.0503 -0.0938  0.2746
 1240PNCE   C6B11165   1.758  15.385   6.721  0.0751  0.4024 -0.0542
 1241CHOL   ROH11166  14.617  14.685   5.068  0.1504 -0.2320 -0.0436
 1241CHOL    R111167  14.714  14.773   5.319 -0.1134 -0.0729  0.0067
 1241CHOL    R211168  14.546  14.840   5.528 -0.3329 -0.2199 -0.1134
 1241CHOL    R311169  14.695  14.658   5.664 -0.2149 -0.0300  0.0143
 1241CHOL    R411170  14.576  14.827   5.872 -0.3684 -0.0103 -0.1013
 1241CHOL    R511171  14.788  14.782   5.846 -0.3350  0.1370 -0.0413
 1241CHOL    C111172  14.734  14.649   6.200 -0.2782  0.2899  0.0256
 1241CHOL    C211173  14.658  14.654   6.573  0.0847  0.1733  0.2173
 1242PNCE   AM111174   2.751  14.198   4.730  0.1029  0.3563  0.1880
 1242PNCE   AM211175   2.581  14.074   4.995  0.0230 -0.1601 -0.0644
 1242PNCE   T1A11176   3.015  14.473   4.868 -0.1086  0.2375  0.0331
 1242PNCE   C2A11177   3.038  14.718   5.223 -0.1573 -0.0054  0.2001
 1242PNCE   C3A11178   2.807  15.156   5.365  0.0487 -0.0914  0.1502
 1242PNCE   C1B11179   2.893  14.257   5.281 -0.0715  0.1606 -0.1108
 1242PNCE   C2B11180   3.130  14.396   5.625  0.2117  0.0510  0.0344
 1242PNCE   C3B11181   3.333  14.765   5.672  0.1847 -0.0777  0.0604
 1242PNCE   D4B11182   3.721  15.143   5.681  0.0075  0.2406 -0.2802
 1242PNCE   C5B11183   3.937  15.117   5.265 -0.1684 -0.1483 -0.0171
 1242PNCE   C6B11184   4.042  15.373   5.094 -0.2317 -0.1102  0.0843
 1243XCA    COO11185   6.665   7.462   4.552 -0.2311  0.3621 -0.3063
 1243XCA     C111186   6.627   7.307   4.984  0.0778 -0.0092  0.0904
 1243XCA     C211187   6.884   7.196   5.328 -0.0485 -0.0123  0.0511
 1243XCA     C311188   7.041   6.972   5.675  0.1701 -0.1705 -0.0673
 1243XCA     C411189   6.977   6.927   6.146 -0.0132 -0.0092 -0.0691
 1243XCA     C511190   6.942   6.755   6.554 -0.1336 -0.1494 -0.0944
 1243XCA     C611191   7.166   6.694   6.885  0.2606 -0.0056  0.1420
 1244PNCE   AM111192  14.174  13.700   4.802 -0.0462  0.0434 -0.1069
 1244PNCE   AM211193  13.888  13.692   4.925 -0.1552  0.0710 -0.0013
 1244PNCE   T1A11194  14.281  13.856   5.261  0.0857 -0.2597  0.1042
 1244PNCE   C2A11195  14.533  13.956   5.615  0.0494  0.1671  0.0021
 1244PNCE   C3A11196  14.501  14.347   5.450  0.0555 -0.0567  0.1156
 1244PNCE   C1B11197  13.850  13.600   5.300 -0.0200  0.0464  0.2273
 1244PNCE   C2B11198  13.728  13.317   5.539  0.1921  0.2229 -0.1030
 1244PNCE   C3B11199  13.347  13.272   5.733 -0.0953  0.1457 -0.2051
 1244PNCE   D4B11200  13.099  13.392   6.043  0.1249  0.0045 -0.3535
 1244PNCE   C5B11201  12.788  13.644   6.112  0.0707 -0.0096 -0.1520
 1244PNCE   C6B11202  12.800  14.009   6.195  0.3395 -0.0459  0.2038
 1245PNCE   AM111203  12.849   8.712   6.016 -0.0018 -0.0831 -0.0239
 1245PNCE   AM211204  12.624   8.399   6.111  0.0085  0.2249 -0.0293
 1245PNCE   T1A11205  12.815   9.017   6.251  0.1257 -0.2038  0.0530
 1245PNCE   C2A11206  12.746   9.090   6.672 -0.0366 -0.2151 -0.1273
 1245PNCE   C3A11207  13.047   9.194   7.045  0.0096  0.2693 -0.2071
 1245PNCE   C1B11208  12.498   8.696   6.471  0.0526  0.0791 -0.0620
 1245PNCE   C2B11209  12.287   8.814   6.827  0.0997  0.1206  0.2092
 1245PNCE   C3B11210  12.461   9.209   7.015 -0.3296 -0.2892  0.1372
 1245PNCE   D4B11211  12.601   9.313   7.406 -0.0407  0.0136  0.0120
 1245PNCE   C5B11212  12.888   9.110   7.564  0.0218 -0.2015  0.0846
 1245PNCE   C6B11213  13.297   8.939   7.688 -0.0851  0.0826  0.1658
 1246PNCE   AM111214   2.781  15.818   4.392 -0.1454  0.0211  0.1097
 1246PNCE   AM211215   2.557  15.736   4.297  0.1546  0.0327 -0.0140
 1246PNCE   T1A11216   2.735  16.000   4.829  0.1981  0.2498 -0.1431
 1246PNCE   C2A11217   2.749  16.184   5.180  0.0085  0.2137  0.1229
 1246PNCE   C3A11218   2.456  16.480   5.526 -0.1520  0.0379 -0.2762
 1246PNCE   C1B11219   2.527  15.525   4.719  0.0030 -0.1435 -0.1234
 1246PNCE   C2B11220   2.536  15.671   5.165  0.1961  0.0198  0.0482
 1246PNCE   C3B11221   2.244  15.746   5.462  0.1683  0.3377 -0.1581
 1246PNCE   D4B11222   2.261  15.713   5.942 -0.2954 -0.0647 -0.2166
 1246PNCE   C5B11223   2.053  15.523   6.298  0.1046 -0.0583 -0.2767
 1246PNCE   C6B11224   2.015  15.059   6.362  0.2658  0.0482  0.0245
 1247CHOL   ROH11225  13.069  10.822   8.559 -0.3494  0.0980  0.0325
 1247CHOL    R111226  13.226  10.935   8.353 -0.3550  0.1189  0.0396
 1247CHOL    R211227  13.399  10.785   8.199 -0.0673  0.1972  0.2776
 1247CHOL    R311228  13.260  10.894   7.993 -0.0733 -0.1478  0.0913
 1247CHOL    R411229  13.533  10.861   7.890  0.0776  0.2232  0.3458
 1247CHOL    R511230  13.415  11.045   7.890 -0.2224  0.0417  0.1370
 1247CHOL    C111231  13.480  11.009   7.516  0.1562 -0.0854  0.2106
 1247CHOL    C211232  13.459  11.072   7.171  0.0434 -0.0551 -0.0668
 1248XCA    COO11233  12.203   1.031   5.163 -0.1693  0.0047 -0.0190
 1248XCA     C111234  12.366   1.251   5.393  0.1926 -0.1101 -0.0114
 1248XCA     C211235  12.723   1.344   5.776  0.0379  0.0664 -0.2999
 1248XCA     C311236  12.674   1.664   6.170  0.1099 -0.1613 -0.2153
 1248XCA     C411237  12.977   1.901   6.390 -0.0057  0.0165  0.3939
 1248XCA     C511238  13.418   2.000   6.265  0.0578 -0.1825  0.4361
 1248XCA     C611239  13.652   2.286   6.018 -0.0090 -0.2122  0.1691
 1249XCA    COO11240   5.047   9.702   5.568 -0.0382 -0.1148 -0.5166
 1249XCA     C111241   5.338   9.535   5.831 -0.0649  0.0357 -0.0309
 1249XCA     C211242   5.448   9.398   6.172  0.1211  0.1181 -0.1968
 1249XCA     C311243   5.499   9.226   6.534 -0.0894  0.1422 -0.2540
 1249XCA     C411244   5.385   9.100   6.929 -0.3093  0.0916 -0.1397
 1249XCA     C511245   5.014   9.164   7.162 -0.3303  0.0259 -0.0736
 1249XCA     C611246   4.710   9.158   7.573 -0.2897 -0.1851  0.1032
 1250CHOL   ROH11247  12.996   9.313   5.983  0.0508  0.0532  0.0107
 1250CHOL    R111248  13.143   9.393   6.211  0.0373  0.0175  0.0315
 1250CHOL    R211249  13.028   9.425   6.460  0.0270 -0.0391  0.0315
 1250CHOL    R311250  13.223   9.253   6.537  0.0357 -0.0410  0.0075
 1250CHOL    R411251  13.226   9.465   6.739  0.0546 -0.0418  0.0129
 1250CHOL    R511252  13.396   9.394   6.623  0.0444 -0.0395 -0.0076
 1250CHOL    C111253  13.526   9.327   6.975  0.0789 -0.0450 -0.0206
 1250CHOL    C211254  13.678   9.201   7.302  0.0034 -0.0241  0.3350
 1251XCA    COO11255  12.814  14.681   4.837 -0.1488 -0.0769  0.0155
 1251XCA     C111256  13.121  14.676   5.169 -0.5130  0.0893  0.1579
 1251XCA     C211257  13.093  14.664   5.702  0.1303  0.1752  0.1230
 1251XCA     C311258  13.177  14.478   6.194 -0.1120 -0.2873  0.0680
 1251XCA     C411259  13.003  14.456   6.622  0.2021  0.2939  0.3662
 1251XCA     C511260  12.768  14.761   6.955 -0.1848 -0.2564 -0.2930
 1251XCA     C611261  12.715  15.291   6.843  0.1318  0.0073 -0.1284
 1252CHOL   ROH11262   8.600  12.302   8.276  0.3408 -0.0419  0.0526
 1252CHOL    R111263   8.763  12.342   8.049  0.2276 -0.0833 -0.0361
 1252CHOL    R211264   8.685  12.267   7.795  0.0416 -0.0004 -0.0022
 1252CHOL    R311265   8.740  12.527   7.736  0.1369 -0.0173  0.0083
 1252CHOL    R411266   8.695  12.399   7.475 -0.2594  0.0802  0.0184
 1252CHOL    R511267   8.869  12.516   7.535 -0.1089 -0.0466 -0.1549
 1252CHOL    C111268   8.752  12.720   7.235 -0.3453  0.1113  0.0403
 1252CHOL    C211269   8.559  12.538   6.863 -0.3105 -0.4081  0.1487
 1253CHOL   ROH11270  11.741   7.190   8.165  0.1777 -0.1009  0.0180
 1253CHOL    R111271  11.559   7.073   7.982  0.1144 -0.0452  0.0457
 1253CHOL    R211272  11.305   6.994   8.055  0.1066  0.0255  0.0859
 1253CHOL    R311273  11.231   7.154   7.849  0.1139  0.0496  0.1011
 1253CHOL    R411274  11.024   6.946   7.860  0.0319  0.1278  0.1668
 1253CHOL    R511275  11.141   7.003   7.686  0.0086  0.0760  0.1303
 1253CHOL    C111276  10.790   7.068   7.553 -0.0047  0.2100  0.2280
 1253CHOL    C211277  10.467   6.880   7.468  0.1084 -0.4277 -0.2307
 1254XCA    COO11278   4.910   1.672   3.216 -0.1896 -0.2430  0.3834
 1254XCA     C111279   4.723   1.836   3.580 -0.0815  0.1880 -0.0892
 1254XCA     C211280   4.633   1.864   4.061  0.3214 -0.1453 -0.2449
 1254XCA     C311281   4.752   1.978   4.463 -0.0063 -0.0752  0.0838
 1254XCA     C411282   5.049   2.017   4.862  0.2891 -0.2163  0.0234
 1254XCA     C511283   5.198   1.936   5.278  0.0090  0.0077  0.4701
 1254XCA     C611284   5.586   1.967   5.429  0.0251  0.2632  0.2022
 1255PNCE   AM111285   3.008   0.357   3.965  0.1306  0.1723 -0.0461
 1255PNCE   AM211286   2.807   0.551   3.901 -0.1708  0.2875  0.0249
 1255PNCE   T1A11287   3.143   0.466   4.389  0.0960 -0.0946 -0.1927
 1255PNCE   C2A11288   3.097   0.634   4.791 -0.1522  0.0569 -0.1524
 1255PNCE   C3A11289   3.333   0.787   5.272 -0.0404 -0.0816 -0.1282
 1255PNCE   C1B11290   2.694   0.635   4.377 -0.2705  0.0366 -0.1730
 1255PNCE   C2B11291   2.382   0.582   4.726  0.0110 -0.1140 -0.1001
 1255PNCE   C3B11292   2.127   0.400   5.170  0.2778  0.1361 -0.0050
 1255PNCE   D4B11293   2.084   0.373   5.658 -0.0337 -0.0317  0.1252
 1255PNCE   C5B11294   1.884   0.765   5.769 -0.2048 -0.1365  0.3461
 1255PNCE   C6B11295   1.803   0.877   6.184 -0.1207 -0.0344  0.1543
 1256CHOL   ROH11296   6.186   5.945   4.837  0.2042  0.2797 -0.0640
 1256CHOL    R111297   6.035   6.083   5.033  0.1180  0.2483 -0.1073
 1256CHOL    R211298   5.877   5.952   5.219 -0.0169  0.2212 -0.2379
 1256CHOL    R311299   6.025   6.096   5.397 -0.0890  0.1364 -0.1083
 1256CHOL    R411300   5.805   5.984   5.556 -0.0594 -0.0774 -0.2158
 1256CHOL    R511301   5.863   6.194   5.543 -0.1400 -0.0440 -0.0417
 1256CHOL    C111302   5.901   6.138   5.918 -0.1519 -0.3309 -0.0814
 1256CHOL    C211303   5.740   6.268   6.227 -0.2251 -0.1005  0.1143
 1257XCA    COO11304   9.883   6.398   4.530 -0.5687 -0.0009 -0.1431
 1257XCA     C111305   9.943   6.155   4.834  0.0996  0.1123 -0.2652
 1257XCA     C211306   9.797   5.823   5.179  0.1311  0.0699  0.1147
 1257XCA     C311307   9.673   5.434   5.325  0.1519  0.0268 -0.4187
 1257XCA     C411308   9.361   5.270   5.581  0.2560  0.2571 -0.3487
 1257XCA     C511309   9.234   5.139   5.896  0.0424 -0.1829  0.2032
 1257XCA     C611310   9.217   4.777   6.100 -0.2696 -0.2580  0.1021
 1258PNCE   AM111311   7.236  12.783   4.410  0.0139 -0.2268 -0.3077
 1258PNCE   AM211312   7.168  12.511   4.652 -0.1828 -0.1415  0.0546
 1258PNCE   T1A11313   7.300  12.987   4.909 -0.1250  0.0330 -0.3578
 1258PNCE   C2A11314   7.294  13.082   5.370 -0.1007 -0.1595  0.0722
 1258PNCE   C3A11315   7.198  13.190   5.818  0.0784  0.0903  0.0280
 1258PNCE   C1B11316   7.371  12.382   5.042 -0.2123 -0.3774 -0.0516
 1258PNCE   C2B11317   7.398  12.630   5.499 -0.0853 -0.1507  0.1821
 1258PNCE   C3B11318   7.628  12.983   5.880 -0.1961 -0.0297 -0.3409
 1258PNCE   D4B11319   8.043  13.313   6.054  0.2433  0.2173  0.1003
 1258PNCE   C5B11320   7.933  13.728   5.952  0.1528 -0.0460  0.1035
 1258PNCE   C6B11321   7.607  13.924   5.739  0.3237 -0.0339  0.1342
 1259CHOL   ROH11322   9.761   4.225   4.803  0.0044  0.0205 -0.0877
 1259CHOL    R111323   9.847   4.011   4.968 -0.0151  0.0444 -0.0472
 1259CHOL    R211324   9.744   3.967   5.220 -0.0461  0.0807 -0.0539
 1259CHOL    R311325   9.695   3.718   5.122 -0.0332  0.0658 -0.0252
 1259CHOL    R411326   9.655   3.694   5.412 -0.0212  0.0916 -0.0254
 1259CHOL    R511327   9.786   3.571   5.288 -0.0184  0.0877 -0.0154
 1259CHOL    C111328   9.557   3.301   5.432  0.0055  0.0839  0.0182
 1259CHOL    C211329   9.292   3.095   5.694 -0.1441 -0.0143  0.2500
 1260XCA    COO11330   4.241   4.251   4.502  0.1314 -0.1725 -0.0214
 1260XCA     C111331   4.295   4.109   4.893  0.0109  0.2027 -0.2015
 1260XCA     C211332   4.474   4.126   5.278  0.1640  0.0516 -0.2565
 1260XCA     C311333   4.347   4.373   5.695  0.1670  0.0674  0.0887
 1260XCA     C411334   4.424   4.343   6.082 -0.0152  0.1189  0.0903
 1260XCA     C511335   4.536   4.339   6.515  0.1333  0.1274  0.2895
 1260XCA     C611336   4.743   4.440   6.977  0.3675  0.0525  0.0738
 1261XCA    COO11337  14.579   8.416   5.432  0.2095 -0.0784 -0.0394
 1261XCA     C111338  14.574   8.396   5.865 -0.0376 -0.2166 -0.1698
 1261XCA     C211339  14.665   8.253   6.258  0.1306  0.1698 -0.1113
 1261XCA     C311340  14.441   8.086   6.597 -0.1957  0.1937 -0.1435
 1261XCA     C411341  14.195   8.145   6.906 -0.0323 -0.1165  0.3287
 1261XCA     C511342  14.147   8.318   7.243  0.3180  0.3091  0.2440
 1261XCA     C611343  13.982   8.166   7.619 -0.0030  0.3621  0.3553
 1262PNCE   AM111344   4.607  14.128   4.220  0.2211 -0.2161  0.0275
 1262PNCE   AM211345   4.405  13.868   4.261 -0.3330 -0.0354 -0.1064
 1262PNCE   T1A11346   4.690  14.453   4.529 -0.1801  0.0956 -0.2057
 1262PNCE   C2A11347   4.765  14.643   4.901 -0.0188  0.1024  0.0915
 1262PNCE   C3A11348   4.903  15.046   4.991 -0.1972 -0.0818  0.0160
 1262PNCE   C1B11349   4.114  13.984   4.618  0.0287 -0.2980  0.0945
 1262PNCE   C2B11350   3.846  14.097   4.970  0.4893  0.0317  0.0800
 1262PNCE   C3B11351   3.967  14.289   5.329 -0.2465  0.0692 -0.0838
 1262PNCE   D4B11352   3.945  14.654   5.456 -0.1369  0.0382 -0.1676
 1262PNCE   C5B11353   3.940  14.738   5.881  0.3573  0.0777  0.0147
 1262PNCE   C6B11354   3.706  14.823   6.262  0.1019 -0.1965 -0.2410
 1263XCA    COO11355   0.748   5.656   5.683  0.1086 -0.0741 -0.0313
 1263XCA     C111356   1.155   5.323   5.864  0.2096 -0.0284 -0.0954
 1263XCA     C211357   1.307   5.051   6.182  0.1576 -0.0765  0.2482
 1263XCA     C311358   1.496   5.019   6.532 -0.0574 -0.0544  0.0217
 1263XCA     C411359   1.880   4.924   6.612  0.1167  0.1958 -0.2573
 1263XCA     C511360   2.092   4.666   6.799  0.2600  0.1362  0.1629
 1263XCA     C611361   2.415   4.788   7.020 -0.2936  0.2630  0.0748
 1264XCA    COO11362   5.809  13.422   7.241 -0.3782 -0.0330 -0.0918
 1264XCA     C111363   6.153  13.080   7.047 -0.1976  0.0440  0.0264
 1264XCA     C211364   6.322  12.761   6.775 -0.1907 -0.0587  0.0594
 1264XCA     C311365   6.617  12.806   6.479  0.0747  0.1267  0.0159
 1264XCA     C411366   7.015  12.956   6.249 -0.0621 -0.0918 -0.4077
 1264XCA     C511367   7.348  13.114   6.382 -0.1846 -0.0006 -0.0380
 1264XCA     C611368   7.358  13.507   6.734  0.1524 -0.0726 -0.1017
 1265WN      WN11369  15.159  15.195  12.290 -0.0845  0.1301 -0.1533
 1266WN      WN11370   6.629   5.174   1.726 -0.0314 -0.0218 -0.1760
 1267WN      WN11371   3.802   6.294   5.128  0.1446 -0.0525  0.1724
 1268WN      WN11372  14.920  10.586   5.239  0.0330 -0.0456 -0.0174
 1269WN      WN11373  12.692   3.070  10.230  0.1584  0.2276  0.0594
 1270WN      WN11374  15.575   1.715  10.179  0.0091 -0.2287 -0.0985
 1271WN      WN11375  12.824   0.848   2.663 -0.0907 -0.0754 -0.0271
 1272WN      WN11376   1.364   4.582  10.399  0.0325  0.0696  0.2546
 1273WN      WN11377   0.201  13.634  11.998  0.1706  0.0143 -0.0424
 1274WN      WN11378  14.576  11.621   2.668  0.0282 -0.1311 -0.1831
 1275WN      WN11379   2.408   5.408  10.519 -0.0688  0.3201 -0.2101
 1276WN      WN11380   6.591  10.177  10.282  0.2256 -0.2757  0.2364
 1277WN      WN11381   4.231   8.139   2.185 -0.1990  0.4540 -0.4243
 1278WN      WN11382  13.195   8.914   4.066 -0.0423  0.1023 -0.0280
 1279WN      WN11383   7.805  10.426   8.764  0.0551  0.0362  0.0250
 1280WN      WN11384   2.327  10.586   2.617  0.2032  0.0728  0.1316
 1281WN      WN11385   7.335   5.852   0.854 -0.0233 -0.0645  0.0463
 1282WN      WN11386  10.982   2.920  12.973  0.5979 -0.0876  0.2336
 1283WN      WN11387  12.540  12.616  10.706  0.2511  0.0178  0.0252
 1284WN      WN11388   6.776   4.325   9.534 -0.0928 -0.2529 -0.1415
 1285WN      WN11389   9.624   6.638   8.800  0.3971 -0.1502  0.1944
 1286WN      WN11390  10.839  13.074  11.467  0.1571  0.0417  0.0939
 1287WN      WN11391   1.865   9.080  12.652  0.0854 -0.1892  0.0510
 1288WN      WN11392  15.455  10.099   1.267 -0.0549  0.0436  0.0267
 1289WN      WN11393  11.306   0.077  13.323  0.1060 -0.0074  0.4998
 1290WN      WN11394   1.550   3.356  12.013  0.1354 -0.2770  0.0622
 1291WN      WN11395   7.074   0.530   2.267 -0.0132  0.3281 -0.1300
 1292WN      WN11396   5.733  15.827   9.603  0.3353  0.2545 -0.3252
 1293WN      WN11397   4.245   4.753   1.030 -0.1977  0.0768  0.1338
 1294WN      WN11398  14.489   4.773   9.800 -0.1213  0.0496 -0.1627
 1295WN      WN11399  11.811   0.211   0.602 -0.1646  0.1731  0.1818
 1296WN      WN11400  11.821   5.956   0.113 -0.0202 -0.2737 -0.0210
 1297WN      WN11401   6.314  13.534   1.600 -0.2701  0.1356  0.0207
 1298WN      WN11402   7.982   3.432   0.339 -0.0258 -0.1376  0.1988
 1299WN      WN11403   8.870   8.782  10.451 -0.2026  0.0866  0.4368
 1300WN      WN11404   1.963   9.484  11.395 -0.0573 -0.1613  0.0216
 1301WN      WN11405   9.672   8.444   0.258  0.1048  0.2336  0.1337
 1302WN      WN11406  14.662   1.362  10.074  0.2721  0.1540 -0.2827
 1303WN      WN11407  14.408   2.842  12.394 -0.0421 -0.0065 -0.1403
 1304WN      WN11408   6.378  12.619   3.979 -0.2130 -0.2315  0.0757
 1305WN      WN11409   6.929   9.453  10.900 -0.0935  0.1225 -0.2232
 1306WN      WN11410   3.734  14.040   0.523 -0.2979 -0.1188  0.0532
 1307WN      WN11411  13.363   4.101   9.304  0.2282 -0.0049  0.2991
 1308WN      WN11412  12.915   2.277   9.624 -0.0731  0.0588 -0.1507
 1309WN      WN11413   9.191   3.219   1.209  0.2045 -0.2034 -0.1030
 1310WN      WN11414   8.879   6.153  12.615  0.0775  0.2237  0.0564
 1311WN      WN11415   7.820  11.123   0.832  0.3318  0.0871 -0.1502
 1312WN      WN11416   5.195  14.618   3.319  0.4794  0.1854 -0.1799
 1313WN      WN11417  14.838   3.409  11.086  0.1662  0.2662  0.2245
 1314WN      WN11418  10.951  13.051   1.249  0.2572 -0.2940  0.1159
 1315WN      WN11419   2.781   0.842   8.079  0.2214 -0.3076  0.0891
 1316WN      WN11420   6.047  14.996  10.571 -0.0934 -0.2877 -0.0736
 1317WN      WN11421   3.946  10.271   5.063  0.0813 -0.1462 -0.1875
 1318WN      WN11422   1.412  10.675  12.012 -0.0637  0.0142 -0.3157
 1319WN      WN11423   9.373   0.024  12.764  0.3150  0.0668  0.1273
 1320WN      WN11424  12.814   7.184   1.375 -0.1398 -0.0204 -0.1284
 1321WN      WN11425   0.140  12.544   3.727  0.4486 -0.1729 -0.1820
 1322WN      WN11426  11.795   6.226   1.095 -0.1599  0.0085  0.0379
 1323WN      WN11427   7.347   0.844   2.583 -0.1401 -0.0357 -0.0412
 1324WN      WN11428  12.383  13.316   3.276 -0.0418 -0.3297 -0.1862
 1325WN      WN11429  12.993   3.469   0.334  0.1610 -0.1316 -0.0419
 1326WN      WN11430   8.216   2.121   3.448 -0.0136  0.0756 -0.0768
 1327WN      WN11431  12.071  11.820  11.651  0.3837 -0.1766  0.0261
 1328WN      WN11432   2.968  14.881   1.144  0.0633 -0.0092  0.1642
 1329WN      WN11433   3.669   0.555   1.856  0.1269 -0.1519  0.2358
 1330WN      WN11434   1.865  11.904  13.423  0.1047 -0.1368 -0.0844
 1331WN      WN11435   0.437   9.190  13.055 -0.4911  0.3221 -0.3182
 1332WN      WN11436  10.987   7.328   1.779 -0.0204 -0.0245 -0.1429
 1333WN      WN11437  15.430  14.644   9.563 -0.0023  0.0686  0.3738
 1334WN      WN11438   8.247  10.573   9.573 -0.0825 -0.0908 -0.2904
 1335WN      WN11439  14.811   5.492  11.336  0.1754 -0.2450 -0.2030
 1336WN      WN11440   6.574   2.166   7.925 -0.0854 -0.3519  0.2098
 1337WN      WN11441  14.909  14.906   9.725 -0.1808  0.0294 -0.1048
 1338WN      WN11442   2.298   8.680   2.863 -0.0626  0.0302  0.1334
 1339WN      WN11443  15.360   9.915  11.155 -0.1876 -0.1901  0.0782
 1340WN      WN11444   6.345   1.390   3.574  0.3688  0.2611 -0.1990
 1341WN      WN11445  11.219   7.419  10.675 -0.1714 -0.0982 -0.3193
 1342WN      WN11446  13.180   6.704  13.328  0.1665 -0.2207  0.0393
 1343WN      WN11447   6.207  11.410  10.433 -0.1832  0.0935  0.1878
 1344WN      WN11448  10.204   8.342  12.830 -0.0286  0.0093 -0.0677
 1345WN      WN11449  14.975   3.454   4.834 -0.1093 -0.1221  0.3093
 1346WN      WN11450   2.285   2.324  13.351 -0.2296  0.2133 -0.0887
 1347WN      WN11451  10.358   7.162   9.736  0.1697 -0.3015  0.0583
 1348WN      WN11452  15.697  14.261   3.866 -0.1533 -0.0237  0.0930
 1349WN      WN11453  10.413   4.234   0.466 -0.0635 -0.0156  0.1532
 1350WN      WN11454  12.924  15.743  11.793 -0.0875  0.0289  0.1621
 1351WN      WN11455   9.081   7.824   9.661  0.3083 -0.0251  0.1743
 1352WN      WN11456   7.131  11.344  12.062 -0.1760  0.0114  0.0906
 1353WN      WN11457   2.872   0.657   9.559 -0.0359  0.0198 -0.1405
 1354WN      WN11458   0.015   0.522   9.429  0.0833 -0.1679  0.0109
 1355WN      WN11459   6.610  13.749   2.305  0.2785  0.1067 -0.1435
 1356WN      WN11460   1.630   5.182  10.626  0.2750 -0.0104  0.2605
 1357WN      WN11461  10.535  11.212  11.630 -0.3279  0.1548  0.0470
 1358WN      WN11462   5.356  12.889  11.815 -0.2095 -0.2471  0.0089
 1359WN      WN11463  12.267   8.465   3.421 -0.1404  0.0293 -0.0745
 1360WN      WN11464   9.309   3.890   0.718  0.0130  0.3547  0.1475
 1361WN      WN11465   8.533  13.840  10.173 -0.2600  0.1062  0.2502
 1362WN      WN11466  15.144  13.331  12.712 -0.2506 -0.0682  0.1187
 1363WN      WN11467   9.777  12.491   2.513 -0.1172  0.2933 -0.0915
 1364WN      WN11468   5.731   5.024  11.413 -0.0084  0.1297  0.0243
 1365WN      WN11469   0.236  12.318  13.333 -0.0576 -0.0456 -0.2082
 1366WN      WN11470   9.608  14.442  11.651 -0.1364 -0.1802 -0.0867
 1367WN      WN11471  15.677   1.776  11.927  0.0746  0.2080  0.1169
 1368WN      WN11472   6.835   4.143   8.869 -0.1430 -0.0187 -0.1240
 1369WN      WN11473   6.393   0.337   9.164  0.0647 -0.0080 -0.2108
 1370WN      WN11474  10.421   1.926  11.800 -0.2767 -0.1839  0.0006
 1371WN      WN11475   0.815  10.049  12.838  0.0112  0.1745 -0.1472
 1372WN      WN11476   0.144  13.635   2.853 -0.2775 -0.0598 -0.0347
 1373WN      WN11477   3.530  11.901   0.228  0.2289 -0.0746  0.2062
 1374WN      WN11478   8.507   8.860  10.793  0.1612  0.4111  0.3001
 1375WN      WN11479   1.883   9.373   5.172 -0.1371  0.0543 -0.0281
 1376WN      WN11480   2.471   6.353   2.801  0.0872  0.0328  0.0086
 1377WN      WN11481   4.838   3.385   1.192  0.3608  0.1567  0.2776
 1378WN      WN11482   8.905   2.519   2.756 -0.1179 -0.1728  0.0741
 1379WN      WN11483  10.342   8.586   2.997 -0.0123  0.3255 -0.2088
 1380WN      WN11484  10.281   4.015   2.021  0.2700  0.2128  0.0395
 1381WN      WN11485  13.403   1.922   1.675 -0.1474 -0.1669 -0.1594
 1382WN      WN11486  10.690   8.512   4.061  0.0524  0.2419 -0.0306
 1383WN      WN11487   1.863  12.245   3.754 -0.0124 -0.2940 -0.0794
 1384WN      WN11488   4.837   9.082  11.518 -0.2408 -0.1045  0.1846
 1385WN      WN11489   2.455   4.678   2.135  0.0828 -0.0221 -0.0207
 1386WN      WN11490   4.634  13.810  10.878 -0.1000  0.0665  0.0352
 1387WN      WN11491   5.708  13.872  12.615  0.2736 -0.0382 -0.2053
 1388WN      WN11492   1.626   2.781   8.977 -0.1089 -0.1499  0.1649
 1389WN      WN11493  13.526   6.466   9.360  0.0077 -0.0675  0.1070
 1390WN      WN11494   8.802  12.462   3.883  0.2947 -0.0956 -0.1604
 1391WN      WN11495   2.271   6.500   9.568 -0.2206 -0.3191 -0.3338
 1392WN      WN11496  11.031  14.866   9.885  0.0544  0.0470 -0.2670
 1393WN      WN11497  12.739  11.623   5.008 -0.2841  0.0568 -0.2883
 1394WN      WN11498   1.694   8.274   1.429  0.3099 -0.1834 -0.2088
 1395WN      WN11499   9.149   4.173  10.102 -0.1244  0.3269 -0.0474
 1396WN      WN11500  13.017   6.357   3.096  0.0618  0.0244 -0.1084
 1397WN      WN11501   9.190   4.067  10.594  0.1793  0.0927  0.3562
 1398WN      WN11502  12.210  15.651   3.798  0.2225 -0.1930 -0.0303
 1399WN      WN11503  13.033   4.979   1.992  0.0770  0.1725  0.2300
 1400WN      WN11504   7.504   1.183   0.263 -0.2117  0.1149  0.0091
 1401WN      WN11505  12.706  12.254  11.021 -0.0509  0.1282  0.0477
 1402WN      WN11506   2.441   2.227  11.197 -0.1124  0.2921 -0.0982
 1403WN      WN11507   9.721   1.673  13.038  0.0326 -0.2083  0.1698
 1404WN      WN11508   0.899  12.680  11.612  0.0518 -0.0567 -0.1539
 1405WN      WN11509  14.012   8.553  10.941 -0.1786 -0.1057 -0.2219
 1406WN      WN11510   5.414  11.545  11.560  0.0613  0.1975  0.2048
 1407WN      WN11511  11.258   3.567   4.105 -0.1105 -0.0612 -0.0223
 1408WN      WN11512  11.171   4.154  12.009 -0.3684 -0.0169  0.1611
 1409WN      WN11513  15.254   2.638   2.824  0.0276 -0.1381  0.1098
 1410WN      WN11514  10.200  13.642   1.971  0.0400  0.0619  0.1035
 1411WN      WN11515   4.175   2.038   2.759  0.1675  0.3992 -0.3031
 1412WN      WN11516   6.038   5.255   2.939  0.2354 -0.1504 -0.1527
 1413WN      WN11517   2.932   2.902   3.170  0.3386  0.0440  0.0229
 1414WN      WN11518  15.692   1.111  11.822 -0.1193 -0.0737  0.0257
 1415WN      WN11519   0.793  14.836   0.491 -0.0264 -0.0436  0.2964
 1416WN      WN11520   4.677   4.985  13.080  0.0405 -0.1888 -0.0523
 1417WN      WN11521   5.233   6.793   1.035  0.3276 -0.0083 -0.2015
 1418WN      WN11522   6.832   1.876   3.206  0.2417 -0.1568 -0.2365
 1419WN      WN11523   2.233  11.546  12.381  0.1556 -0.1878  0.0892
 1420WN      WN11524   9.377   0.052  11.676 -0.2540  0.1208  0.2728
 1421WN      WN11525   6.280   5.632  10.611 -0.0803  0.3544 -0.0027
 1422WN      WN11526  12.717  15.595   3.950  0.1355  0.1755  0.1412
 1423WN      WN11527   8.566  11.392  13.252 -0.3103  0.0477 -0.1019
 1424WN      WN11528   0.070  11.337   2.202  0.1018 -0.0720  0.0573
 1425WN      WN11529   4.079   8.625   3.647  0.1203 -0.2895  0.0581
 1426WN      WN11530   4.308   8.677   2.787 -0.0632 -0.1610  0.1386
 1427WN      WN11531   6.903   2.847   3.129  0.2441  0.0228 -0.0141
 1428WN      WN11532   9.447   6.224   9.125  0.2170  0.3221  0.0169
 1429WN      WN11533  12.042  10.283  12.903  0.1598  0.1262 -0.0681
 1430WN      WN11534   2.353  11.071   4.023 -0.1691 -0.0049 -0.0549
 1431WN      WN11535   9.545   9.446   3.512 -0.1033  0.2964  0.1549
 1432WN      WN11536   1.670  14.875   2.335  0.2322 -0.0883 -0.3074
 1433WN      WN11537  15.254   7.017   1.315  0.1381  0.0294  0.2723
 1434WN      WN11538   1.173   5.906   2.103 -0.0942 -0.2236  0.3553
 1435WN      WN11539   7.158   6.532   4.193  0.0224  0.1467  0.1569
 1436WN      WN11540   0.860  15.063   2.459 -0.1079 -0.2369 -0.2896
 1437WN      WN11541  13.123   8.773   4.623  0.0715 -0.0316  0.1225
 1438WN      WN11542  11.881   6.321   8.797 -0.1125 -0.0184 -0.1989
 1439WN      WN11543  10.083  14.668  12.576  0.2670 -0.1353 -0.1284
 1440WN      WN11544   9.672   0.075  11.258 -0.0811 -0.1078 -0.2884
 1441WN      WN11545   4.312  10.427  13.037 -0.1398  0.1220 -0.1160
 1442WN      WN11546  11.059   0.034  10.116 -0.0657  0.3608 -0.1735
 1443WN      WN11547  15.223   3.183   0.615  0.4002 -0.0634  0.2460
 1444WN      WN11548  12.015   3.834   3.798 -0.0872  0.0565 -0.3847
 1445WN      WN11549   3.899   2.046  11.116 -0.3476  0.0416 -0.0610
 1446WN      WN11550   5.384  11.835   3.219 -0.1810  0.1139  0.1338
 1447WN      WN11551  12.720   4.798   4.982 -0.2259  0.3944 -0.1991
 1448WN      WN11552   8.271   2.737  12.556  0.2863 -0.1039  0.0060
 1449WN      WN11553   5.208   2.089   1.755 -0.3261 -0.1741 -0.1839
 1450WN      WN11554   1.600   3.504   0.643  0.1115  0.1453 -0.2316
 1451WN      WN11555  14.575   9.319  10.588  0.0778  0.0486  0.1296
 1452WN      WN11556   6.919  13.733   2.976  0.0931 -0.0327  0.0400
 1453WN      WN11557   4.909   6.578   1.322 -0.1918  0.2058 -0.0145
 1454WN      WN11558   8.964   9.162   2.988  0.1552 -0.2725  0.0334
 1455WN      WN11559  10.840  12.595   0.766  0.1700 -0.2288 -0.0820
 1456WN      WN11560   4.497   8.852  11.955  0.3130 -0.0419  0.1421
 1457WN      WN11561   1.930  13.690   1.047 -0.1316 -0.0369  0.2245
 1458WN      WN11562  10.420   7.652   3.887  0.0294 -0.1188 -0.4121
 1459WN      WN11563   8.514   8.399  10.538  0.0111 -0.3232 -0.2380
 1460WN      WN11564  10.226  10.104   9.700  0.1417 -0.2079 -0.3983
 1461WN      WN11565   3.019   3.064   3.691  0.0886  0.3893 -0.1375
 1462WN      WN11566   0.302   8.670   2.689 -0.0982  0.1150 -0.1530
 1463WN      WN11567   1.967   1.440   0.239  0.1588 -0.1099  0.0309
 1464WN      WN11568  13.304   4.145   4.410  0.1923  0.3023  0.1039
 1465WN      WN11569   0.706  13.657  12.266  0.3182  0.0268 -0.0261
 1466WN      WN11570   1.280   1.087   9.920 -0.0819 -0.0994  0.2055
 1467WN      WN11571   7.169  13.067  11.319  0.2030 -0.0056  0.2998
 1468WN      WN11572   4.353   3.312   1.361  0.0293 -0.0833  0.0174
 1469WN      WN11573   9.846   7.984  12.585 -0.0237  0.1400 -0.2088
 1470WN      WN11574  14.086   4.833  12.797 -0.1327 -0.0215 -0.1615
 1471WN      WN11575  11.451   4.830   1.897 -0.1567  0.0083  0.1602
 1472WN      WN11576   3.822   5.341   9.413  0.3177  0.1394  0.0269
 1473WN      WN11577   9.462  14.123   2.060 -0.0477  0.0219 -0.2468
 1474WN      WN11578  15.732   8.654  11.663  0.0358 -0.2567  0.0796
 1475WN      WN11579   7.386  10.891  12.162  0.0157  0.1031  0.0787
 1476WN      WN11580   7.686  14.161  10.049 -0.3292  0.3538  0.0340
 1477WN      WN11581  13.936  10.959  10.230 -0.2148  0.0248  0.4064
 1478WN      WN11582  11.774  11.694   3.775  0.4932  0.0242 -0.1763
 1479WN      WN11583  15.019  12.700   0.799  0.3755  0.0737 -0.2483
 1480WN      WN11584  14.334   0.218   2.691  0.1163 -0.1021 -0.2004
 1481WN      WN11585   7.246   3.381   8.946  0.1356  0.4518  0.0072
 1482WN      WN11586   6.839   3.152   9.711 -0.0975  0.0225  0.3718
 1483WN      WN11587   2.047   9.917   3.456 -0.0195 -0.0563 -0.1977
 1484WN      WN11588   5.382  13.148   3.168 -0.1429  0.0792 -0.0833
 1485WN      WN11589  10.612   2.283   2.700 -0.0604  0.3692 -0.0374
 1486WN      WN11590  13.825  10.613   1.368  0.0947  0.0560 -0.2521
 1487WN      WN11591   4.941   3.750   3.255  0.1159 -0.1352  0.0359
 1488WN      WN11592   4.673  13.328  12.395  0.2135  0.2472 -0.0588
 1489WN      WN11593   9.792   4.155   3.527  0.0699 -0.0451  0.0081
 1490WN      WN11594   5.198  15.603   8.450 -0.1548  0.2251 -0.0527
 1491WN      WN11595   6.987  14.684   8.572  0.2381 -0.1438  0.2344
 1492WN      WN11596  15.549   4.200  11.027  0.0386 -0.1866  0.2027
 1493WN      WN11597   5.604  11.103   2.348 -0.1721  0.1101 -0.3074
 1494WN      WN11598  11.512   7.625   5.119 -0.0370 -0.0714  0.1248
 1495WN      WN11599   9.724   4.015   1.703 -0.1518  0.3095 -0.2542
 1496WN      WN11600   9.051   2.970   0.330 -0.1494  0.1476  0.0003
 1497WN      WN11601   2.150  13.160   9.696  0.1617 -0.0130  0.4652
 1498WN      WN11602  13.296   8.133  12.846 -0.2362 -0.0381 -0.0480
 1499WN      WN11603  10.214   3.210   3.070  0.3583 -0.0037 -0.0292
 1500WN      WN11604   5.301  14.703  10.025 -0.0900  0.2607 -0.1444
 1501WN      WN11605   9.769   2.159  10.697 -0.4320  0.4346 -0.1249
 1502WN      WN11606  13.001  11.530   3.160  0.0447 -0.3005 -0.0257
 1503WN      WN11607   0.158   0.511  11.842 -0.2363  0.0593 -0.0058
 1504WN      WN11608   4.466  10.897   4.114 -0.1112  0.2943 -0.1263
 1505WN      WN11609   2.072  12.796   0.464  0.0115  0.2923  0.0262
 1506WN      WN11610   2.360  11.651  10.570 -0.0543 -0.0016  0.0568
 1507WN      WN11611  15.758   8.395   2.919  0.1729 -0.1729 -0.1975
 1508WN      WN11612   7.153   7.466   2.873 -0.1505 -0.2250  0.2597
 1509WN      WN11613   7.154   0.329   1.764  0.2090  0.2542 -0.0736
 1510WN      WN11614   5.801  10.748   0.211 -0.1726  0.1223  0.1076
 1511WN      WN11615  12.224   4.565  10.805  0.0430 -0.1165  0.3397
 1512WN      WN11616  12.997  14.350   3.495 -0.0270 -0.2627 -0.0121
 1513WN      WN11617   7.157  13.284   3.602  0.2514 -0.0739  0.0851
 1514WN      WN11618   5.549   4.786  10.952  0.2442 -0.0292 -0.0118
 1515WN      WN11619   7.486  11.569  12.624  0.0336 -0.4107  0.1814
 1516WN      WN11620  15.064   1.263  10.518  0.1846  0.0220 -0.2088
 1517WN      WN11621   9.133  14.493   1.685  0.0757  0.0918 -0.4211
 1518WN      WN11622   7.593   5.667   1.736  0.2254  0.0854  0.0302
 1519WN      WN11623  15.022   7.293   2.320  0.0794  0.0941 -0.1290
 1520WN      WN11624   1.861  12.753   2.246  0.1024 -0.0204 -0.1905
 1521WN      WN11625   5.215   4.120   0.718  0.0827 -0.1872 -0.1237
 1522WN      WN11626   3.259  12.836  13.206 -0.0514  0.0439 -0.2890
 1523WN      WN11627   2.574   5.100   4.215  0.0172 -0.1363 -0.0893
 1524WN      WN11628   6.250  13.586  10.707 -0.1413  0.0601  0.0394
 1525WN      WN11629  10.183   1.897   9.186 -0.0017 -0.0218 -0.1083
 1526WN      WN11630   2.349   9.639  13.350  0.0351  0.0298 -0.0900
 1527WN      WN11631   4.156   9.599  11.433  0.1288 -0.1849  0.2854
 1528WN      WN11632   0.345  10.523  11.545  0.2041 -0.0893 -0.1960
 1529WN      WN11633  12.652   8.641   2.284 -0.1082 -0.0578 -0.0702
 1530WN      WN11634  15.500   3.117  12.548  0.0128 -0.0149 -0.2316
 1531WN      WN11635  12.658   8.732   1.034  0.1094  0.1146  0.1833
 1532WN      WN11636   2.204   2.979  11.070 -0.1013 -0.1263 -0.2160
 1533WN      WN11637   5.604  13.945   9.691  0.1924  0.4296 -0.3008
 1534WN      WN11638   3.172  12.269  12.914  0.2618  0.4556  0.2719
 1535WN      WN11639  11.874   9.074  10.632 -0.1536  0.0341  0.2685
 1536WN      WN11640   5.457   0.556  11.597  0.2322  0.0473  0.2005
 1537WN      WN11641  14.557   2.850  12.837  0.1744  0.3277 -0.0861
 1538WN      WN11642  13.313   2.202   2.055 -0.1350 -0.1112  0.2055
 1539WN      WN11643  15.801   2.653   2.072  0.0681 -0.4034  0.1469
 1540WN      WN11644   5.064   3.572  11.553 -0.1107 -0.2995 -0.1680
 1541WN      WN11645   6.252  12.143  10.985  0.2759 -0.0586 -0.0736
 1542WN      WN11646   5.707   2.644  12.251 -0.1998  0.1465  0.0456
 1543WN      WN11647  14.779   9.300   2.481  0.1034 -0.2359  0.0520
 1544WN      WN11648   9.688   1.319   1.040 -0.1904 -0.2094  0.0082
 1545WN      WN11649   1.281   2.865   1.198 -0.2221 -0.1272  0.2448
 1546WN      WN11650  11.424  12.065  11.917  0.2167 -0.1346 -0.3311
 1547WN      WN11651   1.732   5.620  10.984 -0.1575  0.0673 -0.1642
 1548WN      WN11652   6.612   5.392   2.764  0.0501 -0.0707  0.1656
 1549WN      WN11653   2.429  14.650   9.836  0.0339 -0.0929 -0.2312
 1550WN      WN11654   7.413   0.386  10.369  0.1851 -0.3384  0.0142
 1551WN      WN11655   7.030   9.412   2.518  0.3378 -0.0518 -0.1740
 1552WN      WN11656   2.924   2.977  13.390  0.4095  0.2466 -0.1900
 1553WN      WN11657   7.010   7.839  11.182  0.1040  0.1659 -0.1092
 1554WN      WN11658   6.905   8.730   4.218 -0.2770 -0.3299 -0.0771
 1555WN      WN11659  11.061   6.329  10.188  0.2356  0.1664 -0.1480
 1556WN      WN11660   7.139   4.447  11.483 -0.3027  0.4307  0.1217
 1557WN      WN11661   9.573  14.726  10.108  0.0223  0.1648 -0.2668
 1558WN      WN11662   0.824   9.816   0.037 -0.3686  0.2504 -0.2369
 1559WN      WN11663   3.420   0.954  10.080 -0.0690 -0.2344 -0.1885
 1560WN      WN11664   4.643   9.545  11.477  0.2679  0.1946  0.0099
 1561WN      WN11665   4.871  14.365   9.872 -0.3230 -0.0197 -0.1777
 1562WN      WN11666  15.805   7.393  12.697  0.3229  0.0263 -0.0171
 1563WN      WN11667   4.180  13.276   0.193  0.0613  0.0866  0.4430
 1564WN      WN11668  11.368   7.945   2.561 -0.0770 -0.2678 -0.1047
 1565WN      WN11669   2.316  11.293  11.359  0.4442  0.0369  0.0293
 1566WN      WN11670   4.227   0.627  10.768 -0.0752 -0.2349  0.0034
 1567WN      WN11671   4.910   1.911  10.904  0.3005 -0.0864  0.4293
 1568WN      WN11672   8.095  15.182  11.416  0.2336  0.2394 -0.1350
 1569WN      WN11673   2.102  10.096   1.976  0.0579  0.1925  0.2484
 1570WN      WN11674   0.938   2.541  12.614 -0.1148  0.1704  0.1197
 1571WN      WN11675   9.674  11.100   4.814  0.0905 -0.1051 -0.0680
 1572WN      WN11676   0.768  14.008  12.787 -0.3254 -0.1862  0.0451
 1573WN      WN11677   9.580   2.251  12.223  0.1504  0.0415 -0.0636
 1574WN      WN11678   9.401   7.084  12.834  0.2807  0.1840  0.1025
 1575WN      WN11679   6.705   5.414  10.811 -0.2435  0.1708 -0.0178
 1576WN      WN11680   1.080   4.033   2.500 -0.0521 -0.5528  0.0909
 1577WN      WN11681  15.745   4.564   4.300  0.1939  0.2234  0.0892
 1578WN      WN11682   0.026  10.789  12.232 -0.2284 -0.3105 -0.1355
 1579WN      WN11683  11.640  13.024  12.197  0.0443  0.2301  0.0412
 1580WN      WN11684   1.057   6.299  11.907 -0.3211  0.3797 -0.0546
 1581WN      WN11685   4.542   7.578   2.384  0.1227  0.1104  0.0365
 1582WN      WN11686   6.567  14.283   8.697  0.2338 -0.0002  0.0432
 1583WN      WN11687  13.519  14.817   1.972  0.1539 -0.1697 -0.1061
 1584WN      WN11688   4.812  12.146   0.667 -0.0862  0.0417  0.0776
 1585WN      WN11689  15.572  11.162   4.797 -0.0990  0.1687 -0.3612
 1586WN      WN11690  13.148   1.725  11.722 -0.0539  0.2326 -0.0568
 1587WN      WN11691  10.035   3.168  10.899 -0.1541 -0.1022 -0.1453
 1588WN      WN11692   4.537   8.685  10.301 -0.0917  0.0213 -0.6987
 1589WN      WN11693   9.848  10.286   2.358  0.2170 -0.0459  0.0259
 1590WN      WN11694  10.897  10.809   0.073  0.0091  0.2754 -0.0156
 1591WN      WN11695   1.919  12.503   4.648 -0.0765 -0.2530  0.1168
 1592WN      WN11696   5.070   1.572   0.699  0.1717 -0.3262 -0.4538
 1593WN      WN11697   4.739  10.710   0.611  0.0081 -0.2455  0.1790
 1594WN      WN11698  15.159  10.656   2.484  0.4932 -0.0581 -0.3608
 1595WN      WN11699  15.816   9.773   1.475 -0.2210 -0.2447  0.1990
 1596WN      WN11700   0.887  11.592  12.389 -0.3546 -0.0152 -0.1147
 1597WN      WN11701   4.977  10.071   4.310  0.1498  0.0118  0.0182
 1598WN      WN11702   9.528  15.376   9.139  0.2418 -0.3065 -0.1352
 1599WN      WN11703   1.465  11.658   2.684  0.1593 -0.0447  0.1559
 1600WN      WN11704   8.400  13.540   4.001 -0.0944  0.1089  0.0952
 1601WN      WN11705   1.012  14.626   0.993  0.3792  0.0186 -0.1469
 1602WN      WN11706  14.313  14.303   9.958 -0.3274  0.0483  0.2999
 1603WN      WN11707   6.487   2.006   0.803  0.0923  0.1079  0.2401
 1604WN      WN11708  13.682  12.231  12.806  0.1222  0.0443 -0.0667
 1605WN      WN11709   7.636   2.450  12.282  0.0171  0.1905 -0.1738
 1606WN      WN11710  12.727   2.547  12.713  0.1418  0.0109 -0.0038
 1607WN      WN11711   2.300   2.001   3.443 -0.0494  0.2546  0.1191
 1608WN      WN11712   9.389   2.576   0.443  0.1496  0.0323  0.0051
 1609WN      WN11713   0.162   5.086   4.271 -0.0444  0.3119 -0.0022
 1610WN      WN11714   8.864   4.459  11.857  0.2424  0.0435 -0.0565
 1611WN      WN11715   3.417  11.795   9.761 -0.0393 -0.5185 -0.2837
 1612WN      WN11716   6.211   2.658  11.886 -0.0275 -0.0013  0.0855
 1613WN      WN11717   3.654  11.066   2.977 -0.1232 -0.4202 -0.0516
 1614WN      WN11718   1.946  12.915  10.115 -0.2073 -0.1117  0.1344
 1615WN      WN11719  15.388   2.736   0.319 -0.0052 -0.0445 -0.3511
 1616WN      WN11720   3.989  14.993   8.110  0.0054 -0.3360  0.1088
 1617WN      WN11721   1.620  14.385   2.408 -0.0258 -0.2755  0.0446
 1618WN      WN11722   4.330   2.860   3.068 -0.0285  0.0736  0.0704
 1619WN      WN11723  12.848   0.250   4.181 -0.0542  0.0315  0.1623
 1620WN      WN11724   4.719   2.353  13.506 -0.0781 -0.0151  0.2514
 1621WN      WN11725  10.202   5.319   3.625  0.3055  0.3229 -0.0671
 1622WN      WN11726  14.698   5.058   9.424  0.2149 -0.0063  0.1129
 1623WN      WN11727   6.904   4.495   1.462  0.0007  0.2850  0.3421
 1624WN      WN11728   7.115   4.616   8.727 -0.1326 -0.1516 -0.0957
 1625WN      WN11729  15.503  12.190  11.696  0.2438 -0.0358 -0.0822
 1626WN      WN11730  11.731   8.658   3.237 -0.1563  0.0624  0.3260
 1627WN      WN11731  13.504  10.075  11.876 -0.0387 -0.1131  0.0981
 1628WN      WN11732   6.246  13.280   9.082  0.0569 -0.2394  0.1296
 1629WN      WN11733  14.805   0.660   0.605  0.0565 -0.0761 -0.3819
 1630WN      WN11734   3.862   9.355   5.165  0.3896  0.0823  0.2167
 1631WN      WN11735   4.372  15.614  11.856  0.3297 -0.1932 -0.1695
 1632WN      WN11736   0.150  10.110   1.137 -0.0673 -0.1735 -0.0942
 1633WN      WN11737   2.922  12.698   0.082 -0.0105  0.1547  0.2325
 1634WN      WN11738  10.100   1.182   0.318 -0.3168  0.0214  0.2480
 1635WN      WN11739   4.028   8.256  11.803 -0.1693 -0.3272 -0.0011
 1636WN      WN11740   2.268   4.403   9.738 -0.1247 -0.0474 -0.1238
 1637WN      WN11741   8.926   5.765   9.814 -0.1504  0.0858  0.0328
 1638WN      WN11742  12.573   8.408   4.666 -0.3759  0.1313 -0.1473
 1639WN      WN11743   2.068   1.660   8.644  0.3714 -0.0291 -0.1267
 1640WN      WN11744  13.737  10.942   3.965 -0.0681 -0.1339 -0.0009
 1641WN      WN11745   6.820   4.005   1.550 -0.1523  0.3682  0.1271
 1642WN      WN11746  10.187   0.424   1.976  0.3857 -0.1069  0.0549
 1643WN      WN11747   5.967  13.507  12.234  0.0113  0.0194  0.0135
 1644WN      WN11748   4.963  14.901   1.918  0.2086 -0.0195 -0.1807
 1645WN      WN11749   7.603  14.424   2.827  0.2917  0.1023 -0.2798
 1646WN      WN11750   2.948  12.744  12.128 -0.2832 -0.0180 -0.3782
 1647WN      WN11751  10.269   6.450  12.964 -0.1942  0.0476 -0.1123
 1648WN      WN11752   5.454   7.124   2.336  0.2431  0.1356  0.2869
 1649WN      WN11753  12.989   4.932   3.212  0.1560  0.0069 -0.1716
 1650WN      WN11754   5.614   8.071  10.268 -0.3447 -0.0616  0.0707
 1651WN      WN11755  12.565   6.817   4.604  0.1304  0.5466  0.1554
 1652WN      WN11756   9.624   8.533   1.867 -0.3256  0.0896 -0.0660
 1653WN      WN11757   9.734  11.268   9.682 -0.0425 -0.1674 -0.0345
 1654WN      WN11758   5.481  10.612   2.292 -0.1412  0.0662  0.1241
 1655WN      WN11759  12.017   2.748  11.735 -0.0446 -0.0492 -0.1594
 1656WN      WN11760   4.936  15.623   2.582 -0.0398  0.1356 -0.2165
 1657WN      WN11761   0.278  11.688   3.555 -0.1111  0.2853 -0.1790
 1658WN      WN11762   4.015   2.478   3.088  0.0180 -0.0227  0.1962
 1659WN      WN11763  13.344   7.081   9.754  0.1052  0.3689  0.0244
 1660WN      WN11764  13.220  10.565  13.425  0.1421 -0.1034  0.0273
 1661WN      WN11765   4.281  10.720   4.630  0.0167 -0.1884  0.1349
 1662WN      WN11766  12.325  12.303   3.447 -0.1939  0.0167 -0.1554
 1663WN      WN11767   0.177   4.028   2.864 -0.1294 -0.0083  0.0056
 1664WN      WN11768   8.284   2.559   2.136 -0.3262  0.3755 -0.0559
 1665WN      WN11769  14.053   7.905  10.110  0.1084 -0.1779 -0.1808
 1666WN      WN11770   5.315   7.715   1.399  0.1023 -0.0790 -0.2552
 1667WN      WN11771   5.377  13.728   3.420 -0.2281 -0.1803 -0.1506
 1668WN      WN11772  10.878  14.686  10.774  0.3703  0.0374  0.1892
 1669WN      WN11773   0.753   0.543   3.127 -0.1350 -0.0628  0.0787
 1670WN      WN11774  14.255   0.906  10.219 -0.3440 -0.3001 -0.0805
 1671WN      WN11775   7.758  11.868   9.944 -0.1729 -0.0217 -0.1958
 1672WN      WN11776  13.032   6.391   4.588 -0.0030  0.0209  0.1813
 1673WN      WN11777  12.971   6.743   3.787 -0.1051 -0.2509  0.0622
 1674WN      WN11778   4.032   9.534   0.699 -0.1074  0.1691  0.2263
 1675WN      WN11779   4.595  11.053   0.275 -0.0798 -0.1039 -0.3075
 1676WN      WN11780   7.815  10.632   9.864  0.1953  0.1381 -0.0785
 1677WN      WN11781  14.008  10.266   4.845  0.0818  0.0775  0.1089
 1678WN      WN11782   0.057   4.746   3.107 -0.1441 -0.0429  0.0622
 1679WN      WN11783   5.416   8.571  13.428 -0.1645 -0.2310 -0.1923
 1680WN      WN11784   0.804   3.985  10.934  0.2446 -0.0842 -0.3430
 1681WN      WN11785  14.202   5.282   4.276 -0.1092  0.0100  0.0412
 1682WN      WN11786  10.531   9.724   0.513 -0.3651  0.1771 -0.2656
 1683WN      WN11787  11.032  10.932  11.166 -0.2160  0.2613  0.3782
 1684WN      WN11788   8.833  14.129   3.737  0.2481  0.2564 -0.3562
 1685WN      WN11789   9.163   7.984  11.808 -0.0686  0.0096  0.0216
 1686WN      WN11790   2.715   8.369  12.527 -0.1368 -0.2362  0.0687
 1687WN      WN11791  11.624   4.640   0.939  0.0037 -0.2371  0.0064
 1688WN      WN11792   1.784  13.725  10.228  0.2378 -0.0366  0.0986
 1689WN      WN11793   9.308   2.382   3.075 -0.1062  0.0416  0.1749
 1690WN      WN11794  13.176  10.315  10.257 -0.0497  0.1406 -0.1368
 1691WN      WN11795   0.415  14.126  11.422 -0.0651  0.2524 -0.1002
 1692WN      WN11796  12.250  11.577   4.002 -0.3063 -0.0762  0.1287
 1693WN      WN11797   5.897  10.017   9.528 -0.0368 -0.1280  0.3586
 1694WN      WN11798   6.846   0.803   1.690 -0.0558  0.1217 -0.2142
 1695WN      WN11799  13.312   7.089   5.010  0.1303 -0.1436 -0.0078
 1696WN      WN11800  12.325   7.014   4.194 -0.0047  0.0425 -0.2466
 1697WN      WN11801  12.423   4.231   2.260  0.1842  0.1433 -0.0413
 1698WN      WN11802   7.345   9.331  13.064  0.3853  0.1555 -0.0935
 1699WN      WN11803   7.637  12.818  12.737  0.1336 -0.0358 -0.0102
 1700WN      WN11804   0.598   1.547  10.218  0.0249 -0.2944 -0.0367
 1701WN      WN11805   8.253   4.864   8.238 -0.0138  0.0766  0.1103
 1702WN      WN11806  10.797   3.701   9.602  0.2174  0.0755 -0.4349
 1703WN      WN11807   1.211   3.281   1.945  0.1093  0.2704 -0.2766
 1704WN      WN11808   0.250   7.461   5.102 -0.0563  0.2467 -0.1532
 1705WN      WN11809   4.954   5.982   0.050  0.0745  0.0360 -0.1318
 1706WN      WN11810  13.995   9.283   3.720 -0.0572 -0.0217 -0.0428
 1707WN      WN11811   2.425   6.886  12.885  0.2050 -0.1544  0.0248
 1708WN      WN11812   3.395   1.420   8.867  0.0369  0.1652 -0.0713
 1709WN      WN11813  10.619   4.569  10.958  0.0920 -0.2529 -0.3078
 1710WN      WN11814   2.008  14.421   9.688  0.0610  0.2771  0.2749
 1711WN      WN11815   9.604   0.582  13.108 -0.0850  0.0491  0.0518
 1712WN      WN11816   7.954  13.821  11.500  0.2882  0.0338  0.1409
 1713WN      WN11817   2.464  15.330   0.370  0.1806  0.4152  0.1029
 1714WN      WN11818   4.913  11.704   3.050 -0.1856  0.1278  0.1228
 1715WN      WN11819  11.695   6.186   1.581  0.3440 -0.4639 -0.0196
 1716WN      WN11820   6.777  11.849   3.641 -0.1460  0.0545  0.1733
 1717WN      WN11821   5.224   2.212  12.364 -0.0373  0.3070 -0.3045
 1718WN      WN11822   0.511   7.609   2.551 -0.1488  0.0391 -0.0886
 1719WN      WN11823   6.095   0.918  12.719 -0.1774  0.4220  0.3652
 1720WN      WN11824   5.518   4.543   1.211 -0.0543  0.0987 -0.0153
 1721WN      WN11825   2.430  14.456   3.629 -0.0352 -0.0625 -0.4339
 1722WN      WN11826   6.164   8.708   0.356 -0.0412  0.0727 -0.0086
 1723WN      WN11827   6.467   2.580   2.523  0.0568  0.1691 -0.1151
 1724WN      WN11828   0.264   1.729   0.925 -0.0731  0.0273 -0.2418
 1725WN      WN11829   7.546   4.821   8.471 -0.0214 -0.0935  0.0722
 1726WN      WN11830   8.702  14.660   2.944 -0.3353 -0.2482 -0.0982
 1727WN      WN11831   0.394   7.764  11.329 -0.3019  0.0546 -0.1460
 1728WN      WN11832  14.022   5.812  10.438  0.0584 -0.1401  0.3476
 1729WN      WN11833  13.367   8.755   2.457  0.0851 -0.0019 -0.0977
 1730WN      WN11834   1.702   5.532   5.132 -0.3901 -0.4854 -0.4124
 1731WN      WN11835   1.764  13.785   1.488  0.1423 -0.1676 -0.1195
 1732WN      WN11836  11.458   7.754  11.241  0.1608  0.3517  0.0591
 1733WN      WN11837  11.582  15.623   0.642  0.0586 -0.2209  0.0661
 1734WN      WN11838   9.680   4.439   2.673  0.0250  0.1364 -0.1142
 1735WN      WN11839  15.499  12.202  10.658 -0.1327  0.1621  0.1169
 1736WN      WN11840  10.745  11.548   3.322  0.2581 -0.1897  0.2280
 1737WN      WN11841   9.490  11.258   2.222 -0.0181 -0.2599  0.0321
 1738WN      WN11842  14.661  13.160   5.060 -0.2114  0.3149 -0.1505
 1739WN      WN11843  10.585   5.149   4.039  0.1558 -0.0722 -0.1189
 1740WN      WN11844   1.758  11.676  12.555  0.0108 -0.2312  0.2832
 1741WN      WN11845  15.621  15.711   8.598 -0.5222 -0.0593 -0.2003
 1742WN      WN11846   6.617  12.436  13.400 -0.0765 -0.1175  0.2296
 1743WN      WN11847   0.689  14.250   4.140  0.0295 -0.0201 -0.0473
 1744WN      WN11848   5.895  12.876  11.665 -0.1440 -0.4797 -0.0287
 1745WN      WN11849  12.675   0.111  10.860 -0.2103  0.0616  0.1463
 1746WN      WN11850   0.342   4.791   1.699 -0.0738  0.1148 -0.0184
 1747WN      WN11851  10.620  15.328  13.145  0.0932  0.3212 -0.4107
 1748WN      WN11852   3.873  11.977   9.942 -0.2622 -0.0501  0.0719
 1749WN      WN11853   9.736   6.288  11.003  0.1792  0.0325  0.2085
 1750WN      WN11854   0.347   0.201   3.380 -0.0676  0.0511 -0.1890
 1751WN      WN11855  14.244  11.927  10.822 -0.1511  0.0511  0.2237
 1752WN      WN11856  13.008  15.647  10.286  0.2519  0.1132 -0.1990
 1753WN      WN11857  13.557   4.637  11.405 -0.3109 -0.1790  0.4216
 1754WN      WN11858   1.337   7.366   5.529 -0.1050 -0.0436  0.1592
 1755WN      WN11859   4.687  15.290  10.475 -0.0327  0.0252  0.2216
 1756WN      WN11860  11.937   1.398  12.624 -0.1018 -0.1361  0.2705
 1757WN      WN11861   7.830   8.956  12.441  0.0904 -0.4153 -0.0266
 1758WN      WN11862   3.718  14.813  13.244 -0.1134 -0.0077 -0.0032
 1759WN      WN11863   2.296   8.313  13.296 -0.1837  0.2513  0.0336
 1760WN      WN11864   5.410   9.810   9.935 -0.1144 -0.1514 -0.0898
 1761WN      WN11865   0.600   5.359   4.801 -0.0299 -0.3926  0.1141
 1762WN      WN11866   0.048   3.385   9.774  0.2393 -0.1140  0.2404
 1763WN      WN11867   4.992   9.152   3.279  0.0871  0.1204 -0.0782
 1764WN      WN11868   0.511   4.930   1.081  0.1837 -0.1600  0.0586
 1765WN      WN11869   0.147   5.911   2.556 -0.0035 -0.1443  0.0309
 1766WN      WN11870  12.883   0.426  10.427 -0.2312  0.1211 -0.1800
 1767WN      WN11871   8.697   9.453  11.578  0.2047 -0.0623  0.0349
 1768WN      WN11872  11.183   5.727   2.275 -0.1045  0.0136  0.0075
 1769WN      WN11873   1.751   2.011  12.581 -0.4110 -0.0111  0.5265
 1770WN      WN11874   7.800  10.218  11.663  0.0024  0.0240  0.2136
 1771WN      WN11875  11.841  15.336  12.739 -0.2444  0.0866 -0.0035
 1772WN      WN11876   0.462   8.168   1.635 -0.0166  0.0456  0.3833
 1773WN      WN11877   8.080   3.548   2.771  0.2162  0.0484  0.2053
 1774WN      WN11878   5.334   6.272   3.843  0.0811 -0.0984 -0.1343
 1775WN      WN11879   0.974   1.099   2.938 -0.0574 -0.1005 -0.1291
 1776WN      WN11880  12.270   5.133   3.984 -0.0060 -0.1416 -0.0182
 1777WN      WN11881   7.764  14.462   9.645 -0.1644 -0.1795  0.3658
 1778WN      WN11882   3.844  10.456   0.792 -0.0349 -0.0660  0.1461
 1779WN      WN11883   4.616  14.262   2.649  0.1250 -0.1998  0.0801
 1780WN      WN11884   6.220   9.626   3.257  0.1217 -0.2657 -0.0608
 1781WN      WN11885   2.284   4.616   0.703  0.0509  0.3022 -0.0172
 1782WN      WN11886  13.618   3.228   4.348 -0.1285  0.2479  0.1317
 1783WN      WN11887  13.205   3.749  12.588  0.1585  0.0703 -0.0127
 1784WN      WN11888  13.006   7.998  10.379 -0.0878 -0.2264 -0.1626
 1785WN      WN11889   9.485  14.101   0.756  0.0301 -0.1208  0.0296
 1786WN      WN11890   3.428   8.651   1.275  0.0503  0.1191  0.2033
 1787WN      WN11891   0.205  13.571   3.582 -0.2167  0.0988  0.0462
 1788WN      WN11892  10.328   4.002  10.407  0.3174 -0.1426 -0.1770
 1789WN      WN11893   7.933   4.943   9.418 -0.3150  0.2142 -0.1828
 1790WN      WN11894   3.581  14.366   2.491 -0.0250  0.0123 -0.0210
 1791WN      WN11895   5.083   7.142   3.608 -0.0981  0.2680  0.0549
 1792WN      WN11896  15.055  12.760   9.740  0.0876 -0.1500 -0.1232
 1793WN      WN11897   9.226  15.565   1.355  0.4269 -0.2997 -0.2043
 1794WN      WN11898  14.931   6.835   0.741 -0.0164  0.0708 -0.0092
 1795WN      WN11899   9.775   3.547   0.788  0.0288 -0.2120  0.0928
 1796WN      WN11900  11.979  13.629  13.357  0.2599 -0.2462  0.1598
 1797WN      WN11901   9.033   3.521   0.306 -0.0236  0.1605  0.1083
 1798WN      WN11902   8.586   3.495   3.206  0.0098  0.2114  0.0532
 1799WN      WN11903  12.533  15.256   1.745 -0.1237  0.0467 -0.0968
 1800WN      WN11904   5.235  12.337  11.655  0.1283  0.1671  0.0073
 1801WN      WN11905   7.732   5.959   3.249  0.1043  0.1475 -0.1886
 1802WN      WN11906   9.780  10.483   4.628  0.0141 -0.2693 -0.1273
 1803WN      WN11907  12.057   6.539   2.859  0.1925  0.0455 -0.2586
 1804WN      WN11908   0.823   3.780  11.612  0.1007 -0.1605 -0.0196
 1805WN      WN11909   0.289   3.262   0.408  0.0417  0.2736  0.0235
 1806WN      WN11910   6.512  14.622  11.666  0.0552  0.2950  0.1001
 1807WN      WN11911   8.472   8.607   9.688 -0.0904 -0.2099 -0.2776
 1808WN      WN11912   3.196  11.716   3.524 -0.1750  0.1467  0.1318
 1809WN      WN11913  11.264   0.547   1.062 -0.1291 -0.1691 -0.2610
 1810WN      WN11914   8.341   3.646   1.023 -0.4127 -0.1247  0.1313
 1811WN      WN11915   7.244   1.696   2.839  0.0286  0.1214  0.0163
 1812WN      WN11916   1.642   9.337   4.663  0.0293 -0.3709 -0.0762
 1813WN      WN11917   8.195   0.760  12.522  0.1740 -0.0108  0.1198
 1814WN      WN11918   2.648  12.833  13.226 -0.0968 -0.1384  0.1938
 1815WN      WN11919   9.342   1.386   9.418  0.3939  0.4166 -0.2316
 1816WN      WN11920   0.811   3.296   2.420  0.1418  0.0196 -0.1762
 1817WN      WN11921  10.537   0.780  13.294  0.0598  0.1045  0.0120
 1818WN      WN11922  12.775   8.656   4.285 -0.1235  0.0032 -0.1397
 1819WN      WN11923   7.647  12.879   1.289 -0.3128  0.0292 -0.2916
 1820WN      WN11924   1.879   5.122   2.802  0.0920  0.0353  0.0841
 1821WN      WN11925  14.078   1.752   9.387  0.2809  0.0491  0.0159
 1822WN      WN11926   5.981   0.265   3.212 -0.0379 -0.1856 -0.3080
 1823WN      WN11927   1.266   8.887  13.435 -0.0947  0.1001 -0.1053
 1824WN      WN11928   6.837  12.142   2.161  0.1554  0.0539 -0.0900
 1825WN      WN11929   3.173   4.951  11.823 -0.1632  0.1574  0.1300
 1826WN      WN11930   1.572   5.402   0.818  0.0843  0.0143  0.1336
 1827WN      WN11931  14.142  15.522   9.843 -0.0940 -0.1981  0.0225
 1828WN      WN11932  10.343  11.789   3.405  0.1783 -0.1107  0.2860
 1829WN      WN11933   8.732  12.131  12.313  0.0454  0.1809  0.0021
 1830WN      WN11934   7.680   6.663   0.040 -0.1646  0.2086 -0.0164
 1831WN      WN11935   3.960  12.054   1.161  0.2219 -0.0830 -0.1531
 1832WN      WN11936  13.625  13.647   2.721 -0.2806  0.2368 -0.0068
 1833WN      WN11937   2.832   7.555   3.120 -0.1351 -0.1724  0.1992
 1834WN      WN11938   5.866   3.695   3.074 -0.2588 -0.1719  0.1764
 1835WN      WN11939   0.231  11.754   4.067  0.0825 -0.2862  0.1553
 1836WN      WN11940  15.430   0.820   1.212  0.4744  0.1198  0.1106
 1837WN      WN11941  12.223   3.954   0.782  0.0322  0.0464 -0.1699
 1838WN      WN11942   3.935  14.261   3.302 -0.0350  0.0149 -0.0685
 1839WN      WN11943  13.152   9.032   9.463 -0.1379 -0.3939  0.1735
 1840WN      WN11944   5.113   7.675   3.726 -0.0046  0.0197  0.2359
 1841WN      WN11945  12.097   8.883  11.579 -0.0442 -0.0605  0.1377
 1842WN      WN11946   0.881   3.703   2.134  0.0181 -0.1370 -0.0905
 1843WN      WN11947   1.226  15.080   2.056  0.0391 -0.0693  0.0712
 1844WN      WN11948   1.966  10.806   5.565 -0.1794 -0.2227 -0.0181
 1845WN      WN11949   5.467   1.931   1.357  0.0167 -0.0712 -0.2559
 1846WN      WN11950   7.958   2.152   9.372 -0.0863 -0.1282  0.1426
 1847WN      WN11951   4.714   7.810   1.357 -0.0190  0.3358  0.0283
 1848WN      WN11952   1.390  15.596  12.249 -0.0806  0.0358  0.1605
 1849WN      WN11953  15.610   8.236   4.469 -0.0804  0.2096  0.1296
 1850WN      WN11954   4.729   0.315   0.375  0.0145 -0.1335 -0.0369
 1851WN      WN11955  12.630   7.786   2.470 -0.1005 -0.1645 -0.0744
 1852WN      WN11956   2.805  12.341  13.292  0.0832 -0.1787 -0.0476
 1853WN      WN11957  13.773   6.523   4.602 -0.2030  0.1630 -0.1175
 1854WN      WN11958  11.663  13.176  11.433  0.1008 -0.1837  0.2546
 1855WN      WN11959  10.483   6.691   0.422  0.0051 -0.0632  0.1132
 1856WN      WN11960   0.026   4.973   1.298 -0.2813  0.3880  0.0241
 1857WN      WN11961   7.168   7.166  13.073  0.1178 -0.0747 -0.0404
 1858WN      WN11962   9.708   4.938   1.092 -0.0166  0.0888  0.2300
 1859WN      WN11963   3.435  14.809  10.637  0.1584 -0.3354  0.2295
 1860WN      WN11964  15.356   2.143   1.693 -0.0112  0.0940 -0.2638
 1861WN      WN11965  14.088  15.046   9.910 -0.2537 -0.0156 -0.0804
 1862WN      WN11966  12.889   9.001   5.626  0.1683 -0.0553 -0.1458
 1863WN      WN11967  14.234   1.618  12.598  0.1585  0.1751 -0.2015
 1864WN      WN11968   3.926  11.182  10.801 -0.1936  0.0333 -0.2255
 1865WN      WN11969   5.523  14.244  10.123  0.1813 -0.5475 -0.0569
 1866WN      WN11970  12.011   8.297  11.815  0.0221  0.2604 -0.1916
 1867WN      WN11971   0.218  11.984   1.247  0.2477 -0.0458 -0.1268
 1868WN      WN11972   0.670   1.385   0.646  0.5055  0.0176  0.1906
 1869WN      WN11973  10.802  13.296   3.908 -0.0035  0.1073  0.5050
 1870WN      WN11974   5.354   0.217   3.696 -0.2563 -0.1722  0.0764
 1871WN      WN11975  15.691  10.238   3.463  0.1219 -0.0125 -0.4039
 1872WN      WN11976   1.807   3.551   3.658 -0.1501 -0.2963  0.0699
 1873WN      WN11977   4.422   4.637  13.333 -0.4121 -0.1853  0.1681
 1874WN      WN11978  14.451  12.995   3.987 -0.0760 -0.1690  0.2472
 1875WN      WN11979   0.080  15.394   0.406  0.0842  0.1579  0.0541
 1876WN      WN11980  11.341  11.396  11.333  0.1698 -0.3886  0.2628
 1877WN      WN11981  12.262   1.153   9.179  0.1329 -0.0657  0.0126
 1878WN      WN11982   4.461   5.373  12.915 -0.0037  0.1754  0.0628
 1879WN      WN11983   1.030   5.105   9.480 -0.0771  0.2940  0.1892
 1880WN      WN11984   2.468  11.128   1.889 -0.0267  0.1591  0.2144
 1881WN      WN11985   8.834   4.866   4.037 -0.0897 -0.2372 -0.0587
 1882WN      WN11986   0.550   2.037   2.690  0.0468  0.1431 -0.1504
 1883WN      WN11987   2.241  10.195  10.729  0.0697 -0.2336  0.1619
 1884WN      WN11988   4.714   6.826   0.537 -0.2503 -0.1181  0.2815
 1885WN      WN11989   5.205   4.001   2.500  0.3350 -0.2652 -0.0015
 1886WN      WN11990   1.608  12.617   3.469 -0.0015 -0.2618  0.0370
 1887WN      WN11991   0.009   7.791  12.398 -0.2775 -0.0241 -0.0350
 1888WN      WN11992  12.171   6.557  12.691 -0.1216 -0.0590  0.1594
 1889WN      WN11993   8.882   0.286   0.682  0.3106  0.1721 -0.2643
 1890WN      WN11994   4.047   4.695  11.771 -0.0605 -0.1964  0.0491
 1891WN      WN11995   0.092   4.725  10.285 -0.3393  0.1346  0.1474
 1892WN      WN11996   7.865  14.049   9.398  0.1627 -0.1361 -0.1109
 1893WN      WN11997   0.703  12.038   3.977 -0.2983 -0.1187 -0.0662
 1894WN      WN11998   0.146  10.078  10.605  0.1167 -0.4345 -0.1703
 1895WN      WN11999   3.387  13.008  11.194  0.0343  0.0645  0.0125
 1896WN      WN12000   5.928   3.862  11.893 -0.2963  0.0134 -0.1166
 1897WN      WN12001   8.011  12.993  11.318 -0.2404 -0.1387  0.2438
 1898WN      WN12002   2.040   7.919  12.012  0.1252  0.3779 -0.1817
 1899WN      WN12003   8.201   4.219   8.387 -0.1552  0.2941 -0.1309
 1900WN      WN12004  10.131   9.704   4.464 -0.3708  0.4420 -0.1052
 1901WN      WN12005   0.969   4.864  10.167  0.2080  0.1696  0.0967
 1902WN      WN12006   2.143  11.163  10.847  0.1709 -0.1250  0.0854
 1903WN      WN12007   5.120  13.518  10.741  0.0226  0.3013 -0.2009
 1904WN      WN12008  14.726  10.091   0.815 -0.1722  0.0860 -0.3245
 1905WN      WN12009  10.047   2.508   8.722 -0.1001 -0.4951  0.2904
 1906WN      WN12010   4.960  14.128   8.760  0.0628 -0.0633 -0.0325
 1907WN      WN12011  12.254  11.001   3.017  0.1595  0.1340 -0.2732
 1908WN      WN12012  11.592   2.949   2.790 -0.0191 -0.5727 -0.0951
 1909WN      WN12013   4.782   4.598  12.279  0.0764  0.2171  0.0599
 1910WN      WN12014  12.799  14.592   0.051 -0.2723  0.0467  0.0114
 1911WN      WN12015   2.682   8.045   1.652  0.1115 -0.2190 -0.1976
 1912WN      WN12016   1.564   9.398   4.072 -0.0761 -0.0246 -0.2256
 1913WN      WN12017   9.276   3.321  11.323  0.1852 -0.1193  0.1542
 1914WN      WN12018   4.529   6.820   9.454  0.1202 -0.1646 -0.4675
 1915WN      WN12019   2.455   0.529   9.880 -0.1061 -0.0448  0.0889
 1916WN      WN12020   2.105   7.692   5.597 -0.0069  0.2584 -0.0918
 1917WN      WN12021   4.996   8.623   2.495  0.0881 -0.0329 -0.1777
 1918WN      WN12022  11.196   6.768   0.357  0.0275  0.0720 -0.1670
 1919WN      WN12023  15.474   5.747   0.309  0.2122 -0.0204  0.0002
 1920WN      WN12024   8.120  15.733   2.147 -0.0730 -0.2699  0.0248
 1921WN      WN12025   7.468   1.522  11.786  0.0041  0.0594 -0.1791
 1922WN      WN12026  12.219   6.798  10.835  0.3155  0.1180 -0.2791
 1923WN      WN12027  11.046   0.347   2.908 -0.1765 -0.1255 -0.1915
 1924WN      WN12028   7.940   7.855   0.183  0.3369 -0.0118  0.0451
 1925WN      WN12029   8.964   5.790   1.725 -0.0139  0.2514 -0.1982
 1926WN      WN12030   0.724   6.699   5.088 -0.2541 -0.3967 -0.1604
 1927WN      WN12031  12.067  12.918  10.911 -0.1712 -0.0525  0.0939
 1928WN      WN12032  11.711   3.398   3.715 -0.2446  0.1819 -0.2732
 1929WN      WN12033   6.065   6.316   1.258 -0.2834  0.1664  0.1426
 1930WN      WN12034   4.346   6.038  11.916 -0.0999  0.0422  0.4536
 1931WN      WN12035   5.393  14.493   3.781  0.0032 -0.1864  0.2761
 1932WN      WN12036   0.172   9.447   5.170 -0.3060 -0.5659 -0.2168
 1933WN      WN12037   2.468   0.521   2.869  0.0896 -0.0859  0.1214
 1934WN      WN12038  14.625  14.902   0.776  0.0842 -0.0297 -0.0193
 1935WN      WN12039   3.582  13.827   2.579 -0.1970 -0.0916 -0.0675
 1936WN      WN12040  11.479   0.773  11.908 -0.0066  0.2526 -0.2825
 1937WN      WN12041   6.664   9.799   9.946  0.1757 -0.1276 -0.0769
 1938WN      WN12042  12.732   4.985   3.717  0.4114 -0.1536  0.1205
 1939WN      WN12043   2.483   1.595   0.946 -0.3003  0.0086  0.0707
 1940WN      WN12044  12.555  11.305   1.165 -0.0492  0.0667  0.2529
 1941WN      WN12045   8.167   1.157  13.214 -0.0408  0.1741  0.0319
 1942WN      WN12046   0.046   7.795   0.733  0.3772  0.0301  0.1593
 1943WN      WN12047  13.603   6.057   2.435 -0.2846 -0.1000 -0.3497
 1944WN      WN12048   2.852  10.595   2.667 -0.1412 -0.3679  0.1225
 1945WN      WN12049   5.107   7.853   2.106  0.2479  0.2535 -0.2154
 1946WN      WN12050  13.707   4.130  11.394  0.1459 -0.0035 -0.2790
 1947WN      WN12051   7.351  11.625  10.401 -0.3490 -0.0981  0.1054
 1948WN      WN12052   9.307  13.181   1.268  0.0254  0.1658 -0.0424
 1949WN      WN12053  14.893   1.766   9.918 -0.0869 -0.1590  0.0832
 1950WN      WN12054   7.254   4.197   1.811 -0.0299 -0.1905  0.0337
 1951WN      WN12055   7.719  11.047  10.181  0.1575 -0.1338 -0.1109
 1952WN      WN12056  10.604   0.784   1.169 -0.1220 -0.1299  0.1339
 1953WN      WN12057   7.910   8.225   4.153  0.2854  0.4948  0.1367
 1954WN      WN12058   2.030  12.462   2.619  0.0557  0.1774  0.0666
 1955WN      WN12059   9.584   7.203   2.462  0.0736 -0.2343 -0.2908
 1956WN      WN12060  10.619  11.511  13.300 -0.2449 -0.2678  0.0883
 1957WN      WN12061   9.872   7.457   9.730 -0.4690  0.2839  0.1722
 1958WN      WN12062   2.034  14.626  10.239  0.4397 -0.1472 -0.0198
 1959WN      WN12063  13.387  14.924  12.927  0.0023 -0.1872  0.1623
 1960WN      WN12064  11.469   2.350  10.299  0.1334 -0.0957 -0.0247
 1961WN      WN12065   8.793   6.442  10.380 -0.4180  0.2522 -0.0689
 1962WN      WN12066  15.623   1.731   3.739  0.1274 -0.0523  0.0972
 1963WN      WN12067   7.662   2.978   0.156  0.1741  0.1317  0.0114
 1964WN      WN12068  13.885  12.796  11.620 -0.0866 -0.2216 -0.0898
 1965WN      WN12069  10.605  12.199  11.737  0.1742 -0.0592  0.0383
 1966WN      WN12070  11.625   4.770   2.672 -0.1128 -0.0095  0.1482
 1967WN      WN12071   2.406  12.706  12.560  0.0824 -0.1687 -0.0361
 1968WN      WN12072   8.997  11.672  11.382 -0.2173 -0.0540 -0.1686
 1969WN      WN12073   9.838   2.966   8.772 -0.0555 -0.2659  0.0445
 1970WN      WN12074   9.116  11.757  12.359  0.1218  0.1825  0.0455
 1971WN      WN12075   0.658  15.076  12.208  0.2267  0.1505  0.1309
 1972WN      WN12076  13.791  11.770   1.367 -0.1707 -0.1666  0.0391
 1973WN      WN12077   8.449   1.629   1.010  0.0225  0.0087 -0.2741
 1974WN      WN12078   2.686   0.243   0.520  0.0295  0.1639  0.1625
 1975WN      WN12079  14.947   7.062  10.372 -0.0696 -0.1264  0.2089
 1976WN      WN12080  12.970   5.358  11.154 -0.0171 -0.0566  0.1344
 1977WN      WN12081   4.642   8.326   1.068 -0.1353 -0.1723  0.0888
 1978WN      WN12082   0.222  13.537   9.496 -0.1506 -0.2192  0.0560
 1979WN      WN12083   5.635   3.956  13.497 -0.1432  0.2655 -0.0030
 1980WN      WN12084   5.897   4.321   3.893 -0.3331 -0.1190 -0.1730
 1981WN      WN12085   8.391   5.235   3.426  0.1572 -0.0567  0.0652
 1982WN      WN12086  10.683   0.570   2.052 -0.1577  0.1057 -0.0103
 1983WN      WN12087   3.867   4.258   9.875 -0.2504 -0.1733 -0.3841
 1984WN      WN12088   7.104  10.094   0.291 -0.0355  0.3454 -0.2353
 1985WN      WN12089   5.986  14.930   7.749 -0.1974  0.3537  0.1587
 1986WN      WN12090   2.938   2.085  10.963  0.0638 -0.2590 -0.2324
 1987WN      WN12091  11.523  15.333  12.246 -0.0893 -0.1663  0.0956
 1988WN      WN12092  13.735   8.816  13.302  0.1319  0.2988  0.4769
 1989WN      WN12093  14.448   4.001  10.056 -0.0303 -0.0686 -0.3199
 1990WN      WN12094  14.089  15.019   0.378  0.0724  0.1254 -0.5185
 1991WN      WN12095   5.105  12.392   3.813  0.1893 -0.3147  0.1673
 1992WN      WN12096   5.078  10.422   1.974  0.0743 -0.0160 -0.2230
 1993WN      WN12097   6.420   1.572   0.434 -0.0516  0.2855  0.0951
 1994WN      WN12098   2.049   3.908  10.925 -0.1372  0.1056 -0.1916
 1995WN      WN12099   0.658  12.716  13.512 -0.0452 -0.1306  0.2865
 1996WN      WN12100  10.179   3.854  12.263 -0.3224 -0.0608 -0.0674
 1997WN      WN12101   7.386   2.345   9.231 -0.2895  0.2020 -0.1030
 1998WN      WN12102   1.205   4.446   9.933  0.1485  0.1834 -0.0980
 1999WN      WN12103   8.898   3.239  10.389  0.1095 -0.1516 -0.3383
 2000WN      WN12104   0.524  10.401  10.550 -0.2530  0.2363  0.2893
 2001WN      WN12105   6.146   8.265  11.127 -0.1973  0.0653  0.0214
 2002WN      WN12106   5.194   0.189  13.434  0.0431  0.0344 -0.2428
 2003WN      WN12107  15.306   4.238  12.014 -0.0564  0.0770 -0.1315
 2004WN      WN12108   8.317   1.096  11.789  0.0360 -0.3997  0.0377
 2005WN      WN12109   1.504   9.768  11.596 -0.3073  0.3815  0.1554
 2006WN      WN12110  15.021  15.657  13.280 -0.0876 -0.1504 -0.1510
 2007WN      WN12111   3.761   6.250   1.455 -0.2432  0.0881 -0.1445
 2008WN      WN12112   6.748   6.196   1.808 -0.0247  0.4046 -0.0366
 2009WN      WN12113  15.215  12.742  12.494  0.1181 -0.0393  0.2687
 2010WN      WN12114  10.219   3.400   9.070  0.3593 -0.1815 -0.0555
 2011WN      WN12115   3.832  12.565   4.441 -0.1061 -0.3100 -0.0614
 2012WN      WN12116   0.794   8.084   1.238 -0.1516  0.1388  0.1414
 2013WN      WN12117   3.985  10.200   0.349 -0.1328 -0.2909 -0.1338
 2014WN      WN12118   7.689   5.295   0.007  0.2452 -0.0960 -0.0288
 2015WN      WN12119  14.936   9.329   0.821 -0.0980 -0.2474 -0.0049
 2016WN      WN12120   4.993   9.946   1.237  0.2164 -0.1046 -0.0794
 2017WN      WN12121   8.184   5.553   2.069 -0.2106  0.1795  0.1913
 2018WN      WN12122   5.714  13.793   1.035 -0.1610  0.0438  0.1963
 2019WN      WN12123   3.423   5.894   3.129 -0.1926  0.3353  0.0671
 2020WN      WN12124   9.780   5.952  12.392 -0.0927 -0.1068 -0.1192
 2021WN      WN12125   8.413   8.014  12.962  0.0110  0.3872 -0.0965
 2022WN      WN12126  10.283   6.035  10.670  0.0652  0.0384  0.0247
 2023WN      WN12127   0.817   7.668  11.895  0.1082 -0.2442 -0.0405
 2024WN      WN12128   6.350   7.583   9.865 -0.3402  0.2339 -0.0313
 2025WN      WN12129   0.630  12.524  13.011 -0.2351  0.1786  0.1774
 2026WN      WN12130  15.532   3.718   9.675  0.0518  0.4930  0.0035
 2027WN      WN12131   0.993   7.057  10.821 -0.0740  0.0426  0.0926
 2028WN      WN12132  13.487   5.806   3.401  0.0221 -0.0202 -0.0354
 2029WN      WN12133   9.754   3.039  12.288  0.2843 -0.1285 -0.0640
 2030WN      WN12134  14.719   6.936   1.231  0.1928 -0.3268  0.1151
 2031WN      WN12135  14.283   6.595  11.997  0.1543  0.2483 -0.0633
 2032WN      WN12136  14.725  14.343  11.808 -0.1013 -0.0322  0.3754
 2033WN      WN12137  15.590   2.919  12.032  0.0605 -0.0492  0.1055
 2034WN      WN12138  12.132   8.831  12.205  0.2361  0.2599 -0.0027
 2035WN      WN12139  12.066  15.593  13.235  0.1485  0.0996 -0.3503
 2036WN      WN12140   5.199   9.715  12.241  0.0306  0.1942 -0.1092
 2037WN      WN12141   4.030  12.424   0.852 -0.3436 -0.0680 -0.2214
 2038WN      WN12142   0.032   7.686  13.170 -0.0268  0.0302 -0.1999
 2039WN      WN12143   8.329   6.697  10.466 -0.1868 -0.2470  0.3132
 2040WN      WN12144   3.576   7.892  12.321  0.3401 -0.2082 -0.1753
 2041WN      WN12145  11.605  14.741  10.574 -0.1427  0.1825 -0.1369
 2042WN      WN12146   4.674  13.793   0.988  0.2196 -0.4210  0.1021
 2043WN      WN12147  10.053   1.010  13.346  0.0881  0.0009 -0.1031
 2044WN      WN12148   2.708   2.145  11.725  0.0674 -0.3307 -0.1634
 2045WN      WN12149   6.474  14.020   1.569 -0.0993 -0.3709 -0.0151
 2046WN      WN12150   7.841   9.395   9.909  0.0611 -0.3755  0.0385
 2047WN      WN12151   7.919   1.393  10.308  0.0671 -0.1533  0.0933
 2048WN      WN12152  12.693  11.312   0.684 -0.0510 -0.1326  0.0795
 2049WN      WN12153  15.449  11.497  11.501  0.1870  0.2209 -0.1204
 2050WN      WN12154   6.140   8.170   0.458 -0.2845  0.3359  0.1053
 2051WN      WN12155  14.370  14.295   9.036 -0.0983 -0.1027 -0.0267
 2052WN      WN12156   8.794   1.264  11.972 -0.2758  0.2137  0.2374
 2053WN      WN12157  12.407   9.257  12.582  0.4555 -0.0660 -0.1468
 2054WN      WN12158   1.445  10.959   4.396  0.3292  0.0210  0.0559
 2055WN      WN12159   3.955   8.227  12.321 -0.0662  0.1617 -0.1721
 2056WN      WN12160  11.760   8.565   0.672 -0.2577 -0.1009 -0.1211
 2057WN      WN12161   5.787  10.197   2.036  0.1779 -0.0367  0.0103
 2058WN      WN12162   9.045   8.460   0.833  0.2336 -0.0580  0.0468
 2059WN      WN12163   9.033   0.437   0.170  0.1005  0.1468  0.0530
 2060WN      WN12164   4.678   0.189   2.430  0.0710  0.1987 -0.2340
 2061WN      WN12165   4.956   0.558   1.612  0.2121 -0.1851 -0.0128
 2062WN      WN12166   2.299  12.715  10.835  0.2911  0.1307  0.0695
 2063WN      WN12167   4.999   5.318  10.316 -0.3163  0.3074 -0.1898
 2064WN      WN12168  13.030   2.280  10.135 -0.2641  0.3030 -0.1319
 2065WN      WN12169   8.735   2.912  12.325 -0.2346 -0.0425  0.1551
 2066WN      WN12170   0.385   2.812   0.653  0.4799  0.1842 -0.2669
 2067WN      WN12171   0.565  10.371   3.847 -0.1158  0.1019 -0.0765
 2068WN      WN12172   2.305   3.429   1.711  0.1245  0.3539 -0.0788
 2069WN      WN12173   7.562  11.090   9.763  0.0581  0.1192  0.0745
 2070WN      WN12174   4.377  10.554  10.511 -0.3235  0.1110  0.1506
 2071WN      WN12175   3.377  15.433   0.159  0.0590  0.0231 -0.1015
 2072WN      WN12176   3.033   5.526   4.819  0.1928  0.1440 -0.0791
 2073WN      WN12177   8.421  11.212   0.257  0.1093 -0.0554  0.0981
 2074WN      WN12178  15.248  11.473  13.305 -0.1264  0.3745 -0.1334
 2075WN      WN12179   6.892   7.388  11.381 -0.0931 -0.2902  0.0406
 2076WN      WN12180   7.809  15.066  10.310 -0.1734  0.0893  0.1277
 2077WN      WN12181   4.851   1.869  13.260  0.0043 -0.0587 -0.3797
 2078WN      WN12182   4.625  10.078   3.489  0.2457  0.3566  0.1040
 2079WN      WN12183   8.608  14.463   0.097 -0.1966 -0.0837 -0.1958
 2080WN      WN12184  10.524   3.579   1.894  0.0965  0.0375  0.1385
 2081WN      WN12185  13.318  12.314   0.267 -0.0679  0.1409  0.1023
 2082WN      WN12186  10.145   0.474   2.528 -0.0609  0.0634 -0.1707
 2083WN      WN12187   6.425   4.810   9.600  0.2918 -0.0875 -0.1022
 2084WN      WN12188   1.428   6.557  12.839  0.0724 -0.0196  0.1871
 2085WN      WN12189   1.000   9.306   0.104 -0.1455 -0.1453  0.1415
 2086WN      WN12190   2.129   1.253   8.947  0.0944 -0.0963 -0.1499
 2087WN      WN12191  10.824  14.701  11.727  0.2416  0.2997 -0.0737
 2088WN      WN12192   7.499  10.485   3.939  0.0329 -0.0662  0.1015
 2089WN      WN12193   6.992  14.133   1.363 -0.4378  0.1489  0.0694
 2090WN      WN12194   0.441  14.653  10.660  0.3502  0.1713 -0.2267
 2091WN      WN12195  13.562   9.119   3.795 -0.0795 -0.0804 -0.1847
 2092WN      WN12196   3.835  15.560   0.063 -0.0349  0.0497 -0.1542
 2093WN      WN12197   1.161   8.349   5.104 -0.2907  0.0211 -0.0230
 2094WN      WN12198  12.893  13.355  13.130 -0.0770  0.2240 -0.0429
 2095WN      WN12199   4.825   6.888  12.582  0.1387 -0.0606  0.0448
 2096WN      WN12200   3.185   9.962  12.641  0.0121 -0.1818 -0.6031
 2097WN      WN12201   1.361  10.658   3.926 -0.1883 -0.0765 -0.0870
 2098WN      WN12202   9.190  15.079   9.627 -0.2475  0.1723 -0.0131
 2099WN      WN12203   5.879   1.576   8.122  0.1460  0.2971 -0.0635
 2100WN      WN12204   8.002   8.535   2.038 -0.1663  0.0721 -0.2385
 2101WN      WN12205   5.351  13.229  11.431 -0.1184  0.5855  0.2347
 2102WN      WN12206  12.483  11.972  12.470  0.0264  0.3917  0.3343
 2103WN      WN12207   6.065  14.130   0.922  0.0866  0.0369 -0.1639
 2104WN      WN12208  10.875  12.176   9.110 -0.3134 -0.0937 -0.3474
 2105WN      WN12209   5.499   2.482   9.223  0.2478 -0.0336  0.1446
 2106WN      WN12210  10.929   6.458   4.481  0.0930 -0.0816 -0.0997
 2107WN      WN12211   1.276  11.222  11.935 -0.0916 -0.1754 -0.3469
 2108WN      WN12212  13.309   6.018   3.894  0.2220  0.1329  0.0166
 2109WN      WN12213  11.588   5.787  12.226 -0.0177 -0.0894  0.1618
 2110WN      WN12214   6.793  10.171  11.817  0.1673  0.0585 -0.5710
 2111WN      WN12215   0.338  13.365   2.456 -0.0606  0.1006  0.0144
 2112WN      WN12216   4.702   6.085  12.583 -0.1087 -0.1770 -0.1355
 2113WN      WN12217  11.914   3.381   1.551  0.0076  0.3214 -0.1197
 2114WN      WN12218   0.155  11.466   4.924  0.0373  0.2595 -0.0901
 2115WN      WN12219   8.279   5.734  12.294  0.2842  0.1400  0.1483
 2116WN      WN12220   9.882   3.544  12.446  0.2627 -0.0150 -0.0136
 2117WN      WN12221  15.625   9.793  12.564  0.1887  0.2967 -0.3937
 2118WN      WN12222   4.400  15.663  11.255 -0.2814 -0.1553 -0.0734
 2119WN      WN12223   3.446   5.197  12.845 -0.2019  0.1333  0.2018
 2120WN      WN12224  12.778  10.260   3.304  0.0848 -0.1794 -0.2172
 2121WN      WN12225  14.108   3.605   1.907 -0.1780 -0.1821  0.0932
 2122WN      WN12226   1.284  10.190  11.789  0.4241  0.1148 -0.2756
 2123WN      WN12227   2.152   4.989  11.949 -0.0932 -0.5135 -0.4195
 2124WN      WN12228   0.378   5.243  13.340  0.1454 -0.1405  0.0112
 2125WN      WN12229   0.504   2.428   0.355 -0.0822 -0.1518 -0.2544
 2126WN      WN12230   7.903  13.891   1.443  0.3971  0.2302  0.3301
 2127WN      WN12231   1.305   0.297  11.133 -0.0956  0.3563  0.6079
 2128WN      WN12232  15.665  15.587   2.536  0.0200  0.0221  0.1191
 2129WN      WN12233  11.889   4.838   2.189 -0.1357 -0.2063  0.1252
 2130WN      WN12234  13.513   2.744  11.688  0.0062 -0.2466 -0.0817
 2131WN      WN12235  10.017   7.561   2.278  0.0793 -0.2015  0.0731
 2132WN      WN12236   6.377  10.140   3.496  0.3055 -0.1958  0.2915
 2133WN      WN12237  13.447   6.448   4.254 -0.1353 -0.0303 -0.3652
 2134WN      WN12238   2.906   5.227   0.393 -0.0704  0.0509 -0.1626
 2135WN      WN12239   6.225   5.158   4.300 -0.3255 -0.1754  0.4231
 2136WN      WN12240  14.336  11.482  12.886 -0.4770  0.1935  0.2105
 2137WN      WN12241  13.567  13.235   4.322  0.0486 -0.0570 -0.3484
 2138WN      WN12242   7.756  12.918  10.055  0.2745 -0.0189 -0.0996
 2139WN      WN12243  13.757   2.837   1.891 -0.0652  0.3481 -0.1314
 2140WN      WN12244  12.181   1.713   1.631  0.0825  0.0477 -0.2585
 2141WN      WN12245  14.073  13.104   3.521 -0.2265  0.2337 -0.3827
 2142WN      WN12246   4.193   0.684  10.226 -0.0573 -0.0259  0.0559
 2143WN      WN12247   2.017   6.729   3.011 -0.0901 -0.2601 -0.0360
 2144WN      WN12248   2.469   1.812   2.584  0.0453  0.1272  0.3542
 2145WN      WN12249   3.669  10.785  12.536  0.0474  0.2606 -0.0568
 2146WN      WN12250   6.746   7.711   2.780  0.0349 -0.2227 -0.0579
 2147WN      WN12251   8.081   0.772   1.551  0.1466 -0.0886  0.2236
 2148WN      WN12252   4.363  10.879  10.906  0.1744 -0.3523 -0.0988
 2149WN      WN12253  13.378   6.354   4.958  0.1442 -0.0858  0.1205
 2150WN      WN12254  11.207   4.980  12.294 -0.0174 -0.2281 -0.0128
 2151WN      WN12255  15.621  14.893  10.444 -0.1155  0.0590  0.1684
 2152WN      WN12256   0.217  15.574   3.037  0.0118 -0.0439  0.3519
 2153WN      WN12257   0.083   7.748   2.277  0.0554  0.1495 -0.0632
 2154WN      WN12258  11.601   2.927   4.311  0.1441 -0.0396 -0.0393
 2155WN      WN12259   4.444   4.032  10.665  0.0094  0.1642  0.2045
 2156WN      WN12260   6.752   7.048  10.495  0.0860 -0.1601  0.1908
 2157WN      WN12261  15.354  13.748   9.939  0.1191  0.2042 -0.2023
 2158WN      WN12262   3.105  12.205  11.043 -0.0097  0.3031 -0.1354
 2159WN      WN12263   1.535  13.923   1.978  0.0419  0.0244 -0.3573
 2160WN      WN12264  14.697  14.410   4.547  0.3846 -0.1058 -0.2643
 2161WN      WN12265   6.589   6.908   1.280 -0.2629  0.2440 -0.1044
 2162WN      WN12266   1.624  15.631   3.632  0.2830 -0.0262 -0.3886
 2163WN      WN12267  10.464   6.272  11.652 -0.2339 -0.2270 -0.0504
 2164WN      WN12268  11.592  13.119   0.711 -0.1833 -0.1218  0.1657
 2165WN      WN12269   3.635   7.753   4.731 -0.0193  0.3007 -0.2286
 2166WN      WN12270   9.812  11.957  11.279  0.1263 -0.1515  0.0667
 2167WN      WN12271   4.740  10.015   9.595  0.3241 -0.0406  0.2212
 2168WN      WN12272  14.745   9.990   4.634 -0.1484  0.0681 -0.2821
 2169WN      WN12273   6.301  13.205   1.204 -0.0225  0.3470 -0.2692
 2170WN      WN12274   4.891   7.114   2.960 -0.0469 -0.0599 -0.3812
 2171WN      WN12275   3.638   2.836   8.867  0.1056  0.3279 -0.0521
 2172WN      WN12276   8.350   8.934   4.083 -0.2187 -0.3349 -0.0431
 2173WN      WN12277  10.960  12.200   9.591 -0.1970  0.4904 -0.1265
 2174WN      WN12278  14.989   0.384  10.715  0.1778  0.0680  0.0692
 2175WN      WN12279   8.815   2.544   0.833  0.0754  0.0587 -0.1014
 2176WN      WN12280  11.713   1.025   1.137 -0.1521 -0.2197  0.0422
 2177WN      WN12281   9.844   4.587   9.885 -0.1106 -0.0784  0.1488
 2178WN      WN12282   0.998   3.487   1.450  0.0864 -0.0515 -0.2008
 2179WN      WN12283  13.882   5.221   1.061 -0.0618 -0.6512 -0.0884
 2180WN      WN12284   2.586   2.727   0.199  0.3217 -0.1036  0.0797
 2181WN      WN12285   6.762   9.597   4.389  0.2199 -0.2187 -0.1378
 2182WN      WN12286   8.000   9.942  10.299 -0.0521  0.1134  0.0296
 2183WN      WN12287  13.824  10.971  11.905 -0.2568 -0.0073  0.0470
 2184WN      WN12288   5.511   9.812   3.905  0.0937  0.0234  0.2274
 2185WN      WN12289   4.292  12.378  13.173 -0.3862 -0.2304 -0.0295
 2186WN      WN12290   5.205   5.206  12.915  0.2358  0.0848 -0.2235
 2187WN      WN12291   3.512  10.402   3.192  0.2211  0.3426 -0.2367
 2188WN      WN12292  15.097  12.029   4.990  0.0180 -0.1617  0.0727
 2189WN      WN12293  15.206  10.460   4.554 -0.2249 -0.0193  0.2179
 2190WN      WN12294   5.370   4.955  10.270  0.1420 -0.3934 -0.1420
 2191WN      WN12295   6.758   4.278   1.984  0.0766  0.1094  0.5639
 2192WN      WN12296   7.587   7.359  11.508  0.1254 -0.0396 -0.2494
 2193WN      WN12297  11.990  14.739   2.604 -0.0779  0.0577 -0.1306
 2194WN      WN12298  15.353   7.212   3.376 -0.0880  0.2107 -0.0771
 2195WN      WN12299  15.479   7.097   3.883  0.2702 -0.6279  0.0031
 2196WN      WN12300  14.958   9.080  12.309  0.2861 -0.0650 -0.1859
 2197WN      WN12301   2.673  10.051  13.508  0.2141  0.0811  0.1459
 2198WN      WN12302  15.367   2.148   7.963  0.0841  0.1407  0.0702
 2199WN      WN12303   7.453   6.032  12.499 -0.0687  0.1024  0.1228
 2200WN      WN12304  10.281   3.033   2.489 -0.1905  0.1327 -0.1585
 2201WN      WN12305   4.304  14.423   1.694 -0.1991  0.0960 -0.0949
 2202WN      WN12306   0.822   2.340   2.991 -0.0975 -0.1364  0.4872
 2203WN      WN12307  12.349  15.159   3.635 -0.1643 -0.1620  0.4116
 2204WN      WN12308   6.175  10.424   2.694 -0.0696  0.1755 -0.0229
 2205WN      WN12309  11.499   8.287   4.317 -0.3528 -0.3552  0.0073
 2206WN      WN12310  11.979  15.416   3.338 -0.2687 -0.1970 -0.0008
 2207WN      WN12311  13.422   0.527   1.756  0.0782 -0.1636 -0.0128
 2208WN      WN12312   0.501   1.840   0.462  0.0803  0.1039  0.0050
 2209WN      WN12313   0.956  13.905  11.316 -0.2107  0.1910  0.2029
 2210WN      WN12314  14.724   1.384   7.762  0.0043 -0.0497 -0.3776
 2211WN      WN12315  11.691   0.029   2.025  0.2499 -0.0164 -0.0003
 2212WN      WN12316   6.953   1.298   9.103 -0.0819 -0.2025  0.0203
 2213WN      WN12317   2.419   9.226   4.719 -0.1064  0.0109  0.1023
 2214WN      WN12318   2.705   4.372  10.826 -0.1102  0.3263 -0.2093
 2215WN      WN12319  14.806   3.712   1.531  0.3234 -0.1174 -0.5862
 2216WN      WN12320   0.631   9.492  10.873  0.4727  0.1466  0.0222
 2217WN      WN12321  13.803   1.108   3.757  0.3337 -0.0846  0.3685
 2218WN      WN12322   6.050   6.838  10.036 -0.2002  0.1221 -0.3802
 2219WN      WN12323   4.909   5.388   2.127  0.0416  0.1125  0.0559
 2220WN      WN12324  13.807   2.668  10.876  0.0830  0.1361 -0.1531
 2221WN      WN12325   1.102   0.950   8.472 -0.2820 -0.2218  0.2132
 2222WN      WN12326  13.915  13.221   1.296 -0.1468 -0.2356 -0.2660
 2223WN      WN12327  15.517  10.372   5.102  0.2299  0.2183 -0.0438
 2224WN      WN12328  14.830  11.550  12.924 -0.2241 -0.0392  0.2642
 2225WN      WN12329  10.165   9.084   2.825 -0.3978 -0.0121  0.3160
 2226WN      WN12330  10.526  14.674   1.250  0.0651  0.2165  0.0826
 2227WN      WN12331   6.658   4.218  11.175 -0.0911 -0.0599 -0.1637
 2228WN      WN12332   4.932  14.629   9.084  0.0100 -0.1524 -0.1428
 2229WN      WN12333  14.535   8.129   4.028 -0.1076  0.3372  0.0303
 2230WN      WN12334   5.496   8.327   2.723 -0.3370 -0.1803 -0.2013
 2231WN      WN12335   7.058  10.172  13.291 -0.1978 -0.1330  0.1097
 2232WN      WN12336   8.834   9.823  10.499  0.1735 -0.0057  0.0439
 2233WN      WN12337   4.589  10.079   2.477  0.0514 -0.0678  0.0286
 2234WN      WN12338   9.002   4.277   0.822  0.0238  0.0587 -0.2023
 2235WN      WN12339   3.799   6.809   3.959 -0.1219  0.0967  0.0675
 2236WN      WN12340   4.708  10.381   4.589 -0.1410  0.0107 -0.0949
 2237WN      WN12341   4.379   9.634   3.617 -0.1172 -0.0792  0.3142
 2238WN      WN12342   7.034   0.024   1.428 -0.2526  0.0158  0.1360
 2239WN      WN12343  10.375  13.546  11.396 -0.0484  0.0373 -0.4534
 2240WN      WN12344  13.750  15.570  11.586  0.1654 -0.0552 -0.1911
 2241WN      WN12345  14.010   0.188   9.736 -0.0346  0.0897 -0.0067
 2242WN      WN12346   7.504   8.537  10.708  0.2422 -0.2638 -0.2165
 2243WN      WN12347   4.682   8.338   3.710  0.0242  0.2237  0.1356
 2244WN      WN12348   6.691   3.919   2.942 -0.2126 -0.1724  0.2724
 2245WN      WN12349   3.865   2.882   2.862  0.1152  0.0104  0.3261
 2246WN      WN12350   4.924   4.517   3.816  0.1252  0.0269 -0.0416
 2247WN      WN12351  15.013  10.733   3.842  0.0171  0.1842  0.0720
 2248WN      WN12352   9.424  10.935  10.771 -0.0926  0.1138 -0.1237
 2249WN      WN12353   6.130   1.965  10.006  0.2381 -0.0374  0.2657
 2250WN      WN12354   0.608  15.775   9.848  0.1305 -0.0209  0.1192
 2251WN      WN12355   1.043  12.740  12.145  0.0034 -0.1033  0.2199
 2252WN      WN12356  11.436  10.795   1.805  0.1515 -0.5346 -0.2107
 2253WN      WN12357   8.729   1.201   3.629  0.1046 -0.1696 -0.0313
 2254WN      WN12358   3.180   4.830   1.924 -0.0549  0.3356  0.2453
 2255WN      WN12359   7.581   2.611   0.800 -0.0258  0.1265  0.0340
 2256WN      WN12360  14.824  10.966  12.127 -0.0236  0.0573  0.1365
 2257WN      WN12361   8.226   9.880  11.623  0.1977  0.0539 -0.0548
 2258WN      WN12362  12.108  11.124  13.192  0.0052  0.1775 -0.0588
 2259WN      WN12363   8.168   5.467  11.249  0.2918  0.0273 -0.0047
 2260WN      WN12364   1.603   1.483  10.002  0.2983 -0.1413 -0.0845
 2261WN      WN12365   1.266   3.120   4.506  0.1628 -0.0436  0.1656
 2262WN      WN12366  10.542   5.958  12.107 -0.1535 -0.3410 -0.1701
 2263WN      WN12367  15.292  10.344   3.886  0.1269  0.1708  0.0217
 2264WN      WN12368   3.625   3.107  11.127  0.0996 -0.2114 -0.2453
 2265WN      WN12369  11.250   5.404  13.313 -0.2042  0.0570  0.0481
 2266WN      WN12370   9.478   7.979  12.936 -0.1636 -0.1121 -0.1114
 2267WN      WN12371   4.881  10.448   1.476 -0.0514 -0.1215 -0.0172
 2268WN      WN12372  11.981   7.054   2.451 -0.2512  0.1507 -0.1424
 2269WN      WN12373   1.857   6.175   3.828 -0.0552  0.0569  0.1573
 2270WN      WN12374   7.521  10.978  12.847  0.1920  0.0186 -0.1858
 2271WN      WN12375  11.956  14.816  10.925  0.0601 -0.2042 -0.1937
 2272WN      WN12376   5.422   4.513   2.642  0.1487  0.2040 -0.0566
 2273WN      WN12377   4.152   2.325  13.444  0.4212  0.5069  0.0758
 2274WN      WN12378  10.597  10.601   0.502 -0.1689  0.0866 -0.2458
 2275WN      WN12379  11.450   0.570   4.027 -0.1144 -0.1609 -0.0682
 2276WN      WN12380  13.496   0.921   8.665  0.0599  0.1119  0.0635
 2277WN      WN12381  10.991   3.161   9.545 -0.4565 -0.1240  0.2219
 2278WN      WN12382   7.056  14.752   1.997 -0.1038  0.1020 -0.0291
 2279WN      WN12383   3.789   1.633   1.213 -0.0042  0.1020  0.0117
 2280WN      WN12384  10.806  10.378  11.873 -0.1000  0.3655 -0.1731
 2281WN      WN12385  13.312  10.496   5.105  0.2254 -0.3716 -0.0324
 2282WN      WN12386  15.630   3.042  13.472 -0.1812  0.0580 -0.0301
 2283WN      WN12387   6.924  15.097  10.893 -0.2308 -0.1114 -0.0817
 2284WN      WN12388   1.861   7.600   5.133  0.1716 -0.1826 -0.1552
 2285WN      WN12389  15.499   5.997   1.654 -0.0481 -0.1315  0.1113
 2286WN      WN12390   2.199   0.658   1.834 -0.0465  0.3172 -0.0372
 2287WN      WN12391   2.875  15.681   9.499 -0.4237 -0.1511  0.5734
 2288WN      WN12392   4.705   7.616   2.877 -0.0874 -0.2291  0.0870
 2289WN      WN12393   4.750   5.573   3.584  0.0449 -0.0888 -0.1371
 2290WN      WN12394  15.093   9.154   1.384  0.1202  0.2146 -0.1872
 2291WN      WN12395  11.177   7.797   1.603 -0.0681 -0.0664 -0.4565
 2292WN      WN12396   7.810  10.669   2.503 -0.1875  0.0173 -0.1473
 2293WN      WN12397  12.377  14.921   9.886  0.2132 -0.2797 -0.0339
 2294WN      WN12398   0.919  11.122  12.302 -0.0413 -0.0687 -0.2597
 2295WN      WN12399  11.704   1.006   1.887  0.2227  0.1917  0.2275
 2296WN      WN12400  13.696   7.686  13.324 -0.0944 -0.1519 -0.1621
 2297WN      WN12401   9.453   5.234  12.963  0.4231 -0.0415 -0.0007
 2298WN      WN12402   1.090   4.691   0.308  0.1356  0.1554 -0.0784
 2299WN      WN12403   3.453   8.954  11.279  0.1215  0.0653 -0.0083
 2300WN      WN12404   3.442  11.119   0.000 -0.0325  0.5402  0.1079
 2301WN      WN12405   2.550   0.237   9.394 -0.1572  0.0736 -0.0865
 2302WN      WN12406   5.357   0.738   1.210 -0.3534 -0.2998 -0.2830
 2303WN      WN12407   0.486   9.163  10.473 -0.0734  0.2986  0.1577
 2304WN      WN12408   7.253  15.493  12.776  0.1871  0.1660 -0.0560
 2305WN      WN12409  14.918   5.069  13.431  0.0607  0.3194  0.6528
 2306WN      WN12410   4.294  14.850  10.357 -0.0720 -0.0356 -0.5464
 2307WN      WN12411  13.580   4.803  12.181 -0.1155  0.1611 -0.3018
 2308WN      WN12412  10.369   9.153  12.689 -0.1878  0.0304  0.5718
 2309WN      WN12413   6.737   6.521   9.283  0.0870  0.1943 -0.5598
 2310WN      WN12414   5.612  13.749   0.169 -0.1405  0.3117  0.0944
 2311WN      WN12415   8.423  12.737   0.673 -0.0801  0.2236  0.1295
 2312WN      WN12416   5.865  10.788   2.675  0.1081 -0.3466 -0.4474
 2313WN      WN12417  12.601   7.524  13.002 -0.2683 -0.3500 -0.1177
 2314WN      WN12418  15.605   8.106   2.545  0.3160  0.0137 -0.0413
 2315WN      WN12419   3.694   1.101   1.049 -0.1285  0.0625 -0.2090
 2316WN      WN12420   4.725  14.402  13.206  0.2442  0.2688 -0.0747
 2317WN      WN12421  10.348  13.271  10.949  0.1172 -0.0894 -0.0699
 2318WN      WN12422  11.605   8.372  12.744 -0.1226 -0.3385 -0.4440
 2319WN      WN12423   1.004  13.793   3.960 -0.1087 -0.1819  0.1833
 2320WN      WN12424   0.087  10.491   0.075 -0.0277  0.2200  0.0411
 2321WN      WN12425   8.527   6.748  13.022  0.2786 -0.1323 -0.2691
 2322WN      WN12426  12.124   2.608   9.148 -0.2557  0.0787  0.2482
 2323WN      WN12427   9.842   6.596   1.182 -0.1160 -0.0579  0.1811
 2324WN      WN12428  10.121   5.412   2.032 -0.0393 -0.1240 -0.0770
 2325WN      WN12429   8.244   3.719   1.895  0.1619 -0.2157  0.0700
 2326WN      WN12430   4.917   8.029   4.053  0.3099 -0.2876  0.1239
 2327WN      WN12431   0.648  10.934   1.345  0.1328  0.3081 -0.0500
 2328WN      WN12432   6.062   2.214   2.695  0.1020 -0.0671  0.2611
 2329WN      WN12433  14.191   7.167   0.867 -0.0597  0.0701 -0.1990
 2330WN      WN12434   8.097  11.302  13.349 -0.0779  0.0199 -0.1554
 2331WN      WN12435  15.623  12.291   0.034  0.0348  0.1671  0.2194
 2332WN      WN12436   2.903   8.534   2.398 -0.1905  0.0194  0.2850
 2333WN      WN12437  15.738   2.880  11.191 -0.0216 -0.4403 -0.0988
 2334WN      WN12438   8.039   5.944   0.307 -0.1566  0.0627 -0.1608
 2335WN      WN12439   9.937   5.070  13.158  0.0274 -0.2480 -0.1624
 2336WN      WN12440   3.835  15.767  12.405  0.0555  0.3802 -0.0018
 2337WN      WN12441  13.535  13.733   8.962  0.2897 -0.2902 -0.0314
 2338WN      WN12442  13.076  12.368   3.507 -0.0157 -0.0285  0.1254
 2339WN      WN12443   7.904   9.107   3.710 -0.0981 -0.3184 -0.0208
 2340WN      WN12444   5.578  12.608   0.165  0.0600 -0.3371  0.3032
 2341WN      WN12445   8.317   9.195  10.418 -0.3164 -0.0752 -0.2334
 2342WN      WN12446   7.167   4.694   8.147 -0.0137 -0.1858  0.0394
 2343WN      WN12447   8.982   9.346   4.736  0.1489 -0.0523 -0.1395
 2344WN      WN12448  12.561   3.719  12.532 -0.2607 -0.0646 -0.1748
 2345WN      WN12449   9.179  12.951  12.559  0.1792  0.0336  0.2747
 2346WN      WN12450   8.505   4.153   0.012  0.1735  0.1252 -0.1348
 2347WN      WN12451   0.472  11.146   4.283 -0.3418 -0.4851 -0.0610
 2348WN      WN12452   8.031   5.629   3.545  0.3013  0.2243 -0.0798
 2349WN      WN12453  12.790   2.328   0.401  0.2329 -0.1287 -0.1026
 2350WN      WN12454  10.526   8.967   4.401 -0.0489  0.4074 -0.1977
 2351WN      WN12455  15.829   5.834   3.810 -0.0597 -0.0290  0.2810
 2352WN      WN12456   6.699  15.516  11.525 -0.0044  0.4172  0.0235
 2353WN      WN12457   8.739  15.110  10.830  0.2514 -0.1807  0.1221
 2354PP      PP12458  13.178   4.209  13.201  0.1014  0.2964 -0.1012
 2355PP      PP12459  14.730   1.506  13.372 -0.2442 -0.0944 -0.1160
 2356PP      PP12460  13.649   7.208   0.632 -0.0315 -0.0236  0.2315
 2357PP      PP12461   1.818   6.945   3.515 -0.0739  0.4069 -0.0069
 2358PP      PP12462  13.990   1.226  11.701 -0.2944  0.0628 -0.2059
 2359PP      PP12463  15.680   1.097   2.517 -0.1656 -0.1907  0.0785
 2360PP      PP12464  11.998  15.451  12.210  0.3084  0.0791 -0.0364
 2361PP      PP12465   3.333   3.209   9.059  0.1326 -0.0339 -0.1174
 2362PP      PP12466  13.168   7.323  10.331 -0.1162 -0.3799 -0.0362
 2363PP      PP12467  12.036   9.478  13.406  0.0571 -0.1881 -0.5211
 2364PP      PP12468  11.492   0.914   9.646  0.0906  0.0141 -0.1393
 2365PP      PP12469   5.491   1.536   1.686 -0.1810 -0.1588 -0.3033
 2366PP      PP12470  12.301  12.741  12.714  0.1279  0.0832 -0.2128
 2367PP      PP12471   3.468  15.762   3.348  0.1612  0.0500 -0.0863
 2368PP      PP12472  12.940   4.457   0.650 -0.1510 -0.0134 -0.1147
 2369PP      PP12473  14.472  10.738   5.462 -0.2223 -0.1270 -0.2146
 2370PP      PP12474   9.755  12.190   0.558  0.1592 -0.3298  0.1534
 2371PP      PP12475   2.658   6.859   4.731  0.0146  0.1889 -0.1255
 2372PP      PP12476   5.784  15.696  11.967  0.0660  0.0643  0.5699
 2373PP      PP12477   3.280  11.122  11.799 -0.1585  0.1207  0.1583
 2374PP      PP12478   7.373   4.296   0.253  0.1122  0.0279  0.0502
 2375PP      PP12479   0.200   1.996   9.013 -0.0816  0.3829 -0.1972
 2376PP      PP12480   3.733   3.459  10.445 -0.0801 -0.1668  0.2638
 2377PP      PP12481   1.364  15.682  10.863  0.2879  0.2028  0.0887
 2378PP      PP12482   7.177   7.416   4.078 -0.0793 -0.3012  0.2678
 2379PP      PP12483   1.429  12.326   3.144 -0.2148 -0.0882  0.0259
 2380PP      PP12484   1.777   3.317   0.031  0.4544 -0.4086 -0.0297
 2381PP      PP12485  15.781   9.138  10.623 -0.0120  0.0774  0.3155
 2382PP      PP12486   4.288   6.525  11.886 -0.1752 -0.1571 -0.2563
 2383PP      PP12487   8.183   7.449  11.577 -0.0127  0.1435  0.2882
 2384PP      PP12488   6.817   2.146  10.487  0.1139  0.0516  0.0777
 2385PP      PP12489  11.216   9.068  13.235 -0.1686  0.0271 -0.1143
 2386PP      PP12490   3.761   1.713   2.879 -0.1025 -0.3341 -0.1341
 2387PP      PP12491  15.538   4.735   0.497 -0.2744 -0.0685 -0.0331
 2388PP      PP12492   7.569  13.815  11.100  0.0324  0.4302 -0.4483
 2389PP      PP12493  14.796   1.610   0.821 -0.0089 -0.2644 -0.3180
 2390PP      PP12494   0.170   6.016  11.000 -0.1214 -0.1898  0.0216
 2391PP      PP12495   7.089  11.770  12.346  0.2139  0.2821  0.3201
 2392PP      PP12496   3.522  10.206   0.254 -0.1436  0.0051  0.1050
 2393PP      PP12497   3.990  12.863   1.113 -0.0096 -0.1126  0.1893
 2394PP      PP12498  11.798   0.993  12.321  0.0406  0.1104  0.0065
 2395PP      PP12499   9.351   0.915   1.701  0.4219 -0.1191  0.1453
 2396PP      PP12500  11.131   6.143   3.542 -0.0753  0.0995  0.2425
 2397PP      PP12501  15.808   7.695  10.226 -0.0177 -0.1579 -0.4503
 2398PP      PP12502  14.366   3.589  11.297 -0.1490 -0.0543 -0.2775
 2399PP      PP12503  12.576  15.359   0.864  0.5315 -0.0423 -0.3358
 2400PP      PP12504  11.792   7.333  10.442 -0.2851 -0.0997  0.3098
 2401PP      PP12505  12.624  11.612   4.505 -0.2528  0.1068  0.1502
 2402PP      PP12506  10.260  13.862  11.918  0.3988  0.2206  0.0543
 2403PP      PP12507   0.232  10.922  13.375  0.0695 -0.0819  0.3814
 2404PP      PP12508  15.290   4.101  10.047  0.0631  0.3183  0.5107
 2405PP      PP12509   1.713   0.417   0.789 -0.3891  0.0918 -0.0909
 2406PP      PP12510  12.503   0.611   2.314  0.0558  0.0205  0.3707
 2407PP      PP12511  12.344   4.364   2.907  0.4048  0.0797 -0.0749
 2408PP      PP12512   9.332  13.120   0.479  0.2058  0.1722  0.0865
 2409PP      PP12513   1.501  10.874   5.549  0.0155 -0.4845 -0.1028
 2410PP      PP12514  11.384  11.388   0.971  0.3773 -0.1399 -0.2978
 2411PP      PP12515   6.080   9.150  10.807 -0.1487  0.1002  0.2870
 2412PP      PP12516   3.576   1.728   0.015 -0.2861 -0.1911 -0.1671
 2413PP      PP12517   2.107  15.506   3.664 -0.0132 -0.0003 -0.2378
 2414PP      PP12518  14.626   9.472  12.178  0.1979 -0.1639 -0.0776
 2415PP      PP12519   0.786   5.057   1.691  0.1669  0.2356  0.0983
 2416PP      PP12520   9.745  14.331   4.035 -0.0413  0.2319 -0.0789
 2417PP      PP12521  14.951   4.691  11.281 -0.2149 -0.2307  0.1718
 2418PP      PP12522  15.357  11.716  11.953 -0.2939 -0.3168  0.2750
 2419PP      PP12523   3.861   4.555   1.250  0.1039 -0.2403 -0.2488
 2420PP      PP12524  13.244   1.047   3.935  0.2260 -0.3473 -0.0377
 2421PP      PP12525  11.767   5.418  13.238  0.0677 -0.0273  0.0927
 2422PP      PP12526   0.211   4.468   2.123 -0.0935  0.0794 -0.5128
 2423PP      PP12527   6.141   3.271   8.138 -0.2342 -0.2369  0.1709
 2424PP      PP12528   3.506   4.048   1.041 -0.1216 -0.0874 -0.2562
 2425PP      PP12529  11.592  13.060   3.853  0.0592  0.5194 -0.1984
 2426PP      PP12530   0.985   0.467   0.821  0.0543 -0.2038  0.0318
 2427PP      PP12531   5.082  12.804  10.559  0.3171  0.0315  0.2756
 2428PP      PP12532   3.827   1.561  10.890 -0.1448  0.2613  0.5219
 2429PP      PP12533   5.875   4.497  11.218 -0.4506 -0.3171  0.0225
 2430PP      PP12534  11.348   1.871   0.685  0.0310 -0.0625  0.2182
 2431PP      PP12535   9.258   3.460   9.316 -0.0859 -0.0114 -0.0328
 2432PP      PP12536   0.161   7.674   4.318  0.0578  0.0094 -0.3039
 2433PP      PP12537   5.662   0.124  11.354 -0.1518  0.5019  0.1182
 2434PP      PP12538   9.541  11.165   9.213  0.1839 -0.2636 -0.0834
 2435PP      PP12539   9.539   8.282   1.345 -0.0549 -0.1552  0.1419
 2436PP      PP12540  15.627   5.731  11.810 -0.1213  0.2652 -0.1452
 2437PP      PP12541   0.917   1.073  13.338  0.0125 -0.1362  0.0731
 2438PP      PP12542   6.976  13.161   4.624 -0.4848  0.1155 -0.4215
 2439PP      PP12543   7.280   8.172   1.680  0.1496  0.1442 -0.1318
 2440PP      PP12544   0.016  11.336   3.799  0.1349  0.1914  0.3380
 2441PP      PP12545   8.837   5.469  10.386  0.0840  0.0980 -0.0841
 2442PP      PP12546  11.499   7.629  11.751 -0.0260 -0.1524 -0.0832
 2443PP      PP12547   3.638   5.393   1.832 -0.0491  0.1153 -0.2069
 2444PP      PP12548   0.131   2.191   1.238  0.2734 -0.1922 -0.1554
 2445PP      PP12549   2.968   8.573   4.553 -0.3146 -0.0518 -0.0057
 2446PP      PP12550  11.324  10.817  12.762 -0.2941  0.1130 -0.0807
 2447PP      PP12551  12.265  11.260  11.488 -0.1827 -0.0442  0.0174
 2448PP      PP12552   0.263   9.809   2.939 -0.0686  0.1413 -0.2268
 2449PP      PP12553   7.996   7.974   2.009  0.1135  0.0684 -0.2258
 2450PP      PP12554  10.472  15.071  10.125  0.1376 -0.2993  0.1996
 2451PP      PP12555   3.335   9.470  11.220  0.2981 -0.1430 -0.0894
 2452PP      PP12556   3.817  13.228  10.947 -0.2379 -0.1209 -0.0033
 2453PP      PP12557   8.930   8.206   4.331  0.1146 -0.1782  0.0523
 2454PP      PP12558  10.462   9.959   1.151  0.2546  0.0335 -0.1040
 2455PP      PP12559   1.407  12.916   3.856  0.2037  0.0583  0.0022
 2456PP      PP12560   7.939   3.535   8.700  0.0901 -0.0412  0.2626
 2457PP      PP12561   6.755   6.139   3.167 -0.1465 -0.0729 -0.0799
 2458PP      PP12562  12.092   7.455   4.174  0.0630 -0.2519 -0.1416
 2459PP      PP12563  15.805  11.430   1.138 -0.0537  0.0999 -0.1661
 2460PP      PP12564   3.154   3.642  12.069  0.0922 -0.2143 -0.0207
 2461PP      PP12565   1.401   5.754   9.993  0.2489 -0.0178 -0.0786
 2462PP      PP12566   7.250  15.233   9.773  0.1811 -0.1233  0.1606
 2463PP      PP12567   2.933   5.034   4.580 -0.0573 -0.0523  0.0268
 2464PP      PP12568  13.892   5.195  12.584  0.0338  0.1058  0.2646
 2465PP      PP12569   7.188   9.659  13.499  0.4172 -0.0609 -0.0591
 2466PP      PP12570   3.870   1.966  12.767 -0.0462  0.1905  0.0372
 2467PP      PP12571   5.604  12.886  10.532 -0.2327 -0.0751  0.1459
 2468PP      PP12572   6.764  14.866   1.611  0.0323 -0.0687  0.2761
 2469PP      PP12573   4.505   7.373  12.292  0.2627 -0.1275  0.1196
 2470PP      PP12574   3.013   6.274   1.648  0.0439 -0.0928  0.1664
 2471PP      PP12575  15.473   1.697  13.027  0.1035  0.1715 -0.0093
 2472PP      PP12576  12.860   5.577  10.108  0.2429  0.1388  0.0920
 2473PP      PP12577  11.564  10.127   9.945 -0.1338  0.2201  0.0723
 2474PP      PP12578   6.637  11.524  12.071 -0.0125  0.0027 -0.1467
 2475PP      PP12579  10.747  11.109   1.185 -0.1612  0.0174  0.2104
 2476PP      PP12580   8.719  14.260   1.375  0.0167 -0.0339 -0.0363
 2477PP      PP12581  11.044   0.652   9.548 -0.1818  0.0008 -0.0512
 2478PP      PP12582   3.487  10.983  13.028 -0.0760 -0.0666 -0.2882
 2479PP      PP12583   0.410   1.490  11.168 -0.0653 -0.1018  0.2876
 2480PP      PP12584  13.712  13.730  10.687 -0.3358 -0.1221 -0.0586
 2481PP      PP12585  14.793   4.270   3.746 -0.0334  0.1622  0.1585
 2482PP      PP12586  15.705  11.320   0.018  0.0112  0.0598 -0.1282
 2483PP      PP12587  11.932   4.214   9.784  0.0183  0.0716  0.1341
 2484PP      PP12588  10.421  14.872   2.468 -0.0767 -0.0579  0.0628
 2485PP      PP12589   9.467   2.395   1.795  0.1154 -0.0128 -0.1210
 2486PP      PP12590  11.394   4.448   3.505  0.1014 -0.1214 -0.0917
 2487PP      PP12591  11.018   8.857   8.772 -0.1787 -0.0749 -0.0482
 2488PP      PP12592   7.826  11.603   4.664  0.0848  0.2881 -0.0955
 2489PP      PP12593   9.118  15.348  10.657  0.0485 -0.0791  0.0072
 2490PP      PP12594   3.606   0.609   0.953  0.0835  0.1311 -0.0815
 2491PP      PP12595   8.090   6.823  12.766 -0.2282  0.2882 -0.3306
 2492PP      PP12596   5.482   9.911   2.976 -0.1781  0.3082  0.1781
 2493PP      PP12597   2.001   6.729   5.013  0.3059  0.0757  0.0447
 2494PP      PP12598  13.864   9.647   2.560 -0.1173  0.3268  0.0036
 2495PP      PP12599  12.813   4.517   3.586 -0.0174 -0.1123 -0.0249
 2496PP      PP12600  14.246   1.334  11.133 -0.0263  0.1768  0.1533
 2497PP      PP12601  11.460   0.129  10.466 -0.0768  0.3626  0.0228
 2498PP      PP12602   1.802  15.126  10.320  0.1626  0.1285 -0.0559
 2499PP      PP12603   4.677   9.681   2.822 -0.1026  0.0287  0.2245
 2500PP      PP12604   3.416   9.887  10.844 -0.1276  0.0190 -0.0839
 2501PP      PP12605   7.270  13.388   8.891  0.1500 -0.5169 -0.2626
 2502PP      PP12606   9.905  10.649   2.857  0.0221  0.2282  0.2268
 2503PP      PP12607  14.023   5.754   0.961  0.1258  0.1806 -0.2203
 2504PP      PP12608   1.173   3.347   2.943 -0.3030 -0.0244  0.0408
 2505PP      PP12609   5.962   5.955  10.772 -0.2966 -0.2744 -0.3615
 2506PP      PP12610   9.087  12.284   4.675 -0.1176 -0.0945  0.1370
 2507PP      PP12611   5.387  14.813   2.834  0.1704 -0.2079  0.2035
 2508PP      PP12612  13.531   0.648   4.341 -0.2010 -0.0661  0.2278
 2509PP      PP12613   2.099   2.848  10.286 -0.0581 -0.1811  0.0668
 2510PP      PP12614   1.193   5.198   4.176 -0.0310 -0.1866  0.1143
 2511PP      PP12615  14.786   3.832  10.478 -0.3135  0.1352  0.0959
 2512PP      PP12616   6.257  12.946   8.661 -0.0558 -0.1252 -0.1242
 2513PP      PP12617   0.222   6.447  10.485  0.0082 -0.2682  0.0197
 2514PP      PP12618   6.774   5.054   0.054 -0.0366 -0.1657  0.2643
 2515PP      PP12619   7.180  15.710   9.689  0.1623  0.0879 -0.1066
 2516PP      PP12620   1.765  14.811   9.837  0.0154 -0.0710 -0.1238
 2517PP      PP12621   4.770   0.067  11.565  0.1116  0.0494 -0.1709
 2518PP      PP12622  15.324  13.118  11.043  0.0619 -0.3101 -0.2563
 2519PP      PP12623   7.835  12.055   3.913 -0.3084 -0.0509  0.2774
 2520PP      PP12624  13.343  10.719  12.463  0.0048 -0.1100 -0.1415
 2521PP      PP12625  12.993   3.466  11.035  0.4585  0.3738 -0.1904
 2522PP      PP12626   7.161  10.637  12.616 -0.0216 -0.1394 -0.0703
 2523PP      PP12627  15.382  15.540   3.690 -0.2236  0.3402  0.2682
 2524PP      PP12628   7.674   8.305  13.488 -0.1733 -0.2719 -0.1159
 2525PP      PP12629   8.946   3.366  12.638 -0.2188 -0.0067  0.1305
 2526PP      PP12630  11.998   9.834  11.336  0.1966 -0.0622 -0.0760
 2527PP      PP12631   4.267   6.509  10.246 -0.2241 -0.2232  0.1612
 2528PP      PP12632  10.670   9.794  10.978 -0.0291 -0.0774  0.3112
 2529PP      PP12633   1.644   4.658   2.560 -0.0292  0.0424 -0.0873
 2530PP      PP12634  11.258   6.162   1.013 -0.0075  0.0788  0.1753
 2531PP      PP12635  11.779   9.551  10.898  0.0677  0.2545 -0.0387
 2532PP      PP12636  12.489   0.627   8.483  0.1037  0.0026 -0.0486
 2533PP      PP12637   1.741  10.977  10.501  0.4138 -0.0183 -0.0730
 2534PP      PP12638  12.717  15.435   8.964  0.1576 -0.0256 -0.1126
 2535PP      PP12639   7.400  15.179   2.137  0.1013 -0.0000 -0.1339
 2536PP      PP12640   5.800   7.904   2.827 -0.0013 -0.2958 -0.1378
 2537PP      PP12641  11.729   1.632   2.540 -0.1912  0.2106 -0.0396
 2538PP      PP12642  10.626  14.385  13.415 -0.0478  0.0131 -0.0595
 2539PP      PP12643  10.804   9.366   8.773  0.1588 -0.0551 -0.1148
 2540PP      PP12644   9.185  13.271   2.719  0.0618 -0.0217  0.3937
 2541PP      PP12645  12.868  15.017  13.267  0.2037 -0.2680 -0.1635
 2542PP      PP12646  12.209   3.166  10.217 -0.0055 -0.0200  0.0444
 2543PP      PP12647   2.108   6.596   0.221 -0.0268 -0.0188 -0.3046
 2544PP      PP12648   5.916   2.555   4.037  0.2267 -0.1580  0.2429
 2545PP      PP12649  10.422   5.369   2.976  0.0337 -0.0533  0.3084
 2546PP      PP12650   9.257  10.215  12.103  0.3893  0.0942 -0.2627
 2547PP      PP12651   2.579   9.791   5.549 -0.3415  0.0856  0.0102
 2548PP      PP12652   8.167   1.192   1.738  0.0008 -0.1365 -0.0485
 2549PP      PP12653   9.625  10.498  12.777  0.0935  0.3308  0.0813
 2550PP      PP12654   1.317  11.942   2.271  0.0412 -0.0891 -0.1706
 2551PP      PP12655   4.166  10.596  13.479 -0.0386 -0.0348  0.1739
 2552PP      PP12656   9.108   5.257   2.357 -0.0717 -0.3744  0.0662
 2553PP      PP12657  10.315   4.997  11.271 -0.1976 -0.0509 -0.0552
 2554PP      PP12658  13.273  15.545  11.518 -0.1223  0.1828 -0.2323
 2555PP      PP12659   1.860  12.691   3.012 -0.1064 -0.0008 -0.0412
 2556PP      PP12660   1.424  13.899   0.185 -0.1462 -0.1681  0.1472
 2557PP      PP12661   9.704   3.631   2.140  0.1019 -0.2819 -0.4365
 2558PP      PP12662   2.788   6.134  11.649  0.0846 -0.0803 -0.0573
 2559PP      PP12663   4.732   5.750   4.407 -0.0886  0.1792  0.3852
 2560PP      PP12664   2.768  15.635  12.305  0.1366  0.0119 -0.4059
 2561PP      PP12665  14.165   4.718  11.168 -0.2659  0.0561 -0.0676
 2562PP      PP12666   5.724   1.072   2.348 -0.3585 -0.0146 -0.2944
 2563PP      PP12667   8.002  12.296  10.067  0.0447  0.0324 -0.4303
 2564PP      PP12668  10.692  13.330   8.871  0.0149 -0.0973  0.0756
 2565PP      PP12669   8.331   8.105  10.972 -0.5477  0.2572  0.0476
 2566PP      PP12670  14.900  14.479   3.033  0.2071  0.1355  0.1013
 2567PP      PP12671   4.370   8.712   1.002  0.5603  0.3213 -0.0884
 2568PP      PP12672  11.170   0.716   4.582 -0.1033 -0.1138 -0.0260
 2569PP      PP12673   1.555   9.370   0.242  0.0902  0.1734 -0.0324
 2570PP      PP12674   8.255   4.013   9.939  0.1502 -0.0400  0.2503
 2571PP      PP12675  14.133  12.166   4.858  0.1714 -0.1562 -0.2520
 2572PP      PP12676   9.820  15.150   4.455 -0.0229 -0.1453  0.3179
 2573PP      PP12677   9.161  14.590  11.700  0.1929  0.2289 -0.4417
 2574PP      PP12678  13.369  14.122   3.980 -0.1886 -0.2118  0.3229
 2575PP      PP12679  15.645  15.611   9.127  0.0376 -0.1079 -0.2266
 2576PP      PP12680  14.008   9.390  10.546  0.0063  0.0614 -0.0561
 2577PP      PP12681   3.504  15.367  13.208 -0.1975  0.0753  0.0107
 2578PP      PP12682   4.888  13.258   9.238 -0.1890 -0.1005 -0.4643
 2579PP      PP12683   2.845   2.086   0.283 -0.2435 -0.1938  0.0924
 2580PP      PP12684   7.102  13.788   3.673  0.0406 -0.3050  0.4147
 2581PP      PP12685   0.766  12.654   4.608 -0.3537 -0.3094 -0.2392
 2582PP      PP12686  12.766   9.489   4.957 -0.2628 -0.1065  0.0572
 2583PP      PP12687  12.754   4.508   4.583  0.3633  0.1126 -0.0222
 2584PP      PP12688   4.698   0.405   8.875  0.2522 -0.2394  0.2150
 2585PP      PP12689   1.921   5.574  11.446 -0.1476 -0.3307  0.2613
 2586PP      PP12690  11.714   3.735   2.464  0.3273  0.0216 -0.0982
 2587PP      PP12691   7.633   3.275   9.761  0.1737 -0.0539  0.1011
 2588PP      PP12692   2.151   1.772   8.196  0.0234  0.1504  0.0095
 2589PP      PP12693   1.145   1.520   2.335 -0.2841  0.0090  0.1460
 2590PP      PP12694   2.112   5.187   3.691 -0.0722 -0.0415  0.0344
 2591PP      PP12695  13.085  13.780  12.048 -0.0224  0.2022 -0.2607
 2592PP      PP12696   8.420   8.625  13.127  0.2764 -0.0255 -0.4007
 2593PP      PP12697   4.647   2.799   0.125  0.0357 -0.0897  0.2935
 2594PP      PP12698   2.436   5.023   0.400  0.1120  0.2490 -0.2143
 2595PP      PP12699   0.412  13.276  11.626 -0.1675 -0.1075  0.2495
 2596PP      PP12700   1.502   5.812   3.035 -0.0604 -0.1876  0.0094
 2597PP      PP12701   0.996   2.880   4.041 -0.3146 -0.0115 -0.0538
 2598PP      PP12702   6.870  13.373   2.566  0.1647  0.1557 -0.4665
 2599PP      PP12703  12.567   6.536   2.861 -0.0988 -0.1929  0.0213
 2600PP      PP12704   7.699   7.452   1.095  0.0134 -0.0172  0.0802
 2601PP      PP12705  12.551  12.534   4.602 -0.1415 -0.0147 -0.0704
 2602PP      PP12706   2.436  15.460  12.954 -0.1494 -0.1747 -0.4213
 2603PP      PP12707   8.254  10.065   2.755  0.2191 -0.0324 -0.1158
 2604PP      PP12708  12.296   8.424   5.082 -0.2264  0.1997 -0.5982
 2605PP      PP12709   2.508   4.870  12.997  0.0781 -0.0279  0.1174
 2606PP      PP12710   0.316  10.037   1.865 -0.2088  0.1634  0.0235
 2607PP      PP12711   5.461  11.655   2.419 -0.0046 -0.0405 -0.0283
 2608PP      PP12712   8.413   9.624   4.705 -0.2524  0.1780  0.1062
 2609PP      PP12713   1.297   4.292   1.710 -0.3066 -0.0685  0.0250
 2610PP      PP12714   3.452   2.287  12.693 -0.2385 -0.1981  0.0357
 2611PP      PP12715  14.553  11.572  13.363 -0.0452  0.2723  0.1080
 2612PP      PP12716   9.286   7.678   5.104 -0.2728 -0.0972  0.0373
 2613PP      PP12717   4.466  11.178   3.512  0.0142 -0.0864 -0.2447
 2614PP      PP12718  14.494  12.466  12.636  0.2083 -0.0466 -0.0005
 2615PP      PP12719   0.602   5.899   4.431  0.0751  0.0935 -0.0370
 2616PP      PP12720  15.424   7.025   0.815 -0.0861  0.0388  0.2455
 2617PP      PP12721   7.449   3.734   0.945  0.2263  0.1136 -0.1033
 2618PP      PP12722   3.340   9.280   5.296  0.1170  0.0029  0.1787
 2619PP      PP12723   4.511   1.381   1.083 -0.2150 -0.2134  0.1039
 2620PP      PP12724  13.300  10.283   9.141 -0.0310  0.1055  0.0390
 2621PP      PP12725  15.011  10.592   0.049 -0.3152 -0.0300 -0.1553
 2622PP      PP12726   5.380   0.207   0.506 -0.0506 -0.0808 -0.4989
 2623PP      PP12727   3.590   8.481   3.817 -0.5171  0.4065 -0.0473
 2624PP      PP12728  10.281  12.640   9.204  0.0428 -0.0119 -0.0637
 2625PP      PP12729   3.124   2.940   0.645  0.1912  0.0894  0.2410
 2626PP      PP12730   5.831   9.885   3.432  0.0852 -0.3463  0.0132
 2627PP      PP12731  15.521   9.096   1.769 -0.2488  0.0314  0.2422
 2628PP      PP12732  10.843   7.208   2.545 -0.0688 -0.1423  0.0388
 2629PP      PP12733   4.943   3.110  10.515 -0.0659  0.0212 -0.3086
 2630PP      PP12734  13.548  11.154   0.054 -0.0787  0.1311  0.1159
 2631PP      PP12735   6.313   7.797   4.428  0.0065 -0.3881 -0.1439
 2632PP      PP12736   8.247   5.399   4.032  0.1025  0.1588  0.1644
 2633PP      PP12737  13.611   5.154   0.393 -0.0068 -0.3072 -0.3443
 2634PP      PP12738  11.823  12.818  11.723  0.2384  0.3641  0.4355
 2635PP      PP12739  12.624   0.528   9.012  0.0926 -0.2183 -0.1214
 2636PP      PP12740   5.576   8.822   3.751  0.1669  0.1238 -0.2334
 2637PP      PP12741   8.154   5.493  12.863  0.3969  0.2110 -0.0179
 2638PP      PP12742   4.889  11.804   1.053  0.3181  0.0738 -0.1301
 2639PP      PP12743  12.158  12.518   1.973  0.1481 -0.0729 -0.2717
 2640PP      PP12744   5.494  15.022   3.702 -0.3028 -0.1445  0.1816
 2641PP      PP12745   0.086   8.029   3.266  0.0940 -0.1667 -0.1037
 2642PP      PP12746  10.769   0.387   4.468 -0.0686  0.0773  0.1349
 2643PP      PP12747  14.724  12.942  12.339  0.1159  0.0968 -0.3474
 2644PP      PP12748  15.100   5.541   0.009 -0.0620 -0.0589 -0.1607
 2645PP      PP12749   1.330   0.878   1.357 -0.0445  0.0009  0.0610
 2646PP      PP12750  14.095   6.674  11.542  0.1753 -0.0580 -0.2054
 2647PP      PP12751   9.564  11.615   4.682 -0.2378 -0.0678 -0.1093
 2648PP      PP12752  10.264  10.385   3.191  0.4618 -0.0054  0.0077
 2649PP      PP12753   5.702   2.113  12.143 -0.0058  0.0413 -0.2807
 2650PP      PP12754   1.137   7.381  12.095 -0.0668 -0.3118  0.2835
 2651PP      PP12755   0.269  11.735  12.296  0.3072 -0.0746 -0.1991
 2652PP      PP12756   9.275   7.654   0.584 -0.4385  0.0265  0.3048
 2653PP      PP12757  10.781   5.287   9.108 -0.2494  0.2008  0.0203
 2654PP      PP12758  15.399  13.570   0.376 -0.1718 -0.1515  0.2674
 2655PP      PP12759   3.579  10.685  12.046  0.2295 -0.0543 -0.1255
 2656PP      PP12760   5.483   2.216  11.379 -0.1154  0.0424  0.0164
 2657PP      PP12761   6.015  11.533  12.904  0.0732  0.1186  0.1570
 2658PP      PP12762   1.483   4.922  13.017 -0.0407  0.0224 -0.1179
 2659PP      PP12763   4.386   9.188   2.895 -0.0333 -0.1106  0.0269
 2660PP      PP12764   1.005   0.078  11.992 -0.2528  0.3461 -0.0281
 2661PP      PP12765   1.268   3.921  11.419 -0.2069 -0.0137  0.0219
 2662PP      PP12766   4.562   9.770  10.112 -0.0757 -0.3227 -0.0686
 2663PP      PP12767   0.178  14.045   0.600  0.0312  0.0361  0.0684
 2664PP      PP12768   0.969  11.007   3.865 -0.4075 -0.1737 -0.1440
 2665PP      PP12769  10.055  12.832   2.356  0.0367  0.2229  0.0608
 2666PP      PP12770   7.703  15.829  12.678 -0.0880 -0.0975  0.0631
 2667PP      PP12771  10.781   6.351  10.790  0.1816  0.1680 -0.0300
 2668PP      PP12772  14.125   8.683  11.849 -0.0355 -0.1966 -0.0187
 2669PP      PP12773  13.326  11.496   0.790  0.1915 -0.0665 -0.0195
 2670PP      PP12774  13.227   9.578  11.927 -0.0212  0.0185  0.0197
 2671PP      PP12775   1.529   1.721  11.286 -0.2205 -0.2747 -0.2831
 2672PP      PP12776   0.119  13.610  11.456  0.2399 -0.0513  0.3843
 2673PP      PP12777  10.595   3.030   3.352 -0.0715 -0.1816 -0.3280
 2674PP      PP12778   3.642  11.704   3.300 -0.0321 -0.0886 -0.1946
 2675PP      PP12779  11.696   9.723   1.586  0.3055  0.0535  0.1556
 2676PP      PP12780  14.287   8.896   5.377  0.0176 -0.0820  0.0127
 2677PP      PP12781  11.416   5.868  12.715 -0.0341 -0.1101 -0.2431
 2678PP      PP12782   1.955  12.369   0.759 -0.0919  0.1358  0.1049
 2679PP      PP12783  11.446   4.626  12.064 -0.2488  0.2021 -0.0322
 2680PP      PP12784   5.858   0.892   0.399  0.1001 -0.0967 -0.1821
 2681PP      PP12785   4.337  15.089  11.290 -0.0018  0.1474  0.1222
 2682PP      PP12786  14.367  12.208   1.416 -0.0672  0.1614  0.0788
 2683PP      PP12787   0.118   9.024   1.452  0.4024 -0.2781  0.2249
 2684PP      PP12788   6.173  15.683  12.788  0.1430  0.4567 -0.1048
 2685PP      PP12789  11.419   7.015   0.820  0.0836  0.2761  0.1952
 2686PP      PP12790  13.445   9.847   0.811  0.1809  0.1239  0.0734
 2687PP      PP12791  13.507   9.013   0.975 -0.0135  0.0339  0.0388
 2688PP      PP12792  14.759  10.552   4.699 -0.1657 -0.3075 -0.1689
 2689PP      PP12793   3.261   7.906   0.000  0.0052 -0.0202  0.0922
 2690PP      PP12794  14.857   3.461   0.395 -0.2545 -0.0913 -0.2366
 2691PP      PP12795   1.577   8.190   9.954  0.2682  0.2422 -0.3397
 2692PP      PP12796   3.036   9.879  11.270  0.1506 -0.0540  0.2057
 2693PP      PP12797  10.018  14.433   9.010 -0.0351  0.2456 -0.0843
 2694PP      PP12798   2.437   9.099   4.214  0.0495  0.3253  0.1940
 2695PP      PP12799   0.587  11.528  11.192  0.2684  0.1544 -0.2429
 2696PP      PP12800   7.287  14.824  12.279  0.3693 -0.0508 -0.1216
 2697PP      PP12801  12.139  13.723   3.247 -0.1521 -0.1362 -0.0997
 2698PP      PP12802   8.336  13.205  12.033  0.1008  0.1791  0.1054
 2699PP      PP12803  14.507   1.961   0.808  0.0095 -0.1217  0.2516
 2700PP      PP12804  13.143   8.610   1.014  0.0563 -0.1425  0.0509
 2701PP      PP12805   8.429  14.412   3.973  0.0927  0.3761  0.2607
 2702PP      PP12806  15.602   5.278   9.260 -0.5264 -0.1841 -0.1054
 2703PP      PP12807   3.846   9.446   9.707 -0.1242  0.1587  0.1583
 2704PP      PP12808  14.329   9.841   1.470 -0.3011 -0.0598  0.3623
 2705PP      PP12809   1.341   0.259  13.069 -0.0990  0.0211  0.0405
 2706PP      PP12810  10.113   8.026   0.556  0.0592 -0.0123  0.1796
 2707PP      PP12811  12.367   2.644  11.348  0.0866 -0.4506  0.0532
 2708PP      PP12812   7.609   5.547  12.391  0.0348 -0.1021  0.0443
 2709PP      PP12813   6.200   3.352   1.320  0.1418  0.0744  0.0646
 2710PP      PP12814  14.803   9.560   1.586 -0.2382  0.0925  0.0442
 2711PP      PP12815   9.204  14.495   3.782  0.0370  0.1841 -0.1327
 2712PP      PP12816   0.011  10.562   1.303  0.1000 -0.2953  0.3011
 2713PP      PP12817   8.043   4.120   1.084 -0.2795 -0.2024 -0.1660
 2714PP      PP12818   4.509   3.107   8.796 -0.0315  0.0433  0.0974
 2715PP      PP12819   9.674   4.326   8.953 -0.0989  0.2652  0.1404
 2716PP      PP12820   5.804   3.087  11.210 -0.1167 -0.1357  0.1040
 2717PP      PP12821   5.344  15.402  12.269 -0.0620  0.0940  0.3483
 2718PP      PP12822  12.865  15.428   1.297 -0.0731  0.1468  0.1018
 2719PP      PP12823   4.271  14.988   3.896  0.0187 -0.0800  0.1816
 2720PP      PP12824  12.434   6.735   9.299  0.1732  0.3400  0.3668
 2721PP      PP12825  13.504   9.352  10.343 -0.0874 -0.1777  0.0298
 2722PP      PP12826   7.488   7.899   0.701 -0.1997 -0.2098  0.0596
 2723PP      PP12827  11.860   6.810  11.759  0.1134 -0.1696  0.0527
 2724PP      PP12828   7.384  12.644   1.646 -0.2412 -0.1764 -0.4252
 2725PP      PP12829   5.036   6.025   2.044  0.3477 -0.0658 -0.0924
 2726PP      PP12830   4.187   2.158  10.319 -0.2923 -0.0008 -0.2237
 2727PP      PP12831  12.680   5.304   3.224  0.0645  0.1768 -0.1245
 2728PP      PP12832  11.872   2.213  10.624  0.0397  0.2531  0.2428
 2729PP      PP12833  12.082  15.441  10.618 -0.3595  0.1555  0.1193
 2730PP      PP12834   7.686   1.136   2.350 -0.1281  0.2532 -0.0453
 2731PP      PP12835   0.337  10.487  12.048  0.2321 -0.1713 -0.2529
 2732PP      PP12836   9.836   0.649   9.159  0.0693  0.0928 -0.0522
 2733PP      PP12837   8.147   9.415   9.470  0.0598  0.1678  0.4385
 2734PP      PP12838  15.129   8.029   4.367 -0.1730 -0.1300  0.1484
 2735PP      PP12839   3.184   8.971   3.722 -0.0342  0.0922  0.1703
 2736PP      PP12840  11.451  11.987  13.004 -0.0850  0.0235  0.1320
 2737PP      PP12841   8.893   8.555  11.967  0.4593  0.2468  0.0925
 2738PP      PP12842  15.303   8.458   2.424 -0.0113 -0.1151 -0.2318
 2739PP      PP12843  14.829  10.101   9.615 -0.1043  0.1874  0.3146
 2740PP      PP12844   9.300  12.604   1.152  0.1799 -0.1062  0.0370
 2741PP      PP12845   1.439  12.840   1.080  0.1483  0.3031 -0.1113
 2742PP      PP12846   8.437  11.935  10.091 -0.2478  0.1728 -0.2420
 2743PP      PP12847  10.786  13.550  11.155  0.0462  0.5062 -0.3083
 2744PP      PP12848  11.482   6.575   3.845  0.2162  0.1720 -0.1663
 2745PP      PP12849   7.871   5.950  12.800  0.0065  0.0723 -0.2138
 2746PP      PP12850  13.895   8.073  13.011  0.0577 -0.1871 -0.1507
 2747PP      PP12851  14.012   4.115   1.612  0.3332 -0.0304  0.0846
 2748PP      PP12852  11.232   9.995  13.144 -0.0978  0.3266  0.0657
 2749PP      PP12853   8.260  14.899   9.441 -0.0074  0.1561  0.0336
 2750PP      PP12854   4.270   4.520  12.225  0.1254  0.0871  0.2354
 2751PP      PP12855   8.583   2.885   2.982  0.0479 -0.0477  0.4131
 2752PP      PP12856  15.153   2.354  11.407  0.1589  0.1313 -0.0814
 2753PP      PP12857   8.059   5.377   9.096 -0.4718  0.0348  0.0523
 2754PP      PP12858   9.337  13.850   2.777  0.0034 -0.4171  0.0793
 2755PP      PP12859  10.987   1.167   3.470  0.0910  0.0592  0.0827
 2756PP      PP12860   5.287   6.309   1.169  0.0518 -0.1889 -0.0402
 2757PP      PP12861   3.351  14.950   1.610 -0.1467 -0.1348  0.0404
 2758PP      PP12862   8.699  14.759   8.245 -0.0710  0.1047 -0.2633
 2759PP      PP12863   3.065   6.782   2.985 -0.0562  0.3590  0.2202
 2760PP      PP12864  12.329   5.813   4.808  0.1759 -0.0937 -0.1530
 2761PP      PP12865  10.629   7.260  12.851  0.3318 -0.2335  0.3011
 2762PP      PP12866   2.419  12.062   0.095  0.0771 -0.1820 -0.1867
 2763PP      PP12867  15.577   9.483   5.440  0.0126 -0.3392  0.0165
 2764PP      PP12868  14.845  10.189  10.723 -0.0900  0.1970  0.1044
 2765PP      PP12869  13.344  15.159   9.985 -0.0615  0.1911  0.2973
 2766PP      PP12870   1.068   1.632  13.192  0.0597 -0.1558  0.0696
 2767PP      PP12871   3.834   3.998   4.246 -0.0950 -0.3331  0.0381
 2768PP      PP12872  11.942   1.978  13.426  0.0253 -0.4572 -0.0750
 2769PP      PP12873  10.208  10.080  12.820 -0.2267 -0.0573  0.1548
 2770PP      PP12874   4.720   1.216   2.962 -0.0244 -0.3099  0.1006
 2771PP      PP12875   1.929   3.155   9.054 -0.3086 -0.1836  0.1719
 2772PP      PP12876   5.793   0.923  13.468  0.2504 -0.2091  0.1016
 2773PP      PP12877  13.181   0.793  10.719  0.2225  0.0636  0.1735
 2774PP      PP12878   9.740   6.772  10.567  0.0284  0.2811 -0.1677
 2775PP      PP12879   1.244  13.013  11.799 -0.1213 -0.1693 -0.0158
 2776PP      PP12880   2.722   2.996   1.422  0.2402  0.0948 -0.2247
 2777PP      PP12881   6.829  14.027  10.308 -0.2459  0.1440  0.0282
 2778PP      PP12882   4.444  11.184  11.644  0.0398  0.0544  0.0476
 2779PP      PP12883   8.332   0.718   2.926 -0.1473 -0.3936  0.0739
 2780PP      PP12884   6.059   2.376  10.607  0.3558 -0.4176  0.1219
 2781PP      PP12885   5.374  14.835  11.869 -0.2245 -0.2794 -0.0559
 2782PP      PP12886   3.432   0.672  10.995 -0.1193  0.2381  0.2408
 2783PP      PP12887  14.259   9.562  13.408 -0.1341  0.0373  0.1386
 2784PP      PP12888   9.469   9.814   1.015  0.2878 -0.1769  0.0498
 2785PP      PP12889   3.511   7.576   9.929 -0.0205 -0.3280  0.0649
 2786PP      PP12890   3.380   4.308   9.629  0.3516 -0.0306  0.0932
 2787PP      PP12891  12.351  13.665  12.030 -0.0150 -0.1072  0.1553
 2788PP      PP12892   9.298  13.817   1.694 -0.0524 -0.0924 -0.0363
 2789PP      PP12893   9.507   0.737   2.760  0.0679 -0.0245 -0.2747
 2790PP      PP12894   0.134   5.796   5.474  0.0544  0.1094 -0.0331
 2791PP      PP12895   7.254   1.370   2.510  0.0516 -0.0191 -0.1029
 2792PP      PP12896   0.568  13.624   0.443  0.1127  0.3423  0.3920
 2793PP      PP12897   4.497  15.146  11.995 -0.0510 -0.0019 -0.1864
 2794PP      PP12898   5.671  11.536  12.064 -0.1353  0.0577 -0.0558
 2795PP      PP12899   8.219   3.417  13.396 -0.1102  0.0940  0.1702
 2796PP      PP12900  10.392   7.914  12.174 -0.1776  0.0603  0.3271
 2797PP      PP12901  14.727   5.643   4.865  0.2476  0.0358  0.2779
 2798PP      PP12902   1.518   5.490   4.428  0.0413 -0.2315  0.1639
 2799PP      PP12903  13.401   5.909   4.815 -0.0776  0.2719  0.0111
 2800PP      PP12904  10.014   0.797   4.735  0.5286  0.1451  0.0165
 2801PP      PP12905   3.018   1.792   8.671 -0.1069 -0.0595 -0.0149
 2802PP      PP12906  11.537   5.166   0.181  0.2959 -0.1322  0.2489
 2803PP      PP12907   3.869   9.738  11.789  0.2791 -0.1233  0.1340
 2804PP      PP12908  12.755  14.144   0.187 -0.1958  0.0295 -0.1956
 2805PP      PP12909   0.099  15.625   3.567 -0.1971  0.0935 -0.1124
 2806PP      PP12910  10.552   1.164   3.257  0.1563 -0.0651 -0.2610
 2807PP      PP12911   3.553   5.803   2.157  0.0630 -0.0466  0.0886
 2808PP      PP12912  10.143   8.507   0.354  0.1026 -0.2216  0.1179
 2809PP      PP12913   4.665  12.611  10.747 -0.0357 -0.1820 -0.0073
 2810PP      PP12914  11.511  14.761   1.584  0.0983 -0.2430  0.0204
 2811PP      PP12915   2.668  12.001   9.150 -0.2505 -0.2444 -0.1708
 2812PP      PP12916  14.260   3.048  11.862 -0.0539  0.0441 -0.3574
 2813PP      PP12917   5.910   0.261  12.727  0.0667 -0.0783  0.4329
 2814PP      PP12918   8.892  13.138  12.191 -0.2623  0.1202  0.2420
 2815PP      PP12919  11.519  11.648   4.589  0.2263  0.1366  0.0641
 2816PP      PP12920  14.598  12.188  10.039 -0.2267  0.0133 -0.2348
 2817PP      PP12921  13.319   1.495   0.432  0.0332 -0.1145  0.1857
 2818PP      PP12922  12.306  12.329  10.222  0.1172 -0.0482  0.1525
 2819PP      PP12923  14.094  12.705   3.813  0.0236  0.1189  0.2761
 2820PP      PP12924  14.576  11.766  12.046 -0.2388 -0.0100  0.3077
 2821PP      PP12925  14.650   3.944   4.074 -0.1249  0.1807 -0.1352
 2822PP      PP12926  15.321  14.686   8.952  0.1327 -0.3922 -0.2139
 2823PP      PP12927  12.672   9.666  10.872  0.3845  0.1642  0.0666
 2824PP      PP12928   1.933   5.527   1.061 -0.3455 -0.1663 -0.1093
 2825PP      PP12929   0.199   7.046   3.873 -0.1868  0.2113 -0.2211
 2826PP      PP12930   8.830  12.106   9.862 -0.0623  0.0622  0.0638
 2827PP      PP12931   2.018   8.912   1.535 -0.0558 -0.1555  0.1112
 2828PP      PP12932   8.088  12.562  13.518  0.2530  0.0031  0.3021
 2829PP      PP12933   8.585   9.100  12.938  0.0613  0.1002  0.2138
 2830PP      PP12934   2.707  13.641  11.732 -0.3360  0.1546 -0.1953
 2831PP      PP12935  15.544   7.802   4.169  0.2297  0.2351  0.1041
 2832PP      PP12936  15.504  12.807  10.551 -0.4623 -0.0152 -0.0424
 2833PP      PP12937   2.984  15.730   0.308 -0.0378  0.0330 -0.1411
 2834PP      PP12938  10.914  14.798  13.371  0.0203  0.1310  0.0294
 2835PP      PP12939   5.081  11.845  12.898 -0.2245  0.3308  0.2681
 2836PP      PP12940  12.304   9.457  12.146  0.0152 -0.1548 -0.1489
 2837PP      PP12941   1.153  13.448  10.608 -0.3524  0.1628 -0.3315
 2838PP      PP12942   0.955   4.905   5.198 -0.2507  0.2132 -0.1470
 2839PP      PP12943  11.343  14.547   3.673  0.0613 -0.1913  0.0632
 2840PP      PP12944   0.027  15.405  11.171 -0.0773  0.2846 -0.0316
 2841PP      PP12945   7.827   2.051  13.047 -0.0766  0.0493 -0.0581
 2842PP      PP12946   2.007   9.305   2.878  0.0407  0.3490  0.1850
 2843PP      PP12947   5.916  13.936   1.614 -0.2228 -0.2512 -0.0751
 2844PP      PP12948   1.890   0.951   3.550  0.1124  0.1866  0.0490
 2845PP      PP12949  10.202  15.504   3.618 -0.1320 -0.1192  0.0733
 2846PP      PP12950   9.729   1.007   0.647 -0.0729 -0.1688  0.1153
 2847PP      PP12951  11.490   1.357   9.883  0.0838  0.0049 -0.1499
 2848PP      PP12952  10.836   2.274  12.588  0.2446  0.1516  0.0839
 2849PP      PP12953   7.936   4.027   2.927  0.3310 -0.0358  0.2604
 2850PP      PP12954   9.350   8.152   1.814 -0.1628  0.2074 -0.0241
 2851PP      PP12955  13.883   5.673   2.303 -0.1017  0.0500 -0.0876
 2852PP      PP12956   4.533   9.549  12.438 -0.0519 -0.3377  0.0854
 2853PP      PP12957   5.694   1.716   9.670 -0.0159  0.1484  0.1184
 2854PP      PP12958  12.813  14.554  10.691  0.0719  0.0432  0.0158
 2855PP      PP12959   0.598   3.987  10.449 -0.0921  0.3273  0.1433
 2856PP      PP12960  13.911   0.251  13.130  0.1365 -0.0547 -0.2297
 2857PP      PP12961  10.417  11.658   0.565 -0.0126  0.1877  0.2410
 2858PP      PP12962  12.412   5.046  10.991 -0.1206  0.3178  0.0212
 2859PP      PP12963  15.565   0.672   3.542 -0.1808 -0.1467  0.0053
 2860PP      PP12964  13.706  15.015   3.910 -0.0791 -0.0124  0.1253
 2861PP      PP12965   6.860  10.931   4.635  0.2943  0.1908  0.1358
 2862PP      PP12966   5.678   7.081  13.139 -0.0065  0.1818  0.1767
 2863PP      PP12967   2.604  10.950   3.094 -0.0094 -0.4510 -0.2831
 2864PP      PP12968   4.614  11.969   3.814  0.1713 -0.1541 -0.4138
 2865PP      PP12969   2.040   0.039   0.035  0.0553  0.0087 -0.0209
 2866PP      PP12970   7.096   0.954   9.621 -0.0163  0.1228  0.1625
 2867PP      PP12971   7.930  15.798   1.114  0.3238  0.1119  0.1399
 2868PP      PP12972   9.327   9.526   1.848  0.3475  0.0463  0.1445
 2869PP      PP12973   9.977   7.115   1.913  0.1444 -0.1694  0.1258
 2870PP      PP12974   1.508  11.395   1.587  0.1166 -0.0364  0.0078
 2871PP      PP12975   7.988   8.441  12.379 -0.0362  0.1475  0.1213
 2872PP      PP12976  11.646   8.868   0.278  0.0127 -0.1362 -0.0649
 2873PP      PP12977   9.418   3.808   3.516 -0.0162  0.1313 -0.2583
 2874PP      PP12978   7.292   1.365   3.377  0.1264  0.0579 -0.0210
 2875PP      PP12979   2.935   5.225  11.114  0.1785  0.0320  0.0389
 2876PP      PP12980   1.642  10.256  13.523 -0.0391 -0.0097 -0.0072
 2877PP      PP12981  14.751  10.165  12.848  0.3058 -0.2192  0.0184
 2878PP      PP12982  14.595   7.129   9.954  0.1029 -0.0218  0.2105
 2879PP      PP12983   3.458  13.344  10.106  0.0656  0.1942  0.2424
 2880PP      PP12984   9.593   7.891   9.724 -0.0738 -0.1934  0.0694
 2881PP      PP12985  12.457  12.997  12.256  0.1858 -0.1162  0.1004
 2882PP      PP12986   9.123   6.122  11.039 -0.0497  0.3495  0.0588
 2883PP      PP12987  10.328   1.811   1.422  0.0835 -0.0803  0.0143
 2884PP      PP12988   0.361   6.653   4.589 -0.1068 -0.1120  0.1340
 2885PP      PP12989   5.916   1.784  12.434 -0.1415  0.3933  0.0665
 2886PP      PP12990   3.022   6.517   2.403 -0.0215 -0.0303  0.1875
 2887PP      PP12991   4.461   9.466   9.741  0.0260  0.0741 -0.2049
 2888PP      PP12992  10.327   2.265  10.537 -0.2354  0.1250  0.2716
 2889PP      PP12993  14.641  11.393  12.456  0.3308  0.3334 -0.2696
 2890PP      PP12994  12.285  10.115   0.284 -0.0327  0.1348  0.1782
 2891PP      PP12995   0.783   7.101  13.303 -0.2993  0.3794  0.0465
 2892PP      PP12996   1.193   2.663   3.627 -0.1747 -0.0914  0.2346
 2893PP      PP12997  12.204   7.904   2.726  0.1123 -0.3802  0.0383
 2894PP      PP12998   6.382   5.859  11.051  0.0522  0.0727 -0.3387
 2895PP      PP12999   6.614   5.101   3.875  0.0739  0.2554  0.1496
 2896PP      PP13000   1.351   3.300   3.905 -0.0414 -0.1890 -0.1345
 2897PP      PP13001  14.402   7.182  12.812 -0.3767 -0.2748  0.1821
 2898PP      PP13002   1.631  10.501  10.274  0.0235 -0.0121 -0.1596
 2899PP      PP13003  14.213   5.081   9.360 -0.0797 -0.0673 -0.2519
 2900PP      PP13004   8.546   8.514  11.232  0.1140  0.0135 -0.2092
 2901PP      PP13005  10.032  12.634   1.072 -0.2326 -0.1649  0.1444
 2902PP      PP13006  10.920  10.568  13.159  0.0544  0.0800 -0.1142
 2903PP      PP13007   4.185   8.089   1.699  0.1585 -0.3393  0.1145
 2904PP      PP13008  12.644  14.271   9.189  0.1029  0.2958  0.1867
 2905PP      PP13009   6.784  14.816   0.741 -0.0266 -0.2643  0.2364
 2906PP      PP13010  10.522   4.221  12.168 -0.1275 -0.0026  0.2422
 2907PP      PP13011   0.655   8.798  11.802 -0.0825  0.2386  0.0085
 2908PP      PP13012   5.228   0.918   2.082  0.1176  0.1904  0.1649
 2909PP      PP13013   7.513   3.385   0.457  0.1045 -0.0013  0.2582
 2910PP      PP13014  15.704   8.929  13.000  0.2462 -0.1293 -0.0247
 2911PP      PP13015   9.791   5.863   1.178  0.2280 -0.2178  0.0980
 2912PP      PP13016   7.803  11.184  12.451  0.1692  0.1127 -0.0142
 2913PP      PP13017   5.438  13.356   1.650 -0.0031  0.0833  0.1225
 2914PP      PP13018   6.987  14.999   2.980 -0.1389  0.1220  0.0802
 2915PP      PP13019  13.384  15.693  12.087 -0.0747  0.0207  0.0455
 2916PP      PP13020   9.162   5.550   3.425 -0.0626 -0.3275  0.1055
 2917PP      PP13021  13.009   2.342   2.429 -0.3308  0.1643  0.0794
 2918PP      PP13022  13.988   5.474  11.752 -0.0371  0.0569 -0.1060
 2919PP      PP13023   2.600  14.259   1.544  0.0635 -0.2231  0.5036
 2920PP      PP13024   9.876   0.004  11.773 -0.0118 -0.1464 -0.1666
 2921PP      PP13025  10.104   8.007   2.509 -0.2377  0.0046  0.1154
 2922PP      PP13026  11.824   0.896  12.972 -0.3198  0.2381  0.0476
 2923PP      PP13027   5.149  13.711   0.322 -0.1666 -0.2774 -0.1827
 2924PP      PP13028   6.956   9.898   9.101  0.1298 -0.0790  0.0477
 2925PP      PP13029  11.216   6.383   1.440 -0.2626 -0.3139 -0.0126
 2926PP      PP13030  12.047   6.384   0.661  0.1640  0.0743 -0.1083
 2927PP      PP13031  12.485  13.151   1.458  0.1735  0.2873  0.1847
 2928PP      PP13032   3.318  14.936  10.010 -0.0411 -0.0967 -0.1346
 2929PP      PP13033   9.470   8.849  12.753  0.2322  0.1664  0.1051
 2930PP      PP13034  15.587  14.662   0.595  0.2387  0.1091  0.1048
 2931PP      PP13035   5.741   3.504   3.662  0.4177 -0.0803  0.0234
 2932PP      PP13036   1.159   5.276   1.382 -0.1867  0.0912 -0.3318
 2933PP      PP13037   9.204  15.018   3.607  0.0236 -0.3706  0.0289
 2934PP      PP13038   7.828   1.061  12.815 -0.0993  0.1426 -0.1352
 2935PP      PP13039   9.117   4.077   8.243  0.2969  0.0637 -0.0111
 2936PP      PP13040  11.567  11.777  10.963 -0.0367 -0.3625  0.0225
 2937PP      PP13041   5.676  13.998   2.157 -0.1586  0.2025  0.1727
 2938PP      PP13042   3.049  13.998  10.379  0.0333 -0.1039  0.1520
 2939PP      PP13043  15.304   3.730  11.201 -0.1454 -0.1104 -0.0394
 2940PP      PP13044  14.095   4.632  12.103  0.1620  0.1099  0.0271
 2941PP      PP13045  10.958   9.526   4.033 -0.0562  0.1610  0.0585
 2942PP      PP13046  10.349  10.775   2.915 -0.0768 -0.2397 -0.0166
 2943PP      PP13047   4.384  12.984  10.532  0.0585 -0.1522  0.1134
 2944PP      PP13048   8.257   0.865   9.034 -0.1207 -0.1778  0.1041
 2945PP      PP13049  10.610   6.932  12.493 -0.0134 -0.0274  0.3177
 2946PP      PP13050  10.694   7.900   4.236  0.0213  0.1812  0.6171
 2947PP      PP13051   9.949  13.281  11.706  0.0295 -0.0641  0.0063
 2948PP      PP13052   5.826   5.053  10.539  0.0004  0.2359  0.3131
 2949PP      PP13053   9.033   7.877   3.480 -0.1544 -0.2636  0.1268
 2950PP      PP13054  14.853   1.789  12.229 -0.0709  0.0328 -0.0446
 2951PP      PP13055   0.326   9.604   2.297 -0.0121  0.2714 -0.2926
 2952PP      PP13056  12.651   4.509  13.261  0.0251  0.1608 -0.3693
 2953PP      PP13057  10.432   0.095  10.020  0.0009 -0.3453  0.2019
 2954PP      PP13058  12.886  13.296   1.195  0.0107  0.2178  0.2928
 2955PP      PP13059   0.940   9.097  10.690  0.0956 -0.3596 -0.0506
 2956PP      PP13060   9.318   3.629   1.483 -0.0487  0.1141 -0.2141
 2957PP      PP13061  15.370  11.791   3.501 -0.1601 -0.2200  0.1433
 2958PP      PP13062  15.719  13.287   3.845 -0.0892 -0.1377  0.4161
 2959PP      PP13063   2.655   8.875   4.964  0.0596 -0.0723  0.1349
 2960PP      PP13064   7.376   6.670   0.433 -0.0061 -0.1193  0.1183
 2961PP      PP13065   5.954   4.013  12.396  0.0881  0.1932  0.1116
 2962PP      PP13066  11.199   0.201   0.701  0.0561  0.1658  0.0975
 2963PP      PP13067  10.909   2.711  11.703  0.0008  0.0265 -0.0954
 2964PP      PP13068   8.617   0.388  11.025  0.0922  0.1701  0.0754
 2965PP      PP13069  11.218   1.201   0.418  0.0616  0.0792  0.2379
 2966PP      PP13070   2.888   4.151   3.942 -0.1025 -0.3661 -0.0900
 2967PP      PP13071  15.036  12.676   3.945 -0.3214  0.3095  0.4224
 2968PP      PP13072  11.794   5.315   3.535 -0.0036  0.1770 -0.1269
 2969PP      PP13073   4.973   8.574  10.933  0.0076  0.2776 -0.2404
 2970PP      PP13074  12.251   5.331  13.154  0.1504 -0.0485 -0.0425
 2971PP      PP13075   2.872   7.924   5.107  0.1907  0.0884  0.1013
 2972PP      PP13076   6.499   8.989  12.524  0.3171 -0.1223 -0.0877
 2973PP      PP13077   2.646  11.923   2.157  0.1393 -0.2053  0.0498
 2974PP      PP13078   1.138  12.628   5.068  0.0158 -0.1142  0.1088
 2975PP      PP13079  14.880  15.030  10.295 -0.2602  0.2279 -0.2039
 2976PP      PP13080   4.953   2.276   0.433 -0.1712 -0.0246  0.2821
 2977PP      PP13081   8.198   3.251   1.644 -0.1069 -0.1916 -0.0990
 2978PP      PP13082   7.367   4.851   0.087  0.0441  0.0678  0.4060
 2979PP      PP13083   1.486  12.466  13.488  0.0057 -0.1247  0.2409
 2980PP      PP13084   7.643   3.355  11.228 -0.1265 -0.0006 -0.1616
 2981PP      PP13085  14.303   8.180  12.654 -0.0395 -0.1034 -0.3976
 2982PP      PP13086  15.331   0.520   3.133  0.1008 -0.1493 -0.4146
 2983PP      PP13087  12.728   9.929   2.454 -0.1110  0.0838  0.0841
 2984PP      PP13088  10.227   0.397   4.445 -0.1872  0.1102  0.0762
 2985PP      PP13089   8.695   3.168   9.864  0.3157 -0.2961  0.0200
 2986PP      PP13090  11.025   5.041   0.171 -0.2332  0.2290 -0.2853
 2987PP      PP13091   8.030  10.561   3.826 -0.0470  0.0390  0.0300
 2988PP      PP13092  14.460   6.506   3.900 -0.1104 -0.0628 -0.0940
 2989PP      PP13093  15.459  13.691  11.331 -0.2813 -0.1187  0.3283
 2990PP      PP13094   3.473  13.177   1.846  0.4701 -0.1130  0.2704
 2991PP      PP13095  13.985  15.363   1.481  0.3677 -0.0878 -0.0486
 2992PP      PP13096   3.529   6.064  13.311  0.0459  0.2908 -0.0966
 2993PP      PP13097   8.382  12.693   2.090 -0.1384 -0.1683  0.0680
 2994PP      PP13098  15.306   7.026  11.318  0.1658  0.5337  0.1622
 2995PP      PP13099   3.754   3.672   0.180  0.2495 -0.1000  0.1763
 2996PP      PP13100   8.517   6.319   4.029  0.1660  0.1135 -0.2356
 2997PP      PP13101   7.350   2.560   2.833  0.0037  0.0179 -0.0179
 2998PP      PP13102  11.688  13.687  10.615  0.3250  0.0875  0.1398
 2999PP      PP13103   7.043   4.036  13.200  0.0127  0.4024  0.2004
 3000PP      PP13104   5.909   0.588  12.270 -0.0687 -0.1036 -0.0026
 3001PP      PP13105   3.564  11.246   3.421  0.1032 -0.0369  0.2499
 3002PP      PP13106  10.196   4.559  10.224  0.0115 -0.1691  0.1840
 3003PP      PP13107   9.023   8.325   1.335  0.0308  0.0691 -0.3358
 3004PP      PP13108   5.633   1.597   0.809  0.0375 -0.0602 -0.2060
 3005PP      PP13109   0.221  14.141   9.129  0.4198 -0.2812 -0.1674
 3006PP      PP13110  10.985   6.014  12.572 -0.0431 -0.0384 -0.0735
 3007PP      PP13111   9.440  12.081   3.195 -0.1265 -0.4326 -0.0831
 3008PP      PP13112   7.658   0.111   0.171 -0.1071 -0.0932 -0.3399
 3009PP      PP13113  11.291  15.019   0.145  0.1820  0.0030  0.1787
 3010PP      PP13114  10.347  13.001  11.337 -0.3420  0.0401  0.0540
 3011PP      PP13115  12.725   6.864   3.256  0.0674  0.1161 -0.1671
 3012PP      PP13116  14.384   2.856   3.351  0.0341 -0.0907  0.1718
 3013PP      PP13117  14.401  14.015   9.492  0.2742  0.1925 -0.1416
 3014PP      PP13118   7.633   1.369   2.832 -0.4585 -0.1570 -0.2069
 3015PP      PP13119   3.191   2.623   3.625  0.0815 -0.0431 -0.1533
 3016PP      PP13120  10.611   5.836   0.667  0.1413  0.2812  0.1683
 3017PP      PP13121  13.833  11.480   0.949 -0.0278 -0.1701  0.1499
 3018PP      PP13122  11.788   0.130   9.153  0.3095  0.1074 -0.3498
 3019PP      PP13123   9.361   6.064   9.847  0.2653  0.1600 -0.0442
 3020PP      PP13124   7.063  10.375  10.994  0.0603 -0.0675  0.1033
 3021PP      PP13125  10.040   7.531   3.055  0.0933  0.0500  0.2039
 3022PP      PP13126   2.547   9.311   9.559  0.1280  0.2483  0.0833
 3023PP      PP13127   7.953  11.920  12.351 -0.1355  0.0386  0.0409
 3024PP      PP13128   1.799   9.863  11.977  0.0133 -0.0235  0.1648
 3025PP      PP13129   1.601   3.903   9.539 -0.0086  0.0942  0.0673
 3026PP      PP13130   9.555   6.686   0.274 -0.1175 -0.1397 -0.0409
 3027PP      PP13131  14.232   8.452   2.307 -0.1624  0.0533  0.2559
 3028PP      PP13132  10.352   6.281   4.017 -0.0703  0.1735  0.3392
 3029PP      PP13133  11.788  13.972   2.893 -0.0297 -0.0828  0.1443
 3030PP      PP13134   9.765   1.103   8.902  0.1724 -0.2467  0.0711
 3031PP      PP13135  12.576   1.455   9.550  0.0654 -0.1892 -0.0967
 3032PP      PP13136   9.178   1.991  12.393  0.0005  0.0505 -0.0169
 3033PP      PP13137   2.947   0.217   2.131  0.2613  0.0942  0.5336
 3034PP      PP13138   4.773   4.948   0.828  0.3660  0.3990 -0.0427
 3035PP      PP13139   7.021  12.745   0.006  0.0878 -0.0677 -0.1874
 3036PP      PP13140  10.027   0.282   2.966 -0.4304 -0.1834 -0.0330
 3037PP      PP13141   8.706  14.472  10.528  0.1063  0.0521 -0.4483
 3038PP      PP13142  14.032  13.392  10.870 -0.2205 -0.2304  0.2421
 3039PP      PP13143  10.259   9.885  12.229  0.0397 -0.3840 -0.5021
 3040PP      PP13144   7.852  11.733   9.404  0.0548  0.2390  0.0291
 3041PP      PP13145   6.833  10.822   4.182 -0.1514  0.3873 -0.1424
 3042PP      PP13146   7.440   8.494  12.502  0.2924  0.0008  0.2236
 3043PP      PP13147   2.928   3.895   3.457  0.0548  0.0238  0.0256
 3044PP      PP13148   8.736   4.797   3.436  0.0219  0.0192  0.1506
 3045PP      PP13149  14.321  10.243   3.991 -0.0415  0.1098 -0.1019
 3046PP      PP13150   7.257   6.693   3.365 -0.0508 -0.0375  0.1263
 3047PP      PP13151  15.486   8.872   1.308  0.0533  0.2842 -0.0760
 3048PP      PP13152   0.437  10.567   1.585  0.1915  0.1321 -0.4365
 3049PP      PP13153  14.156  11.358  13.504  0.0520  0.0705  0.3230
 3050PP      PP13154  12.409   6.829  11.755  0.2138 -0.3005  0.1276
 3051PP      PP13155   2.755  14.725  13.496  0.6282  0.2029  0.2579
 3052PP      PP13156  11.025   6.281  13.038  0.0720  0.0721 -0.1016
 3053PP      PP13157   1.444  11.145   1.122 -0.2993 -0.3454 -0.1685
 3054PP      PP13158   0.278   6.516  11.197  0.0497 -0.5167 -0.0243
 3055PP      PP13159  13.751  11.380   4.268  0.1753  0.1304 -0.4414
 3056PP      PP13160   0.179  12.062  10.329  0.0583  0.1043 -0.2998
 3057PP      PP13161  10.362  13.957   3.148  0.3239  0.1922 -0.0888
 3058PP      PP13162   2.461  14.709  10.806 -0.2916  0.0787 -0.1969
 3059PP      PP13163   8.647  15.365   2.868  0.0218 -0.0045  0.1036
 3060PP      PP13164  14.683   7.629  11.975  0.1785  0.1647 -0.0833
 3061PP      PP13165  14.449  15.622   1.248 -0.0699 -0.3116 -0.2763
 3062PP      PP13166  13.120   8.620   0.530 -0.0990 -0.1917  0.1371
 3063PP      PP13167   8.547  11.363  11.795 -0.1954  0.1868 -0.1704
 3064PP      PP13168   7.631  15.388   3.296  0.1171 -0.1720 -0.3866
 3065PP      PP13169   4.011   8.994  10.169 -0.1145 -0.0062 -0.0974
 3066PP      PP13170   0.616   5.288   0.704  0.0985  0.0066 -0.1395
 3067PP      PP13171  12.382  12.050   4.396  0.2782  0.3048 -0.0296
 3068PP      PP13172   4.599   2.280   1.025  0.1007  0.0984  0.1767
 3069PP      PP13173  12.885  15.089  10.792 -0.1706 -0.2277 -0.0156
 3070PP      PP13174   6.891   0.123   3.010  0.2627  0.1790 -0.3092
 3071PP      PP13175   4.853  15.605   3.092  0.3702 -0.0594  0.0598
 3072PP      PP13176  15.758  12.391   2.911  0.4276 -0.0906  0.0611
 3073PP      PP13177   0.619   1.125   8.290  0.3227  0.2531 -0.1168
 3074PP      PP13178   8.505  15.134  13.143 -0.2863 -0.3140 -0.1118
 3075PP      PP13179   1.691  13.282   9.817  0.2313  0.0443 -0.0606
 3076PP      PP13180   5.255   2.438   2.955 -0.1261 -0.3092 -0.1283
 3077PP      PP13181   8.866   9.705   1.994  0.0952  0.0234 -0.0897
 3078PP      PP13182   6.107   4.211  13.269 -0.1418 -0.1419 -0.0147
 3079PP      PP13183   2.176   0.467  12.480  0.2176 -0.1013 -0.0011
 3080PP      PP13184   1.221  11.003   4.844 -0.0407  0.0125 -0.0378
 3081PP      PP13185   0.020   7.707   2.821  0.2200  0.1513  0.1195
 3082PP      PP13186  15.295  12.475  10.200 -0.3120 -0.0001  0.0816
 3083PP      PP13187   7.147  10.290   3.690  0.1388 -0.2234 -0.3273
 3084PP      PP13188   9.789   5.965   2.461 -0.0989 -0.2956 -0.1220
 3085PP      PP13189   2.418  10.266   5.344 -0.3225  0.0514 -0.2879
 3086PP      PP13190   6.847   9.047   9.023  0.2095 -0.2151  0.0712
 3087PP      PP13191  13.035   2.932  11.912 -0.1492 -0.1607  0.1661
 3088PP      PP13192   8.100   9.749   0.583  0.1044  0.1360 -0.0375
 3089PP      PP13193  10.077  11.949   9.276  0.1098 -0.2323 -0.1691
 3090PP      PP13194  13.809   9.137  11.723  0.0047  0.3163  0.0873
 3091PP      PP13195   5.891   2.633   1.114 -0.4673 -0.4346  0.0831
 3092PP      PP13196   5.729  13.978  12.142  0.1226 -0.0555  0.0417
 3093PP      PP13197   1.471   4.458   3.299  0.1135 -0.0381 -0.0858
 3094PP      PP13198   7.371  12.467  11.737 -0.2398  0.1084  0.2963
 3095PP      PP13199   1.422  13.764  11.458 -0.2128  0.2931 -0.1433
 3096PP      PP13200  13.737   3.584  10.024  0.1110  0.1547  0.3481
 3097PP      PP13201  10.125  15.581   1.271 -0.2031 -0.2554 -0.2193
 3098PP      PP13202  14.015  10.326   1.725  0.0814 -0.2085 -0.2569
 3099PP      PP13203  10.941   3.070   1.615  0.2816 -0.1064 -0.0047
 3100PP      PP13204   5.988   7.444   0.824  0.0408  0.3655  0.2328
 3101PP      PP13205  11.750   0.946  10.727 -0.1511  0.1101  0.0231
 3102PP      PP13206  13.194  10.986   0.431 -0.1631  0.1639  0.2724
 3103PP      PP13207  14.753   8.347  10.487  0.0387  0.0856 -0.1268
 3104PP      PP13208   9.896  15.117   9.015 -0.1961  0.1674 -0.2141
 3105PP      PP13209   0.308   6.216   1.789 -0.1854  0.1940  0.0771
 3106PP      PP13210   4.746   3.420  10.221 -0.3720 -0.0095 -0.3236
 3107PP      PP13211  11.118   8.577   1.438 -0.2577  0.3200  0.0426
 3108PP      PP13212   7.801   3.600  10.686  0.0832  0.0715  0.0654
 3109PP      PP13213   7.868   2.864  10.028  0.0493  0.2411 -0.3574
 3110PP      PP13214  10.106  13.340   2.338  0.2049 -0.3452  0.3094
 3111PP      PP13215   2.258   3.036   2.125 -0.2792 -0.1275  0.2048
 3112PP      PP13216   8.073   1.474   1.327 -0.3381  0.2038 -0.0002
 3113PP      PP13217  15.605   4.082   4.330  0.0664 -0.0239  0.3953
 3114PP      PP13218  13.652   0.946   2.927 -0.2845  0.3661 -0.1772
 3115PP      PP13219   1.678   1.282   2.190  0.1094 -0.1293  0.2007
 3116PP      PP13220   4.326   4.657   1.820  0.1499 -0.1613  0.1086
 3117PP      PP13221  10.914   0.761   4.189  0.1816 -0.2871  0.3174
 3118PP      PP13222   4.898  14.027   1.415  0.2938  0.2145  0.0288
 3119PP      PP13223   0.224   6.876   2.062  0.1148 -0.0244  0.2597
 3120PP      PP13224  14.201  13.333   9.520  0.1316 -0.0262 -0.3657
 3121PP      PP13225  12.646  11.634   2.804 -0.1498 -0.1913 -0.0415
 3122PP      PP13226  10.692   6.416  12.638  0.0142 -0.2162  0.2144
 3123PP      PP13227   0.101  10.333   4.717  0.2588  0.3085  0.0700
 3124PP      PP13228   6.605   9.088   4.487  0.3142 -0.0205 -0.0457
 3125PP      PP13229   9.955  14.923   3.198  0.1140  0.1635  0.0126
 3126PP      PP13230  13.202  14.737   0.839  0.4344 -0.1111  0.0739
 3127PP      PP13231   0.353   8.605  10.099 -0.0404  0.1800  0.0038
 3128PP      PP13232   9.552   7.659  10.175  0.1564 -0.1287 -0.2664
 3129PP      PP13233   1.184   8.552   2.134 -0.0847  0.1630 -0.3347
 3130PP      PP13234   2.031  12.905  12.240  0.2547 -0.0822  0.2827
 3131PP      PP13235  14.674   6.745  11.579 -0.0419  0.1262 -0.1082
 3132PP      PP13236   0.257   1.569  10.544  0.0184 -0.1603 -0.0680
 3133PP      PP13237  11.431   0.003   2.495 -0.1699  0.1861 -0.1301
 3134PP      PP13238   0.680   4.772   0.672 -0.1124 -0.0643 -0.0571
 3135PP      PP13239   8.284   7.580   2.125 -0.0951 -0.0191  0.1125
 3136PP      PP13240   9.666   2.303   9.381  0.3444 -0.1347  0.0875
 3137PP      PP13241   1.234   3.289  10.606 -0.2457 -0.0091  0.0814
 3138PP      PP13242  12.176   2.216   4.373 -0.2616  0.0554 -0.0937
 3139PP      PP13243  13.622  14.571   9.272 -0.0493 -0.1053  0.4648
 3140PP      PP13244  10.893   5.518   2.737  0.0534 -0.0784 -0.0461
 3141PP      PP13245   5.555   8.891   9.442  0.2739 -0.2807  0.1188
 3142PP      PP13246  11.666  15.798  11.334 -0.0514 -0.2113 -0.1232
 3143PP      PP13247   1.135  13.080  12.515 -0.1571  0.0392  0.3486
 3144PP      PP13248  10.056   2.609   3.692 -0.1799 -0.1551  0.4274
 3145PP      PP13249   8.014   8.874   9.644 -0.0223 -0.2077 -0.2582
 3146PP      PP13250   7.812   1.040  11.816  0.2373  0.1263  0.0706
 3147PP      PP13251   3.907   6.083   1.967  0.3129 -0.2600 -0.0209
 3148PP      PP13252  12.972   1.875   3.653 -0.0687  0.2171 -0.2612
 3149PP      PP13253   3.134  14.086  13.456 -0.2187 -0.2404 -0.3061
 3150PP      PP13254   8.632  13.216   1.928 -0.0637 -0.1030 -0.3287
 3151PP      PP13255   4.969  12.976   1.275 -0.2949 -0.0585 -0.2095
 3152PP      PP13256   9.742   9.466   1.228 -0.3264  0.4170  0.0373
 3153PP      PP13257  15.479   0.644  13.069 -0.1316  0.1978  0.1045
 3154PP      PP13258  10.694   4.437  13.001 -0.0201 -0.0505  0.0268
 3155PP      PP13259   9.694  13.514  12.958  0.0194  0.2483  0.0179
 3156PP      PP13260   5.056   4.353   9.693 -0.2779 -0.1763  0.1789
 3157PP      PP13261  10.631  13.394  12.296  0.0359  0.1310  0.0453
 3158PP      PP13262   8.456   7.094   1.398  0.1549  0.2175 -0.3138
 3159PP      PP13263   3.222   9.209   0.248 -0.1721  0.0518  0.1443
 3160PP      PP13264   5.637   9.723   4.626 -0.1316 -0.2756 -0.0493
 3161PP      PP13265   6.563   7.295   2.629  0.0285  0.1293  0.0762
 3162PP      PP13266   9.807   4.678   4.230  0.0847  0.0832  0.1534
 3163PP      PP13267  13.170   6.532  12.846  0.0657  0.2631  0.0014
 3164PP      PP13268   8.331  12.255  10.823 -0.0660 -0.1182  0.1040
 3165PP      PP13269   7.487  14.469   1.257 -0.3178  0.0662  0.0395
 3166PP      PP13270  10.207   7.683   4.437  0.1889  0.0989 -0.2428
 3167PP      PP13271  11.808  13.462  10.006 -0.0902  0.2370  0.4550
 3168PP      PP13272   8.260   2.919  13.127 -0.1555 -0.1069  0.0635
 3169PP      PP13273   8.187   3.236   3.244 -0.2562 -0.1511 -0.2186
 3170PP      PP13274   3.938  12.948  12.005 -0.1022  0.0503 -0.0190
 3171PP      PP13275   2.936   7.209  13.520  0.1413 -0.0224 -0.2327
 3172PP      PP13276   9.423   1.847   4.020  0.0374  0.0296  0.2221
 3173PP      PP13277  14.418  13.226   1.724  0.3144  0.2778 -0.0711
 3174PP      PP13278  13.522   9.232   9.730 -0.2933 -0.0694  0.0247
 3175PP      PP13279   2.913  11.724   4.171  0.0858  0.1132 -0.3808
 3176PP      PP13280  11.774  12.841   0.231 -0.1375 -0.1174  0.0341
 3177PP      PP13281  13.536  15.249  12.457  0.1006 -0.0186 -0.2608
 3178PP      PP13282  14.067   7.399   4.548 -0.1601 -0.2472  0.1633
 3179PP      PP13283   4.660   4.853   4.038 -0.2167 -0.0399 -0.0116
 3180PP      PP13284   7.059   3.160   1.483  0.0343  0.1684  0.0438
 3181PP      PP13285   4.588   1.731   8.997  0.1409  0.0230 -0.2657
 3182PP      PP13286   3.085  13.675   1.825 -0.0224  0.1814 -0.3236
 3183PP      PP13287  11.545   6.713   1.239  0.3292  0.1801 -0.0430
 3184PP      PP13288   9.125   6.352   2.554 -0.0962  0.1396 -0.2250
 3185PP      PP13289   4.855   1.305   8.341 -0.0682 -0.2359  0.0675
 3186PP      PP13290   7.148   7.427   0.010 -0.0753  0.1866  0.2214
 3187PP      PP13291   1.612   7.595  12.017 -0.1108 -0.2542 -0.1425
 3188PP      PP13292   9.081  11.199   9.558  0.1650 -0.2570 -0.1815
 3189PP      PP13293   4.786  15.634   7.558 -0.1998 -0.0381 -0.0374
 3190PP      PP13294   1.957   4.123   3.890 -0.2926 -0.0676 -0.2086
 3191PP      PP13295   6.374  14.479  12.152  0.1771 -0.2286  0.1664
 3192PP      PP13296  15.365   2.457  12.305  0.0928 -0.2278 -0.1223
 3193PP      PP13297   8.804   4.010   9.788  0.0580 -0.1311  0.0587
 3194PP      PP13298  13.512   4.414  11.823 -0.1328 -0.1980  0.4001
 3195PP      PP13299   7.260   1.326  12.944 -0.1049 -0.2697  0.0770
 3196PP      PP13300  14.217  12.780   3.010 -0.1119 -0.0577  0.1510
 3197PP      PP13301   7.843   6.613   9.641 -0.1364  0.1332 -0.3576
 3198PP      PP13302  12.084   7.252   4.601  0.1958  0.3768  0.1129
 3199PP      PP13303   9.416   7.937   4.594 -0.3059 -0.2861  0.0289
 3200PP      PP13304   6.747   3.045  10.161 -0.2841  0.1608 -0.0916
 3201PP      PP13305   4.569  11.240   9.583  0.1879 -0.2019 -0.0985
 3202PP      PP13306  10.734   5.598   2.059 -0.0787 -0.0647  0.3230
 3203PP      PP13307  10.071   9.650  12.590  0.2705  0.1475 -0.0743
 3204PP      PP13308  10.066   9.855   3.278 -0.3099  0.0212  0.1335
 3205PP      PP13309   0.089  15.025  12.005 -0.1104 -0.1644  0.0468
 3206PP      PP13310  10.274   7.747  10.481  0.4543  0.0455  0.0024
 3207PP      PP13311   6.786   1.392   2.184  0.2016 -0.1734 -0.0137
 3208PP      PP13312   7.369   4.781   2.798 -0.0072  0.1442 -0.2065
 3209PP      PP13313   5.014   3.711  12.034  0.0281 -0.0657 -0.1453
 3210PP      PP13314  11.838  10.686   2.050  0.0212  0.2259  0.1309
 3211PP      PP13315   9.743  13.163   3.440  0.0936  0.2239  0.1905
 3212PP      PP13316   4.260  11.682  10.924 -0.1588 -0.1261  0.4290
 3213PP      PP13317  14.195  14.450   1.377  0.0699 -0.0178 -0.0110
 3214PP      PP13318   5.162   1.274   0.284 -0.4465 -0.3134  0.0902
 3215PP      PP13319   5.090  12.659   0.483 -0.1481 -0.1364 -0.3566
 3216PP      PP13320  10.080  15.621  11.349 -0.0438  0.1818 -0.4525
 3217PP      PP13321  11.390   8.505   4.880  0.0117 -0.2307 -0.2901
 3218PP      PP13322   4.988   7.217   0.924  0.2450 -0.1062  0.5929
 3219PP      PP13323   2.088   8.466   0.158 -0.0527 -0.2913 -0.2237
 3220PP      PP13324   6.356   8.393   2.164 -0.1134  0.1724  0.1757
 3221PP      PP13325  10.474   9.713   0.025 -0.0161  0.0853 -0.0724
 3222PP      PP13326   3.183  12.419  11.458  0.4354  0.4541 -0.5358
 3223PP      PP13327  10.820  12.425   4.050 -0.0408  0.1129  0.0572
 3224PP      PP13328   3.226  14.756   2.667 -0.0749  0.0556  0.1227
 3225PP      PP13329   6.660   5.894   2.661 -0.2433  0.2501  0.1642
 3226PP      PP13330  15.518  14.435  10.237  0.1621  0.0529  0.0463
 3227PP      PP13331   1.048  10.311   0.857  0.1525 -0.1010  0.1171
 3228PP      PP13332   6.342   8.318   3.468  0.0027 -0.1277  0.1659
 3229PP      PP13333  13.706  14.887   0.131  0.2838 -0.2420  0.1384
 3230PP      PP13334   0.977   2.469  10.446  0.2830  0.1327  0.3857
 3231PP      PP13335   9.655   1.689   0.684 -0.1346  0.1031  0.2107
 3232PP      PP13336   0.762   7.799   5.670  0.2528 -0.0431  0.1352
 3233PP      PP13337  12.077   8.539  12.589  0.1616  0.3892  0.1824
 3234PP      PP13338  12.800   8.998   3.061 -0.4548  0.1901 -0.0493
 3235PP      PP13339   1.771   0.482   3.529  0.1628  0.1550  0.3393
 3236PP      PP13340   7.214   0.028   8.121 -0.0399 -0.0558  0.1023
 3237PP      PP13341   5.231   2.695  10.496 -0.0105 -0.0896 -0.1420
 3238PP      PP13342  11.107   6.925  12.605  0.2830 -0.1918 -0.1845
 3239PP      PP13343   3.460   2.039   2.063 -0.0884 -0.1151 -0.2255
 3240PP      PP13344  12.665  15.603  12.805 -0.3434  0.0899 -0.0468
 3241PP      PP13345   6.293  11.528   1.647 -0.0822 -0.1038 -0.2602
 3242PP      PP13346   8.072  12.283   2.116 -0.1761 -0.2748  0.0553
 3243PP      PP13347  10.449   2.122   0.291 -0.0592  0.0585  0.1304
 3244PP      PP13348  13.916   8.377   2.759 -0.2396 -0.1444 -0.0547
 3245PP      PP13349   5.247  13.296   3.670  0.2327 -0.0285 -0.2298
 3246PP      PP13350  15.633   0.646  11.502  0.2115  0.1258  0.0863
 3247PP      PP13351  10.303  14.623   2.878 -0.0663  0.4756  0.3396
 3248PP      PP13352   1.480  13.899   4.795 -0.0569  0.0157  0.1494
 3249PP      PP13353   8.287   9.149  11.736 -0.1746  0.0103 -0.0177
 3250PP      PP13354   6.322   6.695  10.491  0.0042 -0.1051  0.0404
 3251PP      PP13355  15.694   5.124  11.054 -0.0202  0.1661  0.1905
 3252PP      PP13356  10.147   2.172   2.353 -0.2276  0.0066  0.0883
 3253PP      PP13357   0.497  13.707   1.771  0.3286  0.2839  0.0946
 3254PP      PP13358  13.830   9.282   2.880  0.0623  0.1682 -0.1440
 3255PP      PP13359  11.767   5.202   4.170  0.1742  0.1459  0.1942
 3256PP      PP13360   7.531   4.908  13.041  0.1007 -0.0024  0.2175
 3257PP      PP13361   4.057   5.764  13.179  0.1749  0.0474 -0.2510
 3258PP      PP13362   2.726  12.798   1.817 -0.0573 -0.1911  0.1842
 3259PP      PP13363   8.499   2.751   0.453 -0.0605 -0.0221  0.0205
 3260PP      PP13364  12.966   1.740   0.193  0.1547 -0.0372 -0.0051
 3261PP      PP13365   3.401  12.161   3.805 -0.0874  0.1000  0.2363
 3262PP      PP13366   0.164  15.350  12.486 -0.0474  0.0295 -0.1791
 3263PP      PP13367   3.568  12.190  12.569  0.0880  0.0385 -0.1075
 3264PP      PP13368  12.812   0.860  12.013 -0.1663 -0.4679 -0.0348
 3265PP      PP13369  13.011  10.771  11.639  0.0008  0.0494  0.1696
 3266PP      PP13370  10.001   6.625   1.792  0.0208  0.3730 -0.4021
 3267PP      PP13371   7.895   0.925   4.002  0.2183 -0.0367  0.1347
 3268PP      PP13372   6.309   8.970   1.492 -0.2073 -0.3940  0.1694
 3269PP      PP13373  12.728  14.138  11.718 -0.0328 -0.1407 -0.1074
 3270PP      PP13374   3.435   3.325   1.407  0.0474 -0.2040 -0.2309
 3271PP      PP13375   8.881  14.696  10.954 -0.2066 -0.2002 -0.3203
 3272PP      PP13376   1.883  13.955  11.216  0.0111 -0.1704 -0.1049
 3273PP      PP13377  10.491   0.015   8.941  0.0116 -0.0271  0.1182
 3274PP      PP13378   1.612   6.906   1.365  0.2401  0.0569 -0.2515
 3275PP      PP13379   0.517   5.692   2.924 -0.2787 -0.0183  0.0020
 3276PP      PP13380  14.810   5.973   2.403 -0.0459 -0.1923  0.0778
 3277PP      PP13381   4.551  10.420   5.038 -0.1403  0.0181  0.0597
 3278PP      PP13382   8.454  13.243   3.605  0.2105  0.0475  0.1988
 3279PP      PP13383  15.145   0.376   2.320 -0.1704 -0.0289  0.0253
 3280PP      PP13384  12.865  13.321   8.939 -0.1304 -0.1937 -0.0765
 3281PP      PP13385   5.459   0.776   8.659  0.0106  0.1751  0.1404
 3282PP      PP13386   9.756   6.609   9.284 -0.1880  0.0096  0.4323
 3283PP      PP13387  13.220   3.326  12.266  0.0776  0.0795  0.2448
 3284PP      PP13388   0.703  12.148  12.330 -0.0779 -0.2004 -0.0117
 3285PP      PP13389   7.529   9.965   3.157  0.1989  0.0725  0.2782
 3286PP      PP13390  11.530  15.048  10.096  0.0460 -0.0110  0.2232
 3287PP      PP13391   0.271   5.216   3.824  0.1103  0.1195 -0.1013
 3288PP      PP13392  13.306   8.193  10.709 -0.1043  0.1134  0.1603
 3289PP      PP13393   4.853  11.087   9.204 -0.2780  0.2398  0.0265
 3290PP      PP13394   7.008   0.857  13.349  0.0884 -0.1379 -0.0137
 3291PP      PP13395   2.941   2.368   8.475  0.0501 -0.0146  0.1151
 3292PP      PP13396  13.512   5.518   5.080 -0.1810 -0.0562 -0.4440
 3293PP      PP13397   8.981   3.046   8.500 -0.1291 -0.1908  0.0537
 3294PP      PP13398  10.571  14.559   8.936  0.1640 -0.0262  0.1148
 3295PP      PP13399   1.267   9.697   1.671  0.1103  0.0019 -0.4129
 3296PP      PP13400   6.209  13.453   8.518 -0.1278 -0.2643 -0.3717
 3297PP      PP13401   0.450  14.014  10.886  0.0027 -0.2434 -0.1465
 3298PP      PP13402  14.254   1.514   8.399 -0.1008 -0.2816 -0.0176
 3299PP      PP13403  12.958   5.152  12.225 -0.2715 -0.4185 -0.0291
 3300PP      PP13404  14.123   4.271   4.079  0.3431  0.0039  0.0762
 3301PP      PP13405  13.580  15.773  11.146  0.0755 -0.4740 -0.0245
 3302PP      PP13406  15.094   5.183  10.451 -0.3603  0.2163  0.0836
 3303PP      PP13407  12.249   9.287   1.933  0.0305 -0.1437  0.3052
 3304PP      PP13408  12.425  15.063   0.128 -0.3041  0.1262  0.0487
 3305PP      PP13409  15.192  12.579   2.982 -0.1272  0.0727  0.0964
 3306PP      PP13410  13.533   9.290   1.745  0.0045 -0.0712 -0.2732
 3307PP      PP13411   1.525   1.854   2.299  0.2033  0.2496  0.0208
 3308PP      PP13412  11.682   2.817   1.407  0.1044  0.1172 -0.4522
 3309PP      PP13413   3.501   2.663   0.630 -0.1828  0.0084 -0.4378
 3310PP      PP13414  15.819  10.357   2.119 -0.0921 -0.1801 -0.2841
 3311PP      PP13415   4.188   0.757   8.971 -0.1611 -0.1333  0.1113
 3312PP      PP13416   0.966   7.859  11.338  0.0304 -0.0233  0.0630
 3313PP      PP13417   6.595  10.995   3.745  0.1997  0.5165  0.2122
 3314PP      PP13418   3.309  14.980   0.738  0.1180 -0.0999  0.0824
 3315PP      PP13419   7.446   5.373  11.326 -0.3874 -0.0080  0.0223
 3316PP      PP13420   2.672   1.846  10.611 -0.2039 -0.0226 -0.1760
 3317PP      PP13421   3.831  11.198  12.271 -0.0156 -0.1650  0.0157
 3318PP      PP13422   2.324   0.178   8.928  0.2448 -0.0939  0.0145
 3319PP      PP13423  14.088   3.665  10.880 -0.1965  0.1115 -0.1518
 3320PP      PP13424  12.823   1.902   9.291 -0.1645  0.3264  0.0089
 3321PP      PP13425   1.065  13.989   1.100 -0.1832 -0.1927  0.0121
 3322PP      PP13426   0.079  14.932  11.390 -0.0885 -0.1482  0.3133
 3323PP      PP13427   8.679   5.567  12.641 -0.2216  0.0444  0.1390
 3324PP      PP13428  10.288  14.660  10.523 -0.0351  0.0475  0.1943
 3325PP      PP13429   8.677   9.990   1.610 -0.0210  0.1267  0.0396
 3326PP      PP13430   1.874   4.716  10.485 -0.2098 -0.0606  0.1595
 3327PP      PP13431   5.312   6.441  11.814  0.2616 -0.0780  0.1558
 3328PP      PP13432   6.720  14.063  13.119 -0.1619 -0.0910  0.2193
 3329PP      PP13433   0.422   8.106  10.084  0.0398  0.0907  0.2032
 3330PP      PP13434  10.863  10.478   3.206  0.3192  0.0238 -0.0648
 3331PP      PP13435  13.292   5.710  11.968 -0.0120 -0.1695  0.1492
 3332PP      PP13436  15.637  12.057   9.599 -0.0138 -0.0765 -0.0557
 3333PP      PP13437   6.278  14.767   3.424 -0.0876 -0.2967 -0.2657
 3334PP      PP13438   2.725  15.308   1.284 -0.0509  0.0014 -0.0815
 3335PP      PP13439   6.920  10.693   3.474  0.2882 -0.0304  0.3240
 3336PP      PP13440   9.699   9.920  12.867 -0.1554  0.2872 -0.0540
 3337PP      PP13441  12.273   2.309   2.763  0.0169 -0.0568 -0.0634
 3338PP      PP13442   6.301  12.782   2.071 -0.0512  0.1386 -0.0047
 3339PP      PP13443  14.665   2.361  10.559  0.1393  0.2045 -0.2160
 3340PP      PP13444   4.787   0.364   7.402 -0.1357  0.0635 -0.0492
 3341PP      PP13445   0.846   0.580   1.293 -0.1982 -0.0942  0.0230
 3342PP      PP13446   0.040   5.541   0.070  0.0103  0.2158 -0.0905
 3343PP      PP13447   0.599  13.721  11.640 -0.0273 -0.3986 -0.0110
 3344PP      PP13448   7.191   1.070   8.710 -0.0864 -0.0581 -0.0206
 3345PP      PP13449  14.165  12.336  11.074  0.0723 -0.0664  0.0601
 3346PP      PP13450  13.454   3.812  10.333 -0.0468 -0.2634 -0.4326
 3347PP      PP13451   8.924   8.116  11.113  0.1546  0.1645 -0.1192
 3348PP      PP13452   3.612   0.985  13.060 -0.3351  0.1818  0.0537
 3349PP      PP13453   7.551   0.817   9.809  0.1904  0.2707 -0.2294
 3350PP      PP13454   6.915   0.625   2.787  0.0669  0.2611 -0.1733
 3351PP      PP13455   5.696   8.194  10.885  0.1918  0.1422  0.0557
 3352PP      PP13456   8.915  12.427   3.107  0.1257 -0.0864  0.2133
 3353PP      PP13457   4.262   3.323  11.878  0.1491 -0.2998  0.1913
 3354PP      PP13458  12.860  14.206   3.989  0.0133  0.0099 -0.1803
 3355PP      PP13459   9.878  13.330  10.121 -0.2631  0.0693  0.4950
 3356PP      PP13460  13.266  10.940   1.391  0.4057 -0.0040 -0.0935
 3357PP      PP13461  10.227   3.612  11.125 -0.2887  0.0589  0.2481
 3358PP      PP13462  10.409   0.811  11.763  0.0933 -0.2248  0.2047
 3359PP      PP13463   2.300   1.088   3.031 -0.1231  0.1453 -0.0122
 3360PP      PP13464   4.196  10.823  12.709  0.0579  0.0118 -0.2319
 3361PP      PP13465   0.785   9.443   5.287 -0.0146  0.1159  0.5683
 3362PP      PP13466   8.633  13.816   4.891  0.0610  0.0398 -0.0362
 3363PP      PP13467   1.351  12.842   3.045  0.2020  0.6119 -0.1931
 3364PP      PP13468  13.722   7.940   2.931 -0.2098  0.0181 -0.1101
 3365PP      PP13469   1.633   7.889   0.611 -0.1506  0.0886 -0.0927
 3366PP      PP13470   5.538  10.445   0.596  0.1776  0.1298  0.2879
 3367PP      PP13471  14.529   5.067  11.188 -0.1666 -0.1161  0.0668
 3368PP      PP13472   5.888   3.732   1.279 -0.0129 -0.2190  0.0687
 3369PP      PP13473   3.072  13.827  11.464  0.0171  0.0958 -0.1687
 3370PP      PP13474  15.821   5.833   4.668  0.4083 -0.2802  0.0936
 3371PP      PP13475  15.812   4.256   3.267 -0.0145  0.0280  0.2400
 3372PP      PP13476   7.507   1.957  11.241 -0.1549 -0.0208  0.0428
 3373PP      PP13477   3.450   2.491   9.724 -0.1388 -0.1340 -0.0698
 3374PP      PP13478   4.316   9.321  11.037 -0.0377  0.1812  0.0254
 3375PP      PP13479   5.255   7.406   4.169  0.0704 -0.1376 -0.1124
 3376PP      PP13480   7.429   7.420   1.534  0.0442  0.0168 -0.0828
 3377PP      PP13481   9.257   6.172   2.114  0.1709  0.1291  0.0980
 3378PP      PP13482   9.109   2.494   8.695  0.1918 -0.0382 -0.0799
 3379PP      PP13483   2.413   5.710  12.148  0.0506 -0.1253  0.0715
 3380PP      PP13484   1.340   7.414  11.653  0.1518  0.1953 -0.1099
 3381PP      PP13485   2.584   1.962  13.340 -0.2176  0.1825 -0.2898
 3382PP      PP13486   3.689  10.613   4.854 -0.1224 -0.0457  0.0908
 3383PP      PP13487   6.859  13.904   1.891  0.0203 -0.1641 -0.0964
 3384PP      PP13488   2.807  14.333   0.308  0.3777 -0.0914  0.0943
 3385PP      PP13489  12.181  14.522  12.344 -0.1354  0.2663  0.0571
 3386PP      PP13490  14.667  13.646  12.453 -0.1423  0.1005  0.0931
 3387PP      PP13491  15.239   6.253  11.606  0.0479  0.2393 -0.1605
 3388PP      PP13492   6.929   4.385  12.023  0.1990 -0.1662 -0.1942
 3389PP      PP13493  13.007  15.560  10.815  0.0345 -0.2187  0.3002
 3390PP      PP13494   3.003  15.117  11.427  0.0427 -0.0003  0.3754
 3391PP      PP13495   4.007  13.597   0.492 -0.0817 -0.2789  0.2711
 3392PP      PP13496   0.793  14.599   0.043 -0.1201  0.0005 -0.0827
 3393PP      PP13497   7.455   6.399   9.884  0.1334 -0.2425 -0.0141
 3394PP      PP13498   9.980   6.862  11.044  0.0674 -0.1113 -0.0558
 3395PP      PP13499  11.931   1.494  13.128  0.0487 -0.0323  0.0190
 3396PP      PP13500   1.595  14.255  12.200 -0.1776 -0.2054 -0.0589
 3397PP      PP13501  13.327  11.912   3.262 -0.1121  0.0580 -0.1663
 3398PP      PP13502   6.085   4.775   0.442 -0.0926  0.1672 -0.1458
 3399PP      PP13503   6.751  10.042   4.550  0.1152  0.1161 -0.0804
 3400PP      PP13504   4.262  15.070   2.209 -0.0737  0.2571  0.4009
 3401PP      PP13505   2.381  13.879   1.170  0.0046 -0.3266 -0.1890
 3402PP      PP13506  10.197   7.020   3.653  0.2402  0.0875  0.3369
 3403PP      PP13507   9.133   3.587   2.490 -0.4672 -0.0351 -0.1837
 3404PP      PP13508  10.817  13.578  11.639 -0.0872  0.0768  0.1696
 3405PP      PP13509   7.841   8.925   1.576 -0.2427 -0.2662  0.0119
 3406PP      PP13510   6.799   8.279   1.749  0.0387 -0.2513 -0.1123
 3407PP      PP13511   3.214   3.625  10.574  0.0127 -0.1411  0.0672
 3408PP      PP13512   1.540  15.286   0.132 -0.2497 -0.1131  0.0656
 3409PP      PP13513   2.335   5.830   4.884  0.4471  0.0013  0.0725
 3410PP      PP13514   7.356   9.305   3.684  0.0473  0.4020 -0.0773
 3411PP      PP13515  15.505   3.673   3.850  0.2306 -0.4381  0.3262
 3412PP      PP13516  14.780   2.435  12.422  0.1252 -0.1331  0.2169
 3413PP      PP13517   0.822   5.815   5.042 -0.1793 -0.3075  0.2432
 3414PP      PP13518   1.130  10.104   1.342 -0.1143 -0.1236  0.1929
 3415PP      PP13519   0.694   0.051   2.294  0.0370 -0.0732 -0.1407
 3416PP      PP13520  11.406   3.447   8.857  0.0424 -0.0729 -0.2075
 3417PP      PP13521   4.765   3.116   1.665  0.0028  0.0986 -0.0139
 3418PP      PP13522   3.879   2.879  11.621  0.0998 -0.5088  0.0635
 3419PP      PP13523   2.200  14.166   0.754 -0.0498  0.0938  0.0099
 3420PP      PP13524   2.602   1.653   1.437  0.0472  0.0646  0.1232
 3421PP      PP13525   4.460   4.754  11.358 -0.1918  0.1029  0.1945
 3422PP      PP13526   7.009   5.151  10.339 -0.0630  0.2210  0.2167
 3423PP      PP13527   7.970   3.805   9.530 -0.2736  0.2435 -0.1233
 3424PP      PP13528  10.910   7.475  11.111 -0.4656  0.2150 -0.1424
 3425PP      PP13529   2.248   0.386   3.677 -0.2733  0.0859  0.3458
 3426PP      PP13530  13.637  15.545   9.928  0.2989 -0.2725 -0.0086
 3427PP      PP13531   9.957   6.615  13.457  0.1331 -0.1748 -0.0337
 3428PP      PP13532  10.757   8.984  10.303  0.1813 -0.4689 -0.0008
 3429PP      PP13533   0.735  13.084  11.944 -0.0105 -0.5054  0.0288
 3430PP      PP13534  14.081   4.313   9.754  0.1727  0.4097 -0.3133
 3431PP      PP13535  11.385  14.211   1.647  0.0805 -0.0771 -0.0542
 3432PP      PP13536   4.295   0.193   1.973 -0.1870  0.0071  0.0716
 3433PP      PP13537   1.638   3.835   0.279 -0.1653 -0.0648  0.0644
 3434PP      PP13538  10.667  14.474   2.566  0.1449 -0.0602 -0.0410
 3435PP      PP13539  15.244   0.709   0.249 -0.0897 -0.0904  0.2432
 3436PP      PP13540   0.728   6.584  10.647  0.2532  0.0243  0.4584
 3437PP      PP13541   9.497   3.861   9.130  0.0504  0.0115  0.0356
 3438PP      PP13542  13.194   9.736   0.084 -0.3696 -0.1312 -0.1947
 3439PP      PP13543   6.917   5.035   2.653  0.0827 -0.1596 -0.3522
 3440PP      PP13544  10.113   9.096   1.169 -0.1982 -0.0851  0.0768
 3441PP      PP13545  13.725   1.645   1.239  0.2007 -0.1349  0.0181
 3442PP      PP13546   1.878   4.950   9.532 -0.0931 -0.2681  0.1979
 3443PP      PP13547  14.608  14.577  10.533  0.1165 -0.1655 -0.1208
 3444PP      PP13548  13.114   1.969   4.139 -0.1968  0.0125 -0.0900
 3445PP      PP13549   1.190   9.025   3.166  0.0829 -0.0574  0.0648
 3446PP      PP13550   5.704   6.516   9.139  0.2449  0.1641 -0.3661
 3447PP      PP13551  15.183   2.775  13.326 -0.0780  0.0158 -0.1843
 3448PP      PP13552  12.761   8.591  11.082  0.1219  0.2513 -0.0934
 3449PP      PP13553  11.406   0.586   1.940 -0.0138 -0.1650  0.2920
 3450PP      PP13554   3.607  12.644  11.664  0.0682  0.0186 -0.0620
 3451PP      PP13555   1.185   8.003   1.611  0.1515 -0.2326  0.0339
 3452PP      PP13556   7.035   5.081   8.575  0.4191  0.2010 -0.0443
 3453PP      PP13557   9.771   0.649   8.622 -0.3443  0.0645 -0.2191
 3454PP      PP13558  15.226  15.370   1.667  0.0740  0.0650 -0.0001
 3455PP      PP13559  10.625   2.910  12.144  0.1444  0.2001  0.4960
 3456PP      PP13560  14.650  13.035   2.179 -0.2505  0.0200  0.0783
 3457PP      PP13561   5.908   8.846   9.031  0.0626  0.1209  0.1917
 3458PP      PP13562   2.972   4.092   1.469 -0.0882 -0.0262  0.3444
 3459PP      PP13563  14.949   8.375  11.345  0.2189 -0.0767 -0.2528
 3460PP      PP13564  11.319   4.937  11.507  0.0917  0.1980  0.2843
 3461PP      PP13565  10.741   1.132   3.890 -0.1428 -0.0160 -0.1487
 3462PP      PP13566   5.405  13.937   8.682 -0.4110  0.1393 -0.1364
 3463PP      PP13567   8.635   9.511  12.433 -0.2277 -0.0286 -0.3730
 3464PP      PP13568   2.794   9.709  11.703  0.2514  0.0857  0.0253
 3465PP      PP13569  11.764   2.440  12.647  0.5938 -0.1950  0.1153
 3466PP      PP13570   9.503  10.965   3.018 -0.1056  0.1657 -0.0381
 3467PP      PP13571  12.153   3.195   0.374 -0.0458 -0.2182  0.0178
 3468PP      PP13572   5.597  14.525   8.133 -0.1525 -0.0290  0.1398
 3469PP      PP13573   9.473   8.808   9.844 -0.2857 -0.1534  0.2622
 3470PP      PP13574  12.692   4.894   0.606 -0.0022 -0.1499  0.1359
 3471PP      PP13575  15.247   6.312   2.427 -0.3476 -0.1266 -0.1005
 3472PP      PP13576  13.917   1.834   1.683 -0.1840 -0.1193 -0.2944
 3473PP      PP13577   1.072   7.155   1.410 -0.1342  0.0906  0.1671
 3474PP      PP13578   3.863   6.631  12.924  0.1675 -0.0487  0.1057
 3475PP      PP13579   8.776   4.015  10.858 -0.1192  0.0893 -0.0603
 3476PP      PP13580  13.277  11.847  12.881  0.0426 -0.1502 -0.0865
 3477PP      PP13581   5.735   0.327   2.289  0.3327  0.0208 -0.2997
 3478PP      PP13582  11.034  14.844   2.728  0.2795 -0.1032 -0.1504
 3479PP      PP13583   6.702   1.723   1.423 -0.0633 -0.1181 -0.1687
 3480PP      PP13584  14.394   2.447   0.927  0.1931 -0.1896 -0.0174
 3481PP      PP13585  15.228  14.551   3.547  0.1320 -0.0237 -0.0049
 3482PP      PP13586  10.755  14.444   0.900 -0.3576 -0.2012 -0.0008
 3483PP      PP13587   1.660   8.480   4.842  0.3123 -0.4052 -0.0462
 3484PP      PP13588  11.220  12.845  12.936  0.1052  0.2592 -0.0183
 3485PP      PP13589   1.756   4.159   2.985  0.0954  0.0462 -0.0203
 3486PP      PP13590   9.310  14.871  10.710  0.2679 -0.1234 -0.0040
 3487PP      PP13591   0.786   4.318   0.523  0.0062 -0.0543 -0.2721
 3488PP      PP13592   6.651  13.379  11.500 -0.0877 -0.0630  0.2349
 3489PP      PP13593  13.277   6.676  12.336 -0.0397 -0.0570  0.2119
 3490PP      PP13594  14.171   1.250   1.148 -0.4343  0.1011 -0.3348
 3491PP      PP13595  15.565  13.767   3.644 -0.1691  0.2486  0.1384
 3492PP      PP13596   0.309  13.032   3.725 -0.1656 -0.0296 -0.3768
 3493PP      PP13597  13.442   7.739  12.483 -0.0359  0.2531  0.0013
 3494PP      PP13598   2.173  14.272  12.419 -0.1765  0.2209  0.0994
 3495PP      PP13599  13.083   9.093  10.509 -0.5518 -0.1801  0.0071
 3496PP      PP13600   4.135   0.784  13.343 -0.3333 -0.2672  0.1890
 3497PP      PP13601   5.006   4.631  10.138 -0.1997  0.0489 -0.3737
 3498PP      PP13602  11.469  11.984   2.813 -0.3029 -0.2453 -0.2433
 3499PP      PP13603   6.811  15.407   9.489  0.0566  0.1686 -0.1136
 3500PP      PP13604   3.298   9.175   2.905 -0.1395  0.3500 -0.0755
 3501PP      PP13605  11.203   3.170   2.978 -0.1194  0.3877 -0.3340
 3502PP      PP13606  11.427  15.400  11.143  0.1483  0.1278 -0.0976
 3503PP      PP13607  15.256   7.560  11.359  0.0513 -0.0570  0.0257
 3504PP      PP13608   3.798   1.918   1.716  0.2130  0.1090  0.3226
 3505PP      PP13609   4.213   1.437   2.957 -0.2424 -0.3751  0.0073
 3506PP      PP13610   2.451   8.701   0.984  0.0012  0.0749  0.1130
 3507PP      PP13611  11.140   7.539   2.738 -0.0902 -0.3812  0.2307
 3508PP      PP13612   9.305   2.035   3.432 -0.1709 -0.0056 -0.2615
 3509PP      PP13613  12.204   1.854  10.941  0.0363  0.0764 -0.2800
 3510PP      PP13614   9.194  15.140  11.835 -0.1458 -0.2950  0.2510
 3511PP      PP13615   8.566   8.092   1.096 -0.0571 -0.1163  0.1351
 3512PP      PP13616  12.439  14.371  12.784 -0.3392  0.4337 -0.0994
 3513PP      PP13617   8.657   2.033  13.334  0.0364  0.0580 -0.1618
 3514PP      PP13618   2.997  13.067  10.222 -0.0412  0.1251  0.2095
 3515PP      PP13619   7.095   6.216   0.575 -0.1796  0.0869  0.0517
 3516PP      PP13620   7.855   0.242  10.582  0.1212 -0.1921  0.0890
 3517PP      PP13621  11.789  13.769   0.321  0.0286  0.1719 -0.2616
 3518PP      PP13622  12.127   8.209   0.594 -0.2344 -0.2995  0.2435
 3519PP      PP13623  10.642   8.315  12.525  0.0873 -0.0945 -0.1397
 3520PP      PP13624   4.148   1.846   2.072 -0.3599  0.1030 -0.1220
 3521PP      PP13625   9.355   8.810   0.567 -0.1005 -0.1328 -0.0674
 3522PP      PP13626   0.424   4.300   1.706 -0.0640 -0.1283 -0.1089
 3523PP      PP13627  14.314  10.529  12.862 -0.0969 -0.3099  0.1125
 3524PP      PP13628  13.947   0.629   8.694  0.3897  0.4210  0.0063
 3525PP      PP13629   7.828  14.042  13.271  0.3019  0.0930 -0.3498
 3526PP      PP13630  15.740   3.085   2.987 -0.1404  0.1129  0.0887
 3527PP      PP13631  12.805  15.258   9.988 -0.0565 -0.1034 -0.0177
 3528PP      PP13632   0.894   2.011  10.510  0.4293  0.0434 -0.3924
 3529PP      PP13633   2.576  14.424   1.095 -0.1446 -0.4833  0.2573
 3530PP      PP13634   5.093   8.555  11.473 -0.2564 -0.1837  0.1447
 3531PP      PP13635  13.063  10.445   1.336  0.0302  0.0289 -0.0845
 3532PP      PP13636   3.172   8.914   0.675 -0.0079 -0.2358  0.0713
 3533PP      PP13637   9.191  13.941   3.436  0.1975  0.0748  0.1162
 3534PP      PP13638   5.138   7.434  12.162  0.0714  0.1448  0.2284
 3535PP      PP13639   4.452   1.788  12.337  0.1038  0.2756 -0.0509
 3536PP      PP13640   0.941   1.438   1.811 -0.2904 -0.0512  0.0521
 3537PP      PP13641   6.875  13.932   9.505 -0.1454  0.0935 -0.2247
 3538PP      PP13642   1.677  15.023  10.785 -0.4071  0.0359  0.0330
 3539PP      PP13643  15.619   0.294   0.388  0.0180  0.1477 -0.0330
 3540PP      PP13644   8.679   1.686  12.505 -0.2841 -0.1656  0.0787
 3541PP      PP13645  10.928   8.964   4.147 -0.0344  0.1164  0.1116
 3542PP      PP13646   8.752   6.039   8.585  0.2012  0.2297 -0.3333
 3543PP      PP13647  11.850   9.853   0.198  0.2133  0.1386 -0.1772
 3544PP      PP13648   1.595  10.722   2.747 -0.0723  0.0498 -0.0547
 3545PP      PP13649   5.163   3.618  10.571  0.2404  0.0275 -0.0367
 3546PP      PP13650  10.942   4.942  10.345  0.0795 -0.1229  0.1431
 3547PP      PP13651  10.404   4.141  12.667 -0.1387 -0.1632 -0.1360
 3548PP      PP13652  15.528  14.727  11.611 -0.3179  0.3800 -0.3706
 3549PP      PP13653  15.229   3.342   3.161  0.0297  0.0555 -0.1033
 3550PP      PP13654   6.791   1.594  10.872 -0.1267 -0.1271  0.0098
 3551PP      PP13655   3.057   2.373  11.420  0.0960 -0.0299  0.3255
 3552PP      PP13656  10.570  14.134   9.201  0.0234  0.1443 -0.0727
 3553PP      PP13657   3.633  14.093  10.336  0.2800 -0.1884  0.0897
 3554PP      PP13658   4.809   6.307  11.880 -0.3030  0.1440 -0.0885
 3555PP      PP13659  11.407   2.088   4.512  0.1181  0.2120  0.2305
 3556PP      PP13660   1.853   7.206  11.546 -0.2515 -0.0796  0.0579
 3557PP      PP13661   8.143   1.265   2.613  0.2293  0.1291  0.1312
 3558PP      PP13662  13.002   8.651  11.640 -0.0843  0.2765  0.2301
 3559PP      PP13663  11.130   7.382   0.890 -0.1222 -0.3027  0.0111
 3560PP      PP13664  12.600   7.642   3.053  0.1655 -0.1065  0.0862
 3561PP      PP13665  13.140   5.743  11.434  0.0071  0.2030 -0.0367
 3562PP      PP13666  10.594   5.238  10.934  0.0780 -0.3522  0.0571
 3563PP      PP13667   7.677  14.612  11.920  0.0819  0.1640 -0.2013
 3564PP      PP13668  12.283   6.194  11.782 -0.2056 -0.3660 -0.0701
 3565PP      PP13669  11.046   5.932  11.392 -0.1178 -0.4035 -0.1867
 3566PP      PP13670  14.618  13.538   9.323  0.3767 -0.2414  0.0586
 3567PP      PP13671   8.397  12.154   4.052 -0.0397  0.1627  0.1780
 3568PP      PP13672  15.160  14.217   9.789 -0.1474  0.0903  0.3737
 3569PP      PP13673   6.864   2.532   8.105  0.1276  0.0031  0.3076
 3570PP      PP13674   6.781  15.269   0.913  0.0301  0.0373 -0.2579
 3571PP      PP13675   0.585   8.426   0.074 -0.1076  0.2124 -0.0505
 3572PP      PP13676   2.731  11.672   3.701 -0.2916  0.0427  0.0854
 3573PP      PP13677   7.301  11.762   3.761 -0.2279  0.3157 -0.5833
 3574PP      PP13678   6.151  10.601   1.587 -0.1280 -0.0166 -0.2079
 3575PP      PP13679   1.932   2.592   4.418  0.1795  0.2537 -0.3129
 3576PP      PP13680  15.740   8.819  10.176  0.1295  0.0121 -0.1433
 3577PP      PP13681   3.640  11.414   0.410 -0.1549 -0.0178 -0.0432
 3578PP      PP13682   5.955   2.012   8.981 -0.0114  0.1260 -0.0618
 3579PP      PP13683   2.250   7.446   2.936 -0.2123 -0.2705 -0.1139
 3580PP      PP13684   6.619  10.397  13.462  0.2088  0.0338  0.0709
 3581PP      PP13685  13.266   1.283  12.560  0.0568  0.5102 -0.2425
 3582PP      PP13686  11.908   1.605   8.172 -0.3196 -0.0471 -0.0252
 3583PP      PP13687   0.913   4.291   4.178 -0.1495  0.2118  0.1717
 3584PP      PP13688  12.973  13.193   5.014  0.0445  0.1050 -0.0851
 3585PP      PP13689   0.435   4.517  11.687 -0.0544  0.0888  0.4193
 3586PP      PP13690   4.227   0.309  13.098 -0.1842  0.3592 -0.2718
 3587PP      PP13691   3.378   9.716   2.789  0.1581 -0.0298 -0.0712
 3588PP      PP13692  15.707   8.956   2.666 -0.2487  0.1207  0.0737
 3589PP      PP13693   2.914  10.186  13.058  0.0823 -0.0478 -0.1650
 3590PP      PP13694   8.977   0.392  11.499 -0.1918 -0.0663 -0.1723
 3591PP      PP13695   8.300   1.477   0.468  0.1125 -0.0220 -0.1412
 3592PP      PP13696   2.226   2.602   2.610 -0.0636  0.0332 -0.1892
 3593PP      PP13697  12.586   8.228   0.228  0.4279 -0.2387  0.1387
 3594PP      PP13698   3.820   3.013  13.112  0.1134 -0.4190  0.1484
 3595PP      PP13699   6.872   1.136   3.135 -0.2221 -0.2697 -0.0659
 3596PP      PP13700   4.965  11.106   1.137 -0.0063 -0.2953 -0.1750
 3597PP      PP13701  15.100   6.047   0.079 -0.0093  0.0905 -0.0578
 3598PP      PP13702   2.409   8.708   2.305  0.3352 -0.2331 -0.1748
 3599PP      PP13703   0.686  12.378   2.460  0.0471  0.0939  0.0285
 3600PP      PP13704  14.732   7.496  13.095  0.0080  0.0121 -0.0557
 3601PP      PP13705   3.604  11.355   9.247 -0.1358  0.0705 -0.0479
 3602PP      PP13706  13.394   9.843  10.151  0.1331 -0.0123 -0.5328
 3603PP      PP13707   0.962   6.025   4.072  0.1969  0.0731  0.0104
 3604PP      PP13708  10.533  14.757   9.738 -0.3770  0.1284 -0.3011
 3605PP      PP13709   3.402   0.354   8.753 -0.0992  0.0264 -0.0321
 3606PP      PP13710  14.278   2.318  10.242  0.0690 -0.1907 -0.1007
 3607PP      PP13711   0.620  12.043  13.241 -0.3268 -0.2070 -0.2087
 3608PP      PP13712  10.116   1.260  11.454 -0.2518 -0.4008  0.0591
 3609PP      PP13713   7.868  13.636   4.025 -0.2615  0.0589  0.1316
 3610PP      PP13714   2.491  13.274   1.811  0.2563  0.0284  0.2375
 3611PP      PP13715   0.653   8.928   0.043  0.3300 -0.1871  0.1726
 3612PP      PP13716  12.306   1.032  12.117 -0.0382 -0.0790 -0.2198
 3613PP      PP13717   7.268   3.413   2.330  0.3474  0.0012  0.1093
 3614PP      PP13718  13.387   8.264   0.326  0.1295  0.1513  0.3514
 3615PP      PP13719   9.040  10.822   4.525 -0.1636 -0.1517 -0.1818
 3616PP      PP13720   9.166   5.289   8.879  0.0478 -0.1409  0.0669
 3617PP      PP13721   3.685  13.578  12.157 -0.0939 -0.3810 -0.3453
 3618PP      PP13722  13.757  10.633   2.246  0.1360  0.1167 -0.0723
 3619PP      PP13723  11.260  13.494   0.421  0.1941 -0.1350  0.0368
 3620PP      PP13724   5.121   5.779   0.468  0.1871  0.2665 -0.3749
 3621PP      PP13725   8.416  15.697   1.270 -0.2606  0.2481  0.0260
 3622PP      PP13726  10.982  12.566  11.235  0.0565 -0.2759 -0.0031
 3623PP      PP13727   0.068   5.938   9.956  0.2605  0.1392  0.0976
 3624PP      PP13728  10.422   7.186   2.225 -0.1928 -0.1254  0.0537
 3625PP      PP13729  14.918  13.202   1.490  0.0715  0.0632  0.1049
 3626PP      PP13730  15.097  10.098   1.705  0.2193  0.1554  0.1712
 3627PP      PP13731   8.878   1.661   9.327  0.0609 -0.0880 -0.0249
 3628PP      PP13732   1.614   4.971   3.393  0.1164  0.1831 -0.0874
 3629PP      PP13733   3.601  10.894   5.644 -0.1718  0.0854  0.3545
 3630PP      PP13734  15.369   5.560  10.667 -0.0534  0.2083  0.2033
 3631PP      PP13735   3.345   6.656   4.295  0.1941 -0.1642 -0.1743
 3632PP      PP13736   3.365   5.001  10.656  0.1347 -0.0517  0.1871
 3633PP      PP13737  10.371   3.192  10.423  0.1113 -0.1609 -0.0311
 3634PP      PP13738   4.772  12.292  11.205 -0.0205 -0.2393 -0.1053
 3635PP      PP13739   2.674   9.663   3.572  0.3019 -0.4379  0.4521
 3636PP      PP13740  13.852  10.059   0.545  0.0528 -0.1895  0.1481
 3637PP      PP13741   4.059   4.688   2.283 -0.1182  0.0316  0.2825
 3638PP      PP13742   5.557  14.393  11.753  0.1628 -0.0593 -0.2021
 3639PP      PP13743  14.289   0.422   4.235 -0.1011 -0.1937 -0.2078
 3640PP      PP13744   1.113  14.296   2.734 -0.0221 -0.0257 -0.0395
 3641PP      PP13745  13.824  11.119  12.414  0.1835  0.1193  0.0208
 3642PP      PP13746  12.736   4.599   1.915 -0.0082  0.0258  0.0380
 3643PP      PP13747   1.662   8.516  10.826  0.1394 -0.1326 -0.3382
 3644PP      PP13748   7.036   8.118   2.962  0.2708  0.2488  0.0564
 3645PP      PP13749   8.829   9.297   0.446  0.1253  0.1950 -0.0336
 3646PP      PP13750  15.122  12.624  13.384  0.0364  0.0887  0.3262
 3647PP      PP13751   2.555  11.063  13.193 -0.0126  0.2685  0.1349
 3648PP      PP13752   6.440  13.631  12.599  0.3856  0.1709  0.0637
 3649PP      PP13753   0.833   1.064  12.413  0.2253  0.2631  0.2348
 3650PP      PP13754   4.283   6.452   4.990 -0.2101 -0.2815 -0.2549
 3651PP      PP13755   5.765  10.005  13.386  0.2388  0.1486 -0.0723
 3652PP      PP13756   2.390  15.573  11.977 -0.1435  0.1584  0.1394
 3653PP      PP13757   9.222  15.111  11.125 -0.0798  0.1954 -0.1186
 3654PP      PP13758   2.924  14.142   8.999  0.1976 -0.1288 -0.0724
 3655PP      PP13759   7.974  10.988   0.243  0.0942 -0.0830 -0.1274
 3656PP      PP13760   4.018   3.153   4.075 -0.2493  0.2315  0.0016
 3657PP      PP13761   7.427  12.605  10.783  0.1249  0.1794  0.2149
 3658PP      PP13762   5.968   5.643   4.253 -0.1459  0.1117 -0.0230
 3659PP      PP13763  15.096  11.378   4.670  0.1354 -0.0318 -0.0501
 3660PP      PP13764   2.547  14.087  10.757  0.1279 -0.1429 -0.2375
 3661PP      PP13765   3.568  11.425   4.266 -0.2608  0.1749 -0.1261
 3662PP      PP13766   0.991  10.695  12.617  0.1079  0.5231 -0.2281
 3663PP      PP13767  11.488  13.357   9.548  0.2472 -0.3299 -0.1485
 3664PP      PP13768  15.466   5.533  10.159 -0.1806  0.2046 -0.0548
 3665PP      PP13769  10.398  15.180   3.186 -0.2025 -0.0797  0.1494
 3666PP      PP13770   7.591  14.670  10.106  0.1811  0.0566 -0.0836
 3667PP      PP13771   0.456  10.835   3.834  0.1907 -0.1251  0.1193
 3668PP      PP13772  13.625   3.141   4.890  0.4258 -0.2069 -0.0550
 3669PP      PP13773   8.273   5.783   9.794  0.0307 -0.5339  0.3136
 3670PP      PP13774   3.113  10.926   4.145  0.0944 -0.1683  0.0575
 3671PP      PP13775   4.125  15.707   1.425  0.0344  0.1473 -0.4588
 3672PP      PP13776  11.870  11.316  10.668 -0.0905 -0.3402  0.0514
 3673PP      PP13777  12.815   7.018   1.818 -0.3787 -0.2239  0.1872
 3674PP      PP13778  12.017   9.051   0.540 -0.2107  0.1618 -0.0421
 3675PP      PP13779   7.418   9.617   2.797  0.0962  0.2211  0.1039
 3676PP      PP13780   9.560   0.358   9.582 -0.1237 -0.1961  0.2916
 3677PP      PP13781   0.978   6.661  10.179  0.1247  0.0144  0.3408
 3678PP      PP13782  14.592   2.902   9.194 -0.4416  0.2054 -0.2437
 3679PP      PP13783   7.886  10.851   1.708  0.7308  0.4115  0.1779
 3680PP      PP13784  14.064  10.492   0.352  0.0986  0.0072 -0.1565
 3681PP      PP13785   7.708   1.664   2.448  0.2576 -0.3662 -0.2313
 3682PP      PP13786   3.134   8.068   3.006 -0.0663  0.1353  0.2887
 3683PP      PP13787   1.059   8.079   4.244 -0.0301 -0.0389  0.2445
 3684PP      PP13788  14.517   4.161   1.449 -0.4216 -0.4735  0.0008
 3685PP      PP13789  14.804  14.886  10.845 -0.4019 -0.1662 -0.1422
 3686PP      PP13790   2.062  15.092   4.070 -0.1525  0.3941  0.0344
 3687PP      PP13791   3.779   6.454  12.041 -0.2542  0.0673  0.0785
 3688PP      PP13792   8.512  14.532  10.052  0.1621  0.0877  0.0100
 3689PP      PP13793  10.434  15.789   1.688  0.1006  0.1623 -0.1777
 3690PP      PP13794   2.062   9.020   3.469 -0.0416  0.2066 -0.2859
 3691PP      PP13795   6.501   5.315  11.267  0.0172  0.1171 -0.3830
 3692PP      PP13796   4.935  13.227  11.247 -0.0208 -0.0600  0.2020
 3693PP      PP13797  12.493   9.865   4.760 -0.0416  0.0733  0.1653
 3694PP      PP13798   6.870  12.088   9.685  0.3991 -0.0283 -0.2214
 3695PP      PP13799  14.907  13.286  10.050  0.1091  0.0156  0.0756
 3696PP      PP13800   2.149   9.780   2.912 -0.0929  0.2297  0.0698
 3697PP      PP13801   2.119  15.157  12.041 -0.0389  0.0221  0.2845
 3698PP      PP13802   2.948   3.221   1.024 -0.0123 -0.0968  0.1365
 3699PP      PP13803   1.955  13.494  12.196 -0.1108  0.2453 -0.1296
 3700PP      PP13804   3.933  10.594  10.245  0.2909 -0.0292  0.0666
 3701PP      PP13805  10.292   5.837  12.504  0.0024  0.0301  0.0314
 3702PP      PP13806  11.705   4.315  12.803  0.0878 -0.0796  0.0301
 3703PP      PP13807  10.282   3.053  12.421 -0.0818  0.2251  0.2039
 3704PP      PP13808  14.749   8.346   2.404 -0.1647 -0.0546  0.1057
 3705PP      PP13809   9.325  10.224   3.464  0.1963  0.0118 -0.2037
 3706PP      PP13810  14.844   2.675  10.969 -0.4794 -0.2413 -0.1986
 3707PP      PP13811  14.480   9.330   0.582  0.1188 -0.3254 -0.0798
 3708PP      PP13812   8.984   4.800   0.197 -0.1659 -0.1986 -0.1978
 3709PP      PP13813  14.016   3.569   0.630 -0.1074  0.0422 -0.1763
 3710PP      PP13814   8.146  14.390  11.886 -0.1747  0.0866  0.2352
 3711PP      PP13815   6.834   9.040  12.169 -0.1927  0.2234  0.0673
 3712PP      PP13816  14.801  11.368   1.715 -0.2202 -0.0296 -0.1488
 3713PP      PP13817  13.474   9.683   9.562  0.0198 -0.0060 -0.3398
 3714PP      PP13818  12.152  15.564   1.848 -0.0854  0.0345  0.1031
 3715PP      PP13819  13.079  11.915   2.699 -0.0582  0.2201  0.1795
 3716PP      PP13820   0.098   8.774  12.145 -0.0836 -0.5129  0.1403
 3717PP      PP13821  15.519   2.410  13.515  0.0411 -0.1734  0.0147
 3718PP      PP13822   4.326  11.821   0.918 -0.1107 -0.2502 -0.2383
 3719PP      PP13823   1.795  10.538  10.782 -0.0399 -0.0707  0.0292
 3720PP      PP13824  15.557  13.000   0.849  0.1046  0.1370  0.4560
 3721PP      PP13825   8.838   5.135  11.232  0.3095  0.1010 -0.1049
 3722PP      PP13826   7.189  13.918  12.834  0.2766 -0.0049 -0.2634
 3723PP      PP13827  10.623  14.412   0.434  0.2577  0.0617  0.1300
 3724PP      PP13828   0.021  15.507  10.605  0.2146 -0.2231 -0.2042
 3725PP      PP13829   7.076   7.134   1.416 -0.0339 -0.2482 -0.0788
 3726PP      PP13830  14.992  14.423  11.419  0.2721  0.3146  0.1958
 3727PP      PP13831   4.926  15.129  12.369 -0.1106 -0.1040 -0.3199
 3728PP      PP13832   1.300   3.892   0.712  0.0588 -0.0461  0.0848
 3729PP      PP13833  15.186   0.111  12.840  0.1388  0.0868  0.1524
 3730PP      PP13834  12.049   6.412   0.149  0.2660  0.0369 -0.1664
 3731PP      PP13835   9.063   1.898   0.024  0.0209 -0.2588  0.1725
 3732PP      PP13836   5.136   9.231  10.492 -0.2077  0.0480 -0.0764
 3733PP      PP13837   0.960   3.669  10.594 -0.2716  0.1008  0.2062
 3734PP      PP13838  11.308  11.127   1.399  0.0288 -0.0091 -0.3035
 3735PP      PP13839   7.721  14.034  11.880  0.0014  0.1356  0.0526
 3736PP      PP13840  13.491  15.808   9.014 -0.0953 -0.1118  0.2429
 3737PP      PP13841   7.508   6.194   0.240  0.0688  0.1434 -0.1242
 3738PP      PP13842   5.044   9.272  12.633  0.1865  0.0091 -0.2868
 3739PP      PP13843  10.748  13.794   2.885  0.0625 -0.1298 -0.0257
 3740PP      PP13844  12.160  13.476   0.733 -0.1574 -0.1576  0.0657
 3741PP      PP13845   5.314  13.004   9.288  0.1848 -0.0324 -0.2077
 3742PP      PP13846  10.979  11.590   3.739  0.1983  0.0181  0.1616
 3743PP      PP13847  13.798   4.684   2.312 -0.0253  0.4054  0.1092
 3744PP      PP13848   6.433  10.569   4.424 -0.1393 -0.1199  0.1715
 3745PP      PP13849  10.217   3.943   3.288 -0.3527 -0.0721 -0.2004
 3746PP      PP13850   6.159  14.473  10.735  0.2294 -0.3098  0.0962
 3747PP      PP13851   7.678  12.400  13.203  0.0887  0.4267  0.0388
 3748PP      PP13852   9.415   0.212  13.480  0.0194  0.0665  0.1911
 3749PP      PP13853  14.824   8.427   4.648  0.1046  0.0439  0.5381
 3750PP      PP13854   4.031  12.236  10.920  0.2191 -0.0838 -0.0273
 3751PP      PP13855   1.828   1.841   3.111  0.0526  0.1753  0.0437
 3752PP      PP13856   9.283  11.944   8.918 -0.0190 -0.0242 -0.0850
 3753PP      PP13857   3.880  14.993  11.131 -0.0411  0.0952  0.3077
 3754PP      PP13858   5.854  15.524   8.624  0.3997 -0.2596  0.0150
 3755PP      PP13859   7.485   1.136   9.336 -0.4904 -0.0047  0.2783
 3756PP      PP13860   3.616   4.918   0.995  0.3391 -0.2827 -0.2804
 3757PP      PP13861  14.624   4.274   4.770 -0.0428 -0.1777 -0.0393
 3758PP      PP13862   7.391  14.194  13.473 -0.1251  0.0596 -0.1865
 3759PP      PP13863   2.962   8.420   5.032 -0.0418  0.1105 -0.1462
 3760PP      PP13864   1.217   2.669  11.382  0.1128 -0.0497 -0.0680
 3761PP      PP13865   5.188   5.943   9.569 -0.1003 -0.3813 -0.1505
 3762PP      PP13866   7.931   1.898   9.955  0.3582 -0.0182 -0.0391
 3763PP      PP13867   3.562   1.875   8.562  0.1723 -0.0323  0.0693
 3764PP      PP13868  11.660   5.488   8.900  0.2093 -0.1860 -0.0507
 3765PP      PP13869   3.791  11.824   9.448 -0.1824 -0.0234 -0.2660
 3766PP      PP13870   5.698  11.127  11.098 -0.0412 -0.0466  0.1556
 3767PP      PP13871   6.540  10.507   3.067 -0.2614  0.0121 -0.0018
 3768PP      PP13872   3.839   1.711  10.222  0.1106 -0.1042  0.1036
 3769PP      PP13873   4.101   1.795   3.651  0.0520 -0.0544  0.0326
 3770PP      PP13874   7.980  13.721   8.889  0.1417 -0.0779 -0.1603
 3771PP      PP13875   7.953  12.984   0.304 -0.2389  0.1070  0.1016
 3772PP      PP13876   3.938   6.552  10.977  0.2539  0.0943 -0.1479
 3773PP      PP13877  13.747  13.992   3.704 -0.1748 -0.1694 -0.0936
 3774PP      PP13878  15.027  10.202   4.971  0.1429  0.0444 -0.3557
 3775PP      PP13879  14.804  11.289   0.781 -0.0144  0.1362  0.1171
 3776PP      PP13880   9.327   2.020  13.096  0.0622 -0.2176  0.0052
 3777PP      PP13881   8.479   6.239   0.762 -0.1491  0.2029 -0.2134
 3778PP      PP13882   2.530   8.917  10.816  0.1621  0.3362  0.0566
 3779PP      PP13883   4.155   6.042  10.515  0.0554  0.0245  0.0265
 3780PP      PP13884   1.646   4.145  11.733 -0.2703  0.0064  0.2065
 3781PP      PP13885   7.541   5.773  13.430 -0.1066 -0.0200 -0.2319
 3782PP      PP13886   5.804  11.971  11.099 -0.0721  0.0418  0.0520
 3783PP      PP13887  12.333   4.120  10.151 -0.1699  0.0103 -0.2212
 3784PP      PP13888   9.461   8.073   4.123  0.3171 -0.1120 -0.3306
 3785PP      PP13889   1.930   0.017   0.944 -0.4810  0.0750 -0.2782
 3786PP      PP13890   3.882  14.483   8.115 -0.0716  0.2218 -0.1442
 3787PP      PP13891  10.888   0.738   3.178  0.0471  0.1296  0.1676
 3788PP      PP13892   3.334   4.184   3.455 -0.0472  0.0201 -0.0246
 3789PP      PP13893   1.984  14.550  10.720  0.0435 -0.1653  0.1282
 3790PP      PP13894   5.850  15.356   1.885 -0.0168 -0.0810 -0.2052
 3791PP      PP13895   4.110  14.055   9.091 -0.1907 -0.0349  0.1175
 3792PP      PP13896   0.020  11.301  10.608  0.1489 -0.1774 -0.2910
 3793PP      PP13897   3.651   7.386  12.271 -0.0648  0.3313 -0.1078
 3794PP      PP13898  15.198  14.204   2.403  0.5413  0.1969 -0.1642
 3795PP      PP13899   7.086   2.089  12.523  0.0246 -0.0267 -0.2247
 3796PP      PP13900  10.402  13.897  13.352 -0.1102 -0.2664  0.0171
 3797PP      PP13901   9.857   7.147  12.554 -0.3358 -0.1055 -0.3109
 3798PP      PP13902   5.590   6.714   1.366  0.1424  0.0075  0.0712
 3799PP      PP13903   7.644  12.460   2.564 -0.0728 -0.2905 -0.2483
 3800PP      PP13904   4.550   5.854  13.069 -0.1952 -0.1018  0.1445
 3801PP      PP13905   5.486  13.343   2.217  0.1032 -0.0978  0.1549
 3802PP      PP13906   2.826   5.599   0.004  0.2915 -0.0102 -0.1589
 3803PP      PP13907   7.456  13.048  10.430  0.2509 -0.0994 -0.4886
 3804PP      PP13908  11.090   2.466  10.766 -0.4456  0.1151  0.0491
 3805PP      PP13909  10.979  14.479  12.968  0.0590  0.0039  0.2408
 3806PP      PP13910   7.653   2.306   1.423 -0.1338 -0.0486 -0.2184
 3807PP      PP13911   8.005  10.384   0.399  0.1651  0.1505  0.1056
 3808PP      PP13912  15.032  12.227   2.567 -0.1219  0.0767 -0.0006
 3809PP      PP13913   7.113  15.208  11.393  0.0133 -0.1121 -0.2747
 3810PP      PP13914  11.528   1.252   2.212  0.0340  0.2061  0.0559
 3811PP      PP13915  12.142  10.326  11.254  0.1895  0.1169  0.3629
 3812PP      PP13916   6.552   9.313   3.382 -0.0650 -0.0570  0.4004
 3813PP      PP13917   9.493   3.739   8.351 -0.0395  0.0063 -0.0028
 3814PP      PP13918  14.795   9.717   0.057 -0.1677  0.0905 -0.0755
 3815PP      PP13919   9.062  12.915   0.847 -0.1777  0.0330 -0.1713
 3816PP      PP13920   3.740  11.538   4.732  0.3134 -0.0856  0.1325
 3817PP      PP13921   6.910   9.488   9.610 -0.0622 -0.3834  0.2753
 3818PP      PP13922   0.257   9.794   4.699  0.1663 -0.0054  0.1223
 3819PP      PP13923  13.614   8.626   3.896 -0.1974 -0.2244 -0.1413
 3820PP      PP13924  11.290   2.762   9.668  0.0881 -0.1278  0.2770
 3821PP      PP13925   6.386  15.311  12.458 -0.0650 -0.2762 -0.1781
 3822PP      PP13926   8.982   0.764  11.079  0.0491  0.3122  0.4710
 3823PP      PP13927  13.250   6.827   0.418  0.0106 -0.0825 -0.1256
 3824PP      PP13928   5.232  14.361   2.079  0.0069 -0.0598 -0.0210
 3825PP      PP13929   2.221   0.675   8.863 -0.0705 -0.2487  0.1514
 3826PP      PP13930   8.899   5.387  12.167  0.0394 -0.2580 -0.0807
 3827PP      PP13931  14.188   9.986  10.178 -0.1083 -0.1312 -0.2281
 3828PP      PP13932  13.645   7.533  10.350 -0.1433  0.0777  0.1228
 3829PP      PP13933   2.650  12.327  12.299 -0.0777 -0.2230 -0.0548
 3830PP      PP13934   4.486  13.981   3.738 -0.3296 -0.3823  0.1273
 3831PP      PP13935  13.609   4.913   3.892 -0.2259  0.0821  0.1042
 3832PP      PP13936  12.473   9.942  10.491  0.0419 -0.0819  0.0566
 3833PP      PP13937   4.083   4.320   2.822 -0.1534 -0.1890  0.1876
 3834PP      PP13938  13.246  12.493   4.626 -0.0352  0.1194 -0.1839
 3835PP      PP13939   3.799   2.548  12.938  0.0920  0.0876 -0.0435
 3836PP      PP13940  13.262   1.376  13.043 -0.3596  0.1185 -0.0773
 3837PP      PP13941   0.694   8.629   0.552  0.2490 -0.1596  0.3096
 3838PP      PP13942  15.725   0.240   9.034 -0.1038  0.0361  0.0367
 3839PP      PP13943  15.041  13.590  10.886 -0.0779  0.3163  0.0961
 3840PP      PP13944   5.687  10.218   2.619  0.0816  0.2766  0.1055
 3841PP      PP13945   0.658   2.179  12.099  0.7583  0.1248  0.1036
 3842PP      PP13946   3.078   9.240  12.015 -0.0739 -0.2689  0.3438
 3843PP      PP13947  15.740  14.349  12.255  0.1431  0.1749  0.1192
 3844PP      PP13948  13.640  10.386   9.556  0.0648  0.1913  0.2426
 3845PP      PP13949   5.140   9.568   4.206 -0.2416 -0.0610 -0.4011
 3846PP      PP13950   9.474   9.819  11.236 -0.0843 -0.2253 -0.1341
 3847PP      PP13951   8.078  12.725  13.041 -0.0893  0.0113  0.5414
 3848PP      PP13952   8.627   4.855  13.304 -0.1763  0.0379  0.1415
 3849PP      PP13953   9.060  15.556  11.433 -0.1413 -0.1273 -0.0120
 3850PP      PP13954  11.951   9.280  11.895 -0.2275 -0.3414  0.0661
 3851PP      PP13955  11.075   4.304  13.270 -0.0919 -0.0728  0.1790
 3852PP      PP13956   6.008   0.471   9.424  0.1074 -0.0380 -0.2034
 3853PP      PP13957   1.112   2.092   3.309  0.0046  0.2960 -0.0317
 3854PP      PP13958  15.164  10.381  12.519  0.1548 -0.2035 -0.4152
 3855PP      PP13959  13.474  14.180   0.767 -0.0393  0.0039  0.1680
 3856PP      PP13960   3.360   8.037   5.057  0.0493 -0.0500 -0.3437
 3857PP      PP13961  13.909   1.217   8.636  0.0827  0.0466  0.0515
 3858PP      PP13962   4.665   4.433  10.398  0.0031  0.0957  0.1002
 3859PP      PP13963   9.752   9.167  10.099 -0.0431  0.0267 -0.5232
 3860PP      PP13964   5.438   0.916  10.771  0.0711  0.0396  0.2007
 3861PP      PP13965   1.151  14.482  11.407  0.5459  0.0935  0.3154
 3862PP      PP13966  13.365   9.708  11.234 -0.2911  0.0774 -0.3465
 3863PP      PP13967   1.720   4.668   3.825 -0.0348 -0.0075 -0.0439
 3864PP      PP13968  14.534  13.797  11.994  0.4716  0.1779  0.1747
 3865PP      PP13969  11.168   7.446   9.477 -0.1012  0.2009  0.2466
 3866PP      PP13970   8.795   2.445  11.578  0.0765 -0.3851 -0.3096
 3867PP      PP13971   9.054   9.166  12.748 -0.2900 -0.1280 -0.0034
 3868PP      PP13972   0.427   0.784  10.091 -0.0905 -0.0829 -0.2063
 3869PP      PP13973   4.247   1.797   9.318 -0.2419  0.0115  0.1827
 3870PP      PP13974  10.980   1.012  13.367 -0.1189  0.0019 -0.0535
 3871PP      PP13975  13.392   6.024  12.845 -0.1339 -0.0480 -0.0781
 3872PP      PP13976   3.076   1.889  13.397  0.0540 -0.1854  0.1796
 3873PP      PP13977  13.520  12.236   1.562 -0.1314 -0.0584  0.0838
 3874PP      PP13978   4.506   1.432   3.363 -0.2172 -0.2582 -0.1021
 3875PP      PP13979   3.267   8.484   3.411 -0.1068  0.1839 -0.0101
 3876PP      PP13980   3.230  11.640   4.597  0.2707  0.0033  0.0234
 3877PP      PP13981  11.283   5.347   4.084  0.0315  0.1230 -0.0866
 3878PP      PP13982  12.383   0.082  10.050 -0.3571 -0.0483 -0.0056
 3879PP      PP13983  10.522   7.240   0.307 -0.1531  0.1933 -0.0015
 3880PP      PP13984   3.597   2.461  10.282  0.0064 -0.4868 -0.1615
 3881PP      PP13985   1.968   1.126   8.512  0.1594  0.1578  0.0109
 3882PP      PP13986   8.751  12.067  13.047 -0.1216 -0.1170 -0.1531
 3883PP      PP13987  10.558   9.551   4.756 -0.2704  0.2636  0.1859
 3884PP      PP13988   1.473  13.136  10.855 -0.0575  0.1636  0.0043
 3885PP      PP13989   1.221   5.316   2.046  0.1538  0.0427  0.0897
 3886PP      PP13990  12.495   3.803   9.797  0.0711 -0.2841  0.4212
 3887PP      PP13991  11.500   4.154   1.004  0.1228  0.2533 -0.1109
 3888PP      PP13992   2.533   0.481   8.490 -0.3788  0.1230  0.1655
 3889PP      PP13993   6.682   7.441  12.310 -0.0864  0.2013 -0.0988
 3890PP      PP13994   6.161   5.352   1.854 -0.1473  0.2518 -0.1146
 3891PP      PP13995   4.532  15.346   9.904 -0.0233 -0.0914  0.0377
 3892PP      PP13996   2.190   3.508   2.781 -0.1597  0.2761 -0.0422
 3893PP      PP13997   2.066  13.728   2.824  0.1637  0.2524 -0.2481
 3894PP      PP13998  13.867   3.640   1.482  0.3114 -0.1648  0.0415
 3895PP      PP13999   8.951   6.909   0.807 -0.4393  0.1701  0.1515
 3896PP      PP14000   7.486   7.107   3.221 -0.0845  0.0306  0.1957
 3897PP      PP14001  10.563   5.609   3.541 -0.1356  0.2737  0.0886
 3898PP      PP14002   0.356  15.417   9.570 -0.1041  0.1483 -0.0727
 3899PP      PP14003  15.185   6.316   5.169  0.1306 -0.2920 -0.1781
 3900PP      PP14004   0.908   4.577  12.744 -0.0404 -0.0603 -0.2703
 3901PP      PP14005   4.936   9.693  12.893  0.0982  0.0852 -0.1404
 3902PP      PP14006   6.410   5.355   1.320 -0.1066 -0.1595  0.2605
 3903PP      PP14007  14.683  15.766   9.821 -0.0617  0.3338 -0.1744
 3904PP      PP14008  14.737  15.775   2.486  0.0571 -0.2859 -0.2140
 3905PP      PP14009   3.562   5.723  12.964  0.1350  0.1268  0.2511
 3906PP      PP14010   5.407   0.187  10.035  0.1316  0.1747 -0.0884
 3907PP      PP14011   4.550   7.433  11.657  0.1766 -0.3633  0.2496
 3908PP      PP14012   6.390   6.569   1.968 -0.0845  0.0918  0.0716
 3909PP      PP14013  13.647  10.527   3.219  0.1637 -0.3509 -0.1365
 3910PP      PP14014   5.355   7.140   3.123 -0.0113  0.0082 -0.0572
 3911PP      PP14015   7.205  11.083  10.270 -0.3133 -0.2470  0.1317
 3912PP      PP14016  11.188   2.677   2.789 -0.1723 -0.1129 -0.1106
 3913PP      PP14017   5.950   1.306   7.664  0.1051  0.2082  0.0842
 3914PP      PP14018   8.459  15.275   8.966  0.0044  0.0406  0.5087
 3915PP      PP14019   7.134   9.936  12.267 -0.1045  0.0888  0.0036
 3916PP      PP14020   1.479   3.162  12.671  0.0574  0.0712  0.0358
 3917PP      PP14021   6.194  14.308  13.349  0.0885 -0.0991  0.3808
 3918PP      PP14022  11.845   9.373  11.433 -0.3806 -0.1142  0.0440
 3919PP      PP14023  15.295   0.979  11.419 -0.0085 -0.0519  0.0652
 3920PP      PP14024   2.349   0.868  10.860  0.0258 -0.1668  0.0194
 3921PP      PP14025  10.963  12.390  10.708 -0.0208  0.0413  0.1778
 3922PP      PP14026  12.277   9.918  12.351 -0.0708  0.0355  0.0660
 3923PP      PP14027   3.405   2.545   8.508  0.3697  0.1296  0.1857
 3924PP      PP14028  10.312   9.358   9.727  0.2281  0.4576  0.2514
 3925PP      PP14029  15.156  15.111   3.787 -0.2421  0.0573 -0.0626
 3926PP      PP14030   7.633   4.394   8.243  0.2246 -0.1350 -0.1225
 3927PP      PP14031   9.284  13.643   2.284 -0.1140  0.2183 -0.3671
 3928PP      PP14032  12.056   7.729   0.867 -0.1566 -0.1236 -0.1608
 3929PP      PP14033  14.756   5.865   1.895 -0.0646 -0.0958 -0.2990
 3930PP      PP14034   9.350   3.406  10.310  0.2026 -0.1428  0.0651
 3931PP      PP14035  14.369   8.251   0.115 -0.0214 -0.0696  0.1051
 3932PP      PP14036   9.912   4.253  12.799  0.0880  0.0407 -0.1749
 3933PP      PP14037   3.958  14.025  12.821 -0.3800  0.1749 -0.0781
 3934PP      PP14038   7.032   9.205  12.725 -0.0613  0.0455 -0.0331
 3935PP      PP14039   2.598  13.334   3.487  0.2337  0.1564  0.0481
 3936PP      PP14040   6.581  13.249   2.977 -0.0079 -0.2797  0.1802
 3937PP      PP14041   5.998   1.647   1.651 -0.3028 -0.1056  0.1240
 3938PP      PP14042   8.650  15.034  12.062  0.0595  0.0624  0.0105
 3939PP      PP14043  10.961   7.694   3.673 -0.0243  0.0037  0.1100
 3940PP      PP14044   3.758   2.096  10.640  0.1064 -0.1256 -0.0364
 3941PP      PP14045   6.961   2.193   1.402 -0.1047 -0.1996 -0.1054
 3942PP      PP14046   5.390   8.488  11.916  0.1122  0.3767  0.1136
 3943PP      PP14047  10.449  12.234   9.488  0.1161  0.0264 -0.3171
 3944PP      PP14048  14.999  12.796  11.202  0.0983  0.0246  0.0476
 3945PP      PP14049   4.474   2.069  13.089 -0.2169 -0.2806  0.1420
 3946PP      PP14050  12.644  14.944  12.209 -0.0571 -0.1023 -0.4310
 3947PP      PP14051  12.923   1.888   2.209  0.1722  0.0104  0.1291
 3948PP      PP14052   3.680  13.291   3.176  0.4278  0.0041  0.1032
 3949PP      PP14053   5.016   8.432  12.321 -0.3542 -0.0670  0.1305
 3950PP      PP14054   4.047   4.097   3.801  0.1880 -0.0322  0.0009
 3951PP      PP14055  14.641   3.893  10.962  0.0397  0.0237 -0.1037
 3952PP      PP14056   2.270   8.239   3.177 -0.0850  0.1962 -0.4221
 3953PP      PP14057  12.146  12.506   8.881  0.0585  0.1247  0.0866
 3954PP      PP14058  10.005  10.177   2.837  0.1758  0.1178  0.0548
 3955PP      PP14059  13.489  11.252  11.181 -0.1092 -0.2567 -0.0664
 3956PP      PP14060  15.605   8.203   1.977 -0.0817  0.1089  0.0308
 3957PP      PP14061   8.935   5.639  11.222  0.2027 -0.0051 -0.3290
 3958PP      PP14062  15.119   1.284  13.052 -0.2274 -0.0483 -0.0361
 3959PP      PP14063   3.990   0.058   2.369 -0.5459 -0.1916 -0.0539
 3960PP      PP14064  12.666   0.883   4.888  0.0876 -0.1176  0.1007
 3961PP      PP14065   6.433   7.118   8.905 -0.1081 -0.0321  0.0911
 3962PP      PP14066   7.452   2.291  12.790 -0.1458  0.0321  0.4555
 3963PP      PP14067   5.563   7.798   1.880 -0.1457 -0.0240  0.1600
 3964PP      PP14068   5.716   2.686   0.050  0.0231 -0.0233 -0.2151
 3965PP      PP14069   2.266  12.853   3.272 -0.1173 -0.1197 -0.2429
 3966PP      PP14070   1.764   3.536  12.597  0.1228  0.0887  0.2100
 3967PP      PP14071   7.635  11.174   2.527  0.2186  0.0125 -0.1325
 3968PP      PP14072   2.133   8.157   0.651 -0.0546 -0.0527  0.2631
 3969PP      PP14073  13.026   1.138  11.679  0.2190 -0.1765 -0.4145
 3970PP      PP14074   4.309   0.885   2.901  0.3386  0.1093 -0.5557
 3971PP      PP14075  10.134   8.582   5.603  0.0414  0.0311  0.1636
 3972PP      PP14076   8.956   2.046  10.193  0.1903 -0.0933 -0.4114
 3973PP      PP14077   4.388  11.370   1.162 -0.1114  0.0273  0.0953
 3974PP      PP14078   5.112  15.608   2.080  0.1196  0.1923  0.3350
 3975PP      PP14079   7.651  11.251  11.901  0.4483 -0.0186 -0.1232
 3976PP      PP14080   8.464   5.546   1.591 -0.2224 -0.1642  0.1503
 3977PP      PP14081   3.522  15.440  12.648  0.1939 -0.3889  0.2226
 3978PP      PP14082   0.560   4.738  13.157  0.1440  0.1975  0.3357
 3979PP      PP14083  13.576   2.181  12.382  0.3125  0.1354  0.3013
 3980PP      PP14084   5.372   6.809   3.894  0.0900  0.1520  0.1575
 3981PP      PP14085  11.650  14.486   2.831  0.0803 -0.0568  0.0306
 3982PP      PP14086   3.562   2.089   9.405  0.4534 -0.2679  0.1200
 3983PP      PP14087   6.292  14.934   0.655  0.1758 -0.4871  0.1482
 3984PP      PP14088   6.459  10.421  12.075 -0.1297 -0.2244  0.1715
 3985PP      PP14089   5.789  11.875  10.032  0.1790  0.1980 -0.0699
 3986PP      PP14090   9.032   2.977  11.721  0.0437 -0.1046  0.1028
 3987PP      PP14091   3.489   8.195   0.966  0.0686 -0.1586  0.0868
 3988PP      PP14092  14.600   7.524   1.079  0.0618  0.0874  0.2012
 3989PP      PP14093   3.978   1.068   8.621 -0.0302 -0.1103 -0.2557
 3990PP      PP14094   9.857  10.949  10.278  0.0231 -0.0408  0.0998
 3991PP      PP14095   7.296  13.015   9.948  0.0112  0.0207  0.3660
 3992PP      PP14096  14.725   8.973  11.184 -0.1212 -0.0038 -0.0250
 3993PP      PP14097   8.637   0.117  13.318  0.0192 -0.2185  0.0252
 3994PP      PP14098   5.787   7.016  10.457 -0.1820 -0.0459 -0.0488
 3995PP      PP14099  10.685   2.813   8.636  0.0072  0.0035 -0.3542
 3996PP      PP14100   7.986   7.226  12.578 -0.0881 -0.2882  0.0356
 3997PP      PP14101  14.686  14.155   1.572  0.1413  0.2268 -0.2967
 3998PP      PP14102   6.072   4.529   1.205 -0.2649 -0.1379 -0.1356
 3999PP      PP14103  13.953  13.564   3.551  0.0149  0.3945 -0.0843
 4000PP      PP14104  14.693   6.172   4.932  0.4668  0.0544  0.1027
 4001PP      PP14105   3.144   7.530  11.530 -0.2641 -0.1630  0.1435
 4002PP      PP14106   9.722   7.531   0.379  0.0358  0.0719  0.0645
 4003PP      PP14107   7.389   5.382  10.445 -0.0091 -0.0640  0.1603
 4004PP      PP14108  10.417  15.192   1.066  0.0114  0.0056 -0.5147
 4005PP      PP14109  12.628  14.575   3.717 -0.1439 -0.2831 -0.0597
 4006PP      PP14110  10.726  11.770   5.180  0.1252  0.1693  0.1827
 4007PP      PP14111  13.338   7.559   3.727 -0.0106  0.2503 -0.1985
 4008PP      PP14112  11.981   1.309   9.856 -0.1980 -0.1542 -0.0278
 4009PP      PP14113   4.258  15.215   1.343  0.1629  0.0697  0.1099
 4010PP      PP14114   6.495  15.058   0.212  0.3758  0.1192 -0.2022
 4011PP      PP14115   5.201  11.198   3.873  0.0639 -0.0961  0.0963
 4012PP      PP14116   7.673   0.927  10.343 -0.1272 -0.1468  0.4011
 4013PP      PP14117   2.385  12.871  11.807  0.0175 -0.0170  0.0528
 4014PP      PP14118   9.909   4.902  12.630 -0.0398 -0.0700 -0.1710
 4015PP      PP14119  10.353  15.280   9.663  0.4626 -0.1869  0.0643
 4016PP      PP14120  11.715   8.229  10.482  0.1252  0.2257  0.1336
 4017PP      PP14121  13.219   0.245   0.387 -0.4028  0.1843 -0.0552
 4018PP      PP14122  11.558  12.356   8.804 -0.0759 -0.2058  0.1170
 4019PP      PP14123   3.629   6.359   3.091  0.0924  0.0208  0.2701
 4020PP      PP14124   6.186  12.040  11.462 -0.0810  0.1212  0.2386
 4021PP      PP14125   2.915   3.608  10.065  0.2957 -0.3397 -0.1765
 4022PP      PP14126   7.545  12.082   3.039 -0.0203 -0.2835 -0.0227
 4023PP      PP14127  14.089   9.915   1.992  0.2273 -0.0535  0.2494
 4024PP      PP14128  10.407   6.880  13.149  0.0790  0.0111  0.4221
 4025PP      PP14129  15.563   2.437   1.396  0.0032 -0.1705  0.1586
 4026PP      PP14130   5.984  12.597   2.563  0.0408  0.1649 -0.0241
 4027PP      PP14131   3.879  13.273   2.129  0.3160 -0.2596 -0.1051
 4028PP      PP14132   3.010   4.154   0.300  0.3200  0.0544  0.0294
 4029PP      PP14133  15.426   9.318   3.743 -0.1640  0.2097  0.1849
 4030PP      PP14134   5.120  12.318   3.313 -0.1227 -0.2177 -0.1645
 4031PP      PP14135   5.976  10.136  10.368 -0.4654 -0.0697 -0.1336
 4032PP      PP14136  12.612  10.316   2.774 -0.0246 -0.1516  0.1210
 4033PP      PP14137   5.125   7.474   9.462  0.0966  0.2054  0.3269
 4034PP      PP14138   5.872   2.469   2.243 -0.0494  0.1496  0.1349
 4035PP      PP14139   5.416  13.399   8.903 -0.1725 -0.1310  0.1115
 4036PP      PP14140   5.502   5.496   0.233 -0.1570 -0.1056 -0.0251
 4037PP      PP14141   8.725   7.158   0.035  0.0604 -0.0565  0.0817
 4038PP      PP14142   7.723  15.827  11.775 -0.1305  0.0232 -0.2364
 4039PP      PP14143   3.994   9.776   4.920 -0.0419  0.1380  0.2935
 4040PP      PP14144  10.196   8.386   2.098 -0.2437  0.1048 -0.3203
 4041PP      PP14145   6.082   8.193   1.274  0.2004 -0.2733  0.0523
 4042PP      PP14146   9.376   0.051   9.242 -0.0699 -0.0254 -0.0274
 4043PP      PP14147   2.361   1.188   1.222 -0.0775 -0.0246 -0.0888
 4044PP      PP14148   6.294  13.653  11.258 -0.0833  0.1470 -0.2900
 4045PP      PP14149  13.211  12.200  11.237 -0.0601 -0.1819  0.0816
 4046PP      PP14150   8.079  12.492   1.641  0.0412 -0.2875 -0.0058
 4047PP      PP14151  10.120   2.171   9.741 -0.0056 -0.1060 -0.1781
 4048PP      PP14152   8.006   3.674   1.377 -0.2770  0.1552  0.2331
 4049PP      PP14153  13.207   3.173   4.617 -0.0587 -0.0292 -0.3257
 4050PP      PP14154  15.188   0.000   1.886 -0.0953  0.0494  0.0281
 4051PP      PP14155   5.555   6.921   9.545 -0.0732 -0.0498  0.0401
 4052PP      PP14156  10.310   9.610   2.783 -0.0867  0.0951 -0.0886
 4053PP      PP14157  10.439  12.879  13.413 -0.3800 -0.0804  0.0635
 4054PP      PP14158  14.479   4.038   9.397  0.0514 -0.3287  0.0918
 4055PP      PP14159   6.633  12.905  13.283  0.1216  0.0907 -0.2722
 4056PP      PP14160  11.591  13.034  10.257 -0.1771  0.0447 -0.0981
 4057PP      PP14161   9.305  14.590   0.568  0.1647 -0.0061 -0.1795
 4058PP      PP14162   2.591  10.656  12.400  0.3508 -0.1760 -0.5329
 4059PP      PP14163  12.322  12.202   9.203 -0.0246  0.2087  0.1623
 4060PP      PP14164   6.832  11.476   0.900 -0.1524  0.1217 -0.0244
 4061PP      PP14165   6.075   6.457  11.016 -0.1967 -0.1966 -0.2340
 4062PP      PP14166  12.476   0.939   3.643  0.0755 -0.4709 -0.3814
 4063PP      PP14167   8.767  11.286   1.764 -0.0918 -0.2227  0.1207
 4064PP      PP14168  12.485   0.602   0.182 -0.1622  0.0071  0.0352
 4065PP      PP14169   4.164   5.109  12.162 -0.0017 -0.2344 -0.1107
 4066PP      PP14170  10.716   8.619   2.148  0.0073  0.2493  0.1599
 4067PP      PP14171   7.024  10.995  12.965  0.2538 -0.1379 -0.2796
 4068PP      PP14172   6.989  11.978   4.146 -0.3214 -0.1664 -0.1100
 4069PP      PP14173  10.613   9.061  12.260 -0.1145 -0.0477  0.2017
 4070PP      PP14174  13.942  15.418   0.622 -0.1990 -0.0798  0.0417
 4071PP      PP14175   4.565  13.647   0.325  0.3007 -0.3747 -0.4469
 4072PP      PP14176   1.508  13.748  12.093 -0.1053 -0.4179 -0.0001
 4073PP      PP14177   5.572   4.999   0.879  0.0050 -0.0221 -0.2182
 4074PP      PP14178   2.600   0.855   2.461  0.0528 -0.0754 -0.0833
 4075PP      PP14179   3.034   7.774   4.149  0.1448  0.0912  0.1803
 4076PP      PP14180   2.389   1.770   0.464  0.2346 -0.2546 -0.0834
 4077PP      PP14181  13.265   4.023   0.558  0.3983  0.3805  0.3582
 4078PP      PP14182  15.167   2.318   1.170  0.0088  0.1107  0.1127
 4079PP      PP14183   0.371   3.529  10.615 -0.0889  0.0343  0.0188
 4080PP      PP14184   5.630   6.862   2.846  0.2262  0.1675 -0.0133
 4081PP      PP14185   7.005   3.138  10.642 -0.2319 -0.0697  0.1018
 4082PP      PP14186  11.102   0.967  10.532  0.2055  0.0669 -0.0643
 4083PP      PP14187   0.029   1.133  11.370  0.0524 -0.0668  0.0320
 4084PP      PP14188   8.199  11.505  12.615 -0.1246 -0.0089 -0.1415
 4085PP      PP14189  11.422   0.872   1.480  0.0090 -0.1818 -0.0846
 4086PP      PP14190   3.984   6.865   2.772 -0.1904 -0.1815  0.0273
 4087PP      PP14191  10.030  10.014  10.542  0.1446 -0.0712 -0.3325
 4088PP      PP14192  10.099   0.251  10.417  0.0236  0.0347  0.1879
 4089PP      PP14193   8.378   7.910   2.706  0.1205  0.0256  0.2836
 4090PP      PP14194  15.706   9.152  11.785  0.0089 -0.3932  0.1692
 4091PP      PP14195   9.588   9.899   3.089 -0.0500  0.0818  0.1118
 4092PP      PP14196   7.532  10.258   2.763 -0.1071  0.0529 -0.0980
 4093PP      PP14197  14.672   0.047   9.069  0.1533  0.1112 -0.0386
 4094PP      PP14198   3.936   4.544   0.027 -0.4171 -0.2518  0.0488
 4095PP      PP14199   7.039   0.029  10.207  0.2043  0.2376 -0.1406
 4096PP      PP14200   0.229   2.798   9.349 -0.0094 -0.2132  0.2827
 4097PP      PP14201  11.216  10.624   0.561 -0.0125 -0.1244  0.2947
 4098PP      PP14202   9.597   4.519   1.810  0.1286 -0.2648 -0.1572
 4099PP      PP14203  12.125   1.158   3.968 -0.2432  0.0552  0.0169
 4100PP      PP14204   2.652  12.494  11.749  0.1952  0.2423  0.3330
 4101PP      PP14205  11.752   0.229   3.747 -0.1449  0.0701  0.2227
 4102PP      PP14206  13.956   4.812  13.326 -0.0242 -0.1530  0.1829
 4103PP      PP14207   4.367  14.023  13.099 -0.0113 -0.2432 -0.0864
 4104PP      PP14208  13.846   7.424   9.786 -0.0078  0.1635 -0.1476
 4105PP      PP14209   7.737   0.299   0.735 -0.2240  0.1780  0.1480
 4106PP      PP14210  12.357   9.721  12.852 -0.2089 -0.0749  0.2342
 4107PP      PP14211  13.869  10.385  13.097 -0.3395  0.4169 -0.1898
 4108PP      PP14212  10.509  15.178   0.576 -0.0425  0.1867 -0.2473
 4109PP      PP14213   1.759   9.323  11.930 -0.1568 -0.1659 -0.1805
 4110PP      PP14214  15.172  15.268   1.086 -0.1762  0.0302  0.3069
 4111PP      PP14215   2.702   1.691   7.657 -0.2223  0.1219 -0.0154
 4112PP      PP14216   9.569   4.309  13.433 -0.0770  0.0706  0.2345
 4113PP      PP14217   2.531   5.337   1.330  0.1359 -0.0583  0.2295
 4114PP      PP14218   5.618   0.447   2.916 -0.0139 -0.2476  0.1050
 4115PP      PP14219   6.654   2.264  12.233 -0.2467  0.0055  0.3311
 4116PP      PP14220   9.461   7.452   1.075 -0.1011  0.1891 -0.1939
 4117PP      PP14221  10.685   8.882   9.187  0.0103 -0.3994 -0.2256
 4118PP      PP14222   0.336   3.428   2.141 -0.1032 -0.3575 -0.2138
 4119PP      PP14223  11.319  13.012  11.707  0.2857 -0.0799  0.0786
 4120PP      PP14224   4.791  10.800  11.172 -0.2256 -0.1082  0.0774
 4121PP      PP14225  10.371   6.768   9.402  0.0384 -0.0708 -0.1483
 4122PP      PP14226   4.297  10.814   9.991 -0.0075  0.3058 -0.1062
 4123PP      PP14227  12.743   0.427   0.673 -0.2322 -0.4576 -0.2077
 4124PP      PP14228   3.367   8.946   4.256 -0.3227 -0.2297 -0.1555
 4125PP      PP14229  13.213   0.285   3.337  0.2306 -0.0022 -0.0477
 4126PP      PP14230  14.674   7.912   4.531 -0.0050  0.0582  0.1591
 4127PP      PP14231   2.086   5.002   1.891  0.0927 -0.0835 -0.0919
 4128PP      PP14232   8.504  12.745  11.180 -0.2371 -0.3235 -0.1779
 4129PP      PP14233   9.553   8.705   3.414 -0.0832 -0.2733  0.2107
 4130PP      PP14234  10.846  10.567   5.221 -0.1582  0.0656 -0.3907
 4131PP      PP14235  12.227   5.797  10.725  0.1563 -0.1581 -0.2678
 4132PP      PP14236   2.934   3.602   0.654  0.1743 -0.0253 -0.1023
 4133PP      PP14237   2.762  10.826   4.994 -0.1157 -0.1295 -0.1344
 4134PP      PP14238   1.788   6.690  12.491  0.2930  0.1611 -0.1196
 4135PP      PP14239   6.399   7.872  10.879 -0.0436  0.0460  0.1910
 4136PP      PP14240   5.392   7.968   9.869  0.0854 -0.2601  0.1976
 4137PP      PP14241   8.803  11.259   4.759  0.3449  0.0239 -0.1148
 4138PP      PP14242  13.661  10.239   5.336 -0.3275 -0.0549  0.1555
 4139PP      PP14243   6.856  14.332  11.112  0.2426 -0.1430 -0.2701
 4140PP      PP14244   9.663   8.547   4.678  0.1516 -0.1844  0.1043
 4141PP      PP14245   7.430   8.925  12.768 -0.1693 -0.2494 -0.1056
 4142PP      PP14246   5.917   8.400  12.113  0.1379 -0.1697 -0.1448
 4143PP      PP14247   8.539   5.224   2.350 -0.0967 -0.1618  0.0264
 4144PP      PP14248  10.408   6.876   0.964  0.0385 -0.1272  0.3361
 4145PP      PP14249   9.810  13.517   1.378 -0.1613  0.0505  0.2071
 4146PP      PP14250  15.401   8.464   1.526 -0.1605  0.0682  0.1669
 4147PP      PP14251   7.861   2.955   1.999  0.0519 -0.2885  0.0470
 4148PP      PP14252   4.292   6.235   9.274  0.3753  0.3415  0.1925
 4149PP      PP14253   0.376   9.795   0.775 -0.0842  0.0959  0.1114
 4150PP      PP14254   2.450  10.111   1.132  0.3206 -0.0118  0.1771
 4151PP      PP14255   2.251  13.869  11.914 -0.3172 -0.1080  0.0942
 4152PP      PP14256   4.010   6.001   2.984 -0.0175 -0.2642 -0.0214
 4153PP      PP14257   1.569   5.878  13.464  0.0604  0.0152 -0.0951
 4154PP      PP14258   1.297   6.143   1.648 -0.1769 -0.2315 -0.0075
 4155PP      PP14259   1.973   5.975   2.550  0.0230  0.1356 -0.0504
 4156PP      PP14260   5.194  13.040   4.379 -0.5125  0.0474  0.1393
 4157PP      PP14261   1.992  15.046   1.882 -0.1095 -0.0911  0.1727
 4158PP      PP14262   8.611   3.166  10.877 -0.0857 -0.1331  0.1649
 4159PP      PP14263   7.551   1.918  12.202  0.2195 -0.1111 -0.0792
 4160PP      PP14264   4.419  13.902   8.696  0.0463 -0.1206  0.0073
 4161PP      PP14265   7.164  10.328   8.826 -0.0530  0.0229  0.3766
 4162PP      PP14266  12.246   0.681  13.276 -0.0926  0.2747  0.0456
 4163PP      PP14267  11.381  14.900   0.851  0.5280  0.1935 -0.1463
 4164PP      PP14268  12.812  10.231   4.413  0.0166 -0.3451 -0.0066
 4165PP      PP14269  11.735  11.147   1.703 -0.0183  0.2676  0.1711
 4166PP      PP14270  15.771  11.826  11.607  0.3790 -0.0789  0.4641
 4167PP      PP14271  12.733   9.256   3.555  0.0428 -0.1381 -0.1580
 4168PP      PP14272   6.585   1.129   0.608 -0.0717  0.1983 -0.3445
 4169PP      PP14273   1.552   6.511   3.472  0.1289  0.2125  0.2233
 4170PP      PP14274   9.703   7.830   1.534  0.0932 -0.2824  0.3949
 4171PP      PP14275  11.183   9.501   1.194  0.0101  0.1484 -0.0237
 4172PP      PP14276   4.131   5.172   0.049  0.0508 -0.4310  0.0984
 4173PP      PP14277   5.072  13.615  12.640  0.2816 -0.1923  0.0037
 4174PP      PP14278  12.703   6.723  10.886 -0.0424 -0.2137  0.0862
 4175PP      PP14279   6.308  10.621   3.570  0.0287  0.2537 -0.0018
 4176PP      PP14280   7.682   6.395  12.812 -0.2087 -0.0043  0.0465
 4177PP      PP14281  13.296  14.095   0.286  0.0226 -0.1805  0.0188
 4178PP      PP14282   3.912   5.046   0.655 -0.0314 -0.5632  0.0521
 4179PP      PP14283   1.034   5.193   0.450 -0.2881  0.2057  0.0122
 4180PP      PP14284   2.535   3.799  11.996  0.2915 -0.2357  0.1114
 4181PP      PP14285  14.639   1.597   3.330  0.0496 -0.1402  0.1677
 4182PP      PP14286  10.154  11.984   0.804  0.4936 -0.0745 -0.1587
 4183PP      PP14287  15.693  12.080   4.167 -0.3932  0.1753 -0.0499
 4184PP      PP14288   0.367   2.581  11.734 -0.1404  0.1854 -0.1318
 4185PP      PP14289   0.239  15.445   2.193  0.1031 -0.3186  0.1074
 4186PP      PP14290  14.045  14.775   9.038 -0.1535  0.2028 -0.2432
 4187PP      PP14291  10.449   4.651  12.535  0.0066  0.0289 -0.2384
 4188PP      PP14292   5.209  14.263  11.416  0.0804  0.2263  0.0344
 4189PP      PP14293   5.010   8.851   1.950 -0.0356 -0.0652 -0.1048
 4190PP      PP14294   4.113   3.726   8.655 -0.2978 -0.1039 -0.1027
 4191PP      PP14295   4.300   7.847  11.700 -0.1086  0.2114  0.0734
 4192PP      PP14296  10.984  15.615   0.896 -0.0381  0.0320 -0.1065
 4193PP      PP14297  14.110   0.367   2.247 -0.1267  0.0371  0.3289
 4194PP      PP14298  10.594   5.337   1.047 -0.2995 -0.1721 -0.2320
 4195PP      PP14299   1.811   2.487   2.852  0.0904 -0.1023 -0.0259
 4196PP      PP14300  14.654   2.399  11.598  0.0450 -0.1846  0.3346
 4197PP      PP14301   1.668  10.877   3.572 -0.0602 -0.0966  0.0226
 4198PP      PP14302   9.014  14.327  12.789 -0.2046 -0.0624  0.0571
 4199PP      PP14303  14.126  11.739   4.077  0.0613  0.0602  0.0843
 4200PP      PP14304   2.081   2.717   0.275 -0.0059 -0.1328 -0.3219
 4201PP      PP14305  12.017  11.136   3.829  0.0128  0.3788  0.2383
 4202PP      PP14306   6.052  14.741   0.031  0.1403  0.4125 -0.3774
 4203PP      PP14307  13.752  15.413   0.125 -0.3104  0.2490  0.4016
 4204PP      PP14308   8.126   9.586  12.082  0.3287  0.4135  0.1110
 4205PP      PP14309   2.334   1.333  12.619  0.1450  0.1782 -0.1629
 4206PP      PP14310  10.290  11.712  12.196 -0.0890  0.0539 -0.2536
 4207PP      PP14311   3.181  11.860  10.572  0.2416  0.0811 -0.1521
 4208PP      PP14312  12.004  12.834   2.699 -0.1968  0.0025  0.0489
 4209PP      PP14313   8.199   5.797   7.755  0.2074  0.1398  0.1807
 4210PP      PP14314   7.639   3.073  12.268  0.0875 -0.0902 -0.2984
 4211PP      PP14315   5.058   9.980   3.234 -0.2366  0.1514  0.0859
 4212PP      PP14316   8.086   3.891  12.188 -0.1196 -0.0182 -0.2753
 4213PP      PP14317  15.442  12.484   4.355  0.3281  0.1829 -0.0054
 4214PP      PP14318  15.088  11.694   2.435 -0.0547 -0.0200 -0.1583
 4215PP      PP14319   3.636  13.046   9.250  0.2368  0.3079 -0.1461
 4216PP      PP14320   2.178   2.324  11.747 -0.2072  0.0007  0.1181
 4217PP      PP14321   8.408   6.476   2.643  0.2672  0.1990  0.2029
 4218PP      PP14322   5.517   5.590   9.544 -0.2143  0.2198 -0.1056
 4219PP      PP14323  13.108  13.510  12.619 -0.0185  0.1259 -0.4113
 4220PP      PP14324  12.912   6.730   4.934  0.1078 -0.2565 -0.1678
 4221PP      PP14325   4.541   8.914   3.908  0.0914  0.1814 -0.0524
 4222PP      PP14326   5.109   4.901   9.369 -0.1892  0.0220  0.0312
 4223PP      PP14327  14.454  13.499   2.175  0.2951 -0.1250  0.0254
 4224PP      PP14328   2.953   9.959   3.833  0.0142 -0.0526 -0.2272
 4225PP      PP14329  14.207  11.592   1.722  0.3691  0.1562  0.2286
 4226PP      PP14330   3.671   8.558  13.231 -0.1316  0.1427 -0.1162
 4227PP      PP14331   8.252  10.529   8.887 -0.2116  0.1516  0.0209
 4228PP      PP14332   6.926   0.072   2.090 -0.3522 -0.0194 -0.2472
 4229PP      PP14333   4.093   1.885   8.299 -0.0341  0.0603 -0.2462
 4230PP      PP14334  11.431  14.770   2.506  0.1513  0.2941  0.1546
 4231PP      PP14335  13.572  11.283  10.186 -0.2644  0.3656 -0.2134
 4232PP      PP14336   8.107   5.827   9.348  0.0457  0.1778 -0.0270
 4233PP      PP14337   9.159   7.987   2.680  0.3401  0.0278 -0.2986
 4234PP      PP14338  14.041  12.667   1.349  0.1720  0.2116 -0.0428
 4235PP      PP14339  12.598  15.641   9.693  0.2266  0.0615  0.2885
 4236PP      PP14340   0.350   3.037   2.509 -0.1348  0.4348  0.1147
 4237PP      PP14341   7.147  13.046  10.765  0.1839  0.0226  0.0339
 4238PP      PP14342   0.551  10.167   4.575 -0.0451 -0.1366  0.0571
 4239PP      PP14343  12.554   4.600   0.957 -0.0641 -0.0964  0.1752
 4240PP      PP14344  12.227   5.437   0.650  0.0633 -0.2079  0.3620
 4241PP      PP14345   6.759  14.029   3.387  0.1557  0.1544  0.4009
 4242PP      PP14346   1.760  11.341   3.406 -0.2019  0.4148 -0.5048
 4243PP      PP14347   3.550   7.314   0.653  0.3711 -0.1736  0.3032
 4244PP      PP14348   3.514   4.660  11.579  0.1003  0.1746  0.0985
 4245PP      PP14349   0.009   7.779   1.808  0.1624 -0.0950 -0.3217
 4246PP      PP14350  14.904   4.668   4.592 -0.1710 -0.3530 -0.2655
 4247PP      PP14351   2.875   0.217   9.874 -0.2276 -0.0114  0.0071
 4248PP      PP14352  14.537   8.133   5.061 -0.1534 -0.1762 -0.0924
 4249PP      PP14353   8.044  11.540   5.161 -0.2681 -0.0317  0.0437
 4250PP      PP14354   2.636   7.529  10.085  0.0441 -0.0224  0.1452
 4251PP      PP14355   7.099   6.279  13.416 -0.1351 -0.1481  0.1203
 4252PP      PP14356   6.603  15.005  12.807 -0.2213  0.0911 -0.1712
 4253PP      PP14357   0.394  11.737  10.753 -0.0750  0.2098 -0.1626
 4254PP      PP14358   1.828   1.275  11.964 -0.1480 -0.0195  0.0620
 4255PP      PP14359   1.829  14.727   3.264 -0.0461 -0.3012  0.1016
 4256PP      PP14360  11.413   9.981  12.633  0.1982  0.1922 -0.1748
 4257PP      PP14361   4.171  15.034  13.310 -0.0005 -0.0214  0.1029
 4258PP      PP14362   0.496   1.453  13.211  0.0473 -0.1516 -0.0187
 4259PP      PP14363   6.248  13.803  13.052 -0.0540  0.1234  0.3382
 4260PP      PP14364   2.897   5.226   1.820  0.2573  0.3398 -0.0362
 4261PP      PP14365  12.934   5.591   1.450  0.2283  0.1079  0.2230
 4262PP      PP14366   4.412   8.573   4.258  0.0797  0.3887 -0.2021
 4263PP      PP14367   0.060   1.507   2.282  0.0139  0.0922  0.0271
 4264PP      PP14368   6.392   6.840   2.861 -0.0813 -0.1806 -0.2221
 4265PP      PP14369  15.425  12.561  11.008  0.0303 -0.0021  0.1161
 4266PP      PP14370   0.303   9.039  11.551 -0.1919 -0.2428 -0.0064
 4267PP      PP14371  12.009  15.057  13.315  0.4987  0.3676 -0.1966
 4268PP      PP14372  13.614  13.228  11.338 -0.0628  0.2549  0.0622
 4269PP      PP14373  13.636  13.965   1.780  0.0574  0.0273  0.2203
 4270PP      PP14374   9.227  10.922  10.332  0.0172 -0.0613  0.1086
 4271PP      PP14375   3.506  13.243   3.698 -0.0257  0.2461 -0.0937
 4272PP      PP14376   6.519  10.765   2.462 -0.3817  0.5014  0.3072
 4273PP      PP14377  11.996   7.860  11.501  0.0595 -0.1635  0.0467
 4274PP      PP14378   0.598   7.145   2.308  0.0833 -0.2566 -0.2017
 4275PP      PP14379  11.605  13.532   3.719  0.0092 -0.1225  0.1202
 4276PP      PP14380   1.804   4.667   0.413 -0.0718 -0.0983 -0.2565
 4277PP      PP14381  10.303  10.458  10.508 -0.1700 -0.0879 -0.3689
 4278PP      PP14382  10.678   3.570  10.247 -0.2115  0.0350  0.0111
 4279PP      PP14383   6.878  11.593   9.534 -0.1669  0.3165 -0.2326
 4280PP      PP14384   5.972  12.543  13.329  0.0588 -0.2890  0.1777
 4281PP      PP14385   7.072   1.016   2.064 -0.2472 -0.0703  0.0590
 4282PP      PP14386  14.396  13.366  12.860  0.1362 -0.1609 -0.1640
 4283PP      PP14387   5.329  10.630  11.811  0.4081  0.0314 -0.0108
 4284PP      PP14388  15.770   3.359   3.422 -0.0269  0.3702  0.2762
 4285PP      PP14389   4.295  12.681   3.972  0.0791 -0.1833  0.3359
 4286PP      PP14390   9.171  11.881   2.261 -0.0012  0.1957 -0.1112
 4287PP      PP14391   0.152   5.219   3.074 -0.1058 -0.2051 -0.0018
 4288PP      PP14392  13.533   5.038   2.672  0.1062  0.0012 -0.2487
 4289PP      PP14393  12.735   5.124   4.235 -0.1780  0.1924 -0.0115
 4290PP      PP14394  12.152   0.004   9.643  0.2347  0.2729  0.2232
 4291PP      PP14395   8.149  12.480   4.711  0.2898 -0.1131  0.2661
 4292PP      PP14396   3.895  14.568   1.835  0.0414 -0.0203  0.2225
 4293PP      PP14397   0.002   7.372  12.143  0.1723 -0.1844  0.0873
 4294PP      PP14398  15.636  12.450   2.126 -0.0665  0.2164  0.1354
 4295PP      PP14399  12.588  11.918   3.667 -0.1956 -0.1544 -0.1025
 4296PP      PP14400  10.770   5.777  10.817 -0.0650 -0.0327  0.2937
 4297PP      PP14401   5.089   2.180  10.457 -0.0527 -0.2623 -0.3817
 4298PP      PP14402   1.587  13.610   3.289  0.0284  0.3198 -0.0020
 4299PP      PP14403   3.116   1.700   1.934 -0.1017 -0.0590  0.2344
 4300PP      PP14404  14.258   5.982   4.629 -0.0385  0.0846  0.3897
 4301PP      PP14405  13.581   6.496   3.797  0.0564 -0.0896  0.0646
 4302PP      PP14406   8.449   1.085   9.733  0.1619  0.1493 -0.0606
 4303PP      PP14407   1.523   8.188  12.820 -0.1250 -0.1661 -0.1409
 4304PP      PP14408  10.515  13.076   2.304  0.1510  0.1470  0.0135
 4305PP      PP14409   1.141   0.659  10.360 -0.6319  0.1963  0.2817
 4306PP      PP14410   3.746  11.860   2.283  0.1408  0.0462  0.2580
 4307PP      PP14411   8.565   0.441   8.085  0.2339  0.0432 -0.2930
 4308PP      PP14412   0.635   6.986   1.495  0.2411  0.0104  0.1777
 4309PP      PP14413   3.644  12.770   0.242  0.1443 -0.0322 -0.0310
 4310PP      PP14414  12.112   3.941   2.683 -0.1593 -0.0673 -0.0138
 4311PP      PP14415   1.504  10.123   2.347 -0.2248  0.1332  0.2454
 4312PP      PP14416   9.952   4.259  11.894 -0.1636  0.0979 -0.2386
 4313PP      PP14417   1.981   1.568   1.385 -0.1131  0.2116 -0.0638
 4314PP      PP14418   6.633  15.079  10.383 -0.0392 -0.2035  0.2151
 4315PP      PP14419  10.289   8.695   1.649 -0.1482  0.4236 -0.3306
 4316PP      PP14420  13.619   3.218  11.754 -0.0592  0.3628  0.2653
 4317PP      PP14421   0.256  15.196   1.776  0.2062 -0.5570 -0.2649
 4318PP      PP14422  14.209  11.300   3.207  0.1544 -0.2011 -0.1256
 4319PP      PP14423   8.849  14.101   1.823  0.1998 -0.0944  0.3685
 4320PP      PP14424  11.397  14.611  11.662 -0.0817  0.1123 -0.0901
 4321PP      PP14425  13.013   1.748  13.233 -0.3288 -0.1436  0.0161
 4322PP      PP14426   3.288   5.578   9.997 -0.2162  0.0275 -0.0392
 4323PP      PP14427  15.316  14.843  11.055  0.1227  0.1474 -0.1663
 4324PP      PP14428   0.710  12.233   0.131 -0.1899 -0.3107 -0.3819
 4325PP      PP14429   3.593  14.261   0.094 -0.0079 -0.1217 -0.0607
 4326PP      PP14430   8.919  10.730  10.649 -0.0022  0.1046 -0.0839
 4327PP      PP14431   2.156   8.657   5.592 -0.1193 -0.0136 -0.2621
 4328PP      PP14432   5.679  11.014   3.963 -0.2601 -0.0313 -0.2633
 4329PP      PP14433   5.155   4.721  12.846  0.2960 -0.0974 -0.0101
 4330PP      PP14434  10.958   8.463  11.194 -0.1068 -0.0724 -0.1335
 4331PP      PP14435   6.941  14.872  10.041 -0.0650 -0.2066  0.0490
 4332PP      PP14436   0.070   0.287  12.262 -0.0289 -0.1954 -0.1793
 4333PP      PP14437  10.792  11.481   0.868 -0.1273  0.1334 -0.1311
 4334PP      PP14438   0.040   5.328  11.512  0.0518  0.2976  0.0155
 4335PP      PP14439  13.812  14.715  11.053 -0.0617 -0.1048 -0.2587
 4336PP      PP14440   4.646   7.259   9.193  0.2581 -0.2107  0.0118
 4337PP      PP14441  14.498   1.271  11.568 -0.2643 -0.0316 -0.2218
 4338PP      PP14442   5.246   5.794   2.789 -0.0419  0.0393  0.0038
 4339PP      PP14443  14.660   7.853   3.104  0.0835 -0.1596 -0.4626
 4340PP      PP14444   0.884  14.884   3.957  0.1327  0.1125  0.0778
 4341PP      PP14445   7.664   9.549  13.414 -0.1155  0.3147 -0.0944
 4342PP      PP14446   4.556   3.524  12.370  0.0322  0.0420 -0.0701
 4343PP      PP14447   6.475   4.773   1.345  0.0784 -0.3510 -0.1846
 4344PP      PP14448   5.844  15.576  13.124  0.1022  0.0071 -0.2005
 4345PP      PP14449   0.904   7.664  13.097  0.0612 -0.1620  0.1001
 4346PP      PP14450  10.787  11.112  10.424  0.1407 -0.2487  0.0727
 4347PP      PP14451  12.006  14.764  12.792 -0.0626  0.0709  0.0157
 4348PP      PP14452   0.041   3.534   1.304 -0.0646 -0.0740 -0.1082
 4349PP      PP14453   7.741  11.464  10.736 -0.1065  0.2137 -0.1124
 4350PP      PP14454   4.659   5.127   2.762 -0.1237  0.1164  0.2232
 4351PP      PP14455   2.023   2.811   3.991  0.0471 -0.2030 -0.0365
 4352PP      PP14456   6.895  11.570  10.188  0.0641 -0.2313  0.1347
 4353PP      PP14457  13.230  15.636   4.340 -0.3733  0.2743  0.2048
 4354PP      PP14458   1.265   4.279  12.433 -0.2011  0.0942  0.0560
 4355PP      PP14459   8.507   3.155   8.819 -0.2429  0.0397  0.0970
 4356PP      PP14460   3.057   0.137   9.105 -0.2207 -0.0003 -0.1627
 4357PP      PP14461   7.328   3.112   3.064 -0.1672 -0.0628  0.3508
 4358PP      PP14462   1.325   5.435  11.218  0.0069 -0.0085  0.1159
 4359PP      PP14463  11.533  10.797   4.761 -0.3487  0.3827 -0.0376
 4360PP      PP14464   5.071   2.270  12.886  0.0358  0.1234 -0.1380
 4361PP      PP14465  11.308   9.281   5.337  0.0818  0.1385  0.1692
 4362PP      PP14466   8.416   3.207   0.730  0.2835 -0.0810  0.0648
 4363PP      PP14467  12.441   9.889   0.877  0.0199  0.3648  0.1108
 4364PP      PP14468  13.482  10.857   0.956 -0.0401 -0.1461  0.1180
 4365PP      PP14469   4.147   7.237  13.192 -0.0715  0.0856 -0.1035
 4366PP      PP14470  15.274   4.960   9.380  0.2657 -0.0893  0.1906
 4367PP      PP14471   2.289   2.431   3.746 -0.0649 -0.0637  0.1127
 4368PP      PP14472   7.970   6.452   3.913  0.3352 -0.0220 -0.2856
 4369PP      PP14473   9.225  13.813  12.974 -0.1106  0.0371 -0.0202
 4370PP      PP14474   4.060  11.503   3.236  0.1095 -0.1721  0.2062
 4371PP      PP14475  14.199  11.421  10.111 -0.0058 -0.0637  0.2780
 4372PP      PP14476  13.565   3.229  12.720  0.0205  0.1083 -0.2119
 4373PP      PP14477   8.813   7.666   2.984  0.0652 -0.2062  0.1310
 4374PP      PP14478   6.834   6.785  13.202  0.0275  0.0598 -0.0706
 4375PP      PP14479   8.009   1.162   9.424  0.0190 -0.2672 -0.0428
 4376PP      PP14480   5.776   7.399   3.334 -0.3921 -0.2880  0.0378
 4377PP      PP14481   2.936  14.220   3.563  0.0783  0.0665 -0.2876
 4378PP      PP14482   5.881   0.619   8.411 -0.1075 -0.0779  0.0906
 4379PP      PP14483   7.586   2.498  10.191  0.0278 -0.0138  0.4778
 4380PP      PP14484  12.318   6.953   2.882  0.1105  0.0756  0.1605
 4381PP      PP14485   6.057   7.171   9.636 -0.3343  0.2151 -0.2329
 4382PP      PP14486   2.087   0.564   0.275 -0.2413 -0.3009  0.1794
 4383PP      PP14487   3.162   6.766  12.586 -0.3766 -0.5805 -0.3336
 4384PP      PP14488   7.049   0.290  12.934 -0.0399 -0.1133 -0.1321
 4385PP      PP14489   5.872  15.283   1.350 -0.1111 -0.1307 -0.0145
 4386PP      PP14490  12.444  10.011   5.299  0.1010 -0.0013 -0.1118
 4387PP      PP14491   9.022  12.636  13.036 -0.2897 -0.3300 -0.1917
 4388PP      PP14492  13.811   3.049   0.344 -0.0460 -0.0494 -0.0155
 4389PP      PP14493  13.544  10.513   2.724  0.1177 -0.2729  0.1606
 4390PP      PP14494  15.011   2.532   2.332  0.2291 -0.0022 -0.0703
 4391PP      PP14495  14.085   4.158  11.008 -0.0354  0.2185 -0.0519
 4392PP      PP14496  11.997  12.660  12.169  0.0756  0.1201  0.3213
 4393PP      PP14497  14.598  12.452   3.332 -0.0931  0.2554  0.0400
 4394PP      PP14498   9.007   3.381   2.959 -0.0197 -0.1863  0.1074
 4395PP      PP14499  15.346   6.229   0.520 -0.1606 -0.1161 -0.0548
 4396PP      PP14500   4.387   6.336  12.843  0.1303 -0.2885 -0.0781
 4397PP      PP14501   9.398   6.032   3.682  0.1723 -0.2364 -0.0087
 4398PP      PP14502  13.638   5.566  12.920 -0.3530  0.2034 -0.1097
 4399PP      PP14503   2.568   1.984   9.434  0.1452 -0.0186 -0.3292
 4400PP      PP14504  15.122   5.581   4.598 -0.1621  0.2384  0.0867
 4401PP      PP14505  14.667   9.765   2.613 -0.0317 -0.1895  0.0650
 4402PP      PP14506   5.455   0.084   8.078  0.4074 -0.3033  0.0358
 4403PP      PP14507  12.748   7.175  10.652 -0.1630  0.1930 -0.0806
 4404PP      PP14508  11.510   8.382   2.776 -0.2561  0.2775  0.0899
 4405PP      PP14509   7.773   9.961  12.281 -0.0470  0.0735 -0.0304
 4406PP      PP14510   6.869  10.873  10.785  0.1771 -0.1641 -0.1302
 4407PP      PP14511   7.096   6.028   4.015  0.0238 -0.2791 -0.3241
 4408PP      PP14512  15.356  13.054   4.213  0.1559 -0.2017 -0.0272
 4409PP      PP14513   9.356   2.648  11.475 -0.1047 -0.3107  0.1891
 4410PP      PP14514   4.138   8.753  10.669  0.0209 -0.0128  0.3229
 4411PP      PP14515  11.286   4.900   0.598  0.1970 -0.1824  0.0512
 4412PP      PP14516  15.041   7.793   1.111  0.1308 -0.0261  0.1183
 4413PP      PP14517  10.179   9.333   0.383 -0.0263  0.2324 -0.0027
 4414PP      PP14518  12.431   8.526  11.865  0.0712 -0.1070 -0.0123
 4415PP      PP14519   5.207  11.249   3.276 -0.1523  0.1659 -0.0696
 4416PP      PP14520   9.200   9.898  10.106 -0.1389 -0.0649  0.2808
 4417PP      PP14521   0.336  10.673  11.047 -0.0299 -0.4090 -0.1420
 4418PP      PP14522  14.882   7.538   2.757  0.1698 -0.1194 -0.0266
 4419PP      PP14523  14.125   7.304  12.324  0.0722  0.1771  0.1726
 4420PP      PP14524  13.532  11.817   0.513  0.0076 -0.1742  0.3575
 4421PP      PP14525   7.293   3.637  12.570 -0.1734  0.0041  0.0927
 4422PP      PP14526   4.524   7.060   2.546 -0.2830 -0.2326  0.1897
 4423PP      PP14527   7.569  13.517   0.647  0.0233 -0.1665 -0.0015
 4424PP      PP14528   0.384   8.751   2.221 -0.1409  0.0533  0.2868
 4425PP      PP14529   8.739   7.075   1.787  0.0629 -0.0380  0.0287
 4426PP      PP14530   0.117   6.679   9.957  0.2550 -0.1572  0.2233
 4427PP      PP14531  10.533  11.646   2.461  0.1029 -0.2443  0.0181
 4428PP      PP14532  10.360   8.022   2.960 -0.0282 -0.1216  0.0360
 4429PP      PP14533   9.254   4.687  10.884 -0.0776  0.1125 -0.3092
 4430PP      PP14534  11.410   5.320   3.196 -0.0715 -0.1458 -0.2027
 4431PP      PP14535  15.101   2.103  12.645  0.1491  0.2110 -0.1065
 4432PP      PP14536  14.135  10.657  13.401  0.2103  0.0641  0.2461
 4433PP      PP14537  10.376   9.179   2.297  0.0934  0.1955 -0.0372
 4434PP      PP14538   9.094  11.561   0.329  0.2521 -0.1940  0.0266
 4435PP      PP14539  14.796  14.409  10.971  0.1162 -0.2899  0.0311
 4436PP      PP14540   9.938   7.503   3.622 -0.0352  0.1887 -0.0922
 4437PP      PP14541  13.496  14.610  10.008 -0.0409 -0.2603 -0.0380
 4438PP      PP14542  13.152  13.808   1.207  0.1568 -0.2832  0.3086
 4439PP      PP14543  13.205   8.412   2.018  0.1940  0.2159  0.2019
 4440PP      PP14544   3.324   7.436   0.140 -0.0182  0.0774  0.1600
 4441PP      PP14545   2.561   8.111  12.908  0.1311 -0.4610  0.0691
 4442PP      PP14546   9.517  15.558   1.917 -0.2558  0.1066  0.0729
 4443PP      PP14547  15.076   8.175   9.776 -0.1720  0.0080 -0.0723
 4444PP      PP14548   1.443  12.044  11.626 -0.0194 -0.0051 -0.0927
 4445PP      PP14549  10.576   2.631  12.721  0.0148 -0.4347 -0.0549
 4446PP      PP14550   9.757   7.990   2.127  0.4468  0.0996  0.2478
 4447PP      PP14551   2.785   7.303   3.971 -0.2610  0.1747 -0.1571
 4448PP      PP14552   6.942   4.023   0.147 -0.2312  0.1758  0.1660
 4449PP      PP14553   0.275  14.396  12.701  0.0182  0.0037 -0.0592
 4450PP      PP14554  11.172  11.300  12.532 -0.3166  0.0711 -0.4287
 4451PP      PP14555   9.149   6.827   3.545 -0.0829  0.0168  0.2082
 4452PP      PP14556  12.084   7.312  13.093 -0.0110 -0.1059  0.0080
 4453PP      PP14557  14.375   3.234  13.164 -0.0218  0.0585  0.0212
 4454PP      PP14558   1.110  11.125   1.491 -0.0083  0.1386  0.1638
 4455PP      PP14559   6.543   3.180   8.420  0.1236 -0.3496  0.1317
 4456PP      PP14560   4.936   3.217   3.770 -0.0052  0.1622 -0.1687
 4457PP      PP14561  12.066  10.809  11.514  0.4068 -0.0958 -0.0224
 4458PP      PP14562   0.379  10.984   2.344  0.1882 -0.2293  0.0463
 4459PP      PP14563   7.401   2.982   2.572  0.0533 -0.2427  0.0135
 4460PP      PP14564  15.571   9.482   4.938  0.0370 -0.0502  0.0933
 4461PP      PP14565   8.624  12.411   4.521  0.1722  0.0366  0.4739
 4462PP      PP14566   7.684   5.152  10.938  0.3297  0.1496  0.3338
 4463PP      PP14567  14.358   0.718   8.496 -0.1645  0.2613  0.3075
 4464PP      PP14568   5.957  13.071   2.299  0.5097  0.0555 -0.3948
 4465PP      PP14569   1.114   9.645  10.649 -0.0154 -0.1959 -0.2559
 4466PP      PP14570   5.613   9.875   1.115 -0.2809  0.1105 -0.1541
 4467PP      PP14571   3.379   6.580   0.739  0.0172  0.0330 -0.0122
 4468PP      PP14572  14.970   1.811   4.117  0.2531 -0.1702  0.2022
 4469PP      PP14573   8.738  15.643   0.893 -0.0615  0.0124  0.1760
 4470PP      PP14574   3.972   9.964  10.078 -0.0057  0.0237 -0.4237
 4471PP      PP14575   4.569   9.247  13.361  0.0339  0.1675 -0.3089
 4472PP      PP14576   4.948   4.058  10.068 -0.1880  0.2062 -0.0438
 4473PP      PP14577  15.497   8.490  12.094 -0.1225 -0.1894 -0.0972
 4474PP      PP14578   0.321   8.546   3.303 -0.3948 -0.0766  0.0030
 4475PP      PP14579   7.461   4.560   9.599 -0.1371  0.0202  0.0490
 4476PP      PP14580   6.503  14.789   2.012  0.1031 -0.1195  0.2892
 4477PP      PP14581  10.395   9.035   0.751 -0.0250 -0.2170 -0.1029
 4478PP      PP14582   0.881   1.343  11.162 -0.0546  0.1328  0.0614
 4479PP      PP14583   2.532  12.074   1.151 -0.0290 -0.0529 -0.0538
 4480PP      PP14584   7.065   2.164  11.012  0.1681  0.0076 -0.0180
 4481PP      PP14585   3.319   2.725  13.279 -0.1133 -0.0947 -0.0651
 4482PP      PP14586   5.872  13.709  11.778  0.0509  0.0396  0.0225
 4483PP      PP14587  12.046   2.330  11.154  0.1179 -0.3156  0.0630
 4484PP      PP14588   9.631   8.073   8.845  0.0681  0.1419  0.0072
 4485PP      PP14589  15.016  11.774   3.968  0.1811 -0.1609  0.2810
 4486PP      PP14590   3.179   6.045  12.721  0.1122 -0.2920  0.0978
 4487PP      PP14591  12.872  14.465  12.526 -0.0260 -0.0015  0.2469
 4488PP      PP14592  15.550   1.421   2.929  0.2461 -0.2511 -0.0129
 4489PP      PP14593   4.790   3.326  11.920  0.0579 -0.0855 -0.0348
 4490PP      PP14594   8.627   7.998   1.893  0.3072  0.2015  0.2354
 4491PP      PP14595  15.677   3.335  11.504 -0.1681 -0.0140  0.0679
 4492PP      PP14596   5.848   4.376   8.931 -0.1364  0.0129  0.0502
 4493PP      PP14597  14.470   1.163   2.288  0.2252  0.2206 -0.3389
 4494PP      PP14598  13.695   5.863   2.942 -0.1560 -0.4358  0.1522
 4495PP      PP14599  11.410  14.760  13.255 -0.1398 -0.0465 -0.2760
 4496PP      PP14600   5.693   9.350   1.150 -0.4120  0.2364  0.2568
 4497PP      PP14601   0.550   9.076   4.003 -0.0998  0.0834 -0.1063
 4498PP      PP14602   5.827   2.632   9.621  0.0877  0.1738  0.1173
 4499PP      PP14603   1.124   9.537   3.894 -0.2320  0.1618 -0.0008
 4500PP      PP14604  10.197   6.521   2.659 -0.0291 -0.0341 -0.0142
 4501PP      PP14605   7.363  12.345   4.097  0.1995 -0.0354 -0.1631
 4502PP      PP14606   1.826   7.702   4.561  0.0447 -0.0965  0.0947
 4503PP      PP14607   5.617  13.203   3.950 -0.1562 -0.0937 -0.1518
 4504PP      PP14608   1.035   0.765   3.507  0.3828  0.4230  0.4648
 4505PP      PP14609  15.062  14.057   0.258 -0.2236 -0.2444  0.0212
 4506PP      PP14610   0.677   6.667  12.515 -0.1699  0.0648 -0.1768
 4507PP      PP14611  10.503  10.239   4.153  0.3064 -0.1870  0.2086
 4508PP      PP14612  14.318  11.473  11.157  0.0861  0.0287 -0.2251
 4509PP      PP14613  13.884  14.324  12.223  0.2839  0.3502 -0.0497
 4510PP      PP14614  13.301   4.875   1.454  0.0266  0.0938  0.2231
 4511PP      PP14615   6.244  13.669  10.057  0.0761  0.0759 -0.0425
 4512PP      PP14616  13.945  13.237  12.820  0.0284 -0.4611 -0.1889
 4513PP      PP14617   2.040   1.419   0.815  0.0166  0.0492  0.1255
 4514PP      PP14618   4.570   8.488   3.207 -0.0553 -0.0942 -0.1378
 4515PP      PP14619  14.591   2.391   3.215 -0.1522 -0.1315  0.0856
 4516PP      PP14620   2.988  13.574  10.114  0.2748 -0.2689  0.4482
 4517PP      PP14621   6.649   0.615   9.769  0.0837  0.0285 -0.0681
 4518PP      PP14622  12.233   0.780   3.251 -0.0326  0.0124  0.5084
 4519PP      PP14623   1.382   0.673   9.481  0.2968 -0.2612  0.1532
 4520PP      PP14624  10.641   2.133   3.697  0.0838  0.1726  0.0333
 4521PP      PP14625   1.774   7.596   2.743 -0.1764 -0.0280 -0.1774
 4522PP      PP14626  15.330   6.067  11.108 -0.2049  0.3184  0.0268
 4523PP      PP14627   5.253  12.765   3.460  0.1577 -0.1046 -0.0888
 4524PP      PP14628   8.393   7.021   0.408  0.2300  0.1117 -0.1017
 4525PP      PP14629   8.799   0.629   8.934 -0.1655  0.2826  0.5278
 4526PP      PP14630   7.369   2.601   0.276 -0.1631  0.2754 -0.2149
 4527PP      PP14631   4.006   7.688   4.361 -0.2758 -0.3468  0.1442
 4528PP      PP14632   1.512  13.522   2.779 -0.3201 -0.1119  0.0379
 4529PP      PP14633  13.215   0.917  11.183  0.0714 -0.1086  0.1553
 4530PP      PP14634   6.839   1.056   2.567  0.1541 -0.0358 -0.1639
 4531PP      PP14635   4.866   9.000   4.286  0.0522  0.0352  0.1173
 4532PP      PP14636   7.170  11.996  10.681 -0.0043  0.1356  0.1532
 4533PP      PP14637   5.627   8.845  10.014 -0.5444 -0.2420 -0.0347
 4534PP      PP14638  12.498   6.434   4.959  0.2821 -0.1113 -0.0491
 4535PP      PP14639  15.745  13.985  11.695 -0.0311 -0.2625  0.0158
 4536PP      PP14640  14.859   0.452   9.227  0.2988  0.1914 -0.2948
 4537PP      PP14641  13.592  12.064   9.790 -0.2452 -0.1073 -0.2790
 4538PP      PP14642  11.995  11.889  12.758 -0.1084 -0.2944 -0.2032
 4539PP      PP14643  11.426   3.681   2.893  0.2530 -0.1660 -0.1342
 4540PP      PP14644   2.268   0.454   0.767 -0.1899 -0.0636 -0.3983
 4541PP      PP14645   0.460  10.513   5.457 -0.0666  0.1015 -0.1634
 4542PP      PP14646   1.592   6.367  12.016 -0.0553  0.0714  0.0784
 4543PP      PP14647   1.046  11.297   4.466 -0.0313  0.0265 -0.1204
 4544PP      PP14648  12.680   9.079  10.178 -0.1145  0.3593  0.0003
 4545PP      PP14649   1.408   0.411   1.233  0.2905 -0.2473  0.0860
 4546PP      PP14650   6.439   7.617  13.000 -0.0691 -0.3658  0.1042
 4547PP      PP14651  10.528  12.649   0.324 -0.0410  0.1761  0.1884
 4548PP      PP14652   5.691   3.491   0.231  0.2024 -0.0240  0.2394
 4549PP      PP14653  14.931   4.725   2.046  0.1497  0.0308  0.1075
 4550PP      PP14654   9.827   4.041   0.640  0.1621 -0.0761 -0.1246
 4551PP      PP14655   4.950   6.076   4.835 -0.0504 -0.0395 -0.0508
 4552PP      PP14656   2.062   1.476  11.063 -0.0545 -0.2784 -0.1353
 4553PP      PP14657   3.292  13.464   9.188  0.0549 -0.4697 -0.1647
 4554PP      PP14658   4.183   0.579   3.357  0.0378  0.0077  0.0647
 4555PP      PP14659   4.291   2.514  12.100  0.0142 -0.1768  0.3093
 4556PP      PP14660   1.279   8.245  13.343 -0.1924  0.1940 -0.2085
 4557PP      PP14661   3.783   0.611   3.025  0.0643 -0.2682  0.1337
 4558PP      PP14662   4.525   0.921  10.539  0.1640 -0.1041  0.0944
 4559PP      PP14663  12.554   6.557   1.916  0.0865  0.1187 -0.1388
 4560PP      PP14664   2.338  12.446   3.575 -0.1845 -0.1427 -0.0910
 4561PP      PP14665   9.722   2.899   1.880  0.0960  0.3150 -0.2964
 4562PP      PP14666   5.846   1.557  10.180 -0.1002 -0.2564 -0.0190
 4563PP      PP14667  13.063  10.620   0.857  0.0876 -0.2146 -0.2561
 4564PP      PP14668  13.227  11.058   3.005  0.2872  0.1732 -0.0052
 4565PP      PP14669  11.527   2.442  12.211  0.0790  0.0215  0.1646
 4566PP      PP14670   5.297   5.246  11.347  0.2542 -0.1993  0.1308
 4567PP      PP14671  12.922  13.615  11.666  0.4493 -0.1189  0.0442
 4568PP      PP14672   2.205  15.743  10.737 -0.1317 -0.2726 -0.0337
 4569PP      PP14673  14.042   8.771   4.594  0.0518 -0.0627  0.1452
 4570PP      PP14674   8.904   2.527  12.535  0.3933  0.2266 -0.2087
 4571PP      PP14675   5.476  10.414   0.027  0.2145  0.2196 -0.1163
 4572PP      PP14676  12.549  13.199  11.623 -0.0741 -0.2719  0.0438
 4573PP      PP14677  15.696  14.876  13.333 -0.2179  0.1268  0.0039
 4574PP      PP14678  15.154   9.010   3.186  0.0937  0.1220 -0.1350
 4575PP      PP14679  15.331   2.958  10.271  0.1041  0.1577 -0.0402
 4576PP      PP14680  10.497   2.433  12.185 -0.1629  0.2622 -0.3845
 4577PP      PP14681   5.852   5.794   2.447  0.1031 -0.0426  0.0682
 4578PP      PP14682  10.394   1.289   9.714 -0.3325  0.0316  0.2956
 4579PP      PP14683  13.758  13.761   0.886  0.0562 -0.2377 -0.0749
 4580PP      PP14684   5.254  11.034  11.398  0.1118 -0.0301  0.1028
 4581PP      PP14685   3.051  10.205   1.128  0.1403  0.1033  0.2012
 4582PP      PP14686  11.543   3.345   1.203 -0.1336 -0.1138  0.1944
 4583PP      PP14687  14.130   5.492   0.189 -0.0413  0.0102 -0.0215
 4584PP      PP14688  10.005  11.624   3.736  0.0425  0.2928 -0.2764
 4585PP      PP14689  13.114  13.973  12.485 -0.0255 -0.1308 -0.0007
 4586PP      PP14690   0.667   1.589   2.432 -0.1879  0.1952  0.0938
 4587PP      PP14691   6.980   3.172   2.697  0.0444 -0.1226 -0.2014
 4588PP      PP14692  15.525   2.124   8.842 -0.1271 -0.1434 -0.1268
 4589PP      PP14693   8.187   6.136  10.438 -0.0420 -0.2514 -0.0542
 4590PP      PP14694   3.993  11.335  11.250 -0.2239 -0.1386 -0.1243
 4591PP      PP14695   1.907  12.973   4.483 -0.0216 -0.1691 -0.2327
 4592PP      PP14696   8.297   4.248   8.918 -0.2032  0.0292 -0.2972
 4593PP      PP14697   8.844   6.724  12.645 -0.1527 -0.1437 -0.1291
 4594PP      PP14698   2.146  13.212   2.217 -0.1064  0.1924  0.0459
 4595PP      PP14699   6.915   2.196   9.045 -0.0745  0.0648 -0.1095
 4596PP      PP14700   7.312   5.756  11.951 -0.2436  0.0226 -0.2020
 4597PP      PP14701   0.789  10.287  11.513 -0.1183  0.1450 -0.1760
 4598PP      PP14702   6.586   1.115   7.582 -0.1762  0.2497 -0.0976
 4599PP      PP14703   2.563   3.415   3.258  0.1426 -0.3088  0.2847
 4600PP      PP14704   9.435  10.688   4.953  0.2429 -0.2429  0.0277
 4601PP      PP14705   2.343  14.447  13.346 -0.2196 -0.2695  0.1319
 4602PP      PP14706  15.727   2.704   8.814 -0.2375 -0.0431  0.1400
 4603PP      PP14707   1.197  11.200  11.377 -0.0852  0.3346 -0.3891
 4604PP      PP14708   2.661   6.267  10.732  0.0541 -0.1039  0.0157
 4605PP      PP14709  11.893   6.037   4.733 -0.2111 -0.1254  0.0841
 4606PP      PP14710  12.029   0.136   2.805 -0.0540  0.4502 -0.2007
 4607PP      PP14711  10.763  13.989   0.259 -0.2853 -0.4314 -0.2151
 4608PP      PP14712  10.273  14.038   8.786  0.1989  0.2881 -0.0455
 4609PP      PP14713  12.510   6.247  13.467 -0.1658  0.0535  0.1310
 4610PP      PP14714   9.141  14.147  10.997 -0.3679  0.2656  0.0225
 4611PP      PP14715   0.312  12.238   3.365 -0.0447  0.1574  0.0340
 4612PP      PP14716   7.018   7.262   2.453 -0.3145  0.1830  0.4689
 4613PP      PP14717  12.036  11.246  12.572  0.0525 -0.1898  0.0244
 4614PP      PP14718   4.170   9.740   1.530 -0.4659  0.1075  0.0534
 4615PP      PP14719   3.190   3.350   0.306  0.0328  0.1553  0.2381
 4616PP      PP14720   4.017   0.180  11.230  0.3372  0.2584 -0.0458
 4617PP      PP14721   9.786   3.594   1.311  0.0035 -0.1968  0.0007
 4618PP      PP14722  12.934   8.172   2.410 -0.2566  0.1003 -0.2272
 4619PP      PP14723  14.720   1.741   1.735  0.0382 -0.3398  0.1115
 4620PP      PP14724   5.865  15.472  12.413  0.1111 -0.0904 -0.1126
 4621PP      PP14725   8.207  14.907   0.008 -0.0088 -0.1572 -0.3175
 4622PP      PP14726   1.975   0.070  10.299 -0.2172  0.0116  0.0643
 4623PP      PP14727   3.887   3.220   0.034 -0.1698  0.0667 -0.1051
 4624PP      PP14728   9.584  10.626   0.299 -0.1155  0.1465  0.1812
 4625PP      PP14729   9.902   3.872   2.627  0.4191 -0.0024 -0.1701
 4626PP      PP14730   7.098   6.226   3.507 -0.1464 -0.2158 -0.0395
 4627PP      PP14731   1.960   7.199   1.683 -0.0131 -0.0142  0.0636
 4628PP      PP14732   5.816   0.897   9.572  0.1700  0.0305 -0.1238
 4629PP      PP14733   2.448   8.772   1.836 -0.0391 -0.0932  0.2752
 4630PP      PP14734   3.974  11.130   1.626 -0.1135 -0.2112  0.0278
 4631PP      PP14735  12.267   9.811   1.579  0.0641 -0.0068 -0.1253
 4632PP      PP14736  10.657   2.526   0.558 -0.0737  0.0797  0.1506
 4633PP      PP14737  10.409   9.539  10.562  0.0508 -0.0916  0.0347
 4634PP      PP14738  13.233   6.195   2.078 -0.0928 -0.1578 -0.0429
 4635PP      PP14739  11.809   5.219   1.640  0.1566  0.0282  0.1126
 4636PP      PP14740   3.221  13.596  11.893  0.1574  0.0254 -0.4670
 4637PP      PP14741  12.433   2.797  12.294 -0.1591  0.0194  0.0621
 4638PP      PP14742  10.675   1.241   4.360 -0.1187  0.3771 -0.0060
 4639PP      PP14743   8.588  12.618  12.821 -0.1298 -0.0836 -0.0715
 4640PP      PP14744  13.952  14.544   2.776  0.0966 -0.1516 -0.2517
 4641PP      PP14745  14.716   5.319  10.729  0.0441 -0.3117  0.2958
 4642PP      PP14746   1.494  13.457  12.513  0.2414  0.0189 -0.1936
 4643PP      PP14747   3.323   0.235   3.022 -0.0753  0.1029 -0.0188
 4644PP      PP14748  14.760   2.488   2.746 -0.0298 -0.0467 -0.2265
 4645PP      PP14749   9.472   7.237  12.247 -0.0598 -0.1070 -0.1825
 4646PP      PP14750   7.843   4.250  13.113  0.0995 -0.1736  0.1977
 4647PP      PP14751  12.443   7.094  10.032  0.0202 -0.0595  0.2257
 4648PP      PP14752  13.900   4.202   9.313  0.1261 -0.1075  0.0458
 4649PP      PP14753   9.584   1.154  13.122  0.3210 -0.1204  0.0496
 4650PP      PP14754   3.646  15.100   9.546 -0.0306  0.2056 -0.2821
 4651PP      PP14755   9.231  10.107   4.175 -0.1762 -0.1390 -0.1929
 4652PP      PP14756  11.531   2.316  11.034  0.0291 -0.6561 -0.2130
 4653PP      PP14757  13.431   2.901  12.351 -0.2569  0.2631 -0.2124
 4654PP      PP14758   8.088   7.089  10.163 -0.2250  0.1816  0.0787
 4655PP      PP14759  12.768  15.079  12.722  0.1101 -0.0671 -0.2310
 4656PP      PP14760   3.008  10.284  10.080  0.1001 -0.0216 -0.1098
 4657PP      PP14761  15.313   2.839   1.057 -0.0024 -0.2304 -0.3569
 4658PP      PP14762  11.089  10.187  12.196 -0.0510 -0.0514  0.0349
 4659PP      PP14763   2.587  13.752   1.871 -0.0506  0.2416  0.1623
 4660PP      PP14764   3.130   1.035  13.127 -0.0781 -0.1761 -0.1726
 4661PP      PP14765   1.372  10.643   3.229  0.0750  0.3346  0.0067
 4662PP      PP14766   9.694  14.227   2.612  0.1291 -0.1289  0.0652
 4663PP      PP14767   9.991   9.524   4.025 -0.2645  0.1697  0.2536
 4664PP      PP14768   5.402   0.673  13.271  0.0433  0.0378  0.3111
 4665PP      PP14769   1.708   7.764   1.792 -0.1709  0.1727 -0.3600
 4666PP      PP14770  15.247  13.134   3.715 -0.1719  0.2431 -0.1291
 4667PP      PP14771  15.346  13.405   1.061  0.1638 -0.1393  0.1397
 4668PP      PP14772   1.601   5.449  13.222 -0.1011  0.1084 -0.2447
 4669PP      PP14773  13.378  10.140   0.399 -0.1429 -0.1536  0.1454
 4670PP      PP14774  12.631   3.929   3.014 -0.0347  0.0353  0.2825
 4671PP      PP14775  10.036   4.766   0.755  0.2436 -0.1820  0.2522
 4672PP      PP14776   7.930   8.832   0.756 -0.0661 -0.1617  0.3223
 4673PP      PP14777   9.611  11.561  13.085 -0.1653 -0.2406  0.1513
 4674PP      PP14778  11.535   3.398   2.064  0.0053  0.2137 -0.1820
 4675PP      PP14779   0.140  14.922   9.849  0.1597 -0.0784 -0.3944
 4676PP      PP14780   7.285   2.319  10.560 -0.0558 -0.0378 -0.0820
 4677PP      PP14781  11.374   8.705  10.395 -0.1306 -0.0945 -0.3170
 4678PP      PP14782   2.829   6.518   5.225 -0.1428  0.0446  0.0210
 4679PP      PP14783   4.653   0.193  12.303 -0.0262  0.1766  0.1643
 4680PP      PP14784   7.623   5.807  10.714 -0.1178 -0.0810  0.0977
 4681PP      PP14785   0.384   8.696   0.955  0.1221 -0.0517  0.3064
 4682PP      PP14786   0.644  10.491   3.047  0.0843  0.1059 -0.0999
 4683PP      PP14787   8.455   9.198   2.892  0.1670 -0.1330  0.3963
 4684PP      PP14788  15.029  13.824   1.781 -0.0027 -0.3901 -0.1431
 4685PP      PP14789  14.788   2.758   1.921  0.3052  0.3235  0.0747
 4686PP      PP14790   7.080   9.983   2.521  0.0517  0.1593  0.2742
 4687PP      PP14791  15.592  15.145   0.785 -0.0500  0.2435  0.1657
 4688PP      PP14792  15.287  15.194  11.705 -0.1570 -0.0461  0.0060
 4689PP      PP14793   5.454  12.673  12.289  0.1088  0.4133 -0.0400
 4690PP      PP14794  15.689  15.715   0.645  0.1212  0.1833  0.2265
 4691PP      PP14795   9.348   3.492   8.781 -0.2233  0.2886  0.0942
 4692PP      PP14796  11.562  11.082   2.213 -0.4760 -0.1601  0.4021
 4693PP      PP14797  15.038  14.429   0.658  0.2471  0.0842  0.2049
 4694PP      PP14798  10.139   2.151   3.491 -0.2248  0.0675  0.0668
 4695PP      PP14799  12.759   1.951  10.387 -0.1465  0.3428 -0.0340
 4696PP      PP14800   0.082   4.632   3.827  0.1341  0.0948  0.0582
 4697PP      PP14801  10.722  10.207   9.511 -0.3594 -0.2120 -0.3216
 4698PP      PP14802   5.416   0.666   8.141  0.0298  0.2082 -0.2818
 4699PP      PP14803   9.175  15.609  13.185 -0.3038 -0.0034  0.1899
 4700PP      PP14804   0.179  10.448  12.589 -0.1462 -0.1605 -0.1279
 4701PP      PP14805   0.687   3.246   1.811  0.1768 -0.1064  0.1161
 4702PP      PP14806   4.621   2.211   8.650 -0.2094 -0.0714 -0.1038
 4703PP      PP14807  10.563   2.352   3.260  0.1851 -0.1210  0.0417
 4704PP      PP14808   7.941  12.454   0.502 -0.1710 -0.1960  0.1080
 4705PP      PP14809  11.852  10.759  12.737 -0.1971  0.1142  0.0459
 4706PP      PP14810   2.787   9.096  10.065  0.0209 -0.0996  0.2284
 4707PP      PP14811   8.774   7.872   2.384  0.0187 -0.0465  0.0586
 4708PP      PP14812   7.220  10.370   3.086 -0.1042  0.3020 -0.1281
 4709PP      PP14813   5.953  11.418   2.556  0.0702  0.0077  0.4725
 4710PP      PP14814  11.539   5.626   2.601  0.0929 -0.2892  0.0912
 4711PP      PP14815  15.572   7.243  13.209  0.3532  0.0013 -0.1580
 4712PP      PP14816   6.899  15.533  10.618  0.0819  0.1351  0.0214
 4713PP      PP14817   9.513  14.928  11.505 -0.1590  0.2397  0.1350
 4714PP      PP14818   1.968   6.955   3.989 -0.0268 -0.3681 -0.1540
 4715PP      PP14819   9.825  11.993  12.250  0.1695 -0.0489  0.0628
 4716PP      PP14820  15.072  12.660  11.828 -0.0297 -0.0573 -0.1329
 4717PP      PP14821   9.494   8.464   0.912  0.1199 -0.2433 -0.0499
 4718PP      PP14822   5.312   7.389   0.410  0.0430 -0.2273  0.0732
 4719PP      PP14823  12.185   9.887  11.833  0.0598  0.0615 -0.3172
 4720PP      PP14824  11.628   6.432  12.361 -0.0633  0.0059 -0.0500
 4721PP      PP14825   0.580   7.772   2.064  0.0377  0.2162  0.1777
 4722PP      PP14826  14.270   6.571   0.201  0.1743  0.0067 -0.0649
 4723PP      PP14827   9.077   4.395   1.929 -0.4087  0.2207 -0.0668
 4724PP      PP14828   9.327  11.986   0.274 -0.4487 -0.2724 -0.1486
 4725PP      PP14829   3.648   4.835  12.038  0.1396 -0.1196 -0.0174
 4726PP      PP14830   8.709  15.137   3.835 -0.2402  0.0144 -0.1187
 4727PP      PP14831   0.617  12.586   0.499  0.0328  0.0519  0.0771
 4728PP      PP14832   7.308  11.972  13.362 -0.2176  0.1599 -0.4288
 4729PP      PP14833   4.601   6.122   1.128 -0.0740 -0.1906  0.2991
 4730PP      PP14834   1.043   9.166   5.608  0.1151 -0.1410 -0.1586
 4731PP      PP14835   0.603  12.649  12.421 -0.2396  0.2448  0.0816
 4732PP      PP14836  11.012   7.304   3.206 -0.1494  0.1457  0.0519
 4733PP      PP14837   6.370  15.427   0.566  0.1279 -0.3336  0.4102
 4734PP      PP14838  12.263  15.268   8.971 -0.0177  0.2269 -0.2098
 4735PP      PP14839  14.243   6.523   3.377  0.0242  0.1330 -0.0952
 4736PP      PP14840  12.861   3.151  13.232  0.0650  0.0769 -0.0311
 4737PP      PP14841   5.425  10.953  13.396 -0.2693 -0.0473  0.0299
 4738PP      PP14842   9.648   8.241  10.644  0.1547  0.0123  0.2491
 4739PP      PP14843   6.494   9.246  10.497  0.0074  0.0197  0.1183
 4740PP      PP14844   0.385   2.321  12.670  0.0232 -0.0262  0.0961
 4741PP      PP14845   9.816   9.391   3.065  0.0032  0.0317 -0.0235
 4742PP      PP14846  14.467   8.619   4.241  0.2637  0.3351 -0.2365
 4743PP      PP14847  15.251   9.846   9.918  0.0225  0.1552  0.0146
 4744PP      PP14848   3.206  10.532  11.733 -0.1515  0.2129 -0.0183
 4745PP      PP14849   8.282   1.735   1.769  0.0089  0.1451 -0.1104
 4746PP      PP14850   2.689   3.491   1.335 -0.1259  0.3172  0.2075
 4747PP      PP14851   4.577   7.769   4.459  0.0062 -0.1385 -0.2347
 4748PP      PP14852   4.860  14.293  12.255 -0.0725 -0.0184 -0.0581
 4749PP      PP14853  15.464  14.320   0.993  0.5083 -0.0691  0.0744
 4750PP      PP14854   3.055   2.587   0.256 -0.2796  0.0780 -0.3841
 4751PP      PP14855  10.985   4.133   1.261  0.1460 -0.0747  0.0018
 4752PP      PP14856   3.637   2.935  12.659  0.1386 -0.0234  0.2255
 4753PP      PP14857   1.231  15.404  13.254 -0.0865  0.4030  0.1786
 4754PP      PP14858  12.009   7.625  12.637  0.1091  0.1342  0.2850
 4755PP      PP14859  13.756   7.605   4.882 -0.0021  0.1356  0.0601
 4756PP      PP14860  15.751   6.827  11.744  0.0840 -0.0194 -0.1569
 4757PP      PP14861   4.059  10.338  12.599 -0.1886  0.1677  0.1121
 4758PP      PP14862  10.430   2.944   0.301 -0.2151  0.1154 -0.0774
 4759PP      PP14863  15.049  14.259  10.495  0.1489  0.1856 -0.1857
 4760PP      PP14864   7.978   0.987   0.553  0.1024  0.2884 -0.0080
 4761PP      PP14865  10.481   1.944   8.781 -0.0025 -0.1093  0.0866
 4762PP      PP14866  13.234  12.847   3.365  0.0438 -0.0158  0.3334
 4763PP      PP14867  13.880  10.853   1.753  0.1669 -0.2630 -0.0529
 4764PP      PP14868  14.033  11.806  11.947 -0.0985 -0.1326 -0.1049
 4765PP      PP14869   4.200  15.300  10.347  0.2344 -0.2173  0.0172
 4766PP      PP14870  11.955  10.685   1.551 -0.4089 -0.0146  0.1479
 4767PP      PP14871   2.687   9.540   2.238 -0.0577  0.4835  0.0372
 4768PP      PP14872  10.939   9.893  12.590  0.0836 -0.1896  0.0290
 4769PP      PP14873   6.701  14.937  11.251  0.2971 -0.0075 -0.0643
 4770PP      PP14874   1.006  14.154  13.519 -0.1460 -0.0818  0.2919
 4771PP      PP14875   1.100  14.027   4.376 -0.0686  0.1728  0.0091
 4772PP      PP14876  11.072  10.352  12.722 -0.0379 -0.0261  0.2424
 4773PP      PP14877  10.159  12.482   3.749 -0.1432  0.2286 -0.1692
 4774PP      PP14878  13.896   2.749   1.425  0.2451  0.1599 -0.0936
 4775PP      PP14879  13.116   9.294   2.018  0.2577 -0.0079  0.1958
 4776PP      PP14880   8.689  14.252   9.689  0.0351 -0.0888  0.0130
 4777PP      PP14881   6.198  15.485  10.540  0.3129 -0.0337 -0.0224
 4778PP      PP14882   9.549  12.229   1.921 -0.2612  0.0354  0.1411
 4779PP      PP14883   6.362  14.067   2.586 -0.0126 -0.1163  0.0158
 4780PP      PP14884  12.764  14.716   9.394 -0.1545 -0.1796  0.2081
 4781PP      PP14885   9.300  11.270  12.242  0.2096 -0.4403 -0.2724
 4782PP      PP14886   1.900   1.522  11.543 -0.2457 -0.1066  0.0403
 4783PP      PP14887  15.217   5.272   9.770 -0.0884 -0.1472  0.3193
 4784PP      PP14888   3.383  12.478   2.347  0.0239 -0.1847  0.3772
 4785PP      PP14889  14.870   1.016   1.068 -0.1684  0.3869  0.1614
 4786PP      PP14890   5.388   0.683   9.748  0.0500 -0.0449 -0.0333
 4787PP      PP14891   3.613  12.745  12.866  0.1417 -0.2064 -0.0498
 4788PP      PP14892   5.999   2.063   8.471  0.2188 -0.2192 -0.3011
 4789PP      PP14893   0.194   5.001  10.681 -0.1909  0.0031  0.3039
 4790PP      PP14894  12.756   5.849  10.517 -0.3620 -0.0288 -0.0263
 4791PP      PP14895   5.678  13.935   8.270  0.0096  0.0789 -0.0512
 4792PP      PP14896   0.633  12.271  10.554 -0.3043  0.0658  0.2196
 4793PP      PP14897   5.927   6.057  13.112 -0.1267 -0.0716 -0.3560
 4794PP      PP14898  13.471   8.259   0.832 -0.1106 -0.0258  0.1511
 4795PP      PP14899  10.880   5.778   1.090  0.0692  0.3128 -0.3712
 4796PP      PP14900   0.841   7.803   0.377  0.1445  0.1874 -0.1079
 4797PP      PP14901  14.671   7.935  11.316 -0.0634 -0.0238  0.2128
 4798PP      PP14902   8.454   8.221  12.493  0.1413 -0.1916  0.3951
 4799PP      PP14903  13.657   0.195   2.997  0.1931  0.0686  0.3157
 4800PP      PP14904   6.661  12.721   9.446 -0.0013 -0.0496 -0.1248
 4801PP      PP14905   1.355  10.528   1.639 -0.2145 -0.2664 -0.4118
 4802PP      PP14906  10.940  11.425   2.729 -0.1705 -0.0752 -0.0347
 4803PP      PP14907   5.351  15.734  10.802 -0.1578  0.1333  0.0480
 4804PP      PP14908  13.556   3.703  11.648  0.0916 -0.1460 -0.2086
 4805PP      PP14909   7.062   4.796  13.192  0.0866 -0.3250 -0.1578
 4806PP      PP14910   4.741   2.190   2.919  0.0129  0.0480 -0.0238
 4807PP      PP14911   9.268  10.731   9.681 -0.0861 -0.0910 -0.0447
 4808PP      PP14912  14.672   5.164   4.078  0.1431 -0.0089  0.1149
 4809PP      PP14913   0.334   1.092  11.979  0.1080  0.1661  0.1387
 4810PP      PP14914  15.577   1.643   8.070 -0.1580  0.0349 -0.1537
 4811PP      PP14915   6.525   7.672  11.285  0.0307  0.0004  0.0801
 4812PP      PP14916   6.816   6.483   3.845  0.3765 -0.0365  0.0957
 4813PP      PP14917   4.545  11.813   1.437  0.0656 -0.1967  0.0280
 4814PP      PP14918   4.243   8.192   4.553  0.1774  0.3337 -0.0136
 4815PP      PP14919   7.919   4.127  10.766  0.2011  0.0915 -0.0162
 4816PP      PP14920  12.096   8.952  13.316  0.3392 -0.0671  0.0615
 4817PP      PP14921   8.282  10.355  13.367  0.2648  0.1720  0.0757
 4818PP      PP14922   0.760   4.502   1.067 -0.2362  0.0862  0.1776
 4819PP      PP14923   3.522   1.754   3.385 -0.1374 -0.0117  0.3036
 4820PP      PP14924   2.751   1.605  12.580 -0.1883 -0.1305 -0.0312
 4821PP      PP14925   6.535   8.040   1.364  0.1613  0.0726 -0.0125
 4822PP      PP14926   6.716   2.696  11.802 -0.3479  0.1545 -0.0316
 4823PP      PP14927   4.397  14.173   9.569  0.1248 -0.0088  0.0322
 4824PP      PP14928  14.215   4.461   4.583 -0.1043  0.1452  0.1506
 4825PP      PP14929  11.902   8.344   3.781 -0.3640  0.1352 -0.0563
 4826PP      PP14930  14.986  13.450  11.412 -0.0325  0.2433  0.0748
 4827PP      PP14931  14.671   3.063   9.730 -0.0795 -0.0404 -0.1165
 4828PP      PP14932   9.232   1.366   0.904  0.3101  0.1407 -0.1645
 4829PP      PP14933  11.205  14.454   0.560  0.2767  0.1354  0.1108
 4830PP      PP14934  12.997   6.609   2.248  0.1499 -0.2222 -0.1590
 4831PP      PP14935  10.950   2.088   0.927  0.2810 -0.1189 -0.4774
 4832PP      PP14936   2.473   6.709   3.221 -0.0222  0.1652  0.2266
 4833PP      PP14937  12.245  13.538  10.162 -0.1092 -0.0972  0.0331
 4834PP      PP14938   1.311   8.758  11.902  0.3454  0.0260 -0.3005
 4835PP      PP14939  13.253  10.636   4.612  0.4015  0.3059 -0.0913
 4836PP      PP14940   6.590   6.654  12.757  0.1965 -0.1139  0.3104
 4837PP      PP14941  10.051  11.544  12.679 -0.0217 -0.3426 -0.0603
 4838PP      PP14942   8.576   0.852  12.824  0.2612 -0.2374 -0.1445
 4839PP      PP14943   0.500   5.203   2.071  0.0632 -0.1394  0.0511
 4840PP      PP14944  12.635   0.212   1.926 -0.2605  0.1264 -0.2006
 4841PP      PP14945   4.584   4.049   2.653  0.0223 -0.0103  0.0705
 4842PP      PP14946  13.383   7.181  10.787 -0.0672 -0.0857  0.2096
 4843PP      PP14947  13.124   5.324   0.594  0.0921  0.2000  0.1556
 4844PP      PP14948   8.726   1.749   1.914 -0.3263  0.0840 -0.1652
 4845PP      PP14949  11.108   2.474   0.762  0.2882 -0.0861  0.3539
 4846PP      PP14950   1.132   9.064   1.420  0.0417 -0.0996  0.3641
 4847PP      PP14951  14.068  15.699   2.966  0.1085 -0.3396  0.0842
 4848PP      PP14952   4.931  14.444   0.201 -0.1014  0.0464  0.1109
 4849PP      PP14953   0.361   1.931  13.027  0.1156  0.1496 -0.2441
 4850PP      PP14954   6.020  14.691   2.912 -0.2566  0.0555  0.1832
 4851PP      PP14955  12.278   4.579  11.290 -0.0827  0.0716 -0.0025
 4852PP      PP14956   6.715   7.241  12.831  0.1010  0.4410  0.0374
 4853PP      PP14957   6.563   0.537  11.090 -0.0566 -0.1459  0.1204
 4854PP      PP14958   7.429   2.691   8.324 -0.3053 -0.1295  0.0946
 4855PP      PP14959   0.743  10.474   1.215 -0.1055  0.1157 -0.1800
 4856PP      PP14960   9.963  13.570   3.297  0.1566  0.4831 -0.0436
 4857PP      PP14961   7.623  10.439   1.606 -0.1302  0.0267  0.1767
 4858PP      PP14962   9.433  11.310  10.153  0.0094  0.0629  0.3708
 4859PP      PP14963   1.303   4.256   3.720 -0.0490  0.0790  0.3789
 4860PP      PP14964   6.027   0.173   0.191  0.0771  0.2350 -0.1071
 4861PP      PP14965  12.320   0.172   0.555 -0.2933  0.3937  0.0344
 4862PP      PP14966   0.115   6.800   2.612  0.2243 -0.1013 -0.0880
 4863PP      PP14967   0.382  11.363   0.197  0.1359 -0.3839  0.3199
 4864PP      PP14968   6.612  13.001  12.164  0.2463  0.1834  0.1228
 4865PP      PP14969  10.564   9.930   3.153 -0.0033  0.3447 -0.0718
 4866PP      PP14970   6.553   8.747  10.335  0.1357  0.0551  0.0409
 4867PP      PP14971  10.403  11.357   3.952  0.0149  0.0291 -0.2247
 4868PP      PP14972  14.217   1.449  10.391 -0.0814  0.3201  0.3630
 4869PP      PP14973  14.734   5.674  11.832  0.0117  0.0807  0.4617
 4870PP      PP14974   1.066   3.564   9.053  0.1287 -0.0754 -0.2340
 4871PP      PP14975  15.375  12.467   9.495 -0.1567 -0.4275  0.1882
 4872PP      PP14976   4.199   4.900  10.483 -0.1700 -0.0507 -0.0782
 4873PP      PP14977   2.640   5.995   1.804  0.2047 -0.0373 -0.1730
 4874PP      PP14978  10.265   5.184  13.501  0.4544  0.5248 -0.2374
 4875PP      PP14979   9.138   1.452   1.822  0.0378 -0.2426  0.3684
 4876PP      PP14980   2.483   5.538  11.221 -0.1066 -0.0796 -0.0701
 4877PP      PP14981  11.520   3.901   0.494 -0.4851  0.1740  0.0866
 4878PP      PP14982  14.162   8.037  11.696  0.0412  0.1266 -0.0972
 4879PP      PP14983   3.332  12.343  13.479  0.2558 -0.1899 -0.1575
 4880PP      PP14984  14.019  13.221   2.170  0.1521 -0.3480  0.0012
 4881PP      PP14985  10.084   8.294  12.233 -0.1316 -0.2055  0.0441
 4882PP      PP14986   1.527   7.810   4.020 -0.1285 -0.1363  0.0944
 4883PP      PP14987  12.326   8.257   1.041  0.1155 -0.1539  0.1541
 4884PP      PP14988   1.468  15.555  11.687 -0.2068  0.1399 -0.0855
 4885PP      PP14989   5.638  15.182  10.100  0.1976  0.2848 -0.2311
 4886PP      PP14990  13.856  11.765   9.550 -0.1699  0.0548 -0.0208
 4887PP      PP14991   5.338   8.475  10.132 -0.3764 -0.0914  0.1164
 4888PP      PP14992   5.794  11.354   1.002 -0.3765  0.1820 -0.0403
 4889PP      PP14993   7.510   2.920   8.886 -0.1408  0.1354  0.1796
 4890PP      PP14994  10.710   7.591   9.050 -0.0856  0.1103  0.2562
 4891PP      PP14995  13.504  12.708   1.349  0.2318  0.2572 -0.1618
 4892PP      PP14996  12.097   6.932  11.308 -0.1713  0.1467  0.0517
 4893PP      PP14997  12.172  15.007  12.024  0.0594  0.0379  0.2090
 4894PP      PP14998  13.639  12.976   0.942 -0.1725 -0.1427 -0.1488
 4895PP      PP14999  11.065  11.787  12.724  0.0024 -0.2240 -0.1781
 4896PP      PP15000   9.147   1.563  11.596 -0.0139  0.2234  0.3946
 4897PP      PP15001  10.616   2.326   8.545  0.1283 -0.0744  0.1716
 4898PP      PP15002   4.996   6.518  10.931  0.2757 -0.1537  0.0918
 4899PP      PP15003  15.042  14.889   4.282 -0.3320 -0.0645  0.3607
 4900PP      PP15004  11.654   5.211   4.649 -0.1280  0.0757 -0.2438
 4901PP      PP15005   5.368  11.203   0.380 -0.3011  0.0760  0.0469
 4902PP      PP15006   1.949   1.021   1.593 -0.1921 -0.1104  0.1391
 4903PP      PP15007   2.715  15.600  11.568  0.0099  0.0516 -0.1569
 4904PP      PP15008  11.761   6.123   9.520 -0.2436 -0.1999  0.1420
 4905PP      PP15009  13.609  12.354  10.322  0.2309 -0.3043  0.0738
 4906PP      PP15010   8.587  13.617  12.812 -0.0653  0.0314  0.3594
 4907PP      PP15011  13.728  14.514   0.457  0.0151  0.0604  0.1468
 4908PP      PP15012  14.950   5.132   1.198 -0.3549  0.0895 -0.1778
 4909PP      PP15013   7.594   5.157   1.943 -0.1679 -0.1540  0.0812
 4910PP      PP15014  12.848   5.892   0.117 -0.0227 -0.0011  0.1680
 4911PP      PP15015   9.443  15.487   0.042 -0.1141  0.1311 -0.3725
 4912PP      PP15016   6.516   8.352   9.958  0.0539 -0.2506 -0.1838
 4913PP      PP15017   8.168   1.179  12.251  0.1597 -0.0704 -0.1348
 4914PP      PP15018  10.956   0.858  11.864 -0.1227 -0.0059 -0.0191
 4915PP      PP15019   3.569   6.800   9.470 -0.2636 -0.4793 -0.3294
 4916PP      PP15020   1.603   1.190  13.125 -0.1310 -0.1483  0.0429
 4917PP      PP15021   5.280  10.609  10.403 -0.1669 -0.2046 -0.3934
 4918PP      PP15022   9.091   6.951  10.167  0.1405  0.1342 -0.3019
 4919PP      PP15023   2.784  14.455  11.213 -0.2288 -0.0575  0.4137
 4920PP      PP15024   0.530   9.144   0.719 -0.2222  0.2007 -0.0880
 4921PP      PP15025  11.015   2.415  12.113 -0.0619  0.2238 -0.1189
 4922PP      PP15026   8.991   5.403   9.438 -0.1741  0.2216  0.1210
 4923PP      PP15027   5.832  10.679  13.246  0.1911  0.1773  0.0653
 4924PP      PP15028  11.557   9.714   4.116  0.0091 -0.0761  0.2772
 4925PP      PP15029  11.411  11.195   4.483  0.0329 -0.0566  0.0340
 4926PP      PP15030  14.753   3.687  13.525  0.1829  0.5060  0.0075
 4927PP      PP15031   8.809   9.885   4.537 -0.1498  0.3379 -0.1663
 4928PP      PP15032   4.278   9.316   0.232  0.1626  0.1693  0.0428
 4929PP      PP15033  15.330   4.488   9.619  0.1983  0.0212 -0.1348
 4930PP      PP15034   6.367   8.735   4.191 -0.0837  0.0330  0.1854
 4931PP      PP15035  13.215   5.776  13.272  0.0157  0.1424  0.0781
 4932PP      PP15036  15.756   1.016   3.204  0.1593 -0.0346 -0.0210
 4933PP      PP15037   5.069  14.116   2.819 -0.2799 -0.1777 -0.0363
 4934PP      PP15038   7.895   9.132   4.217  0.2847 -0.2231  0.0201
 4935PP      PP15039   3.838   5.741  10.878 -0.0124  0.0618 -0.1050
 4936PP      PP15040   1.226  11.248   0.282 -0.0826 -0.3672  0.1265
 4937PP      PP15041   9.871  10.470   5.338  0.0691 -0.0414  0.0238
 4938PP      PP15042   4.939  12.478  12.125 -0.0820 -0.0476 -0.2781
 4939PP      PP15043   4.784  11.720  11.158  0.1206 -0.0094 -0.0703
 4940PP      PP15044  10.759  12.054   0.509 -0.1101  0.0188 -0.0591
 4941PP      PP15045   9.054   8.626   3.427  0.1331 -0.0770 -0.3686
 4942PP      PP15046  11.598   2.970  13.447  0.3435 -0.0556  0.2832
 4943PP      PP15047   2.157   7.779   1.039  0.2636 -0.1824 -0.0468
 4944PP      PP15048  12.781  10.619  12.054 -0.1269  0.1782  0.0337
 4945PP      PP15049   3.286   2.980   9.576  0.1826 -0.1491  0.0107
 4946PP      PP15050  13.260   5.863   9.995  0.0593 -0.1166 -0.0774
 4947PP      PP15051   0.592  11.333  10.266  0.5526 -0.3132 -0.0694
 4948PP      PP15052   5.583   6.536   0.412  0.1601 -0.0491  0.4218
 4949PP      PP15053  14.677  12.975  13.385 -0.2324  0.1757  0.1279
 4950PP      PP15054   6.221   5.009   0.941 -0.2735  0.1483 -0.0709
 4951PP      PP15055  15.209   6.492   0.931 -0.3933  0.4444 -0.2349
 4952PP      PP15056  10.196   6.238   1.277 -0.0009  0.0221  0.1411
 4953PP      PP15057  13.561   9.703   2.088  0.2599  0.1666 -0.2585
 4954PP      PP15058  11.050   8.942   5.104 -0.1525 -0.1754 -0.0985
 4955PP      PP15059  12.224   9.225  10.296  0.0729 -0.1892  0.0356
 4956PP      PP15060   7.780  15.081  12.311 -0.0488 -0.1498  0.1356
 4957PP      PP15061   0.905  12.158   0.669 -0.1755  0.3005  0.1816
 4958PP      PP15062   9.065  11.963   3.531  0.1036 -0.1885  0.2894
 4959PP      PP15063   7.324   7.830   1.235 -0.0227 -0.1206  0.2649
 4960PP      PP15064  14.699   7.812   0.079 -0.0128  0.1246 -0.2953
 4961PP      PP15065  14.538  11.962   4.141  0.1017  0.2017  0.0902
 4962PP      PP15066  11.902   1.682   3.243  0.0770 -0.3194 -0.1083
 4963PP      PP15067  14.064   8.154   1.874  0.1486 -0.1795 -0.1557
 4964PP      PP15068   9.326  10.357  10.035  0.0536  0.2646  0.2455
 4965PP      PP15069  13.827   3.521  11.257 -0.2701 -0.0574  0.2924
 4966PP      PP15070  13.175   4.637   2.868  0.1278  0.3485 -0.1153
 4967PP      PP15071   8.165   1.682  13.389  0.4635  0.0380 -0.0343
 4968PP      PP15072  10.287  11.477   1.155  0.3797 -0.0875  0.1115
 4969PP      PP15073  12.391   7.248   3.308 -0.0077  0.2395  0.2237
 4970PP      PP15074  13.171   8.873   9.975  0.0137  0.4266 -0.0249
 4971PP      PP15075   2.813   3.875   2.024 -0.2881  0.1668 -0.2253
 4972PP      PP15076  13.846   1.207  10.099  0.4278 -0.1202 -0.2444
 4973PP      PP15077   4.763   6.083  11.076  0.0101 -0.2945  0.1718
 4974PP      PP15078   6.261   0.657   0.566 -0.3147  0.0889 -0.0669
 4975PP      PP15079  14.337   5.269   9.780  0.2460 -0.0010 -0.1087
 4976PP      PP15080   8.229   9.426  12.802 -0.2526 -0.0015 -0.0268
 4977PP      PP15081   4.001   4.728   9.891 -0.0529 -0.0617 -0.0709
 4978PP      PP15082   3.142   3.249  11.327 -0.2617 -0.0229  0.0946
 4979PP      PP15083   2.658   6.439   2.002 -0.1599  0.0100 -0.2870
 4980PP      PP15084   3.231  15.003  13.400 -0.0593 -0.3762  0.1054
 4981PP      PP15085  13.912   5.836  11.410 -0.0459  0.2487 -0.1679
 4982PP      PP15086  10.068  10.614   4.204 -0.1497 -0.3437  0.0067
 4983PP      PP15087  14.795  13.503   3.061 -0.1587 -0.1319 -0.1967
 4984PP      PP15088   2.160   8.927  11.715  0.1807 -0.1885  0.0528
 4985PP      PP15089  14.876  11.445  11.871 -0.1496  0.0652  0.0745
 4986PP      PP15090   3.754   7.990   1.886  0.1389 -0.1834  0.0806
 4987PP      PP15091   3.913  10.193  13.311  0.0428  0.1162 -0.1409
 4988PP      PP15092   6.067  15.638  11.007 -0.0313  0.1346  0.2135
 4989PP      PP15093   9.709   4.646  13.032  0.2457 -0.0273  0.1703
 4990PP      PP15094  11.109   1.829  10.791 -0.3675  0.1598 -0.1476
 4991PP      PP15095  11.055   1.723   9.580 -0.0470 -0.1177 -0.1663
 4992PP      PP15096   7.658   1.609   8.059 -0.4075  0.1622  0.1161
 4993PP      PP15097  14.585   9.388  11.671  0.1171 -0.1459  0.1329
 4994PP      PP15098  11.843  15.826  11.960 -0.0734  0.1174  0.2314
 4995PP      PP15099   1.901   2.278   3.395  0.0881 -0.0455 -0.2830
 4996PP      PP15100   7.289  10.843   1.617  0.0053 -0.2257 -0.0322
 4997PP      PP15101   6.030   8.493   3.847 -0.0820  0.0290 -0.1153
 4998PP      PP15102   4.798   8.834   2.906  0.1702  0.0294 -0.0365
 4999PP      PP15103   8.140   4.885   8.981 -0.1424 -0.1697  0.1538
 5000PP      PP15104   6.230  12.871   0.148  0.1803  0.0839  0.4414
 5001PP      PP15105   3.815   2.331   0.369  0.0080 -0.3594  0.0598
 5002PP      PP15106  15.580   6.911   0.174  0.1045  0.3805  0.4269
 5003PP      PP15107  14.418  10.955   1.089  0.0945  0.1446  0.0530
 5004PP      PP15108  13.391   3.658   1.324 -0.0619  0.0086 -0.0666
 5005PP      PP15109   0.586   2.740   2.047  0.0640  0.3533  0.0873
 5006PP      PP15110  14.323  12.366   0.163 -0.1735 -0.0682 -0.0446
 5007PP      PP15111   1.577   4.025  13.352 -0.0361 -0.0413  0.2485
 5008PP      PP15112   7.746  15.799   3.014  0.2871  0.0776 -0.1287
 5009PP      PP15113   2.388   0.420  10.503  0.1341 -0.0675  0.1295
 5010PP      PP15114  11.485  12.807   3.392  0.0069 -0.0153 -0.0091
 5011PP      PP15115   7.117   5.244   1.852  0.0701  0.0595  0.3101
 5012PP      PP15116   4.796   7.043   3.984  0.2170 -0.0606  0.1071
 5013PP      PP15117   7.865   3.532   8.197 -0.0799  0.1166 -0.1186
 5014PP      PP15118  14.776   3.715   9.157  0.0900 -0.1337 -0.3423
 5015PP      PP15119   7.946   4.085  12.668 -0.0670 -0.1749 -0.2790
 5016PP      PP15120   8.184  14.572   0.444 -0.2083  0.0987  0.3149
 5017PP      PP15121  11.789  10.709  13.253  0.1083  0.2841 -0.0341
 5018PP      PP15122   7.138   4.004   0.587  0.0081  0.2100  0.0014
 5019PP      PP15123   5.491   6.081  10.006 -0.0021  0.4244 -0.0680
 5020PP      PP15124  13.142  13.620   9.272 -0.0647  0.0283 -0.2122
 5021PP      PP15125  15.302  13.135  11.637 -0.0347  0.0066 -0.2406
 5022PP      PP15126  11.001   1.641   0.285  0.0603  0.0954  0.1436
 5023PP      PP15127  12.674  13.845  13.288 -0.0749  0.1502  0.0533
 5024PP      PP15128   0.696  11.035   1.858 -0.3135  0.0738  0.1664
 5025PP      PP15129   9.231  12.811   2.620 -0.0097 -0.1166  0.0575
 5026PP      PP15130   9.259   7.479  13.088  0.1870 -0.0654 -0.2960
 5027PP      PP15131   2.286  13.775  12.659 -0.1664 -0.1033  0.2468
 5028PP      PP15132   9.588   2.463   1.244 -0.2173 -0.2461  0.1935
 5029PP      PP15133   1.109   5.810   2.761 -0.0555  0.3424  0.1648
 5030PP      PP15134   6.103   1.187  13.188 -0.3566 -0.0202  0.2149
 5031PP      PP15135   3.512   0.142  11.432 -0.2151 -0.1634  0.2290
 5032PP      PP15136  14.988   2.998  10.639 -0.1459 -0.0464 -0.2048
 5033PP      PP15137  11.355   9.028   3.501  0.0670 -0.1360 -0.0581
 5034PP      PP15138   0.112   0.452   1.992  0.1245  0.1522  0.2040
 5035PP      PP15139  13.996   5.125  11.402  0.1230 -0.1747  0.2152
 5036PP      PP15140  12.188   4.646   9.419 -0.0564 -0.0113 -0.2518
 5037PP      PP15141  11.817   2.966   1.929 -0.0708 -0.0028  0.2219
 5038PP      PP15142  13.546   6.929   2.939  0.1862  0.3139 -0.1188
 5039PP      PP15143  14.679   0.214   1.503  0.1616  0.1242  0.1356
 5040PP      PP15144   9.216  10.267  11.351  0.0766  0.1129 -0.0008
 5041PP      PP15145  13.638   3.739   0.893  0.1626 -0.0786 -0.0591
 5042PP      PP15146   4.109   3.245  11.399  0.1058  0.0841 -0.0639
 5043PP      PP15147   4.960   4.084  10.649  0.0679 -0.1029 -0.1078
 5044PP      PP15148   8.397   3.753  12.609 -0.0843  0.2998 -0.1583
 5045PP      PP15149   2.144   7.378   4.343  0.1515  0.2043 -0.1465
 5046PP      PP15150   3.811   6.632   1.120 -0.3750  0.1997 -0.1391
 5047PP      PP15151   5.045   6.770   3.295 -0.2858  0.0085  0.1481
 5048PP      PP15152   5.123   4.126   3.549 -0.1199 -0.0540  0.1395
 5049PP      PP15153   8.513   0.347   9.276 -0.2236  0.1030  0.1027
 5050PP      PP15154  15.655   6.918  12.271  0.2520  0.3589  0.2079
 5051PP      PP15155  14.020  10.952  11.394 -0.2545  0.2188  0.0411
 5052PP      PP15156  12.589   0.746  12.917 -0.0070  0.1963  0.1609
 5053PP      PP15157   9.627   9.880   3.672  0.0840  0.0476 -0.2810
 5054PP      PP15158  14.247   6.128  12.288  0.0459 -0.1642  0.0964
 5055PP      PP15159   5.017  11.907   3.593 -0.0745  0.2271 -0.0708
 5056PP      PP15160   5.721   7.984  12.594  0.3143  0.1109 -0.1476
 5057PP      PP15161   6.915  14.823   0.226  0.0945  0.0855 -0.0021
 5058PP      PP15162  15.052   8.184   1.821  0.2644  0.2007  0.0110
 5059PP      PP15163  11.685   6.650   1.699 -0.0397 -0.1009 -0.0500
 5060PP      PP15164   2.800   7.682  12.710 -0.1675 -0.2015 -0.3751
 5061PP      PP15165   1.875  12.190  13.028  0.1090 -0.0358  0.0066
 5062PP      PP15166   0.777   3.912   3.828 -0.4348  0.0563 -0.3492
 5063PP      PP15167   7.445   9.515   2.185  0.0746  0.2208  0.2730
 5064PP      PP15168   8.448   8.903   3.300  0.0017  0.1102 -0.0945
 5065PP      PP15169  15.077   1.322   2.371  0.2213 -0.0133  0.1940
 5066PP      PP15170   8.784   9.402   1.541 -0.1490 -0.1551  0.1081
 5067PP      PP15171   8.378  12.494   1.260  0.0965 -0.4925  0.0012
 5068PP      PP15172   8.819   9.357   3.418 -0.1149 -0.1393 -0.1907
 5069PP      PP15173   6.192  10.008  10.820 -0.2031 -0.0557 -0.1867
 5070PP      PP15174   7.685   9.622   3.947  0.1074  0.1878 -0.0103
 5071PP      PP15175  15.572   1.565   0.007 -0.1360  0.1155 -0.0870
 5072PP      PP15176   3.370  15.552   0.720  0.1843  0.2169  0.0652
 5073PP      PP15177   2.605  11.357  10.873 -0.0772  0.3376 -0.2181
 5074PP      PP15178   2.815   7.158  11.640 -0.0083 -0.2061  0.1459
 5075PP      PP15179  10.865   8.152   1.377 -0.3738  0.2681 -0.1568
 5076PP      PP15180   9.814   3.941   8.683 -0.2891 -0.0676  0.2139
 5077PP      PP15181  12.936  12.144  12.230 -0.3347 -0.0370  0.1446
 5078PP      PP15182   1.056   9.343  12.281 -0.1720 -0.0407 -0.0663
 5079PP      PP15183   2.528  14.474  10.323 -0.1300  0.1546  0.2486
 5080PP      PP15184  14.249   7.864   0.366  0.0549  0.2780 -0.0830
 5081PP      PP15185  10.435  11.674  11.704 -0.0209 -0.2183  0.0820
 5082PP      PP15186  13.625   9.050  12.877 -0.0474  0.0110 -0.0936
 5083PP      PP15187  10.374   0.173   0.286 -0.0323  0.0220 -0.1603
 5084PP      PP15188   4.792   7.070  10.846  0.1764 -0.1705 -0.1439
 5085PP      PP15189   7.891  10.715   4.371 -0.3485  0.3277 -0.0500
 5086PP      PP15190   3.793   9.204   0.339 -0.1509  0.0015 -0.2731
 5087PP      PP15191   1.706  10.072  10.540  0.1059 -0.0265 -0.1479
 5088PP      PP15192   7.832  15.600  13.392 -0.0043 -0.1733  0.1933
 5089PP      PP15193  14.682   9.787  13.104  0.2828 -0.4283 -0.0298
 5090PP      PP15194   7.995   3.182  11.638  0.2594 -0.1098 -0.0428
 5091PP      PP15195   0.158  15.397   0.942  0.2958  0.0833 -0.3904
 5092PP      PP15196  11.836   0.519   1.062  0.1751 -0.2390 -0.3156
 5093PP      PP15197   6.316   3.755  10.292  0.1899 -0.0299 -0.1422
 5094PP      PP15198  14.227   0.804   0.969  0.4443 -0.0400 -0.0235
 5095PP      PP15199   3.222  14.655   0.255  0.0969 -0.2668  0.1608
 5096PP      PP15200   4.305   6.689  13.158  0.2492 -0.3821 -0.4837
 5097PP      PP15201   1.296  10.255  10.811  0.2551 -0.2896  0.1196
 5098PP      PP15202  14.320   4.554   9.318  0.1254 -0.0121  0.1134
 5099PP      PP15203   2.930   3.371   9.410  0.1299  0.1286  0.1211
 5100PP      PP15204   8.418  14.514  13.002 -0.2362 -0.0698 -0.0184
 5101PP      PP15205   4.919  10.421  11.554 -0.1098 -0.4154  0.1927
 5102PP      PP15206   0.722   0.294   8.863  0.1607  0.0744 -0.0795
 5103PP      PP15207  11.944  13.934   3.607  0.0935 -0.0306 -0.0485
 5104PP      PP15208   7.361  15.741  10.555 -0.2096  0.1061  0.1294
 5105PP      PP15209  14.365   1.449   2.708 -0.3915  0.0932 -0.1119
 5106PP      PP15210   4.139  13.450   3.884 -0.0413 -0.2223 -0.0095
 5107PP      PP15211   5.760  10.806   1.353  0.2629  0.0052 -0.2571
 5108PP      PP15212  10.080  13.193   9.015  0.0233 -0.1610 -0.0072
 5109PP      PP15213   6.311   2.923   1.058 -0.1663 -0.2759 -0.2087
 5110PP      PP15214   9.684   9.883   1.560 -0.1198 -0.0838 -0.2307
 5111PP      PP15215  10.395  11.858   8.915 -0.5768  0.0945 -0.2326
 5112PP      PP15216  14.421  14.450  12.533  0.0351  0.0096 -0.3893
 5113PP      PP15217  12.272   7.933  10.135  0.0275 -0.1109 -0.1383
 5114PP      PP15218   3.805   1.448   8.266 -0.0372  0.1627 -0.2521
 5115PP      PP15219  10.608  12.812   3.024  0.1616  0.0366  0.1335
 5116PP      PP15220  12.816   8.845   0.161  0.0551  0.2079  0.0050
 5117PP      PP15221  14.167   9.412  12.330 -0.1481 -0.0040  0.0602
 5118PP      PP15222   1.463  12.588  12.906  0.1751 -0.0234  0.2640
 5119PP      PP15223   8.216   7.237  10.685  0.0766  0.2730 -0.0241
 5120PP      PP15224   3.051  13.779   2.621 -0.1785 -0.0113 -0.3430
 5121PP      PP15225   8.987   3.860   1.187 -0.0225  0.3470 -0.3196
 5122PP      PP15226  10.362  10.946  10.668 -0.1316  0.0841  0.1834
 5123PP      PP15227   3.254   1.157   2.057 -0.2874  0.0100  0.1837
 5124PP      PP15228   5.322  12.459   9.246  0.2279  0.3818 -0.1311
 5125PP      PP15229  12.212   7.971   3.782 -0.1567  0.0632 -0.3945
 5126PP      PP15230   5.713   5.591  10.538 -0.1939  0.0899  0.0474
 5127PP      PP15231  12.592  13.107   0.387 -0.1705  0.1007 -0.3336
 5128PP      PP15232   3.101   7.093  11.169  0.2050  0.1678 -0.3540
 5129PP      PP15233   5.356   2.316   2.197  0.0405  0.0179  0.0570
 5130PP      PP15234   2.312  15.016   3.605 -0.0873 -0.0424 -0.6505
 5131PP      PP15235  10.514  10.737  11.527 -0.2460 -0.0628  0.0470
 5132PP      PP15236  11.912   2.371   9.591  0.0289 -0.1620 -0.1360
 5133PP      PP15237  10.993   4.509   0.929  0.4455 -0.1927  0.0096
 5134PP      PP15238   1.670   9.762   0.466 -0.3459 -0.0277  0.0038
 5135PP      PP15239   0.388   0.671   1.551  0.1118  0.0109 -0.1366
 5136PP      PP15240   1.442  10.412   0.567  0.0849  0.0811  0.2439
 5137PP      PP15241   8.391  13.787  11.142 -0.1472 -0.2679 -0.0373
 5138PP      PP15242  10.903  14.906   0.611  0.2080 -0.1284 -0.3922
 5139PP      PP15243   4.862   0.967   4.097  0.0934  0.1427  0.0580
 5140PP      PP15244  14.196  14.563   0.114 -0.0438 -0.2852  0.2131
 5141PP      PP15245   2.096  11.813   2.569 -0.1824  0.1615  0.2259
 5142PP      PP15246  14.040   1.633   0.769  0.2945 -0.2921 -0.2801
 5143PP      PP15247  15.798   2.376   0.386  0.1172 -0.1471 -0.3711
 5144PP      PP15248  15.598  10.298   1.665 -0.1344  0.1678  0.0559
 5145PP      PP15249  11.697   4.040  10.294  0.1328 -0.1459 -0.0806
 5146PP      PP15250   8.651   7.124   9.525 -0.1706  0.1966  0.1107
 5147PP      PP15251  14.691   9.472   4.690 -0.1130 -0.0904  0.0829
 5148PP      PP15252   8.668   8.232  11.603  0.2253 -0.1714 -0.1118
 5149PP      PP15253   8.838   1.005  10.203 -0.1663  0.2675 -0.0872
 5150PP      PP15254  15.568  15.587  12.726  0.1019  0.0223 -0.1396
 5151PP      PP15255   1.925   1.823   9.775 -0.0001 -0.0254  0.1135
 5152PP      PP15256  13.005   3.308  12.760  0.0889 -0.2084 -0.2491
 5153PP      PP15257   1.891   6.365   1.239  0.1440 -0.1795  0.1151
 5154PP      PP15258   3.436  12.122   1.986 -0.2385  0.0575  0.1171
 5155PP      PP15259   3.376   6.660   3.478  0.3824 -0.0735  0.1094
 5156PP      PP15260   7.150   3.592   3.863 -0.4005 -0.2540  0.3365
 5157PP      PP15261   5.216   6.153  11.349  0.1023  0.4064  0.1127
 5158PP      PP15262   5.287  13.658  13.321  0.0763  0.1622 -0.0577
 5159PP      PP15263   2.411   1.168   0.370  0.0121 -0.1061 -0.1372
 5160PP      PP15264   9.800   4.958   9.416 -0.0834  0.1029 -0.0196
 5161PP      PP15265  11.898  14.896   1.075 -0.2473 -0.0382  0.2371
 5162PP      PP15266   5.408   1.636   8.263 -0.3706 -0.4409  0.1924
 5163PP      PP15267   7.271  14.487   8.107  0.0601 -0.4265  0.1092
 5164PP      PP15268  13.129   6.301  11.860 -0.2155  0.0980  0.3021
 5165PP      PP15269   5.601   2.297  10.413 -0.3627 -0.0960 -0.1293
 5166PP      PP15270  13.206  12.311  12.640 -0.0991  0.0853  0.3282
 5167PP      PP15271  12.638   0.048   1.061 -0.0558 -0.1325  0.1797
 5168PP      PP15272  14.030   4.420   8.887  0.2311 -0.1493  0.3331
 5169PP      PP15273   2.213  12.447   1.352 -0.2079 -0.3394 -0.0078
 5170PP      PP15274   7.122   0.754   0.815  0.0245 -0.1305  0.0631
 5171PP      PP15275   1.084  12.695   0.239 -0.1744  0.1241  0.0881
 5172PP      PP15276  14.233  10.025  12.970  0.0105  0.3898 -0.2662
 5173PP      PP15277   8.152  10.848   3.408  0.0982  0.1692 -0.0600
 5174PP      PP15278   4.886  12.061   9.955 -0.1424 -0.0003 -0.0440
 5175PP      PP15279  12.157   7.829  10.608  0.0341 -0.0132 -0.0733
 5176PP      PP15280   6.021   0.734   3.143  0.3708  0.0044 -0.0764
 5177PP      PP15281  13.142   1.978   0.710 -0.2041  0.3701 -0.1890
 5178PP      PP15282   5.485   6.544  11.000 -0.1057  0.0463  0.0386
 5179PP      PP15283   6.505   2.944   1.594 -0.2924 -0.0312 -0.2878
 5180PP      PP15284  11.516  13.246  12.611 -0.0301  0.0035  0.0566
 5181PP      PP15285  10.587  10.670   4.424  0.0673 -0.1124 -0.0487
 5182PP      PP15286   2.160   8.146   1.420  0.2923 -0.2362  0.0961
 5183PP      PP15287   7.415   5.339   8.905  0.1441 -0.0661 -0.1288
 5184PP      PP15288   2.310   4.182   2.234 -0.0880  0.0893 -0.1470
 5185PP      PP15289  15.556   2.685   3.711  0.1956 -0.0896  0.0303
 5186PP      PP15290   7.981   0.671  10.930  0.1380 -0.2273 -0.1405
 5187PP      PP15291  11.181   9.929   3.340 -0.3784  0.2092  0.0602
 5188PP      PP15292  15.133  11.803  11.414 -0.0952 -0.3954  0.3445
 5189PP      PP15293   3.619  11.690  10.259  0.2213  0.1768 -0.0493
 5190PP      PP15294   9.122   5.617  12.905  0.1058  0.2525  0.3480
 5191PP      PP15295   9.321   7.657   3.083 -0.2647  0.0376 -0.0279
 5192PP      PP15296   7.216  11.427   9.858 -0.1237 -0.1218  0.0619
 5193PP      PP15297  12.600   7.507   1.725  0.1138  0.2948  0.1309
 5194PP      PP15298   1.570  14.393  10.912  0.2920  0.0526 -0.0524
 5195PP      PP15299   9.862  14.766   0.638 -0.0194  0.2080  0.0632
 5196PP      PP15300   1.026   0.127   2.748  0.0625  0.1522  0.3603
 5197PP      PP15301   7.238   0.244   0.986  0.2557  0.2092 -0.1502
 5198PP      PP15302  10.900   3.124  12.474 -0.1079 -0.1295  0.2266
 5199PP      PP15303   3.657  11.557  13.329  0.0987 -0.1760  0.1158
 5200PP      PP15304   6.632  13.660  13.518  0.3187 -0.3317  0.0365
 5201PP      PP15305  14.401  11.382  11.719 -0.1945  0.2328 -0.0928
 5202PP      PP15306   9.017  12.873  13.490  0.1390  0.1280 -0.1509
 5203PP      PP15307  10.895  15.158   1.031  0.1795 -0.3064 -0.0652
 5204PP      PP15308  12.733  15.486  13.425  0.1468 -0.0599  0.1663
 5205PP      PP15309   0.081   1.981   9.831 -0.0049 -0.0640  0.2209
 5206PP      PP15310  14.144   7.126   2.718 -0.1092  0.3410  0.0446
 5207PP      PP15311   3.197  11.584   2.079 -0.0722 -0.4542  0.1101
 5208PP      PP15312  13.626   6.808   5.598 -0.0016 -0.2358  0.0789
 5209PP      PP15313  13.618  13.696  13.525  0.2069 -0.0089 -0.0124
 5210PP      PP15314   6.825   4.289   3.228 -0.2815  0.0662 -0.0345
 5211PP      PP15315   2.209   7.931  11.493  0.0680  0.2263 -0.2140
 5212PP      PP15316   7.976  14.338  12.816  0.2102  0.0167 -0.0159
 5213PP      PP15317   5.279   9.946   5.204  0.4286  0.3743  0.2826
 5214PP      PP15318  12.275  15.521   0.358 -0.4188  0.1082  0.2915
 5215PP      PP15319   1.426   8.984   2.340  0.0699  0.1630  0.1007
 5216PP      PP15320   5.782  13.647   3.133  0.1836 -0.0589  0.3873
 5217PP      PP15321  10.276   6.272   3.198  0.0073  0.1696  0.0217
 5218PP      PP15322   3.909   3.466   1.093  0.0235 -0.3100 -0.3575
 5219PP      PP15323   5.265  14.144   0.058 -0.1890 -0.0299  0.2080
 5220PP      PP15324   2.753  14.268  13.154 -0.0523 -0.0042 -0.1213
 5221PP      PP15325   0.137   1.400   0.624  0.0242  0.2446 -0.2472
 5222PP      PP15326  11.920   8.261   2.479 -0.3805  0.1772 -0.2826
 5223PP      PP15327  12.950  13.311   4.071 -0.2874 -0.1254  0.0603
 5224PP      PP15328   4.046   7.493   0.665 -0.1693  0.1899  0.1107
 5225PP      PP15329   0.077  12.785  10.167 -0.0374 -0.1481  0.1419
 5226PP      PP15330   5.183   8.094  11.097 -0.0079 -0.2165  0.0997
 5227PP      PP15331   1.161  10.122   5.785 -0.0717 -0.1574 -0.1667
 5228PP      PP15332  11.423  15.068   3.571 -0.0488 -0.0191 -0.1697
 5229PP      PP15333   5.312   0.297  12.956 -0.3128  0.2370  0.0355
 5230PP      PP15334  10.012   2.102   0.068  0.0122 -0.0139 -0.1076
 5231PP      PP15335  14.564   7.784  12.732 -0.2804  0.0850 -0.0403
 5232PP      PP15336  13.600  12.694  12.858 -0.0539 -0.5794  0.0388
 5233PP      PP15337  15.472  10.666   4.166  0.0416 -0.3086 -0.3043
 5234PP      PP15338  14.829   3.184   3.330  0.0037 -0.0564 -0.1551
 5235PP      PP15339  14.541  13.903   1.158 -0.0008  0.3657  0.0795
 5236PP      PP15340   7.124  12.626   2.082 -0.1534  0.3098  0.0612
 5237PP      PP15341   9.358  13.905   4.023 -0.0886  0.4474 -0.1216
 5238PP      PP15342   2.357  12.014   0.621  0.0926  0.3290 -0.1434
 5239PP      PP15343   3.322   1.854   0.484 -0.0904 -0.0134  0.2544
 5240PP      PP15344   0.405   4.431  10.626  0.0286  0.1221 -0.0901
 5241PP      PP15345   7.326   6.813   2.868  0.1036 -0.3249  0.0864
 5242PP      PP15346  12.052  14.983  10.285  0.2451 -0.1097 -0.1500
 5243PP      PP15347  10.355   7.155   4.129 -0.1179  0.3128  0.0847
 5244PP      PP15348  10.029   1.204   8.443 -0.2503 -0.1815 -0.0125
 5245PP      PP15349   9.786  10.281   9.590 -0.2981 -0.2239 -0.1208
 5246PP      PP15350   7.838  10.466   2.032 -0.1617  0.0690 -0.0270
 5247PP      PP15351  11.211   8.701  12.316 -0.0895  0.1691 -0.3356
 5248PP      PP15352  14.290   2.614  11.205  0.1611 -0.2219  0.0015
 5249PP      PP15353   9.948   5.485   4.262  0.2058 -0.0160 -0.2217
 5250PP      PP15354   2.468   1.312   2.652  0.0862 -0.4009  0.3788
 5251PP      PP15355  14.037  10.718   9.551  0.1484  0.0928  0.0716
 5252PP      PP15356  11.857  13.374  11.002  0.1289  0.1896 -0.4772
 5253PP      PP15357  11.818  13.683  11.495  0.1849 -0.1103  0.1023
 5254PP      PP15358   0.423   8.482  11.452 -0.1972 -0.1347 -0.2574
 5255PP      PP15359   9.504   6.723  11.028  0.3624  0.1912 -0.1542
 5256PP      PP15360   2.291   0.885   8.157  0.3199  0.1723  0.0879
 5257PP      PP15361   6.510   7.974   9.081 -0.3829 -0.0218 -0.2510
 5258PP      PP15362   6.675  12.497   1.904 -0.0748 -0.0567 -0.1986
 5259PP      PP15363  10.464   6.921   1.814  0.3981  0.0109  0.0435
 5260PP      PP15364   3.960   5.806   5.071  0.1165  0.1470  0.0607
 5261PP      PP15365  15.326  12.187   3.836 -0.0435  0.0711  0.1835
 5262PP      PP15366  10.733   2.694   2.931  0.2156  0.1880  0.0141
 5263PP      PP15367   3.528  11.789   1.348 -0.1945  0.1847  0.0399
 5264PP      PP15368  11.592   2.721   0.923 -0.1079 -0.0572  0.3847
 5265PP      PP15369   0.734   6.170   2.382  0.2639 -0.2124 -0.1211
 5266PP      PP15370  10.076  12.261   2.266  0.0893  0.1342 -0.2277
 5267PP      PP15371   6.440  15.053  10.851  0.1598 -0.1628 -0.1076
 5268PP      PP15372   7.445   1.465   8.961  0.3038  0.0274 -0.1798
 5269PP      PP15373   9.218  14.654  13.493  0.0869 -0.1158  0.1299
 5270PP      PP15374   0.117   2.745   1.624  0.0868 -0.1202  0.1978
 5271PP      PP15375   8.317  13.858   9.298  0.2959 -0.0794  0.1888
 5272PP      PP15376   0.855   4.486   3.661 -0.1507  0.1925  0.1058
 5273PP      PP15377   8.382   4.135  11.138  0.1108 -0.0715  0.1791
 5274PP      PP15378  14.513   0.937  12.008  0.1767 -0.0146  0.1446
 5275PP      PP15379  12.274   4.928  10.420 -0.0476  0.2801  0.1553
 5276PP      PP15380   4.966  12.078   4.207  0.0871  0.0746 -0.2431
 5277PP      PP15381  13.835   9.814  10.452  0.1526 -0.0053 -0.1402
 5278PP      PP15382   9.961   4.852  11.616  0.0545 -0.4597 -0.0312
 5279PP      PP15383   0.720  11.036  13.094  0.4130  0.0825  0.1978
 5280PP      PP15384  12.755   3.420   4.450 -0.3590 -0.2229  0.1053
 5281PP      PP15385  13.399   2.845   3.450  0.2290 -0.2789  0.0325
 5282PP      PP15386  12.642   0.149   0.144  0.1814  0.0444 -0.0262
 5283PP      PP15387   5.542   0.092  12.431  0.0197 -0.0289  0.1626
 5284PP      PP15388   7.340   0.781   8.337  0.1427 -0.2683 -0.3964
 5285PP      PP15389   3.286  14.486   8.817  0.0463 -0.1947 -0.0357
 5286PP      PP15390   9.275   4.539   1.187  0.3289 -0.1611 -0.1156
 5287PP      PP15391   3.625   8.204  12.854 -0.1402 -0.0547 -0.3003
 5288PP      PP15392   0.363   2.546   3.910 -0.3321  0.1756 -0.1014
 5289PP      PP15393  12.782  12.827   8.721 -0.2710 -0.0545  0.0821
 5290PP      PP15394   9.038  10.268  10.404 -0.2056 -0.0971 -0.0275
 5291PP      PP15395  13.962   2.611   9.443  0.1325 -0.2524 -0.0148
 5292PP      PP15396   9.857  13.705   0.624  0.2402  0.0190 -0.5453
 5293PP      PP15397   0.924  13.914  10.729  0.0769  0.1937  0.0007
 5294PP      PP15398   3.307   8.988  10.409 -0.0156 -0.0898 -0.2554
 5295PP      PP15399  15.091   3.422   9.531  0.0012 -0.0187 -0.0260
 5296PP      PP15400  12.211  11.252   0.797 -0.0835  0.3307  0.1811
 5297PP      PP15401   7.856   4.610   0.970 -0.3872 -0.1193  0.0244
 5298PP      PP15402   1.157   8.049   0.675 -0.2087  0.0095 -0.0283
 5299PP      PP15403  13.068   0.670   8.648  0.1802 -0.0190 -0.3198
 5300PP      PP15404   7.568   7.325   3.706 -0.0143  0.0643 -0.3491
 5301PP      PP15405   1.740   8.899   0.189 -0.1906  0.1737 -0.2592
 5302PP      PP15406   4.881  15.790   9.995  0.2002 -0.3236  0.0000
 5303PP      PP15407   4.608  10.565   0.159 -0.2936  0.2073 -0.2699
 5304PP      PP15408   5.590  10.138   4.818  0.0729  0.0356  0.1289
 5305PP      PP15409  14.789   7.179   5.140 -0.0935  0.0320  0.0704
 5306PP      PP15410  10.233   5.561   9.167  0.1317 -0.0023  0.0543
 5307PP      PP15411   1.691   1.910  11.853  0.1366  0.2783  0.3266
 5308PP      PP15412  11.280  10.067   5.694 -0.1540 -0.2361 -0.1221
 5309PP      PP15413   9.339  12.552   4.234  0.2033  0.1367  0.0945
 5310PP      PP15414  10.863  13.752   9.148 -0.0263  0.0272  0.1412
 5311PP      PP15415  14.583   9.867   1.947  0.1166 -0.2428  0.1524
 5312PP      PP15416  15.294  15.454   9.467  0.0784  0.1689  0.3722
 5313PP      PP15417   0.987   2.272   0.206  0.1062 -0.0509 -0.3217
 5314PP      PP15418   3.018  11.535  11.897 -0.1100  0.0774  0.1314
 5315PP      PP15419   3.042  10.889  11.390  0.2541 -0.0181 -0.1414
 5316PP      PP15420   1.515  14.707   1.855  0.1537 -0.1764 -0.1823
 5317PP      PP15421   5.934  11.819   1.032 -0.2398 -0.0491  0.5468
 5318PP      PP15422   7.619  13.532  10.691  0.3216  0.0665  0.2564
 5319PP      PP15423  10.381  13.945  10.465 -0.0174  0.1686 -0.0362
 5320PP      PP15424   9.692   8.874  10.937  0.1432  0.3432  0.0948
 5321PP      PP15425  15.485  14.744  12.102  0.1804  0.2789  0.0719
 5322PP      PP15426   1.649   7.782   1.137  0.0568  0.1965  0.0345
 5323PP      PP15427   5.352  14.446   9.554  0.1850 -0.0570  0.0166
 5324PP      PP15428   8.742   0.734  10.638  0.0768  0.0914 -0.0010
 5325PP      PP15429   8.513  10.928  13.383 -0.1652  0.1143 -0.2614
 5326PP      PP15430   7.163  11.268   1.869 -0.2836  0.1921 -0.1118
 5327PP      PP15431   8.979   1.653   1.363  0.0905 -0.3620 -0.1335
 5328PP      PP15432   5.452  10.407   9.368  0.1293 -0.4989 -0.0718
 5329PP      PP15433  13.113  12.333  10.323  0.2425 -0.1191  0.2434
 5330PP      PP15434   2.763   3.673   4.193  0.1753 -0.0582  0.2480
 5331PP      PP15435  10.158   9.874   1.900  0.0619 -0.1984 -0.2092
 5332PP      PP15436   7.305   1.855  10.700 -0.1176  0.1854  0.0295
 5333PP      PP15437  10.595   8.022  10.724  0.0196  0.1102  0.0012
 5334PP      PP15438   2.478  13.289  10.672 -0.0205  0.3498  0.4462
 5335PP      PP15439   3.575   1.306   1.684  0.0246 -0.0293 -0.3853
 5336PP      PP15440  13.518   3.477  10.727  0.0929  0.0618 -0.1705
 5337PP      PP15441   7.276  14.036  10.823  0.0103  0.2471 -0.0980
 5338PP      PP15442   4.414  15.719  10.722 -0.3308  0.3420 -0.0588
 5339PP      PP15443  15.164   8.742  10.318  0.3065  0.0026 -0.0189
 5340PP      PP15444   8.156   6.686   2.199 -0.0752  0.3319 -0.0824
 5341PP      PP15445   2.194  11.009   0.515  0.1093  0.1160  0.0647
 5342PP      PP15446   8.583   2.896   4.400  0.4682  0.1546 -0.0118
 5343PP      PP15447  15.681  10.084   0.388 -0.0270  0.0624 -0.0823
 5344PP      PP15448   8.655   8.076   3.793  0.2617  0.2506  0.1711
 5345PP      PP15449   7.566  14.242   8.476  0.0357  0.0871 -0.0591
 5346PP      PP15450   1.731   7.465  12.499 -0.2991 -0.3601  0.3517
 5347PP      PP15451   0.263  12.939  12.691  0.1105  0.1188  0.0081
 5348PP      PP15452   9.712   2.725  10.725  0.2759 -0.0948  0.1922
 5349PP      PP15453   1.997   2.461  12.432  0.0139  0.3572  0.2462
 5350PP      PP15454  11.895   2.064  12.311  0.2289  0.3743 -0.0706
 5351PP      PP15455  13.887   0.518   3.835 -0.2339 -0.0010  0.2013
 5352PP      PP15456   9.363   7.123   0.625 -0.3580  0.0859 -0.0826
 5353PP      PP15457   6.875   8.210   3.639 -0.1551 -0.0807  0.0061
 5354PP      PP15458   3.144   6.236  11.155  0.2703 -0.2125  0.1210
 5355PP      PP15459  13.240   3.667   9.544  0.4865  0.0643  0.0960
 5356PP      PP15460  13.482  11.342   3.319 -0.3028  0.1464 -0.0276
 5357PP      PP15461   7.496  11.023  13.367  0.0086 -0.3180 -0.0704
 5358PP      PP15462  13.246  14.096  11.678  0.0890  0.0082 -0.0849
 5359PP      PP15463   4.050   9.234   3.413  0.2271 -0.1841  0.0415
 5360PP      PP15464   2.025  14.844  11.166  0.0609 -0.0236  0.1247
 5361PP      PP15465   0.299  13.870  12.976 -0.2970 -0.1076 -0.0034
 5362PP      PP15466   2.210  10.860   1.602  0.1536  0.1067 -0.0159
 5363PP      PP15467   2.186  12.972  12.925  0.1389 -0.0428  0.1863
 5364PP      PP15468   4.552   1.738   2.791  0.1752  0.3444 -0.4371
 5365PP      PP15469  11.917  13.882   1.131 -0.2439 -0.2012  0.0489
 5366PP      PP15470  11.134  10.060  11.213 -0.1256  0.0727 -0.4256
 5367PP      PP15471   8.214   2.720   1.569  0.0865  0.2644  0.0995
 5368PP      PP15472   2.331   0.671  11.912  0.4092  0.0960 -0.3865
 5369PP      PP15473  11.621  12.921   9.186 -0.0003 -0.0370 -0.0056
 5370PP      PP15474   8.922  15.043   0.911 -0.2250  0.0166  0.0940
 5371PP      PP15475   0.261   0.161   3.899 -0.3256  0.1854 -0.4063
 5372PP      PP15476   3.162   2.091   9.094  0.2294 -0.0442 -0.0321
 5373PP      PP15477  12.800   7.142   4.063  0.3166 -0.1276  0.0408
 5374PP      PP15478   1.142  15.122   0.599  0.0199  0.0215  0.2490
 5375PP      PP15479   3.525   3.539   9.463 -0.1415  0.0147 -0.0413
 5376PP      PP15480   8.554  11.702   2.338  0.2752  0.2183  0.1700
 5377PP      PP15481   0.956   2.270  10.983  0.0512 -0.1265 -0.4272
 5378PP      PP15482   4.704  15.302   1.949  0.1629 -0.2415  0.2608
 5379PP      PP15483   1.211   6.302  13.192  0.1107 -0.1055  0.1608
 5380PP      PP15484   1.845   8.975   9.690 -0.2872  0.2752  0.2717
 5381PP      PP15485  15.285   1.052   3.128 -0.0619  0.2250  0.3535
 5382PP      PP15486  12.402  10.403  12.233  0.2016  0.0350 -0.2275
 5383PP      PP15487  15.026   5.780  10.291 -0.3256 -0.0019  0.0980
 5384PP      PP15488  10.322   6.988  10.629  0.0264 -0.2221 -0.0362
 5385PP      PP15489   4.942   6.447   0.752 -0.4594  0.1375  0.1486
 5386PP      PP15490   4.646   7.385  13.306 -0.0968 -0.2775  0.1430
 5387PP      PP15491   8.893  10.573  11.576 -0.3074 -0.0943  0.0904
 5388PP      PP15492   3.951   7.164   3.182  0.0421 -0.0538  0.3175
 5389PP      PP15493   8.767   1.640   0.504  0.0878 -0.1027 -0.2668
 5390PP      PP15494  13.790  13.762  11.232 -0.0902 -0.2620 -0.0671
 5391PP      PP15495   4.556   1.387   9.362  0.1530  0.1388  0.0131
 5392PP      PP15496   6.677  13.440   8.748 -0.0449  0.1400  0.0976
 5393PP      PP15497   9.598  10.749   4.251  0.1807 -0.2077  0.1756
 5394PP      PP15498  11.882  15.333  11.059 -0.1158  0.0001 -0.1300
 5395PP      PP15499  15.425   8.216   3.924  0.0510  0.0565  0.4502
 5396PP      PP15500   8.642   5.674   3.397 -0.0946 -0.1161 -0.1105
 5397PP      PP15501   4.976   9.505   0.861 -0.0260  0.1903  0.0722
 5398PP      PP15502   5.621   6.642  10.026  0.1999  0.0224 -0.3886
 5399PP      PP15503  12.487   1.414   0.085 -0.2737  0.1071  0.0456
 5400PP      PP15504   7.244  12.833  13.060 -0.1631 -0.2932  0.2414
 5401PP      PP15505   1.752   7.124   4.845  0.0881  0.3162 -0.1456
 5402PP      PP15506   0.871   7.574   1.413 -0.2623 -0.0568 -0.0723
 5403PP      PP15507   5.530   7.913   2.416  0.1520 -0.0697 -0.0693
 5404PP      PP15508   7.349  14.888  10.524 -0.2957  0.0396 -0.0171
 5405PP      PP15509   3.061   8.225  10.606  0.1442  0.3139  0.0828
 5406PP      PP15510  11.039  10.678   1.423  0.1117  0.1584  0.1337
 5407PP      PP15511   6.305  11.339  11.328 -0.1871 -0.0936  0.3924
 5408PP      PP15512  13.084   2.744   8.859  0.0486  0.1126 -0.1804
 5409PP      PP15513   4.239   3.546  10.461 -0.0274 -0.2316  0.1452
 5410PP      PP15514   0.237   7.177  13.102 -0.2220 -0.0538  0.2392
 5411PP      PP15515   2.269  10.759   0.097 -0.0735  0.4092  0.0092
 5412PP      PP15516  13.650   6.493  12.726 -0.1730  0.1466  0.0182
 5413PP      PP15517   7.943  11.115   2.151  0.2412 -0.0701 -0.1123
 5414PP      PP15518  11.931   0.312  13.143 -0.1906  0.0745  0.0401
 5415PP      PP15519   1.587   7.828   5.538  0.5457 -0.0896 -0.1176
 5416PP      PP15520  13.056  15.073   1.789 -0.4726  0.0799 -0.1450
 5417PP      PP15521  12.549   5.320   4.901  0.1421  0.4418  0.1205
 5418PP      PP15522   8.519   9.130   9.714 -0.4054  0.0697  0.4878
 5419PP      PP15523  12.654  15.009  11.693  0.0467  0.0463 -0.0877
 5420PP      PP15524  11.834   3.826   9.432 -0.2039 -0.2136 -0.0080
 5421PP      PP15525   1.538  14.255   4.068  0.1348 -0.2883 -0.4833
 5422PP      PP15526  15.461   1.465  11.564  0.3131 -0.1618  0.1579
 5423PP      PP15527  12.859   6.342   3.560 -0.1053 -0.1917  0.0408
 5424PP      PP15528   9.650   4.972  12.029 -0.0752 -0.3240  0.1514
 5425PP      PP15529  11.609   0.392  11.631  0.1229  0.4463  0.1199
 5426PP      PP15530   3.372   1.432   0.820  0.0158  0.0099 -0.0254
 5427PP      PP15531  10.646   0.825   4.644 -0.1131  0.0873 -0.0659
 5428PP      PP15532   0.586   9.507   3.718 -0.1139 -0.2800  0.1249
 5429PP      PP15533   6.691  13.361  10.979  0.0231  0.0446 -0.3886
 5430PP      PP15534  15.523   7.247   9.732 -0.0569 -0.1715 -0.0899
 5431PP      PP15535   2.101  12.647  11.427  0.1455 -0.1248  0.0575
 5432PP      PP15536  12.669   2.669   9.850 -0.0856 -0.0436  0.2698
 5433PP      PP15537  14.944   8.453   1.270 -0.0953  0.0361  0.0995
 5434PP      PP15538  10.834  10.495  10.222  0.0671  0.1152 -0.0186
 5435PP      PP15539   8.163   8.870  12.806 -0.0745 -0.2262  0.1189
 5436PP      PP15540   6.523   5.936   0.215  0.0194  0.1037 -0.0492
 5437PP      PP15541   9.982  14.870   1.173 -0.2774 -0.1446 -0.2959
 5438PP      PP15542  14.042   4.721   2.831 -0.1823  0.2002  0.1700
 5439PP      PP15543   6.225  12.738   1.284 -0.0722  0.2685  0.1182
 5440PP      PP15544   6.362   5.979   3.741  0.1254  0.1222  0.1366
 5441PP      PP15545  14.222   4.417   0.038  0.1199  0.2556  0.1408
 5442PP      PP15546   5.307  11.369   0.830  0.1231  0.1062 -0.0332
 5443PP      PP15547  10.233   7.856   1.985  0.3906 -0.1444 -0.1539
 5444PP      PP15548   1.896   8.032   3.670  0.0175  0.0143  0.1922
 5445PP      PP15549   4.840   8.316   2.015 -0.1483  0.2338 -0.2145
 5446PP      PP15550   4.573   1.165   2.507  0.1006 -0.0457  0.2848
 5447PP      PP15551  15.786  15.161   3.737 -0.0304  0.1870 -0.3041
 5448PP      PP15552  14.280  11.165   2.225 -0.0945 -0.4300  0.2267
 5449PP      PP15553   3.789  12.750   2.132  0.3331 -0.0604  0.2218
 5450PP      PP15554   2.016  15.673   1.862  0.0856 -0.1550  0.3137
 5451PP      PP15555   4.350   7.382   1.565 -0.0518  0.3534 -0.1732
 5452PP      PP15556   9.993   2.576  12.270 -0.0945  0.4763 -0.0480
 5453PP      PP15557   9.775   4.492   1.307  0.0063  0.2188 -0.1982
 5454PP      PP15558   2.073  13.631   1.982  0.0314  0.2557  0.3009
 5455PP      PP15559   2.428  11.113  12.659 -0.1509 -0.1726  0.1173
 5456PP      PP15560   1.307  12.321   4.561 -0.2511 -0.0850 -0.0931
 5457PP      PP15561  10.554   8.590  10.601  0.5271 -0.1786 -0.0012
 5458PP      PP15562  15.718  10.679  13.170 -0.0899 -0.2559 -0.0418
 5459PP      PP15563   5.167   3.842  11.123  0.1726 -0.1899  0.0712
 5460PP      PP15564   3.062   4.103   0.870 -0.0519  0.0487 -0.1350
 5461PP      PP15565  15.672   6.722   1.137  0.2048 -0.1848 -0.2091
 5462PP      PP15566   1.331   9.531   2.346  0.0636  0.1410  0.5509
 5463PP      PP15567   0.700   3.900   9.855  0.2808 -0.1954 -0.1577
 5464PP      PP15568   8.158   8.280  13.422  0.0669  0.1599  0.2588
 5465PP      PP15569  12.668   8.243   5.565 -0.1810 -0.0975  0.2275
 5466PP      PP15570   0.752   7.185   3.301  0.0516  0.2682  0.1350
 5467PP      PP15571   6.728   7.781   0.077 -0.1084 -0.0002 -0.1047
 5468PP      PP15572  15.803   8.489   0.085 -0.1553  0.4040 -0.0517
 5469PP      PP15573  11.641   6.041   0.665  0.0288  0.2664  0.0863
 5470PP      PP15574   4.581   6.253   4.265 -0.0924  0.0313  0.0254
 5471PP      PP15575   8.369   1.522   9.444 -0.0441  0.2721  0.1068
 5472PP      PP15576  10.621   9.570   2.128 -0.5061  0.0402  0.0592
 5473PP      PP15577  15.344   9.688   1.698 -0.0323  0.2712  0.2472
 5474PP      PP15578   6.257   0.909   1.091  0.1837 -0.1697 -0.1842
 5475PP      PP15579  11.909   5.379  12.233 -0.0133  0.4621  0.2853
 5476PP      PP15580   9.899   6.309  11.559 -0.4327  0.0754  0.1564
 5477PP      PP15581   6.410   5.887  10.141 -0.1581 -0.2651  0.1573
 5478PP      PP15582   1.138   1.966   8.647 -0.3550  0.0971  0.3877
 5479PP      PP15583  13.633  10.002   2.797 -0.3483  0.2674  0.1806
 5480PP      PP15584   1.931   4.241   3.421  0.0239 -0.1299  0.0671
 5481PP      PP15585   0.391  14.511   0.784 -0.0057 -0.0516 -0.2571
 5482PP      PP15586  15.531  14.200   0.443 -0.1099  0.0132  0.0508
 5483PP      PP15587  11.623   6.966   4.646  0.0889 -0.4231  0.0737
 5484PP      PP15588  14.728   9.418   3.004 -0.0617  0.1129 -0.1609
 5485PP      PP15589   0.737   6.245  13.283  0.1449 -0.0486  0.0661
 5486PP      PP15590   5.256   9.318   4.642 -0.1563 -0.1371 -0.0303
 5487PP      PP15591  13.144   4.707  13.343 -0.3551 -0.5033 -0.1076
 5488PP      PP15592  12.766  10.871   4.144 -0.0203 -0.1607  0.1905
 5489PP      PP15593  11.446   2.320   9.829  0.0993  0.0199  0.0045
 5490PP      PP15594   3.969   3.333   2.147  0.2085  0.4128 -0.0989
 5491PP      PP15595  12.076   8.801   9.095 -0.2539  0.0288  0.4421
 5492PP      PP15596   3.403   5.490  11.995 -0.2205 -0.1901 -0.3258
 5493PP      PP15597   9.177  14.060   9.754 -0.2260  0.0810  0.1841
 5494PP      PP15598  11.789   2.923   9.416  0.0974 -0.1009  0.0347
 5495PP      PP15599   9.128  13.718   1.219  0.0766  0.1822 -0.1534
 5496PP      PP15600  10.165   9.650   1.408  0.2171  0.0312 -0.1355
 5497PP      PP15601   8.560   4.122   0.895 -0.1935  0.0206 -0.1748
 5498PP      PP15602   0.041   9.442   1.831 -0.1403  0.3329 -0.0551
 5499PP      PP15603   2.528   4.641  11.879 -0.3095  0.3094  0.3147
 5500PP      PP15604   6.115  12.364   0.917  0.1622  0.3249 -0.0362
 5501PP      PP15605  11.577  10.804   5.268 -0.1904  0.2893  0.1355
 5502PP      PP15606   6.972   5.921  12.697  0.1806 -0.2463 -0.0954
 5503PP      PP15607   4.250  12.996   1.976 -0.1677 -0.2379 -0.1376
 5504PP      PP15608   5.918   6.277   0.614 -0.1962  0.1566 -0.0089
 5505PP      PP15609  14.102  14.577   9.537 -0.0196 -0.1050  0.0600
 5506PP      PP15610   8.748  14.968   0.073  0.0376  0.1310  0.0306
 5507PP      PP15611  10.849   7.414   0.020 -0.0516  0.3222 -0.1319
 5508PP      PP15612   5.187  10.570  13.142  0.0046  0.0791  0.0017
 5509PP      PP15613  11.623   1.828   2.071 -0.2783  0.0240  0.1928
 5510PP      PP15614   1.884   9.065   4.261  0.1360 -0.0503 -0.0364
 5511PP      PP15615  13.541   2.497   3.060 -0.0195 -0.0591 -0.1506
 5512PP      PP15616   4.741   6.377   9.605  0.2712 -0.0008 -0.1702
 5513PP      PP15617   4.336  13.498  10.131  0.3407 -0.0149 -0.0638
 5514PP      PP15618  12.025  15.167   1.482 -0.0738 -0.1895 -0.2817
 5515PP      PP15619   4.784   4.528   9.365 -0.0779  0.1870 -0.0122
 5516PP      PP15620   9.189  15.367  12.693 -0.0389 -0.0170  0.3338
 5517PP      PP15621   8.191   0.532   0.506 -0.0997  0.1741  0.0277
 5518PP      PP15622   0.092   9.875  13.411 -0.1565 -0.1418  0.2907
 5519PP      PP15623  14.197  15.087  12.486  0.0031 -0.1675 -0.3483
 5520PP      PP15624   2.356   9.149   2.569 -0.1263  0.0807 -0.0293
 5521PP      PP15625  14.166   9.513  12.838  0.3599  0.2246 -0.1843
 5522PP      PP15626  13.638   5.615   1.228  0.1353 -0.0916  0.2457
 5523PP      PP15627  15.765   7.512   3.824 -0.0002  0.3785  0.0716
 5524PP      PP15628   6.777   1.548   9.543  0.0974  0.2491  0.0386
 5525PP      PP15629   9.256   0.159   4.260  0.1419 -0.3083 -0.0854
 5526PP      PP15630   6.357  10.261  12.531 -0.1561 -0.0594  0.5273
 5527PP      PP15631  10.536  11.251   0.239  0.1275 -0.2701 -0.2914
 5528PP      PP15632   9.967  12.334   9.578 -0.0903  0.2222 -0.3614
 5529PP      PP15633   4.641  14.931   3.430  0.0986 -0.1566 -0.1475
 5530PP      PP15634  13.103   6.224   2.590  0.1085  0.0221  0.1622
 5531PP      PP15635  13.712   2.024  11.274  0.2949 -0.2255  0.2978
 5532PP      PP15636  12.571   8.285  10.709 -0.0942  0.2935 -0.2372
 5533PP      PP15637  13.021   1.484  10.283  0.0173 -0.0153  0.1542
 5534PP      PP15638   1.713  14.982  12.728  0.3219  0.0833 -0.1069
 5535PP      PP15639   3.882  15.243   7.501  0.0064 -0.1399  0.0067
 5536PP      PP15640   5.690  10.668  11.357 -0.2923 -0.2199 -0.0357
 5537PP      PP15641  12.405   9.141   0.138 -0.1765  0.0543  0.1118
 5538PP      PP15642  10.884   1.387   9.900  0.0428  0.2207  0.3061
 5539PP      PP15643  11.587   1.760  12.799  0.0611 -0.2834 -0.1510
 5540PP      PP15644   0.099   4.261  11.467 -0.0385  0.5235  0.4515
 5541PP      PP15645   2.267  10.678   2.108  0.0463  0.0030 -0.0063
 5542PP      PP15646   7.143  13.715   1.060 -0.1210 -0.1349  0.0300
 5543PP      PP15647   4.944  12.559   0.949 -0.2264  0.1715  0.0398
 5544PP      PP15648  14.263   8.137  11.146 -0.2713  0.1187  0.1988
 5545PP      PP15649  14.667   9.905   4.032  0.1040  0.1184  0.2404
 5546PP      PP15650   2.601   6.278   9.963  0.0332 -0.3163 -0.3538
 5547PP      PP15651   5.192   7.354  11.075 -0.3081  0.1972 -0.0683
 5548PP      PP15652  12.841   2.342   4.153 -0.0825 -0.1753  0.4643
 5549PP      PP15653   6.821  10.930   2.964  0.1039  0.3683 -0.2255
 5550PP      PP15654   0.944  15.035   3.452 -0.3307  0.1099 -0.0941
 5551PP      PP15655  10.846   8.312   0.867 -0.1101  0.3736 -0.1592
 5552PP      PP15656   8.326   4.862  10.001 -0.0277  0.1052  0.3073
 5553PP      PP15657  15.449   5.901   2.611 -0.3615  0.1976  0.2782
 5554PP      PP15658   2.303  14.021   9.616  0.1266  0.0987 -0.0953
 5555PP      PP15659  12.675  14.016   1.106 -0.3177  0.1014 -0.0413
 5556PP      PP15660   3.393  11.349  10.621 -0.2025  0.0946 -0.0638
 5557PP      PP15661   1.823  11.226  11.323 -0.0781 -0.1352 -0.3655
 5558PP      PP15662   2.922   1.243   8.546 -0.0260 -0.0040  0.0696
 5559PP      PP15663   4.962  13.322  11.747  0.0307 -0.1874 -0.2658
 5560PP      PP15664  15.698  12.183   4.677  0.1984  0.1120 -0.0689
 5561PP      PP15665  14.577   3.351   8.814 -0.1253  0.1403 -0.3319
 5562PP      PP15666  15.509  11.678   3.998 -0.0312 -0.0178 -0.1631
 5563PP      PP15667   3.595   6.199   4.181 -0.1327  0.1713  0.3303
 5564PP      PP15668  15.143   9.267   4.556 -0.0487  0.1372 -0.1999
 5565PP      PP15669  10.363   7.413   1.187  0.2406  0.4056 -0.1529
 5566PP      PP15670   9.847   0.024   3.509 -0.3828  0.1443  0.2959
 5567PP      PP15671   5.372   8.287   2.102 -0.1616 -0.1157 -0.1527
 5568PP      PP15672  10.885   1.734   2.268 -0.0379  0.2731  0.0697
 5569PP      PP15673  15.002   0.191  12.045 -0.0193 -0.1603  0.1092
 5570PP      PP15674  13.319  12.647  12.225 -0.0297 -0.1115  0.0626
 5571PP      PP15675   3.446   4.134  10.429  0.0592  0.0705 -0.0452
 5572PP      PP15676  10.317   5.089   9.316 -0.0708  0.3381  0.1265
 5573PP      PP15677   6.724  12.927   3.421 -0.0927 -0.2307 -0.3120
 5574PP      PP15678   0.596   4.192   9.359  0.0236  0.3381 -0.0598
 5575PP      PP15679   3.826  12.628  13.336  0.1373 -0.4742 -0.3394
 5576PP      PP15680   1.626   8.337   0.370 -0.0947 -0.0098 -0.2925
 5577PP      PP15681   2.002   9.539   1.754 -0.2694 -0.0068  0.1069
 5578PP      PP15682   5.115   7.930  12.608  0.0433 -0.4424 -0.0368
 5579PP      PP15683   5.226   6.513   9.377  0.0800  0.2961 -0.0344
 5580PP      PP15684   4.800  10.548   2.576 -0.1201  0.2505  0.3067
 5581PP      PP15685  10.687  13.315   2.683  0.0715 -0.2017 -0.1276
 5582PP      PP15686   1.233   0.780   0.088 -0.1152 -0.2350  0.1433
 5583PP      PP15687   6.858  12.256  12.571  0.0271 -0.1969 -0.2896
 5584PP      PP15688   0.699  11.921  11.526  0.0362  0.1464  0.1317
 5585PP      PP15689  15.280  11.419   9.916  0.2232  0.1635  0.0661
 5586PP      PP15690   5.590   7.370   3.784  0.2177 -0.2318  0.0600
 5587PP      PP15691   6.853   5.830   3.585 -0.1249  0.1319  0.2645
 5588PP      PP15692   0.507   7.885   3.911 -0.0292  0.1682 -0.2934
 5589PP      PP15693  14.183  11.667   2.230  0.2662 -0.0272  0.1990
 5590PP      PP15694  15.121   6.227  10.100 -0.1474  0.4395 -0.1653
 5591PP      PP15695   1.952   2.346   1.041 -0.0624  0.2102  0.1285
 5592PP      PP15696   7.875   4.915   2.738 -0.3149 -0.0516 -0.1037
 5593PP      PP15697   1.442   2.338  11.693  0.1627  0.1519 -0.2710
 5594PP      PP15698   9.426  15.745  10.895  0.0184 -0.0711 -0.1357
 5595PP      PP15699   6.031  12.329  11.850 -0.4035  0.2043  0.0605
 5596PP      PP15700   4.319   9.146  11.522 -0.2831 -0.2744  0.1619
 5597PP      PP15701  14.442   1.082  13.399  0.0684  0.0877 -0.0550
 5598PP      PP15702   8.326  11.251   0.775  0.1346 -0.1487 -0.1234
 5599PP      PP15703   9.399   5.107  12.432 -0.0823  0.0545 -0.0465
 5600PP      PP15704   9.064   6.283   1.550  0.0083  0.1233  0.1348
 5601PP      PP15705   6.499   7.444   2.103  0.1281  0.1311 -0.4592
 5602PP      PP15706   7.330   0.176  12.054 -0.0112 -0.0181  0.0788
 5603PP      PP15707   9.092   4.492   3.945  0.0262  0.3709 -0.1603
 5604PP      PP15708  10.835   3.068  10.526 -0.1217  0.2282  0.0202
 5605PP      PP15709   1.806  12.740   1.500 -0.0826  0.2073 -0.2850
 5606PP      PP15710   9.167  11.926  12.818  0.1529 -0.0050  0.0390
 5607PP      PP15711   1.765  11.616  10.849 -0.1959  0.0216 -0.2142
 5608PP      PP15712   1.630  14.209   3.499  0.2684  0.4121 -0.0752
 5609PP      PP15713   4.643  13.871   9.926  0.1572 -0.1392 -0.0389
 5610PP      PP15714   6.862   9.883   1.201 -0.0735 -0.1190  0.3408
 5611PP      PP15715   2.769   1.866   3.548  0.0186 -0.0245 -0.0118
 5612PP      PP15716  10.457   0.856  12.683  0.0513 -0.1898 -0.0968
 5613PP      PP15717  13.531   0.959  12.794  0.2032 -0.1471  0.2684
 5614PP      PP15718   2.048   2.653   1.420  0.1707 -0.2398 -0.0934
 5615PP      PP15719  13.232   2.511  12.117 -0.0848 -0.1916  0.1569
 5616PP      PP15720   0.113   6.210  13.307 -0.1281 -0.0231  0.1588
 5617PP      PP15721   2.171  12.160  12.496  0.2863  0.2072  0.1295
 5618PP      PP15722  11.586   5.474   9.508  0.0747  0.4389 -0.0565
 5619PP      PP15723   7.301   7.834   3.707  0.3533 -0.2958 -0.2037
 5620PP      PP15724  14.981   5.097  11.852 -0.1090 -0.2762  0.2099
 5621PP      PP15725  10.286  15.817   4.206 -0.1790  0.0410 -0.3033
 5622PP      PP15726   0.675   6.373   4.238  0.1618  0.1472  0.2263
 5623PP      PP15727   9.449  12.466  12.880 -0.0033 -0.0784 -0.0967
 5624PP      PP15728   9.653  10.467  10.402 -0.1482 -0.1899 -0.1868
 5625PP      PP15729   1.074  11.914   4.305 -0.0597 -0.3364  0.0477
 5626PP      PP15730   2.456   5.981   0.178 -0.1387 -0.0612  0.2222
 5627PP      PP15731   6.099   8.506  10.260  0.0291  0.1582 -0.1788
 5628PP      PP15732   2.238   0.039   0.545 -0.0549 -0.1334 -0.0790
 5629PP      PP15733  15.454   7.910   5.162 -0.0603  0.0202 -0.0772
 5630PP      PP15734   6.125   8.345   2.787 -0.1176 -0.0419  0.1584
 5631PP      PP15735   7.973  14.318   4.273 -0.3453  0.1235  0.0743
 5632PP      PP15736  10.577  14.700  12.502 -0.0721  0.0289  0.2124
 5633PP      PP15737  15.172  14.366   1.524  0.3672 -0.0355 -0.0884
 5634PP      PP15738   8.144   3.714   4.115 -0.1456  0.3459 -0.1358
 5635PP      PP15739   7.294   2.680  11.862  0.1448  0.0332  0.0698
 5636PP      PP15740   3.028  14.496   0.778  0.1789 -0.0728 -0.1080
 5637PP      PP15741   5.465  10.265  12.155 -0.1910 -0.0291 -0.4680
 5638PP      PP15742   7.944  13.742   8.341  0.2132  0.3663 -0.0462
 5639PP      PP15743  10.247  15.094   1.548 -0.0748  0.0071 -0.1675
 5640PP      PP15744  12.377   1.556  12.230 -0.2180  0.2559  0.0766
 5641PP      PP15745  11.598   8.130  11.570  0.1368  0.1342  0.0397
 5642PP      PP15746  11.022  11.526   1.368  0.1730  0.0808 -0.1434
 5643PP      PP15747   3.331   6.470   5.142 -0.0002  0.3480 -0.0252
 5644PP      PP15748  14.063   9.027   9.635 -0.1719 -0.1574 -0.1955
 5645PP      PP15749  15.730   4.109   3.754  0.0657  0.1063 -0.1313
 5646PP      PP15750   5.446   9.474  10.989 -0.0831 -0.1592 -0.2487
 5647PP      PP15751   1.208  10.375   2.803 -0.1477 -0.2311 -0.3102
 5648PP      PP15752  15.644   6.555   0.641  0.0434  0.0930 -0.2197
 5649PP      PP15753   0.783  13.187  13.372 -0.1499 -0.1649  0.2202
 5650PP      PP15754  10.025  11.699   9.743 -0.1626 -0.1874  0.0369
 5651PP      PP15755   7.281   4.578   3.712 -0.0904 -0.3863  0.1101
 5652PP      PP15756  12.652  11.143  10.651  0.1575 -0.6367  0.0209
 5653PP      PP15757   2.795  15.224   8.834  0.0106 -0.1670  0.0352
 5654PP      PP15758   3.655  15.609   9.576 -0.1115  0.0748 -0.0084
 5655PP      PP15759  14.260  12.775   1.965 -0.3512  0.3020 -0.1889
 5656PP      PP15760   7.782  15.257  11.848 -0.2423 -0.2544  0.0940
 5657PP      PP15761  13.154   9.948   2.017  0.0812 -0.2427 -0.2021
 5658PP      PP15762   7.916   6.291  12.330 -0.0339 -0.1023 -0.1207
 5659PP      PP15763  13.231  14.609   9.020  0.0080 -0.0715  0.0541
 5660PP      PP15764   1.786   2.771  10.799  0.3583  0.0439  0.1999
 5661PP      PP15765  14.730  11.097  12.883  0.0075  0.2690  0.1809
 5662PP      PP15766   8.371   2.468   9.412  0.0011 -0.3593 -0.2865
 5663PP      PP15767  13.463   4.425   0.991  0.1336  0.1956  0.0281
 5664PP      PP15768   0.757  15.805   3.770  0.0378  0.0842 -0.0042
 5665PP      PP15769  10.300   1.342   4.016 -0.2935 -0.0484  0.1040
 5666PP      PP15770   1.471  11.174   3.884  0.1314  0.3362  0.2188
 5667PP      PP15771  15.149   3.627   4.326 -0.1620  0.1732 -0.2369
 5668PP      PP15772   3.270   1.337  12.719 -0.2022  0.0914  0.0793
 5669PP      PP15773  14.969   8.104   5.333 -0.0346 -0.0220 -0.0954
 5670PP      PP15774  14.857   8.266   0.012 -0.2797 -0.0093  0.0581
 5671PP      PP15775   2.705   8.468   2.949  0.0087 -0.2947 -0.3063
 5672PP      PP15776  10.746   5.546   4.272  0.1126  0.1606  0.1902
 5673PP      PP15777  14.914  15.585   0.207  0.0793 -0.1057  0.0262
 5674PP      PP15778  10.211   6.018   3.644 -0.1630 -0.0124  0.1133
 5675PP      PP15779   1.691  10.923   1.524  0.2229 -0.0036  0.0483
 5676PP      PP15780  11.731  10.337   4.694  0.1560 -0.3433  0.3322
 5677PP      PP15781  13.243  13.699  11.232 -0.2388 -0.1109  0.3776
 5678PP      PP15782   7.592   6.798   9.087 -0.2515  0.0700 -0.1069
 5679PP      PP15783  15.766  14.079  12.755  0.0843 -0.3208  0.2666
 5680PP      PP15784   1.424   0.767  11.383  0.2171  0.0289  0.1342
 5681PP      PP15785  11.073   3.817   9.993  0.0756  0.1572  0.1182
 5682PP      PP15786  15.436   9.177  10.228 -0.0633  0.0621 -0.2086
 5683PP      PP15787   3.837  12.483   2.605 -0.2066  0.1092  0.1938
 5684PP      PP15788  15.149  13.377   4.516 -0.0690 -0.1415 -0.0969
 5685PP      PP15789   2.816   5.840   3.807  0.3325 -0.2806 -0.1088
 5686PP      PP15790   5.479  12.170  12.622 -0.2061 -0.2368  0.0600
 5687PP      PP15791  14.128  12.724  12.761 -0.0973  0.0969  0.0821
 5688PP      PP15792  14.093  11.606   3.601  0.0013 -0.2019  0.0051
 5689PP      PP15793   5.235   9.255  11.947  0.0003  0.0740  0.1221
 5690PP      PP15794   1.036   8.355  11.532  0.2257 -0.1104 -0.0734
 5691PP      PP15795  10.610   6.352   3.544 -0.0630  0.1694 -0.1918
 5692PP      PP15796   7.939  15.692   8.693  0.1401 -0.2590 -0.0180
 5693PP      PP15797  12.557   2.994   0.996 -0.0425 -0.0474 -0.1445
 5694PP      PP15798  10.426   1.482   2.887 -0.3684  0.1662 -0.1031
 5695PP      PP15799   2.523   7.741   4.064  0.0383 -0.0734 -0.0338
 5696PP      PP15800   4.416  10.387   4.214 -0.1548  0.1957 -0.2309
 5697PP      PP15801   0.711  11.041  11.314  0.2476 -0.1615  0.0354
 5698PP      PP15802  11.947   1.590   9.459 -0.4288  0.0127  0.1480
 5699PP      PP15803   8.320  15.424   0.801  0.2413 -0.0664  0.2193
 5700PP      PP15804  12.881  13.992   2.192 -0.0341 -0.1235 -0.1552
 5701PP      PP15805  14.435  13.441  11.476  0.1531  0.1091  0.4477
 5702PP      PP15806  13.828   5.526   9.574  0.0584 -0.0938 -0.0906
 5703PP      PP15807  12.698   1.989   2.708 -0.0448 -0.1258 -0.3968
 5704PP      PP15808  11.164  11.242   3.168 -0.1362 -0.0265 -0.3029
 5705PP      PP15809  12.136  11.013  11.037  0.2423  0.0570 -0.1643
 5706PP      PP15810   4.116   2.414   1.146  0.3295  0.0271  0.0615
 5707PP      PP15811  11.638  12.557   9.587 -0.0455 -0.1439 -0.4352
 5708PP      PP15812   2.568   4.403   0.181 -0.0556  0.1691  0.3040
 5709PP      PP15813  10.360   2.615   9.937  0.1895  0.2090  0.2972
 5710PP      PP15814   6.582   0.455  11.608  0.0805  0.2005 -0.1458
 5711PP      PP15815   8.820   5.232   3.207 -0.1696  0.0869 -0.0098
 5712PP      PP15816  14.236  12.973  13.152  0.1975 -0.0403  0.0079
 5713PP      PP15817   3.654   5.053   9.788 -0.0258  0.0354 -0.1277
 5714PP      PP15818   8.179  15.661  11.389  0.0046  0.0678 -0.1790
 5715PP      PP15819  11.265  11.523  13.207  0.3440  0.1441  0.0116
 5716PP      PP15820   3.235   8.484  13.437  0.1486  0.0951 -0.1807
 5717PP      PP15821  13.872   4.977  11.818 -0.0930 -0.1094 -0.0988
 5718PP      PP15822   7.450   8.245  12.011  0.1314  0.1004  0.1206
 5719PP      PP15823   0.618   8.059  11.650 -0.0583 -0.2808 -0.0176
 5720PP      PP15824   6.945   5.668  10.387  0.1268 -0.2373 -0.1722
 5721PP      PP15825   7.270   4.423   9.165 -0.0959 -0.1093 -0.0558
 5722PP      PP15826   4.502  15.621   2.266 -0.0128 -0.0710  0.0076
 5723PP      PP15827  11.419  14.061  10.164 -0.0260  0.1428 -0.2051
 5724PP      PP15828   3.088   9.417   2.517 -0.0332 -0.0132  0.0781
 5725PP      PP15829   2.998   9.419   0.676  0.0348 -0.2417  0.1091
 5726PP      PP15830  13.326   4.189  10.003  0.4638  0.0691 -0.3066
 5727PP      PP15831   3.214   9.495   4.414  0.1455  0.1064 -0.0422
 5728PP      PP15832   7.859   8.308   3.539 -0.0212  0.0586 -0.0190
 5729PP      PP15833   7.957  13.189  10.548 -0.0764 -0.2490  0.0826
 5730PP      PP15834   1.558  12.455  10.264  0.2323  0.1300  0.0523
 5731PP      PP15835   9.297  13.325   1.797 -0.0229  0.1411 -0.0882
 5732PP      PP15836  12.109   0.262   4.668 -0.2074 -0.0179 -0.1512
 5733PP      PP15837  12.935   2.737   3.337  0.0364 -0.0912  0.0765
 5734PP      PP15838   0.709   2.787  10.905  0.0557  0.0775 -0.0594
 5735PP      PP15839  12.408  10.906  11.889 -0.0997 -0.1414  0.0477
 5736PP      PP15840  15.295   1.372   9.400  0.0415 -0.1920 -0.3353
 5737PP      PP15841   0.024   7.734   9.736 -0.0900 -0.3340 -0.0868
 5738PP      PP15842  13.929  15.518  12.135 -0.1954  0.2316  0.0592
 5739PP      PP15843  15.745   3.977   2.428  0.0869 -0.1232 -0.0378
 5740PP      PP15844   7.857   7.140   0.088  0.3256 -0.0507  0.1035
 5741PP      PP15845   2.732  10.609  10.970  0.2291 -0.1659  0.1257
 5742PP      PP15846   8.311   4.226   2.152 -0.2976  0.1456 -0.3112
 5743PP      PP15847   8.338  14.026   1.121  0.2472 -0.0350  0.1619
 5744PP      PP15848   1.135  11.671  11.368 -0.0771 -0.0960  0.1651
 5745PP      PP15849  14.683  14.251   2.492  0.1306  0.0430  0.0267
 5746PP      PP15850   5.669  14.693   0.348 -0.0680  0.0370 -0.0828
 5747PP      PP15851   7.774   2.245   3.484 -0.1392  0.2734  0.1158
 5748PP      PP15852   7.286   0.782   9.102  0.0957  0.1442  0.0617
 5749PP      PP15853   0.238  10.538   3.396 -0.0453  0.0155 -0.1538
 5750PP      PP15854   0.181   1.275  10.192  0.1346  0.0690  0.0392
 5751PP      PP15855   0.509  14.282   1.920  0.1540  0.1021 -0.1049
 5752PP      PP15856   4.235   9.874   9.643  0.1132 -0.0425 -0.0153
 5753PP      PP15857  12.029   4.686   3.210 -0.0122  0.0246  0.0376
 5754PP      PP15858  14.471   5.498   0.725 -0.2509  0.2682 -0.0912
 5755PP      PP15859  12.749  15.567   2.764  0.0098 -0.0755 -0.0200
 5756PP      PP15860   4.399   1.965   3.213 -0.0643 -0.0478  0.0265
 5757PP      PP15861   4.809  13.582  13.085 -0.0586  0.0378  0.0789
 5758PP      PP15862   3.273   0.242   0.633 -0.1297 -0.1306 -0.0821
 5759PP      PP15863   1.875  10.506   2.362 -0.0956 -0.2427 -0.2410
 5760PP      PP15864  13.657   1.395   1.802 -0.1917  0.0760 -0.3520
 5761PP      PP15865  13.208  15.114   0.167 -0.1632  0.1899 -0.0166
 5762PP      PP15866   3.838   6.706  11.503  0.0521  0.1313  0.1785
 5763PP      PP15867   9.217  12.955   3.710  0.0307 -0.0396  0.0162
 5764PP      PP15868   4.086   1.319   0.833  0.0794 -0.1262 -0.1034
 5765PP      PP15869  14.611  15.705  12.025 -0.1091  0.0442  0.0915
 5766PP      PP15870  11.561  12.074   1.126  0.1163 -0.2944 -0.2219
 5767PP      PP15871   3.712   1.619  12.001 -0.3216 -0.2993  0.0688
 5768PP      PP15872   1.881   0.303   2.002  0.0710  0.0701 -0.0772
 5769PP      PP15873   7.366  11.804   0.972 -0.4972 -0.0874  0.2543
 5770PP      PP15874   8.788  13.619   2.517 -0.2601  0.0666 -0.0361
 5771PP      PP15875   6.981   3.555  13.433 -0.0175 -0.1225  0.0692
 5772PP      PP15876  10.260   3.797   0.816  0.2830 -0.1060  0.0685
 5773PP      PP15877   7.460   8.263   3.861 -0.0615  0.1067  0.3488
 5774PP      PP15878  11.044  13.499   2.470 -0.1693  0.3008 -0.4655
 5775PP      PP15879   9.078   4.283  11.156  0.0521 -0.1876 -0.0931
 5776PP      PP15880   4.753   1.201   1.482 -0.1887  0.0205  0.0111
 5777PP      PP15881   1.800  10.428   3.321  0.1773  0.0205 -0.0378
 5778PP      PP15882   4.247   2.800   9.401 -0.0891 -0.1721  0.1947
 5779PP      PP15883   6.316  15.312  13.287  0.0403  0.1494  0.1022
 5780PP      PP15884   2.138  10.102  11.639  0.0235  0.0311  0.1891
 5781PP      PP15885  10.990   2.659   9.251 -0.3999 -0.2818  0.0144
 5782PP      PP15886   1.875   1.431   3.368 -0.1474  0.0668  0.1696
 5783PP      PP15887   1.561   3.842  12.245 -0.2309 -0.0057  0.0650
 5784PP      PP15888  10.662  12.153   4.536  0.0065  0.0783 -0.1483
 5785PP      PP15889  11.723   4.335  10.682  0.0562 -0.0035  0.0776
 5786PP      PP15890  10.900   5.101  11.829 -0.2585  0.1655 -0.0079
 5787PP      PP15891   5.633  11.550  10.436  0.1135 -0.1639  0.3867
 5788PP      PP15892  12.923  14.986   8.986 -0.3199  0.0883 -0.1182
 5789PP      PP15893   5.078   1.763   8.858  0.2724  0.0910 -0.1431
 5790PP      PP15894  11.311   6.842  10.850 -0.1753 -0.4572 -0.1146
 5791PP      PP15895   6.593   0.800  10.653  0.0130  0.2686  0.2316
 5792PP      PP15896  11.302  10.686   4.327 -0.0645 -0.0475  0.0038
 5793PP      PP15897  14.975   6.699   2.907  0.0579 -0.2300  0.0557
 5794PP      PP15898   2.392  13.408  13.058  0.2204 -0.1556 -0.1446
 5795PP      PP15899   3.932   5.344   4.527 -0.0437  0.2812 -0.0702
 5796PP      PP15900  10.205  11.270   3.443  0.0101  0.1715 -0.0885
 5797PP      PP15901   4.872  15.817  10.506 -0.0851 -0.0763  0.4289
 5798PP      PP15902   8.082  11.070   1.298  0.1421  0.1321  0.2587
 5799PP      PP15903   2.688   6.656  12.548 -0.1809 -0.1723 -0.1203
 5800PP      PP15904   0.338   1.601  12.156 -0.3029  0.2021  0.1399
 5801PP      PP15905   0.993  12.113   4.886 -0.0905 -0.0733 -0.0344
 5802PP      PP15906   2.862   6.825   3.977  0.0400 -0.1974 -0.2092
 5803PP      PP15907  13.319   1.008  12.090 -0.3566 -0.0649 -0.0726
 5804PP      PP15908   3.102   3.198   2.675 -0.1424 -0.2424 -0.3998
 5805PP      PP15909   0.808   0.443  11.107  0.1649 -0.2064 -0.0098
 5806PP      PP15910   5.777  13.523  13.265 -0.3220  0.0889 -0.2956
 5807PP      PP15911   8.035  15.204   1.942  0.2584 -0.0784 -0.0994
 5808PP      PP15912  12.238   6.893   0.191 -0.0219  0.0103 -0.2905
 5809PP      PP15913   1.545   8.696   1.230  0.0907  0.0361  0.1771
 5810PP      PP15914   9.098  11.366  12.674  0.3647  0.0329 -0.1283
 5811PP      PP15915   4.437   5.197   0.503 -0.2028  0.0845 -0.1418
 5812PP      PP15916   4.059  10.721  12.217  0.2778 -0.0124 -0.0927
 5813PP      PP15917   7.810  15.540  10.497 -0.1725  0.0535  0.2472
 5814PP      PP15918  15.213   8.526  11.722 -0.1322  0.1493  0.1080
 5815PP      PP15919  14.582   6.397   1.628  0.0917 -0.1237  0.0674
 5816PP      PP15920  15.503  11.809   0.939  0.0443 -0.1631 -0.0481
 5817PP      PP15921   0.444   5.201   9.703  0.0281  0.0933 -0.0166
 5818PP      PP15922  11.951  14.298  10.827  0.2031 -0.0048 -0.2144
 5819PP      PP15923  13.483   7.445  11.235  0.1152  0.4304 -0.3510
 5820PP      PP15924  14.577  15.644   3.516 -0.2541  0.0399 -0.2593
 5821PP      PP15925   7.225   9.006  10.990  0.0677 -0.0212 -0.3118
 5822PP      PP15926   6.698  12.617   8.433 -0.1627  0.0030 -0.4088
 5823PP      PP15927   9.604  11.561  12.539  0.1314  0.0817  0.0691
 5824PP      PP15928  12.550   2.286  11.098 -0.1228 -0.1132  0.0332
 5825PP      PP15929   1.972   5.574  10.585  0.1334 -0.2331  0.1442
 5826PP      PP15930   9.849   0.913   4.029 -0.3479  0.2300  0.2303
 5827PP      PP15931  15.222   2.020  11.872  0.0853  0.0408  0.0872
 5828PP      PP15932  14.451   7.310  13.510 -0.2739 -0.0492 -0.1492
 5829PP      PP15933   9.347  11.069   0.324 -0.0173  0.0443  0.1550
 5830PP      PP15934   4.175  11.059   3.098  0.1164  0.2171  0.1092
 5831PP      PP15935   6.815  11.470   4.057 -0.0445 -0.0357  0.1731
 5832PP      PP15936   6.483   7.730  11.799 -0.0710  0.1193 -0.1582
 5833PP      PP15937   2.605   3.524  10.516  0.0807 -0.0434  0.2315
 5834PP      PP15938   2.351   7.383   0.843  0.2921 -0.1195  0.3577
 5835PP      PP15939   4.952  15.754   7.979  0.1590 -0.4081 -0.0009
 5836PP      PP15940   3.182  10.513  12.677 -0.0186 -0.0837  0.2322
 5837PP      PP15941  13.129   8.307   4.334  0.1455 -0.2361 -0.2919
 5838PP      PP15942   5.512   9.339  10.190  0.0294  0.1157  0.1758
 5839PP      PP15943  10.978   2.917  13.489  0.0106  0.2676  0.1283
 5840PP      PP15944   2.239  13.501  11.531  0.1799  0.0778  0.1416
 5841PP      PP15945  12.773   0.655   3.266 -0.1005 -0.0273  0.1092
 5842PP      PP15946   7.283  15.614   1.895 -0.2640 -0.1278 -0.1618
 5843PP      PP15947  10.101  10.861   5.183  0.1098 -0.0887  0.0912
 5844PP      PP15948   8.766   2.689   9.632 -0.2123  0.3099 -0.0010
 5845PP      PP15949   1.665  15.195  13.212  0.0976 -0.0333 -0.2628
 5846PP      PP15950  15.779  15.565   4.154  0.0087  0.1304 -0.1501
 5847PP      PP15951  10.880   7.609  13.024 -0.3900  0.3001 -0.0201
 5848PP      PP15952   1.766   7.681  11.516  0.3224  0.1002  0.0723
 5849PP      PP15953  13.432   0.485  10.412 -0.3455 -0.1134  0.2613
 5850PP      PP15954   0.704   5.399  10.560 -0.0120 -0.1380  0.3263
 5851PP      PP15955  15.831   7.768   1.253  0.0348 -0.0567 -0.1867
 5852PP      PP15956   0.332  12.198   4.872  0.0065 -0.2567 -0.0003
 5853PP      PP15957  11.898  11.463  11.187  0.1206  0.2422  0.0907
 5854PP      PP15958   9.729   9.948   4.548 -0.1022 -0.2354  0.0532
 5855PP      PP15959   9.305   4.820   2.064 -0.1070 -0.1616 -0.0523
 5856PP      PP15960   7.077   3.297   0.930 -0.1723 -0.1391  0.0082
 5857PP      PP15961   1.255   3.942   9.989  0.3099  0.0710  0.1971
 5858PP      PP15962   7.039   8.224  12.386  0.1052  0.0439  0.1990
 5859PP      PP15963  14.959  12.214   9.392 -0.1259  0.0172 -0.1871
 5860PP      PP15964  13.628   1.936   4.080  0.1063 -0.1191 -0.4250
 5861PP      PP15965  15.037  12.623  10.665 -0.0000 -0.1111  0.2084
 5862PP      PP15966   5.373   3.265  10.334  0.2547  0.0421 -0.0914
 5863PP      PP15967   6.550   3.499   2.696  0.1478  0.2087  0.1083
 5864PP      PP15968  11.473   1.590  11.624 -0.0267  0.1651  0.0027
 5865PP      PP15969  12.147  11.644   0.048 -0.2056  0.1022 -0.0115
 5866PP      PP15970  10.228   2.691   3.197 -0.4315 -0.0360  0.1885
 5867PP      PP15971  12.672  14.370  10.241  0.0978 -0.2086  0.1214
 5868PP      PP15972  15.529  10.305  12.892 -0.1602 -0.0850 -0.1741
 5869PP      PP15973   1.063  14.571   9.419 -0.1032  0.1842  0.0186
 5870PP      PP15974   8.137   6.883  11.637 -0.0245  0.2141  0.2296
 5871PP      PP15975  14.530   8.217  13.131  0.1324  0.0682  0.2054
 5872PP      PP15976   2.026   7.161   5.329  0.0533  0.1382  0.2316
 5873PP      PP15977   6.937   5.826   9.929  0.2418 -0.0935 -0.0137
 5874PP      PP15978  13.186   9.632   1.669 -0.1396  0.0881 -0.4191
 5875PP      PP15979   2.064   9.633   4.819  0.0089  0.0211 -0.0422
 5876PP      PP15980   4.818  10.881   3.646  0.1163 -0.1214  0.1865
 5877PP      PP15981   6.835   6.655  10.198  0.1926 -0.0415  0.1380
 5878PP      PP15982  11.935   3.212   9.810  0.1950  0.0834 -0.1032
 5879PP      PP15983   6.335  12.461   9.766 -0.1529 -0.0775  0.1948
 5880PP      PP15984   3.081  10.351  10.586  0.3122  0.0510  0.2031
 5881PP      PP15985   7.774   3.490   1.760  0.2041  0.1484 -0.3569
 5882PP      PP15986   7.583  12.153  10.404  0.0791 -0.3356 -0.2781
 5883PP      PP15987  13.676   3.742   3.454 -0.1056 -0.0781  0.1235
 5884PP      PP15988   7.311   5.574   4.026  0.0283  0.2044 -0.1122
 5885PP      PP15989  11.875  10.437   9.715 -0.3071 -0.1266  0.3368
 5886PP      PP15990  14.098   1.656  12.038 -0.1186  0.0198  0.2686
 5887PP      PP15991   1.277  14.480   0.548 -0.0526 -0.0529  0.3456
 5888PP      PP15992  12.174   0.351   8.850  0.2903 -0.0704 -0.1588
 5889PP      PP15993  13.040   0.040  11.184  0.1625 -0.0103  0.1811
 5890PP      PP15994   1.381  12.448  10.917 -0.2054 -0.2951 -0.0567
 5891PP      PP15995   3.560   7.721   1.074 -0.2187  0.1409  0.0226
 5892PP      PP15996  13.190   1.038   1.825  0.0902  0.0769 -0.0678
 5893PP      PP15997  14.104  10.439   5.362  0.2818 -0.0864  0.2988
 5894PP      PP15998   5.923  13.085   1.800  0.2474  0.1443 -0.0122
 5895PP      PP15999   6.382   0.353   2.891 -0.1376 -0.2907  0.4540
 5896PP      PP16000   8.700   0.695   0.447 -0.0952 -0.0985  0.2879
 5897PP      PP16001  10.329   0.867   1.652  0.1750  0.0241  0.1515
 5898PP      PP16002  12.749   2.221   3.425  0.2813 -0.0590  0.0938
 5899PP      PP16003  12.547   1.422   1.044  0.0770 -0.0773  0.2046
 5900PP      PP16004  14.820   8.570  12.919 -0.1251  0.1061  0.2423
 5901PP      PP16005   1.343   2.461   8.685  0.0532 -0.0285 -0.1605
 5902PP      PP16006   0.781  13.609   3.181 -0.1244 -0.2894  0.2460
 5903PP      PP16007   9.132  10.588   2.881  0.2097 -0.1274 -0.5673
 5904PP      PP16008   2.655   6.969   2.544  0.1309 -0.2034  0.1333
 5905PP      PP16009  11.476  10.341   3.329  0.0980  0.1462 -0.0694
 5906PP      PP16010   7.957  13.515   9.461  0.0281  0.0992  0.0278
 5907PP      PP16011  12.885  11.728   2.293  0.0133 -0.0674  0.0786
 5908PP      PP16012  12.735   7.756   3.966 -0.0636 -0.0527  0.1396
 5909PP      PP16013   3.060  15.447  10.827 -0.1695  0.2201 -0.0207
 5910PP      PP16014   0.117   7.268   1.101  0.1118  0.0557 -0.0064
 5911PP      PP16015  11.167  13.407   1.553 -0.1319  0.0192 -0.0252
 5912PP      PP16016  15.099  12.351  11.389 -0.2143 -0.2275  0.2022
 5913PP      PP16017  10.684   4.014   3.065  0.0333 -0.0831 -0.1295
 5914PP      PP16018   7.429  13.222   0.287  0.1389  0.1341  0.3178
 5915PP      PP16019   9.317   0.929   0.375 -0.3268 -0.0288  0.0587
 5916PP      PP16020   0.636   5.850   0.799  0.1285 -0.0419  0.2805
 5917PP      PP16021   9.146   5.532   0.800 -0.1223  0.0181 -0.0313
 5918PP      PP16022   5.958  15.807   1.480 -0.0556  0.0908  0.0948
 5919PP      PP16023  11.263  13.408  11.351  0.1279 -0.1156 -0.2380
 5920PP      PP16024   3.134  14.576  12.277  0.2228 -0.0659  0.2091
 5921PP      PP16025  10.476   6.748  11.019  0.0767  0.0841  0.4035
 5922PP      PP16026   5.874  13.560   9.252  0.0810 -0.1638  0.2252
 5923PP      PP16027   0.296  14.980   0.714 -0.1211 -0.2074  0.2114
 5924PP      PP16028  12.514   1.423   3.941  0.0700  0.0931  0.3369
 5925PP      PP16029   6.850  15.318   1.980  0.1375 -0.0565  0.0094
 5926PP      PP16030   5.351   9.519  11.472 -0.2996 -0.0805  0.0878
 5927PP      PP16031  10.188  14.621   1.579  0.1970 -0.0422  0.1506
 5928PP      PP16032   9.518   5.600  10.213 -0.0073 -0.0731  0.1684
 5929PP      PP16033  11.604   4.388  11.560  0.3632 -0.1446  0.2884
 5930PP      PP16034   3.941  14.200   9.713  0.1651 -0.3983 -0.0264
 5931PP      PP16035   7.928  14.448   2.418  0.1880  0.1782  0.2972
 5932PP      PP16036   0.536   7.748   0.962  0.2541  0.4345 -0.2605
 5933PP      PP16037   4.299  14.620   0.011  0.0572  0.0159 -0.0397
 5934PP      PP16038   4.776   2.640  10.235 -0.0313 -0.0185  0.2174
 5935PP      PP16039   5.590   5.612   0.734  0.3358  0.2115 -0.0681
 5936PP      PP16040   8.271   6.060   3.692  0.0310 -0.1815  0.1915
 5937PP      PP16041  12.481  11.160   3.768 -0.0484  0.0561 -0.2729
 5938PP      PP16042   9.509   8.450  11.936 -0.3083 -0.1077  0.4063
 5939PP      PP16043   9.813   2.571   9.739  0.0573  0.0031 -0.2620
 5940PP      PP16044  12.534   8.735  12.478  0.0550  0.0614  0.0390
 5941PP      PP16045  14.261  13.376  12.360  0.3102 -0.0825  0.1191
 5942PP      PP16046   2.996   9.634  10.851  0.0948  0.1100  0.0520
 5943PP      PP16047   8.133  11.404   3.537  0.0744  0.1926  0.3125
 5944PP      PP16048  12.140   5.850  12.154 -0.2434 -0.0425 -0.1959
 5945PP      PP16049   1.158  13.410   9.743  0.0843  0.1518  0.1094
 5946PP      PP16050   3.148  12.666   3.831  0.3410  0.0890  0.4243
 5947PP      PP16051   0.058   6.042   0.273 -0.0524 -0.2660 -0.0453
 5948PP      PP16052  10.875  15.830   4.183 -0.2821  0.1287  0.0623
 5949PP      PP16053  14.055   3.161  10.867 -0.0003  0.2286  0.0092
 5950PP      PP16054   9.589  14.619   2.222  0.1463 -0.1493 -0.0399
 5951PP      PP16055   2.189  13.227   3.772  0.0707 -0.0128 -0.0037
 5952PP      PP16056  14.539  13.100   9.050 -0.1880 -0.1556 -0.2341
 5953PP      PP16057   9.523  14.548  12.122 -0.0979  0.4635 -0.1418
 5954PP      PP16058   1.099  12.590   3.560 -0.2309  0.1314 -0.1383
 5955PP      PP16059   2.428   5.512   1.773 -0.1332 -0.1029 -0.1411
 5956PP      PP16060   2.203  10.659   5.022 -0.2236 -0.2410  0.0264
 5957PP      PP16061   0.675   5.356   1.218  0.0950  0.0440  0.0054
 5958PP      PP16062   5.197   0.725   3.008 -0.1620 -0.1440 -0.1362
 5959PP      PP16063   2.382   9.250  10.455  0.2673 -0.1592  0.0310
 5960PP      PP16064   7.531   4.243   0.898  0.1000  0.1385  0.3224
 5961PP      PP16065  14.798   9.786   3.508  0.0528 -0.0136 -0.2251
 5962PP      PP16066   7.345   3.896   8.902  0.1492 -0.1713  0.2205
 5963PP      PP16067   5.929   3.357  12.013 -0.2316  0.1282  0.1841
 5964PP      PP16068   3.620  11.036   3.952 -0.2910 -0.0685  0.0799
 5965PP      PP16069   5.184   5.284   0.579  0.0978  0.0365 -0.0919
 5966PP      PP16070  11.889  14.464  13.190 -0.0757  0.0356 -0.0510
 5967PP      PP16071   7.122  12.408   2.755  0.1045  0.1285  0.0691
 5968PP      PP16072   8.737  13.843   0.131 -0.1559  0.1644 -0.3809
 5969PP      PP16073  14.248   6.080  11.027 -0.1205  0.1099  0.1452
 5970PP      PP16074  13.513   3.558  13.076  0.2890  0.2616  0.0462
 5971PP      PP16075   1.027   5.642   4.485  0.1434 -0.1187  0.2535
 5972PP      PP16076  13.167   4.981   9.708 -0.1984  0.0848  0.2257
 5973PP      PP16077   6.029   0.604  13.152 -0.2421 -0.5542  0.1688
 5974PP      PP16078   6.322   0.142  11.296 -0.2925  0.0939 -0.0450
 5975PP      PP16079   0.400   7.516   3.472 -0.1247  0.0352 -0.0783
 5976PP      PP16080   2.524  11.531   1.364 -0.0598 -0.1329 -0.2865
 5977PP      PP16081  14.615  15.719   3.026  0.1754  0.0726 -0.1943
 5978PP      PP16082  13.125   6.741  10.538  0.1444 -0.2142 -0.2099
 5979PP      PP16083  11.713   8.855   9.452  0.1362 -0.2699  0.1082
 5980PP      PP16084   0.578  10.924   3.343 -0.0393  0.1221  0.1849
 5981PP      PP16085   3.266  14.544  13.285  0.2221  0.0166  0.3566
 5982PP      PP16086  14.138   5.103   1.541 -0.1213 -0.0969  0.3112
 5983PP      PP16087   7.517  13.593  13.121  0.0221 -0.1052  0.1310
 5984PP      PP16088   0.921  13.534   0.885  0.2455  0.1608  0.0154
 5985PP      PP16089  12.349  15.085  10.810 -0.2753  0.1287 -0.4928
 5986PP      PP16090   9.443   4.561  12.254  0.2480  0.1103 -0.2249
 5987PP      PP16091  12.478   3.206   9.769 -0.1991  0.1163  0.2980
 5988PP      PP16092   9.714   2.281  11.161  0.0847  0.3228  0.1830
 5989PP      PP16093  11.583   7.717   1.280  0.1493 -0.1539  0.0371
 5990PP      PP16094   9.742   0.400   4.212 -0.1079  0.1004 -0.1442
 5991PP      PP16095   9.961   8.574   9.913  0.2431 -0.1727  0.2665
 5992PP      PP16096   0.510  15.082  11.611  0.3973  0.2578 -0.0995
 5993PP      PP16097   1.598   1.769   8.820  0.1435  0.1886  0.2579
 5994PP      PP16098   6.839  13.797  10.779 -0.0024 -0.0836 -0.1994
 5995PP      PP16099  12.705   5.698   5.194 -0.0224  0.1078  0.1960
 5996PP      PP16100   3.880   4.319   3.400  0.3841  0.1998 -0.0704
 5997PP      PP16101   2.131   4.837  10.058 -0.0273  0.4989 -0.0481
 5998PP      PP16102   6.643  13.015   9.005  0.0190 -0.0167  0.0656
 5999PP      PP16103   1.225  12.186   9.935 -0.0446  0.1219  0.0432
 6000PP      PP16104   8.153  10.952  11.560 -0.0493  0.0286 -0.0670
 6001PP      PP16105   5.343  11.390   1.363 -0.0621 -0.0165 -0.0429
 6002PP      PP16106   6.158  10.763   1.019  0.1813 -0.1116 -0.0499
 6003PP      PP16107  15.099   1.072   0.589  0.2562 -0.0922  0.1156
 6004PP      PP16108  14.766   0.073  11.599 -0.0208  0.1679 -0.1613
 6005PP      PP16109   9.568  14.893   9.333  0.1897  0.0588 -0.0965
 6006PP      PP16110   0.572   9.004   9.901 -0.1645  0.1978  0.1539
 6007PP      PP16111  14.289   9.020  11.504 -0.1156  0.0301 -0.0842
 6008PP      PP16112   2.360  11.109   0.941 -0.0083  0.2783  0.1169
 6009PP      PP16113   7.230  11.455   0.165 -0.0842 -0.0740 -0.1150
 6010PP      PP16114   9.031   9.606  12.016 -0.1326 -0.3735  0.2033
 6011PP      PP16115   5.779  12.213   1.287 -0.2404  0.1825 -0.4029
 6012PP      PP16116  14.642  12.974  11.509 -0.2315  0.4679  0.1725
 6013PP      PP16117   9.017  11.335   2.198 -0.0253 -0.3132 -0.0036
 6014PP      PP16118  12.314   6.040   2.721 -0.2104 -0.2349  0.2106
 6015PP      PP16119  13.486   0.089   9.488  0.4506  0.0140  0.1780
 6016PP      PP16120  11.810  11.949   0.485 -0.1833 -0.1872  0.0015
 6017PP      PP16121  11.404   8.600  11.427 -0.2635 -0.2095 -0.1799
 6018PP      PP16122   9.105   3.017   3.665  0.3350  0.5084  0.0599
 6019PP      PP16123   7.372  14.065   8.944 -0.2139 -0.1097 -0.3345
 6020PP      PP16124  15.153  13.844   0.723  0.1327 -0.0978 -0.1986
 6021PP      PP16125  15.371   5.804   3.442  0.3285 -0.1539 -0.1175
 6022PP      PP16126   8.113  11.027   9.635 -0.0092  0.1187 -0.1325
 6023PP      PP16127   9.695   6.054   9.490 -0.1421  0.0204  0.0486
 6024PP      PP16128   3.167  13.355   9.710  0.0454 -0.0110  0.2154
 6025PP      PP16129  14.229  14.487   2.297  0.0772 -0.2125 -0.0165
 6026PP      PP16130   8.582   1.380   1.444  0.3552  0.2401  0.0246
 6027PP      PP16131   4.709   5.288   4.795  0.4562  0.2447 -0.1297
 6028PP      PP16132  10.916   7.886  12.628 -0.0968 -0.1955  0.1277
 6029PP      PP16133   9.650  13.948   3.139 -0.0751 -0.1181 -0.0736
 6030PP      PP16134  15.299  15.681  11.593  0.1699  0.3392  0.0007
 6031PP      PP16135   9.114  14.987   2.900  0.0014  0.1109 -0.0521
 6032PP      PP16136   4.677  14.968   1.120 -0.1410  0.1961 -0.0972
 6033PP      PP16137  13.242  13.094   9.456 -0.2211 -0.3582 -0.0080
 6034PP      PP16138  10.971  14.230   1.317 -0.0394  0.2050  0.1100
 6035PP      PP16139   8.274   1.809   8.630  0.0543  0.0473 -0.0185
 6036PP      PP16140   8.189   7.561   1.148 -0.0722 -0.1615  0.1813
 6037PP      PP16141   0.806  14.370  11.008 -0.0482  0.2372  0.0235
 6038PP      PP16142   3.252   8.459   4.129  0.3008 -0.1234  0.0518
 6039PP      PP16143  13.799   2.541  10.300  0.2848 -0.2170  0.1286
 6040PP      PP16144  12.760   7.791  11.531  0.0825 -0.1321 -0.0928
 6041PP      PP16145   2.462   3.858   0.189 -0.2037  0.0266  0.1531
 6042PP      PP16146  13.173   3.287   2.275 -0.0293  0.1735  0.1654
 6043PP      PP16147  15.421   2.595  11.007  0.2736 -0.1614  0.2180
 6044PP      PP16148   2.154   3.336  11.552 -0.0486 -0.0617 -0.1823
 6045PP      PP16149  15.667   1.993   0.889  0.0203 -0.1972  0.1571
 6046PP      PP16150  12.089   4.862   0.793  0.1932  0.2683 -0.2937
 6047PP      PP16151  11.223   2.734  12.551  0.0237  0.0089  0.0922
 6048PP      PP16152  14.072   5.734   4.156 -0.0130 -0.0881  0.2959
 6049PP      PP16153   4.310  15.455   7.738  0.1771  0.0969  0.0508
 6050PP      PP16154  15.445   5.450   3.883 -0.1315  0.2596  0.2879
 6051PP      PP16155   4.455   8.571  13.093 -0.1012 -0.4457  0.0779
 6052PP      PP16156   5.968   4.515   1.849 -0.1452 -0.2352 -0.1250
 6053PP      PP16157   4.913  10.043  12.503 -0.3733  0.2777 -0.3757
 6054PP      PP16158  11.718   3.732   3.370 -0.4030 -0.1192 -0.1844
 6055PP      PP16159  13.532   3.034  10.576  0.0604  0.2788 -0.0900
 6056PP      PP16160   9.617  15.765   2.937  0.2290  0.2287  0.2087
 6057PP      PP16161   1.716  11.614   2.247  0.2825  0.1203 -0.0080
 6058PP      PP16162  15.650   3.692  10.865 -0.0968  0.1239 -0.2478
 6059PP      PP16163   1.560  12.225  12.058  0.0190 -0.0713  0.1900
 6060PP      PP16164   3.152  14.421  12.803 -0.3395 -0.1016 -0.0375
 6061PP      PP16165   1.650  15.428   0.848  0.1517  0.2860  0.1584
 6062PP      PP16166  11.628  11.588  12.233  0.1026  0.0791  0.1477
 6063PP      PP16167  11.908   2.724   0.388  0.1864  0.0976 -0.0723
 6064PP      PP16168   6.143   7.957   9.583  0.0881 -0.2455 -0.0486
 6065PP      PP16169   7.627   4.511  12.705 -0.1122 -0.0353 -0.1348
 6066PP      PP16170   0.269   4.654   0.388 -0.0725  0.2333 -0.1729
 6067PP      PP16171   7.695   6.491   3.306 -0.0055 -0.0372 -0.1006
 6068PP      PP16172   9.489  11.822  11.946  0.2497 -0.0499  0.3215
 6069PP      PP16173  13.502   5.130  11.220 -0.2030 -0.2079  0.0350
 6070PP      PP16174   4.064   6.436  12.464  0.0317 -0.2616  0.2363
 6071PP      PP16175  11.478   1.173  13.426 -0.1805  0.0016  0.1814
 6072PP      PP16176   5.710   5.889   3.603  0.0455 -0.3193 -0.0754
 6073PP      PP16177   8.841   1.616  13.069 -0.0708  0.1572 -0.0088
 6074PP      PP16178  10.824   9.734   3.591  0.0105 -0.0296  0.3434
 6075PP      PP16179   5.359   8.447   0.796 -0.3426  0.0287  0.1868
 6076PP      PP16180  11.161  13.415  12.202 -0.0738  0.1020 -0.1323
 6077PP      PP16181   2.917  12.993   4.149  0.0950 -0.2253 -0.2064
 6078PP      PP16182  14.160   5.355  10.978 -0.1181  0.1382 -0.1143
 6079PP      PP16183   4.786   2.744  12.110 -0.1130  0.3543  0.3495
 6080PP      PP16184  13.727   1.150   1.409  0.2352  0.3600 -0.1274
 6081PP      PP16185   5.151   3.638  13.351  0.0435 -0.0442 -0.1078
 6082PP      PP16186   3.473   6.691  11.105  0.0395  0.2294  0.0226
 6083PP      PP16187  14.101   3.881   0.073 -0.2404 -0.2203 -0.2426
 6084PP      PP16188   7.544   4.521  11.784  0.0242  0.1760  0.1180
 6085PP      PP16189   8.038   0.979   9.983 -0.0200  0.0004 -0.2773
 6086PP      PP16190   0.537   3.815  13.395  0.3012 -0.2704  0.0273
 6087PP      PP16191   4.528  14.185   0.331 -0.1045  0.0640  0.1187
 6088PP      PP16192  15.622   7.332   1.568 -0.0099 -0.1995 -0.2232
 6089PP      PP16193   7.489  15.778   8.880 -0.3983 -0.1581  0.2123
 6090PP      PP16194  13.992  14.667   1.905 -0.2813 -0.2801 -0.1373
 6091PP      PP16195   8.008   1.559   9.063 -0.1554  0.0215  0.1889
 6092PP      PP16196  11.180   9.276   0.586 -0.0602  0.0448  0.0350
 6093PP      PP16197   5.487  10.970   4.492  0.1970  0.2803 -0.0371
 6094PP      PP16198   4.954   4.867   0.376  0.0798 -0.2675 -0.1368
 6095PP      PP16199  10.890  15.660  13.462 -0.0759 -0.0109  0.2616
 6096PP      PP16200  15.415   4.701  11.176 -0.1036 -0.0663  0.0648
 6097PP      PP16201   8.978   0.509   1.683 -0.0417  0.4110  0.1771
 6098PP      PP16202   6.634   8.558   1.308 -0.0410  0.2796 -0.1035
 6099PP      PP16203   8.513   2.132  12.442 -0.0395  0.0678 -0.0596
 6100PP      PP16204   7.060  12.225  12.141 -0.0739  0.1729  0.2557
 6101PP      PP16205  11.735  15.802  10.871 -0.3081 -0.1339 -0.2179
 6102PP      PP16206   0.864   9.355   1.020 -0.1135  0.1234  0.2372
 6103PP      PP16207  13.093  11.368  10.107  0.0896 -0.0655  0.3960
 6104PP      PP16208  12.589  11.763   0.390 -0.1984 -0.1901  0.1061
 6105PP      PP16209   2.656   2.112   0.770  0.0284  0.0684 -0.1691
 6106PP      PP16210  11.589   2.382   2.684  0.0978 -0.1674  0.1333
 6107PP      PP16211  10.807   0.294   1.141 -0.1103 -0.0252 -0.1461
 6108PP      PP16212   2.375   6.030   4.310  0.0873 -0.2057  0.2567
 6109PP      PP16213  11.695   1.467   1.707 -0.0220  0.0119 -0.0770
 6110PP      PP16214   3.721   9.639   4.465 -0.2949  0.0949 -0.1398
 6111PP      PP16215   1.934   1.728   3.754  0.2323 -0.0839 -0.3888
 6112PP      PP16216   2.521  10.854  11.388  0.2062 -0.0979 -0.0245
 6113PP      PP16217   3.580  15.055   2.851  0.0767 -0.1694  0.1991
 6114PP      PP16218   2.920   9.858   2.500  0.3082 -0.1691  0.0100
 6115PP      PP16219   0.655   0.352  11.596 -0.3046 -0.0635  0.0696
 6116PP      PP16220   9.712   0.425   1.083  0.0343 -0.0367  0.0801
 6117PP      PP16221   0.182   3.825   4.665  0.1514  0.2459 -0.2118
 6118PP      PP16222   6.245  14.803   2.480 -0.1124  0.3543  0.0414
 6119PP      PP16223   3.883   2.840   3.397  0.0355 -0.0912 -0.1170
 6120PP      PP16224  13.747   1.863   0.399  0.1920  0.0428 -0.0091
 6121PP      PP16225   3.490   0.330  12.459  0.2365 -0.2251  0.1800
 6122PP      PP16226   2.875   1.041   3.500 -0.0584  0.3531 -0.0996
 6123PP      PP16227   1.748   8.767   0.774 -0.0802  0.1651  0.0388
 6124PP      PP16228   9.570  11.305   3.915 -0.0656  0.0350  0.0763
 6125PP      PP16229   6.145   1.471   1.188 -0.2618 -0.2119  0.0720
 6126PP      PP16230  14.432   3.349   0.919  0.1623 -0.0047  0.0898
 6127PP      PP16231  14.256  15.779  11.723  0.0921  0.0335 -0.0752
 6128PP      PP16232   3.738   8.183   4.499 -0.3032 -0.0288 -0.0432
 6129PP      PP16233  13.904   0.879   2.394  0.0618  0.0785  0.1100
 6130PP      PP16234   1.202   8.270   2.676 -0.1010 -0.2296  0.1994
 6131PP      PP16235  10.093  10.015   4.018 -0.1205  0.1262  0.2059
 6132PP      PP16236   4.274   1.665  11.452  0.1432 -0.2006  0.2076
 6133PP      PP16237  13.335   7.845  11.528 -0.1312 -0.0260  0.2939
 6134PP      PP16238  12.582   8.889  11.449  0.1813  0.1481  0.1978
 6135PP      PP16239   7.054  12.851  12.017 -0.0640  0.3605  0.1559
 6136PP      PP16240  14.213  13.709   0.724  0.0859  0.1840  0.0575
 6137PP      PP16241   2.782   8.980   2.722 -0.0485 -0.2144 -0.0280
 6138PP      PP16242   9.114   2.544   9.283 -0.0905 -0.2312  0.0688
 6139PP      PP16243  11.873   8.882   1.890 -0.1465 -0.1393  0.2914
 6140PP      PP16244  12.048   4.483  10.355 -0.0396 -0.1754 -0.0017
 6141PP      PP16245  12.198  13.537   9.638  0.0600  0.0359 -0.0567
 6142PP      PP16246   2.330   1.731  11.922  0.1434 -0.0594 -0.1818
 6143PP      PP16247   6.546   3.387  13.116 -0.2975  0.1089 -0.1105
 6144PP      PP16248  15.181  12.080   9.825  0.0055 -0.2443  0.1147
 6145PP      PP16249   8.066   7.050   9.341 -0.5001  0.3354  0.0032
 6146PP      PP16250   2.712   2.049  12.824 -0.1507 -0.0128  0.3383
 6147PP      PP16251   7.944   2.530  12.928 -0.2679  0.3829 -0.3771
 6148PP      PP16252  15.638  10.318  12.335  0.0547 -0.0492 -0.1537
 6149PP      PP16253   2.863   1.912  10.147  0.1599 -0.2450  0.4743
 6150PP      PP16254  13.533   4.552   9.807 -0.0746  0.4191 -0.0687
 6151PP      PP16255   7.339   8.420   3.383  0.1574  0.0826  0.1750
 6152PP      PP16256   6.300   3.376  11.143 -0.1236 -0.1937  0.1290
 6153PP      PP16257   1.834   4.643   2.103  0.2648  0.1710  0.1107
 6154PP      PP16258   3.654   2.943   1.115 -0.1353 -0.0040  0.1530
 6155PP      PP16259   3.245  15.325   9.735  0.2350 -0.0721 -0.0916
 6156PP      PP16260   6.012   9.204   9.394 -0.2030  0.2702 -0.1689
 6157PP      PP16261  11.239  10.955  10.699 -0.3708 -0.0334  0.1807
 6158PP      PP16262   4.236  13.557   1.737 -0.1757 -0.1945  0.0637
 6159PP      PP16263   2.142   9.104   2.120 -0.2292 -0.0432  0.3574
 6160PP      PP16264   9.271   2.328   0.873  0.1046 -0.0055  0.0372
 6161PP      PP16265  10.497  14.408  11.976 -0.0984 -0.0594 -0.2482
 6162PP      PP16266   7.895  15.611  12.238 -0.0504 -0.0994  0.4327
 6163PP      PP16267  11.369  14.175  10.695 -0.0393 -0.1831 -0.2865
 6164PP      PP16268  12.539   2.497   4.495  0.1474 -0.0227  0.0047
 6165PP      PP16269   6.085  10.464  10.798  0.0704  0.0004  0.2355
 6166PP      PP16270   2.206   0.799  11.404 -0.1123  0.1935  0.1583
 6167PP      PP16271   9.648   4.928  10.612  0.1546 -0.1719  0.2942
 6168PP      PP16272  10.047   4.655  13.466  0.0154  0.2652  0.0851
 6169PP      PP16273   7.356   4.561  12.305 -0.2059  0.3713  0.1370
 6170PP      PP16274  11.529   6.033  10.007  0.0920  0.2785 -0.0321
 6171PP      PP16275   4.669   5.206   1.755  0.2187 -0.1132 -0.0690
 6172PP      PP16276   2.632  14.312   9.444  0.0237  0.4831  0.1429
 6173PP      PP16277   0.013  13.558   2.069  0.0511 -0.3485  0.0739
 6174PP      PP16278   5.925   4.390  11.951  0.2368 -0.0142  0.2471
 6175PP      PP16279   7.498  13.120   3.301 -0.3257  0.0606  0.0592
 6176PP      PP16280  12.780   3.097   3.675 -0.1835 -0.0900  0.4696
 6177PP      PP16281   2.878   7.740   3.655 -0.0738  0.0567 -0.0374
 6178PP      PP16282   8.491   8.715  12.353  0.1112  0.0855 -0.1810
 6179PP      PP16283   0.353  12.296   2.070  0.3946  0.3364  0.2045
 6180PP      PP16284   7.373   1.418  10.218 -0.1684 -0.0526  0.0655
 6181PP      PP16285   6.571  13.518  12.109 -0.1640 -0.1327 -0.2245
 6182PP      PP16286   9.708   8.408  12.861  0.2148 -0.0626 -0.1831
 6183PP      PP16287   8.369   8.032   0.331 -0.0047  0.4128 -0.1523
 6184PP      PP16288   1.660   9.162  13.118 -0.0086  0.0924  0.2832
 6185PP      PP16289   1.853   3.480   1.381 -0.0912  0.0568 -0.2134
 6186PP      PP16290  13.330   4.216  12.709  0.2057 -0.3393  0.2184
 6187PP      PP16291   0.085   8.000   5.919  0.0938 -0.0850 -0.1142
 6188PP      PP16292  15.504  10.577  10.396 -0.1929 -0.1667  0.3807
 6189PP      PP16293  14.337   5.627  11.400 -0.1769  0.0827 -0.1707
 6190PP      PP16294   6.928  10.769   2.161  0.0011 -0.3286  0.1152
 6191PP      PP16295   8.223   5.704   3.069 -0.2831  0.3440  0.1182
 6192PP      PP16296  10.114   6.685   4.139 -0.0248 -0.2005  0.1525
 6193PP      PP16297   5.353   6.715  12.450  0.0515 -0.0438 -0.1668
 6194PP      PP16298  11.333  11.393   1.878 -0.2712 -0.0029 -0.0189
 6195PP      PP16299   7.602  11.085  11.327  0.0094 -0.1796 -0.0075
 6196PP      PP16300   6.645   7.296   0.316  0.0111 -0.0400  0.0177
 6197PP      PP16301   3.427   0.368   7.823 -0.5579  0.3917  0.1065
 6198PP      PP16302   0.160   4.180  10.200 -0.2518  0.3907 -0.0599
 6199PP      PP16303   6.183   5.969   0.937  0.0102  0.1375  0.1827
 6200PP      PP16304  13.811   9.847  13.131 -0.2809 -0.0145 -0.1210
 6201PP      PP16305   1.856   6.501   2.588 -0.1593 -0.2361 -0.0969
 6202PP      PP16306  14.628   2.398   0.414 -0.2224 -0.0661 -0.1031
 6203PP      PP16307   0.977   9.723  11.622 -0.0596 -0.1171 -0.2631
 6204PP      PP16308   1.692  11.787   5.314 -0.0863  0.0431  0.3656
 6205PP      PP16309   0.454   3.705   2.513  0.1314  0.0230 -0.0389
 6206PP      PP16310  13.849   0.796  10.395 -0.1097 -0.0651  0.1096
 6207PP      PP16311  14.298   1.666   1.441  0.0026 -0.3359 -0.2260
 6208PP      PP16312  12.891   2.788   0.600 -0.2586  0.0473 -0.0536
 6209PP      PP16313   1.410  15.817  13.516 -0.0150  0.3623 -0.0338
 6210PP      PP16314   8.760   4.486  10.050 -0.0261  0.1040 -0.0957
 6211PP      PP16315   0.859  12.352   1.726  0.1043  0.1682 -0.0522
 6212PP      PP16316  11.086  12.861   3.854 -0.2566 -0.0217 -0.0707
 6213PP      PP16317   3.603  13.677  11.389 -0.2434  0.0348  0.2765
 6214PP      PP16318  10.010   7.805  10.016 -0.2225 -0.2079  0.0949
 6215PP      PP16319   3.890   8.579   1.104  0.0860 -0.0540 -0.1682
 6216PP      PP16320   8.852  12.752   1.410 -0.0582 -0.0324 -0.1515
 6217PP      PP16321   2.067   4.571  12.944 -0.0399 -0.0595 -0.0749
 6218PP      PP16322   1.241  12.886  10.526 -0.0190  0.0014 -0.0512
 6219PP      PP16323   3.626  15.093   3.921 -0.1354 -0.0809 -0.0403
 6220PP      PP16324  12.883  11.240   2.503 -0.0183  0.0753 -0.4521
 6221PP      PP16325   0.381   1.673   1.410  0.3221  0.0455 -0.0905
 6222PP      PP16326   2.273   4.715  13.420 -0.1379  0.1666 -0.2177
 6223PP      PP16327  10.810   1.890   3.272  0.0992 -0.1067 -0.3831
 6224PP      PP16328   5.579  12.355  11.298 -0.0140 -0.0353  0.1464
 6225PP      PP16329  10.939   4.034   0.657 -0.1682  0.1902 -0.0856
 6226PP      PP16330   4.791   5.722   1.807  0.1547 -0.0837  0.3864
 6227PP      PP16331  14.873  11.135   9.717 -0.0794  0.0767 -0.2361
 6228PP      PP16332  15.279   8.929  11.447 -0.1400  0.1810 -0.0667
 6229PP      PP16333   0.818   6.074  10.477  0.0163  0.0257 -0.2110
 6230PP      PP16334  11.948  13.082   1.004 -0.1986 -0.1769  0.0003
 6231PP      PP16335   9.351   5.441   1.739 -0.1316 -0.1705  0.1776
 6232PP      PP16336  10.884   3.545   3.213  0.1247 -0.4365  0.2318
 6233PP      PP16337   8.636   9.937   2.417  0.1456  0.3724 -0.1687
 6234PP      PP16338  15.289  13.936  12.931  0.1896  0.2077  0.1063
 6235PP      PP16339   3.298  11.260   9.629  0.0417 -0.1126  0.2446
 6236PP      PP16340  12.170   0.164   2.262  0.1654  0.1308 -0.0167
 6237PP      PP16341   2.561   7.522   0.220 -0.0890 -0.0457  0.1136
 6238PP      PP16342   4.034   7.383  12.624 -0.0816  0.1972  0.0073
 6239PP      PP16343  13.917  11.092   1.275  0.3338 -0.1782  0.2806
 6240PP      PP16344   6.458   5.191   0.518  0.0942 -0.0540  0.0614
 6241PP      PP16345   0.716   7.220   0.980 -0.2094  0.1088 -0.0636
 6242PP      PP16346  13.075  11.089  13.443 -0.0167  0.0228 -0.0064
 6243PP      PP16347   7.874  12.957  11.961 -0.0887  0.0271  0.0042
 6244PP      PP16348   0.385   1.208   1.456 -0.2052 -0.0199 -0.2304
 6245PP      PP16349   1.372   5.360   3.096  0.2711  0.1442 -0.1823
 6246PP      PP16350  12.048   0.285   1.544 -0.2437  0.2799  0.0677
 6247PP      PP16351  12.150  10.801   3.473 -0.0296 -0.0059  0.0694
 6248PP      PP16352   4.330   3.726  13.441  0.1861  0.1118  0.3279
 6249PP      PP16353  13.853  10.078   1.281  0.0328  0.2637 -0.0744
 6250PP      PP16354   4.992  15.234  10.036  0.1016 -0.2407 -0.0633
 6251PP      PP16355  15.742   9.879   2.036  0.0367 -0.1206  0.0321
 6252PP      PP16356   0.975   5.205  11.585  0.1129  0.0498 -0.1535
 6253PP      PP16357  12.088   8.291   8.803  0.1435  0.1812  0.3329
 6254PP      PP16358   6.989  15.230  12.364  0.0216 -0.0758 -0.0423
 6255PP      PP16359  12.966   1.850   3.192 -0.4356 -0.1270  0.0250
 6256PP      PP16360   8.415   9.460   0.219 -0.0151 -0.0186 -0.1508
 6257PP      PP16361   1.183  15.023  10.251  0.2861  0.1493 -0.0243
 6258PP      PP16362   1.863   6.764  11.857  0.2302  0.3216  0.1765
 6259PP      PP16363   2.158  13.732   3.559 -0.0813 -0.1143  0.0443
 6260PP      PP16364   8.179  12.579   2.517  0.1041 -0.2527  0.1812
 6261PP      PP16365   3.859   6.139  12.826 -0.1591 -0.1081  0.0731
 6262PP      PP16366  13.110   2.662   9.336  0.0297 -0.1063  0.0835
 6263PP      PP16367  13.602   9.148   5.143 -0.3217  0.1983  0.0705
 6264PP      PP16368   7.700  13.046  13.285 -0.1241 -0.0420  0.1959
 6265PP      PP16369   7.706   2.068   0.539 -0.2920 -0.0287  0.3608
 6266PP      PP16370   2.489   9.431   0.264  0.1385  0.2863 -0.1377
 6267PP      PP16371   4.882   3.912  12.504 -0.0252  0.0235  0.0089
 6268PP      PP16372   5.081   2.261   8.795 -0.1778 -0.0643 -0.0168
 6269PP      PP16373   8.891   6.256   3.504  0.3628  0.1116  0.0002
 6270PP      PP16374  14.406  15.061   2.067 -0.5168  0.3017 -0.0117
 6271PP      PP16375   3.577  15.397   1.669  0.2263  0.1908 -0.0096
 6272PP      PP16376   5.431  14.826   2.094  0.2294 -0.2194 -0.0878
 6273PP      PP16377  15.438   7.938   3.042 -0.1249 -0.0024 -0.0493
 6274PP      PP16378  11.221   5.399  11.578 -0.0039 -0.1768  0.0399
 6275PP      PP16379  15.726  15.533   9.743 -0.1639 -0.3054  0.1788
 6276PP      PP16380   0.961   5.584   9.700 -0.0104  0.0131 -0.0948
 6277PP      PP16381   4.623  14.196   8.211 -0.2899  0.0097 -0.2404
 6278PP      PP16382  15.794  13.213  10.564  0.1311  0.2280 -0.0627
 6279PP      PP16383  12.767  12.665   3.333  0.3097  0.3052  0.1883
 6280PP      PP16384  11.824  12.667  11.254 -0.0738  0.2038 -0.1518
 6281PP      PP16385  14.011   2.504  12.426  0.1046  0.2101  0.1519
 6282PP      PP16386   1.188   7.264  12.544 -0.0259 -0.0791 -0.2848
 6283PP      PP16387   1.944   6.082   0.224 -0.1976  0.1142  0.3836
 6284PP      PP16388   7.768  11.546   3.940 -0.2983  0.2406 -0.0580
 6285PP      PP16389  12.333  12.529   2.464  0.1342  0.0270 -0.0630
 6286PP      PP16390  11.335   3.888   9.524 -0.0877 -0.0582 -0.0813
 6287PP      PP16391  12.169   5.574  12.601 -0.2471  0.0298  0.0579
 6288PP      PP16392   7.660   0.962  13.290 -0.0280 -0.1147 -0.2274
 6289PP      PP16393   2.922  13.166   2.707 -0.1734  0.0521  0.3115
 6290PP      PP16394   1.014   2.889   0.077 -0.1375 -0.0282  0.1155
 6291PP      PP16395   3.136   5.529  12.641  0.0142  0.0211 -0.2413
 6292PP      PP16396   0.362  12.367   1.487 -0.0962  0.0821  0.1599
 6293PP      PP16397   5.640  11.059   9.640 -0.1838 -0.0659 -0.1830
 6294PP      PP16398   1.131   0.056   9.167  0.1013  0.3526 -0.1390
 6295PP      PP16399   3.712   6.580   2.180 -0.0193  0.1547  0.4454
 6296PP      PP16400   6.745  14.544   1.233  0.1211 -0.0774  0.2819
 6297PP      PP16401  10.119  10.857   4.662  0.0905  0.2273 -0.2343
 6298PP      PP16402   9.995   0.522  11.892  0.1720 -0.0111  0.3725
 6299PP      PP16403   8.751  15.712   2.566 -0.2590 -0.2247  0.1183
 6300PP      PP16404   4.779  14.625   1.511  0.1814 -0.1049  0.1513
 6301PP      PP16405   5.730  10.897   0.755 -0.0267  0.2951  0.0284
 6302PP      PP16406  13.797   4.898  10.841  0.1803 -0.1647  0.3815
 6303PP      PP16407   5.483   2.392   1.308 -0.0005 -0.0843  0.2206
 6304PP      PP16408  10.220  13.289   9.683 -0.1287  0.0674 -0.0392
 6305PP      PP16409   0.641  15.448   3.378 -0.0528  0.0573  0.3845
 6306PP      PP16410   1.676  14.056   2.867 -0.0464 -0.0589  0.2443
 6307PP      PP16411  12.148  14.965   3.000 -0.0015 -0.0334  0.3491
 6308PP      PP16412   8.349   4.692   0.140  0.3293  0.1576  0.1883
 6309PP      PP16413  11.016  12.740   3.259 -0.1385 -0.1652 -0.1592
 6310PP      PP16414   0.435  12.766   9.493 -0.2587  0.0114 -0.1020
 6311PP      PP16415  15.230   5.095   2.278 -0.0988 -0.0435 -0.0601
 6312PP      PP16416  10.767   9.466   0.867  0.0720 -0.2475  0.4100
 6313PP      PP16417   2.581  10.693   9.859 -0.0658  0.1351  0.2032
 6314PP      PP16418  15.526   8.911  13.481 -0.0375 -0.0814  0.0585
 6315PP      PP16419   9.188  13.035  11.725  0.0008 -0.0849  0.0430
 6316PP      PP16420   2.052   3.970  11.985  0.1396  0.0772 -0.3035
 6317PP      PP16421   0.138  13.742  10.553 -0.1498  0.1898 -0.2761
 6318PP      PP16422   6.275   7.624   0.029  0.1360  0.1611  0.3060
 6319PP      PP16423   5.599  11.663   0.476  0.2342 -0.3183  0.1147
 6320PP      PP16424   8.673   2.285   1.855  0.0522 -0.0468  0.2126
 6321PP      PP16425  14.023   2.948   2.383  0.1071  0.3329 -0.0393
 6322PP      PP16426  13.117   7.924   0.695 -0.2039  0.1075  0.3006
 6323PP      PP16427  12.141   0.780  12.549 -0.3809 -0.0354 -0.1585
 6324PP      PP16428   8.956  11.456  10.899  0.0183 -0.1711 -0.2436
 6325PP      PP16429  10.226   6.242  10.205 -0.0448 -0.1350  0.2225
 6326PP      PP16430  13.360   8.650  13.010  0.0741 -0.0217  0.0585
 6327PP      PP16431   8.048   7.070   1.059 -0.0141  0.2297 -0.0989
 6328PP      PP16432   9.712  12.997   2.710 -0.0470 -0.2423  0.1943
 6329PP      PP16433  10.955  11.913   2.559  0.0920  0.0201  0.3045
 6330PP      PP16434  10.931   3.784  13.409 -0.1852 -0.1307 -0.0985
 6331PP      PP16435   6.716  13.494   0.986 -0.2064  0.2559 -0.1653
 6332PP      PP16436   8.296   3.467  11.883  0.0420 -0.3629 -0.0214
 6333PP      PP16437   6.105   8.762   9.798  0.0808 -0.1019 -0.0173
 6334PP      PP16438  13.655   4.046   3.831  0.0888  0.0762 -0.0124
 6335PP      PP16439  10.574  10.766  12.089  0.0871 -0.2253  0.0074
 6336PP      PP16440  14.185  12.650   4.917  0.1740 -0.1792  0.1499
 6337PP      PP16441  12.121   6.293   9.236  0.0697 -0.2134 -0.1519
 6338PP      PP16442   6.942   9.203   2.024  0.0623 -0.2906 -0.2846
 6339PP      PP16443  12.008   8.321   9.285  0.1090  0.0101  0.1708
 6340PP      PP16444  13.484   2.376   1.414  0.3203 -0.1244 -0.0867
 6341PP      PP16445   2.380  15.822   9.974 -0.1556 -0.3425 -0.3361
 6342PP      PP16446   6.610  12.516   0.846 -0.2212 -0.1028 -0.0500
 6343PP      PP16447   3.693   9.002  13.368  0.1891 -0.1374 -0.2572
 6344PP      PP16448   5.791  12.470   9.318  0.1029 -0.1391 -0.0271
 6345PP      PP16449  11.614   1.417   3.539 -0.0302  0.2927 -0.1306
 6346PP      PP16450  13.054   0.862  13.059  0.0286  0.2723 -0.1467
 6347PP      PP16451   8.302   5.648  10.273 -0.1920  0.0888  0.3465
 6348PP      PP16452  14.522   5.692   2.736 -0.1555  0.1736  0.2531
 6349PP      PP16453   5.680   8.937   0.906  0.0557 -0.2957  0.2093
 6350PP      PP16454  15.568  11.349   1.682 -0.1590  0.2123  0.2812
 6351PP      PP16455   3.813   5.044   1.445 -0.0862  0.0019  0.0877
 6352PP      PP16456  10.085   7.474  11.017 -0.0727 -0.0670  0.2584
 6353PP      PP16457   0.918   0.650   9.877  0.2124  0.3725  0.1250
 6354PP      PP16458   6.635   3.277  11.533  0.3784 -0.3910 -0.0159
 6355PP      PP16459   2.691  14.069  12.638 -0.4072  0.1089 -0.1670
 6356PP      PP16460  11.056   6.769   3.591 -0.1365  0.1793  0.1021
 6357PP      PP16461   2.726  12.976   1.014  0.2017 -0.1106  0.1090
 6358PP      PP16462   7.681   6.143   1.487  0.2591 -0.0185 -0.0879
 6359PP      PP16463   6.454   1.254  10.772  0.0732  0.0285  0.1498
 6360PP      PP16464   3.385   5.963   5.136  0.0100  0.0039  0.1153
 6361PP      PP16465  14.469   5.666  10.132 -0.0034 -0.0586  0.2800
 6362PP      PP16466   8.774   4.485   3.014  0.0059  0.1870 -0.2229
 6363PP      PP16467   0.536   7.601  12.746 -0.0779  0.2113  0.2809
 6364PP      PP16468  10.901   0.271   9.237  0.3120 -0.2480 -0.1248
 6365PP      PP16469  10.505   4.631   0.879 -0.0726  0.1228 -0.1408
 6366PP      PP16470  13.366   9.947   1.340 -0.0560  0.0813  0.0711
 6367PP      PP16471   7.098   7.272   1.901  0.0879  0.2056 -0.1908
 6368PP      PP16472   5.602   6.737   4.365  0.1580 -0.1295 -0.0879
 6369PP      PP16473   0.896   6.153   9.747  0.1921  0.1076 -0.1199
 6370PP      PP16474   7.625   0.505   2.334 -0.1026  0.0797 -0.3866
 6371PP      PP16475   1.516   8.870   3.908  0.1215  0.1859 -0.0702
 6372PP      PP16476   1.961  15.823   3.324  0.1918 -0.0198 -0.0471
 6373PP      PP16477   1.264   3.083   9.072 -0.2187 -0.1765  0.0703
 6374PP      PP16478   3.226   5.836  11.540 -0.1219 -0.0543  0.1612
 6375PP      PP16479   8.636   7.638  12.651  0.2795 -0.1409 -0.3802
 6376PP      PP16480   4.064   4.822   3.983  0.0364 -0.1814 -0.0179
 6377PP      PP16481  14.783   0.283   3.390  0.1653 -0.0283  0.0537
 6378PP      PP16482  15.087   9.987  13.306 -0.0127  0.2271  0.0491
 6379PP      PP16483  12.631   3.108  11.198  0.0363 -0.0588  0.1767
 6380PP      PP16484  15.692   2.229   3.517  0.2395  0.1839 -0.0958
 6381PP      PP16485   4.580  11.199  12.446  0.1548  0.1224  0.1272
 6382PP      PP16486  13.309   7.946   9.587  0.1043 -0.1857 -0.2155
 6383PP      PP16487  14.405  11.164   2.747  0.0868 -0.0615  0.3684
 6384PP      PP16488  11.348  13.899  11.993 -0.2467  0.0417  0.1460
 6385PP      PP16489   3.158   4.669   0.964 -0.0379 -0.0056 -0.0984
 6386PP      PP16490  13.614   4.714  12.639 -0.3869 -0.0853 -0.2476
 6387PP      PP16491  11.582   2.896   3.743  0.2146  0.1843 -0.0223
 6388PP      PP16492   7.117   0.573  11.602 -0.0357 -0.1636 -0.0046
 6389PP      PP16493  12.694   4.207   4.980  0.0977 -0.2875  0.0446
 6390PP      PP16494   6.333   9.553   0.441  0.1809  0.0930  0.1467
 6391PP      PP16495  13.483  12.926   0.429 -0.2445  0.0697 -0.1783
 6392PP      PP16496   4.648   2.229  12.361  0.1206 -0.0799 -0.0418
 6393PP      PP16497   0.871  15.793   0.384 -0.0946 -0.1775  0.2653
 6394PP      PP16498  14.392   2.750  10.752  0.0328 -0.0021 -0.0379
 6395PP      PP16499  14.001  10.976   0.248  0.1366 -0.2040  0.0338
 6396PP      PP16500   8.877   0.476  10.127  0.1037 -0.0326  0.4102
 6397PP      PP16501  15.723  15.598   1.662 -0.0540  0.2672 -0.1414
 6398PP      PP16502   5.841   9.249   3.385  0.0688 -0.0034  0.1779
 6399PP      PP16503   3.478  15.347  10.588 -0.0757  0.3156 -0.0947
 6400PP      PP16504  10.600   9.414  10.120 -0.0372  0.0949  0.0322
 6401PP      PP16505   3.948   7.797  10.136  0.1773  0.0964  0.1855
 6402PP      PP16506  14.523  14.784  13.300 -0.0286  0.0335 -0.0916
 6403PP      PP16507   4.931  12.790  11.600 -0.2561  0.1239  0.0992
 6404PP      PP16508   3.753  10.193   2.713 -0.0485  0.1267  0.3404
 6405PP      PP16509   2.880   9.509  12.520 -0.2633 -0.1796 -0.1423
 6406PP      PP16510   5.744   2.392  13.120  0.2978  0.0874  0.0483
 6407PP      PP16511   2.711   1.262   2.111  0.1459  0.1549  0.2082
 6408PP      PP16512   9.257   7.941  10.797 -0.1214  0.0441 -0.1301
 6409PP      PP16513   8.693   6.035  12.140 -0.1836  0.1045 -0.1782
 6410PP      PP16514   3.772   1.778   9.080  0.1041 -0.1759 -0.2460
 6411PP      PP16515   6.049   7.950   2.168 -0.2753  0.0235 -0.0291
 6412PP      PP16516  11.422   1.982   0.156 -0.0302 -0.2922  0.2260
 6413PP      PP16517   0.879   9.613   2.091  0.1861 -0.0243 -0.0610
 6414PP      PP16518  11.989   8.091   4.761  0.1267 -0.0777 -0.0200
 6415PP      PP16519  14.492  10.297   5.066  0.2293  0.0981  0.1894
 6416PP      PP16520   9.637  12.875   0.881  0.2569  0.2447  0.1671
 6417PP      PP16521   6.212  14.881   8.837  0.0693  0.0138  0.5576
 6418PP      PP16522  14.844  14.107   9.306 -0.3403  0.0557 -0.4233
 6419PP      PP16523   8.343   1.842  12.951 -0.2784 -0.0600  0.0555
 6420PP      PP16524   4.434  12.510  12.164 -0.1579  0.1926 -0.2068
 6421PP      PP16525  10.256   4.744  12.005  0.0683 -0.1132  0.0984
 6422PP      PP16526   0.718  15.057   0.986 -0.0047  0.0899 -0.2479
 6423PP      PP16527   9.435  14.895  13.059  0.0443  0.1122 -0.0902
 6424PP      PP16528   3.785  14.498  12.894 -0.1044  0.0514 -0.1394
 6425PP      PP16529  14.265   1.156   1.670 -0.1462 -0.0419 -0.2042
 6426PP      PP16530   0.837  10.534   0.401 -0.2712  0.0148 -0.0883
 6427PP      PP16531  11.848   4.161   1.409  0.2232  0.2507  0.2765
 6428PP      PP16532   1.480   2.570   0.157 -0.2341  0.0169 -0.1100
 6429PP      PP16533  14.172  10.086  13.523  0.0228  0.0959  0.3429
 6430PP      PP16534   7.217   2.537   1.746 -0.1356 -0.2930  0.1467
 6431PP      PP16535   4.513  11.790  11.632  0.1922  0.3409 -0.4857
 6432PP      PP16536   0.292   5.939  11.874 -0.2709  0.0889 -0.3421
 6433PP      PP16537  12.630   5.142  12.672  0.2939  0.0561  0.1266
 6434PP      PP16538  13.290   3.259   3.684 -0.1235  0.1287 -0.2144
 6435PP      PP16539   0.419  10.850   0.451 -0.0381 -0.0293 -0.0794
 6436PP      PP16540   4.254  12.460   2.996  0.4317 -0.0934  0.0188
 6437PP      PP16541   5.922  14.519   9.102 -0.1091  0.1391 -0.1092
 6438PP      PP16542   9.734   7.289   1.458 -0.0760 -0.2940 -0.2867
 6439PP      PP16543   0.028   6.545   0.220  0.0335  0.0594  0.0158
 6440PP      PP16544  10.739   4.334   2.161  0.2413 -0.3119 -0.1514
 6441PP      PP16545   6.851   8.762  13.031  0.0784 -0.0869  0.3567
 6442PP      PP16546   3.677   9.909   0.615 -0.0019 -0.0304 -0.1495
 6443PP      PP16547   9.577   6.019  10.526 -0.2367  0.1034 -0.1492
 6444PP      PP16548   2.510   0.879  12.556 -0.1907  0.0858 -0.1123
 6445PP      PP16549  13.899  15.591   8.977  0.3118  0.1674  0.0882
 6446PP      PP16550   9.874   3.595   9.514 -0.2882  0.0442 -0.2335
 6447PP      PP16551  11.604  11.037  12.394 -0.1600 -0.0502 -0.0406
 6448PP      PP16552   6.824   7.259   0.780  0.1332 -0.0203 -0.0671
 6449PP      PP16553   6.318   1.642   7.637  0.1744 -0.0447 -0.0567
 6450PP      PP16554   6.139  11.300   8.938  0.3515  0.0804 -0.0179
 6451PP      PP16555   4.976   1.618  12.291 -0.1667  0.0529 -0.2447
 6452PP      PP16556   9.375  15.160  10.276 -0.0741  0.0679 -0.0419
 6453PP      PP16557   6.660   7.297  10.939 -0.2260  0.0201 -0.2048
 6454PP      PP16558   4.831  14.253  12.720  0.0897 -0.2472 -0.0299
 6455PP      PP16559  11.922   3.377   4.199 -0.0652 -0.1519  0.0834
 6456PP      PP16560  10.922   6.462   3.951  0.0411  0.3039  0.0519
 6457PP      PP16561   8.371   9.926   2.036 -0.2216 -0.0035  0.3627
 6458PP      PP16562  12.843   0.589  11.030  0.1513 -0.0874 -0.1325
 6459PP      PP16563   9.044   2.920  11.157  0.1375  0.2475  0.1208
 6460PP      PP16564  14.077  14.548   4.297  0.0060 -0.0541  0.1376
 6461PP      PP16565  15.094   1.558  12.610  0.2063 -0.1685 -0.1018
 6462PP      PP16566  10.546   4.427   9.106  0.4708  0.1876 -0.1411
 6463PP      PP16567  10.012  12.874   9.558 -0.2827  0.0393  0.2601
 6464PP      PP16568   9.626   1.929  12.606 -0.1021 -0.0186 -0.0278
 6465PP      PP16569   6.409   4.146   3.716 -0.0249  0.3136  0.1028
 6466PP      PP16570   3.243  15.760  10.532 -0.1487  0.2433  0.0792
 6467PP      PP16571  11.211   9.885   1.470  0.0003 -0.0244  0.0680
 6468PP      PP16572  12.445  14.207  10.902 -0.3166  0.0186  0.0137
 6469PP      PP16573   7.952   7.987   2.969 -0.0257  0.3074 -0.2077
 6470PP      PP16574   8.448  14.163  12.259  0.3209  0.2850  0.3050
 6471PP      PP16575   7.070   0.656  11.134  0.0017 -0.2754 -0.0405
 6472PP      PP16576  13.443   6.553   2.431 -0.3547 -0.0187 -0.1785
 6473PP      PP16577   2.507   8.141   1.010 -0.1517 -0.1812  0.2748
 6474PP      PP16578  10.914   6.499  12.191  0.1251 -0.0509 -0.5450
 6475PP      PP16579   8.781   6.576   0.499  0.1117  0.1407 -0.0796
 6476PP      PP16580   6.790   9.744   3.464  0.1666 -0.0912 -0.2093
 6477PP      PP16581  15.442   3.586   2.814  0.3411  0.0053 -0.0799
 6478PP      PP16582  10.127   1.396   0.772  0.0398 -0.0951  0.0110
 6479PP      PP16583   3.229   3.730   9.129  0.1985 -0.0009  0.0298
 6480PP      PP16584  12.637   0.089   8.767 -0.0176  0.0364  0.1211
 6481PP      PP16585   3.119   4.629  10.433  0.3698  0.0414 -0.3510
 6482PP      PP16586  15.335   5.748   0.798  0.3630 -0.0097 -0.0509
 6483PP      PP16587  15.244  11.011  13.031  0.4500 -0.1611  0.0322
 6484PP      PP16588   5.120   0.807  12.774 -0.1062  0.2809 -0.2183
 6485PP      PP16589   9.309   6.472  10.610  0.0768 -0.0314 -0.1725
 6486PP      PP16590   8.140  11.142  10.538  0.1480  0.3406  0.0190
 6487PP      PP16591   8.842  10.440  11.032 -0.0749  0.1495 -0.4227
 6488PP      PP16592   2.685  11.930  10.937  0.0893 -0.1066 -0.1375
 6489PP      PP16593   5.342   9.528   1.409 -0.0064  0.2067  0.1401
 6490PP      PP16594   3.656   2.212   2.829 -0.1201 -0.3980 -0.1393
 6491PP      PP16595  13.101   0.654  11.624  0.0719  0.0759 -0.1063
 6492PP      PP16596  13.661   4.263   2.646  0.0323 -0.0333 -0.0118
 6493PP      PP16597  10.719  15.556   1.361  0.1779  0.2381  0.1000
 6494PP      PP16598   3.422   1.091   8.262 -0.2300  0.2470  0.1090
 6495PP      PP16599  13.496   5.794  10.488 -0.0196 -0.0023  0.1156
 6496PP      PP16600  13.621  11.988   2.705 -0.0851 -0.0273  0.0844
 6497PP      PP16601   3.103  12.256  12.436 -0.2365  0.1015  0.1153
 6498PP      PP16602   4.634   9.028  12.432 -0.1478 -0.0168 -0.2315
 6499PP      PP16603   0.092   7.306  10.598  0.1352 -0.0472 -0.1440
 6500PP      PP16604   1.230   2.602   4.476 -0.2261  0.1490 -0.2277
 6501PP      PP16605  12.135  13.204   0.005 -0.1944  0.1463  0.1034
 6502PP      PP16606  10.614   6.741   2.444 -0.4862  0.2469  0.4317
 6503PP      PP16607   4.859   0.783   1.228 -0.3291 -0.0766 -0.1695
 6504PP      PP16608   8.143   2.940   0.115  0.1490 -0.0752  0.0085
 6505PP      PP16609   9.080   7.319  12.597 -0.1253  0.0889  0.2180
 6506PP      PP16610  14.208   2.928   4.469  0.0804  0.0233 -0.1686
 6507PP      PP16611  13.867   6.079   4.879 -0.2481  0.2302 -0.4692
 6508PP      PP16612  15.510  12.679  11.496 -0.1032  0.0345 -0.0678
 6509PP      PP16613   4.687   5.589   9.900 -0.0233  0.2714  0.2287
 6510PP      PP16614   1.885   7.940   0.084 -0.0773 -0.1129 -0.1472
 6511PP      PP16615   7.193   9.369   3.216  0.0105 -0.2051 -0.1155
 6512PP      PP16616   8.700   4.074   8.599  0.0755  0.0623  0.0023
 6513PP      PP16617  15.114   2.239   9.669  0.0062  0.1737 -0.0336
 6514PP      PP16618  13.570   7.749   1.469 -0.3467 -0.1048 -0.3790
 6515PP      PP16619   8.798   8.039  12.203  0.3235  0.1394 -0.3568
 6516PP      PP16620   0.197   1.102   9.558  0.2373  0.1796  0.1691
 6517PP      PP16621  11.141  15.289  11.963  0.0534 -0.0000  0.0595
 6518PP      PP16622  14.667  10.657   9.641  0.1478 -0.0397 -0.1599
 6519PP      PP16623   0.640   2.772   3.626  0.1847  0.1593 -0.1467
 6520PP      PP16624   2.322   5.897  11.666  0.3765  0.0209  0.0292
 6521PP      PP16625   2.924   1.274   1.135  0.0768 -0.2868 -0.0703
 6522PP      PP16626   2.201   8.628   5.030 -0.0324  0.0016 -0.1386
 6523PP      PP16627  15.020   7.167  12.184  0.0889 -0.3259 -0.1026
 6524PP      PP16628   9.204   0.918   9.181  0.1044 -0.1079 -0.1844
 6525PP      PP16629  12.408   8.772  10.554  0.2049  0.1741 -0.1284
 6526PP      PP16630  13.710   0.625   0.456  0.1113 -0.2213  0.1208
 6527PP      PP16631   1.160  11.140  13.328  0.2421 -0.3740  0.1423
 6528PP      PP16632  14.723  14.087   0.591  0.1017  0.1016  0.2808
 6529PP      PP16633  10.287   0.862   0.673  0.1355 -0.0497 -0.1274
 6530PP      PP16634   4.779  10.292  11.042  0.0702  0.0265  0.0525
 6531PP      PP16635   7.748   5.749   1.208  0.2714  0.1113  0.3157
 6532PP      PP16636  14.295   9.950  12.389  0.0047  0.0689 -0.0578
 6533PP      PP16637   9.883   4.484   0.379  0.1558  0.2378  0.1239
 6534PP      PP16638   0.583   9.328   4.693  0.1926  0.0943  0.2906
 6535PP      PP16639  11.305   3.071  11.603  0.2615 -0.1578  0.1774
 6536PP      PP16640   6.679  12.142   2.674  0.2045 -0.0307 -0.1674
 6537PP      PP16641   7.326  14.719   9.674  0.2643  0.0284  0.2868
 6538PP      PP16642   5.965   8.039   0.007  0.0624 -0.1016  0.1587
 6539PP      PP16643   5.508   2.797   2.304 -0.2248  0.0968  0.2693
 6540PP      PP16644  11.543  12.667   2.874  0.1132 -0.0346 -0.1357
 6541PP      PP16645  10.416   7.472   3.406 -0.2069 -0.0888  0.2130
 6542PP      PP16646  15.272  14.615   0.227  0.0119 -0.1211  0.2842
 6543PP      PP16647   9.805   7.762  10.643 -0.1408 -0.1941 -0.0096
 6544PP      PP16648   1.426  12.774   9.307  0.4193  0.2527 -0.4109
 6545PP      PP16649   8.602  11.910  11.621  0.0511  0.0039  0.1935
 6546PP      PP16650   1.971  14.206   1.191  0.1159  0.0715 -0.0383
 6547PP      PP16651  13.435  14.070  10.994  0.1605 -0.1205  0.0055
 6548PP      PP16652  13.069   6.547   1.742  0.2791  0.0877 -0.1342
 6549PP      PP16653  15.817   4.708   4.908  0.1173  0.0024 -0.0218
 6550PP      PP16654   1.878  15.721   2.380  0.1185  0.2129 -0.0257
 6551PP      PP16655  13.059  11.329   2.001  0.1456  0.1234  0.0219
 6552PP      PP16656  11.591   4.325   1.822 -0.1504 -0.2232 -0.2792
 6553PP      PP16657   4.876   6.102   9.185 -0.4626  0.2981 -0.0221
 6554PP      PP16658  13.228  11.197   3.816 -0.0994 -0.0369 -0.2173
 6555PP      PP16659   1.798   4.492  13.435 -0.0039 -0.0477 -0.0367
 6556PP      PP16660   0.172   9.039   3.573  0.1539 -0.0866 -0.0061
 6557PP      PP16661   2.823   8.834   4.059 -0.2702 -0.1835  0.1275
 6558PP      PP16662   6.547   7.330   3.116  0.1340  0.0403  0.2628
 6559PP      PP16663   1.773   9.374   3.325  0.1831 -0.1076 -0.0228
 6560PP      PP16664  13.338   5.415  10.235 -0.0629 -0.2041 -0.0299
 6561PP      PP16665   8.120   0.200   9.685  0.1292 -0.0162 -0.0787
 6562PP      PP16666  10.660   6.117   1.823 -0.5764  0.3501  0.1802
 6563PP      PP16667   2.376  15.752   8.495  0.2618 -0.0301 -0.2067
 6564PP      PP16668  13.407   0.535  12.977  0.1992  0.0368  0.0926
 6565PP      PP16669  10.356   1.618   1.982  0.3600  0.1502  0.0779
 6566PP      PP16670  13.867   0.555   2.763  0.2663  0.0585 -0.0672
 6567PP      PP16671   7.025   9.102   0.654  0.1761  0.3747  0.1650
 6568PP      PP16672   0.756   5.682   2.326 -0.1054  0.1974 -0.3007
 6569PP      PP16673  12.522   6.349   9.628  0.1573 -0.1129 -0.1003
 6570PP      PP16674   2.948   1.181   0.548 -0.1725  0.1186 -0.1455
 6571PP      PP16675  13.314  15.281  10.525  0.2135 -0.0652  0.0214
 6572PP      PP16676  11.830   7.048  13.502 -0.0978  0.2602 -0.0232
 6573PP      PP16677   1.164   3.402  12.973 -0.2263 -0.0968 -0.0255
 6574PP      PP16678  10.633   4.483   8.601 -0.1460 -0.1967  0.1646
 6575PP      PP16679   3.701   4.706  10.467 -0.0378 -0.1178  0.3462
 6576PP      PP16680   5.914  12.456  10.593 -0.0500 -0.0823 -0.0642
 6577PP      PP16681   1.440   8.478   3.267  0.1457 -0.0277 -0.3078
 6578PP      PP16682  12.498   1.544  10.549 -0.0235 -0.0421 -0.1589
 6579PP      PP16683   2.492   7.933  11.085 -0.1472  0.0100 -0.3629
 6580PP      PP16684   9.475   7.957   0.999 -0.1963 -0.0450  0.2024
 6581PP      PP16685  14.185  13.449   2.630 -0.0685  0.1107  0.2062
 6582PP      PP16686  11.300  14.229   9.674  0.1664  0.1087  0.1237
 6583PP      PP16687  11.785   0.579   4.562  0.2127 -0.1292  0.2789
 6584PP      PP16688   9.009   7.063  11.199 -0.1531  0.2780 -0.0039
 6585PP      PP16689   8.712  11.030   3.396 -0.2411 -0.1203 -0.1130
 6586PP      PP16690   2.302  11.645  13.369 -0.0399 -0.0616 -0.0518
 6587PP      PP16691  14.579   6.649  12.853 -0.2179  0.0484  0.2631
 6588PP      PP16692  15.354  11.194   3.744  0.3398 -0.2251  0.1916
 6589PP      PP16693   8.046   7.772  12.689 -0.1124  0.2210  0.0489
 6590PP      PP16694   5.831  13.394  11.366 -0.2187  0.1129  0.0289
 6591PP      PP16695   5.762  11.205  11.613  0.0118  0.0215  0.1334
 6592PP      PP16696  13.028   9.643  10.530  0.2285 -0.2467  0.2153
 6593PP      PP16697   8.429  10.682  11.144 -0.0138 -0.0593 -0.4038
 6594PP      PP16698   4.053   7.107   1.838  0.2457  0.3201 -0.0097
 6595PP      PP16699   0.253   5.415   0.989  0.2615  0.0879  0.1346
 6596PP      PP16700  11.848  13.523  12.288 -0.1400  0.2621  0.0443
 6597PP      PP16701   7.964   8.259   2.504 -0.0162  0.0231  0.1720
 6598PP      PP16702   8.049   5.660  13.292 -0.0655  0.1252 -0.1100
 6599PP      PP16703   4.791   1.155   1.970  0.0128  0.1501 -0.0771
 6600PP      PP16704   4.284   4.066   0.301  0.3403 -0.0182 -0.1953
 6601PP      PP16705  14.556   2.696  13.276  0.0894 -0.0202 -0.1536
 6602PP      PP16706   0.005  11.378   4.458  0.2360  0.1051 -0.0306
 6603PP      PP16707   0.554  15.545   1.267 -0.4510 -0.0075  0.2133
 6604PP      PP16708   5.992  11.931  10.579  0.1862 -0.0957  0.0114
 6605PP      PP16709   2.538  12.868   3.741  0.2687 -0.2694  0.0127
 6606PP      PP16710  12.370   0.784  11.689 -0.1312 -0.2192  0.0946
 6607PP      PP16711   4.388   5.097  10.946 -0.1589 -0.0773 -0.1792
 6608PP      PP16712  11.710   9.347   1.015 -0.0220 -0.1451  0.1211
 6609PP      PP16713   7.495   8.897   1.200 -0.2150  0.1032 -0.2196
 6610PP      PP16714  11.384   7.700   3.178  0.2544 -0.1103  0.1043
 6611PP      PP16715   0.331   1.599   2.902  0.2623  0.0850 -0.2167
 6612PP      PP16716   5.155  13.617   1.118 -0.0915  0.0627  0.2540
 6613PP      PP16717   4.138  11.322   9.894 -0.1010  0.1591  0.0650
 6614PP      PP16718   1.020  11.733   0.412  0.0239  0.1426 -0.0512
 6615PP      PP16719  11.073   2.679   1.954  0.2185  0.0381 -0.0602
 6616PP      PP16720  12.711   5.200   9.361 -0.1057 -0.2146  0.0212
 6617PP      PP16721   0.247  12.740   0.769 -0.1107 -0.2552 -0.2257
 6618PP      PP16722   4.695   2.867   8.404 -0.2747  0.4720 -0.4514
 6619PP      PP16723  15.617   3.338  13.024  0.4633 -0.2238 -0.1080
 6620PP      PP16724   2.738   4.745   3.801  0.2906  0.0881 -0.2142
 6621PP      PP16725   1.088   2.419   1.466  0.0080  0.0632 -0.1108
 6622PP      PP16726   3.925  12.612  12.467 -0.1334  0.1674  0.2335
 6623PP      PP16727   9.411  12.944  12.114 -0.0158  0.1925  0.2419
 6624PP      PP16728   6.658  10.962  11.212 -0.0077  0.1038 -0.1511
 6625PP      PP16729   6.988   2.559   8.581  0.1971 -0.0161  0.1705
 6626PP      PP16730   8.899  14.213  10.168 -0.1259 -0.1674 -0.1216
 6627PP      PP16731   9.440  13.517  11.611  0.2917 -0.0366 -0.0558
 6628PP      PP16732   2.948   0.191  13.290 -0.0546  0.0798 -0.0092
 6629PP      PP16733  11.334   8.131  10.188 -0.1296 -0.1604 -0.0018
 6630PP      PP16734  10.426  12.480  12.596  0.0636 -0.0369  0.2623
 6631PP      PP16735  14.445   1.476   9.179 -0.2213 -0.1121  0.0384
 6632PP      PP16736   8.572   1.298   2.021  0.0010 -0.1544  0.3268
 6633PP      PP16737   4.740  11.725  12.523 -0.4102  0.1579  0.1369
 6634PP      PP16738   5.769  10.987   9.164  0.2145  0.1333 -0.2852
 6635PP      PP16739  12.593   3.247   0.510 -0.1307 -0.1175 -0.0286
 6636PP      PP16740   2.129  10.055   2.512  0.1444 -0.4504  0.1066
 6637PP      PP16741   1.366  10.235   3.605  0.0376  0.1214 -0.0897
 6638PP      PP16742   7.874   0.469   2.946 -0.1267 -0.0760  0.0554
 6639PP      PP16743  15.605  13.230  12.402  0.1579  0.1466  0.5912
 6640PP      PP16744   6.306   0.670   0.051  0.0669  0.1264 -0.2026
 6641PP      PP16745   1.458  15.204   3.128 -0.0957  0.1375  0.1216
 6642PP      PP16746  12.751   3.927   0.534  0.1080 -0.3691 -0.0356
 6643PP      PP16747  14.690   1.499   3.799 -0.1102  0.0875  0.2114
 6644PP      PP16748   5.392  15.236   8.744  0.1161 -0.0661  0.0268
 6645PP      PP16749  10.290  13.810   9.963 -0.0064 -0.0525 -0.1603
 6646PP      PP16750   9.650   5.089   9.930 -0.3145 -0.0402 -0.1764
 6647PP      PP16751   0.139   7.814  10.767 -0.1630  0.1603 -0.1756
 6648PP      PP16752  13.277   7.361   1.235  0.1152  0.1458 -0.1071
 6649PP      PP16753   1.023  10.170   1.900  0.1756  0.1168 -0.3323
 6650PP      PP16754  13.282  11.923  13.484 -0.2271  0.0306  0.2178
 6651PP      PP16755   3.062   2.895  12.178  0.4824  0.1137 -0.0283
 6652PP      PP16756   4.634   6.456   2.361  0.0081 -0.1359  0.1835
 6653PP      PP16757   8.231   1.049   1.100  0.2998 -0.2179  0.0259
 6654PP      PP16758  10.933   8.158   4.583  0.0959  0.0659 -0.1839
 6655PP      PP16759   5.906  14.594  10.262 -0.0004  0.0642 -0.2118
 6656PP      PP16760   1.949   2.999  11.871  0.1939  0.1946  0.1833
 6657PP      PP16761   4.528  13.690  11.340  0.0173  0.1345  0.1825
 6658PP      PP16762   6.599   0.472   2.011 -0.2015 -0.2242  0.0316
 6659PP      PP16763   4.545   0.341  10.534  0.2082 -0.2980  0.1064
 6660PP      PP16764   6.623   4.334  13.081 -0.0473 -0.1599 -0.2931
 6661PP      PP16765   4.370  14.884  10.859 -0.2660  0.3941 -0.0517
 6662PP      PP16766   6.740   5.156   1.068  0.1850  0.5750 -0.1400
 6663PP      PP16767   7.414  10.156  12.634  0.0461  0.0703 -0.1048
 6664PP      PP16768   1.010  13.863  11.961 -0.1513 -0.0056 -0.0004
 6665PP      PP16769  11.821   4.024  13.249  0.0638 -0.3539 -0.0851
 6666PP      PP16770   0.049  13.685   0.302 -0.2233  0.2174  0.1208
 6667PP      PP16771   8.760   8.631   2.934  0.3440  0.1419 -0.1015
 6668PP      PP16772  11.438  13.969   1.119  0.2027 -0.3167  0.0970
 6669PP      PP16773   5.537   4.187   2.139  0.1872  0.0523  0.1198
 6670PP      PP16774   1.439   9.420   2.896  0.0931  0.0088  0.0835
 6671PP      PP16775   3.589  10.493   1.222  0.0600 -0.1728  0.2110
 6672PP      PP16776  15.177   7.935   0.219 -0.5477  0.2061 -0.0005
 6673PP      PP16777   1.005   8.451   1.572  0.3167  0.0596  0.0029
 6674PP      PP16778  15.711   5.335  13.112  0.2244  0.0023 -0.2239
 6675PP      PP16779  12.137   3.378   0.906  0.0900  0.2206 -0.0497
 6676PP      PP16780   0.579   6.364  10.161 -0.1402  0.0380 -0.0069
 6677PP      PP16781   7.321   3.097   3.761  0.1467 -0.2044  0.4352
 6678PP      PP16782  15.104   1.777   1.401 -0.3658 -0.0402  0.5277
 6679PP      PP16783  15.305  10.673   2.026  0.1393  0.0169  0.0062
 6680PP      PP16784   4.633   8.741   4.638 -0.1568  0.0724  0.0429
 6681PP      PP16785   7.722   6.891   3.946 -0.0380 -0.3579 -0.0461
 6682PP      PP16786  10.144   2.754  10.510 -0.2412 -0.1603 -0.0836
 6683PP      PP16787   7.051   4.278   4.233 -0.0847  0.2471  0.0547
 6684PP      PP16788  15.656   3.512   0.258  0.2870 -0.0998  0.0564
 6685PP      PP16789   8.499   0.352   2.581  0.2182  0.1127  0.5076
 6686PP      PP16790   3.965   9.969   2.207 -0.0106  0.4816  0.0425
 6687PP      PP16791   3.489   4.370   1.976 -0.2446 -0.0316  0.3655
 6688PP      PP16792   4.302  14.199   1.231 -0.0300  0.1137  0.0489
 6689PP      PP16793   9.261   6.473  10.095  0.1053 -0.0562 -0.0606
 6690PP      PP16794  10.951   5.256   3.673  0.1786 -0.1150  0.1143
 6691PP      PP16795   3.487   4.078   1.554 -0.2974 -0.0621  0.1276
 6692PP      PP16796   8.623  14.534  11.892 -0.1658 -0.2982 -0.0052
 6693PP      PP16797   8.916   6.027   0.690  0.0010  0.0791  0.2306
 6694PP      PP16798  10.762   8.839   1.707 -0.2584  0.1140 -0.1101
 6695PP      PP16799   1.918  15.403  11.038  0.0927 -0.3498 -0.1454
 6696PP      PP16800   4.388   6.011   1.607  0.1326  0.3547  0.2310
 6697PP      PP16801  14.376  12.845   0.181  0.0363 -0.0186 -0.1675
 6698PP      PP16802   4.361   2.523  11.295 -0.0722 -0.0597  0.2110
 6699PP      PP16803   9.219   9.715   0.592 -0.3440  0.0545 -0.1876
 6700PP      PP16804   8.888   6.188   9.601 -0.1709 -0.2878 -0.2146
 6701PP      PP16805  10.943  11.103   4.551 -0.2828 -0.1291 -0.1030
 6702PP      PP16806   0.859  12.318   3.187  0.0038  0.1116 -0.2092
 6703PP      PP16807  13.405  11.508   2.791 -0.3193  0.0933 -0.0921
 6704PP      PP16808   3.863  11.609   1.881  0.2724 -0.1567 -0.2708
 6705PP      PP16809   8.955  12.572   9.615  0.1312  0.0644  0.3573
 6706PP      PP16810  12.743   4.787  10.621 -0.3482  0.0964 -0.1467
 6707PP      PP16811  12.909   2.409   2.964 -0.1746  0.0551  0.0428
 6708PP      PP16812   6.177  10.634   0.514 -0.1578  0.0896 -0.1372
 6709PP      PP16813   6.375   5.781   2.207 -0.0784  0.2064 -0.0487
 6710PP      PP16814  10.812   6.871   2.890 -0.0862 -0.0598  0.3902
 6711PP      PP16815  13.627   6.655  10.680  0.1355  0.1400  0.2173
 6712PP      PP16816  15.138   8.816   4.701  0.0422  0.1175  0.3868
 6713PP      PP16817   6.248   0.264   2.336 -0.2108  0.1355  0.0004
 6714PP      PP16818   9.044   0.273  13.160  0.2434  0.0470 -0.3697
 6715PP      PP16819   4.568  11.963  12.958 -0.1339  0.1792 -0.1174
 6716PP      PP16820  15.629  11.592   2.548 -0.0856 -0.0946 -0.1782
 6717PP      PP16821   1.266   1.386   1.037 -0.4436 -0.0104  0.0882
 6718PP      PP16822  13.796   9.881   4.142  0.0034 -0.0995  0.0751
 6719PP      PP16823   0.010  13.358   1.034 -0.0049  0.2057  0.3824
 6720PP      PP16824   5.613   9.203  13.327 -0.0118  0.1175 -0.1978
 6721PP      PP16825   5.057  10.273   4.981  0.1642 -0.3100 -0.2706
 6722PP      PP16826  13.802   6.002   3.752  0.0606  0.0057  0.1006
 6723PP      PP16827  10.087   8.104   9.626 -0.3513 -0.1579 -0.0238
 6724PP      PP16828  14.276  15.747   0.743  0.0430 -0.0998 -0.0350
 6725PP      PP16829   6.048   7.363  11.773  0.1676 -0.0620 -0.1051
 6726PP      PP16830  10.667  11.996   1.018 -0.0970 -0.2065  0.1218
 6727PP      PP16831   4.942   1.120   0.902  0.6172 -0.2741  0.4178
 6728PP      PP16832   7.669   7.608   2.949  0.1452  0.1476  0.1015
 6729PP      PP16833  15.743   7.214  11.407 -0.0094 -0.2300  0.1299
 6730PP      PP16834   4.181   8.330  10.407 -0.0908  0.0900 -0.1398
 6731PP      PP16835   4.926   7.425  12.681  0.2036 -0.3241  0.0757
 6732PP      PP16836   9.592  14.618   1.589  0.1011 -0.0188 -0.1259
 6733PP      PP16837   9.256   8.260  12.306  0.3165  0.0745  0.0734
 6734PP      PP16838   6.973   9.652  10.444 -0.0362 -0.0818  0.2463
 6735PP      PP16839   8.948   3.915   2.795  0.2374  0.0529 -0.2559
 6736PP      PP16840   6.248  12.432   1.677 -0.0854 -0.3786 -0.2518
 6737PP      PP16841   1.056  10.094   3.239 -0.0161 -0.1884 -0.1573
 6738PP      PP16842   4.206   4.069  12.508 -0.1135  0.0634  0.2047
 6739PP      PP16843   2.967   5.863   3.035  0.1064  0.3164  0.2870
 6740PP      PP16844   6.224  10.163  13.278 -0.1604  0.1567 -0.1682
 6741PP      PP16845   2.252   2.793  12.801  0.0526 -0.1118  0.0408
 6742PP      PP16846  10.471   7.429   1.748  0.1361  0.0254  0.2107
 6743PP      PP16847   4.496  14.376   9.006  0.1579  0.3431  0.2068
 6744PP      PP16848   9.757   8.988   1.531  0.0257  0.0134 -0.2048
 6745PP      PP16849  15.192  10.390   9.834 -0.1139  0.0237  0.0955
 6746PP      PP16850   4.226   1.848   1.127 -0.1075 -0.2852 -0.0610
 6747PP      PP16851  14.542  11.557   3.884  0.1606  0.1384  0.0524
 6748PP      PP16852   1.436  11.321   5.225  0.2337 -0.2927 -0.1716
 6749PP      PP16853   0.289  13.430   4.097 -0.0406 -0.2184 -0.1834
 6750PP      PP16854   5.394   0.822  10.251  0.0714 -0.1978 -0.0017
 6751PP      PP16855  14.707   7.842  10.728 -0.1658  0.1171 -0.1264
 6752PP      PP16856   7.943   0.831   8.506 -0.1105 -0.1451  0.0580
 6753PP      PP16857   1.679   6.890   2.133 -0.1095  0.2090  0.1385
 6754PP      PP16858   4.000  11.208   5.529  0.0227  0.1694 -0.2227
 6755PP      PP16859   8.623  13.750   3.492 -0.0620  0.2610 -0.2629
 6756PP      PP16860   2.120   3.481  12.054 -0.1525  0.2078  0.1115
 6757PP      PP16861  10.876   8.129  12.116  0.0008  0.0369  0.1871
 6758PP      PP16862  12.778   5.028   1.539  0.0797  0.2246 -0.2753
 6759PP      PP16863   9.211   4.052   9.457 -0.2397 -0.1093 -0.1833
 6760PP      PP16864   7.344   9.900   1.865 -0.2228 -0.1104  0.1635
 6761PP      PP16865   1.330  11.734  12.015  0.0314  0.0805  0.3920
 6762PP      PP16866  14.423   7.871   3.572  0.0950  0.0943  0.0343
 6763PP      PP16867   0.821   7.273   9.865  0.2077  0.0440  0.3052
 6764PP      PP16868   7.868   4.421   1.592  0.1114  0.0062 -0.0035
 6765PP      PP16869   9.013  11.444   3.671  0.0936  0.2283 -0.1955
 6766PP      PP16870  10.072  14.688  12.056 -0.1382 -0.0238  0.3832
 6767PP      PP16871   1.427   2.003  12.986  0.0317 -0.1026 -0.4082
 6768PP      PP16872   3.706   6.949  12.503  0.1915  0.0690 -0.1583
 6769PP      PP16873   1.462  11.177   2.414 -0.3416  0.1709  0.0384
 6770PP      PP16874   6.997  12.290   0.205 -0.0362  0.3097 -0.3403
 6771PP      PP16875   4.000   7.761   3.859 -0.3619  0.2037 -0.1529
 6772PP      PP16876   3.399   0.368  10.172  0.4869  0.1131 -0.2816
 6773PP      PP16877  12.234   7.515   2.381  0.2287 -0.1690  0.0092
 6774PP      PP16878   8.758   8.877   1.580 -0.1028 -0.1910 -0.0801
 6775PP      PP16879  10.650  11.922   3.004  0.0715 -0.3757  0.2674
 6776PP      PP16880   2.989  15.723   3.890  0.2085 -0.1315  0.1573
 6777PP      PP16881   7.454   2.124   2.562 -0.2749  0.0729 -0.2504
 6778PP      PP16882   1.109  15.532   3.464 -0.0446 -0.1353  0.1371
 6779PP      PP16883   2.281  12.379   2.194 -0.2387 -0.2177 -0.0645
 6780PP      PP16884   6.237  13.061   3.781  0.1976  0.0446  0.0713
 6781PP      PP16885  10.302  13.370   0.098 -0.4016  0.0496 -0.0883
 6782PP      PP16886   8.342  14.006   8.637  0.1387  0.1774  0.0872
 6783PP      PP16887  11.489  10.061   0.539  0.2838  0.2765 -0.1967
 6784PP      PP16888   9.623   0.576   3.758 -0.2227  0.0785 -0.1602
 6785PP      PP16889   2.240   5.785   1.356 -0.2068  0.0325 -0.0839
 6786PP      PP16890  15.553  12.458   0.807 -0.1792  0.0971 -0.0855
 6787PP      PP16891   8.125  14.658   1.982 -0.4076 -0.1391 -0.0009
 6788PP      PP16892   8.210   7.384   2.878 -0.4483  0.3213 -0.0881
 6789PP      PP16893   6.199  11.089   1.371 -0.2606 -0.1163 -0.1713
 6790PP      PP16894   3.595   0.198  12.018  0.3494 -0.1393 -0.1245
 6791PP      PP16895   5.164   8.756  10.506  0.1860 -0.0273 -0.2498
 6792PP      PP16896   5.003  12.365  10.330  0.0486  0.0175 -0.2461
 6793PP      PP16897  14.728   9.663  10.966  0.0073 -0.1399 -0.1203
 6794PP      PP16898   4.900   7.746   0.007 -0.0158  0.1257  0.0025
 6795PP      PP16899  11.544   8.346   0.048  0.2135  0.0138  0.0949
 6796PP      PP16900   9.422  12.918  10.855  0.2134  0.0471 -0.1079
 6797PP      PP16901   1.519  14.480   1.226  0.0278  0.1502  0.0251
 6798PP      PP16902   3.794   0.498  13.203  0.0273  0.1319  0.5067
 6799PP      PP16903   3.323  15.829  12.898  0.0130  0.2102 -0.2435
 6800PP      PP16904   3.011   3.962  11.659 -0.2639 -0.2549  0.1791
 6801PP      PP16905   5.237   3.329   1.453  0.1618 -0.1661 -0.1850
 6802PP      PP16906   5.613   8.958   0.271  0.1713  0.1758  0.0558
 6803PP      PP16907   8.891  11.275   3.007  0.0462 -0.3030  0.1261
 6804PP      PP16908   5.650  14.046   9.182 -0.3565 -0.3363  0.2400
 6805PP      PP16909   2.078  14.970   9.411 -0.0481 -0.0493 -0.2493
 6806PP      PP16910   3.375  14.648   1.075  0.0673 -0.1965  0.0080
 6807PP      PP16911   7.647  15.781  10.951  0.0919  0.0173 -0.3040
 6808PP      PP16912   0.698   4.823  10.567 -0.0214 -0.1589 -0.1851
 6809PP      PP16913   3.380   0.800  12.144 -0.0516  0.1639 -0.2097
 6810PP      PP16914   0.377   5.090  11.167 -0.1637  0.1617  0.3268
 6811PP      PP16915  11.396   6.630   4.370  0.1220  0.0570 -0.0113
 6812PP      PP16916  12.476   6.191  10.235 -0.1699 -0.0166  0.0022
 6813PP      PP16917  13.219  14.119   9.266 -0.3357  0.0224  0.1785
 6814PP      PP16918  13.179  14.877  12.504 -0.2244  0.0461  0.0447
 6815PP      PP16919   0.135   1.475   8.826  0.5625 -0.1970 -0.0493
 6816PP      PP16920   5.641   4.961   9.318 -0.0019  0.0724 -0.0708
 6817PP      PP16921   4.346  10.273  10.066 -0.0131  0.1565 -0.0700
 6818PP      PP16922   9.444   1.481   3.138  0.0436  0.0145 -0.2803
 6819PP      PP16923   2.771  15.457   8.396  0.3302  0.0465  0.2730
 6820PP      PP16924  11.816  14.453   3.712 -0.4013  0.0785  0.1366
 6821PP      PP16925   7.908   5.139   8.594  0.1061 -0.1243 -0.5314
 6822PP      PP16926   7.366   9.211   0.080 -0.0635  0.0130  0.0481
 6823PP      PP16927  15.462   6.211   4.674 -0.0709  0.3026  0.3531
 6824PP      PP16928   3.322   1.461  13.248  0.1303 -0.1679  0.2715
 6825PP      PP16929  13.229   7.400   0.320  0.0068 -0.0642 -0.0643
 6826PP      PP16930   2.951  15.376  11.948  0.2072  0.0514 -0.2277
 6827PP      PP16931   8.651   3.580   9.575  0.0695 -0.2034 -0.2024
 6828PP      PP16932   2.915   6.415   3.276 -0.3584 -0.1006 -0.0154
 6829PP      PP16933   2.755   2.375   3.478  0.0948  0.0533 -0.0427
 6830PP      PP16934   9.829   5.423   1.616 -0.1400  0.1913 -0.2360
 6831PP      PP16935   6.499   2.121  12.678 -0.3707 -0.2076  0.0076
 6832PP      PP16936  14.086   7.064  10.012 -0.1601 -0.2271 -0.2377
 6833PP      PP16937  10.242  13.102   2.794  0.1076  0.3296  0.2610
 6834PP      PP16938   7.107   5.837   0.187  0.1799  0.1212 -0.0536
 6835PP      PP16939   9.593   3.835  12.769  0.1966  0.0275 -0.4310
 6836PP      PP16940   8.164   3.306  12.833 -0.0433 -0.0203 -0.1414
 6837PP      PP16941   9.286  13.160  12.987 -0.2461 -0.0703  0.1647
 6838PP      PP16942   7.823  12.492  11.536  0.0563 -0.3456  0.0516
 6839PP      PP16943   0.108   8.424   1.394 -0.0007  0.1214  0.2087
 6840PP      PP16944   4.891   4.803   4.469  0.0892 -0.1381  0.2943
 6841PP      PP16945  11.004   2.489  13.197 -0.0068 -0.1652  0.0475
 6842PP      PP16946   3.638   1.694  12.463 -0.2062  0.0211  0.0655
 6843PP      PP16947   8.013  13.467   0.289  0.0543  0.0561 -0.1185
 6844PP      PP16948   8.596   1.146   0.644  0.0583 -0.1765  0.1826
 6845PP      PP16949  14.952   3.710  10.029 -0.2814 -0.1874 -0.0410
 6846PP      PP16950   3.153  12.897   0.591  0.1486 -0.0512  0.1035
 6847PP      PP16951   4.635  11.270  10.703  0.4109 -0.0503  0.0585
 6848PP      PP16952  10.954   4.969   3.173 -0.0070  0.0511 -0.0479
 6849PP      PP16953   5.695   9.512   0.201  0.0333 -0.1234 -0.2397
 6850PP      PP16954   6.771   6.554   4.510  0.0294 -0.0808  0.0813
 6851PP      PP16955  11.688   9.291   9.282  0.3976 -0.3989 -0.0149
 6852PP      PP16956   5.007  13.469   9.717  0.0738 -0.0494  0.1295
 6853PP      PP16957   6.321  10.986  12.129 -0.3040  0.1251 -0.1124
 6854PP      PP16958  13.565  13.058  12.514  0.0132  0.0893  0.4259
 6855PP      PP16959  10.240  12.976  10.071 -0.1913  0.0973  0.1728
 6856PP      PP16960  15.491   3.872   0.705 -0.0843  0.1628 -0.1085
 6857PP      PP16961  15.069   9.698   5.011 -0.2096  0.0507 -0.4112
 6858PP      PP16962   3.777   7.086  11.119 -0.2417  0.0299 -0.0107
 6859PP      PP16963   6.893   7.827   8.674 -0.0773  0.2661 -0.3461
 6860PP      PP16964   8.733   1.594   9.810 -0.5530  0.2922 -0.0531
 6861PP      PP16965   4.920  11.407  11.563  0.1946 -0.0656  0.2350
 6862PP      PP16966  13.780   8.866   3.158 -0.0569  0.1979  0.2268
 6863PP      PP16967  10.293   6.033   2.732  0.0442 -0.1443  0.2448
 6864PP      PP16968   0.261  15.007  10.374  0.2940  0.0510  0.0287
 6865PP      PP16969  14.800   0.015  11.114 -0.0821 -0.2090  0.1050
 6866PP      PP16970   5.690   5.865   4.631 -0.6710  0.0031  0.1928
 6867PP      PP16971  12.175   1.310   1.287  0.0912 -0.1257 -0.3205
 6868PP      PP16972  15.402  11.791   0.088  0.0059 -0.2346 -0.2258
 6869PP      PP16973  12.757   9.643   2.021 -0.1654  0.0660 -0.1729
 6870PP      PP16974  13.948   4.071  10.183 -0.0970 -0.2242  0.2262
 6871PP      PP16975   3.189  13.253   0.964 -0.1280 -0.3933 -0.2803
 6872PP      PP16976   5.380  12.477  10.813 -0.4183  0.0111  0.0372
 6873PP      PP16977  11.365   4.483   4.023 -0.1672  0.1882 -0.0982
 6874PP      PP16978  13.851  13.122  12.113  0.2055 -0.1031  0.0335
 6875PP      PP16979   5.020   4.024   9.279  0.2247 -0.1314 -0.2908
 6876PP      PP16980  12.997   7.230   3.649 -0.0066  0.1746 -0.0364
 6877PP      PP16981   1.382  15.323  11.229 -0.3175  0.2063 -0.0565
 6878PP      PP16982  13.465   6.033  11.605 -0.0028 -0.0130 -0.2690
 6879PP      PP16983   3.664  11.374   9.900  0.0336  0.0266 -0.2084
 6880PP      PP16984  14.372  12.215   9.558  0.0329 -0.1884  0.1800
 6881PP      PP16985   5.296  11.981  11.178  0.1659 -0.0561 -0.2044
 6882PP      PP16986  11.636  11.963  10.298 -0.5000 -0.0350 -0.0258
 6883PP      PP16987  15.454   1.624   9.020 -0.2165 -0.2511 -0.1834
 6884PP      PP16988  14.112   0.754   9.732  0.0482  0.1705  0.1795
 6885PP      PP16989  10.090   3.984   1.262  0.1648 -0.0335  0.2652
 6886PP      PP16990   2.599   3.930   0.981 -0.0614  0.0816  0.2129
 6887PP      PP16991   0.660  12.447   3.655  0.3194  0.0379 -0.1029
 6888PP      PP16992  12.341  13.980   2.764 -0.0128 -0.1398  0.1512
 6889PP      PP16993  11.135   0.962   9.986 -0.0871 -0.0855  0.1476
 6890PP      PP16994  15.077  12.249   3.397  0.0558  0.0415 -0.0201
 6891PP      PP16995   6.171  12.766   9.277  0.0251  0.2499 -0.1537
 6892PP      PP16996  12.640   4.149   0.098  0.0268 -0.0924  0.2699
 6893PP      PP16997   2.036   3.436   0.887  0.0592 -0.1923 -0.1428
 6894PP      PP16998  11.154   4.753   9.756 -0.0178 -0.1884  0.0595
 6895PP      PP16999   8.932  11.036  13.102  0.1062 -0.3683 -0.0909
 6896PP      PP17000   5.301   8.902  12.451  0.0605  0.0470 -0.0315
 6897PP      PP17001  10.285  14.070   0.335  0.1593  0.1357  0.1385
 6898PP      PP17002   8.400  10.923   4.567 -0.1109 -0.2402 -0.0545
 6899PP      PP17003   6.554   1.441  11.433  0.1175 -0.0924 -0.0950
 6900PP      PP17004   9.286  11.147   1.780  0.1764  0.1062  0.1435
 6901PP      PP17005  10.708   7.084   1.455  0.0268 -0.1802  0.0511
 6902PP      PP17006   7.435  14.132  12.405  0.0726 -0.2696  0.1856
 6903PP      PP17007  12.439  10.494  11.586 -0.2748  0.3536 -0.2112
 6904PP      PP17008   6.228   7.543   9.246 -0.1072  0.1238 -0.1306
 6905PP      PP17009   5.312   0.604   2.473  0.0291 -0.0439 -0.2912
 6906PP      PP17010  13.486   0.566  12.372 -0.1130 -0.1218  0.0192
 6907PP      PP17011  14.679   4.026   2.823 -0.0135  0.0746 -0.2225
 6908PP      PP17012   0.905   8.953   5.133 -0.2907  0.0456  0.1553
 6909PP      PP17013   6.079   9.520   2.073 -0.0469  0.1032  0.1770
 6910PP      PP17014  12.641   1.868   4.147 -0.0405  0.2249  0.1109
 6911PP      PP17015   9.504   7.972   0.091  0.1306 -0.1835  0.1734
 6912PP      PP17016  11.368   6.450   9.822 -0.0918  0.0571  0.0684
 6913PP      PP17017   8.567   5.329   9.940  0.0360 -0.1638 -0.0160
 6914PP      PP17018  15.381  15.114   2.725 -0.2303  0.3657 -0.0398
 6915PP      PP17019   5.041   0.625   0.793  0.1485 -0.3388  0.1094
 6916PP      PP17020   9.577   6.754   1.582 -0.1153 -0.2286 -0.0397
 6917PP      PP17021  15.176   7.427   1.842 -0.0841 -0.2042 -0.0529
 6918PP      PP17022   1.349   8.616  12.963 -0.1679  0.0929 -0.3478
 6919PP      PP17023  12.713   0.942   0.777 -0.1030 -0.1750 -0.2372
 6920PP      PP17024   5.916  14.849   9.857  0.0902 -0.1232 -0.1631
 6921PP      PP17025  12.222  14.076   0.169 -0.2102 -0.0936  0.2184
 6922PP      PP17026   5.706   4.798   3.280 -0.3164 -0.3126 -0.1863
 6923PP      PP17027   3.051   2.722   8.810  0.0396  0.0254 -0.0534
 6924PP      PP17028   7.845   1.668   9.539  0.4064 -0.3937 -0.0752
 6925PP      PP17029   4.092   1.923  11.831 -0.0135  0.1898  0.1359
 6926PP      PP17030  10.933   7.827  10.400 -0.1293  0.3585 -0.0359
 6927PP      PP17031   0.045  11.717   1.598  0.2934  0.0124  0.1021
 6928PP      PP17032   8.321   5.375   8.175 -0.0416 -0.1124  0.0732
 6929PP      PP17033  10.795   1.237  10.822  0.4454  0.1415  0.0853
 6930PP      PP17034   5.520  14.686  11.370  0.0228 -0.1991  0.3842
 6931PP      PP17035   2.913   9.288   3.313 -0.2016  0.1964  0.1322
 6932PP      PP17036   7.684  14.556   0.723  0.4192 -0.1455  0.0007
 6933PP      PP17037   5.021   7.942   4.593  0.0830 -0.0194  0.4953
 6934PP      PP17038   2.477   9.053   3.112  0.0134 -0.0508 -0.3431
 6935PP      PP17039  13.975   8.311   4.183  0.0529  0.0049  0.1381
 6936PP      PP17040   8.530   3.575  10.602  0.2271  0.3367 -0.0933
 6937PP      PP17041  13.566   4.993   5.234 -0.1221  0.1463  0.1569
 6938PP      PP17042   5.573   5.628  11.566 -0.0813 -0.0607  0.0563
 6939PP      PP17043  11.343   0.336   8.863 -0.0253  0.0088 -0.0832
 6940PP      PP17044   6.758   2.600   9.882 -0.0140  0.0790 -0.1365
 6941PP      PP17045  15.619   6.546   5.007 -0.2525 -0.0516  0.0519
 6942PP      PP17046  13.242   5.672  12.491 -0.2983  0.0495  0.1022
 6943PP      PP17047  10.587  13.631   2.320  0.2435 -0.1224  0.1220
 6944PP      PP17048   9.062   4.843  12.113 -0.0964  0.0437  0.3539
 6945PP      PP17049  11.593  10.069   2.617 -0.1457 -0.1454 -0.2082
 6946PP      PP17050   6.282  13.309  13.203  0.0052 -0.0337  0.2630
 6947PP      PP17051  15.794   6.205  11.406 -0.0180  0.1969 -0.2630
 6948PP      PP17052   6.123  11.462  12.324  0.2430 -0.1855  0.0042
 6949PP      PP17053   7.273   9.195  11.801  0.1565  0.2126 -0.3985
 6950PP      PP17054   6.506  14.301   2.158 -0.1499  0.1301 -0.1973
 6951PP      PP17055  13.363   8.535   3.501 -0.1698  0.3430 -0.0423
 6952PP      PP17056   6.295   8.456   1.642  0.3211 -0.0937 -0.0286
 6953PP      PP17057   1.511  15.394   8.799  0.3568  0.0997 -0.2719
 6954PP      PP17058   3.792   5.571   0.127 -0.2209  0.0027  0.2907
 6955PP      PP17059   0.338  14.582  12.246 -0.2622  0.2587 -0.1488
 6956PP      PP17060  10.699   2.524  11.348 -0.0509  0.4655 -0.1099
 6957PP      PP17061   7.694  12.967   2.756 -0.1394 -0.1077 -0.1784
 6958PP      PP17062   4.492   7.150   2.069  0.1129  0.3552  0.1439
 6959PP      PP17063   2.148   6.422  10.890 -0.1770  0.0582 -0.1272
 6960PP      PP17064  12.501   7.177   4.985  0.1677  0.0753  0.0072
 6961PP      PP17065  15.062   9.467   5.536  0.0450  0.0498  0.1896
 6962PP      PP17066  14.472  12.470   2.717 -0.2385  0.3441 -0.1448
 6963PP      PP17067  15.165   2.436   3.306 -0.0645 -0.1530 -0.0041
 6964PP      PP17068   9.397   4.537  10.298 -0.0604 -0.1039 -0.0264
 6965PP      PP17069   3.963  12.280   2.186  0.1401  0.1442  0.0384
 6966PP      PP17070   4.000  14.053   1.623  0.2205  0.1240  0.1013
 6967PP      PP17071   2.635  14.562  12.470 -0.2398  0.3194  0.1980
 6968PP      PP17072  13.867  12.757  10.137  0.0811 -0.2352  0.0731
 6969PP      PP17073  11.209   3.464   3.596 -0.0026 -0.1444 -0.1212
 6970PP      PP17074   4.037  12.411  11.405 -0.3748  0.0566 -0.0629
 6971PP      PP17075  13.355   6.331  10.873  0.0783  0.0387  0.1751
 6972PP      PP17076   1.976  15.212   3.202  0.2514 -0.0684  0.0108
 6973PP      PP17077   7.143  10.678  13.516  0.0904  0.0549 -0.1065
 6974PP      PP17078  10.001   7.943  13.048  0.1860  0.4477 -0.2423
 6975PP      PP17079   6.870   3.770   2.003 -0.1898 -0.1700 -0.1098
 6976PP      PP17080   4.900  14.878  13.368 -0.0360 -0.2631 -0.1580
 6977PP      PP17081   7.858   5.800  10.249  0.2855 -0.1650  0.0164
 6978PP      PP17082   0.261   6.982   4.958 -0.0191  0.0385 -0.3465
 6979PP      PP17083   0.809   1.426   0.132  0.0680  0.0721 -0.3092
 6980PP      PP17084   0.367   3.221   3.480  0.0749  0.0153  0.3842
 6981PP      PP17085  10.962  11.069   4.043  0.0902 -0.0108  0.1070
 6982PP      PP17086   8.077   2.629   2.938 -0.1020 -0.0889  0.1762
 6983PP      PP17087   9.336   8.348  11.040 -0.0233  0.0831  0.1169
 6984PP      PP17088   3.103   8.059  13.044 -0.0448 -0.1180  0.1403
 6985PP      PP17089   0.792   2.248   0.704  0.0339  0.0465  0.0262
 6986PP      PP17090   2.972   1.292   1.655  0.0337 -0.2176  0.1138
 6987PP      PP17091   8.786  10.428   3.865  0.2864  0.3121  0.1446
 6988PP      PP17092   3.936  10.523  11.755  0.3444  0.2411 -0.2054
 6989PP      PP17093  13.555   0.575  11.859  0.1211 -0.1216 -0.1628
 6990PP      PP17094   1.142   5.868   5.408 -0.0182 -0.0376  0.1007
 6991PP      PP17095   8.022   2.211   8.839  0.1591  0.0816 -0.0128
 6992PP      PP17096   5.591   0.945  11.267 -0.1438  0.5231 -0.0043
 6993PP      PP17097  11.218   3.402   0.420 -0.1196  0.0004 -0.5107
 6994PP      PP17098   8.034  10.270  12.641  0.1057 -0.1345 -0.1433
 6995PP      PP17099   7.765  11.927   1.618 -0.0555  0.0196 -0.0865
 6996PP      PP17100   1.260   5.296  10.223  0.1588 -0.1747  0.1319
 6997PP      PP17101   5.362  13.782   2.444  0.0219 -0.3146  0.1398
 6998PP      PP17102   5.373   9.689  10.466 -0.1047 -0.0035  0.0840
 6999PP      PP17103   3.629   9.848  11.286 -0.2821 -0.3521 -0.1166
 7000PP      PP17104   1.487   7.111   2.616  0.4152  0.2547  0.0484
 7001PP      PP17105  14.459  11.869   3.345 -0.1515  0.0178  0.2492
 7002PP      PP17106  14.213  12.617   9.231 -0.2535  0.3182 -0.1874
 7003PP      PP17107   4.049   2.663   1.827 -0.0905  0.3074  0.1051
 7004PP      PP17108  10.153  12.360  10.419  0.2121  0.3478 -0.3542
 7005PP      PP17109   0.605  11.414   2.162  0.1681  0.0815  0.1305
 7006PP      PP17110  10.301  15.128  12.840  0.0498 -0.0510  0.0293
 7007PP      PP17111  12.143  14.572   0.060 -0.1575 -0.0977 -0.3406
 7008PP      PP17112   8.744   6.719   3.815  0.0690 -0.3400 -0.1936
 7009PP      PP17113  11.553   9.851  10.551 -0.2115  0.1643  0.3359
 7010PP      PP17114  14.180  15.227   9.287 -0.0940  0.2188  0.0425
 7011PP      PP17115  11.925   5.606   9.844  0.1105  0.5871  0.0674
 7012PP      PP17116  14.378   2.880   3.990  0.2177 -0.0877 -0.0845
 7013PP      PP17117   3.287   2.452   2.630  0.1302  0.2506 -0.0649
 7014PP      PP17118   7.947  13.513  11.078 -0.2130  0.0827 -0.0084
 7015PP      PP17119  11.155   4.115   0.213 -0.0844 -0.0619  0.2061
 7016PP      PP17120   9.709   5.138   2.080 -0.1815  0.2116 -0.0161
 7017PP      PP17121   8.317  13.235  10.887 -0.2388  0.0478 -0.1753
 7018PP      PP17122  10.781   1.133  11.475  0.2615  0.1778 -0.2301
 7019PP      PP17123   0.472  12.911  11.205  0.0080 -0.2411 -0.0740
 7020PP      PP17124  10.949   8.871  10.743 -0.2198  0.2750 -0.0042
 7021PP      PP17125  15.497   7.858  10.682  0.0044 -0.2232 -0.1041
 7022PP      PP17126  12.218   5.912   2.086 -0.0531 -0.0408  0.0267
 7023PP      PP17127  15.309   4.685  11.660  0.0440 -0.0835 -0.2724
 7024PP      PP17128  12.007  11.310   3.377 -0.0560 -0.1457 -0.1309
 7025PP      PP17129   1.450   3.067  13.282 -0.0738  0.1226  0.1152
 7026PP      PP17130   0.599   0.749   2.670  0.0224  0.1902 -0.0506
 7027PP      PP17131  14.599   1.997   2.876 -0.1447 -0.2266  0.0692
 7028PP      PP17132   4.764   0.089   1.868 -0.0877  0.3710 -0.0971
 7029PP      PP17133   9.532  11.465   0.072  0.4475  0.1974  0.0586
 7030PP      PP17134   3.146  14.009   0.544 -0.0375 -0.4269  0.1356
 7031PP      PP17135   8.311   5.281  12.399 -0.1966 -0.0592 -0.0663
 7032PP      PP17136   9.754  12.951   1.353  0.0412  0.0563 -0.0009
 7033PP      PP17137   7.275   5.307   0.986  0.0524  0.0814  0.2248
 7034PP      PP17138  12.815   4.281  12.533 -0.2384  0.2719 -0.1087
 7035PP      PP17139   4.291  14.685   1.255 -0.1571 -0.1474  0.0339
 7036PP      PP17140   9.490  10.631   1.429 -0.0886  0.0656  0.0606
 7037PP      PP17141   5.149   0.610   0.247 -0.1472 -0.0497 -0.0593
 7038PP      PP17142   3.269   8.596  12.940  0.1819 -0.1297  0.2562
 7039PP      PP17143   7.337   2.127   3.726 -0.0698  0.0186 -0.1212
 7040PP      PP17144  14.318  10.283   1.197 -0.5617  0.2478  0.0321
 7041PP      PP17145   0.555  15.175   2.967 -0.1900  0.2682 -0.1690
 7042PP      PP17146   6.276   2.898  13.240 -0.1179 -0.1839  0.1166
 7043PP      PP17147   1.030   5.552   0.928 -0.2086  0.3013  0.3358
 7044PP      PP17148  10.162   5.072   2.493  0.1108 -0.1443  0.1284
 7045PP      PP17149  12.826  10.303   3.875  0.0292  0.0331  0.3849
 7046PP      PP17150   4.836   2.728   3.012  0.3042 -0.1031  0.2527
 7047PP      PP17151  10.047  14.967   9.458  0.0626 -0.4007 -0.3371
 7048PP      PP17152   2.469  11.571  10.113  0.0279  0.4358  0.1687
 7049PP      PP17153  12.794   0.292  12.871  0.1244  0.0690 -0.0134
 7050PP      PP17154   6.679  12.163  10.109 -0.2011 -0.1798 -0.0325
 7051PP      PP17155   6.965   0.433   9.422 -0.2059  0.2325  0.0716
 7052PP      PP17156   2.672   7.532   1.688  0.0322 -0.1845  0.2937
 7053PP      PP17157   4.643  10.969   2.332  0.1992 -0.3259 -0.0330
 7054PP      PP17158   8.286  14.562   8.578 -0.4160  0.2155 -0.1808
 7055PP      PP17159  13.206  12.792  11.161 -0.3017  0.0893  0.0089
 7056PP      PP17160  12.336   8.935   4.364 -0.0446 -0.1090 -0.3850
 7057PP      PP17161  10.754  14.703  10.295 -0.1834 -0.2149 -0.0995
 7058PP      PP17162  15.540   4.327   2.173 -0.3696  0.0578 -0.0743
 7059PP      PP17163  12.128   9.297   1.476  0.2604  0.2129  0.2379
 7060PP      PP17164   7.135   7.101   0.468  0.0983 -0.2501  0.2626
 7061PP      PP17165   6.267   3.295   1.851  0.1097 -0.3269 -0.0856
 7062PP      PP17166   6.071   7.890  11.449 -0.2949 -0.1245  0.2275
 7063PP      PP17167   2.140  14.273   2.596 -0.1154  0.5522 -0.1204
 7064PP      PP17168  15.696   7.058   5.380 -0.2157 -0.0811  0.0317
 7065PP      PP17169  15.271   3.427   2.317 -0.1205 -0.1190 -0.4310
 7066PP      PP17170   3.404   8.596   1.834  0.2576 -0.2401 -0.3897
 7067PP      PP17171  13.340  10.949   1.888  0.0596  0.0182  0.0614
 7068PP      PP17172   5.683   8.594  10.524 -0.3131 -0.0939 -0.3163
 7069PP      PP17173  12.074   2.929   3.301  0.0360 -0.3719  0.0172
 7070PP      PP17174   5.968   2.527  10.142 -0.0044 -0.1451 -0.0855
 7071PP      PP17175   3.598  14.700   9.153 -0.1751  0.1316  0.0267
 7072PP      PP17176  15.086   6.516   4.694 -0.2521  0.0274  0.0037
 7073PP      PP17177  12.944   7.074  13.068  0.1389  0.0580  0.1471
 7074PP      PP17178   1.365  14.677  11.809 -0.1097 -0.0933  0.2178
 7075PP      PP17179   3.471   9.430   0.619 -0.0128 -0.0350 -0.1096
 7076PP      PP17180  14.189   0.287   1.255 -0.1190  0.0906  0.1581
 7077PP      PP17181  13.049   0.291   8.998 -0.0112 -0.1624  0.0797
 7078PP      PP17182   1.668  13.224   0.782  0.2037 -0.1704 -0.0472
 7079PP      PP17183   6.086  13.879   9.638 -0.1561 -0.3232 -0.0207
 7080PP      PP17184   8.732   9.193  12.012  0.0305  0.1202 -0.0775
 7081PP      PP17185  14.631   5.036   0.702  0.1505 -0.0113  0.1168
 7082PP      PP17186   4.131   3.118   0.868  0.0854  0.1361 -0.0518
 7083PP      PP17187   4.699   6.087   0.503  0.3069  0.1359  0.0352
 7084PP      PP17188   0.626   4.909   3.065  0.1560 -0.1938  0.2272
 7085PP      PP17189   7.071   5.358   3.154 -0.5538 -0.1985 -0.2109
 7086PP      PP17190  15.134  10.047   4.224  0.1476 -0.1032  0.0138
 7087PP      PP17191   1.444   2.007   8.221  0.0113 -0.0756  0.1225
 7088PP      PP17192  14.988   3.127   9.052 -0.0945 -0.0941 -0.1743
 7089PP      PP17193   2.939  14.582  10.624 -0.0569 -0.1475 -0.1486
 7090PP      PP17194   9.213   5.398   2.847 -0.1595 -0.1632 -0.2166
 7091PP      PP17195  13.488   7.727   0.959  0.0853 -0.0670 -0.1904
 7092PP      PP17196  10.979   0.813   0.664 -0.1098 -0.0050 -0.1538
 7093PP      PP17197   0.405   4.794   4.551 -0.3754 -0.1168  0.1748
 7094PP      PP17198   5.250   5.797   3.287 -0.1459 -0.0320  0.0914
 7095PP      PP17199   7.928  13.258   3.087  0.2555 -0.0883 -0.1923
 7096PP      PP17200  13.295  14.781  11.889  0.2489  0.2174  0.4698
 7097PP      PP17201   3.272  10.731  10.976 -0.2507  0.0102  0.0715
 7098PP      PP17202  10.434   0.126  12.416  0.0110 -0.1127 -0.0446
 7099PP      PP17203   9.765  12.403   1.446  0.0612 -0.0223 -0.3013
 7100PP      PP17204   5.852   0.223   7.430  0.1310 -0.1214 -0.1864
 7101PP      PP17205  14.921   7.092  12.765  0.1451  0.0150  0.0954
 7102PP      PP17206  15.829  14.846  12.485 -0.0524 -0.0825 -0.1186
 7103PP      PP17207  12.590   3.573   0.871  0.0259  0.3048 -0.0887
 7104PP      PP17208  14.507   1.809  11.770 -0.0649  0.0801  0.1767
 7105PP      PP17209   1.209   2.873   2.270 -0.0047  0.1216 -0.3206
 7106PP      PP17210  13.981   1.230  12.173  0.3457  0.0452 -0.3386
 7107PP      PP17211   4.936  15.541   1.111  0.2511  0.0332 -0.3342
 7108PP      PP17212   2.111   5.049  11.368 -0.0121 -0.4733  0.0282
 7109PP      PP17213   7.736   6.228   4.719 -0.1424 -0.2312  0.1058
 7110PP      PP17214   1.434  15.792   3.177 -0.3792 -0.4085  0.0035
 7111PP      PP17215  14.398  14.647   3.631 -0.0772  0.2294 -0.0443
 7112PP      PP17216  13.644   7.280  12.350  0.2091  0.0980 -0.0403
 7113PP      PP17217  14.484  15.417   8.930 -0.1038 -0.2647  0.0724
 7114PP      PP17218  12.700  13.270   3.648  0.0580  0.1284  0.0227
 7115PP      PP17219   6.657   4.564   4.181 -0.4018  0.1736  0.2665
 7116PP      PP17220  12.382   7.413   3.775  0.0662  0.2329  0.2160
 7117PP      PP17221   8.926  12.745   0.405 -0.1627  0.0310  0.0267
 7118PP      PP17222  15.179   3.411  11.519  0.0129  0.0174  0.1010
 7119PP      PP17223   2.032   4.732   4.505 -0.2650 -0.1269  0.4850
 7120PP      PP17224  10.655   5.097   1.928 -0.1043 -0.0803  0.1599
 7121PP      PP17225  13.649   1.524   9.433  0.0969  0.0507 -0.0150
 7122PP      PP17226  10.977   0.015  12.295 -0.3480  0.1225 -0.1526
 7123PP      PP17227  14.291  10.709   4.861 -0.0941  0.0440 -0.0728
 7124PP      PP17228   1.997   3.054   2.647 -0.0577  0.0825 -0.0533
 7125PP      PP17229   4.442  12.857   0.051 -0.2322 -0.0677  0.0212
 7126PP      PP17230   3.930   7.964  10.618 -0.1481  0.1067 -0.3032
 7127PP      PP17231  15.459   1.151  10.824 -0.1746  0.0026 -0.2105
 7128PP      PP17232   8.305   9.571  10.054  0.1704 -0.0325  0.2236
 7129PP      PP17233   4.591  13.801  12.687 -0.0534 -0.3541  0.3520
 7130PP      PP17234  11.622  12.213   3.473 -0.3506 -0.1816  0.0324
 7131PP      PP17235   9.942  10.578  11.573 -0.5071 -0.3850  0.2060
 7132PP      PP17236   8.267   9.592   1.641  0.1175  0.1437  0.2564
 7133PP      PP17237   1.605   6.730   0.927 -0.1847  0.0156 -0.0042
 7134PP      PP17238  12.586   2.819   9.276  0.0703  0.2487  0.2163
 7135PP      PP17239  10.741   9.835   2.537  0.0695 -0.1532  0.0396
 7136PP      PP17240   6.452   0.989  12.330  0.1451 -0.0777  0.2093
 7137PP      PP17241   1.577   8.487   2.458 -0.1174 -0.1046 -0.0415
 7138PP      PP17242  13.778   2.921   0.817 -0.1639  0.1191 -0.0629
 7139PP      PP17243   0.250  13.961   4.014 -0.0213  0.1462  0.1707
 7140PP      PP17244  11.497   8.991   0.743  0.0879 -0.2914  0.0556
 7141PP      PP17245  15.671   6.160   1.035  0.0588  0.1421 -0.0207
 7142PP      PP17246   5.066   3.315  11.041 -0.2400  0.0150  0.2976
 7143PP      PP17247   6.781   3.261   2.177  0.1368 -0.0565  0.5583
 7144PP      PP17248   3.211  13.105  10.695  0.1220  0.2085  0.2804
 7145PP      PP17249   9.265  10.189   0.146 -0.1515 -0.3603  0.1762
 7146PP      PP17250   9.811   9.634   2.620 -0.3733 -0.0799 -0.1095
 7147PP      PP17251   9.977  14.239  12.229  0.0374 -0.3308 -0.0601
 7148PP      PP17252  14.338   3.298   3.671  0.2145  0.1141 -0.0733
 7149PP      PP17253   5.274   2.330  10.907  0.0821  0.0844  0.0230
 7150PP      PP17254   0.323   0.384  10.761 -0.2896 -0.0789  0.2811
 7151PP      PP17255   5.454   1.141   0.775 -0.0267  0.0142  0.0053
 7152PP      PP17256   6.411   3.882   9.680  0.1886 -0.3142  0.0551
 7153PP      PP17257   1.168  10.312  10.286  0.0669 -0.1809 -0.2201
 7154PP      PP17258  10.409  12.789  12.064 -0.0457  0.0696  0.0115
 7155PP      PP17259   8.889   6.704   9.787  0.1338  0.2451  0.1774
 7156PP      PP17260   6.726  15.297   8.267 -0.0529  0.1871 -0.1600
 7157PP      PP17261   4.944   6.131  10.049  0.0845  0.1168 -0.0255
 7158PP      PP17262  11.311   2.206  12.639 -0.1282 -0.3319 -0.5036
 7159PP      PP17263   4.950  10.844  12.312  0.1670 -0.0322 -0.0632
 7160PP      PP17264   3.090  15.758   2.547 -0.1537  0.2460  0.0525
 7161PP      PP17265  14.442  14.326   4.019 -0.2033  0.1850  0.0463
 7162PP      PP17266  14.342   5.846   3.294  0.1906  0.1460 -0.1030
 7163PP      PP17267   4.881   9.636   2.213  0.1521  0.3715 -0.1483
 7164PP      PP17268   3.593   7.485  10.625 -0.1425  0.1265 -0.0708
 7165PP      PP17269   6.704  11.186   1.579  0.0716  0.2365  0.0668
 7166PP      PP17270   5.466  14.332   2.502 -0.3396 -0.0057  0.1199
 7167PP      PP17271   8.822   0.795   9.704 -0.3148 -0.0996 -0.3141
 7168PP      PP17272   4.533   9.227   4.771 -0.1347 -0.0768 -0.1195
 7169PP      PP17273  13.341  14.976   1.290  0.2208  0.0360 -0.0911
 7170PP      PP17274   7.881   9.330   1.184  0.1331  0.2190  0.0358
 7171PP      PP17275   8.652   4.023  10.278  0.2089  0.3309  0.2394
 7172PP      PP17276  14.381   4.569   3.777 -0.2415  0.2154  0.1431
 7173PP      PP17277   8.178   0.693  13.147  0.2150  0.0190 -0.0602
 7174PP      PP17278   1.410   1.370  10.640  0.1080 -0.0931  0.0628
 7175PP      PP17279   1.339   9.957  13.162  0.2240  0.2309  0.1344
 7176PP      PP17280   9.012  15.114  13.239  0.1043 -0.0513 -0.1553
 7177PP      PP17281   7.817   9.457  11.619  0.4291 -0.4323  0.0697
 7178PP      PP17282   5.110   2.103   2.618  0.1480  0.2899 -0.0647
 7179PP      PP17283  15.160   8.629  12.549  0.5352  0.2567 -0.0923
 7180PP      PP17284   5.060  10.266   0.522  0.0513  0.1237 -0.3497
 7181PP      PP17285   4.133   8.281  11.006  0.4184  0.2340  0.2935
 7182PP      PP17286  12.104   9.109   5.453  0.1645  0.0660 -0.0987
 7183PP      PP17287  12.089  13.241  11.972  0.0599  0.0087  0.0195
 7184PP      PP17288   5.199   4.743   3.364 -0.0995 -0.0364  0.1917
 7185PP      PP17289  12.733   7.893   9.903  0.2178  0.0565  0.2007
 7186PP      PP17290   9.163   8.631   2.010 -0.0227  0.2362  0.0675
 7187PP      PP17291   9.826  12.762   4.443  0.1055  0.0198  0.0623
 7188PP      PP17292   9.740   7.928   3.276 -0.0518  0.1778 -0.1862
 7189PP      PP17293   5.878   8.680   3.390 -0.2599  0.1819  0.0206
 7190PP      PP17294   6.195   4.695  12.339 -0.1246 -0.0160  0.0915
 7191PP      PP17295   9.306  12.929   3.191 -0.0630 -0.3958  0.3783
 7192PP      PP17296   8.781  12.483   0.921  0.0328  0.0308  0.0558
 7193PP      PP17297   3.294   8.962   2.444 -0.0642 -0.3825 -0.1569
 7194PP      PP17298  15.289   0.326  11.492 -0.0504  0.0554  0.1326
 7195PP      PP17299   4.261  15.542   8.646  0.0832  0.0269  0.2723
 7196PP      PP17300   2.653   7.295   3.504  0.2557  0.1949  0.1612
 7197PP      PP17301  13.383   9.532  13.011 -0.1536  0.1324 -0.2161
 7198PP      PP17302   7.387   9.032   2.927  0.0571  0.1169  0.3199
 7199PP      PP17303  11.467   4.496   2.242  0.1320 -0.1653 -0.0215
 7200PP      PP17304   9.800   4.984  11.167  0.0562  0.1796 -0.1104
 7201PP      PP17305  12.156   1.222   1.871  0.1938  0.3385 -0.0088
 7202PP      PP17306   9.946   3.329   2.663 -0.0282  0.0742  0.1134
 7203PP      PP17307   5.156   1.982   9.769 -0.0212  0.0382  0.1004
 7204PP      PP17308  13.808  15.542   9.473  0.1004 -0.1503  0.1374
 7205PP      PP17309   6.838   2.887   1.160  0.0572  0.1193 -0.0183
 7206PP      PP17310   4.037  14.848  11.680 -0.4164 -0.0321  0.2495
 7207PP      PP17311  10.882   9.384   1.736  0.0416 -0.0487  0.0146
 7208PP      PP17312  12.872   3.795  12.989  0.1582  0.1208  0.0242
 7209PP      PP17313   1.443   0.073   8.746 -0.0784  0.0693  0.0312
 7210PP      PP17314   6.116   3.893   2.617  0.1249  0.0412  0.1467
 7211PP      PP17315  15.222  11.250   9.337  0.3628 -0.0266  0.0996
 7212PP      PP17316   6.355   7.148   0.789 -0.0412  0.1764 -0.1582
 7213PP      PP17317   2.744  14.213  11.717  0.1722  0.2497  0.2012
 7214PP      PP17318  14.768   8.103  12.379 -0.1759 -0.0773 -0.2822
 7215PP      PP17319   0.141  11.029   1.455 -0.2959 -0.1774  0.1055
 7216PP      PP17320  13.511   3.696   2.415 -0.0412 -0.0650 -0.3005
 7217PP      PP17321  13.534  10.026   3.371 -0.1287 -0.1097  0.2325
 7218PP      PP17322  14.962  12.799   4.407 -0.0223 -0.0605 -0.0712
 7219PP      PP17323  15.635   2.452  10.010 -0.2492 -0.1553  0.0611
 7220PP      PP17324  15.346  10.744  12.201  0.0200 -0.0773 -0.0859
 7221PP      PP17325  15.102   8.743   1.809 -0.1162 -0.0250 -0.3241
 7222PP      PP17326   6.970   9.485  12.284  0.6368 -0.1148  0.0883
 7223PP      PP17327   1.703   8.697  10.102 -0.0153 -0.4140  0.2170
 7224PP      PP17328   1.151   5.647   1.657  0.1112  0.2032 -0.3047
 7225PP      PP17329  10.262   2.082   1.808  0.0481 -0.2176 -0.2083
 7226PP      PP17330   6.010   6.572   3.073 -0.2640  0.0518 -0.2818
 7227PP      PP17331  15.734   5.479   3.404  0.1613 -0.4234 -0.3193
 7228PP      PP17332   3.142  11.195   0.380  0.0788  0.1978  0.4618
 7229PP      PP17333   5.200  15.716  11.357 -0.1633  0.0052 -0.1842
 7230PP      PP17334  13.526   6.972  10.277 -0.0924  0.0513  0.0906
 7231PP      PP17335  12.518   3.570   8.908 -0.0083  0.1214  0.0334
 7232PP      PP17336   9.450   2.808   0.903 -0.0258 -0.2897 -0.2751
 7233PP      PP17337  11.684  10.824  11.941 -0.1198  0.1363  0.1223
 7234PP      PP17338  11.203   5.584   9.080  0.0419 -0.2129  0.2728
 7235PP      PP17339   1.517   0.283  10.417  0.2157  0.1559  0.5276
 7236PP      PP17340   0.792   9.768   4.805 -0.1060  0.2072 -0.3233
 7237PP      PP17341   1.819  12.066   2.820 -0.4034 -0.2710 -0.1460
 7238PP      PP17342   1.315   3.240   9.947 -0.2611  0.1108  0.0256
 7239PP      PP17343   6.801   3.018   3.688  0.2742  0.1297  0.1398
 7240PP      PP17344  13.215  13.786  13.051 -0.2028  0.0455 -0.0254
 7241PP      PP17345   6.094  11.424   3.091  0.0753  0.0573  0.1752
 7242PP      PP17346   9.097   2.566   3.468  0.1072  0.1634 -0.0415
 7243PP      PP17347   3.775  13.578   1.450  0.0025 -0.1039 -0.0978
 7244PP      PP17348   7.167  15.598  11.126  0.1997  0.0040  0.2011
 7245PP      PP17349   1.235   2.704  10.871 -0.0546  0.1722  0.1265
 7246PP      PP17350   2.851   9.182  12.896  0.0666 -0.0287  0.0587
 7247PP      PP17351   5.828   4.126   9.797 -0.0469  0.1224  0.2344
 7248PP      PP17352   0.616   4.163   3.340 -0.1769  0.2225 -0.1965
 7249PP      PP17353   5.286   0.701   7.023  0.1001  0.0306  0.0755
 7250PP      PP17354   7.667   2.648  13.316  0.0733  0.1314 -0.0496
 7251PP      PP17355  13.792  12.040   3.474 -0.2509  0.1543  0.2200
 7252PP      PP17356   2.166   8.794  13.154 -0.1782  0.3813  0.1531
 7253PP      PP17357  12.446   5.094   0.171 -0.3287 -0.2557 -0.2339
 7254PP      PP17358   8.118  11.707   1.994 -0.1602 -0.2222 -0.3821
 7255PP      PP17359   8.465   0.274  10.389 -0.0001 -0.1491 -0.3350
 7256PP      PP17360  10.202  15.759   2.625 -0.0227 -0.0800 -0.3033
 7257PP      PP17361   2.610  11.640   2.971  0.1111 -0.2507  0.1493
 7258PP      PP17362   2.934   0.590   0.724  0.3522 -0.1117  0.0805
 7259PP      PP17363   7.192  14.393  12.085  0.1761  0.1872 -0.1056
 7260PP      PP17364   0.156  14.813   2.898  0.0287 -0.2916 -0.2652
 7261PP      PP17365  14.946   2.018   2.455 -0.3201 -0.1281 -0.1120
 7262PP      PP17366   5.080  14.165   9.258 -0.0834  0.0469 -0.0148
 7263PP      PP17367   9.900   7.534  12.125  0.1594 -0.1861 -0.3573
 7264PP      PP17368  12.895  14.352  11.191  0.1848  0.0206  0.0541
 7265PP      PP17369   3.778  15.310   8.551 -0.3115  0.0933  0.1148
 7266PP      PP17370  14.991  15.445   3.303  0.0069 -0.1111  0.0705
 7267PP      PP17371  12.408  12.398   2.922 -0.2744  0.1367 -0.1236
 7268PP      PP17372  13.331   5.027  11.769 -0.0077  0.0543  0.0862
 7269PP      PP17373   3.694   9.887   1.633 -0.2659  0.3621  0.2018
 7270PP      PP17374   3.954   0.581   7.904 -0.1190  0.0494  0.2489
 7271PP      PP17375  15.568   1.574   8.536  0.1146  0.2016 -0.1546
 7272PP      PP17376   0.774  11.691   0.923 -0.1394 -0.0942  0.3882
 7273PP      PP17377  11.514   9.196  12.139 -0.1523  0.1709 -0.1835
 7274PP      PP17378   6.824   8.310  12.807  0.2497 -0.3582  0.1460
 7275PP      PP17379   7.777   6.937  13.134  0.1145 -0.3322 -0.1426
 7276PP      PP17380  15.518  12.944   9.496  0.2593  0.0393  0.2158
 7277PP      PP17381  14.951  14.349   1.952  0.0122  0.3588  0.1864
 7278PP      PP17382   5.754   1.438   0.362 -0.1510  0.1408  0.3445
 7279PP      PP17383   0.243   4.279   4.433 -0.1262  0.0587  0.0350
 7280PP      PP17384  15.029  15.319  12.782 -0.0938  0.0351  0.0128
 7281PP      PP17385   4.699   2.054   1.603  0.0893  0.1361  0.1218
 7282PP      PP17386  11.754   5.184   0.634 -0.1775  0.1440  0.3404
 7283PP      PP17387   1.825   9.784  13.285 -0.0825  0.3482 -0.2483
 7284PP      PP17388  14.538  15.331   0.368 -0.1617  0.1201  0.1197
 7285PP      PP17389  15.096   7.545   4.221  0.0358 -0.0122  0.2631
 7286PP      PP17390  14.134   2.947  10.398 -0.0957  0.1433 -0.2280
 7287PP      PP17391  13.852   8.025  12.507  0.0215  0.2591 -0.1208
 7288PP      PP17392  15.051   8.130   3.247 -0.2134 -0.0444  0.0388
 7289PP      PP17393   6.290  12.193   2.283  0.3167 -0.0060 -0.1043
 7290PP      PP17394   7.511   7.540   2.479 -0.0879 -0.1239  0.0214
 7291PP      PP17395  10.915   9.490  10.514  0.1613 -0.1967  0.0544
 7292PP      PP17396  14.316  15.704   9.355  0.1674 -0.0081  0.2442
 7293PP      PP17397   4.639  15.533   1.534  0.1287 -0.1837  0.2765
 7294PP      PP17398  13.413  15.579   0.563  0.0506 -0.1625 -0.0557
 7295PP      PP17399   4.482   3.947  10.155  0.0756  0.2669  0.4414
 7296PP      PP17400  13.835   0.683  13.211  0.0005 -0.2237  0.1812
 7297PP      PP17401  10.589   8.261   1.754 -0.0129 -0.1669  0.1953
 7298PP      PP17402   8.705   9.071  13.490  0.0066 -0.4729  0.2657
 7299PP      PP17403   2.373   1.677  13.036 -0.2575 -0.2944 -0.0927
 7300PP      PP17404  14.534  10.307  12.067  0.0151  0.0041 -0.0817
 7301PP      PP17405  15.827  13.939  10.039  0.0129  0.2220  0.0111
 7302PP      PP17406   7.798   7.617   9.167  0.0563  0.1857  0.0775
 7303PP      PP17407  14.442   4.783  11.603 -0.0103 -0.0894 -0.0726
 7304PP      PP17408  12.664   5.475   3.741 -0.2268  0.1800 -0.1214
 7305PP      PP17409   3.071  15.373  10.320  0.1264  0.1375 -0.2269
 7306PP      PP17410   4.867  14.355  11.780 -0.2953 -0.2303  0.0334
 7307PP      PP17411   0.708   8.184   0.746  0.0708  0.0195 -0.0129
 7308PP      PP17412   0.204   2.670   1.098 -0.1131 -0.1747 -0.4346
 7309PP      PP17413   2.954  12.430   0.877 -0.0490 -0.0112  0.0425
 7310PP      PP17414   2.458   1.059   8.654 -0.2244  0.1922 -0.1888
 7311PP      PP17415  15.288   7.438   5.230  0.0843  0.4858  0.3056
 7312PP      PP17416  14.467   3.272  10.673  0.0800 -0.0242 -0.1059
 7313PP      PP17417   8.175  11.090   2.622  0.2478 -0.0250 -0.2375
 7314PP      PP17418   4.883  13.184   3.359  0.2281  0.4992  0.0024
 7315PP      PP17419   1.463  10.023  10.030  0.2188  0.0326  0.1293
 7316PP      PP17420   2.216   2.684   0.745  0.1489  0.0168 -0.1541
 7317PP      PP17421   7.835   1.627  10.980 -0.1952  0.0643 -0.0042
 7318PP      PP17422   2.025   7.120  13.044 -0.2514 -0.1323 -0.0003
 7319PP      PP17423  11.522  14.464  12.249  0.0121 -0.0540  0.4633
 7320PP      PP17424  13.414  14.656   3.624 -0.1395  0.0852  0.1058
 7321PP      PP17425   3.986   7.519  10.907  0.1149 -0.2797 -0.3859
 7322PP      PP17426   6.081   4.485   3.312  0.1199  0.0076 -0.2295
 7323PP      PP17427   6.315   1.818   9.508  0.0730  0.1401  0.1363
 7324PP      PP17428   2.405  13.930  13.089 -0.1715 -0.0547  0.2144
 7325PP      PP17429   5.350  12.678  10.066 -0.3628  0.3482  0.2457
 7326PP      PP17430  12.442  13.426  11.146  0.0744 -0.0824  0.1450
 7327PP      PP17431   6.424  11.078   0.292  0.2421  0.3497  0.1600
 7328PP      PP17432   1.504   9.180   5.805 -0.1060 -0.0424 -0.1672
 7329PP      PP17433   8.305   1.024   0.123 -0.0943 -0.1082 -0.4769
 7330PP      PP17434   1.242   7.931   2.345  0.3493 -0.0165  0.0494
 7331PP      PP17435  12.799   3.959   8.972 -0.1569 -0.0561  0.0961
 7332PP      PP17436   3.380   5.376   1.257 -0.2894 -0.2651  0.3462
 7333PP      PP17437  10.460  13.453  10.333  0.2332 -0.1844  0.0153
 7334PP      PP17438   6.552  10.992  13.095  0.4006 -0.2484  0.1728
 7335PP      PP17439   1.724   3.556   2.677  0.0366 -0.1131 -0.1426
 7336PP      PP17440   5.871   5.420  12.663 -0.0974  0.1663 -0.0817
 7337PP      PP17441  10.646  15.590  10.852  0.0692 -0.0742 -0.1624
 7338PP      PP17442  14.633   2.209  12.021 -0.2377  0.0597  0.3276
 7339PP      PP17443   6.537   1.146   9.751 -0.0314 -0.0509 -0.2992
 7340PP      PP17444  10.184  15.360  10.939 -0.0267 -0.1202  0.3096
 7341PP      PP17445   1.057  10.934   2.763  0.1531  0.2623 -0.1508
 7342PP      PP17446  11.049  15.653   2.936  0.0119 -0.0380  0.1595
 7343PP      PP17447  10.529   8.217   0.397  0.1084 -0.3076 -0.2133
 7344PP      PP17448   8.877  13.776   4.351  0.0436  0.1068 -0.0853
 7345PP      PP17449   4.072   8.736   4.653  0.3306  0.2229 -0.0627
 7346PP      PP17450  14.755  11.572   4.357 -0.0743  0.2946  0.1019
 7347PP      PP17451   6.685  15.516   8.863 -0.0688 -0.0012 -0.0404
 7348PP      PP17452   9.186   3.815  12.422  0.0665  0.1107 -0.0746
 7349PP      PP17453   4.379   9.644  10.657  0.1819  0.3241  0.4140
 7350PP      PP17454   0.793   3.156   1.065 -0.0678 -0.0637 -0.0749
 7351PP      PP17455  14.986   9.477   4.161  0.2442 -0.3199  0.0618
 7352PP      PP17456  11.501   7.478   1.756 -0.0755 -0.2880 -0.0183
 7353PP      PP17457  11.604  11.531   1.388  0.2428 -0.1068 -0.0354
 7354PP      PP17458   0.451   6.878  10.247 -0.0817  0.0485  0.4764
 7355PP      PP17459   9.762  11.673   1.214 -0.0069 -0.0026 -0.2354
 7356PP      PP17460   5.725   4.789  13.430  0.4107  0.0001  0.0253
 7357PP      PP17461   1.039  11.002  10.975  0.1249  0.0564 -0.1161
 7358PP      PP17462  11.550   9.777   5.349  0.0423 -0.1244  0.3068
 7359PP      PP17463  15.753   3.200   5.002 -0.2623 -0.0586 -0.3243
 7360PP      PP17464   3.462  13.755   3.271  0.1341  0.0270 -0.2913
 7361PP      PP17465  14.343  14.141   2.981 -0.0071  0.0973  0.1827
 7362PP      PP17466   3.271   1.742   3.799  0.0579 -0.1903  0.1510
 7363PP      PP17467  15.790   9.929   5.199 -0.1627  0.1454  0.0088
 7364PP      PP17468  11.203  15.322   2.513 -0.0269 -0.1815 -0.0159
 7365PP      PP17469   2.171  13.648   9.922 -0.1743  0.0068 -0.0663
 7366PP      PP17470   8.732  14.530   2.382  0.3520  0.0406  0.0002
 7367PP      PP17471   5.389   8.946   1.608 -0.1013 -0.1886  0.0976
 7368PP      PP17472   4.878   1.851   8.430  0.3760  0.2275  0.0776
 7369PP      PP17473  12.097  11.399   1.298 -0.2467 -0.0850  0.0229
 7370PP      PP17474   3.308   3.376   9.859  0.0107 -0.0583 -0.0235
 7371PP      PP17475   6.163   9.262   2.864 -0.0698  0.0968 -0.2687
 7372PP      PP17476   9.540  15.045  12.192 -0.0174  0.0781 -0.1613
 7373PP      PP17477   3.910   4.109  10.804 -0.0092  0.0441 -0.0351
 7374PP      PP17478   3.514   7.940  10.908 -0.0268 -0.2555 -0.0424
 7375PP      PP17479  12.578   9.572  10.229  0.2298 -0.0477 -0.0170
 7376PP      PP17480   1.400   0.439   9.962  0.1340 -0.2145 -0.1278
 7377PP      PP17481  13.111   2.939  11.407 -0.0515 -0.0142 -0.0883
 7378PP      PP17482  12.288  15.153  12.549  0.1218 -0.1941 -0.2286
 7379PP      PP17483   0.169   7.910   0.252 -0.1094  0.0816  0.0278
 7380PP      PP17484  14.220  14.588   8.561 -0.2112 -0.1444 -0.0788
 7381PP      PP17485   0.082  15.130  12.930  0.0942 -0.0555 -0.1555
 7382PP      PP17486   9.515  10.250   2.696  0.3420  0.0788  0.0538
 7383PP      PP17487   6.112   7.072   2.419 -0.1696 -0.2078 -0.3561
 7384PP      PP17488  13.585  14.112   1.246  0.2697  0.0732 -0.0120
 7385PP      PP17489   4.695   9.584   1.568  0.0110  0.0469 -0.1670
 7386PP      PP17490  14.917   1.923   3.596 -0.1072  0.2379 -0.2411
 7387PP      PP17491   6.031   1.922  10.627 -0.1258 -0.1685 -0.2692
 7388PP      PP17492   5.090   1.545  11.823 -0.2313 -0.2135 -0.0211
 7389PP      PP17493  11.117   1.011   1.102  0.1108 -0.1875  0.0482
 7390PP      PP17494   3.952  15.832  11.698 -0.0630 -0.1578 -0.1648
 7391PP      PP17495  12.405  11.642  13.175  0.2451 -0.1337  0.0870
 7392PP      PP17496  11.322   9.525   3.709 -0.0625 -0.0851 -0.2038
 7393PP      PP17497   4.098   5.900  12.496 -0.0059  0.1610  0.1994
 7394PP      PP17498  13.313   8.472  10.301 -0.0633 -0.1646  0.3191
 7395PP      PP17499  12.850   6.133   1.153 -0.0704 -0.3311  0.0155
 7396PP      PP17500   3.331   9.245   1.963  0.1653 -0.2335  0.1335
 7397PP      PP17501   8.860  15.147   1.783 -0.0166  0.1621  0.4481
 7398PP      PP17502   7.186  13.129   1.970  0.0644  0.1977  0.2383
 7399PP      PP17503   8.352  11.526   4.770  0.4325 -0.1763  0.0835
 7400PP      PP17504   2.892   8.188   0.738 -0.0304  0.0868 -0.0447
 7401PP      PP17505   2.865   7.962  11.613 -0.0050 -0.1230  0.1450
 7402PP      PP17506   8.501   6.745   0.903  0.2416  0.1424  0.2441
 7403PP      PP17507  10.092   0.637   3.467  0.0072  0.0871 -0.2370
 7404PP      PP17508   3.368   5.401   0.299 -0.3775  0.0522 -0.1028
 7405PP      PP17509  14.976   0.486   1.183 -0.0556 -0.0108 -0.1423
 7406PP      PP17510   0.033   4.755  11.539  0.2683  0.1478  0.2464
 7407PP      PP17511  11.218  15.275   0.577 -0.1326 -0.4853  0.1105
 7408PP      PP17512  12.275   3.375  10.713  0.0528  0.0168 -0.0365
 7409PP      PP17513   7.452   6.019   2.625 -0.0020  0.0141 -0.2141
 7410PP      PP17514   2.635  13.622   9.765 -0.2163  0.0040  0.0856
 7411PP      PP17515   5.342   3.890  12.979  0.0821  0.1439  0.4507
 7412PP      PP17516  10.561   5.421   8.492  0.2187 -0.0811  0.4117
 7413PP      PP17517   1.590   4.383  13.013 -0.1201  0.1020  0.1359
 7414PP      PP17518  11.261   8.658   9.887  0.2508  0.0654 -0.0455
 7415PP      PP17519   2.444  13.400   2.909 -0.5818 -0.0831  0.1998
 7416PP      PP17520   4.139   1.283  13.180  0.2281  0.2646  0.3054
 7417PP      PP17521  14.649   5.448  13.153 -0.0196 -0.1614  0.3375
 7418PP      PP17522   4.169   6.112  11.044  0.0624  0.0286 -0.0392
 7419PP      PP17523   2.402   3.073  10.633 -0.0436 -0.0520  0.1802
 7420PP      PP17524  10.606   1.328   8.938 -0.1590  0.0257 -0.1705
 7421PP      PP17525  11.566   6.872  12.194  0.0139  0.2281 -0.1802
 7422PP      PP17526  10.437   1.554   0.384 -0.0961 -0.1595 -0.2533
 7423PP      PP17527   0.207  13.017   2.843  0.0106  0.0142  0.1726
 7424PP      PP17528   5.372   8.979   4.195 -0.2581 -0.0610 -0.0892
 7425PP      PP17529   7.526   1.504  13.396  0.1203  0.1172 -0.2490
 7426PP      PP17530   7.655   4.357   2.052 -0.2029 -0.1170 -0.0119
 7427PP      PP17531   6.916   9.181  13.333 -0.1913  0.3524 -0.0096
 7428PP      PP17532   1.038  12.756   2.474 -0.1414  0.0317  0.1198
 7429PP      PP17533   7.867  11.375  12.920 -0.3260 -0.3003  0.3451
 7430PP      PP17534   1.538   9.024  12.239 -0.0585  0.1385 -0.1861
 7431PP      PP17535   7.783   2.660  10.596 -0.2064  0.0520 -0.0804
 7432PP      PP17536   9.593   3.144   9.762  0.0146 -0.0051  0.1405
 7433PP      PP17537   3.665   4.891   1.931 -0.0788  0.0862 -0.0212
 7434PP      PP17538  13.129  11.515   0.217  0.0937  0.3676  0.4824
 7435PP      PP17539  10.628   0.375  11.537 -0.1107  0.1054  0.0726
 7436PP      PP17540   3.954   2.307  11.537 -0.2184  0.0576 -0.2426
 7437PP      PP17541   9.943   6.120   0.778 -0.0036  0.1802  0.2086
 7438PP      PP17542   3.476   1.963   0.888 -0.1755  0.0979 -0.2353
 7439PP      PP17543  11.429   6.582  11.793  0.0807 -0.2838 -0.1025
 7440PP      PP17544   7.617   0.473   1.728  0.0320 -0.0335 -0.4979
 7441PP      PP17545   4.295   0.020   0.575 -0.2650 -0.1149 -0.2065
 7442PP      PP17546  11.862  11.827   4.296 -0.0201 -0.3310 -0.1585
 7443PP      PP17547  10.838   2.186  11.718 -0.1786  0.1855 -0.0968
 7444PP      PP17548   7.108  13.728  12.240 -0.1720  0.0403 -0.2549
 7445PP      PP17549  13.574   0.568  11.310  0.2308 -0.0268  0.0912
 7446PP      PP17550  11.366   0.321   9.349 -0.0373 -0.1169  0.1005
 7447PP      PP17551  10.833   5.443   1.504  0.4462  0.0977 -0.1524
 7448PP      PP17552   3.554  11.487  11.502  0.2059 -0.3555 -0.3872
 7449PP      PP17553   1.832   2.625  11.389 -0.0517 -0.0186 -0.1016
 7450PP      PP17554  15.016   3.937   5.007 -0.2549  0.3877 -0.1754
 7451PP      PP17555  10.926   6.197   9.646  0.0528 -0.3858 -0.0176
 7452PP      PP17556   5.778   5.481   3.805  0.1714 -0.1237  0.0235
 7453PP      PP17557   6.320  13.250   0.408  0.2518  0.0895  0.0126
 7454PP      PP17558   9.365  11.879  11.157  0.1029 -0.0160  0.1837
 7455PP      PP17559  14.863  10.471   2.119  0.0606  0.0114  0.2457
 7456PP      PP17560  10.555  14.497   2.042 -0.0917 -0.1327  0.3582
 7457PP      PP17561   3.041   4.523   3.119  0.0833  0.0156 -0.0511
 7458PP      PP17562   5.130   4.075  11.534 -0.0890  0.0530 -0.1005
 7459PP      PP17563  11.370  15.035   2.056 -0.1142 -0.0345 -0.2216
 7460PP      PP17564  10.129   7.435  12.850  0.0831 -0.0790 -0.1024
 7461PP      PP17565  15.531   4.853  10.677  0.1957 -0.0654 -0.1212
 7462PP      PP17566  13.302  12.597   9.494  0.2618  0.0268 -0.1732
 7463PP      PP17567   7.235   3.999  11.865  0.2159 -0.2666  0.1634
 7464PP      PP17568   4.054   0.792   1.139  0.1358 -0.1544 -0.3332
 7465PP      PP17569   6.268   9.846  11.305  0.0197 -0.0817  0.2608
 7466PP      PP17570  14.562   1.765   2.382  0.0518  0.0472  0.1902
 7467PP      PP17571   9.074  10.861  12.017 -0.1014  0.1595  0.0506
 7468PP      PP17572  11.586   7.052   1.974 -0.0038  0.0511 -0.3112
 7469PP      PP17573   7.139   1.435   1.279  0.1780  0.4372 -0.1990
 7470PP      PP17574   5.961   8.418   4.484  0.4141  0.0588  0.1068
 7471PP      PP17575   8.212  13.389  11.542  0.2759  0.1261 -0.2580
 7472PP      PP17576   0.427   9.101   1.873  0.1518  0.1518 -0.3583
 7473PP      PP17577   4.405   6.422   0.763  0.0008  0.1169 -0.2104
 7474PP      PP17578  15.648   3.451   4.529  0.3387  0.4930  0.0620
 7475PP      PP17579   7.516   3.001  10.382 -0.0003  0.4769  0.2112
 7476PP      PP17580   2.927   6.128  13.518 -0.0633 -0.0868 -0.2411
 7477PP      PP17581   9.470   3.296   3.265 -0.1545  0.2630  0.2190
 7478PP      PP17582  10.259   9.197  13.328  0.2002  0.1938 -0.0262
 7479PP      PP17583  14.997  11.550  10.573  0.1085  0.0587 -0.1683
 7480PP      PP17584  14.329   3.446  12.154  0.4963  0.0810 -0.2622
 7481PP      PP17585   3.862   6.830  10.187 -0.0624 -0.1355  0.0361
 7482PP      PP17586   8.698   5.968  10.667 -0.3358  0.1816  0.0924
 7483PP      PP17587  11.510   5.476  10.126 -0.1089  0.1134  0.2633
 7484PP      PP17588   2.090  14.793  11.706  0.1549  0.0629 -0.0949
 7485PP      PP17589  15.038   7.649  12.471 -0.0596 -0.1429 -0.0837
 7486PP      PP17590   8.369   4.921  11.340 -0.0394  0.1780 -0.0180
 7487PP      PP17591  11.806  15.103   0.662  0.1160  0.0777  0.0789
 7488PP      PP17592  10.346  11.322  10.242  0.2381 -0.2286 -0.0311
 7489PP      PP17593  11.155   1.036   1.840  0.0719 -0.0478 -0.2433
 7490PP      PP17594   9.391   1.002   2.311 -0.4573  0.1279  0.4697
 7491PP      PP17595   3.646  12.568  11.096  0.2041 -0.2009 -0.1272
 7492PP      PP17596   4.062  10.498   3.054  0.1313  0.0862  0.3265
 7493PP      PP17597   4.970   7.923   0.924 -0.0371 -0.1454 -0.4691
 7494PP      PP17598  14.266   9.919   4.410  0.2972  0.1147  0.3304
 7495PP      PP17599  10.791   0.557   8.784 -0.2476 -0.0479  0.1547
 7496PP      PP17600   0.236   6.499  12.734  0.0451 -0.0588 -0.0220
 7497PP      PP17601   6.124   8.125   4.878  0.0153 -0.1603  0.1347
 7498PP      PP17602   5.006  12.965   9.664  0.0901 -0.0862 -0.3087
 7499PP      PP17603  12.209  10.339   4.482 -0.2135 -0.0855 -0.1992
 7500PP      PP17604   1.263   7.603   4.438  0.0698  0.0928 -0.5819
 7501PP      PP17605   0.408   5.221  12.837 -0.3409 -0.0605 -0.0827
 7502PP      PP17606   1.776   7.178   3.037  0.0588  0.1704  0.1884
 7503PP      PP17607   4.238  14.855   7.700 -0.4091  0.2164  0.2885
 7504PP      PP17608  12.664   0.858   1.389  0.2270  0.0370 -0.0382
 7505PP      PP17609   9.131   9.935   2.408  0.1460  0.1093  0.2265
 7506PP      PP17610   2.528   8.073  11.948 -0.0060  0.1361  0.0477
 7507PP      PP17611   0.469   1.503   9.275  0.2631  0.0622 -0.0838
 7508PP      PP17612   6.102   5.796   0.460  0.1535  0.0482 -0.2675
 7509PP      PP17613   9.298   4.592  12.761 -0.1075  0.1563  0.1968
 7510PP      PP17614  14.237   2.908   1.035  0.1071 -0.3216  0.2131
 7511PP      PP17615  14.891  11.223   4.030 -0.1335  0.0565 -0.1041
 7512PP      PP17616   7.687  11.012   3.672  0.0782  0.1962 -0.0546
 7513PP      PP17617  10.331   7.843   1.419 -0.0493  0.0971  0.5024
 7514PP      PP17618   8.546  14.269   8.283 -0.0417  0.0089 -0.1403
 7515PP      PP17619  10.007  10.803   1.528 -0.2471 -0.1109  0.0136
 7516PP      PP17620   7.081  12.195   0.804  0.1262 -0.2439 -0.1287
 7517PP      PP17621  11.671   6.301  12.854 -0.1620 -0.1908 -0.1619
 7518PP      PP17622   9.505   5.871   0.725 -0.0892 -0.1973  0.1597
 7519PP      PP17623   8.384  10.266   4.697 -0.1104  0.0955 -0.0447
 7520PP      PP17624   5.069   6.245   2.475  0.3473 -0.0229  0.0767
 7521PP      PP17625   1.082   1.964   2.547  0.0965 -0.4427  0.2293
 7522PP      PP17626  14.713   6.379   1.176 -0.1081 -0.2924 -0.0752
 7523PP      PP17627  10.349  10.329   1.529 -0.1930 -0.0394  0.0930
 7524PP      PP17628   6.484   4.130   0.152  0.1437  0.0422 -0.3578
 7525PP      PP17629   8.644  12.239   3.493  0.0668  0.2294 -0.0462
 7526PP      PP17630   5.226   7.683  13.025  0.4423 -0.0183  0.0427
 7527PP      PP17631   2.673   9.306  11.096  0.0410 -0.2177 -0.0699
 7528PP      PP17632  11.541  12.048   1.753 -0.1404  0.1391 -0.1154
 7529PP      PP17633  12.459   5.372  12.190 -0.4431 -0.1262 -0.0042
 7530PP      PP17634  11.219  14.730   3.187  0.2072  0.0819  0.0912
 7531PP      PP17635  10.036  14.709   9.967 -0.0237 -0.1529 -0.1545
 7532PP      PP17636  12.910   9.536  13.208  0.2158 -0.0457  0.0412
 7533PP      PP17637   3.403  14.353   3.533  0.0428  0.0560 -0.0861
 7534PP      PP17638   9.572   8.922   1.100 -0.0860 -0.2100 -0.0275
 7535PP      PP17639   6.826   7.364   3.644  0.0294 -0.1322 -0.1720
 7536PP      PP17640   4.366   5.366   2.423 -0.0479  0.2882 -0.0565
 7537PP      PP17641  10.909   0.177   0.278 -0.2848  0.1532 -0.1429
 7538PP      PP17642   6.071   3.262  11.581  0.0494  0.3743  0.2715
 7539PP      PP17643  14.057   3.870  12.308  0.0681  0.0498  0.1643
 7540PP      PP17644   4.408   3.031  12.321 -0.1996 -0.1923  0.1172
 7541PP      PP17645  10.910  11.315   9.447 -0.0630  0.0162  0.0937
 7542PP      PP17646   3.228   6.430   0.240  0.0669 -0.2954  0.2427
 7543PP      PP17647   0.378   2.467  11.297 -0.0873  0.0653 -0.0820
 7544PP      PP17648  12.389  11.688   0.873  0.0696  0.0262 -0.3931
 7545PP      PP17649  14.130   1.124  13.024  0.1338 -0.0246 -0.0983
 7546PP      PP17650  12.732   5.680   2.725 -0.1846  0.2297  0.3665
 7547PP      PP17651  11.899   0.668   2.824 -0.2615  0.1870  0.0570
 7548PP      PP17652  13.105   5.896  10.912  0.1977  0.1773  0.0751
 7549PP      PP17653  10.674  12.851  11.021  0.2033 -0.1153  0.0367
 7550PP      PP17654  10.702  10.026   4.825 -0.1183  0.0223 -0.2037
 7551PP      PP17655  14.258  11.127  12.180 -0.2029  0.3898 -0.1357
 7552PP      PP17656  11.189   6.505  13.495  0.1104  0.0852 -0.0052
 7553PP      PP17657  11.319   8.072  13.165  0.1927 -0.1515  0.1851
 7554PP      PP17658   2.537   2.526   1.144 -0.0306  0.0815  0.2022
 7555PP      PP17659   0.407  15.430  10.184  0.0130  0.0054  0.0003
 7556PP      PP17660  10.504  13.896   0.773 -0.2254 -0.0735 -0.1857
 7557PP      PP17661   5.787   9.539   9.799 -0.1825  0.1714 -0.3577
 7558PP      PP17662  10.738   3.087   9.083 -0.2605 -0.0630  0.1442
 7559PP      PP17663  15.536   1.057   8.518  0.4091  0.0449 -0.2403
 7560PP      PP17664   2.342  13.983  11.410 -0.0144 -0.0190  0.1498
 7561PP      PP17665   5.798   7.029   9.015  0.1389  0.0507  0.1009
 7562PP      PP17666  11.452  12.430  10.365 -0.1964 -0.0223 -0.3341
 7563PP      PP17667   9.172  12.451   9.115  0.2123  0.0653 -0.0140
 7564PP      PP17668   3.648   8.008   4.043 -0.1250  0.1181 -0.1029
 7565PP      PP17669   3.681   5.027   0.116  0.1087 -0.1149 -0.1054
 7566PP      PP17670   3.914   2.581  12.432 -0.1114 -0.1149 -0.2385
 7567PP      PP17671   6.651  10.691   0.439  0.0337 -0.0108  0.2767
 7568PP      PP17672  14.317   8.313   4.565 -0.2013  0.0088 -0.0843
 7569PP      PP17673   4.727   5.622   2.995  0.0065  0.0169 -0.0450
 7570PP      PP17674  10.217  12.469  13.516 -0.0582  0.0740 -0.0758
 7571PP      PP17675   2.863   4.991  10.640  0.0455 -0.1007 -0.3261
 7572PP      PP17676   8.031  11.946  10.552  0.0477  0.0764 -0.1458
 7573PP      PP17677   7.513  13.761   0.142  0.1057 -0.3981 -0.2068
 7574PP      PP17678  10.580   4.747  11.597 -0.2956  0.0782 -0.1590
 7575PP      PP17679  14.334   4.941  10.750 -0.3322  0.2755  0.3783
 7576PP      PP17680   5.384  15.495  13.239 -0.0631  0.0110  0.2052
 7577PP      PP17681  14.639   6.979  13.189 -0.1062  0.0542  0.0109
 7578PP      PP17682   0.836   4.591   2.614 -0.0470  0.6637 -0.2103
 7579PP      PP17683  11.268   1.847   2.522 -0.3868 -0.3732 -0.0255
 7580PP      PP17684  14.659  13.240   2.694  0.0844  0.3400 -0.3697
 7581PP      PP17685   4.183   0.064   9.169  0.0802 -0.0734  0.6889
 7582PP      PP17686  10.165   8.811   4.020  0.2186 -0.0098  0.3462
 7583PP      PP17687  15.054   9.283  11.899 -0.1036 -0.0768  0.1303
 7584PP      PP17688   2.486   4.630  11.366  0.0197 -0.0327 -0.1025
 7585PP      PP17689  11.565  14.421   1.009  0.1475 -0.3232  0.0990
 7586PP      PP17690   4.956  15.665  12.514  0.1140  0.0721  0.2054
 7587PP      PP17691   7.591   7.008   0.842 -0.1550 -0.1555 -0.0204
 7588PP      PP17692   1.881  11.786  11.451  0.0770  0.2455 -0.2654
 7589PP      PP17693   8.474   4.993   1.810 -0.2784 -0.0235 -0.0221
 7590PP      PP17694  12.900   4.122   2.115 -0.0667 -0.0216  0.0213
 7591PP      PP17695  12.328   7.542  13.472  0.0533  0.1276 -0.0280
 7592PP      PP17696   6.455   6.412  13.356 -0.0199 -0.2210  0.1144
 7593PP      PP17697   9.318  13.102   4.576  0.0899  0.1117 -0.0103
 7594PP      PP17698   2.903  15.239   0.256  0.2082  0.1504  0.0544
 7595PP      PP17699   9.326   1.121  11.958 -0.2252 -0.2085 -0.0289
 7596PP      PP17700  12.870   5.945   4.728  0.1992  0.0415 -0.3188
 7597PP      PP17701   0.337   8.313  11.972 -0.1570  0.0863  0.2077
 7598PP      PP17702  12.121   2.193   3.264 -0.1869  0.1262 -0.4197
 7599PP      PP17703  10.682  13.631   1.714 -0.0352 -0.0223 -0.0475
 7600PP      PP17704   6.828  11.461  11.276 -0.2401  0.0639 -0.0770
 7601PP      PP17705  12.416   8.457   2.784 -0.1328 -0.3539  0.0681
 7602PP      PP17706   3.796   5.592   9.928 -0.1963 -0.1382  0.0262
 7603PP      PP17707   0.939  15.422  10.024 -0.2617 -0.1631 -0.2700
 7604PP      PP17708  10.252  10.816   0.247 -0.1556 -0.2675 -0.0730
 7605PP      PP17709   5.295   6.631   4.734  0.0166 -0.2790  0.1276
 7606PP      PP17710   7.934   4.422   2.473  0.1732  0.1772  0.1510
 7607PP      PP17711  12.596  14.620   4.234  0.0167  0.2207  0.0244
 7608PP      PP17712   7.199  10.374   1.884 -0.0587 -0.1391 -0.1086
 7609PP      PP17713  10.501   5.325   0.466  0.1309  0.2583  0.1928
 7610PP      PP17714   7.294  10.678   9.988 -0.1729  0.1583  0.3289
 7611PP      PP17715   5.468   3.138  10.820  0.0402 -0.0957  0.3278
 7612PP      PP17716  10.206   3.578   2.326 -0.0772  0.3250  0.1349
 7613PP      PP17717  12.877   1.717  12.694 -0.0791  0.4951 -0.1923
 7614PP      PP17718   1.442   5.994   0.429  0.0774  0.2373  0.2809
 7615PP      PP17719  13.626   5.031   9.932 -0.0565 -0.1733 -0.0724
 7616PP      PP17720  14.308   4.323  12.416 -0.5175  0.0228 -0.2006
 7617PP      PP17721  14.575   1.658  11.168 -0.0810 -0.1781 -0.2119
 7618PP      PP17722   7.806   9.184  12.960 -0.4512 -0.0595  0.1153
 7619PP      PP17723   2.532  13.462   4.000 -0.1496 -0.2597 -0.0062
 7620PP      PP17724   2.313  14.900   0.161  0.2404  0.0339 -0.0127
 7621PP      PP17725   0.169  11.834   2.289  0.1058 -0.1243  0.1154
 7622PP      PP17726  10.481   8.779   3.458 -0.1773  0.1989 -0.0981
 7623PP      PP17727   4.892   9.355   9.495  0.1082  0.1318 -0.2235
 7624PP      PP17728   3.555   5.562   4.846  0.2183  0.1362  0.0359
 7625PP      PP17729   5.054   9.654   3.747  0.1804 -0.0984 -0.2522
 7626PP      PP17730   8.205   3.409   9.724 -0.2797  0.1303 -0.0513
 7627PP      PP17731  15.315  10.177   2.112  0.0874  0.1533 -0.0626
 7628PP      PP17732   1.507  13.102  12.210 -0.2195 -0.2773 -0.2512
 7629PP      PP17733   6.853  11.873   0.441 -0.0596  0.0716 -0.0888
 7630PP      PP17734   0.419   9.027   5.273 -0.1237 -0.4791  0.0832
 7631PP      PP17735   1.077   6.605   4.711  0.0403 -0.3383  0.0703
 7632PP      PP17736   5.123   9.844  11.114  0.2625 -0.1256 -0.0101
 7633PP      PP17737   0.840   2.386  11.572 -0.0995  0.1868 -0.2330
 7634PP      PP17738   1.226   7.247  13.455  0.0909  0.2799  0.2220
 7635PP      PP17739   3.912   7.322   4.891 -0.0510  0.3736 -0.0289
 7636PP      PP17740  14.308   6.443   2.033  0.0807 -0.0745  0.1308
 7637PP      PP17741   3.048  15.225  12.886  0.1638  0.0142  0.0008
 7638PP      PP17742   5.275  10.769   3.654 -0.2832  0.0283 -0.3925
 7639PP      PP17743   1.800   6.017  10.269  0.1952  0.2184 -0.0948
 7640PP      PP17744   7.946   2.677  12.000 -0.3185 -0.2858 -0.0215
 7641PP      PP17745   0.521  11.895   3.086 -0.2452  0.3529  0.0610
 7642PP      PP17746   7.854   1.115   8.013  0.0520 -0.0900 -0.1578
 7643PP      PP17747   2.552   3.923   3.131 -0.2249 -0.0054  0.1778
 7644PP      PP17748  11.083   6.136   9.160  0.0348 -0.0307  0.2953
 7645PP      PP17749   3.463  15.700   9.993 -0.0180  0.0727  0.0001
 7646PP      PP17750   4.684  13.053   0.461  0.3044 -0.0785  0.3489
 7647PP      PP17751  15.822  11.911   3.209  0.1979  0.0510 -0.2784
 7648PP      PP17752  11.627  12.626   1.792 -0.0476 -0.1993 -0.2855
 7649PP      PP17753   3.806   7.794   2.406  0.1080  0.1125 -0.1149
 7650PP      PP17754   9.368  12.253  12.424  0.0652  0.1457  0.0617
 7651PP      PP17755  12.572  13.588  10.691  0.3481  0.1283  0.0959
 7652PP      PP17756   9.079   3.622  10.718  0.1057  0.2882  0.1354
 7653PP      PP17757   7.641   9.896   9.907 -0.0380 -0.1291  0.0967
 7654PP      PP17758   5.091  11.526  10.594 -0.1288 -0.2485  0.1013
 7655PP      PP17759   1.868  14.571   8.816  0.0665  0.0250 -0.0467
 7656PP      PP17760  11.902   2.548   3.567 -0.1028 -0.1714  0.0524
 7657PP      PP17761   6.464   2.394  10.206  0.4689 -0.1663 -0.0778
 7658PP      PP17762   5.456   1.427   2.793  0.0216  0.5867  0.0628
 7659PP      PP17763  14.652  13.116  11.016 -0.3535 -0.1471  0.2178
 7660PP      PP17764  11.465  13.163   2.524 -0.0944  0.0741  0.0772
 7661PP      PP17765  11.987  13.556   1.972 -0.0476 -0.2204  0.2541
 7662PP      PP17766  11.517  12.129   4.063 -0.3475  0.2910  0.0890
 7663PP      PP17767  10.442  14.337  10.910 -0.0309  0.2623 -0.0828
 7664PP      PP17768   9.937  10.474  13.165  0.2736 -0.1945 -0.0660
 7665PP      PP17769  10.908   8.897   0.752  0.1314  0.2201  0.0343
 7666PP      PP17770   7.606   5.458  13.010  0.4167 -0.1989 -0.1576
 7667PP      PP17771   5.624   5.800   8.647 -0.3905 -0.0437  0.0392
 7668PP      PP17772   0.150   7.012   1.548  0.0829  0.0759  0.5058
 7669PP      PP17773  11.653  11.131  13.486  0.1308  0.2921  0.1672
 7670PP      PP17774   0.844  15.770  10.974  0.0949 -0.0136 -0.2589
 7671PP      PP17775   5.300   2.650  12.590 -0.0419 -0.0105  0.2760
 7672PP      PP17776  11.656   1.257  11.242  0.0104 -0.0505  0.0734
 7673PP      PP17777   3.230  14.264  11.232 -0.1653  0.2662 -0.6544
 7674PP      PP17778   4.688   7.539   3.960  0.1175  0.4333  0.0123
 7675PP      PP17779   5.216   8.362   9.597  0.1850  0.0897  0.0173
 7676PP      PP17780  11.085   1.497   0.931 -0.2818  0.0602 -0.0813
 7677PP      PP17781  12.670   9.093   9.678 -0.1343  0.1659 -0.3263
 7678PP      PP17782  13.221   4.345   3.845 -0.0478 -0.1390 -0.1011
 7679PP      PP17783   3.570  11.044   1.220  0.1620 -0.0466 -0.2782
 7680PP      PP17784   0.486  11.310  12.620  0.1939 -0.0111  0.0346
 7681PP      PP17785   1.252   4.693   3.892 -0.2182  0.0508  0.1830
 7682PP      PP17786   2.691   2.732   3.891  0.0592  0.2229 -0.2675
 7683PP      PP17787   5.611   5.760  13.345 -0.0301  0.2624 -0.3452
 7684PP      PP17788   6.810  11.617   1.882  0.0847 -0.1458  0.7917
 7685PP      PP17789  13.799  11.330  11.579 -0.6426 -0.0452 -0.3242
 7686PP      PP17790  15.654  13.959   9.533  0.0303 -0.0579 -0.1498
 7687PP      PP17791   8.389   4.511  12.095 -0.1757  0.0748 -0.1773
 7688PP      PP17792   1.367  14.981   1.017 -0.0001  0.3334  0.1507
 7689PP      PP17793   4.814  12.478   2.120  0.2926 -0.1546  0.0625
 7690PP      PP17794   6.193   7.165  10.691  0.1782  0.1892 -0.3487
 7691PP      PP17795   0.668   0.586  10.473 -0.2587 -0.0304 -0.0097
 7692PP      PP17796   0.841  14.213  11.658  0.0852 -0.0089  0.3029
 7693PP      PP17797   7.605  12.833   4.127 -0.0437  0.1131  0.2285
 7694PP      PP17798  15.079   5.273   0.667 -0.1450  0.0822  0.2655
 7695PP      PP17799   9.316  10.386  10.810  0.0361  0.1133 -0.1727
 7696PP      PP17800   8.055  12.763  12.504 -0.0173  0.1660 -0.1112
 7697PP      PP17801  15.758  10.171  11.424 -0.1576  0.0726 -0.0076
 7698PP      PP17802   4.891  14.760  12.046  0.1605  0.1354 -0.2752
 7699PP      PP17803   5.166   6.505   9.850 -0.0919 -0.0393 -0.2228
 7700PP      PP17804   4.553   4.233   3.158  0.0053 -0.1238  0.0785
 7701PP      PP17805   1.453  15.729   2.605  0.1770  0.2410 -0.0116
 7702PP      PP17806   8.364   6.244   9.619 -0.2444 -0.2718  0.1488
 7703PP      PP17807   2.103   2.207  12.865  0.1064  0.2692  0.0161
 7704PP      PP17808  12.598   3.766  10.757 -0.0869 -0.5080  0.0868
 7705PP      PP17809   7.726   3.923   0.459 -0.0765  0.2684 -0.1412
 7706PP      PP17810   7.281   8.729   4.634 -0.0127  0.0131  0.1133
 7707PP      PP17811   2.731  10.301   5.776  0.3261  0.2263 -0.1920
 7708PP      PP17812   6.891  14.655  12.994 -0.2445 -0.0409 -0.0225
 7709PP      PP17813  11.034  11.858   4.571  0.0924 -0.2708  0.3262
 7710PP      PP17814  13.739  13.096  13.253  0.0487  0.0577  0.1109
 7711PP      PP17815   9.801   6.247   2.057 -0.0822 -0.0816  0.1291
 7712PP      PP17816   8.268   2.680  10.799  0.3380 -0.0256 -0.2702
 7713PP      PP17817  12.901  14.304   0.686 -0.2955  0.1403  0.1779
 7714PP      PP17818  10.317   3.373   0.541  0.4004 -0.0527 -0.1936
 7715PP      PP17819  12.664   0.395  11.801  0.0506 -0.0990 -0.2629
 7716PP      PP17820   0.430   4.529   9.888  0.3020  0.0186 -0.3473
 7717PP      PP17821  14.502  11.929   0.199  0.3050 -0.2271 -0.2466
 7718PP      PP17822  11.866  11.275   4.299 -0.2678 -0.1201 -0.2940
 7719PP      PP17823  11.968   5.184   3.131 -0.1989 -0.1316 -0.1564
 7720PP      PP17824  11.861  11.408   0.462 -0.0612  0.0472 -0.0855
 7721PP      PP17825   4.861   5.768   2.450 -0.2367  0.1850  0.2051
 7722PP      PP17826  11.293   6.590   9.267  0.0302  0.4853  0.0955
 7723PP      PP17827  14.368  12.629  10.188 -0.4182 -0.0936  0.1769
 7724PP      PP17828   6.142  13.907   8.357 -0.1342 -0.1552 -0.2992
 7725PP      PP17829  14.729   6.880   4.723 -0.1631  0.5339  0.1101
 7726PP      PP17830   4.216  15.360   3.559  0.0958 -0.1329  0.0876
 7727PP      PP17831   2.346   3.158   9.405  0.2160  0.2727 -0.1731
 7728PP      PP17832   5.110  11.810   1.588  0.1647  0.1037  0.2039
 7729PP      PP17833  11.514  12.898   1.389 -0.2136 -0.0901 -0.1063
 7730PP      PP17834   3.749   1.480  12.865  0.2186 -0.2231  0.1057
 7731PP      PP17835  14.017  10.468  10.009  0.2330  0.0932 -0.1522
 7732PP      PP17836  14.258   6.117  11.665  0.0404  0.3847 -0.2001
 7733PP      PP17837   0.289   4.293  12.185 -0.1172 -0.0391  0.0739
 7734PP      PP17838   8.396   3.969   4.470  0.2346 -0.1675 -0.3995
 7735PP      PP17839  15.722  11.763  10.643 -0.2562 -0.0025  0.0628
 7736PP      PP17840   2.020   8.311  10.323  0.2347 -0.0792 -0.0929
 7737PP      PP17841  15.459   5.426  12.634 -0.1402  0.2310 -0.0692
 7738PP      PP17842  12.867  11.726  13.371  0.0916 -0.3628 -0.2215
 7739PP      PP17843   0.100  11.932   2.741  0.0397  0.3225 -0.2178
 7740PP      PP17844  10.806   7.601  12.216 -0.3780  0.0890  0.2165
 7741PP      PP17845  10.891  13.021  12.013  0.0757 -0.0404  0.1886
 7742PP      PP17846   0.350   1.284   3.413  0.3467  0.0535  0.6662
 7743PP      PP17847   5.517   6.850   1.893  0.2926  0.1145  0.0035
 7744PP      PP17848   8.621  12.780   3.463 -0.1243  0.0956 -0.1240
 7745PP      PP17849   8.050   0.134  12.995  0.1004  0.1581 -0.0240
 7746PP      PP17850  11.759   5.170  11.432 -0.2527  0.0525  0.0452
 7747PP      PP17851  13.879   6.978   4.763  0.1806  0.4957 -0.3070
 7748PP      PP17852  10.658   0.374   3.918  0.1385 -0.1307 -0.2373
 7749PP      PP17853   5.375  10.255  11.266 -0.0924 -0.2405  0.3305
 7750PP      PP17854   1.965   0.504   9.990 -0.1907 -0.2919 -0.4111
 7751PP      PP17855  12.957   2.343   0.921  0.1844  0.0426 -0.0359
 7752PP      PP17856  11.153   8.921   0.209  0.0310  0.0783 -0.0427
 7753PP      PP17857  15.587   5.816  13.305 -0.0469  0.1881 -0.1842
 7754PP      PP17858   7.876  11.967   0.693  0.0280 -0.0069 -0.1328
 7755PP      PP17859   1.180   0.556  12.209  0.0329 -0.0235 -0.1269
 7756PP      PP17860   7.370   5.535   2.201  0.0459 -0.1270 -0.2993
 7757PP      PP17861  15.279  12.268  12.288 -0.1559  0.0536 -0.2404
 7758PP      PP17862  14.075   5.061   3.598  0.1027  0.3366  0.1167
 7759PP      PP17863   3.770   0.155   2.829 -0.1128 -0.2188 -0.0246
 7760PP      PP17864   3.581   2.923   3.752 -0.1122  0.1217 -0.2729
 7761PP      PP17865  14.905   0.857  13.282 -0.1535  0.0919 -0.1647
 7762PP      PP17866   8.498  14.500   1.026  0.0153  0.0634  0.0131
 7763PP      PP17867   2.046   8.547   1.222 -0.2719  0.0302  0.0407
 7764PP      PP17868  14.529   4.558  13.147 -0.1235  0.0868 -0.1697
 7765PP      PP17869  12.599   2.955  11.717  0.0106  0.2226 -0.0855
 7766PP      PP17870   0.504  11.827   0.463  0.1104 -0.1313 -0.0183
 7767PP      PP17871  12.864   4.075   1.622  0.0775 -0.0711 -0.0391
 7768PP      PP17872   0.561   1.819  12.553 -0.1162 -0.0835  0.1978
 7769PP      PP17873   6.291   7.927  12.243 -0.0754  0.3860 -0.0251
 7770PP      PP17874   1.343   1.151   2.599  0.0997 -0.1042 -0.2155
 7771PP      PP17875   2.740  10.648   2.140 -0.0477 -0.0104 -0.3810
 7772PP      PP17876  13.814  11.211   2.151  0.0787  0.0997 -0.1030
 7773PP      PP17877  15.221  10.111   3.429  0.0423  0.4192 -0.1351
 7774PP      PP17878   8.010  10.310  10.883 -0.2308  0.3437  0.0310
 7775PP      PP17879   5.603   7.385  10.803  0.3940  0.2260  0.1547
 7776PP      PP17880  14.565   0.157  10.410  0.1287 -0.0576 -0.2343
 7777PP      PP17881   9.646  12.111  10.510 -0.2404  0.1851 -0.2001
 7778PP      PP17882   1.081  10.725  11.569 -0.1558  0.0075  0.2968
 7779PP      PP17883   4.831  12.695  10.050 -0.0814  0.3134 -0.3185
 7780PP      PP17884  14.470   5.118   2.688 -0.3102 -0.1153  0.2540
 7781PP      PP17885   8.521   3.754   3.690 -0.0159  0.0802 -0.0903
 7782PP      PP17886   3.352  15.108   2.095  0.2124  0.0264  0.1407
 7783PP      PP17887  14.342   1.744   9.847  0.1069  0.2472 -0.0337
 7784PP      PP17888  10.454   4.252  11.653  0.1279 -0.0147 -0.0281
 7785PP      PP17889  15.530   5.523   4.989 -0.2174 -0.0354 -0.2318
 7786PP      PP17890  10.036   9.421   3.512  0.0827 -0.1158 -0.0237
 7787PP      PP17891  12.153   7.747   1.468  0.1253  0.0385 -0.0638
 7788PP      PP17892  10.614  11.535  11.178 -0.2107  0.0943 -0.2584
 7789PP      PP17893   1.106   0.689   2.706  0.0754  0.0764 -0.0452
 7790PP      PP17894  10.319  15.558  10.382 -0.2506 -0.1677 -0.1591
 7791PP      PP17895  12.480   1.158   9.980 -0.0397 -0.0329  0.2712
 7792PP      PP17896  13.622  14.431  11.840  0.1228  0.1165  0.1990
 7793PP      PP17897   0.831   2.628   1.029 -0.1560 -0.0214 -0.0987
 7794PP      PP17898   2.826   9.444   4.961 -0.1917  0.0457 -0.0136
 7795PP      PP17899   9.938   8.598   1.343  0.0248  0.0245  0.3229
 7796PP      PP17900  13.686  15.044   9.619  0.4239  0.1771  0.0645
 7797PP      PP17901   3.008  10.214   0.445 -0.1039 -0.0012  0.1468
 7798PP      PP17902   1.482   5.319   9.723 -0.2519 -0.0889  0.1122
 7799PP      PP17903   9.539   4.183  10.900 -0.0485  0.1337 -0.0822
 7800PP      PP17904   1.870  10.300   3.952  0.2119  0.1284  0.0134
 7801PP      PP17905  10.788   3.880  12.984  0.4238  0.2433 -0.1414
 7802PP      PP17906  10.331   5.621  10.951 -0.1254 -0.3748 -0.0197
 7803PP      PP17907   6.115   5.104   0.027 -0.2011  0.1176  0.1159
 7804PP      PP17908   1.270   7.553   9.866 -0.0387  0.3227 -0.0926
 7805PP      PP17909   7.096   2.785   9.065  0.3136  0.0821  0.0742
 7806PP      PP17910   5.322   5.794   1.746  0.2376  0.0418 -0.0164
 7807PP      PP17911   5.939   2.065   3.672  0.1740 -0.1415 -0.0344
 7808PP      PP17912  13.380  13.376   0.889  0.1733 -0.0845 -0.2233
 7809PP      PP17913   0.657   8.011   5.198 -0.0599 -0.1950  0.3923
 7810PP      PP17914  12.237   5.162   1.385  0.2400 -0.2880  0.2194
 7811PP      PP17915  13.413   5.347   2.164  0.0398  0.2902 -0.2813
 7812PP      PP17916   2.858  15.425   2.150  0.0300  0.0513 -0.0051
 7813PP      PP17917   4.402   7.825  10.374  0.1458 -0.0615 -0.1659
 7814PP      PP17918  15.627   7.607  11.707 -0.2127 -0.1475 -0.0317
 7815PP      PP17919  10.406   8.189  10.288  0.0242 -0.3037  0.2652
 7816PP      PP17920   0.587   6.182  11.442  0.1674  0.2276 -0.2117
 7817PP      PP17921   2.141   1.254  13.304 -0.0730 -0.0216  0.0628
 7818PP      PP17922   8.701   2.794  10.205 -0.1015  0.1211  0.3899
 7819PP      PP17923  12.707   6.932   2.487 -0.0185  0.1925 -0.1391
 7820PP      PP17924   0.799   4.013   2.916  0.1431  0.0747  0.0193
 7821PP      PP17925  15.335  11.174   2.776 -0.0108 -0.1681 -0.3629
 7822PP      PP17926  12.958   9.022  13.148 -0.1245 -0.0815  0.0460
 7823PP      PP17927   5.135   5.268   1.081 -0.3385  0.0298  0.2291
 7824PP      PP17928   7.344   1.833   0.184 -0.1388  0.2536  0.1272
 7825PP      PP17929   7.691   1.718   3.406  0.0376 -0.0702  0.0932
 7826PP      PP17930   6.692   1.808   1.957  0.0077  0.0811 -0.2262
 7827PP      PP17931   0.944  12.663  10.886 -0.1790 -0.1073  0.1687
 7828PP      PP17932   5.182   6.786  13.410 -0.1831 -0.0940 -0.4137
 7829PP      PP17933   6.919   1.104   8.034  0.1190  0.1891 -0.0509
 7830PP      PP17934  14.667   5.911   1.392 -0.0174 -0.2808  0.0889
 7831PP      PP17935  14.952   5.589  12.676  0.0167  0.0751 -0.0705
 7832PP      PP17936   9.598   0.378   3.170  0.3360 -0.0556 -0.1177
 7833PP      PP17937   6.441   3.932   4.703 -0.0442 -0.0614  0.0533
 7834PP      PP17938  13.029   6.747   4.285 -0.0184  0.1201  0.0528
 7835PP      PP17939   7.055  12.267   1.701 -0.1233 -0.1912  0.0650
 7836PP      PP17940   5.028   9.103   3.799  0.0100  0.0476 -0.1520
 7837PP      PP17941   7.375   6.135  11.058 -0.1246 -0.0044  0.5068
 7838PP      PP17942  13.721   4.392  13.524  0.0153  0.1127  0.2303
 7839PP      PP17943   2.584   8.571   9.929 -0.1980  0.1556 -0.2492
 7840PP      PP17944  12.427   8.229   2.317 -0.1096  0.0648  0.1532
 7841PP      PP17945   9.229   9.277  10.061  0.5391 -0.0415  0.0724
 7842PP      PP17946  11.470   1.667  13.267 -0.0138  0.1361 -0.3314
 7843PP      PP17947   5.985   2.821   1.797  0.0365 -0.0060  0.0583
 7844PP      PP17948   8.347   8.937   0.452 -0.2330  0.0368 -0.0392
 7845PP      PP17949   3.934  14.311  12.173 -0.2629 -0.1458 -0.3426
 7846PP      PP17950  10.856  10.095  13.430 -0.0187 -0.0644 -0.0458
 7847PP      PP17951  13.051  11.594   3.649 -0.1377 -0.0138 -0.0007
 7848PP      PP17952   5.116  12.893   3.896 -0.2234 -0.0361 -0.1620
 7849PP      PP17953   4.242  13.946  10.518  0.4273  0.2904 -0.2298
 7850PP      PP17954   4.338   7.057  11.062  0.2617 -0.1547  0.1011
 7851PP      PP17955  12.082  14.320   3.094 -0.2012  0.1154 -0.1198
 7852PP      PP17956   3.089   6.022   4.145 -0.1229 -0.1504 -0.2759
 7853PP      PP17957   6.305   2.031   3.345 -0.0551  0.0491  0.0171
 7854PP      PP17958  15.656   6.292  11.961  0.4512  0.0560  0.1637
 7855PP      PP17959   0.098   8.527   3.816  0.0525  0.2201  0.1918
 7856PP      PP17960   7.383   0.210  11.348  0.0054  0.1884 -0.0027
 7857PP      PP17961   6.004   9.924   2.952  0.2186 -0.1398  0.0664
 7858PP      PP17962   6.762   0.931  11.523 -0.0063  0.0498 -0.0958
 7859PP      PP17963   2.487   5.166   2.171  0.1556 -0.2677 -0.0152
 7860PP      PP17964  14.804   2.730   1.207 -0.1383 -0.0397  0.1693
 7861PP      PP17965   5.861   7.969  11.887 -0.2054 -0.1710 -0.1147
 7862PP      PP17966  12.234   3.018   2.289  0.0990 -0.1601  0.1264
 7863PP      PP17967  11.890   7.173   0.932  0.0891 -0.0554 -0.0108
 7864PP      PP17968   1.914   9.817   3.997  0.0355  0.1776  0.0014
 7865PP      PP17969   1.506  12.635  12.382 -0.2757  0.0834  0.2590
 7866PP      PP17970   0.180   9.508  11.924 -0.0410 -0.1971 -0.1889
 7867PP      PP17971  15.471   0.034  12.152  0.1866 -0.0150  0.0129
 7868PP      PP17972   1.632   1.219   0.619 -0.1658  0.0181 -0.2466
 7869PP      PP17973  14.162   8.775   1.048  0.2549  0.2185 -0.0209
 7870PP      PP17974   2.249  10.578   0.727  0.3148  0.0629  0.0880
 7871PP      PP17975   8.519   5.149   0.251 -0.1996 -0.3738  0.3900
 7872PP      PP17976  12.115   1.671   2.167  0.0707 -0.0781 -0.0021
 7873PP      PP17977   9.330   2.056   9.015 -0.1800 -0.3075 -0.0540
 7874PP      PP17978  13.173   9.761  12.408  0.1362  0.5207 -0.3733
 7875PP      PP17979  13.208   4.273  11.264 -0.1929 -0.0843 -0.0942
 7876PP      PP17980   8.222   9.830  12.468 -0.0661 -0.1639 -0.1975
 7877PP      PP17981  14.327   7.558   9.923  0.0813 -0.0522 -0.0818
 7878PP      PP17982   8.396   7.302  12.904  0.0993 -0.4082 -0.0467
 7879PP      PP17983   9.272   3.894   1.996  0.0467  0.3612  0.0422
 7880PP      PP17984  10.960   4.648  12.148  0.1001 -0.1341  0.0248
 7881PP      PP17985  11.407   4.845   4.289  0.2856 -0.1929  0.0962
 7882PP      PP17986   3.179  15.044   3.117  0.0443  0.1820 -0.1090
 7883PP      PP17987   1.085  12.389  10.358  0.0338  0.1610  0.0492
 7884PP      PP17988   5.479   1.960   9.128  0.0800 -0.0557 -0.0480
 7885PP      PP17989   7.153   1.775   9.895  0.2243 -0.1857  0.2389
 7886PP      PP17990   8.384   6.378  10.824 -0.0462  0.0576 -0.1504
 7887PP      PP17991   0.635  12.201   4.457 -0.3751  0.3147  0.1307
 7888PP      PP17992  14.247   4.363   1.072 -0.3732  0.2377  0.0191
 7889PP      PP17993   9.804   5.333   8.909  0.0479 -0.0177  0.1424
 7890PP      PP17994   3.738   4.653   9.504  0.2624  0.1268  0.0588
 7891PP      PP17995  10.165   0.295  11.454 -0.0101  0.1859  0.2405
 7892PP      PP17996  11.787  15.692   0.121  0.0772  0.0580  0.1118
 7893PP      PP17997   1.682   3.504   1.877  0.2406  0.0471 -0.2429
 7894PP      PP17998  12.914   4.013   3.411 -0.0960 -0.0062 -0.1308
 7895PP      PP17999   7.414  15.534  12.200  0.1390  0.0312  0.4402
 7896PP      PP18000   0.518  14.140  10.395 -0.1772  0.1998 -0.1631
 7897PP      PP18001   1.247   1.658   1.459 -0.0483  0.0082  0.0711
 7898PP      PP18002   7.924   2.590   9.128  0.2485 -0.0391 -0.0189
 7899PP      PP18003   4.721   4.489   1.004  0.1346 -0.0700 -0.0096
 7900PP      PP18004  15.008   8.819   0.945  0.1401 -0.0516  0.0883
 7901PP      PP18005   2.671   2.425   8.975  0.3526 -0.0058 -0.2882
 7902PP      PP18006   5.451  11.746   9.558  0.1432  0.2624 -0.2987
 7903PP      PP18007   9.328   5.992   0.190  0.1896 -0.4592  0.0042
 7904PP      PP18008  12.097  15.474   0.874 -0.1531 -0.0190 -0.0288
 7905PP      PP18009   5.068  15.065   2.378 -0.0437  0.0522 -0.0096
 7906PP      PP18010   6.733   7.764   9.492 -0.1498 -0.2326 -0.3552
 7907PP      PP18011  14.598  10.350   1.719 -0.1003  0.2437 -0.0419
 7908PP      PP18012   6.316   8.265  10.580  0.1310 -0.1768 -0.0807
 7909PP      PP18013   3.412  13.132  12.067  0.0475  0.0057 -0.0871
 7910PP      PP18014   5.954  15.141  12.840 -0.0965 -0.1001 -0.1650
 7911PP      PP18015   6.706  11.523   3.031 -0.0892 -0.3216  0.4711
 7912PP      PP18016   7.593   5.965   3.756 -0.0513  0.1125 -0.1251
 7913PP      PP18017  11.165   2.034  11.262  0.2432 -0.0474 -0.0880
 7914PP      PP18018   8.600   5.340  13.091 -0.1422  0.2789 -0.2566
 7915PP      PP18019  10.987  15.781   9.631  0.1749 -0.1691  0.2862
 7916PP      PP18020   5.597   8.095  13.057 -0.4071 -0.0387  0.0039
 7917PP      PP18021  10.021  10.343   0.205 -0.2236  0.0296 -0.1056
 7918PP      PP18022   2.307   2.594  10.773  0.1711 -0.2224  0.0641
 7919PP      PP18023  15.284   8.429   0.215 -0.0913 -0.1226  0.1706
 7920PP      PP18024  10.898  15.474  11.239 -0.2287 -0.2368 -0.2644
 7921PP      PP18025  13.294  15.146   3.698  0.2185 -0.2290 -0.1303
 7922PP      PP18026   1.315   2.672   9.405 -0.0448  0.3348  0.3210
 7923PP      PP18027   1.962  10.830   1.057  0.0148  0.1116 -0.0979
 7924PP      PP18028   3.695   9.336   1.599 -0.1864 -0.0992 -0.0303
 7925PP      PP18029   4.407   1.492   8.437 -0.0260 -0.0893 -0.2414
 7926PP      PP18030  10.821   3.855  11.837 -0.1113 -0.2026  0.0576
 7927PP      PP18031   3.189  13.563  12.461  0.1852  0.1502  0.3366
 7928PP      PP18032  12.506   1.278  11.742  0.3325  0.1462 -0.0981
 7929PP      PP18033  15.486   6.903  10.034 -0.1017  0.1924 -0.0173
 7930PP      PP18034   5.472  13.545  12.308 -0.2340 -0.1556  0.0677
 7931PP      PP18035   2.752   7.133  12.543  0.1002  0.0708  0.1278
 7932PP      PP18036  15.503   7.765   4.662  0.3229 -0.2602 -0.0007
 7933PP      PP18037   1.967  13.836  13.303 -0.0725  0.4012  0.0540
 7934PP      PP18038  11.954   9.198  12.432 -0.0699  0.0183  0.3749
 7935PP      PP18039  14.208   7.789  13.330  0.0373  0.0452  0.1081
 7936PP      PP18040  14.911   2.929  11.434 -0.0938 -0.2685 -0.0262
 7937PP      PP18041   7.400  15.521   2.801 -0.1023  0.0909  0.2637
 7938PP      PP18042  11.358   4.385   9.305 -0.1653  0.2662 -0.0754
 7939PP      PP18043   3.305   0.990   8.735 -0.1063  0.4539  0.1022
 7940PP      PP18044  11.934   0.408   3.281  0.2292 -0.2567 -0.0797
 7941PP      PP18045  14.525  11.878  12.536 -0.2840  0.1306  0.3178
 7942PP      PP18046   6.124   4.785   2.960  0.3232 -0.1395 -0.1089
 7943PP      PP18047  13.850   3.303   3.582 -0.1422  0.0123  0.1277
 7944PP      PP18048   8.727   1.162   9.281  0.5870 -0.1596 -0.6331
 7945PP      PP18049  11.480   9.331  10.509  0.1338  0.0412 -0.0754
 7946PP      PP18050   0.980   0.221   1.711 -0.1039  0.2894  0.0604
 7947PP      PP18051   5.508   3.105   0.498  0.2985  0.1332 -0.0039
 7948PP      PP18052   0.041  11.158   2.662  0.4351  0.3623 -0.1578
 7949PP      PP18053  12.653   9.939  11.921  0.0761 -0.0295 -0.1831
 7950PP      PP18054   5.862   1.582   3.761  0.1204 -0.2279 -0.1440
 7951PP      PP18055   8.870  15.711   3.192 -0.0322  0.1453  0.0099
 7952PP      PP18056   5.736   4.520   0.703  0.0422  0.0459  0.0934
 7953PP      PP18057   3.273   5.917   4.582 -0.2740  0.0275 -0.2509
 7954PP      PP18058   4.584   5.195   3.308 -0.2114 -0.0686 -0.1285
 7955PP      PP18059   6.023  15.607  10.014  0.1245  0.0211  0.1502
 7956PP      PP18060   6.678   6.668  11.427  0.0877 -0.0590  0.2590
 7957PP      PP18061   2.489  12.152   1.656 -0.3374 -0.1077  0.0759
 7958PP      PP18062  13.453   6.863  11.922  0.0088  0.0627  0.0592
 7959PP      PP18063   4.494   0.358   3.030  0.0910  0.0716 -0.1292
 7960PP      PP18064   2.743  14.038   2.228 -0.2364 -0.0640 -0.1288
 7961PP      PP18065  10.626   1.089   0.380 -0.0593  0.0775 -0.2094
 7962PP      PP18066   6.298  13.180  10.125  0.3848 -0.1490  0.1571
 7963PP      PP18067  14.148   5.856   0.489  0.0054 -0.2399 -0.2228
 7964PP      PP18068  10.692  13.557  12.924  0.1333  0.1845  0.1755
 7965PP      PP18069  14.519   9.002   1.839 -0.0378  0.0049  0.0346
 7966PP      PP18070   3.050   4.124  12.929 -0.1476 -0.4182 -0.1929
 7967PP      PP18071   8.039   2.884   0.613 -0.1725 -0.0136  0.1266
 7968PP      PP18072   7.202   9.903   9.544  0.1964  0.0675 -0.0222
 7969PP      PP18073  13.897  12.290  11.522  0.1856 -0.1913  0.0708
 7970PP      PP18074   3.423  10.808   0.723 -0.2148 -0.1463 -0.0150
 7971PP      PP18075   9.312  15.087   8.802  0.1575  0.1790  0.0188
 7972PP      PP18076   5.161  11.294   9.572  0.0813 -0.1984 -0.0297
 7973PP      PP18077   1.765  10.445  11.715  0.2908  0.1429  0.2069
 7974PP      PP18078   4.469   7.930  10.831 -0.0287 -0.0138  0.0372
 7975PP      PP18079   1.497  12.263   5.212  0.2840 -0.5335  0.1908
 7976PP      PP18080  12.506   3.666  10.295  0.2589 -0.1927 -0.1761
 7977PP      PP18081   1.651   0.734   2.696  0.0826 -0.1694  0.2857
 7978PP      PP18082   7.392  11.472  11.506  0.0343  0.2236 -0.1506
 7979PP      PP18083  14.799  14.723   0.351 -0.0042 -0.3176  0.2462
 7980PP      PP18084  10.365   0.504   9.137  0.2719 -0.2288 -0.3260
 7981PP      PP18085   7.170  11.240   2.393  0.0225 -0.2569  0.4192
 7982PP      PP18086   8.664   7.651   1.283 -0.1173 -0.3504 -0.0006
 7983PP      PP18087   6.528  10.786   8.968  0.1721  0.1497 -0.0242
 7984PP      PP18088  15.423  14.461  13.312 -0.1572 -0.2296 -0.2009
 7985PP      PP18089  15.628   1.935   2.068  0.2010  0.1081  0.2136
 7986PP      PP18090   4.268   4.496  10.803 -0.1039 -0.0670  0.2820
 7987PP      PP18091   5.747  15.252   3.164  0.2892 -0.1315  0.0569
 7988PP      PP18092   0.948   7.747  12.447  0.1016  0.3517 -0.1269
 7989PP      PP18093   2.277   7.134   0.370 -0.1629 -0.0360  0.2667
 7990PP      PP18094   7.060   4.494   0.604 -0.1558  0.1003 -0.2285
 7991PP      PP18095  15.115   1.715  11.097 -0.0639  0.1821  0.0457
 7992PP      PP18096   6.180   2.734  10.915  0.0290 -0.0770 -0.4906
 7993PP      PP18097   2.090   9.824   5.360 -0.2220 -0.1951  0.4004
 7994PP      PP18098  13.227   4.689  10.855  0.0990 -0.1527 -0.1151
 7995PP      PP18099   0.871   1.110   1.390 -0.2133  0.2290 -0.3562
 7996PP      PP18100  14.331  10.407   4.454 -0.0810  0.1494 -0.3101
 7997PP      PP18101  12.389   5.236  10.035 -0.1324  0.1778 -0.5382
 7998PP      PP18102  11.884   8.758   4.094  0.1435 -0.1021 -0.0558
 7999PP      PP18103  10.892  11.973  13.109  0.2739  0.0545 -0.2804
 8000PP      PP18104  11.203  15.736   9.147 -0.2204 -0.1699  0.0210
 8001PP      PP18105   0.300  14.332   3.021  0.0364  0.2332 -0.2260
 8002PP      PP18106   1.575   3.203   9.469  0.3047 -0.0838  0.0280
 8003PP      PP18107   3.973   4.457  13.031  0.0321 -0.3974 -0.0816
 8004PP      PP18108  15.565   9.339  13.207  0.2169 -0.1408  0.1022
 8005PP      PP18109   4.653  13.433   8.551 -0.0660  0.1940 -0.1001
 8006PP      PP18110  12.791   7.947   4.511 -0.3922 -0.1354  0.0230
 8007PP      PP18111   0.837   1.122   9.211 -0.1077  0.0040 -0.1272
 8008PP      PP18112   6.272  13.364   3.407  0.0157 -0.0899  0.1868
 8009PP      PP18113   2.486   0.542  12.899  0.0989  0.3270 -0.3883
 8010PP      PP18114  10.731   7.792   1.979  0.0822 -0.1298 -0.2146
 8011PP      PP18115   9.664  10.288   4.054 -0.1383 -0.3573 -0.1808
 8012PP      PP18116  10.680   4.781  13.430 -0.0045 -0.1437  0.0103
 8013PP      PP18117   1.478   6.945   3.803  0.2301  0.0967 -0.3266
 8014PP      PP18118  11.097   1.465  10.378  0.0238 -0.0081 -0.1066
 8015PP      PP18119   5.824   3.704  10.448  0.0618 -0.4070  0.1130
 8016PP      PP18120  14.372   1.966   3.972  0.0419  0.3784 -0.0649
 8017PP      PP18121   4.591   3.048   2.712 -0.0062 -0.1075 -0.0232
 8018PP      PP18122  10.725   1.018   2.642 -0.0092  0.0176 -0.5037
 8019PP      PP18123  13.715   9.060   0.296 -0.0478 -0.2620  0.4317
 8020PP      PP18124   5.453   7.803   3.400  0.2328  0.0173  0.2194
 8021PP      PP18125   0.013   5.866   3.067  0.1874 -0.2901 -0.2283
 8022PP      PP18126   8.336   1.282  12.738 -0.3537 -0.0852  0.0595
 8023PP      PP18127   5.499   9.321   3.824  0.0796 -0.1630 -0.2008
 8024PP      PP18128   0.740  15.615   1.733 -0.2337 -0.1168  0.2759
 8025PP      PP18129   6.677   9.563  11.383 -0.0191  0.2191 -0.1039
 8026PP      PP18130  13.346   6.985   1.506  0.0640  0.0088  0.0166
 8027PP      PP18131  13.678   5.377  12.190 -0.0381 -0.0918  0.0630
 8028PP      PP18132   9.761   9.078   0.610 -0.0381 -0.0642  0.1896
 8029PP      PP18133   1.054   2.517   1.900 -0.2821  0.0657 -0.2437
 8030PP      PP18134   9.542  12.484  11.983 -0.4573  0.0462 -0.1186
 8031PP      PP18135   1.425   9.811  11.012 -0.3424 -0.0609 -0.0448
 8032PP      PP18136  11.309  13.936   2.046 -0.3949  0.2056  0.1634
 8033PP      PP18137   0.386   4.652   3.396 -0.1377 -0.0839  0.0368
 8034PP      PP18138  10.497  10.130   0.277 -0.1511 -0.3889 -0.1395
 8035PP      PP18139  14.810   3.405  12.215 -0.2354 -0.3114 -0.1262
 8036PP      PP18140  12.105  13.371   3.723 -0.0119  0.0357  0.2930
 8037PP      PP18141  11.078  10.793   3.532 -0.2814  0.1518  0.1152
 8038PP      PP18142   6.112   0.085  12.256  0.0004  0.1344 -0.1298
 8039PP      PP18143  10.517   6.733   3.866 -0.2021  0.0837 -0.1392
 8040PP      PP18144  12.418   2.085  12.206  0.0337  0.1028  0.2970
 8041PP      PP18145   9.832   3.616   3.150 -0.3049 -0.0371 -0.0151
 8042PP      PP18146   9.767   1.570  11.072 -0.3957 -0.0618  0.1231
 8043PP      PP18147   8.551   6.070   1.620 -0.0561  0.3754 -0.2334
 8044PP      PP18148   6.510   9.964   3.041 -0.0920  0.2041  0.3238
 8045PP      PP18149  15.134  11.711   1.850  0.3219  0.2865 -0.0624
 8046PP      PP18150   8.482  14.984   2.091  0.0304 -0.2334  0.1854
 8047PP      PP18151  13.603  12.499   4.195  0.1090  0.3040  0.0443
 8048PP      PP18152   3.018   6.598  10.763 -0.1458 -0.0424 -0.0943
 8049PP      PP18153   5.853   2.644   0.600 -0.1375  0.0842 -0.0048
 8050PP      PP18154   2.221   3.919   1.771 -0.0772  0.1696 -0.1478
 8051PP      PP18155  12.437   8.310  11.320  0.1478  0.0629  0.4061
 8052PP      PP18156   6.786   3.430  12.218 -0.2587  0.1502  0.4409
 8053PP      PP18157   4.868   0.422  13.009 -0.0061  0.0521 -0.1133
 8054PP      PP18158   1.827  10.743   0.335 -0.2323  0.0011  0.1131
 8055PP      PP18159  10.288   0.891   8.903  0.0114 -0.1057 -0.1040
 8056PP      PP18160   9.388   1.920  10.970 -0.1000  0.0793 -0.2807
 8057PP      PP18161   3.409  12.335   9.762  0.0726  0.2967  0.2264
 8058PP      PP18162  13.811  14.242  10.732 -0.3268  0.3143 -0.0035
 8059PP      PP18163   8.797  10.345   4.350 -0.4119  0.0950  0.1036
 8060PP      PP18164   6.193   7.230   1.390 -0.0887  0.0220 -0.1737
 8061PP      PP18165   4.490  13.140  11.728  0.1878 -0.4202  0.2265
 8062PP      PP18166  11.190   1.369   2.531  0.0998 -0.1517 -0.0507
 8063PP      PP18167   9.113   2.573  10.159 -0.1154  0.1130 -0.1387
 8064PP      PP18168  14.992  13.659  10.358 -0.0751 -0.1082  0.3213
 8065PP      PP18169  10.917   0.575  12.359  0.0980  0.1143 -0.1212
 8066PP      PP18170  12.645   7.647  10.756 -0.1912  0.0439  0.1176
 8067PP      PP18171   3.345   3.801   0.437  0.1330  0.0772 -0.1815
 8068PP      PP18172  11.921   2.128   3.785  0.1042 -0.1789  0.2955
 8069PP      PP18173   6.432  12.093   9.392  0.0706  0.1401  0.0245
 8070PP      PP18174   9.352   6.836   3.107 -0.0424 -0.1416  0.1859
 8071PP      PP18175   6.253  12.836   3.161 -0.0476  0.1698 -0.0063
 8072PP      PP18176   7.939  14.918   2.368  0.0584  0.1983  0.5239
 8073PP      PP18177  11.242   7.240   1.334 -0.0429  0.0699  0.1448
 8074PP      PP18178  10.617   1.216   0.899  0.0507  0.1700  0.1061
 8075PP      PP18179   9.471   7.165   9.828 -0.1362 -0.2719  0.2825
 8076PP      PP18180  13.429   0.272   2.579  0.0911  0.2601 -0.2809
 8077PP      PP18181   9.726   9.999  10.033 -0.5008 -0.0914 -0.2723
 8078PP      PP18182  13.570   5.537   2.594 -0.2693 -0.0287  0.0173
 8079PP      PP18183   9.092   6.408  12.242  0.0195 -0.2916  0.1049
 8080PP      PP18184  12.309   7.864   1.970  0.0984 -0.0067  0.2377
 8081PP      PP18185   0.258   6.376   2.351 -0.1394  0.2584  0.0034
 8082PP      PP18186   4.066   3.123  10.871 -0.0310 -0.3334 -0.1132
 8083PP      PP18187   7.683   8.555   9.541  0.2907  0.1933  0.1694
 8084PP      PP18188   9.205   2.875  10.601 -0.1401 -0.0620  0.2049
 8085PP      PP18189  14.878   6.342   2.091 -0.0423  0.3401  0.0680
 8086PP      PP18190  13.454   2.695   2.313  0.1379  0.0284 -0.0350
 8087PP      PP18191   1.500   3.804   3.974 -0.0473 -0.0351 -0.4725
 8088PP      PP18192   6.022  14.877  11.114 -0.0372  0.2433 -0.1911
 8089PP      PP18193  11.768   7.894   4.167  0.0312 -0.2099  0.0291
 8090PP      PP18194  15.339   8.973   5.460 -0.0901  0.1613  0.1049
 8091PP      PP18195   3.161   8.280  10.115  0.2880  0.2452 -0.0005
 8092PP      PP18196   0.436  14.878  12.710 -0.0850  0.2163  0.0032
 8093PP      PP18197  10.633   8.886   2.653  0.0290 -0.0104 -0.1233
 8094PP      PP18198   0.866   9.464  10.234  0.2144  0.1916 -0.3718
 8095PP      PP18199   3.587   7.170   3.572 -0.1516 -0.4000  0.1766
 8096PP      PP18200   9.854   3.931  13.211 -0.1030 -0.1001 -0.3789
 8097PP      PP18201   8.316   4.742   2.457 -0.0144 -0.3430 -0.0247
 8098PP      PP18202   6.612   4.271  12.446 -0.3570  0.0521  0.1337
 8099PP      PP18203   9.292  10.355   8.977  0.2165  0.0917 -0.0036
 8100PP      PP18204   6.315   4.325  11.503  0.0306  0.0590  0.0604
 8101PP      PP18205   5.438   5.693   1.315 -0.0655 -0.0694  0.1800
 8102PP      PP18206   2.324   4.358   3.101 -0.3411 -0.3483  0.0876
 8103PP      PP18207  15.128  13.598   2.665  0.2007  0.1279 -0.0809
 8104PP      PP18208  11.440  11.047   3.939  0.2611  0.0701 -0.0309
 8105PP      PP18209  13.068  12.854   0.886  0.2036 -0.3221 -0.1989
 8106PP      PP18210   6.831   6.387   1.016  0.1372  0.0850  0.1453
 8107PP      PP18211   5.908   5.779   1.988  0.1433 -0.4187  0.4426
 8108PP      PP18212   4.991   9.785   0.430  0.0256  0.1260 -0.1751
 8109PP      PP18213  11.439   3.766  13.513 -0.0588  0.1004 -0.1104
 8110PP      PP18214  15.513  13.997   1.930 -0.0644 -0.2078 -0.2665
 8111PP      PP18215   5.584   2.329   2.642  0.1475  0.1783 -0.0682
 8112PP      PP18216   2.786   2.496   8.003  0.1893  0.0659 -0.1230
 8113PP      PP18217  12.707   8.115   3.623  0.1699 -0.1504 -0.0086
 8114PP      PP18218  13.487   2.681   9.673  0.0444 -0.1273 -0.0121
 8115PP      PP18219  13.306   9.009  12.437  0.2374  0.6008  0.2169
 8116PP      PP18220   4.215   1.165   1.408 -0.1566  0.1645 -0.0701
 8117PP      PP18221  10.922   4.934  10.818  0.0289 -0.1206 -0.1403
 8118PP      PP18222   9.100  14.803   2.077  0.1150 -0.0245  0.4318
 8119PP      PP18223   0.138   2.960  13.097 -0.0448  0.0224 -0.2758
 8120PP      PP18224   4.031  12.880   9.645 -0.2735  0.4080 -0.3357
 8121PP      PP18225  15.093   4.643  10.824  0.0744  0.1728 -0.1785
 8122PP      PP18226   1.494   6.128   2.626  0.2892  0.1653 -0.2597
 8123PP      PP18227  13.449   6.561   9.917 -0.0750  0.0688 -0.3584
 8124PP      PP18228   2.389  14.940  10.298  0.3136  0.0654 -0.0706
 8125PP      PP18229   4.673   9.978   3.991 -0.0164 -0.0293  0.0849
 8126PP      PP18230   3.599  13.159   0.616 -0.0691  0.0122 -0.1491
 8127PP      PP18231  11.247   0.831  12.684 -0.3284  0.0211 -0.1137
 8128PP      PP18232   4.112   9.200   3.909  0.2290  0.1240  0.0443
 8129PP      PP18233   6.066   3.779  11.426 -0.0978  0.0721 -0.1287
 8130PP      PP18234   2.657   4.354   3.523 -0.3479 -0.1794  0.1051
 8131PP      PP18235  14.446   5.260  11.703  0.2133 -0.0759  0.0930
 8132PP      PP18236   2.805   1.814   8.154 -0.1276  0.1719 -0.1113
 8133PP      PP18237  12.576  10.351  10.238 -0.0748 -0.2695 -0.0026
 8134PP      PP18238   3.260   8.306   0.398 -0.1641  0.0222 -0.0844
 8135PP      PP18239   8.437  13.557   9.755  0.0821  0.1925 -0.0723
 8136PP      PP18240  14.712  10.072  10.106  0.0635  0.1613  0.4369
 8137PP      PP18241   2.401  10.117  13.053  0.1957  0.0935  0.2754
 8138PP      PP18242   2.275   8.452  12.795  0.1576  0.0583  0.1203
 8139PP      PP18243   1.400  12.046  10.592  0.0496 -0.1309 -0.0310
 8140PP      PP18244   7.364   1.409   9.688 -0.2018  0.3073  0.3722
 8141PP      PP18245  13.041  10.214  11.930  0.1923 -0.1824  0.0903
 8142PP      PP18246   7.098   4.087  12.434  0.1416 -0.1452 -0.0825
 8143PP      PP18247   0.773   8.701  10.359  0.0098  0.1673 -0.2089
 8144PP      PP18248  12.249   1.286   8.703 -0.2068 -0.0214  0.0844
 8145PP      PP18249  10.261   0.661   0.157 -0.0072 -0.0399  0.1439
 8146PP      PP18250   0.959   8.225   6.008  0.2533 -0.1755  0.2322
 8147PP      PP18251   5.313  12.622   2.959  0.1077 -0.0402 -0.0669
 8148PP      PP18252   9.678  12.804   0.212 -0.0015  0.1394  0.2220
 8149PP      PP18253   4.528   5.460  13.356 -0.0714  0.0191  0.1993
 8150PP      PP18254   4.656   4.034   9.633 -0.1268  0.0051  0.1244
 8151PP      PP18255  11.833   7.598   3.813 -0.0968  0.1553  0.1191
 8152PP      PP18256  10.469  14.297  10.021 -0.2094  0.1566 -0.4801
 8153PP      PP18257   9.414   5.541   9.688  0.4225  0.1181 -0.3877
 8154PP      PP18258  12.197   3.310   9.383 -0.0553 -0.1068 -0.2075
 8155PP      PP18259   2.655   5.863  10.370  0.2105 -0.0622 -0.3319
 8156PP      PP18260   3.503   4.633   9.997  0.4484 -0.1499  0.0439
 8157PP      PP18261  14.527   2.039   9.085  0.2805 -0.4124 -0.2493
 8158PP      PP18262  10.097  13.858  12.926 -0.3083 -0.2943 -0.1564
 8159PP      PP18263   8.808   7.321  11.606  0.0686 -0.0213  0.0131
 8160PP      PP18264   6.047  12.539  11.291 -0.0701 -0.0273  0.5285
 8161PP      PP18265  15.137  14.953   0.628  0.1666  0.0400 -0.1741
 8162PP      PP18266   5.363   2.428  11.852 -0.4541  0.0077  0.3732
 8163PP      PP18267   7.757   8.793  11.056 -0.1544  0.1019 -0.1464
 8164PP      PP18268   8.871   0.015   9.073 -0.3741 -0.0391  0.0366
 8165PP      PP18269  12.729   9.048   3.956  0.2241 -0.1842 -0.2255
 8166PP      PP18270  12.024  12.053   2.096  0.1530  0.0394 -0.1508
 8167PP      PP18271  15.692   2.942   0.704 -0.0514  0.1787 -0.0438
 8168PP      PP18272   1.730   8.139  11.541 -0.1745 -0.2711  0.2198
 8169PP      PP18273  10.370   1.349   2.400  0.5117  0.1896 -0.3345
 8170PP      PP18274   6.492  10.404   0.849 -0.1913  0.1065  0.0478
 8171PP      PP18275   5.506  15.449  12.755  0.2354 -0.0193  0.1797
 8172PP      PP18276   8.528  12.389   0.273  0.2281 -0.2089 -0.0498
 8173PP      PP18277   5.578  15.740   0.109 -0.0092  0.0519  0.2258
 8174PP      PP18278   0.387   2.358   9.719 -0.0025 -0.1079 -0.0342
 8175PP      PP18279  14.078  12.306   9.944  0.1839  0.0192 -0.1234
 8176PP      PP18280   8.983  14.418   3.332 -0.1733 -0.0275 -0.0536
 8177PP      PP18281  12.390  10.126  13.190 -0.1967 -0.1510 -0.1405
 8178PP      PP18282   7.815  13.276   9.048  0.0418  0.2562 -0.2298
 8179PP      PP18283  13.611   9.283  10.900  0.1111 -0.0454  0.3175
 8180PP      PP18284  13.020   2.251  10.774  0.2563  0.1303 -0.0444
 8181PP      PP18285   4.174   3.890   9.711  0.3614  0.4534 -0.0199
 8182PP      PP18286   7.050   9.120  10.519  0.0839  0.1682 -0.2835
 8183PP      PP18287   0.432   5.842  13.431 -0.2572 -0.4826 -0.1814
 8184PP      PP18288   7.611  12.485   1.049  0.2362 -0.2922  0.2078
 8185PP      PP18289   8.504  14.137   2.228 -0.0979  0.4167  0.1991
 8186PP      PP18290  11.091   4.302  12.577 -0.0813 -0.2207 -0.1492
 8187PP      PP18291  13.690   3.657   2.931 -0.1159  0.1312  0.1059
 8188PP      PP18292   5.355  11.199  11.911  0.1425 -0.1787  0.4950
 8189PP      PP18293   9.031  14.880   4.125  0.0159 -0.2334  0.0158
 8190PP      PP18294   3.178  12.313   1.341 -0.4336 -0.3470 -0.3122
 8191PP      PP18295   4.790  10.070   5.353  0.3630 -0.1282  0.0995
 8192PP      PP18296   7.029   3.040   8.106 -0.0592  0.3624 -0.1807
 8193PP      PP18297   8.893  11.230  10.025  0.1383  0.0848  0.0415
 8194PP      PP18298   9.618  11.756   2.160 -0.0918 -0.1586  0.0421
 8195PP      PP18299  14.677  11.774  10.950  0.1622 -0.0724 -0.0262
 8196PP      PP18300  10.527   6.473   9.874  0.2824 -0.1484  0.4514
 8197PP      PP18301   0.721   5.498  13.102 -0.1571  0.1029 -0.1707
 8198PP      PP18302   5.652   3.118   3.291  0.0562 -0.1511 -0.0744
 8199PP      PP18303  10.842   7.041   0.635  0.0589 -0.1619 -0.0609
 8200PP      PP18304  12.446  13.060  13.191 -0.0197  0.1490  0.2632
 8201PP      PP18305  12.035  13.321   2.809  0.2913 -0.3203 -0.0007
 8202PP      PP18306  14.709  12.314   1.044  0.2275  0.0002 -0.0490
 8203PP      PP18307   4.495  13.373   2.186 -0.3060  0.1956  0.0813
 8204PP      PP18308   9.492   8.996   2.053  0.0784  0.1658 -0.0086
 8205PP      PP18309   0.779   9.125   2.267  0.0988  0.4046  0.0125
 8206PP      PP18310  13.445  11.587   2.290 -0.0734  0.2242  0.3031
 8207PP      PP18311  14.639  13.886   8.919 -0.1105 -0.2515 -0.2664
 8208PP      PP18312  12.422   4.715   4.203 -0.0318  0.1654  0.3047
 8209PP      PP18313   1.214   4.694   4.418 -0.0757  0.2724 -0.0231
 8210PP      PP18314  15.642   3.925  13.033  0.3849  0.1010  0.0885
 8211PP      PP18315   7.316   3.554   1.827  0.0850  0.0798  0.5583
 8212PP      PP18316   5.402   0.010   2.527  0.1725 -0.0361 -0.2162
 8213PP      PP18317  13.878   8.902  11.238 -0.0167  0.0238  0.1317
 8214PP      PP18318   7.772   2.467   1.907  0.1445  0.4600 -0.0839
 8215PP      PP18319  10.453   8.521   0.758 -0.0144 -0.1200 -0.1213
 8216PP      PP18320  13.413   2.439  13.222  0.0290 -0.1705 -0.0079
 8217PP      PP18321   2.303  12.725   9.812 -0.0878  0.3885 -0.2764
 8218PP      PP18322  12.099   6.363   1.972 -0.0165  0.0193  0.0980
 8219PP      PP18323   8.696   8.919   4.481 -0.0484 -0.1832 -0.1713
 8220PP      PP18324   2.534   9.668   4.533  0.2200 -0.0557  0.1054
 8221PP      PP18325  13.494   1.217   2.306 -0.1197 -0.0932  0.0257
 8222PP      PP18326   4.825  14.410   1.044 -0.0018  0.0054 -0.2200
 8223PP      PP18327   2.720   4.857   0.005  0.0276  0.0637  0.1432
 8224PP      PP18328  14.232   2.202   0.145 -0.0110  0.2048 -0.2808
 8225PP      PP18329   7.790   0.933   2.937 -0.0723  0.0351 -0.1721
 8226PP      PP18330   4.306   6.497   1.854  0.2314  0.2541  0.1338
 8227PP      PP18331   6.599   2.588   8.926  0.1268  0.1235  0.0082
 8228PP      PP18332  13.049   8.631  12.164  0.0990  0.1112 -0.2310
 8229PP      PP18333   2.925   2.779   9.290  0.0657  0.0355 -0.3977
 8230PP      PP18334  10.521   4.991   3.419  0.1831  0.0313 -0.1002
 8231PP      PP18335   5.736  12.082   0.151 -0.1670 -0.1546 -0.1514
 8232PP      PP18336  13.632   4.006  13.179 -0.0016 -0.2554  0.2358
 8233PP      PP18337   5.676  12.239   2.966 -0.1722  0.0569 -0.0407
 8234PP      PP18338   8.918  12.070   0.595 -0.0911 -0.2653 -0.0082
 8235PP      PP18339  15.321   2.172   0.403  0.0528 -0.1994 -0.1462
 8236PP      PP18340   1.417   8.780   1.747 -0.0860  0.2574 -0.0905
 8237PP      PP18341  14.839   6.998  11.208  0.0653 -0.2196 -0.1242
 8238PP      PP18342   5.759  14.408  11.063 -0.1783 -0.2924 -0.0270
 8239PP      PP18343   7.887  12.782   9.031  0.0151 -0.0613  0.1679
 8240PP      PP18344  13.410   8.746  10.912  0.2123  0.0222 -0.2580
 8241PP      PP18345  15.000   8.953  13.307  0.1656 -0.1734  0.1618
 8242PP      PP18346   1.038  14.312   3.826 -0.1856  0.2540 -0.2042
 8243PP      PP18347  14.281   6.699   4.391  0.2246 -0.0893  0.3584
 8244PP      PP18348  12.156  13.991   4.522 -0.2785  0.1467 -0.5133
 8245PP      PP18349   0.361   1.385  12.575  0.1441 -0.0895 -0.1636
 8246PP      PP18350   1.599   6.504   0.314 -0.2514  0.1224  0.1220
 8247PP      PP18351  14.530   3.321  12.657 -0.3485  0.0903  0.1404
 8248PP      PP18352  12.509   2.699   3.086 -0.0081 -0.3080  0.1550
 8249PP      PP18353  12.245  14.769   9.460  0.0737 -0.0565  0.3625
 8250PP      PP18354  13.656   4.463   4.194  0.3607 -0.0713  0.2078
 8251PP      PP18355   9.145  11.079  11.612  0.0819  0.1621 -0.1163
 8252PP      PP18356  11.195  12.434   3.659  0.0080  0.0326  0.2520
 8253PP      PP18357   1.064  13.051   0.742 -0.1067  0.4144  0.0805
 8254PP      PP18358  14.417   6.864  12.430  0.0674  0.0040  0.0815
 8255PP      PP18359  13.707  13.442   9.553  0.0231 -0.1742 -0.1415
 8256PP      PP18360   5.754  15.096  12.098  0.2300 -0.0677  0.2625
 8257PP      PP18361   5.751   6.315   4.154  0.0119 -0.0761  0.0406
 8258PP      PP18362  11.252   7.006   4.014 -0.0416 -0.1368  0.3013
 8259PP      PP18363  12.752   5.613  12.565  0.2085  0.1742  0.1732
 8260PP      PP18364  10.327   3.532   9.669 -0.2084 -0.2444 -0.0327
 8261PP      PP18365   3.596   0.863   1.461 -0.0605  0.0706  0.0279
 8262PP      PP18366   1.433   1.732   3.395 -0.2379 -0.1287  0.1889
 8263PP      PP18367   4.952  10.199   0.036 -0.1980  0.3292 -0.3074
 8264PP      PP18368   3.666   5.192  11.678  0.0338 -0.0725 -0.1429
 8265PP      PP18369   2.656  15.056  12.625 -0.2785 -0.0087  0.0854
 8266PP      PP18370   4.449   4.612   2.669  0.2600 -0.0052  0.0314
 8267PP      PP18371   3.286   7.146   3.990  0.1569  0.0217 -0.1731
 8268PP      PP18372   1.935   3.470   9.606  0.4974  0.1003 -0.1691
 8269PP      PP18373   7.025   3.269  11.249 -0.2374  0.1366 -0.0567
 8270PP      PP18374  13.762   8.331  10.582 -0.1892  0.2160  0.0324
 8271PP      PP18375   2.013  12.788   3.737  0.0139 -0.2380 -0.0494
 8272PP      PP18376   4.938   6.467   0.192  0.1444 -0.4161 -0.0347
 8273PP      PP18377   2.742   2.584  11.051 -0.1322 -0.0951  0.0256
 8274PP      PP18378   9.550   4.667   3.219 -0.0106 -0.0161  0.2203
 8275PP      PP18379   7.439  12.627  10.247 -0.0029 -0.0261 -0.1782
 8276PP      PP18380  10.843  11.022   0.568  0.1880 -0.0029 -0.1119
 8277PP      PP18381   3.656   7.389  12.944  0.1441 -0.0905 -0.3382
 8278PP      PP18382   7.188   5.480  12.693  0.4793 -0.0234 -0.0761
 8279PP      PP18383   5.077   4.213   1.216  0.1074  0.2649 -0.0440
 8280PP      PP18384   5.395   9.634   3.408  0.3095 -0.0193 -0.1586
 8281PP      PP18385   6.556   5.673   9.629 -0.4212  0.1401  0.2430
 8282PP      PP18386  15.831   8.223  10.299 -0.0272  0.0709  0.4499
 8283PP      PP18387   5.537   6.569   2.349 -0.0591 -0.1719  0.0693
 8284PP      PP18388  13.752   1.159  13.368 -0.1327  0.0820  0.1012
 8285PP      PP18389   3.200   0.877   1.029 -0.2163 -0.1799 -0.5689
 8286PP      PP18390   4.709  15.791   8.656 -0.0740  0.0335  0.1617
 8287PP      PP18391   8.888  13.016  10.738 -0.0310 -0.0342  0.0292
 8288PP      PP18392   6.449   9.094   0.427 -0.1061  0.1292 -0.1970
 8289PP      PP18393  12.319   7.971   9.163  0.2975 -0.0306  0.1651
 8290PP      PP18394  10.748  10.134   0.828  0.3529  0.0946  0.0556
 8291PP      PP18395  15.380   4.903  12.684  0.0629  0.2088  0.2304
 8292PP      PP18396  10.104  14.170   9.723  0.1189  0.2443 -0.0274
 8293PP      PP18397   2.153  13.968   1.661 -0.3335 -0.4257 -0.0109
 8294PP      PP18398  13.773   7.796  12.066 -0.0213 -0.1295 -0.0421
 8295PP      PP18399   0.551  14.647   1.247 -0.0318 -0.0689 -0.2664
 8296PP      PP18400   8.855  15.702  10.989 -0.0322 -0.0068  0.5545
 8297PP      PP18401   6.448   6.677   9.669  0.6481  0.1421  0.1864
 8298PP      PP18402   0.890  13.151  10.948  0.0460 -0.0770  0.0931
 8299PP      PP18403  11.242   4.700   8.844  0.4766  0.0088  0.0095
 8300PP      PP18404  11.842   1.119  11.843 -0.4754  0.2494 -0.2574
 8301PP      PP18405   8.621   5.503   0.985  0.0508  0.0223 -0.0749
 8302PP      PP18406   1.150  13.931  12.431  0.4698 -0.0712 -0.0581
 8303PP      PP18407   8.672  12.709   8.424  0.1560 -0.5290 -0.3105
 8304PP      PP18408   6.758  14.405   8.199 -0.1265  0.0164  0.1639
 8305PP      PP18409   4.301  12.765  10.065 -0.2249 -0.1682 -0.1724
 8306PP      PP18410  15.205  10.996  11.742  0.1034 -0.2984 -0.0509
 8307PP      PP18411   0.176   8.754   4.254  0.5178  0.2109  0.0516
 8308PP      PP18412   0.421  10.117   5.115 -0.0319  0.1850  0.3448
 8309PP      PP18413  12.870   9.163  12.245 -0.0641 -0.3151  0.2539
 8310PP      PP18414   3.037  13.288  11.455  0.1167  0.1276 -0.0709
 8311PP      PP18415   4.056  15.527   8.145  0.2461 -0.0320 -0.0586
 8312PP      PP18416  13.752   8.913  10.075  0.2836  0.1360 -0.0497
 8313PP      PP18417  13.297  10.569   2.254  0.0814 -0.1221 -0.0245
 8314PP      PP18418   6.476  12.543   8.971  0.2751 -0.1461  0.1550
 8315PP      PP18419   5.758   6.567  10.612  0.3991  0.2458  0.0519
 8316PP      PP18420   4.724   9.383   0.343 -0.0691 -0.1984 -0.0017
 8317PP      PP18421   7.285   1.475   1.995 -0.0438 -0.0304 -0.2907
 8318PP      PP18422   0.475   5.571  10.912 -0.0226  0.1886 -0.0120
 8319PP      PP18423   1.538   7.189   9.646 -0.1983 -0.2847  0.0598
 8320PP      PP18424   1.741  13.270   1.328 -0.0247 -0.1138 -0.1262
 8321PP      PP18425   2.614   1.954   8.973  0.3370  0.3745  0.2307
 8322PP      PP18426   0.597  14.724   3.172 -0.0628  0.2377  0.2142
 8323PP      PP18427   4.291   6.908   4.681  0.2888 -0.1188 -0.2434
 8324PP      PP18428  11.799   1.573  12.131 -0.0460 -0.0850 -0.3354
 8325PP      PP18429   7.638   2.977   1.541 -0.1965 -0.1280  0.0757
 8326PP      PP18430   2.106  15.563   4.433  0.0689 -0.1726 -0.1497
 8327PP      PP18431   4.048   2.292   9.365 -0.1388  0.2371  0.0591
 8328PP      PP18432   0.740   0.630  13.396 -0.2163  0.1951 -0.2606
 8329PP      PP18433   3.200   4.849   4.136 -0.1398 -0.1988  0.2504
 8330PP      PP18434  12.949   3.016   0.175 -0.0357  0.2292  0.2342
 8331PP      PP18435   9.583   2.855   3.363 -0.0165 -0.2168  0.0141
 8332PP      PP18436   5.291  15.327  11.771 -0.4398 -0.1650 -0.1769
 8333PP      PP18437  11.328  15.617   0.199 -0.0219 -0.2286 -0.0855
 8334PP      PP18438   7.103   5.495   9.514  0.0144 -0.2610  0.2266
 8335PP      PP18439   4.475   9.317   2.042  0.1947  0.1986  0.0473
 8336PP      PP18440  10.528  10.801   1.524  0.3104 -0.0341  0.1217
 8337PP      PP18441   4.827   4.395   0.523  0.3426  0.2898  0.1105
 8338PP      PP18442   8.859  13.324   0.260  0.3697 -0.0758  0.0861
 8339PP      PP18443   0.866  15.557   9.405  0.0321  0.0884 -0.3805
 8340PP      PP18444   2.085   9.891   0.865 -0.3901  0.1687  0.1074
 8341PP      PP18445  10.796   3.232   3.773  0.1176 -0.2430 -0.1836
 8342PP      PP18446  10.005   3.425   8.568 -0.0695  0.0341  0.0134
 8343PP      PP18447   0.856  14.486  13.090 -0.0425 -0.1728 -0.0580
 8344PP      PP18448  10.504  15.320   2.218 -0.2556  0.1084 -0.2652
 8345PP      PP18449   5.345   0.691   7.615  0.0117 -0.1553  0.1328
 8346PP      PP18450   2.840  15.792  12.879 -0.0014 -0.0392 -0.2096
 8347PP      PP18451  15.225   6.166   3.803  0.0038 -0.0163 -0.4967
 8348PP      PP18452   0.293  15.820   1.903 -0.2627  0.4061 -0.4134
 8349PP      PP18453   3.043   7.140   4.421 -0.1241 -0.0675 -0.1146
 8350PP      PP18454  11.314  10.920  13.243  0.1137 -0.0443 -0.1879
 8351PP      PP18455  13.124   3.972   2.808  0.1176  0.1850 -0.0004
 8352PP      PP18456  13.318  12.680   1.891 -0.0493 -0.1490  0.0550
 8353PP      PP18457   4.780  14.414  10.780  0.3683  0.0884 -0.1000
 8354PP      PP18458   1.056   2.932   1.667  0.0823 -0.1487  0.5066
 8355PP      PP18459   5.792   0.443   9.862 -0.0329 -0.0956  0.1998
 8356PP      PP18460   6.575   6.364  11.019 -0.3073 -0.1455 -0.0697
 8357PP      PP18461   7.725   8.136  10.416 -0.2962 -0.2112 -0.1711
 8358PP      PP18462   4.357   6.580  11.319 -0.0279 -0.3793 -0.0872
 8359PP      PP18463   2.539   3.359  13.291 -0.1787 -0.1093  0.2576
 8360PP      PP18464   6.242   1.939   1.242 -0.0300  0.0724  0.4954
 8361PP      PP18465   4.134   5.272   3.491  0.0584  0.0230 -0.1048
 8362PP      PP18466   8.401   3.370  11.286  0.0797 -0.1643 -0.0975
 8363PP      PP18467   2.172   4.812   4.033 -0.0970  0.0286 -0.1781
 8364PP      PP18468  14.345   5.509  12.701  0.0135 -0.1173  0.0545
 8365PP      PP18469   2.470   1.260  11.250 -0.3638  0.0217  0.1840
 8366PP      PP18470   2.044   3.410  10.755  0.0788  0.0086  0.1737
 8367PP      PP18471  13.388   0.775   1.263 -0.1872 -0.2216  0.1811
 8368PP      PP18472  12.065  12.008  13.258 -0.1939 -0.0650 -0.0258
 8369PP      PP18473  13.939  15.512   3.442  0.0890  0.0457  0.2594
 8370PP      PP18474   2.131   6.325  12.432  0.1183  0.0585  0.1911
 8371PP      PP18475   8.531  15.660  12.172  0.1900 -0.0051  0.0891
 8372PP      PP18476   4.215  13.728   1.282 -0.3115  0.3024 -0.1124
 8373PP      PP18477  13.863  10.632  12.238  0.0376 -0.0838 -0.1850
 8374PP      PP18478   9.735   6.851   3.406 -0.0069  0.1847 -0.0956
 8375PP      PP18479   5.459   2.312   3.528  0.0048 -0.0304  0.0880
 8376PP      PP18480  10.218   8.749   2.461 -0.0690  0.1869 -0.0357
 8377PP      PP18481  15.500   7.399  10.953  0.3714  0.2440 -0.0616
 8378PP      PP18482  14.291   8.957   2.813  0.1291  0.1880  0.0659
 8379PP      PP18483  10.735   2.164  10.993 -0.2815 -0.3390 -0.1981
 8380PP      PP18484  15.802  13.968  11.106 -0.1490 -0.0378  0.4047
 8381PP      PP18485  12.485   5.489   1.700 -0.1857 -0.0713 -0.1623
 8382PP      PP18486   1.068  11.792   3.049  0.3291 -0.2030 -0.0030
 8383PP      PP18487   2.879  13.514   3.059  0.0320 -0.2048 -0.2755
 8384PP      PP18488   3.740  14.813   2.380  0.1999  0.2639 -0.0080
 8385PP      PP18489  14.414  10.972   9.967 -0.1374 -0.2680 -0.1248
 8386PP      PP18490   7.575  11.506   2.155 -0.1691 -0.3615  0.1362
 8387PP      PP18491   2.845  15.207   3.465  0.1034 -0.2571 -0.1027
 8388PP      PP18492   6.828   3.660  10.384  0.1946  0.0183 -0.1285
 8389PP      PP18493   6.684  14.204   2.908  0.4071  0.1072 -0.1685
 8390PP      PP18494  14.767   0.837   3.839  0.1643 -0.3220  0.2031
 8391PP      PP18495   4.707   1.297  13.019 -0.0010 -0.0967 -0.0806
 8392PP      PP18496  15.226  10.871  10.106 -0.4193  0.1923 -0.2226
 8393PP      PP18497  15.098   2.563  11.923  0.1398 -0.0188 -0.1063
 8394PP      PP18498   1.656  11.685   3.749 -0.2341 -0.3790 -0.0630
 8395PP      PP18499  15.150   3.089  11.881 -0.1005  0.0939 -0.1237
 8396PP      PP18500   4.847  11.848   2.485  0.1823  0.3757  0.1284
 8397PP      PP18501  10.141   3.181  12.905 -0.1425  0.0383 -0.0576
 8398PP      PP18502  12.971   7.794   1.257 -0.0930  0.3243  0.5208
 8399PP      PP18503   4.241  14.516   9.926 -0.0178 -0.1163 -0.0045
 8400PP      PP18504   4.915   6.117   1.518 -0.0774  0.5378 -0.3979
 8401PP      PP18505   3.327   9.470   1.073  0.1100 -0.1799  0.0403
 8402PP      PP18506   4.341  12.676   4.515 -0.1081  0.1031 -0.0718
 8403PP      PP18507   8.224   1.406  11.217  0.1548  0.2418  0.2716
 8404PP      PP18508  14.569   8.522   0.863  0.2746  0.0860 -0.0414
 8405PP      PP18509   8.907   1.115   4.120 -0.2688 -0.1054 -0.1122
 8406PP      PP18510  15.706   4.534  12.393 -0.0332 -0.1777  0.0070
 8407PP      PP18511  15.634   3.165  10.849 -0.0348  0.2619  0.0850
 8408PP      PP18512  11.268  12.814   0.451 -0.0250  0.2509  0.0423
 8409PP      PP18513  15.458  15.183   4.154 -0.0573  0.0479  0.1328
 8410PP      PP18514   6.196  13.142  12.532 -0.1797 -0.0425  0.0702
 8411PP      PP18515   0.415  15.286  10.778 -0.2429  0.0448 -0.0963
 8412PP      PP18516   0.463   7.443  12.234 -0.2921 -0.0868  0.0221
 8413PP      PP18517  11.115   9.491   2.330 -0.0253 -0.2831 -0.0875
 8414PP      PP18518   2.071   6.100   1.956 -0.0869  0.1993 -0.2560
 8415PP      PP18519   0.644  15.585  13.284  0.0461  0.1384 -0.0952
 8416PP      PP18520   9.967  15.289   9.965  0.2500  0.2062 -0.1474
 8417PP      PP18521   9.668   7.793  11.160  0.0837 -0.0392 -0.1798
 8418PP      PP18522   2.214   7.935  10.591 -0.1213 -0.1521  0.2707
 8419PP      PP18523  15.713   1.390   1.212 -0.1665 -0.1134  0.0271
 8420PP      PP18524  13.676  14.426   1.615 -0.0162  0.0401  0.1206
 8421PP      PP18525   6.359   3.388   8.934  0.3940 -0.1221 -0.0190
 8422PP      PP18526   8.575  13.079   2.484  0.1126  0.0582  0.3409
 8423PP      PP18527   4.721   0.643   2.653 -0.3791  0.0368 -0.2055
 8424PP      PP18528   2.090  11.553  12.894 -0.0404 -0.0237 -0.0076
 8425PP      PP18529  12.444   0.601  10.228 -0.1459  0.0806  0.2011
 8426PP      PP18530  12.351  12.670  11.797 -0.3372 -0.2470  0.2410
 8427PP      PP18531  14.132  14.822  10.341 -0.0490  0.1486  0.0706
 8428PP      PP18532   9.563   4.689   7.965  0.0111 -0.3302  0.1106
 8429PP      PP18533   6.954   9.890  12.751  0.0631  0.0476  0.1456
 8430PP      PP18534   8.694   5.923   1.197 -0.2001 -0.1298  0.0223
 8431PP      PP18535   8.625  10.830   2.941  0.1418 -0.1803  0.0424
 8432PP      PP18536  10.158  15.592   0.523  0.0170 -0.2445  0.1300
 8433PP      PP18537   5.672  13.353   2.733 -0.1371  0.1357  0.1245
 8434PP      PP18538   7.724  12.791   1.975 -0.0459 -0.1371  0.0749
 8435PP      PP18539  14.989   9.016  12.812 -0.1658  0.0742 -0.0048
 8436PP      PP18540  12.046   7.002   9.549  0.1340  0.0038  0.0086
 8437PP      PP18541   6.918   1.884   8.271 -0.1323 -0.1348  0.0687
 8438PP      PP18542   4.275  12.708  11.718  0.2552 -0.0330  0.1577
 8439PP      PP18543   8.400   6.213   9.104 -0.0655 -0.1251  0.0523
 8440PP      PP18544  11.836  11.991   3.094 -0.2625 -0.1096  0.2215
 8441PP      PP18545   2.565  15.545   1.783  0.2235  0.3151  0.1663
 8442PP      PP18546   6.649   7.765   4.069 -0.2826 -0.5444 -0.1421
 8443PP      PP18547  10.549   7.361   2.936  0.3306 -0.0834  0.0692
 8444PP      PP18548   2.543   4.826   2.649  0.3214  0.0629  0.0144
 8445PP      PP18549  14.289   0.501   0.573  0.0673  0.1737 -0.4409
 8446PP      PP18550  13.636   4.577   4.745 -0.1023  0.1800  0.0577
 8447PP      PP18551   0.617   7.322  10.717 -0.2981 -0.0223  0.3147
 8448PP      PP18552   6.449   6.166   9.003  0.0746  0.1614 -0.1038
 8449PP      PP18553   0.743   6.447   0.965  0.2330  0.5506  0.0878
 8450PP      PP18554  10.807   0.022   2.568 -0.0455  0.4462 -0.1748
 8451PP      PP18555  13.241   0.267   1.288 -0.3049  0.1580 -0.2193
 8452PP      PP18556   2.318   1.230  11.699  0.4184  0.2398  0.1082
 8453PP      PP18557   3.840  13.079  12.524 -0.0013 -0.2397  0.0929
 8454PP      PP18558   6.639   7.436   1.545  0.0938 -0.0752  0.0772
 8455PP      PP18559   0.275   2.610  12.278  0.1474 -0.0798  0.0424
 8456PP      PP18560   8.915  13.790  11.228 -0.3168 -0.3016  0.1751
 8457PP      PP18561   8.574   1.983  11.635  0.2693  0.0161  0.0642
 8458PP      PP18562   9.392   2.911   1.490  0.0150  0.0011  0.0845
 8459PP      PP18563   4.351   4.364   1.397 -0.0187 -0.3251  0.0123
 8460PP      PP18564  13.683   3.618   9.346  0.0680  0.1620  0.1431
 8461PP      PP18565   9.081   7.784   4.038  0.0078  0.6147  0.0218
 8462PP      PP18566   7.350   4.906   3.322  0.2658  0.1844  0.2522
 8463PP      PP18567   7.237  13.622   2.199 -0.1634  0.0470 -0.2915
 8464PP      PP18568   4.753  13.191  10.824  0.1578  0.1158 -0.2598
 8465PP      PP18569  12.258   1.998   9.581 -0.3765 -0.0358 -0.0380
 8466PP      PP18570   2.498  10.007   3.287  0.1365 -0.0802 -0.3543
 8467PP      PP18571   3.032  15.026   8.427  0.0113  0.0054  0.3183
 8468PP      PP18572  11.556   4.376   4.538 -0.0905  0.0343  0.1107
 8469PP      PP18573   5.905  10.177   1.435  0.2065  0.1734 -0.1229
 8470PP      PP18574   1.842   9.499   1.008  0.1251  0.1194 -0.2104
 8471PP      PP18575  15.821   6.056  12.827 -0.0005 -0.0075 -0.1354
 8472PP      PP18576   0.971   0.901  10.900 -0.1086  0.0607  0.1576
 8473PP      PP18577   8.722   1.134   8.175 -0.1711  0.0804 -0.0401
 8474PP      PP18578  11.778   3.258   2.463 -0.0987 -0.1250  0.2709
 8475PP      PP18579   3.724   3.760   2.395  0.2157 -0.0363 -0.0217
 8476PP      PP18580   1.721   8.904   3.120  0.0155  0.0142 -0.1834
 8477PP      PP18581  15.062  12.760   1.274  0.0483 -0.2827  0.1957
 8478PP      PP18582   0.552  12.832   1.594  0.0114 -0.2316 -0.0712
 8479PP      PP18583  13.885  15.648   1.950  0.1779  0.0155  0.4173
 8480PP      PP18584   6.345  13.779   3.001 -0.1715 -0.1931  0.1135
 8481PP      PP18585  14.276   2.310   2.599  0.2016  0.2266  0.1196
 8482PP      PP18586   2.882  14.726   8.783  0.2180  0.0439 -0.0538
 8483PP      PP18587   5.949   6.245   9.832 -0.0314 -0.2285  0.1879
 8484PP      PP18588   5.943   3.145   0.892  0.1076  0.0470 -0.0614
 8485PP      PP18589   3.482   2.906   0.214  0.1600  0.0692  0.0406
 8486PP      PP18590   7.658   6.388   8.825  0.1736  0.2170  0.2930
 8487PP      PP18591   0.656  15.017   9.938 -0.2763  0.0939 -0.1509
 8488PP      PP18592   0.048   1.454  12.968 -0.2195  0.0838 -0.2302
 8489PP      PP18593   3.765   8.208   1.445  0.4150  0.1988 -0.0166
 8490PP      PP18594  11.690  10.527   2.945 -0.0057 -0.0190 -0.1431
 8491PP      PP18595   4.690  14.709   7.917  0.4876  0.0139  0.1794
 8492PP      PP18596   7.867   0.435  10.100  0.1841  0.0779 -0.2236
 8493PP      PP18597   3.156   9.490  10.267  0.6109 -0.0041 -0.0290
 8494PP      PP18598   4.622  15.299  10.947  0.2848  0.3818  0.0944
 8495PP      PP18599   5.712  12.023  13.016  0.0435  0.3675  0.2686
 8496PP      PP18600   7.019  15.044   2.464 -0.0380 -0.1790 -0.1048
 8497PP      PP18601  13.470  15.792  13.004  0.1280 -0.0187 -0.3249
 8498PP      PP18602   9.499  10.706  11.262  0.0753  0.0987 -0.4218
 8499PP      PP18603  12.093   6.139  13.228 -0.2729 -0.0068  0.2150
 8500PP      PP18604   5.592   6.175   9.531  0.0024  0.1099  0.1036
 8501PP      PP18605   0.881   1.916   1.571  0.0047 -0.2674 -0.2149
 8502PP      PP18606   6.559   6.303   2.331 -0.0798  0.0798 -0.1467
 8503PP      PP18607   7.993  14.119  12.316 -0.0133 -0.0506 -0.0997
 8504PP      PP18608   1.592   9.470  12.414  0.0306  0.1435  0.2853
 8505PP      PP18609   6.988   3.533   0.398  0.0403  0.1983 -0.1198
 8506PP      PP18610   7.132   2.629  13.346 -0.0834  0.0026  0.1961
 8507PP      PP18611  12.761   8.480   3.182  0.0352  0.0990  0.0822
 8508PP      PP18612   9.185   9.722   3.320  0.1957 -0.0280  0.0361
 8509PP      PP18613   2.560  15.822   3.671 -0.0758  0.5175 -0.0540
 8510PP      PP18614   0.012   9.840  11.026  0.1458 -0.0817  0.0073
 8511PP      PP18615   6.906  10.355  12.297 -0.0443 -0.0342 -0.0149
 8512PP      PP18616   6.296   9.888   0.887 -0.3437 -0.0498 -0.0009
 8513PP      PP18617  15.421   7.512   2.686  0.0790  0.1006 -0.1264
 8514PP      PP18618   0.853   3.954   1.549 -0.1512 -0.2437  0.2345
 8515PP      PP18619   9.968   7.118  13.164 -0.1769  0.1039 -0.0781
 8516PP      PP18620  13.023   5.894   3.429 -0.1262 -0.1357 -0.0564
 8517PP      PP18621   1.266   9.264   1.904  0.3930  0.2291  0.2096
 8518PP      PP18622   3.562   9.046  12.814 -0.0138  0.0112  0.1382
 8519PP      PP18623   3.205   1.660  10.857  0.1636 -0.1633  0.3398
 8520PP      PP18624   3.886   6.623   4.400 -0.0360 -0.2582  0.1110
 8521PP      PP18625   8.657   2.800  13.424 -0.0361  0.0687 -0.0842
 8522PP      PP18626  12.394   1.949   3.713 -0.1383 -0.2001 -0.0908
 8523PP      PP18627   7.193   2.362  11.423  0.0137  0.3994 -0.1264
 8524PP      PP18628  12.306   2.484  10.677 -0.0426 -0.1303 -0.1322
 8525PP      PP18629  13.752  14.704  13.201 -0.0011  0.1217  0.1486
 8526PP      PP18630  12.592  11.531  12.220 -0.0299  0.0487 -0.2202
 8527PP      PP18631  11.050   5.438   9.520 -0.0386 -0.1008  0.1764
 8528PP      PP18632   9.850  13.713   0.100 -0.0371 -0.1014  0.1206
 8529PP      PP18633   8.234  12.287  11.379 -0.2412 -0.1428 -0.0644
 8530PP      PP18634   4.913   8.713   0.870 -0.3453 -0.0977 -0.3113
 8531PP      PP18635  15.189   5.856  12.075  0.5058  0.0730  0.0940
 8532PP      PP18636  15.530   5.014  10.175 -0.1820  0.2138 -0.0192
 8533PP      PP18637  15.820   3.810  11.315 -0.0124  0.1378  0.0896
 8534PP      PP18638   5.515   1.249   9.506  0.3776  0.0801  0.0227
 8535PP      PP18639   6.904  14.478   9.090 -0.0405 -0.0827  0.1701
 8536PP      PP18640   4.996   0.959  10.540 -0.0718 -0.0440  0.2855
 8537PP      PP18641   5.262   8.305  10.611  0.0400  0.0174 -0.1318
 8538PP      PP18642  13.701   8.274   1.589 -0.3526  0.2349  0.0787
 8539PP      PP18643  10.082   3.139   1.518 -0.0403 -0.0567  0.1207
 8540PP      PP18644  15.362  14.856   9.999 -0.0167  0.1439  0.2104
 8541PP      PP18645   3.060  14.065  12.326  0.2739  0.0621 -0.0783
 8542PP      PP18646  13.122  10.877  11.148  0.0146 -0.0332 -0.3644
 8543PP      PP18647  15.061  11.727   0.685  0.0289 -0.1907  0.0005
 8544PP      PP18648  12.200  15.448   2.858 -0.0885 -0.1496  0.1839
 8545PP      PP18649   0.007   4.491   2.635 -0.0839 -0.0135  0.0334
 8546PP      PP18650   1.031  13.454  11.599  0.1290  0.1684  0.1718
 8547PP      PP18651  13.813   7.264   5.263  0.0727  0.0961 -0.1192
 8548PP      PP18652   6.563  15.150   2.645 -0.1432 -0.3287 -0.0763
 8549PP      PP18653   9.754  10.161  10.954 -0.4465 -0.1731 -0.0610
 8550PP      PP18654   4.817  11.405  12.031 -0.2592 -0.0777  0.1983
 8551PP      PP18655  13.031   9.495   9.594 -0.1846 -0.0852 -0.1438
 8552PP      PP18656  11.620   5.723   4.490  0.1740 -0.1771 -0.1389
 8553PP      PP18657   9.607   9.659  12.432  0.0626  0.4309  0.0888
 8554PP      PP18658   8.692   2.120   8.575 -0.1979  0.1561 -0.0758
 8555PP      PP18659  11.064  12.947   2.768 -0.0968  0.2687  0.0549
 8556PP      PP18660   2.680   2.823  12.496  0.1955 -0.3233  0.3932
 8557PP      PP18661   4.089   8.813   3.160  0.0165 -0.1979 -0.1238
 8558PP      PP18662   6.416   0.649   7.327  0.0450  0.4632 -0.0508
 8559PP      PP18663  14.120   9.394   5.404 -0.1219  0.0185 -0.3358
 8560PP      PP18664   7.446  13.213  12.250  0.3368  0.0846  0.3164
 8561PP      PP18665   9.988   8.855  12.860  0.1073  0.2015  0.1767
 8562PP      PP18666   8.963   8.704  11.006 -0.0082 -0.1614  0.0742
 8563PP      PP18667  10.680   6.363   2.883 -0.1422 -0.0308  0.0490
 8564PP      PP18668  12.147   3.126  12.051  0.0162  0.0178  0.2788
 8565PP      PP18669  10.876   5.077  11.351 -0.2069  0.0830 -0.2433
 8566PP      PP18670   9.975   9.151  10.653  0.1336  0.4391  0.0801
 8567PP      PP18671   5.971   2.853   2.660  0.0447  0.1702  0.1351
 8568PP      PP18672   1.013  14.942   2.937 -0.1404 -0.3542  0.1217
 8569PP      PP18673   1.100   1.993  11.911 -0.0357 -0.1069 -0.0562
 8570PP      PP18674   7.135   2.543  12.291  0.3725  0.0955  0.1939
 8571PP      PP18675   4.869   5.271  10.872 -0.0347 -0.2689  0.3476
 8572PP      PP18676  11.394   2.060  11.788 -0.2077  0.0441 -0.0749
 8573PP      PP18677  12.815   6.917   0.144 -0.0100  0.0367  0.3395
 8574PP      PP18678   3.282  15.594   2.081 -0.0951  0.0023 -0.1573
 8575PP      PP18679   0.802  11.458  10.708  0.1917  0.0784 -0.2428
 8576PP      PP18680  12.016   1.173   3.476  0.3735 -0.0729 -0.3489
 8577PP      PP18681   7.183  13.463  10.996  0.1033 -0.1538  0.0688
 8578PP      PP18682  12.403   4.127  11.098 -0.3474 -0.1087  0.3167
 8579PP      PP18683   9.533   1.287  10.679 -0.4011 -0.2109 -0.1884
 8580PP      PP18684  11.537   7.534   9.151 -0.0141  0.0824  0.2253
 8581PP      PP18685  15.332   7.780   1.548  0.0356  0.0087  0.1200
 8582PP      PP18686  14.718   2.944   0.676 -0.2233 -0.0631  0.0819
 8583PP      PP18687   4.402   7.357  10.647  0.2711 -0.0041  0.2464
 8584PP      PP18688  15.203  15.061   2.130  0.0232 -0.0004  0.2242
 8585PP      PP18689   1.223  14.672   9.904 -0.0096  0.1105 -0.2897
 8586PP      PP18690  15.795   4.991   2.452  0.0162  0.2285 -0.0445
 8587PP      PP18691   7.511   7.635  11.110  0.0176 -0.0553 -0.1399
 8588PP      PP18692  10.560  13.773   9.532  0.0548 -0.0146  0.0266
 8589PP      PP18693   7.020   8.537   9.210  0.0243  0.2186 -0.0124
 8590PP      PP18694   5.730   2.855  10.418  0.0461 -0.1578 -0.1088
 8591PP      PP18695  11.899  14.512  11.918 -0.1211 -0.0509  0.0259
 8592PP      PP18696  11.866   3.600  10.416 -0.5360 -0.0264  0.0491
 8593PP      PP18697  15.143   7.910  13.224 -0.0748 -0.2006  0.2964
 8594PP      PP18698  11.851   4.278   0.660 -0.0358  0.0238  0.1962
 8595PP      PP18699   3.339   3.725  13.186  0.0261  0.0419 -0.1145
 8596PP      PP18700  15.039  14.791  11.821  0.0334 -0.1288  0.0767
 8597PP      PP18701   9.531   2.680  11.937  0.2021  0.2957 -0.0586
 8598PP      PP18702  13.372   2.650   1.002 -0.0982  0.1626 -0.2828
 8599PP      PP18703   9.056  10.046   0.900 -0.0215  0.3700 -0.4554
 8600PP      PP18704   0.629  11.622   4.310  0.0564  0.0939  0.4122
 8601PP      PP18705  10.232   5.715   0.205 -0.1368 -0.2793  0.0643
 8602PP      PP18706  12.282  10.599  13.170 -0.0443 -0.2785  0.0416
 8603PP      PP18707   8.897   2.027  12.806 -0.3589 -0.0567 -0.0865
 8604PP      PP18708   0.161  15.253  13.396  0.2307  0.1359  0.0212
 8605PP      PP18709   2.435   2.561   9.434  0.0058 -0.2116 -0.0998
 8606PP      PP18710  14.537   1.439  12.157 -0.2341  0.2571  0.1622
 8607PP      PP18711   8.764   9.257  10.093 -0.1096 -0.0258 -0.0680
 8608PP      PP18712   0.698   6.446   1.494 -0.1368  0.0420 -0.4320
 8609PP      PP18713   5.665  14.712   3.282  0.0480  0.0122  0.2785
 8610PP      PP18714   4.042   1.066  12.693  0.0327  0.0429  0.0762
 8611PP      PP18715  12.557   9.415   2.594 -0.0800 -0.0074  0.2129
 8612PP      PP18716  14.828   0.386  13.058 -0.2925  0.1097 -0.0378
 8613PP      PP18717  12.856   3.492   3.966  0.0383 -0.1355 -0.0803
 8614PP      PP18718  12.545  15.172   8.064 -0.0714  0.3310  0.0571
 8615PP      PP18719   7.314  10.783   2.751 -0.0915 -0.1195 -0.1717
 8616PP      PP18720  11.532   7.666   0.617 -0.0810  0.1315 -0.1110
 8617PP      PP18721   1.334   6.290   3.883  0.3178  0.0182  0.3348
 8618PP      PP18722  12.384   2.790   0.534  0.0050  0.0767  0.0496
 8619PP      PP18723   6.224  14.982  12.084  0.0236  0.1264  0.2008
 8620PP      PP18724   2.904   4.373   2.181 -0.0467 -0.0692 -0.0383
 8621PP      PP18725  13.121  11.524   4.615 -0.2260  0.0056 -0.0346
 8622PP      PP18726   6.667   0.028   1.138  0.3426 -0.1662  0.0041
 8623PP      PP18727   5.035   0.984  13.240  0.0615  0.2206  0.2441
 8624PP      PP18728   8.932   8.777   9.948  0.1311 -0.1239 -0.4738
 8625PP      PP18729  11.947  12.566   3.235 -0.0543 -0.0347  0.1468
 8626PP      PP18730   1.610   7.084  12.208 -0.0583  0.0020 -0.1396
 8627PP      PP18731  11.059  13.249   9.224  0.1419  0.2866 -0.0626
 8628PP      PP18732  13.711  14.138  12.640 -0.1062 -0.0362  0.0071
 8629PP      PP18733  11.419   8.258  11.015  0.0370 -0.1470  0.0262
 8630PP      PP18734   8.724  15.484  12.920 -0.1251 -0.1059  0.0860
 8631PP      PP18735  10.065  11.976  13.138 -0.1456 -0.1006 -0.0216
 8632PP      PP18736   8.809  14.690   0.540 -0.1169 -0.1314  0.0846
 8633PP      PP18737   3.485  12.568  12.248 -0.2464 -0.1212  0.0103
 8634PP      PP18738  10.756   4.904   1.236  0.0785 -0.0517  0.0146
 8635PP      PP18739   3.354   6.899   0.353  0.1157 -0.0444 -0.2974
 8636PP      PP18740   2.505   2.649  10.088 -0.1169  0.3054  0.1284
 8637PP      PP18741  10.587   9.792   1.622  0.4067  0.3288 -0.3609
 8638PP      PP18742   7.948  14.949   9.830  0.0785 -0.4120 -0.1216
 8639PP      PP18743   7.313  14.901  12.780 -0.3547  0.4328 -0.0455
 8640PP      PP18744   9.098   9.671   9.303 -0.0419  0.0937 -0.0455
 8641PP      PP18745   6.606   0.508   0.897  0.3151 -0.0332 -0.1135
 8642PP      PP18746  10.607   1.780  10.701 -0.0899 -0.2511  0.2025
 8643PP      PP18747   5.061   3.142   8.654  0.0232  0.1626  0.2086
 8644PP      PP18748   8.580   0.579  13.446  0.0484  0.4786  0.4391
 8645PP      PP18749   0.307   6.554   3.977 -0.0385  0.1866  0.0789
 8646PP      PP18750   0.098   4.122  12.638 -0.3871 -0.0047  0.1449
 8647PP      PP18751   6.331   3.656  12.345 -0.0140 -0.2267 -0.3629
 8648PP      PP18752   1.688   3.164  11.427 -0.1991  0.1910 -0.1132
 8649PP      PP18753   7.005   6.024   2.283  0.0264  0.3954  0.1673
 8650PP      PP18754   8.909   4.424  10.516  0.3598 -0.0168 -0.0407
 8651PP      PP18755   7.027  11.474   8.930 -0.1209 -0.2427  0.1524
 8652PP      PP18756   3.323  13.444   2.300 -0.2258 -0.0229 -0.0142
 8653PP      PP18757   3.128   5.736   0.884  0.1250 -0.2114 -0.3808
 8654PP      PP18758   7.946   4.928   0.486  0.2342  0.0957  0.2747
 8655PP      PP18759   2.522   0.272   7.966 -0.1424  0.1812  0.1316
 8656PP      PP18760   6.749   4.337   4.622 -0.2685 -0.1715 -0.1364
 8657PP      PP18761   3.440   9.113   9.889 -0.0230  0.0283  0.2413
 8658PP      PP18762   8.139   6.705   3.075  0.0450  0.1138 -0.1028
 8659PP      PP18763   4.709  15.357   3.565  0.1437  0.1384 -0.0306
 8660PP      PP18764   9.710   4.051  12.342 -0.0853 -0.1758  0.1546
 8661PP      PP18765   6.586  15.503  11.039  0.2607 -0.0776 -0.0279
 8662PP      PP18766  14.908   3.276   1.019  0.3575  0.0948  0.1103
 8663PP      PP18767   3.586   4.106   2.952 -0.2066  0.1518  0.0844
 8664PP      PP18768   5.564   3.113   3.840  0.1282 -0.0527 -0.0899
 8665PP      PP18769   2.050   3.558   0.387  0.0393 -0.3131  0.2181
 8666PP      PP18770  13.605   2.262   9.964  0.0573  0.0836 -0.2698
 8667PP      PP18771   2.325   6.921  13.383 -0.1134 -0.0137  0.1430
 8668PP      PP18772  15.068   5.102   3.779  0.2445 -0.3357 -0.1320
 8669PP      PP18773  15.148  14.111   3.798 -0.2091  0.1625  0.0082
 8670PP      PP18774   1.631   4.932   4.288  0.0027 -0.1527 -0.2094
 8671PP      PP18775  10.247   5.231   8.793  0.2149 -0.0606  0.3389
 8672PP      PP18776  12.971   3.183   3.114  0.3364  0.2641  0.0259
 8673PP      PP18777   0.968   7.403   4.747 -0.0159 -0.0269  0.3670
 8674PP      PP18778   4.829   7.439   1.683 -0.1637 -0.1316  0.1594
 8675PP      PP18779   1.649   4.587  12.556  0.0433 -0.0616 -0.2728
 8676PP      PP18780  11.479  12.514  13.276 -0.2489  0.3600 -0.1447
 8677PP      PP18781   2.405   2.669   1.752  0.2892 -0.2093 -0.0489
 8678PP      PP18782  11.209   1.855  10.044  0.1205 -0.2432 -0.0710
 8679PP      PP18783   5.667   1.941   1.929  0.0866 -0.0917 -0.0040
 8680PP      PP18784   1.268   6.801  12.422 -0.2258  0.0855 -0.1727
 8681PP      PP18785  10.955   2.182   8.986  0.3957 -0.2583 -0.0921
 8682PP      PP18786   4.719  15.290   8.597  0.0862 -0.2110  0.2569
 8683PP      PP18787   7.607  15.378   1.548 -0.1232 -0.1578  0.1279
 8684PP      PP18788  10.996   3.993  10.442  0.0937  0.0093  0.1680
 8685PP      PP18789  12.851  11.965   4.105  0.1927  0.1399  0.1352
 8686PP      PP18790  15.388   7.271  12.474  0.2515  0.0543 -0.1198
 8687PP      PP18791   9.642  15.397  11.128  0.0628  0.3683  0.0294
 8688PP      PP18792  13.622   8.379   4.559 -0.1082  0.2521 -0.2630
 8689PP      PP18793  10.854   5.959   3.907  0.1297  0.2160  0.0524
 8690PP      PP18794   8.831   1.182   0.188  0.1868  0.2253 -0.2029
 8691PP      PP18795  12.574  13.652   0.571  0.0261 -0.1005 -0.1109
 8692PP      PP18796   0.054  11.680  12.745 -0.0923 -0.0742 -0.1736
 8693PP      PP18797   9.409   6.389   0.654  0.0278 -0.1141  0.2364
 8694PP      PP18798  10.280  12.235  12.126  0.0319 -0.0382  0.0326
 8695PP      PP18799  14.608  12.502   1.705  0.0610 -0.2861  0.2654
 8696PP      PP18800   6.573  12.427  11.296 -0.0593  0.2408  0.0449
 8697PP      PP18801  10.062   3.680   1.713 -0.1654 -0.1135 -0.1475
 8698PP      PP18802  12.156   8.337   1.836  0.1077 -0.0649 -0.1011
 8699PP      PP18803  13.003   1.247  10.722 -0.0344 -0.3446 -0.0541
 8700PP      PP18804   2.740  10.224  11.617  0.1014 -0.2123  0.0391
 8701PP      PP18805  13.590   9.037   9.301  0.5096 -0.0501  0.1354
 8702PP      PP18806   2.816   0.550  11.781  0.0413 -0.0372  0.0332
 8703PP      PP18807  11.081   0.282   2.205  0.0626  0.1104 -0.0421
 8704PP      PP18808  12.581   6.058  11.004 -0.1563  0.0729  0.0914
 8705PP      PP18809  10.971   6.487   0.696  0.4107 -0.1282 -0.0942
 8706PP      PP18810  14.227   7.591   2.880  0.1899 -0.3300  0.1696
 8707PP      PP18811   6.736   7.829  12.620 -0.1319  0.1300  0.0854
 8708PP      PP18812   6.267   1.025   9.343 -0.0812 -0.0583  0.2355
 8709PP      PP18813   7.068   7.827   2.420 -0.0676  0.4065  0.0629
 8710PP      PP18814  15.295   1.795   3.345 -0.0955  0.1181 -0.1969
 8711PP      PP18815  13.651   2.006   0.892  0.0650 -0.0955  0.0169
 8712PP      PP18816  10.211  15.241   4.129  0.0396  0.0228  0.1344
 8713PP      PP18817   5.053   5.520  11.672  0.0528  0.3139  0.1530
 8714PP      PP18818   1.003   8.389   3.731 -0.2200  0.0401 -0.0229
 8715PP      PP18819  10.212   4.862   1.301 -0.2108  0.3648  0.2083
 8716PP      PP18820   0.919   8.145  12.034  0.0802  0.0408 -0.2984
 8717PP      PP18821   4.932   7.230   0.191  0.3187  0.3242 -0.1701
 8718PP      PP18822   4.404  14.133  11.540 -0.3016 -0.0593 -0.2203
 8719PP      PP18823   9.289  10.384   4.576  0.0752  0.1311 -0.2403
 8720PP      PP18824  11.369   0.281   4.412 -0.1031  0.1469  0.0210
 8721PP      PP18825  15.689  14.943   1.821  0.1255 -0.0152  0.0297
 8722PP      PP18826  11.718   7.551   4.647 -0.0229 -0.0049 -0.0424
 8723PP      PP18827  10.836   8.755  12.623  0.3887  0.2011  0.1642
 8724PP      PP18828   2.439  14.273   8.891  0.0261  0.3061 -0.1493
 8725PP      PP18829   2.968   5.562   2.573 -0.2268  0.0560  0.1261
 8726PP      PP18830   2.441  11.356   3.333  0.1226 -0.0303  0.1205
 8727PP      PP18831   2.618   8.377   4.162 -0.1340 -0.0169 -0.0330
 8728PP      PP18832   1.649   5.234  11.645  0.2294 -0.2408  0.1447
 8729PP      PP18833   6.648  12.616   2.477 -0.0469  0.0814  0.3152
 8730PP      PP18834  13.493  10.376   1.037 -0.1531 -0.2070  0.1408
 8731PP      PP18835   3.915  15.452  11.343 -0.0740  0.0487  0.1936
 8732PP      PP18836  15.160   5.111   1.747 -0.2361  0.1336 -0.0821
 8733PP      PP18837  11.957  10.271  12.425 -0.0580 -0.1563  0.1905
 8734PP      PP18838  14.227   4.050  10.565  0.0046  0.0729  0.3163
 8735PP      PP18839  10.930   4.812   9.286  0.1698  0.0285 -0.0995
 8736PP      PP18840   9.278  14.331  10.513 -0.0834 -0.0317 -0.1723
 8737PP      PP18841  10.787  12.345   2.815  0.0678 -0.0849 -0.0394
 8738PP      PP18842  11.517   5.936  13.228 -0.1894 -0.1442 -0.2221
 8739PP      PP18843  14.556  10.471   0.298 -0.2505  0.4280 -0.2494
 8740PP      PP18844  12.731   1.775  10.932  0.0681 -0.0955 -0.2177
 8741PP      PP18845   5.651   1.157  10.026 -0.2781 -0.1174  0.3827
 8742PP      PP18846  13.048   3.418  11.565  0.1211  0.3112 -0.2550
 8743PP      PP18847   9.088   2.276   9.767  0.0688 -0.2717 -0.2681
 8744PP      PP18848  14.872  12.731   0.322  0.0800  0.6164  0.0218
 8745PP      PP18849   9.233   0.045   2.322  0.1548 -0.1036  0.0787
 8746PP      PP18850   0.944  11.262   1.020 -0.0418 -0.0476  0.2871
 8747PP      PP18851   1.651   4.105   2.475 -0.0250 -0.3006  0.1173
 8748PP      PP18852  13.315   9.524   4.945  0.3197 -0.1391  0.3569
 8749PP      PP18853  15.526  15.432  13.244 -0.0063 -0.3694 -0.0085
 8750PP      PP18854  13.540   8.282  13.360  0.0894  0.1198 -0.0374
 8751PP      PP18855   4.851   1.756  12.784  0.2330  0.0386 -0.0937
 8752PP      PP18856   6.274   2.433   9.198  0.0787 -0.0031 -0.2810
 8753PP      PP18857   2.932  12.144   3.587  0.0181  0.0241  0.0964
 8754PP      PP18858   7.113  12.186  11.202  0.1163 -0.0022 -0.0316
 8755PP      PP18859  10.912   5.241   2.346  0.1758  0.1434 -0.1136
 8756PP      PP18860   7.481   8.016   3.163 -0.0531  0.3095 -0.3643
 8757PP      PP18861   7.035  12.763   9.040  0.3903  0.0929  0.1461
 8758PP      PP18862   2.913  13.494  10.625 -0.2486  0.0623  0.2397
 8759PP      PP18863   0.308   9.937   3.714  0.0877  0.0595 -0.3676
 8760PP      PP18864   2.572  10.167   2.706  0.4072 -0.1237  0.0756
 8761PP      PP18865   1.748   3.890   1.061 -0.0276  0.0175  0.4513
 8762PP      PP18866   8.525   5.890  13.008  0.1485 -0.0064 -0.0002
 8763PP      PP18867   9.169   8.296   9.821  0.0624 -0.2201  0.1693
 8764PP      PP18868   0.349   5.367   2.535  0.1509  0.1373  0.2424
 8765PP      PP18869  13.829  13.253  10.404  0.1538 -0.0827  0.0800
 8766PP      PP18870   9.551  13.904  12.114 -0.1625 -0.2912 -0.3858
 8767PP      PP18871   9.190   5.009   3.574  0.1815 -0.1563  0.1126
 8768PP      PP18872  15.357  12.554   1.597 -0.0059 -0.1178 -0.1072
 8769PP      PP18873  15.510  15.035   0.245  0.0505  0.2219  0.1090
 8770PP      PP18874   9.972   2.513   1.651 -0.3626  0.0678 -0.0290
 8771PP      PP18875   8.150   5.313   1.207 -0.0903 -0.3525  0.0352
 8772PP      PP18876  10.518  14.845   0.192 -0.3398 -0.2535  0.1021
 8773PP      PP18877  14.037   3.504  11.687 -0.0840 -0.0512 -0.1003
 8774PP      PP18878   5.274  15.583  10.308 -0.0453 -0.0000  0.0152
 8775PP      PP18879   5.408   6.163   0.673  0.2543  0.2752 -0.2901
 8776PP      PP18880  10.039  12.422  11.745 -0.1922  0.3540  0.2082
 8777PP      PP18881  14.094  13.710   1.283  0.1446  0.0645 -0.0435
 8778PP      PP18882  15.173   7.737   9.668 -0.2269  0.3086 -0.0610
 8779PP      PP18883   0.493   6.837   3.566 -0.1655  0.2023 -0.1854
 8780PP      PP18884   2.333   0.100  13.084 -0.0938 -0.3458 -0.0275
 8781PP      PP18885   2.292   5.940   3.819 -0.2547 -0.1126 -0.0536
 8782PP      PP18886   6.406   2.858  11.481 -0.0797  0.2564  0.0333
 8783PP      PP18887   7.616   8.011  12.563  0.0138 -0.2057  0.1809
 8784PP      PP18888   7.324   0.731  12.946 -0.1866 -0.0889  0.2046
 8785PP      PP18889   2.229   6.619  10.053 -0.2964 -0.3489  0.0617
 8786PP      PP18890  11.488   5.603   0.927 -0.1007  0.1658 -0.0246
 8787PP      PP18891   5.440   8.608   1.230 -0.1715 -0.0863  0.0989
 8788PP      PP18892  11.177  12.265   3.123 -0.2415 -0.1073 -0.1789
 8789PP      PP18893   2.558  13.626   2.400  0.0310 -0.1044 -0.2711
 8790PP      PP18894   3.514  11.342   1.636  0.1656 -0.1619  0.3694
 8791PP      PP18895  13.068  13.398   9.887  0.0878 -0.2367 -0.3242
 8792PP      PP18896  10.015   4.318   3.974 -0.3950  0.1821  0.0090
 8793PP      PP18897  15.434   0.669   2.664 -0.1703  0.2069 -0.1959
 8794PP      PP18898  15.032   7.987   2.649  0.0834  0.1050  0.3039
 8795PP      PP18899  15.449   3.154   8.929 -0.2928 -0.0229  0.2282
 8796PP      PP18900   8.892   8.897  11.552 -0.0905 -0.5016  0.2331
 8797PP      PP18901  15.235  15.435   0.564  0.1261 -0.0890 -0.1622
 8798PP      PP18902  14.020   6.887   1.966  0.1648 -0.3751  0.0737
 8799PP      PP18903   8.740  11.703  12.739  0.1526  0.0556  0.0109
 8800PP      PP18904   3.295   1.172  10.795 -0.0275  0.2688 -0.1118
 8801PP      PP18905   1.007  15.647  12.862 -0.1735  0.3663 -0.0899
 8802PP      PP18906  12.277   0.029   3.313  0.2649  0.0103  0.0151
 8803PP      PP18907  11.572   6.547   2.887 -0.1147 -0.0154 -0.1296
 8804PP      PP18908   6.373   0.480  12.718 -0.3086  0.2301 -0.2687
 8805PP      PP18909   0.507  10.343   0.745 -0.3692  0.2343 -0.1751
 8806PP      PP18910  15.258   2.010   8.413  0.0026  0.0425  0.0683
 8807PP      PP18911   8.266   4.557   9.617  0.0681 -0.2044  0.0293
 8808PP      PP18912   7.225  15.606  11.640 -0.1471  0.0213  0.0953
 8809PP      PP18913   0.600  10.483  12.910 -0.0008  0.0564 -0.2345
 8810PP      PP18914   8.945   1.102   8.723 -0.1709  0.0603  0.1301
 8811PP      PP18915  11.707   9.943  13.215 -0.1918 -0.2303  0.0247
 8812PP      PP18916   4.872  11.428   3.549 -0.2309 -0.0709  0.0766
 8813PP      PP18917   1.634  12.555   4.173  0.0773  0.0782 -0.2833
 8814PP      PP18918   6.387  10.790  11.645  0.1401  0.1918  0.2256
 8815PP      PP18919  15.713   0.212  10.834  0.1123 -0.0327  0.2363
 8816PP      PP18920   6.610   8.754   3.768 -0.0111  0.2409  0.0755
 8817PP      PP18921   0.314   8.734  13.286 -0.2856 -0.1794  0.0499
 8818PP      PP18922   4.182   9.621   4.137 -0.0770 -0.0146  0.0428
 8819PP      PP18923  14.284   5.916   1.809  0.3062 -0.0257  0.0690
 8820PP      PP18924   6.329  13.970  10.457 -0.0085 -0.2902 -0.0419
 8821PP      PP18925   8.969   8.848   1.094  0.0329 -0.2909 -0.2866
 8822PP      PP18926  13.885   2.466   1.012  0.1219  0.2346 -0.0567
 8823PP      PP18927   2.468   7.383  10.942  0.1248  0.0629 -0.0512
 8824PP      PP18928   7.109   2.678  10.855 -0.1524  0.0835  0.1378
 8825PP      PP18929  13.998   8.909   4.118  0.0046  0.1345  0.2434
 8826PP      PP18930  10.084   1.842   0.538 -0.2635  0.0996 -0.2031
 8827PP      PP18931   9.748   7.559  13.335 -0.2561  0.0902  0.0002
 8828PP      PP18932  15.079   6.731   3.831  0.0016 -0.1820  0.0511
 8829PP      PP18933   3.238  10.224   2.484 -0.0438  0.1865 -0.3684
 8830PP      PP18934   9.052   9.963  10.938 -0.2124 -0.3560  0.3393
 8831PP      PP18935   3.586   2.437   1.066  0.3658  0.1642 -0.1161
 8832PP      PP18936  10.844   9.717  12.104 -0.2701  0.1975 -0.1117
 8833PP      PP18937   6.492   0.981   1.944  0.2296 -0.1766  0.0779
 8834PP      PP18938   3.797  12.095   1.653  0.1466 -0.3674  0.0914
 8835PP      PP18939   3.747   6.936  11.972 -0.0795 -0.1026 -0.1558
 8836PP      PP18940  11.438  14.589  10.032 -0.4549 -0.1219  0.2295
 8837PP      PP18941  14.980  10.484  11.981 -0.0990 -0.2144  0.1813
 8838PP      PP18942  13.235   2.767  10.218  0.0269 -0.2125 -0.0235
 8839PP      PP18943  13.898   3.468  10.449  0.0075  0.3988  0.0967
 8840PP      PP18944   1.572  11.474  11.672 -0.3520  0.0588 -0.0545
 8841PP      PP18945  11.126   5.307  12.774  0.0548  0.1244 -0.2349
 8842PP      PP18946  10.821  10.612   0.971  0.0380  0.2347  0.5693
 8843PP      PP18947  14.980   0.939   9.565 -0.1085  0.0287 -0.0290
 8844PP      PP18948   1.598   6.445   5.628 -0.1329 -0.4548  0.2421
 8845PP      PP18949  15.019   1.306   3.504  0.0314 -0.2437  0.0315
 8846PP      PP18950  14.752  13.794   4.104  0.0100 -0.0489  0.0973
 8847PP      PP18951   7.700   7.691   8.656 -0.1218 -0.1588 -0.0083
 8848PP      PP18952  14.239  12.199  12.296  0.0886  0.0617 -0.0490
 8849PP      PP18953   5.913   1.043  10.442  0.0716 -0.0804  0.1355
 8850PP      PP18954  11.627   5.971   9.059  0.2806 -0.1414 -0.2621
 8851PP      PP18955  12.688   0.997  11.382  0.0667 -0.0889  0.1296
 8852PP      PP18956  12.139   6.865   1.793 -0.2241  0.2616 -0.1228
 8853PP      PP18957   7.982  12.729   0.966  0.1492 -0.0423 -0.0321
 8854PP      PP18958   3.725   1.001   2.062 -0.2479  0.1659 -0.0685
 8855PP      PP18959   2.744  15.296   2.919  0.2119 -0.0485 -0.1455
 8856PP      PP18960   6.108   2.967  12.328 -0.2205  0.2237  0.0578
 8857PP      PP18961   0.288   3.967   2.100  0.0982 -0.2354  0.0297
 8858PP      PP18962   6.666  14.029  11.401 -0.1768  0.3225  0.0747
 8859PP      PP18963  14.297   1.152   3.857  0.1154 -0.1600  0.0589
 8860PP      PP18964  10.399  13.133   1.862 -0.3542 -0.1229  0.0127
 8861PP      PP18965  14.639  11.771  11.536 -0.1156  0.1147 -0.1398
 8862PP      PP18966   8.671  11.898   1.853 -0.2151  0.0021  0.1617
 8863PP      PP18967  11.779   7.115   1.473 -0.0959 -0.4242  0.0521
 8864PP      PP18968  11.277   1.358   8.912  0.2471  0.1167 -0.1782
 8865PP      PP18969  13.390  11.978   1.062  0.2842 -0.2519 -0.4425
 8866PP      PP18970  14.250  12.095  12.826 -0.0429  0.1190  0.2010
 8867PP      PP18971  10.857   3.555   8.843 -0.0552 -0.0647 -0.4309
 8868PP      PP18972   7.488  14.192   2.265  0.1264 -0.3649 -0.2457
 8869PP      PP18973   3.974   7.332  10.295 -0.1204  0.1361  0.0243
 8870PP      PP18974   9.746   7.780   2.732  0.1044 -0.0727  0.1144
 8871PP      PP18975   5.989   8.514   9.379  0.1501  0.0695  0.1169
 8872PP      PP18976  14.655   7.329   1.824 -0.0456 -0.2223  0.1192
 8873PP      PP18977   8.657   6.923   2.236 -0.1848  0.2876 -0.1234
 8874PP      PP18978   5.758   6.343   4.684 -0.0710 -0.1105 -0.3060
 8875PP      PP18979   8.609   1.008   2.493  0.2578  0.0414  0.2264
 8876PP      PP18980   4.542  11.406   4.024  0.0984 -0.0117 -0.0453
 8877PP      PP18981  10.415   4.203   3.641  0.1214 -0.0004 -0.0892
 8878PP      PP18982   1.490   2.329   9.687  0.1975 -0.0183 -0.1130
 8879PP      PP18983   4.072   6.907   5.213  0.1009  0.0849 -0.2018
 8880PP      PP18984   8.341   6.933   2.667 -0.0218 -0.0221  0.2275
 8881PP      PP18985   6.251   2.831  10.411  0.1727 -0.1243 -0.2225
 8882PP      PP18986   1.816   6.406  13.425  0.2415 -0.1257 -0.1284
 8883PP      PP18987   1.748  15.307  12.312  0.1560  0.1309 -0.1243
 8884PP      PP18988   7.613   3.093   0.909 -0.5494 -0.0765 -0.1587
 8885PP      PP18989   5.640  12.845   9.714 -0.1572 -0.1425  0.0787
 8886PP      PP18990   7.702  10.089   3.663  0.1285  0.1566  0.2067
 8887PP      PP18991  14.670   0.175   3.881  0.0559  0.1882 -0.3372
 8888PP      PP18992  10.681   8.715   0.314  0.1961 -0.1030 -0.0050
 8889PP      PP18993  15.104  11.112   3.268 -0.4029  0.0869 -0.1344
 8890PP      PP18994   2.172   6.437   4.170 -0.2986  0.0378 -0.2123
 8891PP      PP18995   1.012   3.941  13.273  0.0386  0.2369  0.3454
 8892PP      PP18996   3.743  10.037   5.452  0.0312  0.0625  0.0268
 8893PP      PP18997  15.145  13.700  12.344 -0.0193 -0.2126  0.0377
 8894PP      PP18998   2.750   3.237   0.372 -0.2713  0.6110 -0.4687
 8895PP      PP18999   0.899   4.259  11.481  0.1244  0.0249  0.0436
 8896PP      PP19000  12.980   2.883  12.443 -0.1189 -0.0197 -0.4141
 8897PP      PP19001   6.278  13.839   8.864  0.1842  0.1891  0.1156
 8898PP      PP19002   2.707   8.924  12.162 -0.0070  0.2776  0.2027
 8899PP      PP19003   6.479   0.008  10.258 -0.0230  0.0892  0.1694
 8900PP      PP19004   7.255  12.726   3.097 -0.1669  0.1216 -0.1749
 8901PP      PP19005   9.835  15.527   4.051 -0.1466  0.1327 -0.0695
 8902PP      PP19006  15.296   2.136  13.151 -0.1270  0.0987 -0.1464
 8903PP      PP19007  13.517   5.048   4.729 -0.1891 -0.3517  0.2553
 8904PP      PP19008   4.585   0.354   0.870 -0.1932  0.1107 -0.1062
 8905PP      PP19009   6.347   3.648   3.126 -0.0546 -0.0748  0.0689
 8906PP      PP19010  11.970  13.076  13.002  0.0210 -0.3627  0.4228
 8907PP      PP19011   1.231  14.897  13.050 -0.0079 -0.2024 -0.1681
 8908PP      PP19012   9.157  13.119   9.742 -0.0418 -0.1317  0.0816
 8909PP      PP19013  10.323   2.943   0.829 -0.3264  0.2421  0.0536
 8910PP      PP19014   6.268  13.166  11.259 -0.0243 -0.1056  0.1032
 8911PP      PP19015   2.522   0.981   1.678 -0.2482  0.1253  0.5096
 8912PP      PP19016   2.872  15.676   3.301  0.3081  0.5353  0.0539
 8913PP      PP19017   8.226  13.050  13.343  0.1664  0.1058 -0.3387
 8914PP      PP19018   4.664  13.504   4.002  0.1793  0.1180  0.0730
 8915PP      PP19019   1.698   2.520  10.372  0.1104  0.0991 -0.0195
 8916PP      PP19020  14.352  15.397   3.875  0.0224 -0.0733  0.2964
 8917PP      PP19021  14.057   0.700  12.698  0.0905 -0.0375  0.3193
 8918PP      PP19022   7.355  11.931   0.448  0.5416  0.0664  0.1956
 8919PP      PP19023   7.254   3.155   8.528  0.1564  0.2536 -0.1140
 8920PP      PP19024   9.462  15.591   9.782  0.0148 -0.0692  0.2367
 8921PP      PP19025   2.367  14.446  12.855 -0.1779  0.3511  0.0269
 8922PP      PP19026   3.735   3.247   0.558 -0.3160  0.2472  0.1927
 8923PP      PP19027   9.288  12.433  11.043 -0.2058  0.1534 -0.0676
 8924PP      PP19028   0.933   2.732   8.773 -0.0421  0.2110  0.0870
 8925PP      PP19029  12.641  14.844  11.164 -0.2583 -0.0030  0.1776
 8926PP      PP19030   0.325  13.996  12.417  0.1081 -0.0630 -0.1011
 8927PP      PP19031   2.848  13.716  13.200  0.1012 -0.1213 -0.0559
 8928PP      PP19032   8.553  11.265   3.808  0.1384  0.0461 -0.0223
 8929PP      PP19033  14.066  15.078  13.355  0.2707 -0.1443  0.2795
 8930PP      PP19034   3.574   2.659   1.546 -0.1049  0.2196  0.1641
 8931PP      PP19035  10.803   9.856  11.506 -0.2270 -0.0384  0.1993
 8932PP      PP19036   6.506  11.352   9.950 -0.2239 -0.2783  0.0534
 8933PP      PP19037  14.752  14.144  12.262  0.1594 -0.1658 -0.3226
 8934PP      PP19038  12.002  10.157   0.788  0.1633  0.3268  0.3174
 8935PP      PP19039   2.249   9.461   3.340 -0.0581 -0.2497 -0.3005
 8936PP      PP19040  13.961   2.010   3.614 -0.2979 -0.0225 -0.0013
 8937PP      PP19041   7.956   7.244   1.526  0.3702  0.1482  0.0142
 8938PP      PP19042   0.745  13.745   9.748 -0.1098  0.3356 -0.1074
 8939PP      PP19043   9.516   7.153  10.349 -0.1685 -0.3771 -0.1197
 8940PP      PP19044   6.670   5.679   3.130  0.0467  0.3321 -0.1000
 8941PP      PP19045   9.379  13.417   3.762 -0.1727 -0.0127 -0.0485
 8942PP      PP19046   6.072   1.812   0.243 -0.1978  0.0473 -0.1988
 8943PP      PP19047  12.737   2.293   1.896 -0.0732  0.0596  0.4494
 8944PP      PP19048  10.803  15.024  12.859  0.0376 -0.1272  0.1771
 8945PP      PP19049  15.133   9.779   1.023  0.2797 -0.1588  0.0122
 8946PP      PP19050   9.759  13.944   1.166 -0.2336 -0.2589 -0.2461
 8947PP      PP19051   3.331   1.645   9.394 -0.1812  0.1637  0.0686
 8948PP      PP19052   9.327   9.034  10.523 -0.2892  0.1858 -0.0694
 8949PP      PP19053   1.130   7.532  10.970  0.1272  0.2683  0.2556
 8950PP      PP19054   1.573  13.371  11.788 -0.2382  0.1212  0.0284
 8951PP      PP19055   2.300   8.979   9.911  0.0827 -0.1933 -0.0323
 8952PP      PP19056  11.631   0.451   5.120 -0.0640  0.1420  0.1511
 8953PP      PP19057   6.294   9.140   8.951 -0.2579 -0.0628  0.1426
 8954PP      PP19058  11.890   5.794  10.365  0.0630 -0.0394  0.1121
 8955PP      PP19059   3.237   0.654   9.222  0.0764  0.0985 -0.2222
 8956PP      PP19060   9.422   2.252   8.452 -0.1115 -0.2163  0.0327
 8957PP      PP19061   2.930   3.174  10.790 -0.0240 -0.2104 -0.0966
 8958PP      PP19062   3.810   1.949   2.405 -0.1771 -0.0709 -0.0349
 8959PP      PP19063   3.050   8.702   9.894 -0.0084  0.0970 -0.0280
 8960PP      PP19064   2.916  10.905   3.684 -0.0209 -0.0524 -0.0645
 8961PP      PP19065  13.161   7.968   3.976  0.0507 -0.0555  0.0348
 8962PP      PP19066   5.360  15.479   9.832  0.0501 -0.2843  0.2081
 8963PP      PP19067   8.414   5.382  11.897 -0.0166  0.1615  0.4722
 8964PP      PP19068   6.293  15.130  11.597 -0.1534 -0.0468  0.0377
 8965PP      PP19069   0.857   9.624  13.108  0.2907 -0.0768  0.0723
 8966PP      PP19070  14.696   4.695   0.112 -0.1934  0.1630 -0.1664
 8967PP      PP19071   0.790   1.882   9.061  0.0384  0.0031  0.0681
 8968PP      PP19072  11.197   5.407   8.621  0.2058  0.0358 -0.0654
 8969PP      PP19073   9.543   3.230   8.382 -0.4357  0.1846  0.0009
 8970PP      PP19074  15.483   7.489   1.112 -0.0940  0.0155  0.1070
 8971PP      PP19075   2.777   4.052  13.342 -0.0798  0.1090 -0.2993
 8972PP      PP19076   7.479   0.505  13.438 -0.1186  0.1701 -0.1881
 8973PP      PP19077   1.238   6.270   3.173  0.1290 -0.2890  0.1927
 8974PP      PP19078  12.590   0.017  11.443  0.0154  0.0652 -0.0605
 8975PP      PP19079   4.734  14.649   8.484  0.1064 -0.1072 -0.0651
 8976PP      PP19080   1.574   7.305   4.173  0.1598 -0.1456  0.0810
 8977PP      PP19081   5.576  15.191   7.479 -0.1655  0.1453 -0.0898
 8978PP      PP19082  13.272  10.856   3.466 -0.1546  0.3170  0.0425
 8979PP      PP19083  10.568   0.390  12.839  0.0908 -0.0091 -0.0701
 8980PP      PP19084   9.875   1.602   4.124  0.4855 -0.0061  0.1793
 8981PP      PP19085   4.905  11.135   1.945  0.0449 -0.2915  0.1056
 8982PP      PP19086  13.224   8.332  11.260  0.1386 -0.2297  0.4579
 8983PP      PP19087  11.228   7.316   0.365  0.3235 -0.1416 -0.0998
 8984PP      PP19088   4.775   2.698  12.653 -0.1465 -0.2340  0.0129
 8985PP      PP19089   3.490   6.696   2.672 -0.0625  0.0421  0.4721
 8986PP      PP19090   8.845   7.861   0.319 -0.1355  0.1580  0.2753
 8987PP      PP19091  11.136   7.442  12.536 -0.2848 -0.3800 -0.1519
 8988PP      PP19092  14.351  10.312   9.702 -0.0147  0.1121 -0.1028
 8989PP      PP19093   8.286  13.723   3.136  0.0345 -0.4446  0.0084
 8990PP      PP19094  13.960  11.925  10.250 -0.0186  0.1520 -0.2523
 8991PP      PP19095   1.800   4.304   4.365 -0.0532  0.3698 -0.2679
 8992PP      PP19096  10.646  15.610   3.286 -0.2284  0.0295 -0.0089
 8993PP      PP19097   9.662   0.318   2.628 -0.0013  0.2980  0.2666
 8994PP      PP19098   6.497  11.835  10.406 -0.4658  0.0587  0.0719
 8995PP      PP19099   2.994   2.376  10.060  0.0934 -0.1160  0.0265
 8996PP      PP19100   3.506   8.301  11.982  0.2147  0.1600  0.0512
 8997PP      PP19101   7.418   3.983  10.758  0.0987 -0.1859  0.0263
 8998PP      PP19102   0.610   8.327   2.950 -0.1237  0.0134 -0.2095
 8999PP      PP19103   6.224  13.710   1.171  0.2752  0.3187  0.2110
 9000PP      PP19104   3.684   4.824  13.200 -0.0169  0.0057 -0.0496
 9001PP      PP19105  11.648  13.323   0.130  0.1306 -0.0370  0.0295
 9002PP      PP19106   3.049  11.768  12.719  0.4115  0.2210  0.2269
 9003PP      PP19107  14.593   1.884   8.496 -0.0774  0.0347 -0.2023
 9004PP      PP19108  10.162   5.955   2.142 -0.1744  0.1451  0.1846
 9005PP      PP19109   6.254   1.138   2.394 -0.0179 -0.2142  0.0951
 9006PP      PP19110   5.048   5.384   2.664  0.3683 -0.0746 -0.1161
 9007PP      PP19111  10.665  13.662   3.518 -0.1829  0.2510 -0.0255
 9008PP      PP19112  13.338   1.928  10.266 -0.2194 -0.1548  0.2526
 9009PP      PP19113   0.711   2.332   3.481 -0.2885 -0.1677  0.0906
 9010PP      PP19114   9.208  11.096   3.388 -0.0267  0.2018  0.0887
 9011PP      PP19115   4.588  14.421  10.311  0.1491  0.3891  0.0313
 9012PP      PP19116   6.430  13.689   9.303  0.1300 -0.0175 -0.0042
 9013PP      PP19117   9.308   4.013  13.142 -0.0416  0.0894 -0.0644
 9014PP      PP19118  13.208   5.079   3.662  0.2457  0.1704 -0.2240
 9015PP      PP19119   8.776  10.167  12.412 -0.1265 -0.0083  0.0809
 9016PP      PP19120  14.977  12.207  10.387 -0.0202  0.0030  0.2761
 9017PP      PP19121  13.005   4.880  11.301 -0.3697 -0.1214  0.3725
 9018PP      PP19122  14.440   7.190  11.436 -0.1177 -0.1828  0.2770
 9019PP      PP19123   8.657   5.751   9.316 -0.3009  0.0326 -0.5057
 9020PP      PP19124   5.779   9.510   2.926  0.0993 -0.0725 -0.3135
 9021PP      PP19125  10.799   2.718   9.822 -0.1684 -0.1794 -0.1453
 9022PP      PP19126   4.048   7.394  11.968  0.0596  0.1662  0.1505
 9023PP      PP19127   6.777   4.129  11.629 -0.2275 -0.2597  0.1447
 9024PP      PP19128  11.927   2.085   0.435  0.1226  0.0107  0.0074
 9025PP      PP19129  10.128   0.224   8.692  0.0273  0.1903  0.1882
 9026PP      PP19130   9.374  12.001   4.418  0.1489  0.1990  0.1656
 9027PP      PP19131   5.266   4.422   1.684  0.3696 -0.1373  0.0327
 9028PP      PP19132   7.678   9.723   0.854  0.0212  0.1036  0.0293
 9029PP      PP19133  12.260   7.360  11.006 -0.1175  0.0020  0.0382
 9030PP      PP19134   7.926  12.629  10.520 -0.0386 -0.3952  0.0246
 9031PP      PP19135   8.599   1.970   1.444 -0.0408 -0.0259  0.2376
 9032PP      PP19136  11.031   3.509  11.487  0.0079  0.0418 -0.0503
 9033PP      PP19137   9.380   6.368  11.862 -0.1284 -0.0143  0.1298
 9034PP      PP19138   7.942  13.297  12.302 -0.1788 -0.0714 -0.2483
 9035PP      PP19139  11.997   0.828   2.227  0.2485  0.0055  0.0945
 9036PP      PP19140  14.059   1.232   2.100 -0.1278 -0.1458  0.2833
 9037PP      PP19141  10.355  14.296  12.744  0.1479 -0.2082  0.1881
 9038PP      PP19142  13.014  13.013  12.452 -0.1194  0.2061 -0.3605
 9039PP      PP19143   2.259   3.178   0.137  0.5895  0.0518  0.2788
 9040PP      PP19144   5.020   7.709  11.483  0.0560  0.1359  0.3886
 9041PP      PP19145   7.448   8.259   9.136  0.2377  0.3693 -0.1342
 9042PP      PP19146  14.708   0.878  10.026  0.0178 -0.0007 -0.2755
 9043PP      PP19147  14.753   4.236   2.350 -0.1646  0.1261  0.0672
 9044PP      PP19148  14.039   4.241   2.085  0.0122 -0.0598 -0.0686
 9045PP      PP19149  13.016   2.583   3.762  0.0611  0.1782 -0.0408
 9046PP      PP19150   1.172   8.017  10.281  0.2186 -0.0733  0.3922
 9047PP      PP19151   9.771   6.611  12.992  0.0740 -0.2040  0.4482
 9048PP      PP19152   6.976   1.791   2.384 -0.2438 -0.0445  0.0979
 9049PP      PP19153   9.014   4.729  11.453  0.0625  0.0955  0.1767
 9050PP      PP19154   5.507   6.019   0.225  0.0591 -0.2089  0.2990
 9051PP      PP19155   7.801   1.798   8.558 -0.0789  0.0174 -0.3404
 9052PP      PP19156   5.615   7.007   0.167 -0.1921 -0.1423  0.1276
 9053PP      PP19157  11.699  15.694   1.531  0.0436 -0.0562  0.2282
 9054PP      PP19158   6.967  10.388   1.335  0.2162  0.3232  0.1616
 9055PP      PP19159  15.584   8.752   0.464 -0.1554 -0.2301 -0.1084
 9056PP      PP19160   7.458  10.370  11.331  0.4494 -0.0796  0.1925
 9057PP      PP19161   6.119   8.825   2.442  0.2544 -0.4451  0.1336
 9058PP      PP19162   8.322   8.090  10.137 -0.0149  0.1704  0.0337
 9059PP      PP19163   2.326   5.226  13.434 -0.1986  0.4299 -0.1662
 9060PP      PP19164   8.596   3.101   1.360  0.1212  0.3270  0.3851
 9061PP      PP19165   7.813   4.362   9.885 -0.0236 -0.1550  0.5329
 9062PP      PP19166   6.625  12.040  12.185  0.5897  0.2597 -0.0670
 9063PP      PP19167   2.359   1.043   9.831 -0.1182  0.1430  0.2423
 9064PP      PP19168   5.375   0.701  12.193  0.2617  0.1999  0.1886
 9065PP      PP19169   9.162  13.437  10.994 -0.3127  0.0501 -0.3500
 9066PP      PP19170   5.208   2.948  11.865 -0.0482 -0.2897 -0.4431
 9067PP      PP19171   2.898  11.053   0.870 -0.2493  0.0265  0.0110
 9068PP      PP19172   8.725   3.347   3.849  0.1157 -0.0011 -0.2148
 9069PP      PP19173   5.233   6.918  11.259 -0.1061 -0.0535 -0.2729
 9070PP      PP19174   9.986   3.110   3.493  0.1761 -0.3386  0.0831
 9071PP      PP19175   9.237  10.198  13.152  0.1305  0.2070 -0.1695
 9072PP      PP19176  10.676   4.453  10.473  0.1844  0.0243 -0.1920
 9073PP      PP19177  14.253   6.648   1.061 -0.0333 -0.3714 -0.0896
 9074PP      PP19178  14.867   7.715   4.972 -0.2994  0.0196  0.0747
 9075PP      PP19179   8.662   8.105  13.421 -0.0112  0.1230  0.0361
 9076PP      PP19180  15.753  13.064  11.322  0.1277 -0.0890  0.3723
 9077PP      PP19181  14.669   4.847  10.316 -0.0838 -0.0180  0.2727
 9078PP      PP19182   1.573  10.124   1.711  0.0707  0.1088  0.1671
 9079PP      PP19183   4.544   5.296  10.479  0.1816  0.3298  0.0727
 9080PP      PP19184   0.893   3.055  10.132 -0.2459  0.0771 -0.0390
 9081PP      PP19185   7.169  11.136  12.526  0.2933 -0.0218  0.2848
 9082PP      PP19186  13.605   7.815   1.968 -0.0958 -0.1114 -0.1906
 9083PP      PP19187   3.335   1.346   2.933  0.2763 -0.1217  0.1623
 9084PP      PP19188   2.763   5.921   4.620  0.0629  0.1144  0.1282
 9085PP      PP19189   6.312  11.576   0.084  0.0081 -0.4219 -0.2715
 9086PP      PP19190   6.153  12.298  12.837 -0.0578  0.1460 -0.0903
 9087PP      PP19191   6.897   6.750   0.158 -0.1153 -0.2600 -0.0073
 9088PP      PP19192   3.243   7.832  11.925 -0.2239  0.0817 -0.2429
 9089PP      PP19193   6.115  10.526  12.895  0.2431 -0.1679  0.0437
 9090PP      PP19194   2.442  15.153   2.071 -0.0276 -0.2123 -0.3837
 9091PP      PP19195   0.554   8.392  12.800 -0.0359 -0.0226  0.1588
 9092PP      PP19196   8.188  10.879  12.608  0.0294  0.1172 -0.0660
 9093PP      PP19197   5.848  11.109   1.781  0.0828  0.0969 -0.0868
 9094PP      PP19198  10.650   7.355   4.505  0.2380  0.3240 -0.1882
 9095PP      PP19199   7.037  10.343   4.248 -0.1470 -0.0271 -0.0944
 9096PP      PP19200  12.459   2.157   9.988 -0.1195  0.4483  0.1141
 9097PP      PP19201   8.127   9.194  10.877  0.2307 -0.1394 -0.1170
 9098PP      PP19202  12.414   2.404   9.411 -0.1022 -0.2735 -0.0782
 9099PP      PP19203  15.394   9.107   0.793 -0.3123 -0.2060 -0.0569
 9100PP      PP19204  14.793   9.722   0.571  0.0732  0.0228  0.0540
 9101PP      PP19205  11.294   7.022  10.362 -0.3717  0.4036 -0.0079
 9102PP      PP19206  13.911   2.350   1.741  0.0328 -0.1567 -0.1032
 9103PP      PP19207   2.005  10.414   4.486 -0.1564 -0.0644 -0.1199
 9104PP      PP19208   4.515   2.935   3.622 -0.2571 -0.1397  0.0227
 9105PP      PP19209  12.618   4.109   1.110  0.0560  0.0155 -0.1290
 9106PP      PP19210  15.242  13.767   9.308 -0.0397  0.1611  0.1878
 9107PP      PP19211  11.436  13.204   2.998 -0.2290  0.1141 -0.2544
 9108PP      PP19212  14.266  14.712  12.103 -0.1144  0.0877  0.2160
 9109PP      PP19213  14.231  14.950  11.194 -0.0414 -0.1256 -0.1770
 9110PP      PP19214   7.315  11.493  13.153 -0.1385 -0.2389 -0.1621
 9111PP      PP19215   2.040   5.021  10.864  0.0991 -0.1555 -0.1120
 9112PP      PP19216   0.833   1.474  10.688  0.0201 -0.0403 -0.0804
 9113PP      PP19217  14.704  15.082   3.953  0.1499  0.0133 -0.3562
 9114PP      PP19218   4.563   6.938  10.418 -0.1258 -0.2284  0.2022
 9115PP      PP19219  10.333   0.407  10.815  0.1593  0.0035 -0.0994
 9116PP      PP19220   3.488   7.103  10.210  0.1156  0.0828  0.1450
 9117PP      PP19221   4.826   1.625   1.773  0.1774  0.0645  0.2172
 9118PP      PP19222   4.646  12.819  13.151 -0.2263  0.4474  0.0678
 9119PP      PP19223   7.714   5.614  11.654 -0.0937  0.0090 -0.1000
 9120PP      PP19224   6.140   6.749   1.471 -0.1467 -0.1518 -0.1197
 9121PP      PP19225  10.340  12.454   4.276  0.0644 -0.3676  0.2312
 9122PP      PP19226   3.355  12.485   4.295 -0.0324  0.2622 -0.0881
 9123PP      PP19227  12.738   8.603   9.720  0.2500 -0.0659  0.2743
 9124PP      PP19228  13.618   9.624  11.614  0.0775 -0.0932 -0.3351
 9125PP      PP19229   0.408  13.260   1.972  0.0177 -0.0737  0.1577
 9126PP      PP19230   7.183   0.908  10.176  0.2832 -0.0428 -0.2041
 9127PP      PP19231   7.971  10.008   4.606  0.0887 -0.3136 -0.4128
 9128PP      PP19232   1.765   8.447  13.320  0.2395  0.0873  0.1580
 9129PP      PP19233   1.915   5.893   4.205 -0.0787 -0.2212 -0.2000
 9130PP      PP19234   2.727  10.612  11.852  0.1729  0.1409 -0.3323
 9131PP      PP19235   5.668   0.915   9.086  0.0145 -0.2528  0.1720
 9132PP      PP19236  13.640   7.350   1.733 -0.2015  0.1442 -0.0106
 9133PP      PP19237  15.105   9.568  12.348  0.2618  0.0592  0.3679
 9134PP      PP19238   8.074   2.364   9.884 -0.0380 -0.0923 -0.1910
 9135PP      PP19239  14.646   7.627   4.051  0.0997 -0.1603 -0.0076
 9136PP      PP19240  11.874  15.196   3.837  0.0306 -0.1443 -0.0663
 9137PP      PP19241   6.389   2.994   2.241  0.0896 -0.3876 -0.2777
 9138PP      PP19242   6.609  10.423  10.701 -0.1235 -0.1394  0.4111
 9139PP      PP19243  13.450  10.671  10.447  0.0715 -0.1549  0.0525
 9140PP      PP19244   5.564   6.128   2.093  0.3447  0.0362  0.0147
 9141PP      PP19245   7.055  13.667   8.552  0.2537  0.0256 -0.1884
 9142PP      PP19246   2.757  15.495   9.983  0.0054  0.1641  0.0447
 9143PP      PP19247   9.043  14.675   9.984 -0.2048  0.0694 -0.0293
 9144PP      PP19248  15.437   1.878  12.400 -0.1560  0.2600  0.1016
 9145PP      PP19249   4.450  11.723   2.813 -0.0890  0.1651 -0.0043
 9146PP      PP19250   4.523   8.925   2.414  0.2451  0.0030 -0.1664
 9147PP      PP19251  14.889   3.424   1.912  0.3793  0.1085 -0.1431
 9148PP      PP19252   0.329  10.554   4.328 -0.1052 -0.2122 -0.0167
 9149PP      PP19253   8.163  13.970   0.625 -0.1556 -0.1766 -0.1571
 9150PP      PP19254   6.645   8.282  10.999  0.1080 -0.2806 -0.0745
 9151PP      PP19255  10.788   9.148  12.915  0.2764 -0.0191  0.1562
 9152PP      PP19256  13.605   0.956   9.170  0.1927 -0.0014  0.2034
 9153PP      PP19257   0.988  12.290   5.476 -0.1905 -0.0825  0.1226
 9154PP      PP19258   3.568   4.632  11.098  0.0505  0.0160 -0.0845
 9155PP      PP19259   2.733  11.802   4.773  0.3962  0.2787 -0.1681
 9156PP      PP19260  12.710   7.914  13.344 -0.2041 -0.1561 -0.4480
 9157PP      PP19261   4.948  13.044   8.799  0.4593 -0.2869  0.0309
 9158PP      PP19262   4.005  11.067   0.149  0.2433  0.2416  0.1419
 9159PP      PP19263   1.943   2.572   1.975  0.2715  0.1071 -0.0971
 9160PP      PP19264  12.776   7.749   0.318  0.1264  0.0759  0.0399
 9161PP      PP19265   2.566  15.625  13.474 -0.1407  0.1595  0.0797
 9162PP      PP19266  15.169  13.227  12.211  0.0211 -0.0007  0.0829
 9163PP      PP19267   5.661  14.133   3.512  0.1025 -0.0600 -0.0733
 9164PP      PP19268  10.843  15.203   0.131  0.2071 -0.1211 -0.0722
 9165PP      PP19269   5.771   1.820   2.824 -0.0121 -0.0527  0.1228
 9166PP      PP19270   2.403  13.326  11.972 -0.3218  0.0884  0.0949
 9167PP      PP19271  15.185   5.602  11.641 -0.0099 -0.0072  0.2005
 9168PP      PP19272   7.744  13.903  12.752 -0.2280 -0.3003  0.2539
 9169PP      PP19273   8.062  13.082   2.391 -0.0824  0.0309  0.0011
 9170PP      PP19274   7.253  14.837   0.597 -0.1199 -0.1512  0.4308
 9171PP      PP19275  11.278  10.855   0.978 -0.2046 -0.0407  0.2012
 9172PP      PP19276   2.413  12.921  10.334  0.2415  0.0041 -0.2760
 9173PP      PP19277   2.850   1.150  13.469 -0.0278  0.2638  0.1685
 9174PP      PP19278   7.209   5.372   0.210 -0.0693 -0.0422  0.0391
 9175PP      PP19279   3.717   8.986   3.647  0.1337  0.2612  0.2127
 9176PP      PP19280   9.692  12.027  12.777  0.1505 -0.2830 -0.4431
 9177PP      PP19281   1.706   2.701  12.805  0.1243  0.4159 -0.0805
 9178PP      PP19282  10.845  10.161   1.418  0.1747 -0.3259 -0.1076
 9179PP      PP19283   9.805  11.873   8.843  0.0533  0.0981 -0.2709
 9180PP      PP19284   5.872   3.642   0.734  0.0287  0.0102  0.0191
 9181PP      PP19285   9.488   0.604  12.009  0.0241  0.2476  0.2631
 9182PP      PP19286   9.889   9.379   1.791  0.1685  0.3562  0.2357
 9183PP      PP19287   1.636   6.470  10.982 -0.0454  0.0382 -0.2340
 9184PP      PP19288  13.991   1.940  10.363  0.0155  0.2355  0.1628
 9185PP      PP19289   7.694   4.094   3.372  0.2865  0.0877  0.1265
 9186PP      PP19290  11.573   7.057   9.379  0.0723 -0.0171 -0.3812
 9187PP      PP19291  15.462   5.254   1.292  0.1531  0.1120  0.3451
 9188PP      PP19292  12.469  14.426  11.453  0.0554 -0.0271 -0.2977
 9189PP      PP19293  11.787   3.734   0.991 -0.1535  0.2069  0.1307
 9190PP      PP19294  14.522   1.867  10.307  0.0875 -0.0125 -0.1337
 9191PP      PP19295  10.028  13.214   1.001  0.0214 -0.0330  0.2123
 9192PP      PP19296  11.087   8.393  12.744  0.2657 -0.2981 -0.3231
 9193PP      PP19297  12.690   0.112  12.368  0.0961 -0.0450  0.1826
 9194PP      PP19298   2.326   3.863   3.622  0.2783 -0.0185 -0.2404
 9195PP      PP19299  11.901   4.356   3.590 -0.2271 -0.1171 -0.3131
 9196PP      PP19300  12.659   9.044   4.770  0.1278 -0.1037 -0.5205
 9197PP      PP19301   7.265   0.925   1.486  0.0757 -0.2842 -0.2452
 9198PP      PP19302  13.270   3.774   0.029  0.2763 -0.0321 -0.1877
 9199PP      PP19303  14.587   5.024   2.197 -0.2651  0.2790 -0.1338
 9200PP      PP19304   7.041   2.743  10.380  0.0066 -0.2340  0.0091
 9201PP      PP19305   3.739   2.804  10.729  0.0753  0.0628  0.0704
 9202PP      PP19306   5.707   6.017   1.070  0.0438 -0.2240 -0.0451
 9203PP      PP19307   2.585  13.957   3.321 -0.0995  0.0717 -0.1775
 9204PP      PP19308  15.251   8.487   2.908  0.1829 -0.0725  0.2577
 9205PP      PP19309  13.812   6.905   9.618 -0.1089 -0.1544 -0.0452
 9206PP      PP19310   5.229  12.863   1.760  0.2148  0.0188 -0.1015
 9207PP      PP19311   9.803   6.486  12.519  0.0778 -0.1856  0.1681
 9208PP      PP19312   8.907   8.473  13.187  0.1408 -0.0678 -0.2845
 9209PP      PP19313   9.559   8.372   9.518  0.0398 -0.3298 -0.1274
 9210PP      PP19314   9.830   1.162   2.646  0.0887 -0.0408  0.2287
 9211PP      PP19315  12.914  15.244   2.243  0.1186 -0.0471 -0.0921
 9212PP      PP19316   3.291  11.315  12.529  0.0205 -0.0934  0.2215
 9213PP      PP19317   3.539   8.532   2.299 -0.0556 -0.0923 -0.0781
 9214PP      PP19318   7.553   7.788   4.169  0.1725 -0.0967 -0.0721
 9215PP      PP19319   2.326  15.465  12.457  0.0779  0.3869 -0.0475
 9216PP      PP19320   2.329  13.245  12.509 -0.0947 -0.0635 -0.2655
 9217PP      PP19321   9.706  14.720   3.666 -0.0914 -0.0151  0.1296
 9218PP      PP19322  11.519   4.613  13.172 -0.0420 -0.1021 -0.0186
 9219PP      PP19323   1.641  10.056   1.161  0.2170  0.0881 -0.3661
 9220PP      PP19324   5.870   5.740   9.905 -0.3008  0.2202 -0.1119
 9221PP      PP19325  12.707  14.300   9.739 -0.1876 -0.0730 -0.0302
 9222PP      PP19326  11.702   7.766  13.012  0.2750 -0.1614 -0.0621
 9223PP      PP19327   8.227  13.989   3.844 -0.2059  0.0408  0.0190
 9224PP      PP19328   2.279  12.169  11.200 -0.0321 -0.1370  0.0020
 9225PP      PP19329  10.334  14.849  11.642 -0.1012  0.0244 -0.0940
 9226PP      PP19330  11.012   9.315  11.950 -0.2816 -0.0527 -0.1988
 9227PP      PP19331   6.685   3.316   3.196  0.0151 -0.1934  0.2080
 9228PP      PP19332  12.292   1.127  13.062  0.1428 -0.0858 -0.1662
 9229PP      PP19333  11.957  10.118   4.017  0.1180 -0.1327 -0.0425
 9230PP      PP19334   4.440  12.447  12.706  0.1544  0.3109 -0.2661
 9231PP      PP19335   6.852   1.484   3.678 -0.2316  0.1707  0.0175
 9232PP      PP19336   8.011   0.520  11.783  0.3073 -0.1470  0.0751
 9233PP      PP19337  11.104  11.750   3.063 -0.1250 -0.0570 -0.1955
 9234PP      PP19338   4.221  11.561  12.712 -0.0884 -0.2033 -0.1407
 9235PP      PP19339   2.890   8.872   0.261  0.0735 -0.0562 -0.0346
 9236PP      PP19340  11.095   2.957   3.444  0.3219 -0.3057 -0.2077
 9237PP      PP19341   1.121   6.699   1.472 -0.1925  0.1596  0.4736
 9238PP      PP19342   3.542  14.681  11.342  0.0609  0.0523 -0.0231
 9239PP      PP19343   8.051   2.830  11.254 -0.4187 -0.0993 -0.0503
 9240PP      PP19344   2.950   6.628  11.464 -0.3729 -0.1453 -0.1913
 9241PP      PP19345   6.034   4.976  11.942  0.2577  0.1972 -0.0237
 9242PP      PP19346   8.676  13.291   4.478 -0.0414  0.1806 -0.3466
 9243PP      PP19347   8.856  15.031   2.423  0.1450 -0.3545 -0.0764
 9244PP      PP19348   9.256  11.231   2.709 -0.1795  0.2997 -0.2552
 9245PP      PP19349  12.894   7.449  11.155  0.1746  0.1065 -0.2063
 9246PP      PP19350  11.647  13.927  11.053 -0.1650 -0.2749 -0.4935
 9247PP      PP19351  15.045   3.586  12.688 -0.1720  0.1686  0.0881
 9248PP      PP19352   6.234   0.761   8.858 -0.0778 -0.0432 -0.3843
 9249PP      PP19353  13.030   4.479   9.720  0.3131 -0.0905  0.4361
 9250PP      PP19354  10.721   1.173   1.592 -0.1629  0.3570 -0.1399
 9251PP      PP19355  11.711   0.971   3.185  0.4989  0.1007  0.1299
 9252PP      PP19356   2.379   2.112   1.580 -0.2637 -0.1858  0.3058
 9253PP      PP19357  14.562   8.321   2.948 -0.3198 -0.0824  0.1483
 9254PP      PP19358  14.040   6.685   2.919 -0.0254 -0.0664 -0.0475
 9255PP      PP19359   4.670   1.788   0.857  0.1703 -0.0116 -0.3298
 9256PP      PP19360   6.983  11.033   0.565 -0.3329 -0.1480 -0.0658
 9257PP      PP19361   0.922  15.317   0.145  0.1323 -0.1143  0.0421
 9258PP      PP19362   1.666   9.747   2.063  0.2825 -0.3140 -0.0582
 9259PP      PP19363  12.903   0.733   3.742 -0.2121 -0.2317  0.0608
 9260PP      PP19364  15.771   6.674   3.088  0.0559  0.0522  0.2877
 9261PP      PP19365   9.807   8.704  12.246 -0.1829 -0.0275 -0.1097
 9262PP      PP19366   6.042   4.978   2.152  0.0486  0.1652  0.2588
 9263PP      PP19367   3.208  12.432   0.430  0.1000  0.1199 -0.0470
 9264PP      PP19368  14.894   7.199  11.685  0.1750 -0.3576 -0.1568
 9265PP      PP19369  12.424   1.504  11.294 -0.0455 -0.0046  0.1148
 9266PP      PP19370   6.966   1.366  11.769  0.2790 -0.2648 -0.0603
 9267PP      PP19371  10.818   4.993   0.761  0.0938 -0.3271 -0.4992
 9268PP      PP19372   6.667  10.011  11.019 -0.1730  0.4629 -0.0768
 9269PP      PP19373  14.097  10.919   0.696  0.0656  0.0080 -0.1119
 9270PP      PP19374  14.052  11.085  10.829 -0.2368  0.0796  0.4224
 9271PP      PP19375  14.984   8.950   0.397 -0.3503 -0.2141  0.3527
 9272PP      PP19376   3.815   7.184   9.799  0.1917 -0.1658  0.0383
 9273PP      PP19377  14.069   5.159   5.109 -0.0671  0.0652  0.1140
 9274PP      PP19378   3.888  13.694  10.413 -0.2158  0.0481 -0.4262
 9275PP      PP19379   7.393   3.383   4.308  0.0848  0.0925  0.3459
 9276PP      PP19380  12.521  10.570   1.669 -0.1645  0.1237  0.0766
 9277PP      PP19381  12.898   7.397   9.803  0.1842 -0.2776 -0.2593
 9278PP      PP19382   4.463   3.072  10.455  0.3454  0.2972 -0.0183
 9279PP      PP19383  13.680  13.491   3.921  0.1196  0.4699 -0.2146
 9280PP      PP19384   1.052  15.662  11.465  0.0325 -0.3874  0.0084
 9281PP      PP19385   7.323   9.012   2.390 -0.0213 -0.0154  0.0192
 9282PP      PP19386   2.587   9.061   0.607 -0.0243 -0.1255 -0.0151
 9283PP      PP19387   6.570   0.860  13.128 -0.2900 -0.2324 -0.1553
 9284PP      PP19388   6.792   6.630   3.114 -0.2499 -0.0315 -0.0222
 9285PP      PP19389   2.172   4.409   1.794  0.0763 -0.2625  0.1740
 9286PP      PP19390   8.074  15.316   9.225 -0.1147  0.1309 -0.1518
 9287PP      PP19391   9.151   2.883   3.071 -0.2079  0.0971 -0.0990
 9288PP      PP19392   3.292  13.472   1.411 -0.0011 -0.1642  0.1373
 9289PP      PP19393   7.313  11.319   0.895 -0.0336  0.1297 -0.0604
 9290PP      PP19394  13.633   8.807  12.077 -0.0220  0.2815 -0.1599
 9291PP      PP19395   1.047   6.282   5.106 -0.0106  0.0682 -0.1216
 9292PP      PP19396  13.170  10.648   9.501  0.1255 -0.0482  0.3061
 9293PP      PP19397   3.286   7.122  12.083 -0.0899  0.1205  0.0142
 9294PP      PP19398  15.724   6.579   3.674  0.3896 -0.0053 -0.1350
 9295PP      PP19399   4.786   5.918  11.548  0.0005 -0.0192  0.2054
 9296PP      PP19400  15.334  13.537   2.169  0.1262 -0.0359 -0.1467
 9297PP      PP19401   7.896   6.683   1.567  0.0389  0.1669 -0.0603
 9298PP      PP19402  12.928  10.124  13.451  0.1222 -0.1014 -0.0786
 9299PP      PP19403  15.767   9.240  11.202  0.4008 -0.0943 -0.2715
 9300PP      PP19404  11.980  11.049   5.073  0.0722  0.1963  0.4812
 9301PP      PP19405   7.983   8.016  12.219  0.1268  0.0493  0.2102
 9302PP      PP19406  10.396  14.063   2.132  0.3420  0.0215 -0.0207
 9303PP      PP19407  12.745   0.190   3.085 -0.1048 -0.0924  0.2193
 9304PP      PP19408  11.358   9.677  12.230 -0.1520 -0.0787  0.1582
 9305PP      PP19409   5.477  14.961  12.516 -0.4071 -0.3397  0.0414
 9306PP      PP19410  10.189   3.351   1.046 -0.1047  0.2133  0.1791
 9307PP      PP19411   9.126  11.679   1.846  0.0436 -0.0840  0.2738
 9308PP      PP19412   9.529   2.520   8.889 -0.1480  0.1859 -0.0759
 9309PP      PP19413   2.994   9.834   4.674 -0.1176 -0.0513 -0.1238
 9310PP      PP19414  12.315   4.174   1.624  0.2125  0.1513  0.1342
 9311PP      PP19415  13.022   0.785  10.127  0.1340 -0.2210 -0.3952
 9312PP      PP19416   1.056  12.444  13.211  0.1984  0.0250 -0.4200
 9313PP      PP19417   1.046  15.313   1.355  0.2663 -0.1730  0.1235
 9314PP      PP19418   1.447   7.058  12.965  0.2991 -0.0461  0.1135
 9315PP      PP19419  14.251   9.570  10.925  0.0759 -0.0609 -0.1669
 9316PP      PP19420   1.848  12.681  10.576  0.0849 -0.0876  0.0013
 9317PP      PP19421  14.072   2.590  13.302  0.1855 -0.2596 -0.1877
 9318PP      PP19422  15.626   7.571   5.570 -0.0567 -0.0181 -0.2995
 9319PP      PP19423   8.438  12.889   1.584 -0.2426 -0.3143  0.2963
 9320PP      PP19424  13.020   5.498   4.106 -0.0824 -0.4294  0.0003
 9321PP      PP19425  14.625   7.101  10.780  0.4798  0.0169  0.1364
 9322PP      PP19426  14.344  15.216  12.032  0.1171  0.1544  0.2482
 9323PP      PP19427  15.382   0.552   0.717  0.1053 -0.0106  0.0562
 9324PP      PP19428   3.727   6.757   4.851 -0.0485  0.1926 -0.0082
 9325PP      PP19429   8.802   3.652  11.150 -0.2171  0.3097 -0.1586
 9326PP      PP19430  11.758  14.017   9.095  0.0255 -0.0355  0.1776
 9327PP      PP19431   1.380  14.758  12.426 -0.1476 -0.1554  0.0460
 9328PP      PP19432   4.889   5.328   4.155 -0.1629  0.4515  0.4720
 9329PP      PP19433   0.805  12.029   1.346 -0.2189  0.4438  0.3266
 9330PP      PP19434   7.423   1.801  12.799  0.2077  0.1337 -0.2316
 9331PP      PP19435  12.951  14.221   8.832  0.1376  0.0111 -0.2780
 9332PP      PP19436  14.668   3.592  13.049 -0.2756 -0.0626 -0.0880
 9333PP      PP19437   9.656  13.222   9.574 -0.0644 -0.1120 -0.0659
 9334PP      PP19438  13.979   4.921  10.378  0.1934  0.2143 -0.3441
 9335PP      PP19439  12.212  14.174   9.428  0.0939  0.0022 -0.3639
 9336PP      PP19440   8.721   1.994   3.451 -0.1256  0.1989 -0.1136
 9337PP      PP19441  13.980   6.182   0.051  0.0005  0.3552  0.2441
 9338PP      PP19442   1.459   6.092   4.367 -0.4563 -0.0164 -0.3290
 9339PP      PP19443   8.111  13.283   0.802  0.1439  0.1054 -0.4137
 9340PP      PP19444   8.581   6.413  11.796  0.5326 -0.2195 -0.1715
 9341PP      PP19445  10.747   1.762   9.160  0.0922 -0.1950  0.1910
 9342PP      PP19446  13.445   8.644   4.950 -0.2003  0.4693  0.2492
 9343PP      PP19447   1.463   2.777   4.021 -0.3486 -0.2783  0.0081
 9344PP      PP19448  14.600   4.982   3.625  0.0605  0.0748 -0.2366
 9345PP      PP19449  11.497   9.107   2.274  0.1805 -0.2382  0.0147
 9346PP      PP19450  12.222   5.190   4.446  0.1757 -0.0611  0.2049
 9347PP      PP19451   1.734  15.603  10.595 -0.1902 -0.0390 -0.0574
 9348PP      PP19452   1.873   7.474   3.740 -0.3203  0.1861  0.1464
 9349PP      PP19453   5.944   1.080   8.175  0.0005 -0.1064 -0.0002
 9350PP      PP19454  14.403  10.883  10.506  0.0237  0.1362 -0.0569
 9351PP      PP19455   1.368   6.843  11.822 -0.0128  0.0017  0.1199
 9352PP      PP19456  13.024  14.326  12.066 -0.0168 -0.1206  0.0352
 9353PP      PP19457  14.331  13.093  10.454 -0.0973  0.1669 -0.0660
 9354PP      PP19458   4.975   8.262   0.135  0.1700 -0.2061  0.1885
 9355PP      PP19459   6.372   2.510   0.692 -0.0027  0.3251  0.0878
 9356PP      PP19460   7.702   6.271  11.361  0.1644 -0.0746 -0.2901
 9357PP      PP19461   5.155  15.712   8.925  0.1648 -0.2823 -0.2854
 9358PP      PP19462  15.165   9.854  12.785 -0.0430  0.0954 -0.2395
 9359PP      PP19463  13.248  12.009   3.818  0.0592 -0.0127  0.0917
 9360PP      PP19464   6.798   9.980   0.651  0.1621  0.0498  0.2427
 9361PP      PP19465   6.598  15.815   8.341  0.1682  0.2515  0.1769
 9362PP      PP19466   9.851   5.486  12.501 -0.1135  0.0577  0.1859
 9363PP      PP19467  12.325  13.693  12.550  0.1382  0.0835 -0.0785
 9364PP      PP19468   1.122  14.539   4.246  0.1958 -0.2739 -0.3922
 9365PP      PP19469  12.454  10.746   4.597 -0.0479 -0.2627  0.0730
 9366PP      PP19470   7.354   3.218  12.858 -0.1191 -0.1177 -0.2062
 9367PP      PP19471  11.519   8.064   4.782  0.0175 -0.0983  0.1827
 9368PP      PP19472   5.606  13.994  11.427  0.1000 -0.1094  0.4692
 9369PP      PP19473   0.767   8.067   2.500 -0.1104 -0.2120 -0.0142
 9370PP      PP19474   1.805  11.026   5.024 -0.0827  0.0473 -0.0140
 9371PP      PP19475   6.532   4.943  13.142 -0.0980 -0.1682  0.2974
 9372PP      PP19476  11.740   3.801   1.791  0.1923 -0.3978  0.0975
 9373PP      PP19477   6.211  15.479   8.055  0.0838  0.0847 -0.3295
 9374PP      PP19478   0.545   6.523   0.182  0.2156 -0.1778 -0.2594
 9375PP      PP19479   6.520  11.958   0.773  0.1502  0.0183 -0.3030
 9376PP      PP19480   9.373  11.561  10.615 -0.0824  0.1758 -0.3629
 9377PP      PP19481   6.271   0.291   9.815  0.1138  0.0934  0.1909
 9378PP      PP19482  13.262  14.580   0.380  0.1707  0.0827  0.0941
 9379PP      PP19483  10.209   7.958   3.429  0.0765 -0.0073  0.2914
 9380PP      PP19484   4.945   1.580   2.562 -0.0972  0.3207 -0.2630
 9381PP      PP19485   5.984   1.442  10.718  0.0323 -0.3180  0.2460
 9382PP      PP19486   0.762   6.047   1.836  0.0208 -0.0499 -0.0775
 9383PP      PP19487   6.964   5.450   9.013  0.2424  0.2000  0.0327
 9384PP      PP19488   7.622   8.735  12.026 -0.0259  0.1523 -0.1414
 9385PP      PP19489  11.211   5.124   1.034  0.0521 -0.0839 -0.0308
 9386PP      PP19490   3.483   8.758   0.260  0.1992  0.0952  0.0877
 9387PP      PP19491  11.545   1.907   9.579 -0.2954 -0.1263  0.1267
 9388PP      PP19492   9.068  10.911  11.136  0.0936 -0.1450  0.0039
 9389PP      PP19493  15.375   8.974  10.879 -0.0573 -0.3548 -0.5152
 9390PP      PP19494   9.943   0.183  12.639 -0.1306  0.1102  0.0796
 9391PP      PP19495   0.728   7.295  11.233  0.0533  0.2372 -0.2293
 9392PP      PP19496  14.310  11.370   0.901 -0.0887  0.1928 -0.0054
 9393PP      PP19497  10.597  15.434  12.621 -0.3657  0.0418 -0.0259
 9394PP      PP19498   9.393   4.656  11.762 -0.0079  0.0240  0.1361
 9395PP      PP19499   3.469   0.940   0.582  0.2805  0.1608 -0.1408
 9396PP      PP19500   7.428   4.021  12.837  0.3160  0.1000  0.1221
 9397PP      PP19501   9.812  15.049  12.746 -0.4530  0.1932  0.0187
 9398PP      PP19502   2.763  11.181   9.961 -0.1269  0.1479  0.2506
 9399PP      PP19503  12.290  15.162  11.347 -0.1111  0.0657  0.1179
 9400PP      PP19504  15.168  11.059   1.675  0.0401  0.4289 -0.0044
 9401PP      PP19505   0.443  10.192  11.075 -0.2380  0.1120 -0.2462
 9402PP      PP19506  11.765   0.793   3.660 -0.2014  0.2696  0.1332
 9403PP      PP19507   3.066  11.653  10.118  0.4075  0.2661  0.2449
 9404PP      PP19508   1.327  15.237   2.581 -0.2357 -0.0952  0.0066
 9405PP      PP19509  15.522  11.992  11.174  0.2296 -0.0378  0.0668
 9406PP      PP19510   5.269  11.790   4.570  0.0514 -0.0042  0.1534
 9407PP      PP19511   6.356   4.313   1.571  0.2757 -0.0049  0.2358
 9408PP      PP19512  11.097  13.725   9.575  0.1574 -0.2451  0.0080
 9409PP      PP19513   9.616  13.411  12.058  0.1944 -0.1169  0.2249
 9410PP      PP19514  10.024  13.952   9.268  0.2612 -0.0356  0.0848
 9411PP      PP19515   6.028   3.854   4.041  0.1657  0.0503  0.0583
 9412PP      PP19516   4.693   7.257   9.758  0.0254  0.1025 -0.1016
 9413PP      PP19517   4.805   1.508  11.327 -0.2115  0.2898 -0.1361
 9414PP      PP19518   7.079   7.761  11.722  0.2636  0.1301  0.1624
 9415PP      PP19519   6.771  13.405   1.818 -0.4479 -0.2645  0.1446
 9416PP      PP19520   9.213   6.889   2.585  0.2535 -0.0018  0.4157
 9417PP      PP19521  14.418   5.044  12.417  0.1158  0.3016  0.0825
 9418PP      PP19522   9.098   4.493   3.410  0.2739 -0.2178 -0.2339
 9419PP      PP19523  14.862   5.961  13.059 -0.4268  0.1745  0.1005
 9420PP      PP19524  14.199  13.824  12.844 -0.0575  0.2737 -0.0066
 9421PP      PP19525  13.860  11.909   1.852 -0.1252 -0.0777 -0.1305
 9422PP      PP19526   8.740   5.344   3.750  0.0291 -0.0735  0.2404
 9423PP      PP19527   6.532   9.591   4.881 -0.0921  0.0441 -0.0825
 9424PP      PP19528   0.200  10.839   1.930  0.1755 -0.1714  0.1459
 9425PP      PP19529  12.330  12.567   9.746 -0.2693 -0.0034 -0.0130
 9426PP      PP19530   9.244   8.055  10.266  0.1005  0.0363  0.0224
 9427PP      PP19531   6.359  14.308  12.818  0.3393  0.3171  0.3320
 9428PP      PP19532   4.461   2.868  11.728 -0.1374  0.4063  0.4034
 9429PP      PP19533   1.395   2.058  13.519 -0.1152 -0.0599 -0.1282
 9430PP      PP19534   3.409  14.878  12.747 -0.0431 -0.1219  0.0532
 9431PP      PP19535   0.341   9.124  10.958  0.2794 -0.2078 -0.0416
 9432PP      PP19536   7.971   2.976   9.484 -0.1483 -0.0853  0.2387
 9433PP      PP19537   7.344   9.594  12.577 -0.1790  0.1669  0.1464
 9434PP      PP19538   5.467   3.839   3.415  0.4437  0.0383  0.0360
 9435PP      PP19539   8.776  15.448  11.757  0.0971 -0.2310 -0.1950
 9436PP      PP19540  10.465   3.909   9.028 -0.1278  0.1033  0.0912
 9437PP      PP19541   9.845   2.080   3.961 -0.0749 -0.0621  0.4241
 9438PP      PP19542   1.762   4.188  10.622  0.0425  0.0547  0.3471
 9439PP      PP19543   1.447   0.363   2.456  0.0315 -0.1431 -0.1514
 9440PP      PP19544  14.914   8.571   5.084 -0.1618  0.1004 -0.0449
 9441PP      PP19545  11.652   8.099   0.470 -0.0029 -0.1088  0.0054
 9442PP      PP19546   5.793   1.554  13.366 -0.1171 -0.0083  0.1018
 9443PP      PP19547  13.054   8.974  11.242  0.0575 -0.0870 -0.2116
 9444PP      PP19548  12.628   1.036   1.919  0.0341  0.1918  0.1545
 9445PP      PP19549  12.668  12.374   3.859  0.0274  0.1311  0.0120
 9446PP      PP19550  13.999  14.658  11.569 -0.0524  0.0112  0.0359
 9447PP      PP19551  10.979  10.229   4.349 -0.0198  0.1091  0.0821
 9448PP      PP19552   5.276  15.828  11.836 -0.0005 -0.0300  0.3786
 9449PP      PP19553   9.307  14.534   9.591  0.1338  0.1041 -0.2047
 9450PP      PP19554   1.391   9.690   4.986 -0.0229  0.3343  0.0550
 9451PP      PP19555   7.397   5.598   9.936 -0.0704  0.2635  0.0507
 9452PP      PP19556   8.100   1.169  10.751  0.1803 -0.3188 -0.2436
 9453PP      PP19557   2.403  15.573   9.485 -0.0504  0.0984  0.2266
 9454PP      PP19558   2.010  15.491   9.972 -0.0778  0.1499 -0.0869
 9455PP      PP19559   8.350  15.048   1.562 -0.3584  0.1229  0.0759
 9456PP      PP19560   7.364   3.072   1.956 -0.1012  0.1392  0.0012
 9457PP      PP19561  12.375   5.987  12.877  0.0133  0.0801  0.2847
 9458PP      PP19562   3.272   1.117   9.480  0.2310  0.1571 -0.0168
 9459PP      PP19563  12.099  12.803   9.289  0.0736 -0.0397  0.0069
 9460PP      PP19564   2.401  11.119  10.413 -0.1900 -0.0282  0.1409
 9461PP      PP19565   0.464  15.626   0.201 -0.1712  0.1216 -0.0059
 9462PP      PP19566  14.571   1.049   3.434 -0.1861 -0.1685 -0.0061
 9463PP      PP19567  14.433   9.788   9.813 -0.0706  0.0765 -0.2155
 9464PP      PP19568   4.490   8.707   0.184 -0.0333  0.0554 -0.1421
 9465PP      PP19569   7.721   1.356  11.359  0.2421 -0.0395 -0.1159
 9466PP      PP19570   1.374  13.801   9.886  0.1292  0.1252  0.2451
 9467PP      PP19571   0.875  11.330  11.696  0.4439 -0.0602 -0.0424
 9468PP      PP19572  14.277  10.714  11.846 -0.0039 -0.1865 -0.1955
 9469PP      PP19573  14.611   3.602   9.708 -0.1665  0.0207  0.1284
 9470PP      PP19574   3.839   6.445  10.484  0.0776 -0.0123  0.1418
 9471PP      PP19575  10.639   4.468   2.751 -0.2280 -0.1067  0.1802
 9472PP      PP19576   2.676  10.876   0.416 -0.2823  0.0176  0.0785
 9473PP      PP19577   3.112  12.125   4.614  0.0255  0.1758  0.3603
 9474PP      PP19578  12.290  15.728  11.056 -0.0589 -0.0893 -0.1041
 9475PP      PP19579  13.933   9.959  11.549 -0.0637  0.0395  0.0412
 9476PP      PP19580   3.160  10.731   1.199  0.0140 -0.1692  0.2178
 9477PP      PP19581   9.435  15.679  12.132  0.2869 -0.0412  0.1265
 9478PP      PP19582   5.926   9.970   9.027  0.1456 -0.2225 -0.1571
 9479PP      PP19583   3.605  10.501   2.287 -0.1371  0.1281  0.2089
 9480PP      PP19584  13.047   8.300   4.851 -0.3208 -0.2125 -0.5118
 9481PP      PP19585   8.080   4.233  11.604 -0.0311  0.0472  0.0536
 9482PP      PP19586  10.564   6.059  12.908 -0.4072 -0.1013 -0.0640
 9483PP      PP19587  15.547  14.487   2.059 -0.1351 -0.2218  0.1576
 9484PP      PP19588   6.889   8.625   0.912  0.2289  0.0287 -0.2829
 9485PP      PP19589   2.109   1.395  10.037  0.0622  0.2218  0.1039
 9486PP      PP19590   7.022   6.655  11.891  0.2718  0.0519  0.1199
 9487PP      PP19591   0.310  13.905   3.295  0.1277  0.1784  0.2428
 9488PP      PP19592   3.172  12.885  11.609  0.1394  0.6167  0.1571
 9489PP      PP19593  13.443   5.547   3.852 -0.0860 -0.1968  0.0766
 9490PP      PP19594   0.864   1.498  12.080 -0.5352  0.0007  0.2609
 9491PP      PP19595   3.262  13.961   2.222  0.0864 -0.0062 -0.0455
 9492PP      PP19596  13.777   6.317  11.251  0.0494  0.2963 -0.1203
 9493PP      PP19597   7.430  10.069   9.151 -0.2649  0.2441 -0.1117
 9494PP      PP19598  12.336   7.441  11.483 -0.3265  0.1441  0.1978
 9495PP      PP19599   5.916   7.881   3.599  0.1885  0.0005 -0.2710
 9496PP      PP19600  12.880   7.399  13.455  0.2992  0.0800 -0.1623
 9497PP      PP19601  11.505   0.532  13.240 -0.0160 -0.2421 -0.0650
 9498PP      PP19602   7.432   1.657   0.693 -0.1148 -0.0755  0.1770
 9499PP      PP19603   1.470   4.960   0.595  0.1506 -0.1691  0.0470
 9500PP      PP19604   5.500  12.108   3.621 -0.1835  0.0825  0.3177
 9501PP      PP19605   4.328   4.306   2.208  0.3341 -0.0424 -0.1264
 9502PP      PP19606   9.145  15.757   0.291 -0.1574  0.0519 -0.0686
 9503PP      PP19607   7.412   9.450  10.745  0.1071  0.6634 -0.0514
 9504PP      PP19608   2.523   3.900  10.082  0.2827 -0.1392 -0.3080
 9505PP      PP19609  14.135   6.961  10.990 -0.1483 -0.3663  0.2573
 9506PP      PP19610   7.052  10.893   8.904 -0.0443  0.0432 -0.1628
 9507PP      PP19611   6.983   1.250  10.568 -0.2439  0.0979 -0.1237
 9508PP      PP19612  14.506  10.585   0.792  0.2394  0.0035  0.2170
 9509PP      PP19613   3.334   4.398  12.052  0.0447  0.1307  0.1652
 9510PP      PP19614   6.412   4.222  10.582  0.0009  0.0110  0.1322
 9511PP      PP19615  12.373  11.439   9.819  0.0827  0.0768 -0.0626
 9512PP      PP19616   3.427   3.029  11.779 -0.3156  0.1510 -0.0802
 9513PP      PP19617  11.606   8.931   5.189 -0.2390  0.1873 -0.0284
 9514PP      PP19618  11.722   9.652  10.050 -0.1778  0.3020 -0.0917
 9515PP      PP19619  13.027   1.289   2.366  0.0154 -0.1115  0.1334
 9516PP      PP19620   9.697  10.895   1.913 -0.0364  0.2339 -0.1139
 9517PP      PP19621  12.297   6.592   2.421  0.0923  0.3783  0.0284
 9518PP      PP19622   4.552   1.224  12.475  0.0885 -0.2103 -0.0615
 9519PP      PP19623   4.711   1.586   9.824  0.1175  0.2045 -0.0366
 9520PP      PP19624   2.866  15.101   1.758  0.1420  0.0938 -0.0754
 9521PP      PP19625  12.482  14.303  13.312  0.2373 -0.0181  0.2033
 9522PP      PP19626  14.700   0.601   1.867  0.2067  0.3714  0.0406
 9523PP      PP19627  11.820  12.357   1.461 -0.0403  0.1150 -0.2970
 9524PP      PP19628   1.363   8.915   4.946 -0.0462  0.1404  0.2954
 9525PP      PP19629  10.653   3.428  12.138  0.3655 -0.2126 -0.0932
 9526PP      PP19630   2.853   6.344  12.946 -0.2979 -0.0841 -0.0402
 9527PP      PP19631  12.801   4.397   2.547 -0.1544  0.2309  0.0842
 9528PP      PP19632  10.611  11.253   2.185 -0.0133 -0.0110  0.0806
 9529PP      PP19633   9.150   8.796  13.517 -0.2687 -0.0425 -0.0962
 9530PP      PP19634   0.481   7.412   0.605  0.2026 -0.2385  0.1695
 9531PP      PP19635   3.119   2.265   0.751  0.5313  0.0169 -0.3101
 9532PP      PP19636   6.451   9.232  10.035  0.0616 -0.2591 -0.0060
 9533PP      PP19637   0.858   2.444   9.911 -0.0820 -0.1781  0.1930
 9534PP      PP19638   4.609   2.574   0.607  0.1299  0.0993  0.0227
 9535PP      PP19639   3.027  13.127   3.622 -0.0443 -0.0695  0.0204
 9536PP      PP19640   0.322   1.119   7.825  0.1929 -0.1337 -0.1641
 9537PP      PP19641  10.578  15.098  11.136 -0.0013  0.0087 -0.1015
 9538PP      PP19642   9.095   6.759   2.131 -0.3213  0.0226 -0.0171
 9539PP      PP19643  12.900  10.759   4.950  0.2529 -0.0576  0.0534
 9540PP      PP19644   2.419   0.022   1.314  0.3016  0.1926 -0.2670
 9541PP      PP19645  14.526  14.832  11.663  0.0267 -0.2577 -0.0014
 9542PP      PP19646  15.565   8.159   0.592 -0.0495  0.1150  0.0406
 9543PP      PP19647   5.141  14.350   8.130  0.1457  0.0440 -0.0597
 9544PP      PP19648   6.508   2.072   0.346  0.0714 -0.0179 -0.1955
 9545PP      PP19649  15.573   3.139   1.408  0.0790 -0.1591 -0.2032
 9546PP      PP19650  14.898   1.278  11.265  0.1885  0.3302 -0.3253
 9547PP      PP19651   8.225   7.765  13.322  0.2763 -0.2782 -0.1775
 9548PP      PP19652  13.291  14.738  10.880  0.2570  0.1674 -0.2778
 9549PP      PP19653   4.105   2.808   0.256  0.0655  0.0088  0.2825
 9550PP      PP19654   2.095  12.509   4.180  0.1461  0.1804 -0.1312
 9551PP      PP19655   4.339   3.261  13.154 -0.0191 -0.0809 -0.0241
 9552PP      PP19656   3.507   5.846   9.620 -0.1780  0.0322 -0.2599
 9553PP      PP19657  11.252  13.247   3.516  0.2924  0.1113  0.0202
 9554PP      PP19658   4.462  15.809   9.700  0.0102 -0.1099  0.2952
 9555PP      PP19659   2.933   7.921   2.502  0.2396  0.1644  0.0311
 9556PP      PP19660   4.111   5.986   9.647 -0.1582 -0.1886 -0.0577
 9557PP      PP19661   4.162  12.478   0.135  0.1984 -0.0404  0.2460
 9558PP      PP19662   7.680  15.205   9.481 -0.0614  0.1700 -0.2329
 9559PP      PP19663   3.934   0.101   3.353 -0.0801 -0.0871  0.5387
 9560PP      PP19664  11.409   5.658   0.242  0.1506 -0.1477  0.0284
 9561PP      PP19665   4.466   3.861   1.312  0.1536  0.0983  0.3862
 9562PP      PP19666   1.291   9.872   0.242  0.0772 -0.4504 -0.1685
 9563PP      PP19667   8.849  14.038   8.624 -0.4428  0.1215 -0.1857
 9564PP      PP19668   8.314   7.564   3.647 -0.1760 -0.2448 -0.3020
 9565PP      PP19669  10.946  13.271   3.114  0.1625  0.0699 -0.0767
 9566PP      PP19670   2.327  13.000   1.352  0.5343  0.4783  0.0890
 9567PP      PP19671   1.546   0.265   3.970 -0.1415  0.0015 -0.1686
 9568PP      PP19672  13.750  12.014   3.952  0.2715 -0.0695 -0.0603
 9569PP      PP19673  12.176   9.560   3.390 -0.0345  0.0640 -0.0077
 9570PP      PP19674  11.983   3.665   0.491 -0.0705  0.0753  0.1094
 9571PP      PP19675   6.160   9.647  13.150  0.0997 -0.0388 -0.0497
 9572PP      PP19676   1.203  13.296   3.115  0.1491 -0.1910 -0.2126
 9573PP      PP19677  12.312   8.907   3.195  0.4202 -0.1439  0.1146
 9574PP      PP19678   4.220   1.105   8.122  0.0289 -0.0098  0.1379
 9575PP      PP19679  12.591   7.968   1.548  0.1290 -0.3002 -0.0783
 9576PP      PP19680   2.857   5.507   4.302  0.4312  0.0645  0.0679
 9577PP      PP19681   8.619   1.360   2.829  0.1880  0.0954 -0.0859
 9578PP      PP19682   7.079   0.891   0.358  0.0463 -0.1334  0.2291
 9579PP      PP19683   3.467  15.250  11.088  0.0707  0.0960 -0.0088
 9580PP      PP19684   0.515   8.655   1.713 -0.0306  0.1301  0.0722
 9581PP      PP19685   2.154   4.771  12.474 -0.1516 -0.2367 -0.1399
 9582PP      PP19686   7.365   0.411   2.758 -0.2614  0.2646  0.2882
 9583PP      PP19687   0.115  10.018   2.544 -0.1544  0.1514  0.0208
 9584PP      PP19688  14.127   1.487  13.485  0.0789  0.6468  0.0232
 9585PP      PP19689   3.708  15.287  10.066 -0.0860 -0.1602  0.0413
 9586PP      PP19690  14.465  13.507   3.809 -0.1915  0.0135 -0.0371
 9587PP      PP19691  12.173   1.312   3.077 -0.3425 -0.1104  0.0759
 9588PP      PP19692   7.992   0.042   9.151  0.2380  0.0801 -0.0958
 9589PP      PP19693  13.042  12.609  10.750  0.2660 -0.0044  0.4683
 9590PP      PP19694  12.756   1.325  13.073  0.2863 -0.1229 -0.1919
 9591PP      PP19695   9.924   0.738  11.437 -0.1642 -0.1071 -0.1923
 9592PP      PP19696  15.266  11.934   4.418  0.3116 -0.1294 -0.1845
 9593PP      PP19697   6.518   5.144  12.308 -0.1099  0.2077  0.0948
 9594PP      PP19698   4.472  14.691   2.522 -0.1471 -0.2293 -0.1168
 9595PP      PP19699   1.856   4.144   1.503 -0.2357  0.2256  0.1312
 9596PP      PP19700   6.849   9.156   2.916 -0.0036 -0.0464 -0.0667
 9597PP      PP19701  15.089   0.079   0.893  0.0695  0.0833 -0.1441
 9598PP      PP19702   5.883   1.547   2.308  0.0541 -0.0415 -0.4051
 9599PP      PP19703  11.219  13.236   4.267  0.1913  0.1098  0.4498
 9600PP      PP19704  14.791   6.408  12.418 -0.0791  0.0657  0.0956
 9601PP      PP19705   5.236   5.076  13.389 -0.0274  0.0847  0.1405
 9602PP      PP19706  11.032   3.209   2.166 -0.1254 -0.0420 -0.0176
 9603PP      PP19707   4.178  11.926   9.161 -0.0162  0.0311  0.1564
 9604PP      PP19708  10.363   5.301  11.644 -0.1410 -0.3282  0.1111
 9605PP      PP19709   4.217   1.066   3.404 -0.0132  0.1927  0.3211
 9606PP      PP19710   1.471   7.983   5.049  0.2235 -0.1326  0.1969
 9607PP      PP19711   0.344   6.873  10.795  0.2926 -0.1016 -0.1504
 9608PP      PP19712   8.944   0.256  10.600 -0.0175 -0.2020 -0.2101
 9609PP      PP19713   9.147   7.452   8.849  0.0540 -0.0334 -0.0686
 9610PP      PP19714  13.050  10.501   0.338  0.0743  0.1530  0.0159
 9611PP      PP19715  11.776   3.287  11.743 -0.0587  0.1767  0.2005
 9612PP      PP19716  12.177   0.638   9.272  0.1155  0.1581  0.1566
 9613PP      PP19717  10.010   0.009  10.878 -0.0459 -0.2042 -0.0542
 9614PP      PP19718   2.547   7.197  12.086 -0.2713 -0.0758  0.0637
 9615PP      PP19719   6.752   9.206   4.031 -0.0280  0.0546  0.0221
 9616PP      PP19720   5.277  13.494   8.403 -0.2027  0.5306  0.0072
 9617PP      PP19721   7.555   0.564   1.172 -0.2498 -0.0306  0.5843
 9618PP      PP19722   0.293   7.825  11.981  0.0253 -0.4452 -0.2180
 9619PP      PP19723   2.561   7.891   2.903  0.2043 -0.1429 -0.0748
 9620PP      PP19724   8.806   6.049   0.240 -0.1642 -0.1119  0.1563
 9621PP      PP19725   7.446   6.632  10.927 -0.0270  0.0386 -0.1254
 9622PP      PP19726   5.698   3.977   9.347 -0.0614  0.0693 -0.1579
 9623PP      PP19727   1.788   0.213  10.811  0.0108  0.3727 -0.1083
 9624PP      PP19728   7.641   3.571   3.725 -0.2587  0.2268 -0.2638
 9625PP      PP19729  11.397  13.563   9.067 -0.1473 -0.0503 -0.0317
 9626PP      PP19730   1.802  12.137   2.322  0.0293  0.1703 -0.3094
 9627PP      PP19731   9.090   8.676   9.521 -0.0658 -0.0657  0.2344
 9628PP      PP19732  11.340  11.515   4.122 -0.4637 -0.0013  0.1535
 9629PP      PP19733   0.536   2.413   1.657  0.4133  0.3453 -0.1458
 9630PP      PP19734   3.247   9.689   1.536 -0.1581  0.2715  0.1756
 9631PP      PP19735   7.319  10.806  11.021  0.0165 -0.1781 -0.2041
 9632PP      PP19736   8.868  12.745   1.902  0.1413  0.0021  0.1060
 9633PP      PP19737   7.697   9.723   4.938  0.0301  0.1275  0.3446
 9634PP      PP19738  12.525   1.150  10.881  0.1134  0.3848 -0.0499
 9635PP      PP19739  12.927   1.779   9.854 -0.4296 -0.0624 -0.0526
 9636PP      PP19740   1.625  11.906   3.304 -0.2694  0.2003 -0.0297
 9637PP      PP19741   2.721  12.597   2.661 -0.2573  0.0062 -0.1002
 9638PP      PP19742  11.016  13.004   9.710  0.2244 -0.4378 -0.1511
 9639PP      PP19743   9.911  10.346   1.281  0.1450 -0.1426 -0.1472
 9640PP      PP19744   1.831  10.756   4.110 -0.3757 -0.1159  0.1654
 9641PP      PP19745   8.884  13.641   1.946 -0.0321  0.0967  0.0545
 9642PP      PP19746   6.790   5.718  11.859 -0.3650  0.3066 -0.1551
 9643PP      PP19747   5.049   8.649   3.489  0.1814 -0.1794 -0.0813
 9644PP      PP19748  10.123  14.287  11.726  0.0150 -0.4775 -0.1914
 9645PP      PP19749   5.561  14.831   1.604 -0.2700  0.1113 -0.0407
 9646PP      PP19750   8.178   4.449   2.890  0.1719 -0.0469 -0.3781
 9647PP      PP19751   1.621  13.107   3.440  0.2499  0.1796  0.2405
 9648PP      PP19752  10.118   6.832  10.120  0.1931  0.1012  0.1627
 9649PP      PP19753  13.922   4.098  11.850 -0.1134 -0.2607 -0.0402
 9650PP      PP19754   9.713   4.124   3.035 -0.1679  0.0077 -0.2689
 9651PP      PP19755  12.367   3.362   3.975 -0.2257  0.0882  0.1002
 9652PP      PP19756  14.722  14.024   3.496 -0.2074 -0.0182 -0.1986
 9653PP      PP19757  15.045  15.649  12.425  0.0716  0.0436  0.0262
 9654PP      PP19758   4.011  10.734   4.193 -0.2062  0.1598 -0.2567
 9655PP      PP19759  11.550  15.430   1.111  0.2185  0.0005 -0.0969
 9656PP      PP19760  11.547  14.993   9.460  0.0603 -0.0512 -0.1277
 9657PP      PP19761   9.101  14.264  12.058 -0.1269 -0.0461  0.0867
 9658PP      PP19762  10.111   8.399   3.691  0.0468 -0.1861 -0.2173
 9659PP      PP19763   8.802  11.213  12.291 -0.0865  0.0373 -0.0060
 9660PP      PP19764   4.935   2.563   2.495 -0.1794 -0.0764 -0.1189
 9661PP      PP19765  13.643  15.478   2.819  0.0882 -0.0045  0.0160
 9662PP      PP19766  13.485  15.727   2.242 -0.6666  0.0695 -0.0443
 9663PP      PP19767  11.672  11.156  12.933 -0.0139 -0.1980 -0.3605
 9664PP      PP19768   6.330   7.618   1.150  0.1794 -0.0638 -0.1550
 9665PP      PP19769   6.924   9.063  11.441 -0.1431  0.1163  0.1870
 9666PP      PP19770  12.049   9.616   4.053 -0.0672 -0.2721 -0.0376
 9667PP      PP19771   2.525   2.641  11.517 -0.0600 -0.1310 -0.1582
 9668PP      PP19772  11.905   2.018   9.204  0.4140 -0.1716 -0.1903
 9669PP      PP19773  14.763  15.416   1.891 -0.3161  0.1884 -0.0615
 9670PP      PP19774   7.344   7.820  13.289 -0.2998 -0.0974  0.0945
 9671PP      PP19775   8.607   9.686   2.871  0.1252  0.0073 -0.0167
 9672PP      PP19776   9.034   0.439   9.393 -0.3244 -0.2039  0.1185
 9673PP      PP19777   9.056   0.826  12.915  0.1852  0.1225  0.1387
 9674PP      PP19778   5.564   3.778  11.563 -0.0016 -0.0600  0.1035
 9675PP      PP19779   8.295   1.200   8.446 -0.1152 -0.0024  0.5298
 9676PP      PP19780   6.728  11.805   1.379 -0.3091  0.0285  0.0124
 9677PP      PP19781   2.635   1.458  10.173 -0.2423  0.3038  0.1483
 9678PP      PP19782  13.568  13.589   1.328 -0.1169 -0.2306 -0.1181
 9679PP      PP19783  12.601   1.410   2.841 -0.1336 -0.0599  0.0563
 9680PP      PP19784   1.029   0.102  10.146 -0.1877 -0.0367  0.0098
 9681PP      PP19785   6.408   2.971  12.762 -0.3978 -0.0811 -0.0992
 9682PP      PP19786  15.425  12.075   3.041  0.1041  0.1111 -0.1443
 9683PP      PP19787  11.802   6.125   2.823  0.0048  0.3142 -0.0454
 9684PP      PP19788  13.050   9.088   1.422 -0.1124 -0.1161  0.3785
 9685PP      PP19789   1.183   4.448  13.252 -0.1685 -0.0291 -0.1444
 9686PP      PP19790  10.676   8.672   1.188 -0.1874  0.0086  0.1449
 9687PP      PP19791   9.858  14.260  12.747  0.0453  0.0211 -0.0998
 9688PP      PP19792   7.161   8.460   2.201 -0.0271 -0.0699  0.1617
 9689PP      PP19793  15.488   4.075   9.233 -0.0164 -0.0267  0.0637
 9690PP      PP19794   4.134   9.683   5.400 -0.5388 -0.1090 -0.0567
 9691PP      PP19795   2.575  10.960   2.429 -0.1819  0.0462  0.1914
 9692PP      PP19796   7.466   9.626  12.046  0.1253 -0.0718 -0.0811
 9693PP      PP19797   1.395  13.381  13.397 -0.0900 -0.3794  0.0519
 9694PP      PP19798   0.270   8.209  13.259  0.2299  0.1769 -0.0440
 9695PP      PP19799   8.299  15.437   0.115 -0.2839  0.0025  0.0046
 9696PP      PP19800   4.872  14.640   2.912  0.1538  0.1482  0.3984
 9697PP      PP19801   5.727   2.688   3.055  0.0999  0.0549  0.1138
 9698PP      PP19802   1.983  14.122   3.879  0.3586  0.1028  0.0721
 9699PP      PP19803   3.747  12.317   3.057  0.0704 -0.0823 -0.2624
 9700PP      PP19804   4.625   2.170  10.116 -0.3308  0.3417 -0.0088
 9701PP      PP19805  15.323   0.572   9.054 -0.0508 -0.1113 -0.2635
 9702PP      PP19806   8.877  13.300   1.482  0.1386 -0.2427 -0.2128
 9703PP      PP19807   1.755  12.925   0.074  0.0152  0.3432  0.0780
 9704PP      PP19808   1.416   2.974   2.721  0.1988  0.0798  0.1114
 9705PP      PP19809  13.128  13.529   1.673 -0.2291 -0.2168 -0.1555
 9706PP      PP19810  15.167   6.790  12.443 -0.1054 -0.1477 -0.0751
 9707PP      PP19811   6.196  12.839  13.008  0.4623 -0.0338  0.1448
 9708PP      PP19812  13.737   5.965   4.425 -0.1084  0.1145  0.1331
 9709PP      PP19813   7.531   6.051   2.130 -0.2964  0.1361  0.1235
 9710PP      PP19814   3.502   6.539   9.977 -0.0886  0.0522  0.1357
 9711PP      PP19815  12.184   1.207  10.343 -0.1288  0.1411 -0.0783
 9712PP      PP19816   7.458   2.301   8.719 -0.4367 -0.0442 -0.4779
 9713PP      PP19817   7.988  12.978   3.614 -0.1553 -0.0070  0.1467
 9714PP      PP19818  14.766  14.431   9.691 -0.1718  0.1610 -0.1161
 9715PP      PP19819   2.862  11.997  11.967  0.0022  0.0443 -0.0114
 9716PP      PP19820  15.714   5.450   9.744  0.0157  0.1852  0.0960
 9717PP      PP19821  12.198   2.818   9.641  0.2996  0.0389 -0.1021
 9718PP      PP19822   0.060   8.305  11.018  0.3608  0.0029 -0.0080
 9719PP      PP19823   9.358   6.743   1.069 -0.1419 -0.0914  0.0884
 9720PP      PP19824   0.281   0.284   9.806  0.2417  0.2029 -0.1195
 9721PP      PP19825   1.826   8.592  12.795  0.0724 -0.3485  0.1168
 9722PP      PP19826   8.818   8.466   2.393  0.0880  0.1549  0.2593
 9723PP      PP19827  12.513   3.805   3.747  0.0812  0.2382  0.0346
 9724PP      PP19828   6.002  10.589   9.694  0.1719  0.0696  0.0209
 9725PP      PP19829  12.154  10.462   3.110 -0.0054  0.2236 -0.2110
 9726PP      PP19830   0.829   1.643   2.985  0.0509 -0.1613 -0.1211
 9727PP      PP19831  11.191  12.932   1.783 -0.2977  0.0328 -0.0124
 9728PP      PP19832  14.808   1.079   1.742 -0.1798 -0.1222  0.0899
 9729PP      PP19833   7.491   8.962   9.863  0.0759  0.0893 -0.0775
 9730PP      PP19834   2.126  15.338  13.376 -0.3490 -0.1028 -0.0420
 9731PP      PP19835  15.635   9.253   3.216  0.2431 -0.2243  0.0831
 9732PP      PP19836  10.903  14.009   2.416 -0.1048 -0.1478  0.0283
 9733PP      PP19837   7.515  14.467  10.885 -0.2009  0.1178 -0.0695
 9734PP      PP19838   3.889   5.473   3.876 -0.1746  0.0424  0.0199
 9735PP      PP19839  14.706  11.461  10.134 -0.1131 -0.1699 -0.0863
 9736PP      PP19840  11.079  12.052   1.491  0.2283  0.1022  0.2126
 9737PP      PP19841  10.210   7.450   0.003  0.0882 -0.0006  0.1059
 9738PP      PP19842   5.296  13.786  10.274  0.0375 -0.3150  0.1752
 9739PP      PP19843   8.148   2.317  13.367 -0.0975 -0.2734 -0.0366
 9740PP      PP19844  11.111   9.439   3.245  0.1363  0.1399  0.1571
 9741PP      PP19845   9.890  12.939   8.649 -0.1920  0.2462  0.1089
 9742PP      PP19846   9.949  10.398   1.824 -0.1825 -0.0522  0.1719
 9743PP      PP19847  11.557   9.488   2.657 -0.0425 -0.1945 -0.1005
 9744PP      PP19848   0.673   6.205   3.346 -0.4271 -0.1659 -0.0141
 9745PP      PP19849   6.483  12.696  10.842  0.0051 -0.1573  0.2877
 9746PP      PP19850  15.477   1.635  10.673 -0.1185 -0.2873  0.0648
 9747PP      PP19851   3.065  11.325  13.097 -0.1163 -0.1926  0.2143
 9748PP      PP19852   5.481  10.133  10.368  0.0612  0.2780 -0.3294
 9749PP      PP19853   4.473  15.025   8.223 -0.1734  0.2916  0.2518
 9750PP      PP19854  10.291  10.437   3.710  0.0654  0.0837  0.1356
 9751PP      PP19855   3.156   4.989   3.417 -0.2188 -0.0919 -0.1461
 9752PP      PP19856   1.310  15.601   0.389 -0.0607  0.0102 -0.1334
 9753PP      PP19857  12.448   3.685   0.253 -0.1045 -0.2319 -0.0784
 9754PP      PP19858   3.646  15.469   2.482  0.0446  0.1252  0.1445
 9755PP      PP19859   9.794   2.138   0.929  0.2959  0.2751  0.1155
 9756PP      PP19860   4.594  14.759  11.560 -0.0403 -0.2906  0.0411
 9757PP      PP19861  10.639   3.775  11.323 -0.3356  0.2172 -0.2117
 9758PP      PP19862  13.073  13.744  10.228 -0.1121  0.1892  0.0026
 9759PP      PP19863   0.826   2.398   2.414  0.2965  0.1691 -0.0319
 9760PP      PP19864  11.809   0.937  10.135 -0.1477  0.1206  0.2043
 9761PP      PP19865   6.491   0.690   2.471  0.2567  0.0198  0.3000
 9762PP      PP19866   9.261   8.677   2.974 -0.0118  0.1058 -0.0760
 9763PP      PP19867  11.432  12.619   4.102  0.0601 -0.1677 -0.0830
 9764PP      PP19868  11.446  13.264  10.708 -0.1304 -0.2635 -0.1091
 9765PP      PP19869  13.846   6.535  10.252 -0.0134  0.2797 -0.0910
 9766PP      PP19870   2.587  14.244   4.107 -0.3804  0.0370 -0.3089
 9767PP      PP19871  13.659  12.703  11.191 -0.0045 -0.1527 -0.2353
 9768PP      PP19872  14.034  12.809   0.548  0.0538  0.1629  0.0050
 9769PP      PP19873   4.995  11.627   3.990  0.0226  0.0631  0.0196
 9770PP      PP19874   1.739   7.300  10.090 -0.0560 -0.0839  0.0073
 9771PP      PP19875   6.499  12.653  10.329  0.1315 -0.3677  0.2916
 9772PP      PP19876  14.400  13.104  10.006  0.1054 -0.0750 -0.1177
 9773PP      PP19877   9.291   4.142  11.999 -0.1908  0.1062 -0.0278
 9774PP      PP19878   8.514  10.135  10.766  0.0793 -0.2312 -0.0036
 9775PP      PP19879  13.114  14.832  10.385  0.0632  0.1943  0.1791
 9776PP      PP19880  15.213   9.564   3.288 -0.1694 -0.0035 -0.4007
 9777PP      PP19881   3.318   3.592  11.606 -0.1025 -0.0394  0.0363
 9778PP      PP19882   0.699   8.880  11.247  0.4076  0.0478 -0.5266
 9779PP      PP19883  12.665   9.103  10.842  0.3349  0.2236  0.1653
 9780PP      PP19884   9.802   3.156  10.417 -0.3079 -0.4913 -0.0429
 9781PP      PP19885   3.401   7.518   4.308 -0.1706 -0.0739 -0.2120
 9782PP      PP19886  14.473   9.266   1.190 -0.2886  0.0717 -0.1319
 9783PP      PP19887  13.551  14.330  13.487 -0.0708 -0.1800  0.2997
 9784PP      PP19888   3.692   9.085   1.026 -0.1591  0.2932  0.3917
 9785PP      PP19889   5.928  13.433  12.789  0.3123  0.3521 -0.2446
 9786PP      PP19890   1.961   6.413   0.726  0.0483  0.3320 -0.0363
 9787PP      PP19891   3.384  13.235   4.189  0.1553  0.1928  0.3896
 9788PP      PP19892   8.022  13.351   9.938 -0.1992 -0.0323 -0.1961
 9789PP      PP19893   3.035   6.356   4.676  0.0703 -0.0225 -0.0085
 9790PP      PP19894   5.182   6.782   2.572 -0.2394 -0.1207  0.0984
 9791PP      PP19895   8.738  12.617   2.478 -0.2253 -0.0083 -0.4288
 9792PP      PP19896  11.873   5.108   9.164  0.1694 -0.1670 -0.0994
 9793PP      PP19897   2.729   3.490   2.788 -0.0258 -0.1716 -0.1233
 9794PP      PP19898  12.387   5.397  10.570  0.2615  0.1570 -0.1724
 9795PP      PP19899   6.707   2.084   9.924  0.0094  0.1179 -0.3238
 9796PP      PP19900   7.532   8.872   3.343  0.3824  0.0857 -0.1081
 9797PP      PP19901   0.343  15.796  11.078 -0.1560  0.0086 -0.1313
 9798PP      PP19902   4.291   7.424   2.944 -0.0637  0.2313 -0.1216
 9799PP      PP19903  14.078   4.531  10.648 -0.2302  0.0073 -0.0067
 9800PP      PP19904   4.290  14.279   7.880  0.2184 -0.1571 -0.0879
 9801PP      PP19905  14.782  10.085   1.317 -0.3152 -0.0163  0.1051
 9802PP      PP19906   8.991   8.303  10.581  0.4116 -0.0358 -0.2673
 9803PP      PP19907   1.827  15.576   2.898  0.0244 -0.0879  0.2409
 9804PP      PP19908   1.223  12.955  11.311 -0.1720 -0.2906 -0.1493
 9805PP      PP19909   0.643  15.382   0.642  0.1588 -0.0933  0.3228
 9806PP      PP19910   9.374   3.995   2.499 -0.3283 -0.2188 -0.0414
 9807PP      PP19911   2.736   0.456   8.989 -0.1118 -0.0807  0.2770
 9808PP      PP19912   3.553  12.135  10.817  0.2254  0.0035 -0.2774
 9809PP      PP19913   6.507   1.641   7.032 -0.4420 -0.1059 -0.0017
 9810PP      PP19914   5.850  14.849   1.184 -0.0651  0.2032 -0.1418
 9811PP      PP19915   7.647  13.765   9.795  0.2697  0.2438 -0.0864
 9812PP      PP19916   4.361   3.462   9.895  0.3898 -0.0393  0.1258
 9813PP      PP19917  11.283   8.552   0.533  0.3002 -0.1124  0.2084
 9814PP      PP19918   4.531  12.673   1.339  0.2959  0.0411  0.0173
 9815PP      PP19919   1.578   4.954  11.214  0.0127  0.2357 -0.0524
 9816PP      PP19920  13.897   9.932   3.639 -0.2941 -0.5627 -0.3479
 9817PP      PP19921   4.835   0.549  11.473 -0.0512 -0.2167  0.1420
 9818PP      PP19922   2.394   7.231   1.402 -0.1775  0.1127  0.2291
 9819PP      PP19923   0.137   6.235   4.463  0.2097 -0.1180 -0.0840
 9820PP      PP19924   7.255   8.530   0.183  0.0688 -0.2656 -0.1156
 9821PP      PP19925   8.431  15.773   8.272 -0.1860  0.0371  0.1514
 9822PP      PP19926   7.703   4.390  11.323  0.3443  0.0354  0.2386
 9823PP      PP19927  11.016  10.519  11.417  0.1041  0.4132  0.0481
 9824PP      PP19928  13.285  14.927   2.806  0.0296  0.1549  0.0851
 9825PP      PP19929   5.294   8.967   2.749  0.0876 -0.0372 -0.2579
 9826PP      PP19930  11.811  11.605  13.145  0.1297 -0.1979 -0.2345
 9827PP      PP19931  15.483  14.420  10.863  0.3262 -0.3469 -0.2409
 9828PP      PP19932  12.517   9.358   3.112 -0.1638 -0.2020 -0.1370
 9829PP      PP19933   9.785  14.513   9.532 -0.0056  0.0325  0.1341
 9830PP      PP19934   3.356   7.043   1.067 -0.2397  0.3996  0.1807
 9831PP      PP19935   8.314   4.483  13.228  0.0541  0.0512  0.2136
 9832PP      PP19936   1.382   5.896   4.824  0.2370  0.2384 -0.0060
 9833PP      PP19937  15.283   7.737  10.153  0.0485  0.0886 -0.3085
 9834PP      PP19938   5.713   4.962  12.412  0.1226 -0.0775 -0.0248
 9835PP      PP19939   9.756   5.776   9.063 -0.0223  0.2381 -0.0190
 9836PP      PP19940  15.808   5.110  12.412  0.1297 -0.0110 -0.0021
 9837PP      PP19941   7.940   4.645   3.673  0.1328 -0.0441 -0.0178
 9838PP      PP19942  12.829   2.584  10.411  0.0595  0.0365 -0.0704
 9839PP      PP19943  13.799   0.164   8.691 -0.1758  0.1171  0.2690
 9840PP      PP19944  13.848   9.794   4.662  0.1724  0.4131  0.0575
 9841PP      PP19945   3.200   0.747   3.687  0.0133 -0.1999 -0.0478
 9842PP      PP19946  13.454   3.511   0.473 -0.2462  0.2308 -0.2450
 9843PP      PP19947   3.369   2.545   9.194  0.0415  0.2863 -0.0526
 9844PP      PP19948   9.373   5.002   8.439 -0.3039  0.2639 -0.0043
 9845PP      PP19949   3.813  10.597  13.000 -0.0996  0.1055  0.2173
 9846PP      PP19950   9.958  14.283   3.546  0.1945 -0.0170  0.0979
 9847PP      PP19951   9.198   1.442  13.343 -0.1727 -0.1216  0.1745
 9848PP      PP19952   5.718  14.888   8.703  0.0250  0.5409 -0.2154
 9849PP      PP19953   0.034   2.542   3.020  0.0043  0.0434 -0.0187
 9850PP      PP19954   7.000  12.511   9.924  0.0797 -0.0071 -0.1625
 9851PP      PP19955   9.255   5.217  10.424  0.0087  0.0309  0.0693
 9852PP      PP19956   2.804  15.149   9.591  0.0438  0.2855  0.1885
 9853PP      PP19957   5.942   6.941   3.984 -0.0044  0.1595 -0.1461
 9854PP      PP19958   8.623   6.042  10.084 -0.4001 -0.1504 -0.2181
 9855PP      PP19959   2.128   9.795   0.229  0.1118  0.2288 -0.1207
 9856PP      PP19960   8.182   1.439   9.894  0.1274 -0.2883 -0.2727
 9857PP      PP19961   0.164  15.807   9.394 -0.2091 -0.0216 -0.3317
 9858PP      PP19962   9.581   4.418   0.808 -0.0772  0.2258 -0.2115
 9859PP      PP19963   8.255   0.055  11.816  0.2270  0.0731 -0.0780
 9860PP      PP19964   3.448   0.134   3.814 -0.1233 -0.1713 -0.0274
 9861PP      PP19965   4.381   4.840   3.568 -0.2393 -0.2050 -0.2677
 9862PP      PP19966  10.415   6.108   4.838 -0.2515 -0.4150  0.1365
 9863PP      PP19967   3.244   6.288   2.800 -0.2606 -0.0205 -0.0402
 9864PP      PP19968   8.618   6.659  13.517  0.0628  0.0350  0.0025
 9865PP      PP19969   5.822   8.289   9.805  0.1974 -0.3092 -0.1900
 9866PP      PP19970   6.430   4.747   1.869 -0.2102  0.1965  0.0004
 9867PP      PP19971  13.523  10.290   1.873 -0.1930  0.3242 -0.1434
 9868PP      PP19972   7.810   4.679  13.376 -0.0818  0.1710 -0.3688
 9869PP      PP19973  15.065  10.540   9.366 -0.1225  0.0258 -0.1819
 9870PP      PP19974  15.252   3.198   3.842  0.2052 -0.0691  0.2400
 9871PP      PP19975  10.397  12.395   0.799 -0.1252 -0.2106  0.1157
 9872PP      PP19976   9.851  15.553   9.511 -0.3116  0.0767 -0.3013
 9873PP      PP19977  10.993   1.665  11.752  0.0997  0.2207 -0.0657
 9874PP      PP19978   3.891   3.044  12.118  0.3145 -0.0228  0.0045
 9875PP      PP19979   6.391   8.703  10.833  0.1658  0.0954 -0.0365
 9876PP      PP19980  13.022   9.371  10.068 -0.4812 -0.1944 -0.2934
 9877PP      PP19981   6.780   1.785   8.776  0.2420  0.0452  0.0445
 9878PP      PP19982  10.986  14.074  13.344 -0.0845  0.1493  0.0650
 9879PP      PP19983  13.426   0.422   8.393  0.0074 -0.2703  0.2724
 9880PP      PP19984   6.525  11.615   9.031  0.0648  0.0309 -0.2389
 9881PP      PP19985  10.839   9.658   9.731 -0.1796  0.0089  0.1311
 9882PP      PP19986  15.472  10.020  10.700 -0.1165 -0.1370  0.0654
 9883PP      PP19987   6.122  10.816   4.063 -0.0864  0.0486  0.1013
 9884PP      PP19988   6.002   1.567   9.229  0.0596 -0.1947 -0.1477
 9885PP      PP19989   1.572   6.564   1.732 -0.2173 -0.1513  0.2925
 9886PP      PP19990   1.456   2.197  12.167 -0.1163  0.0537 -0.3115
 9887PP      PP19991   5.300  11.434   2.841 -0.1531 -0.0511  0.3270
 9888PP      PP19992   4.142   9.115   1.281  0.1171  0.1441 -0.0074
 9889PP      PP19993   0.244   6.243   0.805  0.0789  0.0016  0.2652
 9890PP      PP19994   3.849  14.894   0.780  0.1873  0.0397 -0.3404
 9891PP      PP19995   2.869  13.539   8.926 -0.4507  0.1136 -0.0615
 9892PP      PP19996  12.147   6.142   3.209  0.3128  0.0755  0.0165
 9893PP      PP19997  11.221   3.300  13.478 -0.2452 -0.1460  0.1246
 9894PP      PP19998  10.725   4.541   3.255  0.0984 -0.2917 -0.1978
 9895PP      PP19999   0.802   6.696   2.425  0.0737  0.1580  0.1458
 9896PP      PP20000   8.235   6.484   0.362 -0.1259 -0.0366  0.3982
 9897PP      PP20001  14.759   9.924  11.395  0.2037  0.0455 -0.1299
 9898PP      PP20002   9.131   7.808   1.385 -0.2190 -0.2092 -0.0817
 9899PP      PP20003  10.976   4.465   4.315  0.0112 -0.0164  0.1145
 9900PP      PP20004  15.290   9.927   5.403 -0.3220 -0.0153  0.0963
 9901PP      PP20005   5.191   3.762   1.189 -0.4038  0.3012  0.2910
 9902PP      PP20006  11.891  12.154  11.222 -0.0756 -0.1028  0.2769
 9903PP      PP20007  13.339   5.186  10.751 -0.0261 -0.1280 -0.2204
 9904PP      PP20008   9.190   5.817   8.709  0.1297 -0.2247 -0.4966
 9905PP      PP20009  11.220  14.255   2.824 -0.3097  0.0754 -0.0808
 9906PP      PP20010  12.752   1.881   1.092  0.1164  0.0934  0.2036
 9907PP      PP20011   5.468   6.087   5.027 -0.0282 -0.3324  0.4416
 9908PP      PP20012   9.961   7.900   3.985  0.3897 -0.0898  0.1334
 9909PP      PP20013  12.230  12.074   0.260 -0.1865  0.2020  0.0589
 9910PP      PP20014  12.291   3.435   2.590  0.2154  0.2520  0.0353
 9911PP      PP20015  13.676   8.168  11.049 -0.2229  0.0798 -0.2073
 9912PP      PP20016   4.231   3.858   2.375  0.1182 -0.1841  0.0294
 9913PP      PP20017   7.955   8.654   1.207  0.0611 -0.1108  0.0688
 9914PP      PP20018   8.240  15.182  12.307 -0.0725 -0.3479  0.0138
 9915PP      PP20019  13.383  14.402  12.951 -0.3595  0.1203 -0.0485
 9916PP      PP20020  12.185   8.865   1.008 -0.0630 -0.1405 -0.3295
 9917PP      PP20021   9.679  12.759   3.713  0.0707  0.0456  0.2754
 9918PP      PP20022   9.808   6.121   0.239 -0.6964 -0.1609 -0.4172
 9919PP      PP20023  13.277   6.119   9.570  0.3362  0.0335 -0.0705
 9920PP      PP20024  12.587   9.573   3.862  0.1293 -0.0744  0.0081
 9921PP      PP20025   8.950   6.432   1.055 -0.0589  0.3268  0.0985
 9922PP      PP20026   8.391  11.252   2.068 -0.2260  0.1380 -0.3163
 9923PP      PP20027   2.835  13.162  12.437  0.1775 -0.0495 -0.1792
 9924PP      PP20028   2.761  12.138  11.412  0.0188  0.1385  0.1290
 9925PP      PP20029   7.859   9.010   2.063 -0.3407 -0.1613 -0.2447
 9926PP      PP20030   8.407   5.727   8.820  0.0403  0.1338 -0.1463
 9927PP      PP20031  11.780   6.983   2.936  0.1619 -0.2586 -0.1238
 9928PP      PP20032  13.415   4.628   0.493  0.1675  0.0449  0.1657
 9929PP      PP20033  10.055  10.771   2.284  0.3869  0.1165 -0.0207
 9930PP      PP20034   3.771  10.396  11.120  0.1147  0.2736 -0.3091
 9931PP      PP20035  12.821  15.298   9.389  0.0872 -0.1463 -0.1127
 9932PP      PP20036   3.244   6.331   9.405  0.0612 -0.0376  0.4667
 9933PP      PP20037   9.503   6.784  12.270  0.0447 -0.2801 -0.3249
 9934PP      PP20038  13.529  14.600   4.174 -0.0006 -0.1000  0.3521
 9935PP      PP20039   4.690   4.195   1.760 -0.0785 -0.1017  0.1459
 9936PP      PP20040   6.410   1.824   8.218  0.0090  0.3947  0.1616
 9937PP      PP20041   4.986   8.194  11.877 -0.3607  0.0175  0.1286
 9938PP      PP20042  10.796   0.285   3.419 -0.0921  0.0727 -0.1188
 9939PP      PP20043  13.687   0.526   9.440 -0.2817 -0.0956 -0.2019
 9940PP      PP20044   5.507  12.255  12.108 -0.1127  0.2991  0.0931
 9941PP      PP20045   1.437   5.737   4.003 -0.0698  0.0879 -0.3034
 9942PP      PP20046   8.983   2.615   1.645  0.2436 -0.3024 -0.0709
 9943PP      PP20047   4.172   6.935  12.221 -0.1987  0.0013 -0.1075
 9944PP      PP20048   7.969   7.297   0.652  0.2398  0.0964  0.2076
 9945PP      PP20049   2.049   6.631   1.918  0.0667  0.3686  0.1357
 9946PP      PP20050   3.032   4.738  11.015 -0.2349  0.1787  0.1286
 9947PP      PP20051   9.678  15.516   2.441  0.3604  0.0827  0.0038
 9948PP      PP20052   9.481   3.261   0.062  0.0481  0.1490 -0.0494
 9949PP      PP20053   1.055   1.891  11.329 -0.0722  0.2279  0.1882
 9950PP      PP20054  12.181   0.812   8.801  0.0255  0.2460 -0.2608
 9951PP      PP20055   9.510   8.827   9.307 -0.0571 -0.0592  0.2456
 9952PP      PP20056   0.977   5.336  12.304 -0.1462  0.0767  0.0899
 9953PP      PP20057   6.175   5.715   2.816  0.0926 -0.2002  0.0369
 9954PP      PP20058   6.353   7.681   0.569 -0.1381 -0.3346  0.1585
 9955PP      PP20059  13.286  15.687  13.524 -0.0216 -0.0183  0.3485
 9956PP      PP20060   6.087   6.973   1.914 -0.0191  0.1041 -0.0277
 9957PP      PP20061  11.760   4.720  11.075 -0.1577 -0.2199  0.2112
 9958PP      PP20062   2.386   6.946   1.829  0.0532  0.1786 -0.0006
 9959PP      PP20063   9.584   4.169   9.834  0.0844 -0.0172 -0.1905
 9960PP      PP20064   5.534  12.854   0.687  0.1084  0.2242 -0.0061
 9961PP      PP20065   3.346   6.989  11.603  0.2887  0.2957 -0.0313
 9962PP      PP20066   2.949   8.177  11.106  0.1126  0.1702  0.3596
 9963PP      PP20067   6.763  13.668   1.418 -0.3565 -0.1938  0.0955
 9964PP      PP20068   3.863   4.545   4.400 -0.1423 -0.0375 -0.2495
 9965PP      PP20069  15.792   0.659  11.007  0.2109 -0.2205 -0.0848
 9966PP      PP20070   0.673   9.077   3.379  0.0730  0.0448 -0.0172
 9967PP      PP20071   6.197   1.673  11.116  0.0655  0.2276  0.0745
 9968PP      PP20072   0.459  12.401  11.473  0.0919 -0.2534 -0.3333
 9969PP      PP20073   9.882  10.688  10.825 -0.1593 -0.0266  0.0494
 9970PP      PP20074  14.522   4.428   1.875 -0.0491 -0.0161  0.0684
 9971PP      PP20075   1.583  10.684  12.732 -0.1451  0.3474  0.1619
 9972PP      PP20076  15.106   3.947   3.103  0.0795  0.0935  0.3552
 9973PP      PP20077   1.938   5.393   4.143 -0.5505  0.1631  0.3519
 9974PP      PP20078   2.147   4.174  13.245 -0.0783 -0.1138 -0.4576
 9975PP      PP20079   5.452  14.411  12.743 -0.0145  0.0764 -0.2117
 9976PP      PP20080   7.532   8.985  10.473 -0.0018  0.3436 -0.1293
 9977PP      PP20081   6.244   4.850  11.441  0.1217  0.1563 -0.1665
 9978PP      PP20082  10.186   1.077   3.631  0.1732  0.4137  0.1288
 9979PP      PP20083   3.234   9.003  13.218  0.5220 -0.1335 -0.3097
 9980PP      PP20084  15.339  11.701   9.402 -0.0786 -0.2194  0.1131
 9981PP      PP20085  14.157   8.602   1.584 -0.0372 -0.4329  0.1486
 9982PP      PP20086  11.579   2.147   8.817 -0.0625  0.1072  0.0629
 9983PP      PP20087   3.606   5.206  10.312  0.0683 -0.1940  0.0503
 9984PP      PP20088  14.213   2.055  12.325  0.0524 -0.2004  0.0859
 9985PP      PP20089  14.137   2.131   8.631 -0.0973 -0.1203  0.4059
 9986PP      PP20090   8.220   0.081  10.968 -0.1513 -0.1704  0.2093
 9987PP      PP20091  12.342   4.737   4.711  0.1319 -0.0922  0.1877
 9988PP      PP20092   0.015   1.885  12.684  0.4410  0.2524  0.0169
 9989PP      PP20093   5.607  12.517   4.054  0.0124 -0.0710 -0.0920
 9990PP      PP20094  11.611   5.669  11.402 -0.2069  0.1691 -0.1170
 9991PP      PP20095  15.261   6.603  10.421  0.2248 -0.3131  0.0280
 9992PP      PP20096   8.755  14.682   3.683 -0.0102  0.2556  0.0767
 9993PP      PP20097   6.050  13.383   9.685  0.0143  0.2307  0.0910
 9994PP      PP20098   4.049  12.259   9.514  0.3719 -0.4706  0.0219
 9995PP      PP20099   3.788   4.185   0.361  0.1391 -0.0909 -0.0234
 9996PP      PP20100   2.208   4.401  10.800 -0.0174 -0.2493  0.1771
 9997PP      PP20101  12.133   6.249  10.972  0.0455 -0.2632 -0.2645
 9998PP      PP20102  12.125  14.654   4.074 -0.1558 -0.0080 -0.2630
 9999PP      PP20103  10.419   1.804   2.481 -0.0772 -0.0849  0.0867
10000PP      PP20104   8.933  12.500  12.487  0.0568 -0.0047 -0.0011
10001PP      PP20105   0.479  12.215   0.889  0.0919 -0.2006 -0.1380
10002PP      PP20106  10.778   2.862   2.422  0.2991  0.2132 -0.0799
10003PP      PP20107  12.425   9.944   4.230 -0.3892  0.0198 -0.0534
10004PP      PP20108   6.079  10.989  10.041 -0.1633  0.2043  0.2800
10005PP      PP20109   9.875  12.482  12.498 -0.1717  0.0832 -0.2417
10006PP      PP20110   1.998   3.798   2.323 -0.1223 -0.0723 -0.0120
10007PP      PP20111   5.960  12.680   3.665  0.1273  0.1460  0.0073
10008PP      PP20112   1.396  13.549   0.577 -0.1055  0.0036  0.4123
10009PP      PP20113   6.700   8.742   1.852 -0.0097 -0.3238 -0.0501
10010PP      PP20114  10.696   0.884   9.837  0.2588  0.1311 -0.1249
10011PP      PP20115   8.398   8.738  10.152 -0.2822 -0.0577  0.0096
10012PP      PP20116  15.219  12.239   1.120 -0.2378  0.1448 -0.0572
10013PP      PP20117   6.977  12.676  10.474 -0.1738 -0.2324  0.1550
10014PP      PP20118  11.567   7.410   4.147  0.0991  0.2948 -0.1006
10015PP      PP20119   7.114   8.232   0.683 -0.0787 -0.0255  0.0331
10016PP      PP20120   0.116  12.326   0.420  0.1859  0.0927  0.1944
10017PP      PP20121   0.477  14.924  11.104  0.2551 -0.0360 -0.0069
10018PP      PP20122  12.646   3.642   1.883 -0.0795 -0.2841  0.0135
10019PP      PP20123   9.201   1.698   9.946 -0.1255 -0.0544  0.0632
10020PP      PP20124  12.569   5.552  11.012 -0.2008  0.0836 -0.2489
10021PP      PP20125   2.211   4.013   2.719 -0.1914 -0.1358 -0.0235
10022PP      PP20126   0.523   0.225   2.777  0.4769  0.1530 -0.0517
10023PP      PP20127  15.078   9.437  11.338  0.1432 -0.0089 -0.3740
10024PP      PP20128   8.233   2.351   4.047  0.0322  0.1746  0.0690
10025PP      PP20129   0.548  10.110  13.276  0.1365 -0.0740  0.0646
10026PP      PP20130  14.088   2.943  12.785  0.4049  0.0116  0.2288
10027PP      PP20131   9.360  10.151   1.335 -0.2898 -0.2078  0.0307
10028PP      PP20132   2.793  10.101  10.908 -0.0961  0.0922 -0.1935
10029PP      PP20133  13.399  14.412  12.425 -0.0662 -0.1330  0.4323
10030PP      PP20134  11.194  14.565   2.100 -0.2935 -0.1347 -0.4081
10031PP      PP20135   0.184   4.499   1.241  0.0334 -0.2269  0.0893
10032PP      PP20136   4.597   3.004   4.122 -0.0466 -0.1323 -0.1454
10033PP      PP20137   1.309   1.317   8.172 -0.2775 -0.1554 -0.0722
10034PP      PP20138   2.524  10.329   4.801  0.2183  0.0400  0.2009
10035PP      PP20139   9.676   7.584   8.812  0.0783 -0.2046  0.0822
10036PP      PP20140   1.025   7.943   4.777 -0.2452 -0.2516 -0.1025
10037PP      PP20141   9.286   1.968   9.466  0.0587  0.0618 -0.3746
10038PP      PP20142  10.106  15.101   0.315 -0.0395 -0.0137  0.2030
10039PP      PP20143   1.255   9.566   3.306 -0.1445 -0.1515 -0.0578
10040PP      PP20144   3.590   6.834  10.656 -0.1408 -0.1012 -0.1395
10041PP      PP20145  15.040  10.467   0.702  0.2868 -0.1808 -0.1571
10042PP      PP20146  13.774   7.405   1.134  0.1499  0.2075 -0.2955
10043PP      PP20147  14.018   7.637   0.757  0.2926  0.0689  0.1998
10044PP      PP20148  11.682   1.552   0.232 -0.0587  0.2583  0.0297
10045PP      PP20149   1.406   7.269   0.996 -0.2990  0.0875  0.0392
10046PP      PP20150   0.652   1.295  11.616  0.3128  0.0678 -0.1189
10047PP      PP20151  10.974   9.638   0.217 -0.3278  0.2200  0.1809
10048PP      PP20152   0.607  12.651   1.140  0.1369  0.0545 -0.2894
10049PP      PP20153  14.937   4.823   9.904 -0.0361  0.1335 -0.2529
10050PP      PP20154  13.704  14.824  12.138  0.3884  0.3803 -0.0332
10051PP      PP20155  15.060   0.767  10.477 -0.2710  0.0936 -0.1346
10052PP      PP20156   5.835  15.723   0.578  0.3802 -0.0363 -0.0749
10053PP      PP20157  15.713   6.923  12.804  0.1198 -0.0357 -0.1217
10054PP      PP20158   6.464   8.254   4.015  0.1154 -0.1364  0.1792
10055PP      PP20159   8.782   3.953   1.810 -0.2526 -0.0414  0.3941
10056PP      PP20160   7.480  12.838   8.697  0.1115 -0.0041 -0.0381
10057PP      PP20161   9.420   3.342  12.548 -0.1097 -0.0922  0.0806
10058PP      PP20162  15.314   5.600   2.993 -0.0757  0.2101  0.0035
10059PP      PP20163   1.661   4.189  10.113 -0.0690 -0.2538 -0.3401
10060PP      PP20164   4.922   2.181  11.955  0.0022 -0.4891  0.0093
10061PP      PP20165   8.696  10.871   4.127 -0.2305 -0.3912 -0.0699
10062PP      PP20166  11.302  11.959   0.448  0.1710 -0.0365 -0.0001
10063PP      PP20167  13.257  12.886   4.154 -0.1294 -0.1914  0.1385
10064PP      PP20168  11.271   6.690   4.947  0.0605 -0.0058  0.0666
10065PP      PP20169   6.559   7.130   9.415  0.1337  0.2139  0.2943
10066PP      PP20170   6.242   6.656   9.019 -0.1082 -0.3600 -0.0403
10067PP      PP20171   5.167   1.057   2.620 -0.0435  0.0199 -0.1241
10068PP      PP20172   1.205  14.711   2.470  0.2535 -0.0553  0.1177
10069PP      PP20173   4.778   0.207   1.313 -0.0556 -0.3272  0.1505
10070PP      PP20174  15.314   6.886   4.387 -0.2911  0.1744 -0.0305
10071PP      PP20175  11.443  15.070  12.810 -0.3358  0.1364 -0.0292
10072PP      PP20176   0.488  12.528   4.090  0.0304  0.0531  0.0584
10073PP      PP20177   8.265  12.948  10.143  0.0571  0.1670  0.2210
10074PP      PP20178   1.657   6.301   2.151 -0.0258  0.2575 -0.0265
10075PP      PP20179  15.608   5.335   0.735  0.3056 -0.0571 -0.0809
10076PP      PP20180   3.273   5.494  13.323  0.0152  0.5194 -0.3225
10077PP      PP20181   0.800   9.885   1.028 -0.0219 -0.2774  0.1370
10078PP      PP20182   2.967   3.457   2.226  0.2145 -0.4639  0.1664
10079PP      PP20183   1.480   1.315   8.642  0.0924 -0.3178  0.0756
10080PP      PP20184  10.484  14.178   1.577  0.1512 -0.2343 -0.0031
10081PP      PP20185  10.040   9.625  11.108  0.0806  0.1243  0.2081
10082PP      PP20186  14.928   5.781   0.545  0.2167 -0.1412 -0.2270
10083PP      PP20187   0.299   7.346   3.023  0.2481 -0.0179 -0.1605
10084PP      PP20188  14.495   5.350   3.316 -0.0301 -0.2571 -0.0922
10085PP      PP20189  13.934   6.984  11.918  0.2199  0.0726  0.1054
10086PP      PP20190   7.270   7.380   0.913  0.1343  0.0850 -0.0352
10087PP      PP20191   6.882  13.352  12.451 -0.0095 -0.0229  0.2605
10088PP      PP20192  10.355   5.733  10.070  0.0019 -0.1136  0.0582
10089PP      PP20193   5.752   0.861   7.822  0.0869 -0.2130  0.1294
10090PP      PP20194   2.907   3.602  13.519  0.2962 -0.0843 -0.1506
10091PP      PP20195   7.575  11.514   0.522 -0.2546  0.0641  0.2335
10092PP      PP20196  15.485   4.206   2.936 -0.2523 -0.0781  0.2194
10093PP      PP20197   0.921   5.952   1.253  0.1844 -0.0662 -0.3838
10094PP      PP20198   7.380   2.185  13.318  0.0231 -0.0866 -0.0917
10095PP      PP20199   2.635  10.504  10.436  0.3549 -0.1778  0.0016
10096PP      PP20200   6.376  12.717  12.487 -0.1154  0.2157 -0.2629
10097PP      PP20201  11.586  13.640   0.801 -0.0669  0.1780 -0.0401
10098PP      PP20202  13.327   3.007   0.448 -0.1199  0.0138  0.3146
10099PP      PP20203  13.833  14.883   1.431  0.2325 -0.1560  0.0028
10100PP      PP20204   8.010   9.479   2.062 -0.0949  0.1906 -0.3302
10101PP      PP20205  13.538   2.566   9.107  0.1415  0.1249  0.0629
10102PP      PP20206   3.101  10.291  13.485 -0.1043 -0.1370 -0.1437
10103PP      PP20207   8.228   7.969   9.620  0.1046 -0.1498  0.0091
10104PP      PP20208   7.399   7.085   8.678 -0.0346 -0.1331  0.1365
10105PP      PP20209   0.674   2.000  13.412 -0.0343  0.1330 -0.1574
10106PP      PP20210   3.241   0.250   9.559  0.0527 -0.1992  0.0176
10107PP      PP20211   0.278   3.765  12.301  0.0167 -0.1251  0.1792
10108PP      PP20212  13.182  15.071  11.274 -0.1692  0.0368 -0.1069
10109PP      PP20213   4.959   5.094   3.661 -0.1411  0.3882  0.1428
10110PP      PP20214   6.482   5.138  10.389 -0.2805  0.0983 -0.2510
10111PP      PP20215  12.656   6.043   3.127  0.1316  0.0892 -0.1611
10112PP      PP20216   2.901  13.930   1.354  0.0998 -0.0419 -0.1172
10113PP      PP20217   1.808   0.329   9.000  0.1031  0.2536  0.0477
10114PP      PP20218   9.174   7.005  10.698  0.0637  0.0886 -0.1111
10115PP      PP20219   6.021   4.685   9.245 -0.1717 -0.0257  0.0753
10116PP      PP20220   9.794  10.855   8.811  0.0802 -0.1910 -0.1714
10117PP      PP20221   0.632  14.681   2.680  0.0418  0.0388 -0.0334
10118PP      PP20222   9.229   9.069   3.365 -0.1406 -0.2650 -0.2803
10119PP      PP20223   1.505   0.700  10.865 -0.2499 -0.0885  0.1699
10120PP      PP20224  10.374   0.842   4.156 -0.0579  0.2222 -0.0822
10121PP      PP20225   9.007   4.390  13.377 -0.1649  0.1078 -0.1915
10122PP      PP20226   9.616  11.536   1.720  0.2834  0.0012  0.2690
10123PP      PP20227   7.978   6.482   9.181 -0.1365 -0.1248 -0.1820
10124PP      PP20228  10.850   8.517   2.858 -0.2526  0.2269  0.1384
10125PP      PP20229   0.413   1.569   9.755  0.0488 -0.0123 -0.0163
10126PP      PP20230  10.990   1.252   9.380 -0.2124  0.1576  0.1779
10127PP      PP20231  11.124   5.220   9.967 -0.0325  0.0738 -0.1503
10128PP      PP20232  10.994  12.342  12.771 -0.1017  0.0751 -0.0014
10129PP      PP20233   1.958  12.559  12.690 -0.3074  0.2753 -0.1076
10130PP      PP20234  15.650   2.679  10.503 -0.0101 -0.1276  0.1231
10131PP      PP20235   8.410   8.204   2.289 -0.0954  0.0055 -0.2255
10132PP      PP20236   0.079   8.031   4.869  0.2336  0.0392 -0.2928
10133PP      PP20237   5.016   5.400   0.125 -0.1512 -0.0943 -0.2407
10134PP      PP20238   1.804   4.985   5.155  0.0547 -0.2034  0.1834
10135PP      PP20239   0.601  15.347  12.780 -0.1448  0.1178  0.1355
10136PP      PP20240  10.522  10.753   2.332 -0.2596  0.0397  0.0195
10137PP      PP20241   6.133   7.990  12.887 -0.0673  0.1253  0.1042
10138PP      PP20242   8.270   7.149  13.347  0.2615 -0.0395  0.2009
10139PP      PP20243   7.921  15.338   2.886  0.1393 -0.1544 -0.0986
10140PP      PP20244  14.488   0.602  12.399 -0.1379  0.3640 -0.0338
10141PP      PP20245  15.071   0.772  12.763  0.0659 -0.3773 -0.0822
10142PP      PP20246   7.805  12.002   2.385 -0.1346  0.0255 -0.3554
10143PP      PP20247  11.999   0.635   0.576  0.0027  0.2511 -0.3352
10144PP      PP20248   7.506   5.259   1.434  0.0674  0.0858  0.1933
10145PP      PP20249   6.884   3.738   9.884  0.1141  0.0506  0.1037
10146PP      PP20250   1.278   4.448   0.708  0.2843 -0.1188 -0.3771
10147PP      PP20251   5.676  14.330   1.825  0.3477  0.1290 -0.0807
10148PP      PP20252  15.119  14.746   1.051  0.1343 -0.3272 -0.0817
10149PP      PP20253   2.246   1.424   1.798 -0.0796 -0.2395 -0.2087
10150PP      PP20254   4.462   2.031  11.190 -0.3176 -0.0329  0.0511
10151PP      PP20255  11.037  15.374   4.009  0.1196 -0.1897  0.1467
10152PP      PP20256  14.562   5.012  12.861  0.1241 -0.0257 -0.3814
10153PP      PP20257  13.965   1.305   9.146  0.0514 -0.1274 -0.1772
10154PP      PP20258  14.116  11.221   4.848  0.1628  0.0019 -0.3164
10155PP      PP20259   4.457   5.320   3.857 -0.1930 -0.6250 -0.3420
10156PP      PP20260   1.786  14.779   1.464  0.0419  0.0768  0.1849
10157PP      PP20261  11.738   6.591   9.461 -0.2683 -0.1738 -0.2184
10158PP      PP20262   4.038   3.109  10.132 -0.0813  0.1557  0.0110
10159PP      PP20263  12.460   0.507  11.319 -0.1554 -0.0386 -0.0384
10160PP      PP20264   1.777   9.562   5.619 -0.1049 -0.1670 -0.0226
10161PP      PP20265  15.471   8.788   3.738 -0.0003 -0.1555 -0.0965
10162PP      PP20266  12.887  15.472  12.358  0.0119  0.0901 -0.0203
10163PP      PP20267   7.160   0.038  12.511  0.1416 -0.2283 -0.0418
10164PP      PP20268   3.007  12.109   1.802 -0.0478 -0.0316 -0.0593
10165PP      PP20269   3.302   0.532  13.086  0.1079 -0.1939 -0.1354
10166PP      PP20270   8.434   4.006  13.091  0.0087  0.1628 -0.0638
10167PP      PP20271   2.205   8.364  11.766 -0.1331  0.6142  0.0392
10168PP      PP20272   5.273   0.279   1.983 -0.1039  0.2306 -0.2893
10169PP      PP20273   7.063  13.774   0.539  0.3142 -0.1116  0.2335
10170PP      PP20274  13.513  12.853  10.430 -0.0736 -0.1839  0.2869
10171PP      PP20275  11.991  14.232   2.481  0.1585  0.0663 -0.2739
10172PP      PP20276  11.811   1.770   9.981 -0.1825 -0.0999 -0.0820
10173PP      PP20277  15.218   5.245  13.093 -0.0620  0.1051  0.0679
10174PP      PP20278   8.942  13.674   3.059 -0.1262 -0.1058 -0.1365
10175PP      PP20279   3.408   3.777   3.237  0.0811  0.0940  0.0309
10176PP      PP20280   3.502  13.681   0.850 -0.2118  0.1948  0.1173
10177PP      PP20281   6.174   9.383   0.970  0.1124  0.0928 -0.1178
10178PP      PP20282  11.965   1.686  10.499 -0.2491  0.0465  0.0624
10179PP      PP20283  13.455   6.516   1.397 -0.0786 -0.0899 -0.0810
10180PP      PP20284  14.513   0.081  13.306  0.0607  0.0848 -0.1497
10181PP      PP20285   5.335   4.707  11.451 -0.1533 -0.0014  0.3459
10182PP      PP20286  11.003   5.760  13.047  0.0803  0.1670 -0.1218
10183PP      PP20287   6.287   4.268   4.218 -0.1812  0.1228 -0.1628
10184PP      PP20288   5.420   3.774  12.464 -0.0696  0.1466  0.1001
10185PP      PP20289   5.120  14.938   0.432 -0.0355 -0.0038 -0.1467
10186PP      PP20290  14.815   3.214  10.178  0.0128  0.3819  0.0829
10187PP      PP20291  12.005  12.204   9.648 -0.0367  0.1968 -0.0960
10188PP      PP20292   2.633   7.723   0.646  0.1559 -0.1415  0.0707
10189PP      PP20293  14.009   8.597   0.223  0.1968  0.1103 -0.0905
10190PP      PP20294   1.940  15.105   1.067  0.2158  0.0246  0.2262
10191PP      PP20295   4.742   0.781   3.278  0.1502 -0.1348  0.2083
10192PP      PP20296  12.091   0.252  11.638  0.0127  0.1255 -0.1563
10193PP      PP20297  11.611   6.893   9.966 -0.1346 -0.1974 -0.1965
10194PP      PP20298  14.328   8.638  12.876 -0.1614  0.1433  0.2783
10195PP      PP20299   1.548   4.891  10.083  0.0567 -0.0808  0.2104
10196PP      PP20300   8.461  10.982   1.548 -0.2539 -0.0937  0.1046
10197PP      PP20301  11.726   3.156   0.672  0.0935 -0.3046  0.0938
10198PP      PP20302   0.582   3.234   2.910  0.0325  0.0002  0.0007
10199PP      PP20303   8.305   3.293   2.285  0.0543  0.0838 -0.0099
10200PP      PP20304   6.450  11.138   4.318 -0.0638 -0.0915  0.0686
10201PP      PP20305   8.624   5.833   8.147  0.2107  0.1629  0.0052
10202PP      PP20306   5.199  15.301  11.013  0.0513  0.1736 -0.1355
10203PP      PP20307  11.249   3.354  10.904 -0.1014 -0.0994  0.1575
10204PP      PP20308   0.566   5.585  12.143  0.2545 -0.2443  0.3960
10205PP      PP20309   8.213   6.851   4.025 -0.1415 -0.0152  0.2985
10206PP      PP20310   4.463  10.128  13.427  0.0224 -0.0213  0.0092
10207PP      PP20311  13.248   7.736  12.001 -0.0239 -0.1603  0.0053
10208PP      PP20312   0.256   7.414  11.046  0.0671 -0.3078  0.1184
10209PP      PP20313  10.263   3.523   3.611  0.2393 -0.0759  0.0938
10210PP      PP20314   1.994   0.692   3.129  0.3256  0.0125 -0.0915
10211PP      PP20315   3.400   2.975   3.032 -0.1052  0.0339 -0.0912
10212PP      PP20316  10.667  10.088  12.998 -0.1074 -0.0405 -0.0097
10213PP      PP20317   0.604   1.348   8.744 -0.1696  0.1761 -0.2249
10214PP      PP20318   5.737  14.906   2.490  0.0111  0.0423 -0.0343
10215PP      PP20319   9.666   1.919   9.776  0.3481 -0.1140  0.0529
10216PP      PP20320   8.620  10.494   2.487 -0.0077 -0.1176 -0.1809
10217PP      PP20321  15.598   8.093  13.404  0.0921  0.0986  0.0668
10218PP      PP20322  14.615   4.161   0.283  0.1939  0.0883 -0.0927
10219PP      PP20323   2.335   5.277   0.893 -0.3408 -0.0265 -0.0988
10220PP      PP20324   2.121   6.805   1.343  0.3928  0.2221  0.1878
10221PP      PP20325  11.807  14.333  10.364  0.1906  0.2258 -0.0614
10222PP      PP20326   8.836  13.273   9.358  0.1402  0.0319  0.1828
10223PP      PP20327   6.221  11.758   8.662 -0.1372  0.2940 -0.2401
10224PP      PP20328   9.878   5.570  13.426  0.4086  0.2274 -0.1275
10225PP      PP20329  15.588   6.358  10.142 -0.3330  0.0027  0.0947
10226PP      PP20330   2.207  10.325   3.050  0.0248 -0.1264  0.0422
10227PP      PP20331   5.699  11.189  12.529  0.3394  0.4449 -0.1926
10228PP      PP20332   3.773   8.456   3.235 -0.0767  0.1970  0.1246
10229PP      PP20333  14.503   3.755   0.567  0.1525  0.0415 -0.0545
10230PP      PP20334   2.957   3.985  10.449  0.1438  0.0707 -0.1770
10231PP      PP20335  13.711   6.041   1.486 -0.0518  0.0324 -0.1811
10232PP      PP20336  11.941   7.888   5.190  0.0919 -0.0555 -0.2015
10233PP      PP20337  10.748   7.208   3.797  0.0216 -0.3520 -0.0430
10234PP      PP20338  11.508   2.341   0.570 -0.0980 -0.1746  0.2221
10235PP      PP20339  10.458  10.810  10.184  0.1989  0.3514 -0.2200
10236PP      PP20340   4.507  12.575   0.565 -0.2193  0.0288 -0.0030
10237PP      PP20341  15.375  11.271   2.153 -0.3135 -0.1562  0.0439
10238PP      PP20342  14.736   6.493   0.141  0.1342  0.1934 -0.0384
10239PP      PP20343  11.566   1.322   2.900 -0.0162  0.2655  0.2924
10240PP      PP20344   2.828  10.639   4.455  0.1720  0.0426 -0.0388
10241PP      PP20345   2.136  15.067   0.644  0.2553  0.2147 -0.3570
10242PP      PP20346   3.370  10.774   3.592 -0.2129  0.1371  0.4144
10243PP      PP20347   8.426  11.568  10.638  0.1782 -0.2786  0.0308
10244PP      PP20348   9.098   6.616   8.871  0.0417 -0.1853 -0.3392
10245PP      PP20349   4.473   6.661  10.807  0.0647  0.1877  0.2287
10246PP      PP20350   6.865   3.040   0.071  0.2059 -0.3716  0.1624
10247PP      PP20351   0.963   8.811   4.139 -0.1705  0.0174 -0.2197
10248PP      PP20352   7.855   3.947   9.031 -0.2441 -0.0254  0.0298
10249PP      PP20353  14.328   9.631   3.458  0.1514 -0.3820 -0.0327
10250PP      PP20354  11.456   2.635  11.745 -0.1986 -0.0768 -0.0533
10251PP      PP20355   8.979   5.176  11.710 -0.0886 -0.0790 -0.0494
10252PP      PP20356   1.542   4.998   1.162 -0.1870  0.4970  0.2339
10253PP      PP20357   0.391   7.441  11.718 -0.0541 -0.0218 -0.1452
10254PP      PP20358   6.428   6.438   3.419 -0.1472  0.3049 -0.0080
10255PP      PP20359   3.476   5.712   2.653  0.1247  0.0337  0.4689
10256PP      PP20360  15.495  14.177   4.347 -0.1122 -0.1454 -0.0417
10257PP      PP20361   5.140   3.993   0.236  0.1264  0.3183  0.1789
10258PP      PP20362   0.881  10.854  10.503  0.1577 -0.3524 -0.2844
10259PP      PP20363   3.152  11.905  11.576  0.0711  0.0623  0.1700
10260PP      PP20364   5.342   6.924  10.759  0.1406 -0.0650 -0.2943
10261PP      PP20365   6.721   1.442   8.404  0.0624 -0.0180  0.0210
10262PP      PP20366   2.335   1.236   3.607 -0.0315 -0.0081 -0.1680
10263PP      PP20367   5.639   4.089  11.071 -0.1574 -0.2173  0.1469
10264PP      PP20368  13.961  15.147   2.980 -0.2207  0.0605  0.1728
10265PP      PP20369  10.148   3.760  12.850 -0.1910  0.1660 -0.1955
10266PP      PP20370   8.769   2.680  10.793  0.4903 -0.0737 -0.0607
10267PP      PP20371   8.216   2.467   0.714 -0.0282 -0.2546 -0.3027
10268PP      PP20372  13.058  12.068   0.587  0.0588  0.0329 -0.0485
10269PP      PP20373  13.632  14.596   1.057 -0.4142 -0.1883 -0.0450
10270PP      PP20374   4.408  10.716  11.550 -0.1996  0.1092  0.0097
10271PP      PP20375   6.678   9.522   0.829 -0.0293  0.0977 -0.2188
10272PP      PP20376   2.780  14.755   3.401  0.2525 -0.0656  0.0627
10273PP      PP20377   6.215   2.990   8.684  0.2603 -0.0397 -0.2798
10274PP      PP20378  11.191  15.211   9.150  0.0537  0.1161 -0.1356
10275PP      PP20379   1.307   4.127   1.155 -0.0049  0.0898  0.2577
10276PP      PP20380  14.231  14.107   0.385  0.2272  0.0282 -0.0445
10277PP      PP20381  14.433  13.359  13.480 -0.0678  0.0045 -0.1216
10278PP      PP20382   5.350  11.963  13.374  0.0727 -0.0197  0.0564
10279PP      PP20383  10.759  11.916  10.783 -0.0280 -0.2176 -0.3330
10280PP      PP20384   4.493  12.121  10.837 -0.2602 -0.1208 -0.0704
10281PP      PP20385   4.202   6.574   0.165  0.0002 -0.0284 -0.1341
10282PP      PP20386   0.463   0.931  11.053  0.1902 -0.1258  0.2178
10283PP      PP20387   7.551  10.711  11.673  0.0508 -0.0542  0.2155
10284PP      PP20388   6.619   1.012   8.741 -0.0983 -0.0961 -0.0419
10285PP      PP20389   0.630   5.330   3.330  0.4940  0.0996  0.1574
10286PP      PP20390  12.584   5.319   1.023 -0.1906  0.1761  0.2787
10287PP      PP20391   5.386   8.058  11.535  0.1863  0.1047 -0.2704
10288PP      PP20392   7.798  11.571   1.192  0.1308  0.0915 -0.1326
10289PP      PP20393  11.614  14.720   0.411 -0.0187  0.1444 -0.0603
10290PP      PP20394   8.936   7.001  13.106  0.1811 -0.2159  0.0862
10291PP      PP20395   3.503   6.346  11.576  0.2817 -0.2112  0.0688
10292PP      PP20396  10.026   8.463  11.678 -0.1456  0.2429  0.0835
10293PP      PP20397  13.351  13.382  12.199 -0.0064  0.0263  0.3337
10294PP      PP20398  11.159   9.550   4.972 -0.1879  0.0669 -0.0650
10295PP      PP20399   3.023  10.157   2.915  0.0574  0.0210 -0.0688
10296PP      PP20400  11.694   7.520  10.898 -0.1584  0.0066  0.1125
10297PP      PP20401  13.328   0.308  10.878 -0.0792 -0.2615  0.1607
10298PP      PP20402  13.162  15.508   2.561 -0.1176 -0.1657 -0.2406
10299PP      PP20403   5.008   6.494   4.259  0.2566  0.0646  0.0108
10300PP      PP20404   2.699  12.958  11.437 -0.1042  0.1573 -0.0382
10301PP      PP20405  13.792   7.356   2.277  0.3185  0.1438 -0.0126
10302PP      PP20406   0.074   0.758   1.103  0.0869 -0.3370 -0.5391
10303PP      PP20407   6.512   2.703   8.434  0.0341  0.2752 -0.1539
10304PP      PP20408   5.341  10.831   2.729 -0.0782  0.0350  0.0170
10305PP      PP20409  14.152  13.681  10.443  0.2834  0.0060 -0.2635
10306PP      PP20410  13.316   9.013   2.891 -0.1669 -0.0431  0.0156
10307PP      PP20411  15.550  13.682   4.644 -0.1111 -0.0073  0.3982
10308PP      PP20412  15.517   0.080   9.510  0.6048  0.3996  0.0389
10309PP      PP20413  15.495   0.544  10.441 -0.0448  0.0577 -0.0895
10310PP      PP20414   4.697  14.770   7.438 -0.0953 -0.2485 -0.1247
10311PP      PP20415  13.425  11.637   9.854  0.1271 -0.0263 -0.1157
10312PP      PP20416   0.871   5.055   2.461 -0.3337 -0.0164  0.0755
10313PP      PP20417   1.171   9.656  12.705 -0.2412  0.0946 -0.0470
10314PP      PP20418   2.801   8.146   3.368  0.0046 -0.1682  0.3831
10315PP      PP20419   5.274   7.294  13.355  0.1447  0.0739 -0.2931
10316PP      PP20420   3.765  12.310   0.348  0.2199 -0.0149  0.0128
10317PP      PP20421   2.676  13.668  11.183  0.1592 -0.0896 -0.0794
10318PP      PP20422   0.332   0.561   9.010  0.1839 -0.0005  0.0042
10319PP      PP20423  14.038   1.886   4.365 -0.1068  0.0862 -0.0697
10320PP      PP20424  12.691   0.993  13.475 -0.1260 -0.2089  0.0191
10321PP      PP20425  15.766   0.767   8.962  0.2273 -0.1174 -0.1318
10322PP      PP20426  15.219   6.866  10.856  0.1133 -0.2208 -0.0823
10323PP      PP20427  13.839   9.524   9.978 -0.2343  0.0687  0.0617
10324PP      PP20428   5.002  15.110   3.050  0.0113 -0.1437  0.2363
10325PP      PP20429  14.835  11.063  10.399 -0.1447  0.2917 -0.1169
10326PP      PP20430  13.019  13.143   1.914  0.2585  0.0854 -0.3090
10327PP      PP20431  11.684   3.602  12.889  0.1916  0.0140 -0.0773
10328PP      PP20432  12.801  12.066   3.187 -0.0945 -0.2552 -0.1280
10329PP      PP20433   4.560   3.428  11.397 -0.2792  0.0022  0.2504
10330PP      PP20434  15.026   8.109   5.824 -0.0083 -0.2369  0.3628
10331PP      PP20435   2.550   9.150   3.632  0.0019 -0.2561 -0.1030
10332PP      PP20436   5.807  14.574  12.181 -0.1885 -0.0691  0.0512
10333PP      PP20437  12.284   7.897   4.327  0.0092 -0.1087 -0.0410
10334PP      PP20438  12.611  10.906  12.397 -0.2128 -0.0534 -0.0494
10335PP      PP20439   0.868   7.656   3.422  0.2091  0.0482 -0.3053
10336PP      PP20440   3.595   4.951   3.863  0.0813 -0.0694 -0.0102
10337PP      PP20441  12.730   4.250  12.000 -0.1220  0.0475 -0.1199
10338PP      PP20442   4.616   8.165  12.528 -0.0517  0.0119  0.0574
10339PP      PP20443   9.923  11.308   0.872 -0.0501  0.0946  0.0293
10340PP      PP20444   0.036   7.096   3.433 -0.4165 -0.1875 -0.4410
10341PP      PP20445   7.826   8.654  13.147 -0.1150 -0.4086 -0.0294
10342PP      PP20446   0.920  11.951  10.960 -0.1333 -0.0006 -0.0433
10343PP      PP20447  13.109  13.734   0.053  0.0600 -0.0320  0.0888
10344PP      PP20448  10.499  11.827   1.473  0.0806  0.1351  0.1821
10345PP      PP20449   2.893   9.741   9.891  0.1345 -0.2802 -0.0833
10346PP      PP20450   2.722   2.726  10.524 -0.1756 -0.2036 -0.2698
10347PP      PP20451   8.315   4.608   0.684 -0.0728 -0.0435 -0.2549
10348PP      PP20452   4.977   0.620   9.307  0.0423  0.2078  0.0909
10349PP      PP20453   1.235   3.483  11.624  0.2518 -0.1942  0.1675
10350PP      PP20454   9.608   8.267   3.651  0.0157 -0.0852 -0.1707
10351PP      PP20455   8.748   4.465   0.408  0.0037  0.0017 -0.1247
10352PP      PP20456  11.253   5.947   8.705 -0.0252 -0.0514  0.2369
10353PP      PP20457  10.789  14.337   3.054 -0.0492 -0.1197  0.1236
10354PP      PP20458   2.294   3.702   1.249  0.1279  0.1180 -0.2356
10355PP      PP20459  14.183   6.170   2.913  0.3677 -0.0128  0.1183
10356PP      PP20460   0.342  13.266   0.080 -0.0703 -0.3396 -0.0825
10357PP      PP20461   7.732  10.626  12.573  0.0697  0.0273  0.5637
10358PP      PP20462   6.339   3.607   0.843 -0.0474 -0.0471  0.3179
10359PP      PP20463  13.834   8.308  12.022 -0.1763 -0.0050  0.1344
10360PP      PP20464   7.039   8.787  10.181  0.0469  0.1419 -0.5159
10361PP      PP20465   3.834  13.321   9.681  0.0232  0.0351 -0.0165
10362PP      PP20466   0.382   9.501  11.347 -0.1696  0.0376  0.1877
10363PP      PP20467  11.260  10.434   0.001  0.1435 -0.0132 -0.1329
10364PP      PP20468  13.433   1.461  11.026  0.2738  0.1853 -0.0049
10365PP      PP20469   0.495  10.818  12.433 -0.0747 -0.2045  0.0145
10366PP      PP20470   4.658  11.610  13.309  0.0221 -0.2302 -0.2084
10367PP      PP20471   1.454   6.542   5.111  0.1355  0.0021 -0.2799
10368PP      PP20472   8.193  12.673   3.222  0.2864 -0.3914  0.1915
10369PP      PP20473   2.103  14.664   1.065 -0.0124 -0.0819  0.1489
10370PP      PP20474  13.918  10.643  10.658 -0.1699  0.0626  0.0049
10371PP      PP20475  14.635  11.097   3.633  0.1858  0.2419  0.3874
10372PP      PP20476   2.482   3.543   0.659  0.0659 -0.0123  0.1122
10373PP      PP20477   6.890   5.992  10.841 -0.3389 -0.2208  0.0140
10374PP      PP20478   6.156   2.416  12.395  0.2632  0.3580  0.0743
10375PP      PP20479  13.884   3.106  13.267 -0.1579  0.2046  0.0322
10376PP      PP20480   3.053  10.840  12.214 -0.0014 -0.0190 -0.0412
10377PP      PP20481   3.687   0.684  11.757 -0.4552  0.2425 -0.0342
10378PP      PP20482   1.184  14.863   1.490 -0.2908  0.3333  0.1473
10379PP      PP20483   7.771   3.531  11.986 -0.0089 -0.1152  0.1962
10380PP      PP20484   0.404   9.793  12.929 -0.0012  0.2125  0.0326
10381PP      PP20485  11.355   5.134   9.211 -0.0162 -0.0531  0.1749
10382PP      PP20486   3.973  15.276  12.044  0.1728 -0.1224 -0.0220
10383PP      PP20487   4.130   8.969  12.552  0.0445  0.0036 -0.0965
10384PP      PP20488  10.727   6.589  11.375  0.1144  0.4524  0.2005
10385PP      PP20489   7.670  14.515   9.174  0.0368  0.0134  0.0679
10386PP      PP20490   8.001   5.137   2.293 -0.2133  0.1901  0.0347
10387PP      PP20491   0.728  11.330   0.516  0.2842 -0.0938  0.0445
10388PP      PP20492  11.825   7.754  12.049 -0.0467 -0.0631  0.0488
10389PP      PP20493   6.015   6.596   2.561 -0.1470  0.0085  0.3687
10390PP      PP20494   2.493  10.787   5.442  0.0518 -0.0089  0.2815
10391PP      PP20495   1.155   1.586  11.692  0.2577 -0.0497 -0.1094
10392PP      PP20496  15.622  13.754   0.787 -0.3356  0.0674 -0.2913
10393PP      PP20497   1.164   6.614  10.977  0.1030  0.2098  0.2038
10394PP      PP20498   9.202  14.088  11.581  0.1193  0.0015  0.1714
10395PP      PP20499  11.154   9.759   0.706 -0.5270  0.1177 -0.0478
10396PP      PP20500  13.539   0.987  11.578 -0.1123  0.1927  0.1464
10397PP      PP20501  14.315   2.093  11.318 -0.0239 -0.1981  0.1476
10398PP      PP20502   7.806  15.346  12.926  0.1275  0.0866  0.2432
10399PP      PP20503   8.488   1.567   3.369 -0.0431  0.0414  0.0487
10400PP      PP20504   1.052   4.410  11.968  0.0756 -0.4105  0.0260
10401PP      PP20505   5.516   1.398   7.825  0.3267 -0.0920 -0.0898
10402PP      PP20506   1.610   5.660   2.543 -0.0226 -0.0007  0.0813
10403PP      PP20507  12.142   5.437   8.666  0.1752  0.0826 -0.0552
10404PP      PP20508   2.238  13.049   0.039  0.1117 -0.5164 -0.3242
10405PP      PP20509  12.529  15.337   3.184 -0.2721  0.1299  0.3266
10406PP      PP20510   9.562   7.091  13.515 -0.1847 -0.1135  0.0670
10407PP      PP20511  12.896   9.538   1.086  0.2239 -0.0965 -0.0225
10408PP      PP20512   8.441  15.638   9.313  0.2473  0.1019  0.1229
10409PP      PP20513   7.868   6.743   0.517 -0.3520 -0.0766 -0.1824
10410PP      PP20514   2.694   4.196   9.663 -0.0679 -0.2512 -0.0183
10411PP      PP20515  12.817  12.999  13.489 -0.0862 -0.2600 -0.0625
10412PP      PP20516  15.096   7.611   3.212 -0.0049  0.0352  0.1462
10413PP      PP20517   1.536  14.827  11.291 -0.0643 -0.0507 -0.0249
10414PP      PP20518   8.218   0.992   2.177  0.3435  0.3637  0.1762
10415PP      PP20519   3.920   8.020   0.755 -0.0145 -0.0781  0.1096
10416PP      PP20520   5.751  10.213   9.946  0.0006 -0.1262 -0.4570
10417PP      PP20521   5.827  11.615  13.467 -0.2353  0.0649 -0.0124
10418PP      PP20522  11.154   8.249   3.985  0.2882  0.0141 -0.0322
10419PP      PP20523   4.425  10.329  11.963  0.0775 -0.0600 -0.2497
10420PP      PP20524  10.309   1.958   3.032  0.0455 -0.4468  0.5020
10421PP      PP20525   9.313   9.307   0.891  0.0402 -0.0389 -0.0754
10422PP      PP20526   8.305   5.116   0.811  0.0667  0.0628  0.3318
10423PP      PP20527   3.842   3.536   9.918  0.0806  0.0530  0.0333
10424PP      PP20528   3.365   4.324   0.551 -0.0288 -0.0079 -0.3019
10425PP      PP20529  11.345   5.565   1.398 -0.1780  0.2319  0.0086
10426PP      PP20530   4.485  14.599   0.674  0.4080  0.3082  0.0192
10427PP      PP20531   4.198   7.871   2.715  0.1236 -0.1168 -0.0039
10428PP      PP20532   4.360  11.657   4.683  0.3972  0.0669  0.1467
10429PP      PP20533   7.609  12.707   9.577  0.2016 -0.1509 -0.1270
10430PP      PP20534  10.246  10.059  11.036 -0.0441  0.2264 -0.1028
10431PP      PP20535   1.816  13.003   2.622  0.1722 -0.0075 -0.1198
10432PP      PP20536   9.317   0.511   2.099  0.1225  0.3886 -0.0377
10433PP      PP20537   0.303   2.212   0.799  0.2788 -0.2739  0.1707
10434PP      PP20538   4.521   1.112  13.446  0.1739  0.0494  0.0060
10435PP      PP20539   8.941   5.234  13.495 -0.1795 -0.0872 -0.0429
10436PP      PP20540  12.557   9.747   0.041  0.1713  0.2416 -0.1085
10437PP      PP20541   5.423   4.221  10.064  0.3063 -0.1648  0.0419
10438PP      PP20542   3.535  13.775   9.586  0.0538 -0.0334 -0.1208
10439PP      PP20543   7.618   1.274   8.474  0.3744  0.0766  0.2309
10440PP      PP20544  14.208   6.230  10.243  0.2073 -0.2209 -0.0700
10441PP      PP20545  13.887   2.149  13.210  0.0209 -0.2758 -0.1319
10442PP      PP20546   0.854   7.112  11.739  0.1635  0.0122  0.0662
10443PP      PP20547   8.800  15.157   3.304  0.0085  0.0361  0.2105
10444PP      PP20548  11.074   4.689   2.667 -0.1238  0.0851 -0.3428
10445PP      PP20549   8.869   3.899  12.072  0.0924 -0.3756  0.1615
10446PP      PP20550   1.147  11.909   1.741 -0.2731  0.0951 -0.1592
10447PP      PP20551   6.756  14.369  10.621  0.1693 -0.2000  0.0123
10448PP      PP20552   5.970   3.244  10.712 -0.2957 -0.2324 -0.1486
10449PP      PP20553   7.580   6.244   0.711 -0.0827 -0.4601  0.1935
10450PP      PP20554  13.774  11.881   4.453  0.0395  0.0718 -0.1257
10451PP      PP20555   1.102  15.171  12.659 -0.1075 -0.1873 -0.0250
10452PP      PP20556  10.350   3.689   2.862 -0.2677  0.0692 -0.0294
10453PP      PP20557   9.232  15.437   0.868  0.3960  0.0460  0.0819
10454PP      PP20558  15.168   6.985  13.452  0.1936 -0.2569  0.3112
10455PP      PP20559  12.630   2.700   0.029 -0.1232 -0.0547 -0.0637
10456PP      PP20560   9.573   2.712   8.419 -0.0364  0.0913  0.0751
10457PP      PP20561  15.422   7.256  10.400 -0.2538  0.0038 -0.1173
10458PP      PP20562   0.114   3.551   3.010  0.1792  0.1251 -0.0921
10459PP      PP20563   5.539  14.497  10.594 -0.0173  0.2889  0.0761
10460PP      PP20564   0.824   4.545   1.577 -0.1490  0.0212  0.0219
10461PP      PP20565   7.643  12.279   8.640 -0.0997 -0.0878  0.0449
10462PP      PP20566   6.890   0.158  11.394 -0.0049 -0.0777 -0.0919
10463PP      PP20567  10.616  10.218  12.482  0.2203 -0.0816  0.0925
10464PP      PP20568  15.401   1.312   1.996  0.1509 -0.4592 -0.1608
10465PP      PP20569  10.230   8.595   5.112 -0.0845 -0.1140  0.3042
10466PP      PP20570   7.866   9.984   1.943  0.2197  0.1312  0.2860
10467PP      PP20571   6.663   1.505   0.988 -0.0370  0.0133 -0.1023
10468PP      PP20572  15.812  13.500   1.530  0.1444 -0.1692 -0.1369
10469PP      PP20573   5.428  11.462   4.276  0.1844  0.1650 -0.2064
10470PP      PP20574  12.388   3.559  11.226 -0.2721  0.0784  0.2097
10471PP      PP20575  15.771   7.398   0.348  0.2249  0.0738 -0.1083
10472PP      PP20576   6.968  12.690  11.525  0.3766  0.2537  0.2879
10473PP      PP20577   0.119  12.784   0.225 -0.1587 -0.1052  0.4219
10474PP      PP20578   1.871  13.294  13.244 -0.0824 -0.0242 -0.0060
10475PP      PP20579  12.422   0.014  11.979  0.0204  0.2343  0.0858
10476PP      PP20580   8.477  11.725   0.659  0.2812  0.0708 -0.1687
10477PP      PP20581  15.725   6.869   4.682  0.4079 -0.0112 -0.0795
10478PP      PP20582   5.206   5.638   4.469  0.1565 -0.0872 -0.2210
10479PP      PP20583  13.518  15.156   3.238  0.1710  0.0910 -0.3149
10480PP      PP20584  10.240   2.630   2.168 -0.0645 -0.0757  0.2051
10481PP      PP20585   8.508   0.776   8.532  0.0084 -0.1106 -0.0960
10482PP      PP20586   2.758   0.812   1.280 -0.0291  0.2221 -0.0729
10483PP      PP20587  14.406   3.347   9.317  0.0011  0.0520 -0.1443
10484PP      PP20588   8.609  13.653   0.586  0.2915  0.1302 -0.1702
10485PP      PP20589   2.815   4.216  12.089 -0.2731  0.1152  0.3270
10486PP      PP20590  14.149   2.092   2.143  0.1509  0.1925 -0.5168
10487PP      PP20591   0.382   3.217  10.199  0.3214 -0.2655 -0.1188
10488PP      PP20592   3.368   4.559   1.406  0.0212  0.2130  0.0960
10489PP      PP20593   6.549  11.685  11.600  0.1151 -0.3106 -0.1359
10490PP      PP20594  11.814   0.715   0.088  0.2797 -0.2120 -0.1872
10491PP      PP20595   8.039  15.596   1.671  0.1965 -0.0225  0.0986
10492PP      PP20596   8.615   2.931  11.438  0.2071 -0.0759 -0.3114
10493PP      PP20597  15.204   7.479  12.921  0.1300  0.0756  0.4243
10494PP      PP20598   6.629   0.399  13.217  0.1052  0.1242  0.2540
10495PP      PP20599  13.366  15.416   9.337  0.1174 -0.2092  0.1963
10496PP      PP20600  14.335   0.633   3.580  0.2777  0.0518  0.2887
10497PP      PP20601  14.225   1.311   3.173 -0.0675 -0.3074  0.3555
10498PP      PP20602   2.888   2.732   2.714 -0.1643  0.0469 -0.0406
10499PP      PP20603   4.139   1.363   2.373  0.0849 -0.0989 -0.2951
10500PP      PP20604   0.848   1.061  10.265  0.0908 -0.3372  0.0258
10501PP      PP20605   2.086   3.349  10.147  0.1255 -0.0791 -0.0676
10502PP      PP20606   8.233  15.256  10.111 -0.1286  0.0164  0.3864
10503PP      PP20607   8.840   2.810   8.960 -0.1635 -0.2190  0.0420
10504PP      PP20608   6.496   4.659  12.725  0.3384  0.0103  0.0335
10505PP      PP20609   8.802   4.323   1.329 -0.0655 -0.2406 -0.1390
10506PP      PP20610  13.831   6.465  11.896  0.1441  0.3498  0.0726
10507PP      PP20611  11.346  12.736   9.959 -0.3107  0.4312  0.3200
10508PP      PP20612   3.145   5.645   3.494  0.0474  0.0785  0.4354
10509PP      PP20613  11.784   9.394   5.106 -0.0434  0.1897  0.2747
10510PP      PP20614  15.769  12.960   2.351 -0.1035 -0.0839 -0.3042
10511PP      PP20615   3.315   9.736  11.709 -0.3001 -0.3236 -0.1445
10512PP      PP20616   2.592   6.466  11.168 -0.5369  0.1611  0.1463
10513PP      PP20617   7.769   9.202  11.998  0.0559 -0.0821 -0.2636
10514PP      PP20618  12.965  14.763   9.864 -0.0411  0.0542  0.1823
10515PP      PP20619  10.771  12.428   1.213  0.1536 -0.0675  0.1103
10516PP      PP20620   6.208   0.765   7.820  0.5093 -0.0155 -0.3097
10517PP      PP20621   0.172   2.102  12.209 -0.0652  0.1932 -0.4422
10518PP      PP20622   2.856   7.256   4.957 -0.2573  0.0576 -0.2907
10519PP      PP20623   6.365   6.184  10.601 -0.0538  0.1400 -0.0237
10520PP      PP20624   3.668   8.217   0.064  0.1905 -0.0725  0.0389
10521PP      PP20625   7.728   9.520   3.386  0.1015  0.1410 -0.1061
10522PP      PP20626  13.149   4.642  12.379 -0.0671  0.3121  0.0389
10523PP      PP20627   5.901   4.621   9.710 -0.1971 -0.0611 -0.2164
10524PP      PP20628   0.998   6.145   4.608  0.1041  0.1850  0.1959
10525PP      PP20629  13.702   9.918   0.078  0.2596  0.0745  0.2082
10526PP      PP20630  10.685   5.537  11.277  0.2525 -0.1158  0.2185
10527PP      PP20631   3.688  11.614   3.826 -0.3026 -0.0872  0.2298
10528PP      PP20632  10.613   0.566   2.673 -0.2238  0.4327  0.0714
10529PP      PP20633   2.680   7.435   2.681  0.0234  0.0159  0.1431
10530PP      PP20634   9.108  13.515  13.385 -0.0469  0.0009 -0.1031
10531PP      PP20635   6.016   8.538  13.376  0.2426  0.0460 -0.1568
10532PP      PP20636   1.662   3.184   2.265 -0.0259 -0.1681  0.1831
10533PP      PP20637   5.332   9.858   2.122  0.0252 -0.0623 -0.2014
10534PP      PP20638   3.526  12.926   2.663  0.0606 -0.1791 -0.0100
10535PP      PP20639   7.541   2.134   9.718 -0.0503 -0.2185  0.1562
10536PP      PP20640   4.062  13.671  11.011  0.0588  0.3950  0.0022
10537PP      PP20641   3.276   1.343   0.240 -0.0659  0.1362  0.2142
10538PP      PP20642   9.230   4.333   2.944 -0.1702 -0.0133  0.0714
10539PP      PP20643   5.353   3.201  11.398 -0.0028  0.1272 -0.0109
10540PP      PP20644   0.756  15.130   8.740 -0.2168 -0.2204 -0.4686
10541PP      PP20645  14.234   0.517  10.472  0.0835 -0.1783 -0.0475
10542PP      PP20646   6.678   0.774   9.190  0.1712  0.2179  0.2243
10543PP      PP20647  10.782   7.381   9.742 -0.0713 -0.1425  0.0250
10544PP      PP20648  15.005   0.817   2.187 -0.1458  0.1796 -0.2403
10545PP      PP20649   3.354   0.234   8.256  0.1953 -0.0220  0.0898
10546PP      PP20650  11.919   8.486  10.842 -0.1881  0.3259  0.3943
10547PP      PP20651  15.511   7.891  12.852 -0.0436 -0.0055  0.2525
10548PP      PP20652   0.852  14.725  11.924  0.0618  0.0227 -0.0705
10549PP      PP20653   0.957   0.033   1.225  0.2960 -0.1851  0.0678
10550PP      PP20654  13.997   0.235   9.142 -0.0416 -0.0694  0.0253
10551PP      PP20655   5.222  12.029   2.759  0.0234  0.1025  0.1308
10552PP      PP20656  14.999  10.852   4.338  0.0486  0.1417 -0.0081
10553PP      PP20657  15.181   2.000  10.222  0.0924  0.3969 -0.2139
10554PP      PP20658  14.686  14.711   2.303 -0.2394 -0.0115  0.0859
10555PP      PP20659   7.341   2.165   2.004  0.0250  0.1486  0.0856
10556PP      PP20660  14.334   4.593   0.575 -0.2902 -0.2586  0.1668
10557PP      PP20661   1.716   1.168   2.982 -0.0131 -0.0997 -0.0009
10558PP      PP20662   6.510  14.873   8.450 -0.3617  0.0579  0.0410
10559PP      PP20663   0.532  10.465   2.074  0.0429  0.0959  0.0173
10560PP      PP20664   2.948  12.233   4.099 -0.2320 -0.2331  0.1527
10561PP      PP20665   4.584  10.028  11.545 -0.5536 -0.0612 -0.3288
10562PP      PP20666  12.626  10.127   1.865 -0.2870 -0.1365 -0.0348
10563PP      PP20667  14.198   8.115  10.644 -0.2217  0.0025  0.1472
10564PP      PP20668  14.768  12.107   3.742  0.3614  0.2288 -0.2725
10565PP      PP20669  13.639  12.028   9.158 -0.4962 -0.0509 -0.0801
10566PP      PP20670   8.170   3.400   3.709 -0.2633  0.0028 -0.1871
10567PP      PP20671   0.066  11.452  11.152 -0.3388 -0.1231  0.0544
10568PP      PP20672  14.500   8.580  11.013 -0.2039  0.0467 -0.0872
10569PP      PP20673   7.824   3.137  13.186 -0.1391 -0.1108 -0.0852
10570PP      PP20674  12.804   7.540   0.752  0.1927  0.2906  0.4118
10571PP      PP20675   3.620   7.535   1.990 -0.1152  0.2703  0.0703
10572PP      PP20676   7.769   8.391   1.598  0.0457  0.0648  0.1106
10573PP      PP20677   8.439   5.114   8.620  0.2311 -0.0585  0.1453
10574PP      PP20678  14.857   9.281   3.507 -0.0004 -0.0269 -0.2142
10575PP      PP20679  11.272   8.892  12.760 -0.0259  0.0827 -0.0849
10576PP      PP20680  14.929   4.190   9.044  0.0201  0.1845 -0.2316
10577PP      PP20681  13.016   3.122   1.811 -0.4612  0.3063  0.2944
10578PP      PP20682  13.720  15.135   9.094  0.0055 -0.2051 -0.2133
10579PP      PP20683   2.351  13.045   4.230  0.2657 -0.2521 -0.0770
10580PP      PP20684   6.116   3.548   2.267  0.0812  0.0806 -0.0320
10581PP      PP20685  14.036  14.320  12.955 -0.3807  0.2993  0.0840
10582PP      PP20686  12.569   9.718   9.302 -0.1579  0.1533  0.0341
10583PP      PP20687   3.299   0.796  12.656  0.1639  0.0101  0.1422
10584PP      PP20688   8.269   9.285   0.839  0.0779 -0.2239 -0.0851
10585PP      PP20689   4.890   3.418   2.042  0.2047  0.1464 -0.5846
10586PP      PP20690  12.832   5.400  13.521  0.0701  0.2057  0.2218
10587PP      PP20691   8.227  15.524  13.113 -0.2725 -0.4172  0.0830
10588PP      PP20692  10.744   8.153  13.036 -0.0411  0.1746  0.1176
10589PP      PP20693   9.996  12.915  10.961  0.1675  0.2805  0.1846
10590PP      PP20694  11.588  10.795   3.448 -0.1142  0.1703  0.0340
10591PP      PP20695   7.701  10.197   5.144 -0.1252  0.1329 -0.0956
10592PP      PP20696   9.954  15.578   0.021  0.0268  0.0002  0.1160
10593PP      PP20697   4.051   4.219  11.279 -0.0651 -0.2187  0.0944
10594PP      PP20698  12.293   2.071  10.456 -0.0170  0.1722 -0.1008
10595PP      PP20699  11.656   9.148   3.039 -0.0103 -0.6730  0.1596
10596PP      PP20700   6.927   4.772   3.067  0.0577  0.1410 -0.3756
10597PP      PP20701   9.086  10.087   2.937  0.0234  0.0365 -0.0753
10598PP      PP20702   8.294  10.433  11.636 -0.1086 -0.2775 -0.2185
10599PP      PP20703  13.821  11.953  12.355  0.1486 -0.2374 -0.1161
10600PP      PP20704   2.146   9.505   4.312 -0.1420  0.0235 -0.1988
10601PP      PP20705   4.240   5.664  10.179  0.2810  0.2539  0.0585
10602PP      PP20706  15.408  13.954  10.460  0.1241 -0.1314 -0.0097
10603PP      PP20707   6.498   6.990   4.645  0.1890 -0.3291  0.0944
10604PP      PP20708   5.213   1.243   3.205 -0.0750 -0.0184 -0.2766
10605PP      PP20709   7.875   1.577  12.815  0.2677 -0.0283 -0.1221
10606PP      PP20710   0.781   0.048   3.208 -0.0820 -0.2177 -0.2264
10607PP      PP20711   3.925   3.896  10.304 -0.0107 -0.0395  0.2162
10608PP      PP20712  10.309  12.424  11.279  0.1265  0.2178  0.0855
10609PP      PP20713  11.159   9.497   9.390 -0.2738 -0.0286 -0.0759
10610PP      PP20714  13.446   1.513   3.666 -0.1828  0.4116  0.0355
10611PP      PP20715   5.434  13.452   0.711 -0.0798 -0.0676  0.3307
10612PP      PP20716  12.678  14.407   2.034  0.2221  0.0903  0.1657
10613PP      PP20717   5.538  14.932   0.788  0.1038  0.3654 -0.0273
10614PP      PP20718   8.181   3.424   9.199 -0.1766 -0.0186  0.0932
10615PP      PP20719   9.789  11.410   2.617  0.0003 -0.0338  0.2111
10616PP      PP20720  14.224   3.712   2.815 -0.1138  0.2787 -0.0880
10617PP      PP20721   6.496  12.868  11.678 -0.1369  0.0268  0.1029
10618PP      PP20722   0.014   0.955  12.389 -0.3021  0.1788  0.0816
10619PP      PP20723  10.522  12.099   2.115  0.2585 -0.1085  0.1757
10620PP      PP20724   2.640  12.008  10.259 -0.0526 -0.2240 -0.0836
10621PP      PP20725   1.762   0.863   9.151  0.2092  0.1568 -0.1646
10622PP      PP20726  10.964  10.173   0.403 -0.0787 -0.0341 -0.0444
10623PP      PP20727  13.244   7.690  10.821  0.0220  0.2784 -0.0597
10624PP      PP20728  14.682   5.427   0.229 -0.0750  0.2176  0.2012
10625PP      PP20729   2.780   1.687   2.883 -0.0434  0.0748  0.1808
10626PP      PP20730   6.404   5.548   0.868 -0.1761  0.2440 -0.2559
10627PP      PP20731   8.402  13.373  10.377 -0.3404 -0.0111  0.3764
10628PP      PP20732  14.236   7.296   4.104 -0.2219  0.0188 -0.0955
10629PP      PP20733   9.642   9.867   2.223  0.1081  0.0472 -0.0509
10630PP      PP20734  13.288  12.036   4.395  0.2022  0.1407  0.0295
10631PP      PP20735  13.416  11.560  12.410 -0.1845 -0.0142 -0.3751
10632PP      PP20736  10.315   5.679   3.985  0.1070 -0.0096 -0.0261
10633PP      PP20737  14.452  15.447  11.345  0.1681 -0.1685  0.2553
10634PP      PP20738  12.802  12.279   2.278 -0.0779  0.1674 -0.0373
10635PP      PP20739  13.229   1.738  10.682  0.3829  0.0693  0.2664
10636PP      PP20740  15.211   6.222   2.894 -0.3423  0.1735 -0.2219
10637PP      PP20741  10.341   7.382  12.354  0.0627  0.0283 -0.1094
10638PP      PP20742   1.911   1.964   2.572  0.0264 -0.0104  0.2223
10639PP      PP20743   2.955  12.623   4.523 -0.2624  0.1453 -0.0948
10640PP      PP20744  12.331  12.251  12.863 -0.1643  0.1481 -0.3156
10641PP      PP20745  13.749  11.665   0.040 -0.0518 -0.1459 -0.0898
10642PP      PP20746  14.304  12.583  11.475 -0.3129  0.2333 -0.0683
10643PP      PP20747   0.933   1.618   9.478  0.1325 -0.1613  0.1878
10644PP      PP20748  12.780  11.161   3.400 -0.1382 -0.1302 -0.1105
10645PP      PP20749   9.080   0.888  12.401 -0.0917 -0.2412 -0.1432
10646PP      PP20750  11.198  14.869  10.375 -0.0986  0.0018  0.2574
10647PP      PP20751  14.805   2.333  13.041 -0.1961 -0.1254 -0.2484
10648PP      PP20752   8.440   5.195  10.433 -0.0189  0.2507 -0.3211
10649PP      PP20753   3.402   8.144   2.599 -0.1457  0.1178 -0.2178
10650PP      PP20754   7.185   4.819  11.877 -0.0697 -0.5617 -0.0294
10651PP      PP20755   3.438  15.091   8.217  0.2510 -0.1041  0.0215
10652PP      PP20756  14.812   6.357   0.592  0.1197  0.0384  0.0094
10653PP      PP20757   6.975   7.768   1.584 -0.3802 -0.2201  0.1546
10654PP      PP20758   3.586   1.345   9.848 -0.1600 -0.2342  0.0253
10655PP      PP20759   0.870   7.052   0.463  0.1517  0.3173  0.0800
10656PP      PP20760   4.340   3.934   4.163  0.0999  0.0629 -0.0430
10657PP      PP20761  11.261   3.605   0.902 -0.0140 -0.0636  0.0510
10658PP      PP20762  12.744   5.248   2.284  0.0149 -0.1843  0.0722
10659PP      PP20763  12.345  14.014   2.049  0.0542 -0.0811 -0.4891
10660PP      PP20764   8.907   3.549   2.046  0.4244  0.0471  0.3098
10661PP      PP20765   1.386   7.344  10.471 -0.1767 -0.0143  0.3213
10662PP      PP20766   1.078   6.634  13.510 -0.1530 -0.4517 -0.1135
10663PP      PP20767  11.162   9.978   3.919 -0.2018  0.2631  0.1543
10664PP      PP20768  13.769   2.557  12.852 -0.2631 -0.0943  0.2909
10665PP      PP20769   7.988   8.956   2.555 -0.1746 -0.2003  0.1120
10666PP      PP20770  11.312   0.801   2.961  0.1682  0.0820  0.2707
10667PP      PP20771   1.538   5.913  11.694 -0.2092  0.3634  0.0922
10668PP      PP20772  13.044   1.632   2.676  0.1026 -0.1252 -0.1036
10669PP      PP20773   7.982   7.612   3.314  0.0448 -0.0222 -0.3475
10670PP      PP20774  13.242   1.017  13.521 -0.0014  0.0278  0.0269
10671PP      PP20775   7.575  12.731  12.257  0.0381 -0.4469  0.1872
10672PP      PP20776  14.774   8.806   2.781  0.2305 -0.0402 -0.0140
10673PP      PP20777   1.305   9.520   1.177 -0.3099  0.1812  0.0494
10674PP      PP20778   9.194   9.540  11.540 -0.0285 -0.0466  0.1509
10675PP      PP20779  12.497   1.320   2.356 -0.2205 -0.2747  0.2157
10676PP      PP20780   8.955  11.627   9.765 -0.3579  0.0119 -0.3304
10677PP      PP20781   9.851  15.074   2.218 -0.2218 -0.0685  0.4371
10678PP      PP20782  11.098   7.578   4.782  0.0720 -0.1016 -0.2565
10679PP      PP20783  10.528   4.633   1.758  0.1797  0.1246 -0.4269
10680PP      PP20784   8.611   0.250   3.400  0.0101 -0.0023  0.1888
10681PP      PP20785  11.745  14.316   0.148  0.0405  0.2012 -0.2149
10682PP      PP20786  14.828   4.307  12.201 -0.0711  0.0470 -0.1389
10683PP      PP20787   0.172   8.679  10.605 -0.0878 -0.0308 -0.1221
10684PP      PP20788   8.191   2.290   8.385 -0.2775  0.1662 -0.3782
10685PP      PP20789  13.746   0.467   1.114 -0.4497  0.2662  0.0250
10686PP      PP20790   8.137  10.346   1.668 -0.1920  0.0270 -0.2976
10687PP      PP20791   2.398   8.912   0.035 -0.0571 -0.3906 -0.2651
10688PP      PP20792   4.789   6.430   1.832  0.0842 -0.3290  0.0525
10689PP      PP20793   7.667  12.151   0.149  0.0643  0.0132  0.0508
10690PP      PP20794   4.743  12.781  12.574 -0.4845  0.1206 -0.0225
10691PP      PP20795   4.784   2.302   2.022 -0.1233 -0.0531  0.1292
10692PP      PP20796  12.854  11.246  11.496 -0.1868 -0.0007  0.0558
10693PP      PP20797   8.635   6.029  11.211 -0.0533  0.0851  0.2200
10694PP      PP20798   4.429   0.119   7.695  0.0345 -0.1332 -0.4904
10695PP      PP20799  15.454  13.038   1.399 -0.2504 -0.1148  0.0251
10696PP      PP20800   7.043  14.431  12.585 -0.1775 -0.1310  0.2990
10697PP      PP20801   3.089   7.475   1.969 -0.0181  0.2213 -0.0281
10698PP      PP20802   5.107   3.553   2.439 -0.1907  0.1221 -0.0647
10699PP      PP20803   6.393   0.059  11.832 -0.1631  0.0146 -0.2867
10700PP      PP20804   1.641   7.854  13.167 -0.0989  0.0935 -0.0173
10701PP      PP20805   1.356   3.582  13.468  0.0366  0.2029  0.1081
10702PP      PP20806   8.021   3.685  11.421  0.4009  0.0874 -0.0092
10703PP      PP20807   5.587   4.327   3.293  0.1048 -0.1500 -0.0370
10704PP      PP20808  12.341   8.642   3.952  0.1325  0.0701 -0.0721
10705PP      PP20809  11.234  11.970  10.642 -0.0785 -0.1674  0.0269
10706PP      PP20810  13.674   0.588   9.962 -0.0215 -0.2524 -0.2187
10707PP      PP20811  10.947   4.249   9.632  0.2086 -0.2550  0.0432
10708PP      PP20812   0.465  15.587  11.531  0.0471 -0.1229  0.0744
10709PP      PP20813  12.572   5.961   3.632 -0.0751 -0.1240 -0.0195
10710PP      PP20814  10.988   9.879   1.910 -0.0859 -0.0525 -0.1161
10711PP      PP20815   1.994   9.936   1.446 -0.1673  0.1778 -0.3887
10712PP      PP20816   4.887   5.083  12.593 -0.0821  0.0990  0.1180
10713PP      PP20817   3.384   2.267   0.175  0.0280 -0.0205  0.4235
10714PP      PP20818   0.636  13.179  12.412  0.0904 -0.2870  0.0166
10715PP      PP20819  11.740  15.582   4.411  0.1310 -0.1573  0.1824
10716PP      PP20820   8.759   1.270  11.139 -0.2825  0.2170  0.1359
10717PP      PP20821  12.008   6.675   3.351  0.2587 -0.1733  0.2126
10718PP      PP20822  11.909   0.706  11.425  0.3111 -0.1294  0.1357
10719PP      PP20823  15.716  12.363   9.961 -0.2594 -0.2037  0.3002
10720PP      PP20824   4.518  11.207   4.542 -0.2833  0.0891  0.2290
10721PP      PP20825  10.097   1.550  13.481  0.1380 -0.0414 -0.2591
10722PP      PP20826   5.570   7.599  11.755 -0.0782  0.2169 -0.1418
10723PP      PP20827  11.628   4.811  10.146 -0.0122 -0.1967  0.1077
10724PP      PP20828  15.325   1.078   8.961  0.2621  0.1115  0.5695
10725PP      PP20829   6.820  14.584   3.341  0.0679 -0.0846 -0.2753
10726PP      PP20830  13.598   6.899  11.146 -0.0730  0.2531  0.1083
10727PP      PP20831  11.221  13.724   3.286  0.0401  0.1408  0.3252
10728PP      PP20832   8.775  12.601  10.218 -0.0114 -0.0569 -0.2214
10729PP      PP20833  14.336   9.701  11.388 -0.2849 -0.2991 -0.1256
10730PP      PP20834   4.445  15.767   3.283 -0.0495 -0.1277 -0.1044
10731PP      PP20835   5.057   6.790  12.069  0.1102  0.0676  0.0426
10732PP      PP20836   7.895  10.916   8.821 -0.0146  0.0991 -0.1334
10733PP      PP20837   0.990   0.171  13.469  0.5495 -0.2083  0.1909
10734PP      PP20838   8.623   4.652  11.011 -0.0728  0.0276  0.2141
10735PP      PP20839  12.461  12.788  10.137  0.1893 -0.1192  0.1612
10736PP      PP20840  12.286   2.384   0.236 -0.0676 -0.2794 -0.0408
10737PP      PP20841   0.154   0.606   3.062  0.2236  0.0536 -0.3098
10738PP      PP20842   5.848   7.871   4.545  0.2588 -0.0891  0.0231
10739PP      PP20843   2.913   0.896  12.246 -0.3735  0.0158 -0.1997
10740PP      PP20844   2.950   2.153   2.371 -0.2886  0.1529  0.0787
10741PP      PP20845  10.374  10.312   2.067  0.1279 -0.1686  0.0136
10742PP      PP20846   1.445   1.227  11.140  0.2554 -0.1230  0.1742
10743PP      PP20847   5.633   4.019   0.477 -0.2499 -0.4634  0.0065
10744PP      PP20848   6.895  12.452   3.236 -0.1547  0.2451  0.0189
10745PP      PP20849  14.103   7.477  11.789 -0.0332  0.0041  0.1939
10746PP      PP20850   9.183  15.511   2.758  0.1063  0.2401  0.3432
10747PP      PP20851  15.616  13.327   2.757  0.0912  0.0829 -0.0559
10748PP      PP20852   9.865  14.833   2.659  0.0031 -0.1912  0.2658
10749PP      PP20853  11.484  11.077   0.534 -0.0534  0.2031 -0.0293
10750PP      PP20854   9.761  12.202   1.040 -0.0241 -0.1470  0.0665
10751PP      PP20855   8.616  12.221   9.403  0.0354  0.0737  0.1982
10752PP      PP20856   7.279   6.928  10.507 -0.1307 -0.1775  0.1089
10753PP      PP20857   9.454  11.634   9.785  0.2143 -0.0586 -0.2902
10754PP      PP20858   2.061   9.069   1.093 -0.0789  0.0978  0.3437
10755PP      PP20859  15.012   9.402   9.977  0.0958 -0.4124  0.4625
10756PP      PP20860   4.935  13.453   2.318  0.0115 -0.0814  0.5898
10757PP      PP20861   5.505   1.757  10.781 -0.0880 -0.3439  0.0488
10758PP      PP20862  13.550  12.450  10.792  0.1681 -0.2041  0.0420
10759PP      PP20863   7.488   6.465   1.153  0.1126  0.0252  0.0773
10760PP      PP20864   4.995  13.650  12.157 -0.1991  0.1646 -0.0158
10761PP      PP20865   6.922   9.442   0.305  0.0836 -0.3417  0.1635
10762PP      PP20866  13.043  11.136   1.007 -0.2854 -0.1070 -0.1464
10763PP      PP20867   2.853  11.636   1.684  0.1379 -0.0379 -0.0617
10764PP      PP20868   0.085   2.849   0.294 -0.2500  0.0662  0.1970
10765PP      PP20869  15.420   8.485  11.193  0.1294  0.0129  0.0884
10766PP      PP20870  12.364   2.230   8.950 -0.2491 -0.2637 -0.1080
10767PP      PP20871  12.388  10.234   5.756  0.2560  0.1545 -0.0936
10768PP      PP20872   9.675   7.572   4.365  0.0114  0.0006  0.1886
10769PP      PP20873   5.598   5.267  11.921  0.1998 -0.0139  0.0303
10770PP      PP20874   6.436   3.948  12.795  0.2915 -0.2169 -0.0253
10771PP      PP20875  13.718  10.461   4.305  0.3695  0.0893 -0.1752
10772PP      PP20876   7.648   2.686   3.181 -0.1150  0.4003 -0.1889
10773PP      PP20877  14.957   8.543   3.983  0.0638  0.1117  0.2919
10774PP      PP20878   0.258   2.062   3.679 -0.0383 -0.0970  0.0554
10775PP      PP20879  10.571   0.452   9.693  0.1269  0.0903  0.0562
10776PP      PP20880   5.028   1.682   9.394 -0.2692 -0.0557 -0.2195
10777PP      PP20881   2.119   4.507   2.653  0.1258 -0.0076  0.0190
10778PP      PP20882   6.099  12.050  13.299 -0.2063  0.0638 -0.1325
10779PP      PP20883   5.956   2.275   0.259 -0.0381 -0.0597 -0.1120
10780PP      PP20884  10.308   8.738  11.948  0.3890  0.0128  0.2038
10781PP      PP20885  10.478   4.086   9.497 -0.1723  0.1173  0.2648
10782PP      PP20886   6.280   4.410   9.951  0.0548  0.0461 -0.2009
10783PP      PP20887  15.813  10.026  11.944 -0.0314 -0.1673  0.1663
10784PP      PP20888   0.414  13.307   1.414 -0.0915  0.0416 -0.1460
10785PP      PP20889  12.115   6.679  13.254 -0.1361  0.0534 -0.0157
10786PP      PP20890  14.871  10.873   0.456  0.2141 -0.2778  0.2213
10787PP      PP20891   2.319   2.570   3.185 -0.0930 -0.0412  0.0376
10788PP      PP20892  10.130  13.469  12.170 -0.0175 -0.1002 -0.3069
10789PP      PP20893   4.474   6.230   3.745 -0.1467 -0.1034  0.1192
10790PP      PP20894  14.820  10.013  12.334  0.1234  0.0294 -0.0856
10791PP      PP20895   1.305  10.304  12.835 -0.0735  0.0012  0.1892
10792PP      PP20896   0.524   8.022  12.412  0.0282  0.0521 -0.0033
10793PP      PP20897  14.671   9.555  12.660  0.2292 -0.0253  0.2819
10794PP      PP20898   7.688   3.881  11.131 -0.1064 -0.1408 -0.2384
10795PP      PP20899  14.727   3.652   3.188  0.0143 -0.1504  0.1246
10796PP      PP20900   6.413  13.708   0.700  0.0401 -0.1208 -0.1489
10797PP      PP20901   3.589  12.031   0.808 -0.0429  0.4707  0.0930
10798PP      PP20902  15.607   4.992  11.889  0.0058 -0.1658 -0.0745
10799PP      PP20903   5.585  10.755  12.830 -0.2125 -0.0537  0.1238
10800PP      PP20904  12.841   8.022  11.027 -0.2032 -0.3130  0.0737
10801PP      PP20905  10.981   8.632   3.562 -0.4703  0.0474  0.1732
10802PP      PP20906   2.461  14.773   4.008  0.1184 -0.3897 -0.1895
10803PP      PP20907   0.016   9.345   4.561 -0.1178 -0.0446 -0.0316
10804PP      PP20908   1.247   2.263  10.129 -0.0919  0.3710 -0.0911
10805PP      PP20909  11.182   1.287  12.007 -0.3234  0.1944  0.0345
10806PP      PP20910   2.765   0.031  11.096  0.0091  0.2439  0.0295
10807PP      PP20911   7.364   5.061   9.566 -0.0636 -0.0345 -0.1223
10808PP      PP20912  10.727   9.341   2.808  0.0139 -0.0418 -0.1620
10809PP      PP20913  13.483   0.485   8.920 -0.0762 -0.1867 -0.0401
10810PP      PP20914  11.047  11.543  11.673  0.0346 -0.0050  0.0384
10811PP      PP20915   9.850  11.678  10.717 -0.0022 -0.0294  0.0962
10812PP      PP20916   9.643   0.907  12.331 -0.2204 -0.3767  0.1327
10813PP      PP20917  10.111  15.132  13.330  0.0012  0.1892 -0.0376
10814PP      PP20918  14.177   3.285   9.808 -0.0201 -0.1465 -0.0985
10815PP      PP20919   3.652  15.295   1.046  0.1753 -0.3674 -0.1402
10816PP      PP20920   1.758  14.426  11.510 -0.0785  0.1966  0.0075
10817PP      PP20921   0.981   9.065   3.722 -0.2352  0.0234 -0.0357
10818PP      PP20922  10.903   0.706   1.579 -0.0798 -0.0618  0.1472
10819PP      PP20923  14.741  14.623   1.375 -0.0851  0.0170 -0.2220
10820PP      PP20924   4.665   9.069   9.899  0.0216  0.0073 -0.2570
10821PP      PP20925   2.278   9.268  13.047  0.0217  0.3850  0.0159
10822PP      PP20926  12.452   3.225   0.016  0.0778 -0.2943  0.0562
10823PP      PP20927   0.639   0.951  12.934 -0.0926 -0.0014  0.2558
10824PP      PP20928  14.106  11.258   3.895 -0.1203  0.3346  0.0545
10825PP      PP20929   8.343  15.416  10.874  0.5137  0.1660 -0.0708
10826PP      PP20930   9.169   5.948  12.017  0.1332  0.1069 -0.0997
10827PP      PP20931   9.897  12.623   1.904 -0.0334 -0.0046 -0.0503
10828PP      PP20932   8.180   2.305   1.238 -0.2186 -0.0054  0.2799
10829PP      PP20933   1.779  10.260   2.850  0.1532  0.1710  0.2157
10830PP      PP20934   8.697   7.946  10.543  0.0329  0.2179 -0.2000
10831PP      PP20935   3.253  14.280   9.412  0.0292 -0.0785  0.1301
10832PP      PP20936   0.880   3.412  13.425  0.3119  0.2386  0.0370
10833PP      PP20937   4.126  10.583   3.760  0.2477  0.0661 -0.3856
10834PP      PP20938   8.337  10.861  10.054 -0.0068 -0.1340 -0.2751
10835PP      PP20939   2.397   0.791   3.411 -0.1675 -0.3408  0.1664
10836PP      PP20940  12.021  13.366   1.398  0.1588 -0.2044 -0.2603
10837PP      PP20941  15.460  14.712   3.987 -0.0561 -0.3187 -0.0300
10838PP      PP20942   3.283  11.831  13.206  0.1280  0.1404  0.1069
10839PP      PP20943  15.623  10.758  12.661  0.0767 -0.0441 -0.0798
10840PP      PP20944   8.072  11.769  11.071  0.1462 -0.2433 -0.2202
10841PP      PP20945   3.909  12.970  11.389  0.1549  0.1749 -0.3462
10842PP      PP20946  14.000  13.145   4.034 -0.0482 -0.2545  0.0347
10843PP      PP20947   6.838  15.116  13.251  0.0143 -0.1131  0.2301
10844PP      PP20948   4.985   2.284   3.390  0.0863  0.2694 -0.1739
10845PP      PP20949   6.053  15.547   0.132  0.0290  0.3402  0.1163
10846PP      PP20950  10.286   5.628  13.130 -0.1304 -0.0297  0.1499
10847PP      PP20951  14.185  10.010   2.613  0.0793  0.2676 -0.1426
10848PP      PP20952   3.018   4.483  13.338 -0.0648 -0.1195  0.1079
10849PP      PP20953   6.641   3.053  11.010 -0.0857  0.1048  0.1997
10850PP      PP20954  12.725   6.738   0.725 -0.1463 -0.5452 -0.1084
10851PP      PP20955  10.187   4.667  12.992 -0.0386 -0.4401  0.1160
10852PP      PP20956   2.196  13.534   9.341  0.0751  0.1393  0.4575
10853PP      PP20957   9.127   7.647  12.248  0.0656 -0.1913 -0.0738
10854PP      PP20958  10.799   6.951   9.996 -0.2200  0.1271 -0.2877
10855PP      PP20959   1.333   8.735   2.771 -0.1657 -0.1135  0.1394
10856PP      PP20960  10.234   2.283  11.431 -0.2107 -0.2435  0.1366
10857PP      PP20961  15.033   7.293   0.923  0.0862 -0.0146  0.1387
10858PP      PP20962  15.777   8.577   2.369  0.0373  0.4011  0.0611
10859PP      PP20963  14.695  11.316   3.127 -0.1692  0.1562  0.0687
10860PP      PP20964   1.509  12.777   4.762 -0.0687 -0.1327 -0.2086
10861PP      PP20965   2.040   7.852  10.123 -0.0144  0.3797 -0.0140
10862PP      PP20966  14.150  12.199   2.985 -0.0243 -0.1528 -0.2706
10863PP      PP20967  11.267   7.149   4.976 -0.1535 -0.1598  0.1788
10864PP      PP20968   7.945   1.568  11.930  0.0939 -0.0557 -0.2783
10865PP      PP20969   5.792  14.167  13.027 -0.1504  0.1390 -0.0686
10866PP      PP20970  11.424   7.841  10.528  0.1873  0.0119 -0.1774
10867PP      PP20971  14.595   7.405   4.617 -0.1023  0.0097 -0.1181
10868PP      PP20972   9.215   3.547  13.009  0.3037 -0.1496  0.1035
10869PP      PP20973  11.295   6.406   1.917  0.2658 -0.0600  0.1599
10870PP      PP20974   4.451   9.858   0.315 -0.0377  0.2164 -0.4185
10871PP      PP20975   7.726   1.061   8.914  0.2124 -0.1881 -0.2216
10872PP      PP20976  15.146  14.098   3.295 -0.0264 -0.3286  0.0587
10873PP      PP20977   9.705  12.645   9.179 -0.0187  0.1306 -0.0706
10874PP      PP20978   6.399   2.106  10.961  0.1535  0.2169  0.0225
10875PP      PP20979  11.136  12.115  11.091 -0.1272  0.1378  0.0834
10876PP      PP20980   5.532   5.787   4.067  0.1318  0.0413 -0.0467
10877PP      PP20981  14.463   0.401  11.946  0.3988 -0.3781  0.2453
10878PP      PP20982  10.551   0.681  10.362 -0.0065 -0.0675  0.1937
10879PP      PP20983  11.483   0.359   1.536  0.0095  0.0286  0.1564
10880PP      PP20984   5.701  14.334   1.306  0.0003  0.0155  0.2463
10881PP      PP20985   1.771   3.592  11.660  0.1656 -0.2491 -0.1994
10882PP      PP20986  15.227  14.186  12.470  0.0219  0.1009  0.2414
10883PP      PP20987  14.698   1.376   9.576  0.0748  0.2752 -0.1059
10884PP      PP20988  15.248  15.232  10.578 -0.0145  0.0435 -0.2351
10885PP      PP20989   7.706  14.776  13.040  0.1138 -0.1322  0.1379
10886PP      PP20990   2.391  11.964  12.081  0.0172  0.4171  0.2139
10887PP      PP20991  11.608  15.557   2.936  0.1434 -0.1724  0.0453
10888PP      PP20992   5.154   2.769   0.312  0.0665  0.0944  0.2285
10889PP      PP20993   7.645   8.622   2.522 -0.0068  0.0088 -0.0149
10890PP      PP20994   7.453   5.257  11.917  0.1940  0.0085  0.0074
10891PP      PP20995  14.146   6.288   5.340  0.1784  0.3891  0.0606
10892PP      PP20996  10.181   8.123   5.237  0.0167  0.0002 -0.1036
10893PP      PP20997  10.588   2.506   1.846  0.0441  0.2554  0.0901
10894PP      PP20998   7.184  11.347   3.010 -0.0802 -0.0156 -0.2045
10895PP      PP20999  10.404   9.191  10.883 -0.0782  0.1436 -0.0195
10896PP      PP21000   0.586  13.649   8.887  0.0870  0.0466 -0.1653
10897PP      PP21001   7.208  14.411  10.331  0.0124  0.2338 -0.0985
10898PP      PP21002  14.375   1.905  13.109  0.1655 -0.2649  0.1210
10899PP      PP21003   0.022  13.413  13.169 -0.1218 -0.0763  0.0393
10900PP      PP21004  15.832   4.904  12.938 -0.1288 -0.0405  0.0578
10901PP      PP21005   6.398   0.980  11.230 -0.0868 -0.1625 -0.0473
10902PP      PP21006   3.790  14.769  10.237 -0.0045 -0.2457  0.0973
10903PP      PP21007   4.824  15.744  11.011  0.0343  0.2210  0.0605
10904PP      PP21008  11.040   3.209  10.083 -0.1039  0.0483  0.0750
10905PP      PP21009  10.268  11.796   4.310  0.0963  0.0255  0.0323
10906PP      PP21010  11.890   4.758   4.569 -0.1307  0.3136 -0.1843
10907PP      PP21011   6.065   7.122  12.198  0.1876  0.2195 -0.0562
10908PP      PP21012   5.287   3.704   2.901 -0.1293 -0.3797 -0.2207
10909PP      PP21013  12.874   6.051  12.851 -0.1987  0.1330 -0.0154
10910PP      PP21014   8.692  13.765   1.478 -0.1005  0.1394  0.0423
10911PP      PP21015   5.105   5.496  12.163  0.0079  0.2542 -0.1161
10912PP      PP21016  13.664   6.823  13.103 -0.0921  0.0520 -0.0175
10913PP      PP21017   2.196  14.882  13.071  0.1031 -0.0636 -0.1328
10914PP      PP21018  12.065   2.794   0.980 -0.0487  0.0351 -0.0194
10915PP      PP21019   8.094  10.087   9.844  0.0833 -0.2679 -0.1105
10916PP      PP21020   9.838  10.336   3.546 -0.0739  0.0154  0.2465
10917PP      PP21021  10.832   9.181   3.614 -0.0538 -0.0051  0.2118
10918PP      PP21022   6.298   0.260   7.616 -0.1973 -0.1218  0.0510
10919PP      PP21023   1.017  12.588   0.893 -0.1543 -0.1918  0.1528
10920PP      PP21024  14.171   2.108  11.803 -0.3162  0.0824 -0.1993
10921PP      PP21025   0.779   7.412   2.908  0.1257 -0.1190  0.0477
10922PP      PP21026   0.369  14.658  13.231  0.1931  0.1469 -0.1945
10923PP      PP21027   4.732   4.345   4.388  0.1872  0.2062  0.2307
10924PP      PP21028  10.792   7.047   9.317  0.0273  0.0116  0.2978
10925PP      PP21029  15.564   3.801   3.261 -0.1370  0.0828 -0.3250
10926PP      PP21030  12.893   8.147   9.404 -0.0755  0.1196  0.0614
10927PP      PP21031   8.138   0.425   8.818 -0.3528  0.1472  0.1522
10928PP      PP21032   8.940  14.601   8.641  0.0972 -0.0202  0.2377
10929PP      PP21033   6.659  12.409   1.385 -0.0227  0.0935  0.1225
10930PP      PP21034   1.636  11.297  13.000 -0.1729  0.0066 -0.2096
10931PP      PP21035   2.908   5.125   2.417  0.1136  0.1500 -0.1875
10932PP      PP21036   5.847  11.611   3.513  0.2981  0.1415 -0.1314
10933PP      PP21037   9.697   3.862  11.761  0.1450  0.0217 -0.0870
10934PP      PP21038  11.721   9.847   3.668 -0.0211 -0.2459  0.0481
10935PP      PP21039  10.478  11.709  12.894  0.1178  0.2432  0.0099
10936PP      PP21040  13.560   5.408   3.062  0.3041  0.2603  0.1987
10937PP      PP21041   8.439   3.897   2.875  0.0846 -0.0617 -0.3061
10938PP      PP21042   3.838  14.713   3.634  0.0335  0.2638 -0.2336
10939PP      PP21043   2.347  14.464  11.499  0.0674  0.1557 -0.0362
10940PP      PP21044  13.309   0.198  10.054 -0.0852  0.0743  0.0796
10941PP      PP21045   1.444   9.278   5.331  0.2658  0.2266 -0.1668
10942PP      PP21046   7.240   0.328   0.404 -0.0780 -0.1940  0.1188
10943PP      PP21047  14.506   3.794   3.620 -0.2444 -0.1843  0.1518
10944PP      PP21048   3.868   9.567   1.175  0.0302 -0.1145  0.0266
10945PP      PP21049   5.743   0.507  10.370 -0.1191 -0.0258  0.0696
10946PP      PP21050  12.247  11.684   9.371  0.0455 -0.1677 -0.3261
10947PP      PP21051   6.695   3.382   4.031  0.0865 -0.3066 -0.1773
10948PP      PP21052   4.728  12.136   2.890  0.2227 -0.1271 -0.0129
10949PP      PP21053   2.639  12.454  10.071  0.0062  0.2631  0.0628
10950PP      PP21054  15.095   6.771   2.299 -0.0468  0.0295 -0.4457
10951PP      PP21055  15.181   1.941   0.817 -0.0198 -0.3945 -0.1759
10952PP      PP21056  13.938  11.529  10.533 -0.0213 -0.0768  0.0958
10953PP      PP21057   0.034  10.409   3.944 -0.1420 -0.0844 -0.0175
10954PP      PP21058   6.552   9.071   0.981  0.1265  0.5269  0.0776
10955PP      PP21059  13.254   1.068   0.630 -0.0593  0.2377 -0.0657
10956PP      PP21060   0.068  15.160   2.608  0.1343  0.1212  0.1146
10957PP      PP21061   4.966   0.790   8.775  0.0460  0.1611 -0.2158
10958PP      PP21062   5.688   8.451   0.414  0.3547 -0.3404  0.0838
10959PP      PP21063   9.640   8.641  11.427  0.0508  0.2757 -0.1245
10960PP      PP21064   6.583  13.564  10.346  0.2519  0.2163  0.1494
10961PP      PP21065   7.454  14.816   3.114 -0.0723  0.0469  0.1259
10962PP      PP21066  10.707  15.427   9.104  0.1391  0.3527 -0.1161
10963PP      PP21067   2.464   6.401   1.050 -0.2659  0.2327  0.0486
10964PP      PP21068   8.975   7.502  10.940 -0.3234  0.1697  0.0598
10965PP      PP21069   1.181   0.448   8.859  0.2149 -0.1592 -0.0722
10966PP      PP21070   1.762   5.888   1.582 -0.0102  0.4119  0.4753
10967PP      PP21071  15.822   1.689   3.263 -0.1034 -0.1243 -0.1281
10968PP      PP21072  13.784   3.486  12.132  0.0281 -0.0944 -0.1039
10969PP      PP21073   3.170   5.506   2.112 -0.0849 -0.0265  0.0073
10970PP      PP21074   8.612   4.942  12.094  0.1418 -0.1383  0.0798
10971PP      PP21075   5.167   9.111   0.152  0.1591 -0.1170 -0.1520
10972PP      PP21076  14.903   2.416   1.574  0.2123  0.3320  0.1362
10973PP      PP21077  11.640  15.008   2.978 -0.0774 -0.1552  0.0794
10974PP      PP21078   9.091  12.144  11.927 -0.0187  0.1659  0.3096
10975PP      PP21079  14.062   1.673  11.526 -0.3268  0.0141  0.3293
10976PP      PP21080   5.098   3.584   0.700 -0.0653 -0.1744 -0.0255
10977PP      PP21081   6.353   4.157  12.030 -0.3656  0.2126 -0.1374
10978PP      PP21082   8.775  15.320   0.447  0.3303 -0.0419  0.0713
10979PP      PP21083   6.714  15.517  12.826  0.0825 -0.1262  0.2167
10980PP      PP21084   1.077   1.477   8.963 -0.1389  0.0605  0.1914
10981PP      PP21085   6.844  12.837   2.905 -0.1423 -0.1470  0.1116
10982PP      PP21086   7.443   3.036  10.918  0.1510  0.1884 -0.0147
10983PP      PP21087   0.460   0.200  13.333 -0.0768 -0.0785  0.0616
10984PP      PP21088  11.330  15.772  11.883  0.0718 -0.0860 -0.1075
10985PP      PP21089   1.647   5.740   2.033 -0.1291  0.1798 -0.4835
10986PP      PP21090   6.192   9.976   2.354  0.2505  0.0616 -0.2501
10987PP      PP21091  13.282   2.835   2.769 -0.2213 -0.1939  0.4071
10988PP      PP21092   0.757  12.077  10.034  0.3377 -0.0129 -0.2332
10989PP      PP21093   8.485   8.524   1.390 -0.0741  0.0870 -0.1923
10990PP      PP21094  12.079   7.501   9.255 -0.1086  0.0997 -0.0741
10991PP      PP21095   6.564   5.893   1.288 -0.0996  0.2360 -0.1040
10992PP      PP21096   6.719   7.289  11.842 -0.4744 -0.2325  0.1982
10993PP      PP21097  15.345   5.157  11.447  0.4618  0.0182 -0.0910
10994PP      PP21098  12.463   8.460   1.449  0.1284 -0.2121  0.1594
10995PP      PP21099  13.127   3.632   0.908  0.0954  0.4553 -0.1366
10996PP      PP21100  12.825   8.625   5.142  0.1809  0.1868 -0.1183
10997PP      PP21101   2.683   4.829   3.214  0.1833 -0.0067 -0.1722
10998PP      PP21102   3.466   6.321  10.784 -0.1102  0.1338 -0.0156
10999PP      PP21103   8.153   3.210   4.310 -0.1103 -0.2327 -0.2325
11000PP      PP21104  10.760   5.793   9.331  0.3054  0.0807  0.0071
11001PP      PP21105   2.989   1.334   2.519  0.0234 -0.0072  0.3406
11002PP      PP21106  11.175  13.406   0.926 -0.0130 -0.3229 -0.0487
11003PP      PP21107   0.704  14.281   0.408  0.0494 -0.2157 -0.1879
11004PP      PP21108  15.458   5.534   1.987  0.0403 -0.1692 -0.2511
11005PP      PP21109   9.553  11.752   3.600 -0.0989 -0.3496  0.0682
11006PP      PP21110   4.593  15.181   2.520 -0.1454  0.1963  0.1009
11007PP      PP21111  14.203   0.105  12.240  0.2805 -0.2819 -0.2923
11008PP      PP21112  14.500   6.164  12.789  0.0427 -0.2845 -0.5747
11009PP      PP21113  11.601  11.343   9.069  0.0164  0.1883  0.1020
11010PP      PP21114  13.214  14.487   9.557 -0.2402 -0.1636  0.0971
11011PP      PP21115   3.762   5.346   2.329 -0.0414 -0.3157 -0.1564
11012PP      PP21116   9.826   1.961   4.448 -0.2308 -0.0143 -0.1033
11013PP      PP21117   2.692   2.554  11.977 -0.0814  0.1645  0.0209
11014PP      PP21118   3.129  10.384  11.271 -0.3711 -0.0445  0.1399
11015PP      PP21119  14.587   2.322   7.601  0.0394  0.0353 -0.4735
11016PP      PP21120   8.718   0.266   8.534 -0.2702  0.0625 -0.3195
11017PP      PP21121   4.031   9.268  10.598 -0.0420  0.0970 -0.1865
11018PP      PP21122   5.386  13.580  11.804 -0.2973  0.0414 -0.2020
11019PP      PP21123  11.889   7.218   5.107 -0.0491  0.0116  0.2025
11020PP      PP21124   2.965  14.271   2.614 -0.1526  0.2345  0.5754
11021PP      PP21125  11.623  10.125  10.996 -0.0850  0.0368  0.0135
11022PP      PP21126   6.839   5.557   0.552 -0.3546 -0.1604  0.1629
11023PP      PP21127  10.887  11.061   1.743 -0.0135  0.2115 -0.1349
11024PP      PP21128   3.618   0.104   9.196 -0.2190  0.1892  0.4655
11025PP      PP21129   4.048   2.374   3.654 -0.0721  0.2715  0.0877
11026PP      PP21130   2.527   6.575  11.739  0.0201  0.2479  0.0344
11027PP      PP21131  13.448   3.036   9.171 -0.1632 -0.0927 -0.2233
11028PP      PP21132  15.209  12.759   3.385  0.1917 -0.0591  0.1509
11029PP      PP21133   1.949   8.117  11.022 -0.3784  0.1538  0.5544
11030PP      PP21134   6.536   4.532   9.126 -0.1549  0.1098 -0.2409
11031PP      PP21135   5.549  15.730   1.903 -0.0817 -0.0546 -0.1819
11032PP      PP21136  15.514  10.263  13.381 -0.2462  0.2403 -0.0500
11033PP      PP21137  13.333   5.136  12.496  0.3252 -0.1549  0.1319
11034PP      PP21138  10.703   5.596  12.658  0.4524  0.1801  0.1518
11035PP      PP21139   8.354  12.383  10.367 -0.0633 -0.2817 -0.1494
11036PP      PP21140   4.412   9.892   2.006 -0.1208 -0.0218  0.2554
11037PP      PP21141  12.586  11.429   1.792 -0.1800 -0.0523  0.2319
11038PP      PP21142   7.015  13.004   9.561 -0.3634  0.2505  0.2194
11039PP      PP21143  14.755   6.304  11.884 -0.1770  0.0853  0.0839
11040PP      PP21144   4.249  10.378   9.363  0.1774  0.1219  0.1437
11041PP      PP21145   9.927   0.231   0.086  0.0277 -0.0376  0.1921
11042PP      PP21146   8.769  10.657  10.145  0.0329 -0.2329 -0.2169
11043PP      PP21147   1.726  13.596  10.741  0.0456 -0.4212 -0.1763
11044PP      PP21148   4.527   7.497   4.839 -0.0693  0.1124  0.1524
11045PP      PP21149   5.074   9.231  13.181  0.1792  0.0789 -0.3035
11046PP      PP21150   6.050   4.724  13.072 -0.2499 -0.2680 -0.3710
11047PP      PP21151  12.011  11.898   1.345  0.1421  0.0041 -0.2202
11048PP      PP21152   5.154  13.940   9.815  0.1317 -0.0741  0.1224
11049PP      PP21153  14.232  14.278  10.435 -0.0454 -0.0408  0.0045
11050PP      PP21154   4.777   4.502  10.894 -0.1813 -0.2385  0.2751
11051PP      PP21155   0.069  10.268   3.005 -0.3701  0.0739  0.0879
11052PP      PP21156   6.906  11.957   9.180  0.0344 -0.1094  0.3455
11053PP      PP21157   7.305  10.664  10.525 -0.1880 -0.2770 -0.1967
11054PP      PP21158   8.972   1.647   3.201 -0.0080  0.0073 -0.1088
11055PP      PP21159  12.011   7.586   3.364 -0.0721 -0.3196  0.0337
11056PP      PP21160   2.788  10.489   0.825  0.1307 -0.1610 -0.1959
11057PP      PP21161   6.184   4.208   9.381 -0.1176 -0.3315 -0.0347
11058PP      PP21162   7.703   6.564   4.317 -0.1538  0.0414  0.4536
11059PP      PP21163   1.467   7.905  12.352 -0.1305 -0.0040 -0.2937
11060PP      PP21164  13.192  14.979   9.447 -0.2941 -0.0337  0.1383
11061PP      PP21165  10.181   5.606   0.689 -0.0768 -0.2471  0.0457
11062PP      PP21166   2.285  13.088  11.193  0.3593 -0.0279  0.0217
11063PP      PP21167  14.344   9.407  10.090 -0.2404  0.2861  0.3512
11064PP      PP21168  15.118  12.083  13.323 -0.0466 -0.0647 -0.3311
11065PP      PP21169   5.637   7.430   2.815  0.0502  0.1880  0.0164
11066PP      PP21170   9.596   4.727   3.769 -0.1385  0.1657 -0.1959
11067PP      PP21171  10.353  11.112   0.740 -0.0395  0.0478 -0.0134
11068PP      PP21172   8.417  15.808   8.810 -0.1081 -0.2322  0.1960
11069PP      PP21173  15.170   7.420   4.743 -0.1141  0.0603  0.0364
11070PP      PP21174   6.362   6.553   0.942  0.1478  0.0295  0.0298
11071PP      PP21175   7.074   4.150   1.095  0.2892 -0.1639 -0.2566
11072PP      PP21176  10.170  13.433  12.684 -0.3493 -0.2223  0.0452
11073PP      PP21177  11.333   3.505  10.385 -0.0538 -0.0825 -0.3249
11074PP      PP21178   7.473   7.076   2.288  0.0787  0.2307 -0.0607
11075PP      PP21179   5.755   4.405  10.713  0.0030  0.4073  0.1404
11076PP      PP21180   3.854   9.660   3.620  0.0123 -0.1791  0.0015
11077PP      PP21181   2.884   9.687   1.169  0.2422  0.0857 -0.0445
11078PP      PP21182   6.865   7.824   3.313 -0.1872  0.0039 -0.1539
11079PP      PP21183   8.292  12.038   2.542 -0.1038  0.0004 -0.3349
11080PP      PP21184  12.859  13.721   4.374  0.0511  0.2889 -0.1271
11081PP      PP21185   0.310   2.280   2.119 -0.2828  0.1002 -0.1044
11082PP      PP21186   0.949  13.899   9.124  0.0012  0.4689 -0.0381
11083PP      PP21187   6.781   4.852  10.720 -0.2019  0.2073 -0.2641
11084PP      PP21188  15.091   4.162   1.391  0.2982  0.2817  0.2206
11085PP      PP21189  15.154   6.753  11.744  0.0263  0.2473 -0.0010
11086PP      PP21190  13.011   9.067   0.792  0.3352 -0.0685  0.2124
11087PP      PP21191   2.792  11.383  12.372 -0.0005 -0.1750  0.5213
11088PP      PP21192  10.955   0.535  10.106 -0.3234  0.0797  0.0455
11089PP      PP21193   0.524   3.122  12.265  0.3324 -0.1039  0.2180
11090PP      PP21194  10.718  11.538  12.424  0.1150 -0.2948 -0.2081
11091PP      PP21195  12.798   3.614  13.435 -0.1258  0.0016  0.2908
11092PP      PP21196  15.639  12.844   4.657 -0.0356  0.3525 -0.0155
11093PP      PP21197   1.223  11.530  10.924 -0.2277 -0.2829 -0.2926
11094PP      PP21198   9.834   4.873   2.816 -0.0719  0.2434  0.1012
11095PP      PP21199   7.545   6.891  11.870 -0.0157  0.1977 -0.3418
11096PP      PP21200   0.891   9.338   4.330  0.2188  0.1506  0.0028
11097PP      PP21201  13.890   6.180   1.983  0.0403 -0.3515  0.1145
11098PP      PP21202   8.177  10.145  12.051  0.0468  0.1047  0.3741
11099PP      PP21203  13.978   6.397   2.460 -0.1889 -0.1828  0.0200
11100PP      PP21204  12.522   0.780   4.115  0.3511  0.0362 -0.0109
11101PP      PP21205  15.055   3.922   9.504 -0.1132 -0.1474 -0.0519
11102PP      PP21206  11.614   3.184   3.292  0.3259  0.2156  0.1221
11103PP      PP21207   2.421  15.463   3.259 -0.0163  0.2891 -0.0886
11104PP      PP21208   9.742  10.730   9.865  0.0453 -0.1192  0.0071
11105PP      PP21209  15.242   3.109  11.034  0.1494  0.1675 -0.1080
11106PP      PP21210  14.136   9.825   0.936  0.0758 -0.4159 -0.0034
11107PP      PP21211   3.887   7.627   1.566 -0.2063 -0.2031 -0.0665
11108PP      PP21212   7.790  12.567   3.726 -0.1313  0.1956  0.4269
11109PP      PP21213  12.632  13.625   1.590  0.2669 -0.1123  0.1354
11110PP      PP21214  12.683   6.080   1.787  0.0582 -0.0315 -0.1169
11111PP      PP21215   1.932  14.060  10.585 -0.0949 -0.0731  0.0599
11112PP      PP21216  14.580  13.702   1.704  0.1254 -0.2305 -0.0594
11113PP      PP21217   3.046  13.550   3.985 -0.4389  0.1735  0.0338
11114PP      PP21218   3.124   7.458  10.258  0.1975 -0.0470  0.0099
11115PP      PP21219  10.573  13.369   1.022  0.1886 -0.2395 -0.2336
11116PP      PP21220  13.359   7.084  12.679 -0.0500 -0.3113 -0.1936
11117PP      PP21221  11.246  14.458   0.054  0.3615  0.5827  0.0057
11118PP      PP21222   9.791   2.055   8.854 -0.0665  0.0430  0.0526
11119PP      PP21223   8.685   6.566   1.798 -0.1912 -0.1262  0.3031
11120PP      PP21224  15.295  13.817   8.811 -0.1822  0.2270  0.0813
11121PP      PP21225   5.720   5.819   3.077 -0.3365  0.1410  0.0040
11122PP      PP21226   5.189   6.825   0.517  0.0276 -0.1352 -0.1160
11123PP      PP21227  11.134   6.549   3.144 -0.1738 -0.2138  0.2546
11124PP      PP21228   7.966   8.928  10.191  0.0001  0.0979 -0.2404
11125PP      PP21229   1.642  14.595   9.334 -0.1594 -0.0843 -0.2412
11126PP      PP21230   2.419   0.063  12.600 -0.0141  0.2399  0.1114
11127PP      PP21231   9.311   8.310   2.341  0.1883  0.0586  0.0764
11128PP      PP21232  11.805   1.945   4.223  0.4507 -0.2350  0.0592
11129PP      PP21233   1.674  13.296   3.982 -0.0775  0.0261 -0.0017
11130PP      PP21234   7.575   2.160  11.767  0.2089  0.1766 -0.2264
11131PP      PP21235   9.170   9.576   4.358  0.0814 -0.0807  0.2447
11132PP      PP21236   8.284  15.326  11.850  0.1156  0.0215  0.0370
11133PP      PP21237  13.773   5.762  13.406  0.0048  0.0349 -0.1680
11134PP      PP21238   2.687   6.486   4.304  0.0410 -0.2727 -0.1648
11135PP      PP21239   7.984   7.196   2.382  0.1044  0.0123 -0.2284
11136PP      PP21240  13.780   6.638   5.135  0.0828 -0.1154 -0.3047
11137PP      PP21241   6.154   4.028   0.649  0.0193  0.0524  0.4580
11138PP      PP21242  11.379   4.445   1.380  0.0351 -0.0119 -0.0472
11139PP      PP21243   6.379  10.120   0.424 -0.2718  0.0487  0.2186
11140PP      PP21244  14.673   0.177  12.444 -0.1009 -0.3811 -0.1478
11141PP      PP21245  13.931  13.114   9.205  0.2739 -0.1641  0.1844
11142PP      PP21246  13.322   3.356   2.781 -0.0942  0.1816  0.0751
11143PP      PP21247   3.556  14.682   3.152  0.4024 -0.2147  0.0073
11144PP      PP21248   7.138   7.392  12.563  0.0840  0.1934 -0.2326
11145PP      PP21249   8.373   6.152  12.564  0.0520 -0.1058  0.1232
11146PP      PP21250   3.540   2.956  10.139  0.2679  0.0764 -0.1481
11147PP      PP21251  13.003   5.478   1.923  0.0914 -0.2095  0.3308
11148PP      PP21252   1.292   7.706  12.854 -0.1153 -0.1580  0.0663
11149PP      PP21253   8.946  13.648   3.844 -0.1090 -0.0345  0.1935
11150PP      PP21254   2.712   8.009   4.466 -0.1488 -0.2967 -0.2257
11151PP      PP21255   9.667  11.678   9.305 -0.0960  0.0002 -0.1151
11152PP      PP21256  10.824  13.107   0.709  0.1599  0.0412 -0.0950
11153PP      PP21257  15.569   6.338  10.716  0.0191 -0.0434  0.1785
11154PP      PP21258   4.351  11.556  12.180 -0.1697 -0.1705  0.1152
11155PP      PP21259  14.360  11.777   9.813  0.1044 -0.0889  0.0076
11156PP      PP21260   6.782   1.324  13.196 -0.1530  0.1950  0.0073
11157PP      PP21261  10.048   7.184   2.628  0.2336  0.1777 -0.1285
11158PP      PP21262   2.879   5.340   0.949 -0.1855  0.0157 -0.0998
11159PP      PP21263   6.883   9.640  11.834  0.2102  0.4383 -0.1991
11160PP      PP21264   4.574   9.690   4.542 -0.0759  0.2528 -0.0602
11161PP      PP21265  10.121  14.550   0.238  0.0534  0.2195  0.0827
11162PP      PP21266   5.886  11.255   0.357 -0.3940  0.1373  0.0623
11163PP      PP21267   5.958   9.612  10.967 -0.0396  0.0172  0.1031
11164PP      PP21268   6.971  12.618  10.997  0.0341 -0.1505 -0.0244
11165PP      PP21269  12.825  12.074  12.986 -0.0846 -0.0082 -0.0975
11166PP      PP21270  10.024   3.266   2.017  0.1053  0.0258 -0.0196
11167PP      PP21271   4.166  13.663   9.433  0.2666  0.1019 -0.3729
11168PP      PP21272   1.449   0.638   3.199  0.2591 -0.0741 -0.1482
11169PP      PP21273   3.299  10.021   4.316  0.2002 -0.2319  0.0910
11170PP      PP21274  15.209   6.386  12.146 -0.3332  0.3737 -0.0433
11171PP      PP21275  11.218   3.095   0.907  0.2995  0.0405  0.0313
11172PP      PP21276  11.435   2.233   1.084  0.0695  0.0653  0.0849
11173PP      PP21277  10.756   6.755   8.936 -0.1376 -0.0261 -0.0103
11174PP      PP21278   1.629   2.636   0.624  0.1213 -0.3431 -0.3531
11175PP      PP21279   8.691   3.006   8.087  0.2165 -0.1696  0.2173
11176PP      PP21280   4.695   5.101   9.556 -0.1066 -0.1331 -0.3861
11177PP      PP21281  10.130   4.401   1.657  0.2841  0.2244 -0.1120
11178PP      PP21282   8.652   5.736   2.085 -0.1359 -0.0097 -0.0593
11179PP      PP21283  11.761   4.170   3.182 -0.0282 -0.0578 -0.2667
11180PP      PP21284   5.475  12.415   2.511  0.0477 -0.1832  0.2744
11181PP      PP21285   6.191  12.919   9.742  0.3484 -0.2626  0.0992
11182PP      PP21286   2.726   2.171   2.833  0.3612 -0.2032 -0.0540
11183PP      PP21287  10.098   6.511   3.624 -0.1767 -0.0200  0.1758
11184PP      PP21288   4.537   0.357  11.095 -0.0921  0.2768 -0.3936
11185PP      PP21289   4.486   6.862   3.616  0.0551  0.0149  0.1595
11186PP      PP21290   9.418   0.792  10.923 -0.1894 -0.2358 -0.2132
11187PP      PP21291   6.296   7.312   3.542 -0.1863 -0.2528  0.0090
11188PP      PP21292   3.984   2.416   2.552  0.1060 -0.1327  0.2012
11189PP      PP21293   1.715   4.883  12.184  0.0630  0.1355  0.2633
11190PP      PP21294   1.150   0.372  11.611  0.1963  0.1014  0.0922
11191PP      PP21295   4.174  12.731   9.167  0.0874 -0.0235  0.1118
11192PP      PP21296   1.320   4.112   4.461  0.0686 -0.0662  0.2354
11193PP      PP21297   3.028   9.439   3.924 -0.1084  0.1133 -0.1451
11194PP      PP21298   4.040   8.287   4.057  0.0665  0.1085  0.0704
11195PP      PP21299  13.693   3.955  10.743  0.2498  0.0116  0.0062
11196PP      PP21300   2.835   7.692   5.581 -0.2998 -0.1008 -0.0517
11197PP      PP21301  10.811   1.247   2.150 -0.1733  0.0299 -0.0863
11198PP      PP21302  12.998  12.762   0.375  0.1732 -0.2116 -0.3858
11199PP      PP21303   4.179   3.266   2.701  0.0440 -0.2837  0.0445
11200PP      PP21304   1.677   7.510   0.204 -0.1349 -0.2010  0.0042
11201PP      PP21305  13.670  14.876  10.595  0.1260 -0.1542 -0.0355
11202PP      PP21306   0.811   9.617   2.587  0.0436  0.2084 -0.0158
11203PP      PP21307   0.995  13.678   2.005  0.0030 -0.4419 -0.0635
11204PP      PP21308   5.902  11.570   2.047  0.0310  0.0074  0.2738
11205PP      PP21309  12.916  14.622  11.617  0.0868  0.1820  0.1844
11206PP      PP21310   2.079   6.298  11.866  0.0394 -0.0897  0.2632
11207PP      PP21311  14.520  10.893   0.126  0.0004 -0.2183 -0.0027
11208PP      PP21312  15.748   0.388   1.533 -0.2546  0.1278 -0.0589
11209PP      PP21313   7.610  10.617   0.693 -0.0078 -0.2427  0.2069
11210PP      PP21314   5.272   5.935  11.909  0.0898  0.0432 -0.0250
11211PP      PP21315  11.922   6.392  11.443  0.0088 -0.0127 -0.1571
11212PP      PP21316   1.010   5.399   5.339  0.3123  0.1623 -0.0193
11213PP      PP21317   0.227  11.816   4.604  0.0552  0.1320  0.0711
11214PP      PP21318   9.298   4.178   1.542  0.1555  0.1707  0.3847
11215PP      PP21319   0.908  12.066  12.834  0.0094  0.1854 -0.1358
11216PP      PP21320   4.663   5.127  12.106  0.0848  0.0064 -0.1753
11217PP      PP21321  13.021   7.477   2.677  0.0257  0.1689 -0.1571
11218PP      PP21322   6.493   0.439   8.606  0.0629  0.1248 -0.2113
11219PP      PP21323   8.531   1.444  10.737  0.0848  0.1069 -0.2921
11220PP      PP21324  15.199   4.722   0.132 -0.2747  0.1618  0.2553
11221PP      PP21325  13.792   8.429   3.396  0.0338  0.0180  0.0683
11222PP      PP21326   7.581   1.609   1.200  0.1733  0.2087 -0.1487
11223PP      PP21327   7.791   5.594   4.041  0.0653 -0.2261  0.0311
11224PP      PP21328  13.894   5.450  10.138 -0.0693  0.1950  0.2209
11225PP      PP21329  10.292   7.649   9.585  0.0641 -0.0066 -0.1378
11226PP      PP21330   5.956  15.630   2.297 -0.1847 -0.1427  0.5012
11227PP      PP21331   2.705  14.607   1.896 -0.0896  0.0742 -0.0338
11228PP      PP21332   6.962  14.399   0.488  0.1924 -0.0504 -0.0882
11229PP      PP21333   2.052  10.398   1.246 -0.1968  0.3712  0.0326
11230PP      PP21334   9.233  10.502  12.463  0.1164 -0.1034  0.2574
11231PP      PP21335  15.361  13.608  11.892 -0.0861 -0.2783 -0.0962
11232PP      PP21336   5.991   0.318  11.651 -0.1623 -0.1582  0.2695
11233PP      PP21337   9.880   5.829  10.931  0.0484 -0.0084 -0.0095
11234PP      PP21338   6.606  10.434   1.739 -0.2929 -0.2107 -0.1963
11235PP      PP21339  15.435  14.525   3.061  0.1594 -0.1565  0.0091
11236PP      PP21340   6.285  11.917   9.846 -0.0933  0.2243  0.1000
11237PP      PP21341   8.025   1.489   3.768  0.2345  0.0777  0.2007
11238PP      PP21342   2.130  11.506   3.693 -0.2757 -0.3418  0.1627
11239PP      PP21343   2.648   4.710  12.554 -0.0143 -0.0139  0.1774
11240PP      PP21344  14.532   0.280   0.944 -0.1341 -0.0870 -0.0155
11241PP      PP21345  15.562  11.886  10.204 -0.2850  0.0214 -0.0976
11242PP      PP21346  14.190  14.818  12.911 -0.0375 -0.0588  0.0393
11243PP      PP21347   4.507   9.436  12.917  0.2860  0.0085  0.0659
11244PP      PP21348  13.793   7.777  10.769 -0.2011  0.3517  0.2975
11245PP      PP21349  12.968   8.601   1.517  0.1244 -0.0655 -0.2401
11246PP      PP21350   2.290   4.663   1.326 -0.1625 -0.2301  0.0199
11247PP      PP21351   1.282   7.874   0.174 -0.0998 -0.0731 -0.1045
11248PP      PP21352   1.357   9.487  10.024  0.0213  0.1056  0.0964
11249PP      PP21353   3.729   7.637   5.226  0.0111 -0.0690  0.1614
11250PP      PP21354  13.528   4.864   0.026  0.2160 -0.2700 -0.0929
11251PP      PP21355   8.221  11.795   1.064  0.0186 -0.0613 -0.1526
11252PP      PP21356   8.655   2.926   1.941 -0.0717 -0.2766  0.0057
11253PP      PP21357  12.000   9.349  12.933  0.2953 -0.1205  0.0879
11254PP      PP21358   7.822  14.071   0.965 -0.3200  0.0360  0.3771
11255PP      PP21359   7.179  14.131   9.918  0.0554  0.0513  0.1576
11256PP      PP21360   4.053   5.769   2.432 -0.2223  0.3168 -0.2057
11257PP      PP21361   2.717   5.961  11.113 -0.3369  0.0179  0.2264
11258PP      PP21362  15.331  11.463  12.750  0.2066 -0.3252 -0.1633
11259PP      PP21363  14.155  13.036  11.160 -0.0413 -0.2076 -0.0714
11260PP      PP21364   7.888   7.141  11.136  0.0102  0.0268  0.0779
11261PP      PP21365   8.839  11.655  10.398  0.1408 -0.2582 -0.1199
11262PP      PP21366   4.614   1.797  11.832 -0.0511  0.2229  0.2990
11263PP      PP21367  11.691  15.162   2.446 -0.3635  0.3154 -0.1820
11264PP      PP21368  14.896  14.042  13.243  0.2329  0.0474  0.0785
11265PP      PP21369  11.170   0.082  11.393 -0.2869 -0.0487  0.0480
11266PP      PP21370   7.409   8.967   4.142 -0.1636 -0.1651  0.0367
11267PP      PP21371   6.781  14.018  12.552 -0.2307  0.0927 -0.2962
11268PP      PP21372   8.652   6.720   3.298  0.6653  0.2137 -0.1827
11269PP      PP21373   9.560   1.412   2.045  0.1028  0.1050  0.0811
11270PP      PP21374  13.029   3.013   9.787 -0.1605  0.0549  0.5903
11271PP      PP21375   1.933   0.506   9.475  0.2207  0.1003  0.0965
11272PP      PP21376   8.656  11.889  10.929  0.3180 -0.0433 -0.1320
11273PP      PP21377  13.938  11.224   9.738  0.0741 -0.0220 -0.1336
11274PP      PP21378  14.763  12.038   4.647  0.3187 -0.2854  0.2761
11275PP      PP21379   1.894   7.752   3.278 -0.2296  0.1792  0.4708
11276PP      PP21380  13.090   0.061   0.880  0.1651  0.3043  0.0648
11277PP      PP21381  13.655   1.596  10.415 -0.1113  0.2015  0.1017
11278PP      PP21382   9.881   8.521   6.039  0.2053 -0.1655 -0.3423
11279PP      PP21383  14.479   2.726   2.397  0.0435 -0.1215 -0.0148
11280PP      PP21384   3.815   7.474  13.520 -0.2023  0.1284  0.1998
11281PP      PP21385  11.007   1.540  13.322 -0.2363 -0.3093 -0.3635
11282PP      PP21386   2.456   8.242   4.915 -0.1992  0.0997 -0.2923
11283PP      PP21387  10.597   0.734   3.552  0.1361  0.1765 -0.0477
11284PP      PP21388  11.051   0.390  11.896 -0.0545 -0.2134 -0.1507
11285PP      PP21389   9.126  11.956  10.744 -0.0163 -0.1780 -0.2643
11286PP      PP21390   1.259   5.027  11.947  0.0507 -0.1977 -0.1105
11287PP      PP21391  13.659  11.806  11.553  0.3665  0.3757  0.0793
11288PP      PP21392   2.977  10.844   9.542  0.0196 -0.0725 -0.0194
11289PP      PP21393  12.746   5.975   9.870 -0.1872 -0.0613  0.0715
11290PP      PP21394   0.217   8.206   4.235 -0.0285 -0.0414  0.0571
11291PP      PP21395   2.152   6.929   0.860 -0.0238 -0.1999  0.1066
11292PP      PP21396   2.368   1.612   9.247 -0.2861 -0.0807  0.0322
11293PP      PP21397   7.857   9.434  10.422  0.0305 -0.0062 -0.1578
11294PP      PP21398   2.793  11.492  11.373  0.4754 -0.1703 -0.1232
11295PP      PP21399  13.087  14.332   1.165 -0.2164  0.0132 -0.0956
11296PP      PP21400  10.381  11.632   1.980 -0.0007  0.1753  0.2275
11297PP      PP21401   1.621  13.259  10.385 -0.3307  0.0401 -0.1141
11298PP      PP21402   6.635   8.129  11.465 -0.0365 -0.1808 -0.1614
11299PP      PP21403  12.030   3.697  11.531  0.2708  0.0014 -0.2774
11300PP      PP21404  12.169   6.394  12.221  0.2504 -0.2935 -0.2471
11301PP      PP21405   4.276   5.454   2.967 -0.0257 -0.1223  0.0939
11302PP      PP21406  14.909   3.432   2.769 -0.0725 -0.0872 -0.3031
11303PP      PP21407   6.523  14.106   0.238  0.0029  0.1106 -0.0162
11304PP      PP21408   3.097   2.738  12.772  0.2436  0.1054  0.0888
11305PP      PP21409   7.127  13.751  11.375 -0.4048 -0.0311 -0.1176
11306PP      PP21410   7.066   8.291  13.310  0.0300  0.1072 -0.0395
11307PP      PP21411   6.107   7.406  10.260  0.0270  0.0646 -0.0422
11308PP      PP21412  13.085   9.899   3.857 -0.1868  0.1566 -0.1069
11309PP      PP21413   0.578   9.062  12.296 -0.0081 -0.1700  0.0563
11310PP      PP21414   5.673   1.384  11.141 -0.0096  0.1106  0.0101
11311PP      PP21415   3.830  15.109  12.880  0.0239 -0.0290 -0.1389
11312PP      PP21416  12.906  11.598   9.675  0.1678 -0.2535 -0.2101
11313PP      PP21417  12.419   6.374   0.923 -0.1973  0.1240  0.0626
11314PP      PP21418   3.635   5.828   1.094  0.1120  0.1461 -0.1544
11315PP      PP21419   7.793   1.419   1.759 -0.1088 -0.4178  0.1617
11316PP      PP21420   0.508   2.064   4.126 -0.2574 -0.1288 -0.2928
11317PP      PP21421  10.233   4.390   2.461  0.2107 -0.1935 -0.0151
11318PP      PP21422  13.542   3.209   1.448 -0.0517 -0.0351  0.0134
11319PP      PP21423  15.119  11.476   1.359  0.0426  0.0467  0.2754
11320PP      PP21424   4.681   4.038  11.223 -0.0739 -0.1126 -0.2019
11321PP      PP21425   1.752   4.599   0.899 -0.1230  0.0609 -0.2787
11322PP      PP21426  15.370   2.544   9.151 -0.3161 -0.2144 -0.0530
11323PP      PP21427  13.945  15.396   4.200 -0.1941  0.1630  0.1044
11324PP      PP21428   9.099  10.772   2.416  0.2884  0.2346  0.0293
11325PP      PP21429  14.912   9.003  10.725 -0.3693  0.2298 -0.0185
11326PP      PP21430   3.713   5.007   2.943 -0.1223  0.1049  0.4318
11327PP      PP21431  13.997   3.274   2.889  0.1801  0.1985 -0.0611
11328PP      PP21432  15.546   8.456  10.619  0.0327 -0.0194 -0.1260
11329PP      PP21433  14.892   0.482  11.207  0.0743 -0.0965 -0.1761
11330PP      PP21434   8.595   4.502   1.829  0.1470 -0.1547  0.3033
11331PP      PP21435   7.888  10.728   9.313  0.1438  0.2484 -0.3111
11332PP      PP21436  13.194   5.908   0.581 -0.0267  0.3000  0.1334
11333PP      PP21437   3.122   3.815   9.600  0.1223  0.1631 -0.1350
11334PP      PP21438  13.258   2.045   2.706  0.1400  0.3109 -0.2513
11335PP      PP21439  13.200   3.843   3.822 -0.0449 -0.4130  0.2223
11336PP      PP21440  13.327   9.209  13.449  0.0167  0.2786  0.1955
11337PP      PP21441   0.792  10.830   0.747 -0.1237  0.1529 -0.1092
11338PP      PP21442   6.770   2.461   3.369  0.2677 -0.1928  0.1518
11339PP      PP21443  15.741   9.758   0.849  0.3627 -0.1419  0.2283
11340PP      PP21444  14.855   0.417   9.727  0.0234  0.2031 -0.0438
11341PP      PP21445  15.551  11.788  12.413 -0.1218  0.0563 -0.0473
11342PP      PP21446   1.441  13.205   4.551 -0.2430 -0.0990  0.2638
11343PP      PP21447   8.296  13.972  13.167 -0.0624 -0.2764  0.1278
11344PP      PP21448   4.382  14.482  11.971  0.1500 -0.0476 -0.2285
11345PP      PP21449   6.925   0.516  10.413  0.0050  0.0027 -0.2700
11346PP      PP21450   9.013   2.156   3.819  0.1041  0.1016 -0.1967
11347PP      PP21451  13.505  14.190   3.233  0.1308 -0.0656 -0.4126
11348PP      PP21452   6.515   5.115   8.798  0.4237 -0.0535  0.1091
11349PP      PP21453   2.212   7.702   2.462  0.2391 -0.0467  0.0013
11350PP      PP21454   1.903   2.055   1.497 -0.0400 -0.0002  0.0349
11351PP      PP21455   1.172  10.564   2.207  0.2723  0.0290  0.2279
11352PP      PP21456   3.803   6.699   1.651 -0.5602  0.1335 -0.1614
11353PP      PP21457   8.591   3.042   3.477  0.0722 -0.3560  0.0248
11354PP      PP21458   8.885  10.393   1.258 -0.0342  0.0514  0.0779
11355PP      PP21459  15.386   5.165   0.261 -0.1519  0.0860 -0.0172
11356PP      PP21460  12.389  10.940   9.924 -0.0688  0.2945  0.0268
11357PP      PP21461   8.669  11.640   1.406 -0.2301  0.1414  0.1837
11358PP      PP21462  11.935   2.253  10.109 -0.1239  0.0274 -0.1293
11359PP      PP21463   5.510   5.023   1.351  0.0349 -0.1160  0.1324
11360PP      PP21464   8.704   4.513   9.012  0.0108  0.1541  0.0411
11361PP      PP21465   1.818  11.213   0.209  0.2622 -0.1583 -0.0416
11362PP      PP21466   3.755   4.355  12.448 -0.0361  0.1575  0.1987
11363PP      PP21467  11.348   2.529   0.012 -0.0970 -0.3666 -0.2011
11364PP      PP21468   4.443   8.339  12.124  0.3932 -0.0573  0.0812
11365PP      PP21469   1.500   0.128   1.660 -0.0814 -0.0238  0.3073
11366PP      PP21470  10.401   0.653   3.098  0.1301  0.3142 -0.0578
11367PP      PP21471   9.969   2.498   0.431 -0.0732 -0.0944  0.0969
11368PP      PP21472   5.538   2.953   9.928  0.0200 -0.1102 -0.0040
11369PP      PP21473   8.051   8.417   9.824 -0.0538 -0.1213 -0.1966
11370PP      PP21474   2.994  11.871   1.205  0.1521  0.0400 -0.0629
11371PP      PP21475   2.848  12.284   3.014  0.2891  0.0067  0.0739
11372PP      PP21476   9.716  13.849   3.671  0.0904  0.1023 -0.0150
11373PP      PP21477   1.821   6.870  10.213 -0.1848  0.0462  0.1093
11374PP      PP21478   9.538   6.945   2.064 -0.2757 -0.0724  0.1661
11375PP      PP21479  10.006  10.782   3.356 -0.0900  0.1031  0.1895
11376PP      PP21480   8.142  13.124   1.896 -0.0540  0.1004 -0.1747
11377PP      PP21481   2.365  11.036  12.117  0.0928 -0.1506 -0.0866
11378PP      PP21482   0.068   0.599   2.527  0.3492  0.0992  0.1542
11379PP      PP21483   0.226   4.015  10.831  0.0443  0.0181  0.0963
11380PP      PP21484  10.080   0.837   9.524  0.1268  0.1964 -0.2294
11381PP      PP21485   3.818   4.535   0.742 -0.3736 -0.3294 -0.1995
11382PP      PP21486  11.266  13.909  11.419  0.1370 -0.1226 -0.0730
11383PP      PP21487  14.152  13.875  10.881  0.0438 -0.1665 -0.0452
11384PP      PP21488  10.566   6.064  11.179 -0.0231  0.1341 -0.1126
11385PP      PP21489  15.228   6.451   9.707  0.1775  0.0593 -0.0568
11386PP      PP21490  12.338  14.569  10.539 -0.0863 -0.0018 -0.0481
11387PP      PP21491  10.041   9.677  13.114 -0.2438  0.2586  0.0110
11388PP      PP21492   0.505   7.722  10.343 -0.1703 -0.0537  0.0465
11389PP      PP21493  10.058   4.080  11.437  0.0750  0.1784  0.1037
11390PP      PP21494  13.697  12.114  11.139 -0.0197 -0.3003 -0.3105
11391PP      PP21495   6.386   6.347   2.816 -0.0996  0.0047 -0.0233
11392PP      PP21496  12.048   9.693  10.410 -0.2406 -0.0776  0.0193
11393PP      PP21497   3.832   3.723   1.851 -0.1013  0.0140  0.1186
11394PP      PP21498  13.230   7.616   2.236 -0.0205  0.0225 -0.2152
11395PP      PP21499  11.997   2.062  12.918 -0.5299 -0.0264  0.0177
11396PP      PP21500  14.969   9.237   2.017  0.1174 -0.3133 -0.3624
11397PP      PP21501  10.849   3.022  11.248 -0.1640  0.5518 -0.0007
11398PP      PP21502   3.433   5.161  11.074 -0.0353 -0.2941 -0.1280
11399PP      PP21503   5.695   9.224   2.484 -0.1122 -0.2058 -0.1531
11400PP      PP21504   6.054   0.727   2.129 -0.0687  0.2357  0.5200
11401PP      PP21505   6.221   8.379  11.704  0.2138  0.5691 -0.1634
11402PP      PP21506   3.564  14.191   2.976 -0.2613 -0.3544 -0.0401
11403PP      PP21507   6.050   6.785   0.559  0.2503 -0.0169 -0.3329
11404PP      PP21508   1.280   4.082  10.956 -0.2893  0.4319  0.2335
11405PP      PP21509  13.137   0.068   8.557 -0.0692  0.2959 -0.1087
11406PP      PP21510   2.973   5.760  13.103  0.4283  0.1235 -0.0761
11407PP      PP21511   8.105   4.538  10.934 -0.2706  0.0132 -0.0870
11408PP      PP21512   4.492   3.565   0.846 -0.1240  0.4107  0.4017
11409PP      PP21513   8.464  10.046   4.144 -0.1950  0.2294 -0.1003
11410PP      PP21514  11.407   7.991  12.560 -0.1033 -0.1836  0.1308
11411PP      PP21515   5.523   8.430  12.429 -0.0935 -0.2285  0.0903
11412PP      PP21516   8.992  13.469   0.838  0.1834  0.1515 -0.0448
11413PP      PP21517   1.150   1.293   0.554  0.1415  0.1318  0.0426
11414PP      PP21518   4.973   0.343  11.962  0.1366  0.0011  0.1725
11415PP      PP21519   0.639  14.606  11.465  0.0579 -0.1380 -0.2701
11416PP      PP21520   5.126  12.814  13.326  0.1017 -0.0627 -0.1704
11417PP      PP21521   8.398   2.001   9.640 -0.0137  0.3630  0.1678
11418PP      PP21522   7.559  12.668   0.137 -0.0561 -0.1785  0.1564
11419PP      PP21523  14.062  10.482   2.680  0.2795 -0.2155  0.0015
11420PP      PP21524  14.122  15.654  10.652  0.0567  0.0029  0.0589
11421PP      PP21525   6.940   6.688   1.963 -0.1154 -0.1637 -0.0072
11422PP      PP21526   7.325  10.969   3.295  0.0465 -0.0563 -0.1307
11423PP      PP21527  10.542   0.431  12.077  0.0968 -0.4237 -0.0105
11424PP      PP21528   8.707   1.104  13.223  0.0224  0.1664  0.0508
11425PP      PP21529   2.057   5.730  13.425  0.2787  0.0478 -0.1058
11426PP      PP21530  13.923  13.382  11.652  0.2988  0.3274 -0.0717
11427PP      PP21531   0.801  11.517   1.703  0.4651 -0.0432  0.1763
11428PP      PP21532   3.463   9.647   4.856  0.0959 -0.0787 -0.0167
11429PP      PP21533   7.393   7.135  11.056  0.0148 -0.2350 -0.2899
11430PP      PP21534   0.676   6.536   1.988  0.1631 -0.0694 -0.3115
11431PP      PP21535   9.556   9.514   9.753 -0.1935 -0.0210  0.0412
11432PP      PP21536  10.518   3.993   2.453 -0.2597  0.2814 -0.1118
11433PP      PP21537  11.895   7.272  11.915 -0.3642  0.0593 -0.4131
11434PP      PP21538   5.383  10.504   4.096 -0.1287 -0.0391 -0.0237
11435PP      PP21539   7.698  13.821   2.530 -0.0107 -0.1794 -0.1536
11436PP      PP21540   2.546   0.315   2.412 -0.0777 -0.0692 -0.0838
11437PP      PP21541  12.518   4.758   2.333  0.0125 -0.0770 -0.0102
11438PP      PP21542   3.447   7.648   3.219  0.0090 -0.1667  0.1124
11439PP      PP21543  11.832   1.088   0.426  0.1188  0.1449 -0.2796
11440PP      PP21544  14.049  15.175  11.661  0.0046 -0.2325 -0.1487
11441PP      PP21545   2.283  12.153   4.822  0.1032  0.1382 -0.0358
11442PP      PP21546   7.191   8.654   3.816 -0.1352  0.0620 -0.1092
11443PP      PP21547   4.839   5.105  11.454  0.2077 -0.1212 -0.4362
11444PP      PP21548   6.733   0.211   2.564  0.0111 -0.0998  0.0640
11445PP      PP21549  12.517   8.667   0.521 -0.0097  0.0919  0.0551
11446PP      PP21550  11.603  13.427  11.883 -0.2638  0.1279  0.0251
11447PP      PP21551  12.982   9.079   2.493 -0.0301 -0.0840  0.2160
11448PP      PP21552  13.823  13.086   2.652 -0.1445 -0.3386 -0.0693
11449PP      PP21553  12.908  15.500   0.423  0.3660  0.2236 -0.0066
11450PP      PP21554   2.869   3.327  11.774 -0.3104 -0.1125 -0.1291
11451PP      PP21555   6.929   2.739   2.143 -0.2610 -0.1149  0.1904
11452PP      PP21556   9.133   1.894   8.525  0.1170  0.1191  0.0138
11453PP      PP21557  14.197   9.909   5.378  0.5191  0.2040 -0.2542
11454PP      PP21558   8.433   2.459  12.040 -0.2159 -0.2094  0.1590
11455PP      PP21559  13.178   9.067   3.402 -0.1085 -0.0721 -0.2434
11456PP      PP21560  13.490   6.751   0.881 -0.1919 -0.1683  0.0329
11457PP      PP21561   4.147   2.429  10.776 -0.0145  0.3003 -0.0772
11458PP      PP21562  15.053  11.760  12.327  0.0779 -0.0179 -0.0629
11459PP      PP21563   5.441   1.368  10.503 -0.0086 -0.2607  0.1041
11460PP      PP21564  15.594   0.551  13.519 -0.1877 -0.0932 -0.0885
11461PP      PP21565   9.709  12.605  10.519  0.2225  0.0487 -0.1662
11462PP      PP21566  13.878  15.326  10.322 -0.1964 -0.1450  0.1552
11463PP      PP21567   5.198  10.489   4.572  0.1214 -0.1924  0.0518
11464PP      PP21568  11.314  10.362   2.001  0.0928  0.2304 -0.2664
11465PP      PP21569  14.286   2.986   0.062 -0.0088  0.1266 -0.0785
11466PP      PP21570   8.212   3.739  10.943 -0.0012 -0.1011  0.2250
11467PP      PP21571   9.005  15.365   9.114 -0.0534  0.3116  0.0171
11468PP      PP21572   6.098   1.150   0.709  0.3408 -0.0540  0.3606
11469PP      PP21573   3.205   8.684  12.109 -0.1466 -0.1380 -0.0564
11470PP      PP21574   1.144   8.891  10.090 -0.0894 -0.1287  0.1062
11471PP      PP21575   9.238  12.927  10.391 -0.2206  0.3061  0.0116
11472PP      PP21576  15.075   3.087  12.904  0.2051  0.0210 -0.1248
11473PP      PP21577   6.397  13.153   2.550  0.1211  0.2490  0.1014
11474PP      PP21578   1.493  15.595  12.743  0.0740  0.0796  0.1580
11475PP      PP21579   7.910   2.520   0.239  0.1442  0.0451 -0.1030
11476PP      PP21580   2.262   6.870  10.535 -0.2587  0.0374  0.1775
11477PP      PP21581  12.455  12.662   1.608  0.2629  0.0623  0.2578
11478PP      PP21582   5.440  13.926   1.497 -0.0306 -0.2426 -0.0988
11479PP      PP21583  10.368   5.320   1.543  0.0974 -0.1243  0.1893
11480PP      PP21584   5.407   7.792  10.699 -0.0681 -0.4133 -0.0393
11481PP      PP21585  13.944  15.155   1.965  0.1888  0.2484  0.1605
11482PP      PP21586  10.245  15.754  13.178 -0.2192 -0.1103  0.0725
11483PP      PP21587   8.450   4.667  10.527  0.0152 -0.0241 -0.0360
11484PP      PP21588  12.310   2.324   0.714  0.0607  0.1751  0.0361
11485PP      PP21589  12.196   5.596   3.882 -0.0520 -0.0228  0.0400
11486PP      PP21590   7.635  10.095   0.482  0.0148 -0.2006 -0.4140
11487PP      PP21591   8.478   6.499  10.001  0.1424 -0.3106 -0.4084
11488PP      PP21592   3.831  15.720  10.465 -0.0852  0.4107 -0.1223
11489PP      PP21593   6.845   8.844   2.317  0.0815 -0.2590 -0.0296
11490PP      PP21594   2.758  10.119   4.316  0.1835  0.0247 -0.2815
11491PP      PP21595   7.039  10.551   0.828 -0.0047  0.0555  0.3137
11492PP      PP21596  14.299  13.129  11.858 -0.0328  0.0952 -0.0069
11493PP      PP21597  12.965  15.802   9.356 -0.0943 -0.0213  0.0639
11494PP      PP21598  11.204   7.263  12.098  0.0573 -0.1360  0.0804
11495PP      PP21599   6.047   2.088   7.838 -0.2053  0.1169 -0.0988
11496PP      PP21600  11.096  14.677   1.166  0.1306 -0.2488  0.1188
11497PP      PP21601  13.579   3.288   3.159  0.0157  0.1137 -0.3628
11498PP      PP21602  14.229   6.281   0.745 -0.0580 -0.0275  0.0956
11499PP      PP21603   8.781   9.425   2.424  0.1128  0.1582 -0.1826
11500PP      PP21604   3.882  10.131  12.103  0.1011  0.1538  0.1146
11501PP      PP21605   6.789   1.630   7.851 -0.0371  0.1661  0.2421
11502PP      PP21606   1.447   6.779  10.616  0.0006  0.1500  0.2194
11503PP      PP21607   5.049   6.962   9.569 -0.0229  0.0246  0.2874
11504PP      PP21608   9.405   7.734   9.218  0.1665 -0.0466  0.2538
11505PP      PP21609  11.495   1.846  10.456 -0.0282 -0.5011  0.0382
11506PP      PP21610   2.911  12.715  12.733  0.4909 -0.2029  0.1279
11507PP      PP21611   2.813   0.038   0.964 -0.2283  0.0849  0.0246
11508PP      PP21612   6.409   2.098   1.646 -0.1900  0.1529  0.1992
11509PP      PP21613  12.516   4.320   9.678 -0.1301 -0.0108  0.2218
11510PP      PP21614   1.972  12.003   4.365  0.1660  0.0645  0.0419
11511PP      PP21615   8.253   9.115   4.564 -0.0055  0.4144  0.0271
11512PP      PP21616  15.330   0.557   9.559  0.2713  0.2481  0.2374
11513PP      PP21617  15.373  10.580   1.111 -0.0140  0.0928  0.1296
11514PP      PP21618  10.040   1.620  11.875 -0.0592 -0.1017  0.2708
11515PP      PP21619  13.644  13.685  10.206 -0.3031  0.0764  0.0207
11516PP      PP21620   7.280  13.177   1.189  0.1616 -0.0359  0.3044
11517PP      PP21621  14.264   4.889   1.048 -0.2939 -0.1803  0.0178
11518PP      PP21622   0.624  14.556   9.834 -0.2704  0.1116 -0.2137
11519PP      PP21623   8.872   1.806  12.038  0.1631  0.2237  0.1441
11520PP      PP21624  13.967   6.986  12.670  0.2947  0.2493 -0.0812
11521PP      PP21625   3.850  14.934   1.394 -0.3696  0.0863 -0.1051
11522PP      PP21626   9.471   5.161  11.465 -0.1399 -0.1847 -0.3400
11523PP      PP21627  12.849   7.805   2.030 -0.0602  0.2278 -0.1478
11524PP      PP21628   0.211  10.996   4.673  0.1586 -0.3110  0.2650
11525PP      PP21629   4.106   9.518  10.142  0.1843  0.1282 -0.0525
11526PP      PP21630   8.583   8.423   3.431 -0.2089  0.0825  0.5136
11527PP      PP21631   7.093  11.743   2.326  0.2057  0.1074 -0.0223
11528PP      PP21632   6.157   9.638  11.773 -0.3070 -0.0791  0.0773
11529PP      PP21633   9.774   8.510   2.360 -0.1729 -0.1412 -0.1689
11530PP      PP21634   8.471   7.597  10.877 -0.1059 -0.0524 -0.2618
11531PP      PP21635  14.168   1.918   3.085  0.0205  0.2948 -0.0659
11532PP      PP21636  11.923  13.081   3.213 -0.0414 -0.2370 -0.2053
11533PP      PP21637   8.651   0.279   9.763  0.0859  0.0310 -0.0640
11534PP      PP21638   7.947   0.176   2.580  0.2065 -0.3259  0.4296
11535PP      PP21639  14.314  11.136   1.734 -0.0818  0.3153 -0.1499
11536PP      PP21640   3.647   6.507  13.463  0.0264 -0.4157 -0.2460
11537PP      PP21641   1.838  13.916   2.368 -0.0995 -0.0311  0.2106
11538PP      PP21642   4.888  11.991   0.109 -0.2568 -0.0137  0.1244
11539PP      PP21643  14.307  12.068   1.961  0.0590  0.0675 -0.0324
11540PP      PP21644  11.757   6.808  12.699 -0.2272 -0.1881 -0.0837
11541PP      PP21645  15.144   6.033  12.594 -0.2391  0.1693 -0.1695
11542PP      PP21646   5.440   5.115   3.650 -0.3486  0.2552  0.3241
11543PP      PP21647   4.579   3.087   0.641  0.0056 -0.0142 -0.1678
11544PP      PP21648   7.702  12.306   9.124 -0.0022  0.2732 -0.0703
11545PP      PP21649   7.547   0.018  10.118 -0.0779  0.0821 -0.0496
11546PP      PP21650  12.032   0.602  12.023  0.0285 -0.2514  0.2813
11547PP      PP21651   0.235   8.843   0.452 -0.3909 -0.3672  0.0130
11548PP      PP21652   7.277   1.780   8.612 -0.0075  0.3341 -0.2103
11549PP      PP21653   9.221   5.012   1.004  0.3590  0.1118  0.0105
11550PP      PP21654   8.792   1.769  11.117  0.1680 -0.0675  0.1250
11551PP      PP21655   1.959   5.027  13.198  0.1269  0.0471  0.0001
11552PP      PP21656   1.350  13.827   2.422  0.0985  0.0626  0.1737
11553PP      PP21657   7.009   7.590  10.338  0.1638  0.2024 -0.0396
11554PP      PP21658  15.366   4.693   3.097 -0.2761  0.0304  0.1526
11555PP      PP21659   7.444   7.698  10.639 -0.1573  0.0687  0.3593
11556PP      PP21660  14.295   3.912  12.751  0.3023 -0.2339  0.2814
11557PP      PP21661  14.077   2.083   1.249  0.3608  0.2454 -0.0160
11558PP      PP21662  12.426   7.904  12.682 -0.2325 -0.2592 -0.0343
11559PP      PP21663   3.647   5.572  11.435  0.3948  0.0926  0.1576
11560PP      PP21664  11.535   0.085   1.060 -0.0369 -0.4300 -0.0469
11561PP      PP21665   8.144   5.372   2.732  0.3249  0.1681 -0.0778
11562PP      PP21666   4.820   3.753   1.586 -0.4764  0.0262 -0.2246
11563PP      PP21667  14.718   4.195  12.825 -0.1714  0.3003  0.0466
11564PP      PP21668  11.442   0.653  10.238  0.0580 -0.1682  0.0429
11565PP      PP21669   0.100  13.097   9.712 -0.1369 -0.0231  0.1876
11566PP      PP21670   9.502  12.124  11.580 -0.2525  0.0272  0.2824
11567PP      PP21671   5.266  13.661   9.305 -0.1463 -0.0557 -0.2705
11568PP      PP21672  11.154  11.454   0.513 -0.1608  0.0119  0.0042
11569PP      PP21673  13.753   2.692   2.671  0.0745 -0.0590 -0.0903
11570PP      PP21674   8.150  12.003   0.307 -0.3394  0.1047 -0.1965
11571PP      PP21675  13.853   8.464  11.430 -0.0252  0.0110  0.2098
11572PP      PP21676  12.097  13.202  12.506  0.1813  0.1371 -0.1453
11573PP      PP21677   5.800   7.502   4.183  0.1215  0.0571 -0.1106
11574PP      PP21678   2.751   4.641   4.301  0.2612  0.0630  0.1079
11575PP      PP21679   5.420  15.520   9.316 -0.0168 -0.1097  0.3199
11576PP      PP21680   5.765  14.470   0.830 -0.1897  0.1096  0.2060
11577PP      PP21681   1.032  14.345  12.164  0.1970 -0.1008 -0.0657
11578PP      PP21682   0.443   5.702   0.402 -0.0850 -0.0771 -0.0605
11579PP      PP21683   4.148   1.257   1.899 -0.1732  0.3001 -0.0402
11580PP      PP21684   6.908   8.028  10.002  0.0522 -0.1261 -0.2668
11581PP      PP21685   9.860   2.804  11.498 -0.0889  0.0493  0.0933
11582PP      PP21686   0.871   5.203  11.051 -0.0603  0.2275  0.0782
11583PP      PP21687  15.811   2.110  10.526 -0.1209 -0.0396 -0.1082
11584PP      PP21688   2.082   5.127   1.355  0.2441 -0.3943  0.1209
11585PP      PP21689  12.428   6.515  11.313  0.2284  0.1191  0.3862
11586PP      PP21690  10.807   6.562   1.780 -0.3927 -0.3020  0.2336
11587PP      PP21691   8.075   2.100  12.011  0.1413 -0.2586  0.1449
11588PP      PP21692  12.120  13.302  11.471  0.0112  0.0291 -0.1903
11589PP      PP21693  14.686   2.262   2.021 -0.0059  0.1172 -0.2138
11590PP      PP21694  10.660   7.163  12.057  0.1877 -0.1482  0.0193
11591PP      PP21695  12.011   6.871  10.346  0.0107  0.3209  0.0115
11592PP      PP21696   0.965  14.839  11.033  0.0887  0.3135  0.0688
11593PP      PP21697   3.375   7.735   1.530 -0.1408  0.1152 -0.0231
11594PP      PP21698   0.254  14.893   2.169  0.1022 -0.1107  0.0198
11595PP      PP21699   9.917   1.678   1.730  0.1047  0.2888 -0.0871
11596PP      PP21700  14.048  11.985   0.378  0.0959 -0.0587 -0.2609
11597PP      PP21701  14.040   3.407  12.589 -0.0434 -0.0004 -0.1285
11598PP      PP21702   4.552  13.691   2.571 -0.1764 -0.1224 -0.1310
11599PP      PP21703   3.236   9.750   5.293 -0.2136  0.0137 -0.3725
11600PP      PP21704  10.655   8.557   4.632 -0.2523  0.2327 -0.0867
11601PP      PP21705  10.014   3.004  10.002  0.3375 -0.1958 -0.1312
11602PP      PP21706   2.010   5.347   4.802 -0.4231  0.2456 -0.0386
11603PP      PP21707   7.414  15.810  13.182 -0.0962 -0.0452 -0.1099
11604PP      PP21708   9.640   3.344   1.703  0.0142 -0.2171 -0.1929
11605PP      PP21709   5.918  11.042  10.505 -0.0255 -0.0060  0.0357
11606PP      PP21710   3.628   1.191  12.409  0.0582  0.0202  0.0028
11607PP      PP21711  14.854  11.853   1.100 -0.2924  0.3430 -0.0465
11608PP      PP21712   0.279   6.461  11.732  0.1568  0.2037 -0.0509
11609PP      PP21713   2.339   5.381  11.740 -0.1342  0.1240  0.1266
11610PP      PP21714  10.565   7.746   2.471  0.0527 -0.0238 -0.0406
11611PP      PP21715  13.112  14.780   2.217  0.0319 -0.0490 -0.1657
11612PP      PP21716   6.986   3.928   9.327 -0.1897 -0.1554  0.0749
11613PP      PP21717  15.705   1.414  12.262 -0.2457 -0.0141 -0.1881
11614PP      PP21718  14.766  10.568  10.113  0.4165  0.1044 -0.2353
11615PP      PP21719   1.021  12.317  11.241  0.1246  0.0242  0.0773
11616PP      PP21720   8.108  14.870  11.962 -0.0645 -0.1831  0.2891
11617PP      PP21721   6.388  13.990  12.200  0.1528 -0.5524  0.2215
11618PP      PP21722   7.288   2.651   3.516  0.1329  0.0202 -0.1854
11619PP      PP21723   4.597   2.885   2.127  0.0722 -0.3628  0.1170
11620PP      PP21724   3.221   8.245  12.547  0.1803  0.1052  0.1743
11621PP      PP21725   0.987   3.208   3.609  0.1528 -0.0367 -0.1121
11622PP      PP21726  13.314   1.470   4.131  0.1840 -0.3119  0.0522
11623PP      PP21727   4.390  15.217   0.811  0.0594 -0.1708 -0.2697
11624PP      PP21728   9.109   5.977  10.271  0.0410 -0.1314  0.1616
11625PP      PP21729  12.762  15.096   3.949  0.0620 -0.0063  0.1468
11626PP      PP21730   6.983  14.339   2.228  0.1282  0.0643  0.3069
11627PP      PP21731   9.301   9.027  11.268 -0.3968  0.1585 -0.0472
11628PP      PP21732   2.197   9.110  12.155  0.2316 -0.2644 -0.1068
11629PP      PP21733   9.211  12.386  10.055 -0.2674 -0.0096 -0.3386
11630PP      PP21734   8.540   4.874   9.311 -0.0585 -0.0565  0.0239
11631PP      PP21735   1.346  13.005   1.650 -0.0550 -0.2313  0.2331
11632PP      PP21736   6.055  14.745  12.548  0.2515 -0.0859 -0.0678
11633PP      PP21737   9.130   2.084  11.344  0.0558  0.0396 -0.1540
11634PP      PP21738  10.306   8.245   4.206 -0.2514  0.0335 -0.1771
11635PP      PP21739   8.339  11.185   3.099  0.0944 -0.0670  0.1458
11636PP      PP21740  13.737  10.836  13.267  0.1567 -0.2364  0.0119
11637PP      PP21741   5.267  11.404   9.077 -0.0766  0.2273 -0.2095
11638PP      PP21742   4.304  14.333  10.932 -0.1947 -0.3138 -0.0112
11639PP      PP21743   7.988  11.381  11.562 -0.0514 -0.0722 -0.1914
11640PP      PP21744  11.076   4.210   2.483  0.0011 -0.0033 -0.1628
11641PP      PP21745   6.458  14.796   9.240 -0.0317  0.1417 -0.2460
11642PP      PP21746   8.378   8.325  11.995 -0.0934  0.1402  0.1814
11643PP      PP21747   1.496   5.900   3.491  0.2009 -0.3327  0.1556
11644PP      PP21748   9.656  15.053   3.992 -0.2419  0.1762  0.3044
11645PP      PP21749   0.968  13.061   1.242 -0.0129  0.1270 -0.1887
11646PP      PP21750   2.599  12.539  11.246  0.0354  0.0107  0.1150
11647PP      PP21751   1.965   8.566  11.360 -0.0698 -0.1633  0.1079
11648PP      PP21752   9.993   8.707   0.779 -0.0839 -0.1083 -0.2088
11649PP      PP21753   9.477  13.874  10.671  0.1570  0.2551 -0.1858
11650PP      PP21754   2.915  11.311   3.397  0.2210  0.2332 -0.0711
11651PP      PP21755   8.104   8.464   9.343  0.2531 -0.1546 -0.3564
11652PP      PP21756  14.736   5.270  10.060 -0.1375  0.0647  0.1907
11653PP      PP21757   0.258  12.284  12.472  0.1651  0.1049 -0.0918
11654PP      PP21758   9.097   1.062  11.470  0.1788  0.1019 -0.2058
11655PP      PP21759  10.586  13.209   9.383  0.0822  0.1647 -0.0742
11656PP      PP21760  13.768  14.019   0.373  0.1695  0.0933  0.0132
11657PP      PP21761  11.469  10.543   2.438 -0.2590 -0.0592  0.1424
11658PP      PP21762   9.756   8.734   2.845  0.4400  0.0039 -0.0475
11659PP      PP21763   5.706  15.793   1.055  0.1956  0.1414  0.2902
11660PP      PP21764   3.831   8.809   2.683  0.1184 -0.0997 -0.2088
11661PP      PP21765  14.072  10.748   3.102  0.0075 -0.2905 -0.2427
11662PP      PP21766   4.779  10.508  10.134 -0.0538  0.3187  0.1683
11663PP      PP21767  11.560   8.303   9.545  0.1317  0.1418  0.4297
11664PP      PP21768  12.830  10.243   4.952 -0.3810 -0.2810 -0.1887
11665PP      PP21769  11.182   2.038   1.960 -0.0343  0.0653 -0.2763
11666PP      PP21770   4.203  14.590  11.302  0.0624 -0.2230  0.1580
11667PP      PP21771   9.855   6.602  12.029 -0.2675  0.0507  0.0157
11668PP      PP21772  14.937   1.760   9.390 -0.1177 -0.3399  0.0933
11669PP      PP21773  13.040  11.650  11.988 -0.1931 -0.5688 -0.0489
11670PP      PP21774   4.615   9.810  11.057  0.0123  0.0543  0.3104
11671PP      PP21775  10.380  12.117   2.652  0.1044  0.1428 -0.3119
11672PP      PP21776  10.231   9.551   0.881  0.0369 -0.0891 -0.0605
11673PP      PP21777  15.794  11.456   0.630  0.0219  0.1733 -0.0011
11674PP      PP21778   4.553   5.863   9.527 -0.3660  0.3343  0.1269
11675PP      PP21779   3.914   0.666  11.264 -0.0788 -0.2212  0.2206
11676PP      PP21780  15.286  11.329   0.915 -0.3107  0.1586 -0.0629
11677PP      PP21781   3.859   3.597  13.176 -0.2521 -0.0358 -0.3089
11678PP      PP21782   2.562  11.360   0.577  0.3332 -0.1705  0.0841
11679PP      PP21783   6.965  10.417   9.289  0.1980 -0.0519  0.0638
11680PP      PP21784  13.823   7.770  11.451  0.1388 -0.1507  0.1566
11681PP      PP21785   3.122  15.204  12.407 -0.3299  0.0733  0.3403
11682PP      PP21786   4.089   9.364   4.693  0.3145 -0.3112 -0.1407
11683PP      PP21787   2.681  12.345   0.470 -0.0106  0.0755 -0.0668
11684PP      PP21788   5.759   9.851  11.315  0.1541  0.1082 -0.4199
11685PP      PP21789   0.483   4.975  10.159  0.0275  0.0250  0.1377
11686PP      PP21790  11.043   8.335   1.876 -0.2207  0.1388 -0.1285
11687PP      PP21791   0.259   3.723  10.107  0.1129 -0.0766  0.0414
11688PP      PP21792  11.813   1.036   9.256  0.3414 -0.1273  0.0577
11689PP      PP21793  12.541   9.152   0.608  0.3215 -0.1617  0.4372
11690PP      PP21794  10.807   5.951   2.575  0.0473  0.0666  0.3449
11691PP      PP21795  11.326   5.194  10.465 -0.0273  0.0618  0.0200
11692PP      PP21796  12.151   9.797   5.630 -0.2356  0.0137 -0.2492
11693PP      PP21797  11.049   3.157   8.649  0.0996  0.1695  0.0910
11694PP      PP21798   4.931   8.954   4.981 -0.0283 -0.0509 -0.0566
11695PP      PP21799   9.644   5.098   3.428 -0.0978  0.1838  0.0193
11696PP      PP21800  13.701   6.119  10.044 -0.0559 -0.0767  0.1086
11697PP      PP21801   4.671  12.972   1.753 -0.2557 -0.1527  0.0187
11698PP      PP21802   5.877  10.473  12.426  0.3002  0.4226 -0.0607
11699PP      PP21803  10.014   6.154  11.989 -0.2552  0.0248 -0.0360
11700PP      PP21804   0.222   4.767  12.109 -0.1012 -0.2502  0.1272
11701PP      PP21805   5.012  11.432   0.202 -0.0555  0.1240  0.0190
11702PP      PP21806  15.259   5.139   4.766  0.2157  0.0770  0.1784
11703PP      PP21807   7.575  12.218   1.978  0.1287 -0.0703  0.2837
11704PP      PP21808  15.304   3.592  12.177  0.0690  0.3032 -0.2437
11705PP      PP21809   5.699   4.115   0.984  0.2123  0.0135 -0.0494
11706PP      PP21810  11.543  12.270  10.858  0.0823  0.0040  0.0103
11707PP      PP21811   9.821  11.906   0.081  0.3368 -0.3592 -0.1632
11708PP      PP21812  13.043   2.144  12.481  0.0311  0.1192 -0.1596
11709PP      PP21813  12.784  13.661   3.261  0.1554 -0.1171  0.0878
11710PP      PP21814   3.374   9.980  10.371 -0.0818 -0.2104  0.1770
11711PP      PP21815  14.611  11.830   1.585  0.0413  0.0830 -0.2037
11712PP      PP21816   0.022  14.398   9.832 -0.2787 -0.0258 -0.1255
11713PP      PP21817  12.110  13.778  10.910  0.1583 -0.0505 -0.0020
11714PP      PP21818  12.121  11.652   1.736 -0.2386  0.0846 -0.1104
11715PP      PP21819   0.645   4.897   0.124 -0.1961 -0.2233 -0.2268
11716PP      PP21820   0.619  10.038   2.715  0.0375 -0.1400  0.0284
11717PP      PP21821   4.814  14.844  10.562  0.4198 -0.1910 -0.0676
11718PP      PP21822  13.060  13.926   2.687 -0.2330 -0.1727 -0.0148
11719PP      PP21823  11.113   3.148   4.479 -0.0337  0.0637 -0.2705
11720PP      PP21824   9.160   8.398  11.540 -0.0139 -0.2188 -0.0464
11721PP      PP21825   8.749  13.510  10.809 -0.1648  0.1695 -0.2796
11722PP      PP21826   7.343   6.002  10.219  0.0322 -0.1527  0.0301
11723PP      PP21827   0.772  11.869   3.526 -0.1027 -0.0695  0.1569
11724PP      PP21828   1.600   3.711  10.718 -0.1207 -0.2980 -0.0657
11725PP      PP21829   3.065   3.367   3.200  0.1783  0.1163  0.0202
11726PP      PP21830  10.684  14.769   3.368  0.0119 -0.0195  0.2090
11727PP      PP21831  13.389   2.440   4.182 -0.0216  0.5372 -0.5017
11728PP      PP21832  15.441   3.801   4.763  0.0679 -0.1388 -0.2045
11729PP      PP21833  11.471   1.336  12.454  0.0452 -0.1085 -0.3649
11730PP      PP21834  12.826  12.177   0.172 -0.3262  0.3888  0.2136
11731PP      PP21835   1.205  10.667  13.140  0.3631 -0.2748 -0.5641
11732PP      PP21836   9.190  14.561   2.517  0.0207 -0.3216  0.1063
11733PP      PP21837  15.456   1.100  12.714 -0.0414  0.2154 -0.0422
11734PP      PP21838  14.400   0.606  13.238 -0.1212  0.3002  0.0168
11735PP      PP21839   0.252   8.186   2.070 -0.0065 -0.0061  0.1351
11736PP      PP21840   9.723   3.133   1.171  0.2005 -0.2329  0.0470
11737PP      PP21841  10.747   1.983  12.194 -0.2546  0.1788  0.2313
11738PP      PP21842   6.947   6.807   9.699  0.0583  0.3161 -0.0495
11739PP      PP21843   9.994   8.904   2.009 -0.2667  0.1174 -0.1098
11740PP      PP21844  15.324   7.805   2.227 -0.0875 -0.1276  0.3368
11741PP      PP21845   4.613   3.942   3.651  0.1575 -0.2009 -0.0352
11742PP      PP21846  11.185  12.354   0.110  0.2029  0.0129 -0.0770
11743PP      PP21847  12.310   9.943   2.243 -0.0152 -0.1932 -0.1377
11744PP      PP21848  12.064  15.081   2.058  0.1651 -0.1646 -0.0033
11745PP      PP21849  10.045  12.440  12.974 -0.0139 -0.4490 -0.1057
11746PP      PP21850  15.504   1.951  11.483  0.1664  0.2141 -0.1103
11747PP      PP21851   5.634   7.410   9.281 -0.2079 -0.3825 -0.0545
11748PP      PP21852  11.120   5.658   4.664  0.1189 -0.2988 -0.2557
11749PP      PP21853   7.747   3.153   4.005  0.1184 -0.0617  0.3127
11750PP      PP21854  11.327   6.088   2.615  0.1127  0.2295 -0.3857
11751PP      PP21855  11.067  15.101  12.431 -0.1667 -0.2913  0.0224
11752PP      PP21856   9.360  15.094   2.429 -0.0704 -0.0049 -0.1818
11753PP      PP21857   9.089   4.905   9.251  0.1182  0.1296 -0.1070
11754PP      PP21858   5.490  14.852  13.027 -0.0846  0.3209 -0.0248
11755PP      PP21859  12.131   1.566   0.537 -0.1054  0.3387 -0.1497
11756PP      PP21860  11.590   7.515   2.629  0.1090  0.0392  0.2596
11757PP      PP21861   1.173   7.242   2.271  0.0732 -0.0071  0.1409
11758PP      PP21862   5.559  10.544   1.761  0.0300  0.2409 -0.0502
11759PP      PP21863  10.125   4.138   9.804 -0.4087 -0.1872 -0.1140
11760PP      PP21864  12.265   4.697   3.729  0.1304 -0.2002  0.4257
11761PP      PP21865  15.612   0.147  13.096  0.0010 -0.2147 -0.2816
11762PP      PP21866   4.082   2.059  12.305  0.2896 -0.2480 -0.2046
11763PP      PP21867   1.350  13.136   0.298 -0.3392 -0.1803  0.4226
11764PP      PP21868   5.396  13.194   1.179  0.1492  0.0842  0.1044
11765PP      PP21869  11.934   3.173  13.009 -0.3002 -0.1310  0.2713
11766PP      PP21870   1.396  12.278   0.570  0.1505  0.0013  0.0883
11767PP      PP21871   7.456  12.305   9.867 -0.5246 -0.0999 -0.2019
11768PP      PP21872  10.060  11.378   1.563 -0.1125  0.2160  0.4755
11769PP      PP21873  10.485   4.940  10.530  0.1428 -0.0749 -0.1772
11770PP      PP21874   3.515   6.395  12.433  0.2725  0.0482 -0.1473
11771PP      PP21875  12.645   0.942   8.791 -0.0740  0.1132 -0.3498
11772PP      PP21876  14.584  10.998   4.592 -0.4505  0.5041 -0.2169
11773PP      PP21877  13.243  12.965   4.645  0.0185 -0.2615  0.2604
11774PP      PP21878   3.519  14.139  13.100 -0.1290 -0.4814  0.1629
11775PP      PP21879  10.950  12.834   4.333 -0.0452  0.0574 -0.0599
11776PP      PP21880   7.469   9.623   0.371  0.0667 -0.1311 -0.0596
11777PP      PP21881  12.544   0.594  12.291  0.1048 -0.1468  0.1222
11778PP      PP21882   8.558  15.551   1.777  0.0621  0.0617  0.1733
11779PP      PP21883  14.737   1.387  10.827  0.1232  0.1984 -0.1519
11780PP      PP21884   3.170  10.950   2.340 -0.0810 -0.0630  0.1194
11781PP      PP21885   1.032  11.473   2.486 -0.0260  0.6580  0.1033
11782PP      PP21886   9.294  14.029  13.422  0.2388  0.3336  0.0707
11783PP      PP21887  13.492   3.313   9.717  0.0862  0.0049 -0.0729
11784PP      PP21888   9.482  14.311   3.467  0.0704  0.0773 -0.2893
11785PP      PP21889   1.742   8.832   5.352  0.0748 -0.3193 -0.3443
11786PP      PP21890  11.580   2.233  13.150 -0.0330  0.0138  0.0069
11787PP      PP21891   9.379   3.657   9.766  0.0268 -0.2385  0.1013
11788PP      PP21892  13.522   5.050  13.010 -0.2377  0.3882 -0.2149
11789PP      PP21893   7.750   7.273  10.668 -0.2847  0.0469  0.0268
11790PP      PP21894   1.204  13.860   3.009 -0.1709  0.0752  0.0967
11791PP      PP21895   8.975   5.601   0.335  0.3875 -0.0444  0.3090
11792PP      PP21896  13.459  11.459  13.189 -0.1930  0.0132 -0.0096
11793PP      PP21897   7.403   3.027   9.400  0.1023  0.4234 -0.3081
11794PP      PP21898  15.044   2.506   0.697 -0.1900 -0.2741  0.1278
11795PP      PP21899   2.274  13.669  10.919 -0.1120  0.0343  0.1322
11796PP      PP21900   3.715   9.811   3.155 -0.1277 -0.1218  0.3608
11797PP      PP21901   9.141   4.843  13.193  0.1934  0.0389 -0.0801
11798PP      PP21902  14.051   7.620   1.867 -0.2032  0.1574 -0.0950
11799PP      PP21903   6.428   6.181  12.740 -0.2076 -0.0611 -0.3356
11800PP      PP21904  13.234  13.252   3.607  0.3030 -0.2278  0.0021
11801PP      PP21905  12.867   6.318  10.622 -0.0358 -0.2295  0.0424
11802PP      PP21906   8.819   3.483   9.120  0.1117 -0.0922 -0.0132
11803PP      PP21907   1.760   0.919   9.771  0.2719 -0.1214  0.2490
11804PP      PP21908   3.009   7.551  10.997  0.2138  0.2583  0.0958
11805PP      PP21909  14.437   7.116  11.919 -0.0350 -0.0067  0.1089
11806PP      PP21910   8.552   5.507  10.848 -0.2332 -0.1650  0.2471
11807PP      PP21911   1.725   0.310   2.978 -0.0248  0.4888  0.1533
11808PP      PP21912   9.714   0.929   3.201 -0.1371 -0.0333  0.0181
11809PP      PP21913   5.785   3.311   1.620 -0.2163 -0.0895 -0.2483
11810PP      PP21914   7.625  13.103  10.964 -0.1195  0.0908 -0.0305
11811PP      PP21915   2.342  11.190   4.930 -0.2030 -0.1092  0.0841
11812PP      PP21916   6.032   3.233  12.965 -0.1977  0.0014  0.1682
11813PP      PP21917   7.357   7.694   2.024  0.2407  0.4055  0.1974
11814PP      PP21918  14.450   6.869  10.354  0.3761  0.0095 -0.1185
11815PP      PP21919  11.222   2.009   4.025 -0.3070  0.0452 -0.0405
11816PP      PP21920   0.374  14.013   9.722  0.0061 -0.0464 -0.4628
11817PP      PP21921   2.202   8.735   3.992 -0.1882 -0.0181  0.0906
11818PP      PP21922   1.219  14.893   0.025 -0.1875  0.1752 -0.2676
11819PP      PP21923  12.013   9.923   4.985  0.1852  0.4399  0.1940
11820PP      PP21924  13.518   1.945   3.284  0.2203  0.0522 -0.3043
11821PP      PP21925   8.799   8.940   3.754  0.0710 -0.0744  0.1765
11822PP      PP21926  13.700   1.032   9.664  0.0909 -0.0467 -0.1481
11823PP      PP21927   1.158   8.078   5.576 -0.0126  0.0202 -0.0896
11824PP      PP21928   6.261  10.661   4.911  0.0707  0.3246 -0.0733
11825PP      PP21929   3.279   0.691   2.182  0.1953  0.1870 -0.4544
11826PP      PP21930   2.845   9.164   4.453 -0.1284  0.2166 -0.0999
11827PP      PP21931   2.224   5.299  12.907 -0.0809 -0.0390  0.0610
11828PP      PP21932  11.676  14.176  11.594  0.2925 -0.0273 -0.0398
11829PP      PP21933  12.624  14.349   1.451 -0.1182  0.0923  0.2708
11830PP      PP21934   1.755  11.854   0.754  0.2250  0.0687 -0.2323
11831PP      PP21935  12.267   9.571   0.486 -0.0233  0.3150  0.2194
11832PP      PP21936   1.831   1.094  11.396 -0.2294  0.1705 -0.0105
11833PP      PP21937  15.377   4.624   2.555  0.2762  0.0221  0.3347
11834PP      PP21938   9.760  11.618   3.145  0.0418 -0.1620 -0.0347
11835PP      PP21939  15.079  13.261   9.573  0.1668 -0.2435 -0.1002
11836PP      PP21940  15.777   3.640   1.802 -0.0256  0.2334 -0.0738
11837PP      PP21941   4.753   9.546   5.176  0.0518  0.0445 -0.1368
11838PP      PP21942   1.058   5.959   0.029  0.0343 -0.0431 -0.4965
11839PP      PP21943   3.687  11.022  10.346 -0.2270 -0.1598  0.1361
11840PP      PP21944   9.840  15.804   0.909 -0.0642 -0.1794  0.4146
11841PP      PP21945   3.372   5.371   4.377 -0.2284 -0.0058  0.2122
11842PP      PP21946  13.788   6.744  12.281  0.0392  0.1646  0.1880
11843PP      PP21947   2.815   6.149   0.760  0.5903  0.3688 -0.0251
11844PP      PP21948   1.501  10.432   4.372  0.2096 -0.0874 -0.0876
11845PP      PP21949  12.908   2.310   9.042  0.0042  0.1619  0.3661
11846PP      PP21950   9.698   5.420  10.724 -0.0567  0.3508 -0.1992
11847PP      PP21951   5.802   0.977   1.275 -0.2319  0.1073  0.2916
11848PP      PP21952   1.450   0.719  13.142  0.1674 -0.1472  0.0128
11849PP      PP21953  10.876   9.091   2.224  0.1890 -0.0781  0.0133
11850PP      PP21954   3.525   7.539  11.213  0.2208  0.1597 -0.0962
11851PP      PP21955   9.243   5.225   0.415 -0.4992  0.2019 -0.0616
11852PP      PP21956   2.015   7.778   4.112 -0.0455 -0.2873  0.1610
11853PP      PP21957  11.979   7.361   9.984  0.0556 -0.1690  0.0961
11854PP      PP21958  15.765  10.420  10.940 -0.1371 -0.0357  0.0422
11855PP      PP21959  11.190   8.157   3.237 -0.0285  0.1451 -0.1434
11856PP      PP21960   3.830  12.832   1.627 -0.0983 -0.2463 -0.2670
11857PP      PP21961   9.029   4.012   3.258  0.1750  0.0769 -0.0480
11858PP      PP21962   4.471   5.572  11.820  0.2731  0.0123  0.2054
11859PP      PP21963  11.921  10.295   3.539  0.4004  0.1453  0.0896
11860PP      PP21964  12.062   3.684   9.970  0.0000 -0.4073 -0.1505
11861PP      PP21965  12.362   8.814  12.942 -0.2654  0.2261 -0.0646
11862PP      PP21966  13.634   1.452  11.487 -0.1947 -0.7129 -0.0443
11863PP      PP21967   4.111   5.003   2.702 -0.2324 -0.2384 -0.0305
11864PP      PP21968   9.903   0.558   0.522 -0.1247  0.0356  0.0164
11865PP      PP21969   3.642   9.496   2.289  0.1251 -0.0668  0.1829
11866PP      PP21970  10.225   4.965   9.790  0.1111  0.1215 -0.0246
11867PP      PP21971   3.185   2.478  11.881  0.1811 -0.2613 -0.2995
11868PP      PP21972  15.603  15.373  12.157 -0.0938  0.0543  0.0368
11869PP      PP21973   3.715   0.643   2.492  0.1512 -0.0766 -0.3074
11870PP      PP21974   3.269   1.909   2.916 -0.3996  0.3395 -0.2218
11871PP      PP21975   3.634   3.866   3.725  0.0702 -0.0741  0.3151
11872PP      PP21976  14.026   4.806   4.121 -0.1947  0.3097  0.1991
11873PP      PP21977  15.098   8.172  12.817  0.1403 -0.0965 -0.1254
11874PP      PP21978   2.733  11.653   0.284 -0.2110  0.0238  0.0668
11875PP      PP21979   4.801   4.700   1.851  0.0934 -0.1263  0.0750
11876PP      PP21980   0.888  11.531  12.986  0.0307 -0.3838 -0.2853
11877PP      PP21981   7.135   3.294  10.114  0.1920  0.0942 -0.1153
11878PP      PP21982   3.770   1.743   9.664  0.1379 -0.0155 -0.1555
11879PP      PP21983   9.264  10.892  12.743 -0.2175 -0.1331 -0.0041
11880PP      PP21984   1.525  13.394   2.175 -0.0351  0.0867 -0.2363
11881PP      PP21985  10.585  15.443  12.097 -0.2241  0.2216  0.0125
11882PP      PP21986   6.569   9.520  12.664  0.0581 -0.2774  0.0338
11883PP      PP21987  11.655  12.743  10.707 -0.1292 -0.1793  0.1318
11884PP      PP21988  11.435  10.781  11.440 -0.0871  0.0284  0.1649
11885PP      PP21989   3.131   2.849   4.178  0.0998 -0.2135  0.1268
11886PP      PP21990   1.823   7.419   2.236 -0.2466 -0.0949  0.0949
11887PP      PP21991  14.761   8.526  10.004  0.0253 -0.0514  0.1300
11888PP      PP21992  14.525   0.115   0.329 -0.2222  0.2894 -0.0444
11889PP      PP21993   1.436   2.088   2.917  0.2099 -0.0410 -0.0739
11890PP      PP21994   7.985  14.046  11.035  0.0108 -0.1981 -0.2282
11891PP      PP21995   9.012  13.961  12.446 -0.1257  0.0061 -0.1120
11892PP      PP21996   6.727  12.188  11.673 -0.0798 -0.1682  0.0511
11893PP      PP21997   0.952   3.116   9.622  0.0465 -0.0116 -0.0915
11894PP      PP21998  10.806   5.697  11.794  0.0644 -0.2272  0.0281
11895PP      PP21999  11.495  11.615   0.205  0.3034 -0.0480 -0.0346
11896PP      PP22000   6.638   1.042   0.125  0.1823  0.2869  0.2062
11897PP      PP22001   3.271   3.658   2.634 -0.0902 -0.2043  0.5998
11898PP      PP22002  11.613   1.330  10.341  0.3211  0.5472  0.0173
11899PP      PP22003   4.643  11.316  12.924 -0.3385  0.4446 -0.0694
11900PP      PP22004   8.545   9.767   3.471  0.1974 -0.0930  0.0622
11901PP      PP22005   4.147   3.812   2.879  0.1754  0.2522 -0.3674
11902PP      PP22006   4.582   5.031   1.309 -0.3849 -0.1274  0.0421
11903PP      PP22007   1.437   7.155   1.804  0.1170  0.0805 -0.1264
11904PP      PP22008   9.112   2.541  12.110 -0.0073  0.0874  0.1118
11905PP      PP22009   3.804   0.027   1.786 -0.4161  0.0292  0.1431
11906PP      PP22010   9.952  15.283   0.890 -0.0868 -0.1638  0.0874
11907PP      PP22011   7.098   6.928   3.835 -0.0136  0.0806  0.0022
11908PP      PP22012   1.109   9.151   2.682 -0.1124 -0.0203  0.0392
11909PP      PP22013  14.127  11.934   2.599  0.0826 -0.1213  0.3280
11910PP      PP22014  13.844  10.647  12.743 -0.0622 -0.0472 -0.1938
11911PP      PP22015  12.030   4.534   2.537 -0.2028  0.0736  0.2174
11912PP      PP22016   9.124   0.467   1.126  0.0784  0.3350 -0.3020
11913PP      PP22017  10.504   3.427  12.656  0.2357 -0.0345 -0.1748
11914PP      PP22018   0.342   8.485   5.229 -0.1957  0.1229  0.4479
11915PP      PP22019   5.244   3.391   3.349  0.1346  0.1198  0.1066
11916PP      PP22020  14.227  12.298   0.755 -0.2470  0.0037 -0.1701
11917PP      PP22021   8.749  10.815   2.043 -0.2440  0.0603 -0.1226
11918PP      PP22022   1.507   9.337  11.225  0.0859 -0.0543  0.0176
11919PP      PP22023   2.707   5.185   3.589  0.0894  0.1049 -0.2076
11920PP      PP22024  11.165   3.000   3.976  0.0023 -0.0027 -0.1855
11921PP      PP22025  10.818   2.239   1.436  0.3608  0.1909 -0.0309
11922PP      PP22026   1.760  13.491   0.182 -0.2486  0.0697  0.0156
11923PP      PP22027   3.163   9.045  12.501 -0.0031 -0.1442  0.1319
11924PP      PP22028   7.930   9.825  12.916  0.0801 -0.0813  0.2319
11925PP      PP22029   9.637   0.324  10.134 -0.0724 -0.1861  0.1097
11926PP      PP22030  11.924  12.591  13.067  0.1750 -0.2220  0.2468
11927PP      PP22031   8.358   6.590   8.323  0.2253  0.2308  0.1395
11928PP      PP22032   1.934   3.854   9.919  0.2265 -0.0579  0.3906
11929PP      PP22033   2.751  13.736   0.185  0.1209 -0.2906 -0.0654
11930PP      PP22034  11.415   6.196   0.256  0.1128  0.1200 -0.0445
11931PP      PP22035   1.459   3.228   1.539 -0.1745  0.1211 -0.1213
11932PP      PP22036   0.746  15.190   1.989 -0.1257 -0.0538 -0.0103
11933PP      PP22037  14.827  15.388  11.678  0.2696 -0.0978 -0.2678
11934PP      PP22038   4.228  10.163   5.442 -0.1884 -0.0985  0.1378
11935PP      PP22039   3.752   2.615  13.514 -0.0319  0.0953 -0.1346
11936PP      PP22040  10.016   8.223   0.963 -0.3177 -0.3803 -0.2575
11937PP      PP22041  15.367  11.284  12.181  0.2388  0.0085  0.1824
11938PP      PP22042   9.414  13.446  10.026 -0.0980 -0.4743  0.0943
11939PP      PP22043   2.675  15.742  10.534 -0.3353  0.1324 -0.3589
11940PP      PP22044   0.684  14.279   9.298  0.0483  0.2136 -0.0080
11941PP      PP22045  14.665   7.081   2.661 -0.0549  0.2073  0.0787
11942PP      PP22046   7.199   4.501  10.953 -0.0134  0.2788 -0.1858
11943PP      PP22047   8.436   9.318   3.811 -0.1370 -0.2436  0.0354
11944PP      PP22048   1.791   6.272   3.006 -0.4427 -0.0651 -0.0953
11945PP      PP22049   6.138   6.211   4.382 -0.0366  0.4114  0.0025
11946PP      PP22050  14.031   4.054   0.607  0.0362 -0.2032 -0.2697
11947PP      PP22051   2.885   3.644  13.028  0.1880  0.1749 -0.1957
11948PP      PP22052   0.551   2.909   1.479  0.1240 -0.0112  0.1157
11949PP      PP22053  10.517   4.043  10.906  0.0649  0.0934  0.2006
11950PP      PP22054  10.327   0.139   3.414  0.1115 -0.2517  0.0548
11951PP      PP22055  13.715   5.245   4.317 -0.0058 -0.2932  0.0147
11952PP      PP22056   4.713   3.867   2.173  0.1119 -0.0789  0.3791
11953PP      PP22057  14.014  13.363   9.956  0.1873 -0.0692 -0.2253
11954PP      PP22058  10.963   4.845   1.662  0.0553  0.2466  0.0192
11955PP      PP22059   6.597  14.046   1.040  0.1518  0.0078 -0.1682
11956PP      PP22060   1.720   3.005   1.005  0.1801  0.1927 -0.0528
11957PP      PP22061   7.319   0.006   2.407 -0.0190 -0.0707 -0.0869
11958PP      PP22062   6.628  10.706   1.291  0.2426  0.0842  0.1128
11959PP      PP22063  10.753  13.936  12.036 -0.2723 -0.1636 -0.3272
11960PP      PP22064  13.230   9.130   0.368  0.2732 -0.1897  0.0341
11961PP      PP22065   1.273   4.073  10.465  0.2163 -0.0363  0.2142
11962PP      PP22066  10.073   4.412  12.367  0.0240 -0.2966  0.1380
11963PP      PP22067  12.938   9.348  12.711  0.1122  0.0372 -0.1902
11964PP      PP22068   6.941   1.702  10.337 -0.0105 -0.4296 -0.0805
11965PP      PP22069   2.788   8.341   0.128  0.1227 -0.1928  0.1366
11966PP      PP22070  14.591  12.851   1.354 -0.3352  0.0365  0.0149
11967PP      PP22071   5.547   0.406   9.252 -0.0924 -0.0555 -0.0145
11968PP      PP22072   1.541   8.361   3.952  0.1967  0.0919 -0.1215
11969PP      PP22073   8.952   7.886   0.918  0.0339  0.2566  0.2466
11970PP      PP22074   2.416   7.775   3.386  0.0853  0.0228 -0.0985
11971PP      PP22075   4.538  13.125   3.755  0.1066  0.1744  0.0586
11972PP      PP22076   9.663   1.359  11.619  0.0925 -0.1920 -0.0946
11973PP      PP22077   3.195  13.885  12.809 -0.1261 -0.0943  0.2792
11974PP      PP22078  10.496  14.962  12.132 -0.1758 -0.1205 -0.2107
11975PP      PP22079   3.603   5.627   0.670  0.1746 -0.1298  0.1412
11976PP      PP22080   4.131   6.261   2.382 -0.0948  0.1749 -0.4041
11977PP      PP22081   1.912   1.575  12.942 -0.3027  0.1073  0.2201
11978PP      PP22082  13.508   8.494  12.541  0.1101  0.0378  0.1399
11979PP      PP22083   5.201   7.251  11.692  0.1250 -0.3719 -0.0161
11980PP      PP22084  10.250  10.077  13.317 -0.1689  0.2130 -0.1713
11981PP      PP22085  15.293   0.198   1.474 -0.1259 -0.1381 -0.1681
11982PP      PP22086   0.338   1.125   2.447  0.1491 -0.0184  0.0099
11983PP      PP22087   8.209   1.901   0.314  0.0263  0.2153 -0.1351
11984PP      PP22088  12.506   4.689  12.825 -0.2587  0.2492 -0.1070
11985PP      PP22089   8.680   3.663  13.424 -0.1007 -0.2359  0.1642
11986PP      PP22090   9.920   9.083   9.526  0.1012  0.0677 -0.2349
11987PP      PP22091   6.188  12.248  10.190  0.3488  0.1929  0.1816
11988PP      PP22092   8.452   0.909  10.993  0.0053  0.1380 -0.0399
11989PP      PP22093   6.154   6.730   4.366 -0.2192  0.1116 -0.0051
11990PP      PP22094  14.684   7.828   1.710 -0.0238 -0.0256 -0.0277
11991PP      PP22095   6.278  15.244   2.187  0.0844 -0.0766  0.2293
11992PP      PP22096   5.253  12.184   1.337 -0.0339  0.1648  0.0746
11993PP      PP22097  11.685  15.017  11.410 -0.2312 -0.1266  0.0682
11994PP      PP22098   9.476   7.073   8.979  0.3040 -0.1813 -0.2046
11995PP      PP22099   1.099   4.987   3.415  0.0589  0.0689  0.1294
11996PP      PP22100   8.682   0.012  11.461  0.3226  0.1268  0.1275
11997PP      PP22101   0.563  13.721  13.366  0.2331  0.2140  0.2787
11998PP      PP22102   4.249   1.644   1.602  0.0978  0.1981  0.2511
11999PP      PP22103   5.042   8.382   4.411 -0.2765  0.0977 -0.0451
12000PP      PP22104   9.323   5.172  10.926 -0.0872 -0.2490  0.2787
12001PP      PP22105   5.300  10.900   9.109  0.1167  0.0819 -0.0623
12002PP      PP22106   6.757   3.915  12.111  0.0408 -0.4224  0.1174
12003PP      PP22107   7.410  13.492   2.761  0.0122 -0.1604 -0.0599
12004PP      PP22108  10.770   7.739   3.206 -0.0186  0.0727  0.0546
12005PP      PP22109   5.917   9.267   0.588 -0.2951  0.1117 -0.1494
12006PP      PP22110  14.769  15.139   1.272  0.0658  0.0697  0.1195
12007PP      PP22111   1.355   2.205   0.522  0.2206  0.1451 -0.0972
12008PP      PP22112   4.588   4.993   0.094  0.0511 -0.2861 -0.0938
12009PP      PP22113   7.282   2.222   8.292 -0.0951 -0.1291  0.1548
12010PP      PP22114   4.092   6.983  10.639  0.0889  0.0656 -0.1654
12011PP      PP22115   9.586  15.224   2.888 -0.1816  0.0574  0.0412
12012PP      PP22116  12.332  15.580   1.371 -0.2050  0.2115  0.0896
12013PP      PP22117  10.605  12.019  11.276 -0.0392 -0.0159 -0.1408
12014PP      PP22118   9.481   7.242   3.681 -0.1773  0.0396  0.4513
12015PP      PP22119   7.386   6.034  13.038 -0.1155 -0.0852 -0.2770
12016PP      PP22120   6.039   6.196   0.077  0.1006 -0.2458 -0.0223
12017PP      PP22121  13.032   5.545   9.575  0.2134 -0.1003 -0.0425
12018PP      PP22122   8.225   2.868   8.340  0.1121  0.1714  0.0114
12019PP      PP22123  11.950  14.851   3.457  0.0528  0.1058  0.0388
12020PP      PP22124   9.566  13.336  10.697  0.2673 -0.0444  0.0469
12021PP      PP22125   5.353   1.747   3.674  0.0840 -0.3134  0.0614
12022PP      PP22126   2.790  11.086  11.790  0.0412  0.0851 -0.1512
12023PP      PP22127   3.369  10.191   5.082  0.1808  0.1372 -0.1352
12024PP      PP22128  11.809  12.265   9.192 -0.0492 -0.1097  0.1255
12025PP      PP22129  12.445   9.304  13.189  0.0163  0.0593 -0.0883
12026PP      PP22130  13.094  13.295   0.428 -0.0171 -0.1686  0.3121
12027PP      PP22131   1.273   9.284  11.717  0.0006 -0.0332  0.0939
12028PP      PP22132   2.539   9.139   1.376 -0.1330  0.0135 -0.1457
12029PP      PP22133   8.100   9.787   3.768 -0.1023  0.0633 -0.0561
12030PP      PP22134   1.863  11.851  10.419  0.0633 -0.0260  0.3154
12031PP      PP22135  13.566   7.804   4.203 -0.4062  0.3862 -0.0915
12032PP      PP22136  13.839   8.786   2.449 -0.1671 -0.0236  0.2563
12033PP      PP22137   1.046  15.513   2.893  0.0252 -0.3053 -0.0646
12034PP      PP22138   4.789   5.893  12.154 -0.1245 -0.0968  0.0154
12035PP      PP22139   5.089  15.236  12.944  0.1951  0.5178  0.0581
12036PP      PP22140   9.166   5.712  12.440 -0.0621 -0.1786 -0.2963
12037PP      PP22141   8.878  11.844   3.077 -0.0096 -0.1951  0.0831
12038PP      PP22142  12.670   5.741   2.239  0.0270  0.0130 -0.1389
12039PP      PP22143  14.274   3.703   9.084  0.0996 -0.2380 -0.1337
12040PP      PP22144  13.577   1.596  13.481  0.0866 -0.0773  0.1857
12041PP      PP22145   7.002  14.372   7.709 -0.0096  0.3140  0.1803
12042PP      PP22146  12.451   9.480   4.400 -0.2337  0.0363  0.0879
12043PP      PP22147   2.396  10.074   3.772  0.1365 -0.0935 -0.0274
12044PP      PP22148   2.028  11.617   4.696 -0.1395 -0.0751  0.0202
12045PP      PP22149   7.810   8.361  11.729 -0.1962  0.1964  0.0680
12046PP      PP22150   2.754   3.817  10.948  0.1689  0.0191 -0.0668
12047PP      PP22151   4.410  14.021   2.176  0.3038 -0.1334 -0.2255
12048PP      PP22152   2.835   9.020   5.390 -0.0581 -0.5213  0.1385
12049PP      PP22153   9.938  13.106  10.538  0.2062  0.2790  0.2461
12050PP      PP22154   7.629  14.701   2.028 -0.1174  0.4011  0.2562
12051PP      PP22155   1.242  11.468   2.037  0.1535 -0.1149  0.1491
12052PP      PP22156   1.841   5.807   4.683 -0.1896  0.0009 -0.1215
12053PP      PP22157  15.505   2.743   9.624 -0.1782  0.3146 -0.1712
12054PP      PP22158   1.021   4.919  13.256 -0.2307 -0.0370  0.0526
12055PP      PP22159  15.228   9.110   2.684 -0.1248 -0.0661 -0.3912
12056PP      PP22160   0.250  11.484   3.084  0.3305 -0.3320  0.1103
12057PP      PP22161  10.227  11.628   0.054 -0.1036  0.3216 -0.0608
12058PP      PP22162  12.125   8.690   2.259  0.1673  0.1486  0.2149
12059PP      PP22163   9.717   0.875   9.948  0.0169  0.0456 -0.0553
12060PP      PP22164   7.457   8.284  13.050 -0.3651  0.1364  0.3713
12061PP      PP22165   0.720   3.490  11.024  0.1536 -0.0666 -0.1435
12062PP      PP22166  12.900   4.514   1.385  0.0549 -0.0676  0.0461
12063PP      PP22167   7.636   7.408  12.284 -0.1387  0.0848  0.1179
12064PP      PP22168   4.360   4.230  11.687 -0.0375 -0.0930  0.3557
12065PP      PP22169   9.884   0.861  12.769 -0.0723 -0.1358 -0.2975
12066PP      PP22170  14.250   2.534  12.020 -0.1795 -0.2652 -0.1136
12067PP      PP22171  10.915  14.672   9.377  0.0237  0.2525  0.0170
12068PP      PP22172   9.218  15.698  10.290  0.2586  0.1747 -0.3110
12069PP      PP22173   7.969  10.572   1.271  0.0025 -0.2365 -0.0504
12070PP      PP22174  12.371   4.284   3.433 -0.0948  0.0603 -0.0272
12071PP      PP22175  14.267  14.496  10.919  0.0287 -0.2876 -0.0548
12072PP      PP22176   9.653   8.197   5.067 -0.3215 -0.0636  0.0114
12073PP      PP22177  15.555  12.089   2.471 -0.0923  0.3633  0.0136
12074PP      PP22178   8.885  10.567  13.456 -0.1846 -0.1388 -0.0862
12075PP      PP22179  10.235   8.999  10.153  0.0244 -0.4276  0.2553
12076PP      PP22180   5.070   2.242   9.388  0.0614 -0.1272  0.2456
12077PP      PP22181  11.115  13.738   3.789 -0.4148  0.1430 -0.0155
12078PP      PP22182  13.854  11.028   3.472 -0.2178  0.3070 -0.2748
12079PP      PP22183   3.358   8.438  11.079 -0.2005  0.2035  0.0916
12080PP      PP22184   6.057   0.085   8.357  0.1509 -0.2084 -0.0499
12081PP      PP22185   7.252   0.823  10.685  0.0061 -0.0891  0.1014
12082PP      PP22186  11.952   5.597   1.219 -0.1133  0.3180  0.3710
12083PP      PP22187  11.258   1.895   1.385  0.1535  0.2924  0.1333
12084PP      PP22188  13.834  12.368  11.982 -0.0113  0.1144 -0.1067
12085PP      PP22189  14.882   1.226   9.119 -0.1960 -0.2547 -0.0569
12086PP      PP22190   8.363  10.504   4.249  0.1857  0.1153  0.6007
12087PP      PP22191  12.688   9.355  11.278 -0.0300  0.3196  0.0899
12088PP      PP22192   1.466   8.007  11.139 -0.1794  0.0359 -0.2581
12089PP      PP22193   9.685   1.930   3.074  0.1670  0.2538 -0.1919
12090PP      PP22194   3.373  15.079   8.834  0.1500 -0.0289 -0.0397
12091PP      PP22195  12.777  10.998   1.640 -0.0587  0.2409 -0.2344
12092PP      PP22196  11.208   8.997   9.392 -0.0962  0.0802 -0.2865
12093PP      PP22197   4.886   6.582   3.790 -0.1313 -0.3105 -0.1799
12094PP      PP22198   5.608   5.436   2.739  0.2212 -0.0590 -0.1240
12095PP      PP22199   5.061   8.871   9.596 -0.1066 -0.1115 -0.0748
12096PP      PP22200   6.140  10.202   4.649  0.1602  0.2025 -0.0393
12097PP      PP22201   5.656   3.520  13.198 -0.0445 -0.1076 -0.3527
12098PP      PP22202   5.681   6.167  11.237  0.0112 -0.1549 -0.0839
12099PP      PP22203   3.537   9.375   3.994 -0.0216 -0.0022 -0.1963
12100PP      PP22204   7.602  13.857   3.662 -0.0643 -0.0460 -0.1253
12101PP      PP22205   7.085   9.130   1.163  0.0275 -0.4536 -0.0909
12102PP      PP22206   7.352   3.672  11.437 -0.1074  0.5182  0.2152
12103PP      PP22207  10.438   9.411   3.781 -0.3597 -0.0279 -0.0574
12104PP      PP22208   2.037  11.483   1.718 -0.1272  0.1702 -0.2080
12105PP      PP22209   5.910   2.206   1.477 -0.0418  0.1731  0.1956
12106PP      PP22210  10.744   3.792   3.624 -0.0897  0.1494  0.0022
12107PP      PP22211   8.872   2.248  10.948 -0.2815 -0.1689 -0.2257
12108PP      PP22212   3.669   7.325  11.709  0.2094  0.0638  0.0617
12109PP      PP22213   1.645  11.289   5.804 -0.1078 -0.1429  0.2804
12110PP      PP22214   9.587  12.914  10.028  0.1903  0.0069  0.1466
12111PP      PP22215   2.876  10.220   5.156  0.0057  0.0839  0.1847
12112PP      PP22216   7.895  10.802  12.061 -0.1891 -0.1576  0.0378
12113PP      PP22217   6.501   3.277  10.570 -0.3276 -0.0639 -0.1317
12114PP      PP22218   5.552  12.410   0.838 -0.2841 -0.0526 -0.1022
12115PP      PP22219   1.894  10.764  11.178 -0.0740 -0.4586 -0.0558
12116PP      PP22220   8.985   3.600  10.051  0.0214  0.0381 -0.1782
12117PP      PP22221   8.149   4.753  12.484  0.2187  0.0725  0.0544
12118PP      PP22222   7.556   8.100   2.687  0.4462 -0.0717 -0.1464
12119PP      PP22223   6.809   2.394   1.007 -0.1249 -0.4188 -0.2867
12120PP      PP22224   9.128   9.488  11.053 -0.3612  0.0096  0.3551
12121PP      PP22225   2.682  10.452   3.165  0.0272 -0.2031  0.1412
12122PP      PP22226  12.555  11.367  11.107 -0.2954  0.0182 -0.0005
12123PP      PP22227  12.261  14.115  11.844  0.0892  0.1759 -0.0622
12124PP      PP22228  12.949   6.913  12.055  0.0614  0.0942  0.1709
12125PP      PP22229   6.413   0.512  12.095  0.1593  0.0170  0.0161
12126PP      PP22230   8.271  13.829   0.093 -0.0499 -0.4437 -0.0470
12127PP      PP22231   2.244   3.295  12.600  0.0608  0.3699 -0.0122
12128PP      PP22232   6.604   4.746  10.045 -0.0083  0.4167  0.2457
12129PP      PP22233   8.439  12.376   2.907  0.3414 -0.3243 -0.0978
12130PP      PP22234   8.073   4.135   3.711 -0.0826 -0.0553 -0.1234
12131PP      PP22235  14.949  11.602   0.180  0.1345 -0.2457 -0.2257
12132PP      PP22236   3.723   7.958   2.908 -0.1489  0.3815 -0.4491
12133PP      PP22237   2.159   7.678   0.494  0.0061 -0.0004  0.1828
12134PP      PP22238  14.102  12.365  10.507 -0.0948 -0.0994 -0.1363
12135PP      PP22239  11.521  10.335   5.166 -0.4900 -0.1603 -0.3102
12136PP      PP22240  10.263   2.289   1.278 -0.3026 -0.1649 -0.0597
12137PP      PP22241  13.231   3.566   4.274  0.1139 -0.1011  0.3258
12138PP      PP22242  11.039   7.171  13.069  0.0733  0.0929  0.0938
12139PP      PP22243   6.940  10.480   2.652  0.1024  0.0055 -0.0551
12140PP      PP22244   0.827  10.947   0.142 -0.0821 -0.1190 -0.2591
12141PP      PP22245  12.573   9.469   5.570  0.1335 -0.3758 -0.0151
12142PP      PP22246   4.130   8.360  13.394 -0.1387  0.1392 -0.1960
12143PP      PP22247   1.604   1.648  13.339  0.0972  0.0325 -0.4090
12144PP      PP22248   5.628   7.797  11.183 -0.4249 -0.1080  0.1252
12145PP      PP22249   2.666  10.005   0.705 -0.1650  0.1438  0.1444
12146PP      PP22250  10.798   9.260  13.418  0.1991  0.0911 -0.1129
12147PP      PP22251   4.235  10.258   1.760 -0.1299  0.2566  0.2456
12148PP      PP22252   1.338   3.906   2.083  0.1570  0.2330  0.0193
12149PP      PP22253   1.045   7.589   1.893  0.2215 -0.0796  0.0260
12150PP      PP22254   5.140  11.079   8.647  0.2054  0.1205 -0.4213
12151PP      PP22255   4.616   2.690  10.693  0.1052 -0.1031 -0.0684
12152PP      PP22256  14.937  11.052   1.262 -0.0894  0.0175 -0.1120
12153PP      PP22257   9.273  11.256   4.560  0.0570  0.0476 -0.1390
12154PP      PP22258   4.050   6.154   4.405  0.2268  0.2533 -0.3089
12155PP      PP22259   9.673   9.360  11.397 -0.0483  0.0670  0.4262
12156PP      PP22260  13.936   6.458   1.574  0.0984  0.1494 -0.1074
12157PP      PP22261  11.665   9.745   9.518 -0.0037 -0.2794  0.0654
12158PP      PP22262   6.802   4.461   3.700  0.0521 -0.2085 -0.0804
12159PP      PP22263   5.738  13.431  10.566 -0.1984 -0.2291  0.0976
12160PP      PP22264  13.524   6.495   0.200  0.5263 -0.0958 -0.0988
12161PP      PP22265   8.867  11.641   0.935 -0.0723 -0.2187  0.1299
12162PP      PP22266   4.267   1.410  11.905  0.1625 -0.0939 -0.0820
12163PP      PP22267   1.655   6.533   4.676  0.0901 -0.0550 -0.0303
12164PP      PP22268   5.477  13.280   9.826 -0.2200 -0.3022  0.1500
12165PP      PP22269   3.414   3.244  12.225  0.3386  0.2481  0.1669
12166PP      PP22270   8.615   1.016  12.341  0.0767 -0.0276  0.3546
12167PP      PP22271  12.607   6.608   1.423 -0.1216  0.1159 -0.1268
12168PP      PP22272   2.596   3.249  12.255 -0.0535  0.1375  0.3308
12169PP      PP22273   6.674   6.826   3.544 -0.2204  0.3154 -0.1623
12170PP      PP22274  12.021   9.193   2.387 -0.0172  0.0021 -0.2956
12171PP      PP22275  14.987   2.757   9.433  0.0888  0.1343 -0.2759
12172PP      PP22276   6.349   1.585   2.565  0.5230 -0.1889 -0.1080
12173PP      PP22277   3.416   1.833  12.899  0.0022 -0.2030 -0.1868
12174PP      PP22278  11.216   2.748  10.217  0.1180  0.0901 -0.0277
12175PP      PP22279   2.063   8.323   4.569  0.0130  0.0491 -0.1623
12176PP      PP22280   5.465   1.137   8.345  0.1460 -0.0241 -0.0130
12177PP      PP22281   8.588   2.219   0.455  0.0405 -0.0506  0.1798
12178PP      PP22282  11.597  15.390  11.712 -0.0573 -0.1704  0.0968
12179PP      PP22283  11.599   8.433   1.750 -0.0651  0.0341  0.4204
12180PP      PP22284   3.886   9.631   2.695  0.0981 -0.0337 -0.1208
12181PP      PP22285   0.647   6.225  10.970 -0.2131 -0.0448  0.2123
12182PP      PP22286  13.816   9.005   5.660  0.0985 -0.1766  0.2202
12183PP      PP22287   1.692   0.003  11.316  0.0946  0.3204 -0.1963
12184PP      PP22288   7.501   0.444  10.934  0.3215 -0.1398 -0.0763
12185PP      PP22289   0.830   9.797  12.399 -0.1951  0.1905 -0.0909
12186PP      PP22290   5.927  14.466   8.576 -0.2761 -0.4750 -0.2340
12187PP      PP22291  13.699  12.885   3.240 -0.0010 -0.3370  0.1573
12188PP      PP22292   0.858  15.327  11.192 -0.1187  0.1671 -0.0291
12189PP      PP22293   3.598   8.656  12.487  0.1312  0.3223 -0.0113
12190PP      PP22294   5.097  10.793   9.537 -0.2868  0.1283  0.3312
12191PP      PP22295  15.258   0.044   3.369 -0.1976 -0.0811 -0.0285
12192PP      PP22296  10.045   3.598  10.613 -0.3336 -0.0603  0.0051
12193PP      PP22297   2.188   7.224  12.536  0.0381 -0.0847 -0.0752
12194PP      PP22298  12.883  12.883   9.715 -0.0062  0.0792  0.3202
12195PP      PP22299   4.004   6.739   3.532 -0.0115 -0.1021 -0.0680
12196PP      PP22300   2.605   9.452  12.105  0.1354  0.0515  0.0519
12197PP      PP22301   3.619  10.977   2.097  0.0998  0.1528  0.0068
12198PP      PP22302   0.430  11.210   0.883  0.1605 -0.0839  0.0331
12199PP      PP22303   7.849   9.289   0.449 -0.1481 -0.2709  0.0763
12200PP      PP22304  14.491  13.165   0.579  0.1933  0.0893 -0.2497
12201PP      PP22305   2.776   5.280  13.093  0.2943  0.3251  0.3369
12202PP      PP22306  14.756  15.217   2.362 -0.3019 -0.0910  0.0458
12203PP      PP22307   2.767   1.665  11.640  0.2730 -0.1844  0.1021
12204PP      PP22308  13.193  15.354   8.840 -0.2042  0.1475 -0.0187
12205PP      PP22309   1.621   3.206  10.948 -0.1044 -0.1737 -0.1612
12206PP      PP22310   1.003   1.512   8.496  0.0729  0.1649  0.1756
12207PP      PP22311   1.359  11.309  12.413  0.0231  0.0236  0.2816
12208PP      PP22312   8.828  14.098  13.197  0.0279 -0.2329  0.2504
12209PP      PP22313  13.671   0.932   0.816  0.3313  0.3410 -0.3698
12210PP      PP22314   0.699   0.619  12.026 -0.0597  0.1824  0.1335
12211PP      PP22315   4.426   5.568  12.364  0.0348  0.1134 -0.0404
12212PP      PP22316   4.674  13.798   9.352  0.0230 -0.2468  0.1736
12213PP      PP22317  15.773   2.313   8.469 -0.0833  0.0156 -0.1020
12214PP      PP22318  12.315   2.631  10.190  0.0579  0.1038 -0.2434
12215PP      PP22319   9.378   1.312   3.907  0.2239  0.1383  0.4195
12216PP      PP22320   1.160  13.346   3.599 -0.2515 -0.1624 -0.2651
12217PP      PP22321   9.707  10.122   0.534 -0.0413 -0.1693  0.0507
12218PP      PP22322   9.456   0.592   4.586  0.0557  0.1851  0.0080
12219PP      PP22323   1.342  10.724  10.633 -0.1415  0.1535 -0.0717
12220PP      PP22324  15.369  13.420  13.196  0.1789 -0.1302 -0.1795
12221PP      PP22325   4.636  15.361  12.786 -0.1229  0.5530  0.0461
12222PP      PP22326   0.024   9.213   0.776  0.1732  0.0015  0.2097
12223PP      PP22327   1.034   5.708   3.218  0.1066  0.2022  0.3654
12224PP      PP22328   4.544   2.910   1.157  0.0294  0.1242  0.2249
12225PP      PP22329  10.656  11.563   4.703  0.1699 -0.4617 -0.1656
12226PP      PP22330   6.534   1.313  12.717 -0.3538 -0.2897  0.3885
12227PP      PP22331  13.134   4.327   0.188 -0.0287  0.2536 -0.0280
12228PP      PP22332  13.346   6.775   4.639 -0.0724 -0.1582  0.0002
12229PP      PP22333   0.626  12.445  11.950  0.2193  0.1791 -0.1748
12230PP      PP22334   0.700   5.448   0.093 -0.2366  0.1860 -0.0877
12231PP      PP22335   8.395   7.816  11.924  0.2960 -0.1924 -0.2484
12232PP      PP22336  14.548  13.460  10.681 -0.1725 -0.0390 -0.1473
12233PP      PP22337   5.061   1.824   2.167  0.1011  0.0333 -0.0629
12234PP      PP22338   3.272   3.662  12.646  0.0246 -0.1618 -0.3114
12235PP      PP22339   4.130   0.875   2.306 -0.0712  0.1359 -0.0220
12236PP      PP22340   7.900   6.521   2.659  0.0755 -0.3721  0.2027
12237PP      PP22341   4.694   6.713   9.962  0.2926  0.1456 -0.1420
12238PP      PP22342  12.107   4.441   1.030 -0.1178  0.0978  0.1889
12239PP      PP22343  10.774  14.215  12.478 -0.0818 -0.0425  0.0265
12240PP      PP22344  11.817  12.824  12.620 -0.2032  0.1606 -0.0238
12241PP      PP22345   9.133  13.599  12.068  0.1580  0.1099 -0.1729
12242PP      PP22346   4.179   0.578   9.754 -0.0154 -0.0561 -0.2779
12243PP      PP22347  11.086  10.708  12.278 -0.3342 -0.1822  0.1201
12244PP      PP22348  15.004  12.439  12.952 -0.0492  0.0294 -0.2625
12245PP      PP22349   5.856  12.498   2.109  0.1434 -0.2003  0.0802
12246PP      PP22350   2.314   7.355   3.884 -0.1050  0.2297 -0.1745
12247PP      PP22351   1.941  12.846   0.976  0.3325  0.0734  0.0115
12248PP      PP22352   1.698   0.605   1.580 -0.1419  0.0871  0.1172
12249PP      PP22353  13.749   4.284  12.283 -0.1038 -0.2183 -0.2022
12250PP      PP22354   2.449   1.532  13.498 -0.1018  0.0695 -0.1502
12251PP      PP22355  13.302   0.173  11.596  0.0577 -0.0134  0.0725
12252PP      PP22356   7.757   4.929   7.990 -0.1578  0.2888  0.0977
12253PP      PP22357  10.640   3.418   2.384 -0.1289  0.4876 -0.0124
12254PP      PP22358  15.415   0.001  10.318  0.2462 -0.1301 -0.1572
12255PP      PP22359   5.190  10.436  12.628 -0.1064  0.0320 -0.2780
12256PP      PP22360   4.701   9.093   1.135 -0.2701  0.1165  0.0671
12257PP      PP22361  10.841   0.021  13.032 -0.1657  0.0665 -0.3666
12258PP      PP22362  13.645  12.719   9.122  0.0049  0.3271  0.2277
12259PP      PP22363  12.376  13.073   9.662  0.1584  0.2819 -0.0690
12260PP      PP22364   4.213  10.050   2.766  0.2920 -0.0084  0.1744
12261PP      PP22365  14.925  14.562  13.408 -0.1921  0.2007 -0.3619
12262PP      PP22366  14.774   5.143   4.582  0.1655 -0.0664 -0.1060
12263PP      PP22367  14.400   5.088  13.444 -0.0581 -0.0093 -0.0444
12264PP      PP22368   6.945  12.378   3.793  0.0561 -0.0263 -0.0948
12265PP      PP22369   5.157   4.627   0.782  0.0204  0.0012 -0.2871
12266PP      PP22370   5.405   2.093   8.451  0.2685  0.0811  0.1098
12267PP      PP22371   3.667  14.961   0.248 -0.0179  0.0241 -0.3019
12268PP      PP22372  12.923   4.916   2.543 -0.2928  0.3771 -0.2017
12269PP      PP22373   9.357  11.928   1.425  0.1060 -0.3200 -0.1399
12270PP      PP22374   9.081   6.545  11.484  0.1466  0.0660  0.2353
12271PP      PP22375   7.242  11.522   1.456 -0.1024 -0.0946  0.2843
12272PP      PP22376   3.433   6.963   5.843  0.0878 -0.0790 -0.0399
12273PP      PP22377   4.426  15.757  10.231 -0.0637  0.0859  0.3141
12274PP      PP22378   7.048   8.493   9.706  0.1633  0.0895  0.0271
12275PP      PP22379   1.050  15.511   0.859  0.1008  0.1300  0.0281
12276PP      PP22380   8.374   4.097   9.418  0.1708  0.1381 -0.2455
12277PP      PP22381   4.523  10.958   0.961 -0.0033  0.1213 -0.2003
12278PP      PP22382   6.589  11.284  12.593 -0.1071  0.1299  0.2758
12279PP      PP22383  11.109   6.902   2.139 -0.1465  0.0408 -0.1038
12280PP      PP22384  11.582  14.251   3.252  0.0361  0.2147  0.1365
12281PP      PP22385  13.421  13.255   9.006  0.2958 -0.1622 -0.1359
12282PP      PP22386   5.882   5.292   0.564 -0.1550 -0.3375 -0.1077
12283PP      PP22387   9.876  12.475  10.025  0.1553 -0.0089 -0.1700
12284PP      PP22388  13.415   8.518   2.933 -0.0455  0.1132  0.2696
12285PP      PP22389   8.259  15.650  12.656 -0.0317 -0.1783 -0.1184
12286PP      PP22390   4.569  12.960   2.635  0.2494 -0.0105 -0.2099
12287PP      PP22391  11.905   2.878  12.546 -0.0359 -0.0607 -0.3509
12288PP      PP22392  15.421   9.010  12.170 -0.0715  0.2882 -0.4828
12289PP      PP22393  15.473   3.785  11.747 -0.1026  0.0273 -0.1024
12290PP      PP22394   9.066  14.518   1.096  0.4302 -0.2390  0.0273
12291PP      PP22395   9.452  11.165  13.185 -0.3720 -0.0119 -0.1714
12292PP      PP22396   3.187   2.809  10.981 -0.4469  0.1286 -0.0174
12293PP      PP22397   3.311   8.670   5.293  0.2187 -0.0942 -0.0883
12294PP      PP22398  14.687  15.725  12.905  0.2144  0.1791 -0.1326
12295PP      PP22399   8.321   9.185  12.320  0.0824 -0.0673 -0.0001
12296PP      PP22400  12.185  10.364   5.004  0.1098  0.0535 -0.2879
12297PP      PP22401  12.297   3.584  12.964  0.2104 -0.0281 -0.1496
12298PP      PP22402   6.665  13.842   3.961  0.1820  0.0903  0.0741
12299PP      PP22403  12.330   1.721   9.136  0.1530 -0.0865 -0.0648
12300PP      PP22404   8.779   9.275  10.648  0.1645 -0.1656  0.2066
12301PP      PP22405   2.104   4.941   2.415 -0.1610  0.0576  0.0622
12302PP      PP22406   6.730  13.535   3.391 -0.3223 -0.3863  0.0921
12303PP      PP22407   2.160   0.947  10.313  0.1183  0.3385  0.2193
12304PP      PP22408   0.798   3.556   3.167  0.2899 -0.4223  0.2012
12305PP      PP22409   6.228   5.435  10.063 -0.0115  0.0679 -0.0463
12306PP      PP22410   1.007   4.600  10.826 -0.1044  0.4365 -0.0493
12307PP      PP22411   7.761   2.204   8.153  0.1696 -0.1549  0.1670
12308PP      PP22412   1.532  13.714   4.272  0.2555 -0.0177  0.0540
12309PP      PP22413   5.564   8.498   4.188 -0.2510  0.2878  0.1454
12310PP      PP22414   2.311  12.463  13.104  0.5315 -0.0449 -0.5005
12311PP      PP22415   2.186   0.769   7.671 -0.3856 -0.0573 -0.1613
12312PP      PP22416   8.611  12.362   1.718  0.0428  0.1592  0.2716
12313PP      PP22417   6.327  15.503   1.062 -0.0201 -0.0473 -0.0888
12314PP      PP22418  13.154   5.907   4.357 -0.5096  0.3656  0.0433
12315PP      PP22419   9.167  12.405   2.140 -0.0520 -0.3725 -0.1824
12316PP      PP22420   3.667  13.308   0.048 -0.0748  0.0755  0.2245
12317PP      PP22421   2.706   8.096   5.917  0.1998 -0.0602 -0.0249
12318PP      PP22422   8.951  14.040   0.852  0.0134 -0.1240 -0.1459
12319PP      PP22423   5.130   7.408   2.663 -0.1329  0.0504 -0.1388
12320PP      PP22424  12.805   5.992   9.374  0.0709 -0.0345  0.0671
12321PP      PP22425   7.836  10.653  11.216 -0.0506 -0.0949  0.1188
12322PP      PP22426  13.337   1.891   9.586 -0.0205  0.0746  0.1394
12323PP      PP22427  12.238   5.943   0.382  0.0495 -0.2732 -0.0586
12324PP      PP22428  15.552   8.104   9.890 -0.1521  0.2033  0.1377
12325PP      PP22429  14.510   9.263   3.930  0.1216 -0.4503 -0.0818
12326PP      PP22430  12.257  15.275   9.495 -0.4475  0.1009  0.2211
12327PP      PP22431   7.011   4.532  12.737 -0.1211 -0.0299 -0.2674
12328PP      PP22432   3.467   0.702   4.048  0.1693  0.1024  0.2666
12329PP      PP22433   4.086  13.678   2.367 -0.4087  0.2442 -0.1398
12330PP      PP22434   3.783   0.651   8.375  0.1893 -0.1609 -0.2507
12331PP      PP22435   8.905  10.068   3.529  0.0757  0.0978 -0.1392
12332PP      PP22436   4.546   0.357   3.613 -0.0138  0.0124  0.1645
12333PP      PP22437   3.173  13.187   0.066 -0.2350 -0.2805  0.1205
12334PP      PP22438  12.933   7.753  12.622 -0.2125  0.0708  0.0187
12335PP      PP22439  13.515   9.668   3.788  0.2359 -0.1358 -0.0580
12336PP      PP22440   8.687  11.111  10.482 -0.1813  0.4446  0.2812
12337PP      PP22441   9.965   4.855   1.734 -0.1826  0.2972 -0.2137
12338PP      PP22442  13.527  15.776  10.476 -0.1509 -0.0535  0.0495
12339PP      PP22443   9.023  10.623   3.359  0.2523  0.3428 -0.1367
12340PP      PP22444  10.484  10.326   2.764  0.0458 -0.1734 -0.1823
12341PP      PP22445  13.870   6.058  12.881  0.1175  0.2184  0.1371
12342PP      PP22446   5.010  15.759   0.222  0.2176 -0.0749 -0.1360
12343PP      PP22447   8.298   7.924   4.190 -0.0306 -0.2155 -0.0816
12344PP      PP22448   1.764  14.806   0.052  0.1939  0.0704  0.1382
12345PP      PP22449  10.047  12.311   8.875  0.1729 -0.0401  0.1138
12346PP      PP22450  11.752  14.635   2.104 -0.0202 -0.3094 -0.0392
12347PP      PP22451  10.750  15.451   9.940 -0.1456  0.0903  0.2740
12348PP      PP22452  10.293  14.424   4.452  0.1644 -0.1102  0.2451
12349PP      PP22453  15.222   5.934   2.082  0.0647  0.1114  0.0751
12350PP      PP22454   9.499   1.771  11.969  0.1389 -0.1225  0.1281
12351PP      PP22455  15.751   6.693   4.213  0.0743  0.4734 -0.1098
12352PP      PP22456   6.353  14.416   9.711  0.1052  0.1672 -0.0367
12353PP      PP22457   3.019  10.860  10.540 -0.0958  0.1407  0.0095
12354PP      PP22458  11.025   1.682   8.682 -0.1527  0.3332 -0.0865
12355PP      PP22459  14.662  15.334  12.480  0.1346 -0.2939  0.1565
12356PP      PP22460  12.405  12.493  12.311  0.0297  0.0535  0.0368
12357PP      PP22461  13.056  13.310  10.905  0.0659 -0.1187  0.1854
12358PP      PP22462   3.742   8.380  11.461 -0.0525 -0.2737 -0.0591
12359PP      PP22463  14.655  10.308   2.737 -0.0654 -0.1522 -0.0987
12360PP      PP22464   5.428   3.295   2.047  0.1515  0.0678 -0.0854
12361PP      PP22465  10.355   8.914   9.575 -0.0658  0.0082  0.0156
12362PP      PP22466  10.468   8.454  11.160  0.3644  0.3201  0.0229
12363PP      PP22467  14.479  10.206   5.665  0.1474  0.1273  0.0614
12364PP      PP22468  12.935  11.488   1.384  0.0971  0.1215  0.1029
12365PP      PP22469   4.892   3.053  11.477  0.1216  0.1725 -0.2824
12366PP      PP22470   9.670   8.195  10.105 -0.0035 -0.1627  0.0230
12367PP      PP22471   6.314   4.570  10.996  0.0710 -0.0010 -0.2290
12368PP      PP22472   1.521   1.645   0.334 -0.0591  0.1492 -0.3695
12369PP      PP22473   3.836   4.872   3.426 -0.3114  0.0986  0.1331
12370PP      PP22474  13.941   4.298  12.742  0.0000  0.1359  0.0901
12371PP      PP22475   7.165   6.691   8.888 -0.1922 -0.0251 -0.1236
12372PP      PP22476  11.183  12.627   9.334 -0.1236  0.3639  0.2419
12373PP      PP22477  13.271  14.288   2.031 -0.0344 -0.0516 -0.1269
12374PP      PP22478   6.695  12.234  10.661  0.0492 -0.4136  0.0665
12375PP      PP22479  13.997   9.733   3.103  0.1941  0.2117 -0.1875
12376PP      PP22480   5.162  12.155   2.274 -0.1663  0.1495 -0.0042
12377PP      PP22481  14.309   9.954   0.429 -0.3144  0.5028  0.1770
12378PP      PP22482   5.732   1.617   3.251 -0.1298 -0.0657 -0.0917
12379PP      PP22483   6.902   5.655   0.987  0.2242 -0.1510 -0.1451
12380PP      PP22484   7.594   3.562   3.217  0.0878 -0.0230 -0.0173
12381PP      PP22485   0.271   5.931  10.412  0.0882 -0.1208  0.2083
12382PP      PP22486   7.803  12.294  12.687 -0.3866 -0.0843 -0.1181
12383PP      PP22487  12.464   2.094   1.473 -0.0796 -0.1532  0.0500
12384PP      PP22488   8.537   0.419  11.997  0.0976  0.1840  0.0015
12385PP      PP22489   2.589  10.588   4.012 -0.0810 -0.1179  0.1744
12386PP      PP22490  12.575   1.644   8.608 -0.0542 -0.1240  0.2086
12387PP      PP22491  12.548  14.543   0.944 -0.1936  0.1266 -0.2067
12388PP      PP22492   5.276   9.495   2.474  0.3794  0.1350  0.0962
12389PP      PP22493  12.988   9.270   4.457  0.3999  0.1744 -0.1602
12390PP      PP22494   1.742   7.939   2.384  0.1490 -0.3054 -0.1560
12391PP      PP22495   0.471   5.153  12.360  0.1419 -0.2808  0.2698
12392PP      PP22496   0.194   7.293   9.509 -0.0038 -0.3724  0.0427
12393PP      PP22497  14.309   6.511   4.819 -0.2019  0.1122 -0.3127
12394PP      PP22498  14.554   7.364   3.421  0.1092 -0.0251 -0.0197
12395PP      PP22499   3.399   4.628   0.096  0.0182 -0.0201  0.2371
12396PP      PP22500   6.444   6.177   9.662  0.2772  0.0927  0.0388
12397PP      PP22501   8.560  12.738  12.162  0.1362 -0.2277  0.0180
12398PP      PP22502  12.899   7.117   5.315  0.2165  0.1353 -0.1934
12399PP      PP22503   5.290  10.049  12.975  0.1319 -0.3490 -0.2301
12400PP      PP22504   6.471   1.205   1.493  0.1801  0.5390 -0.0006
12401PP      PP22505   6.296  15.177   3.120  0.2789  0.1662  0.1156
12402PP      PP22506  11.311   7.798   4.324  0.2881  0.1678  0.0220
12403PP      PP22507   4.547   6.749   4.298  0.1163  0.1042 -0.1506
12404PP      PP22508   0.671   4.054  12.014  0.0941  0.2275 -0.1409
12405PP      PP22509   4.721   8.219  11.189 -0.3377  0.0555 -0.0338
12406PP      PP22510   5.610   1.388  11.703  0.1138  0.1717 -0.1692
12407PP      PP22511   1.921   8.940   4.782  0.2231 -0.2172  0.1848
12408PP      PP22512  13.856  13.951  11.748  0.3047  0.0274 -0.0470
12409PP      PP22513   8.219   8.170   1.642 -0.3352  0.0150  0.1138
12410PP      PP22514  14.116   9.507  11.789  0.3902 -0.0225 -0.0556
12411PP      PP22515  15.526   9.792  13.107 -0.0662 -0.2676  0.3057
12412PP      PP22516  11.897  14.783   9.797  0.2672  0.0992 -0.2530
12413PP      PP22517   1.151   2.406  13.176  0.0643 -0.0751  0.1030
12414PP      PP22518   7.470  11.833   9.083  0.1981 -0.1623  0.0795
12415PP      PP22519   2.898   8.466   3.757  0.0407 -0.0306  0.0558
12416PP      PP22520   2.715   1.187   9.486 -0.0402  0.1549  0.1453
12417PP      PP22521   6.807  12.968   1.164 -0.0940 -0.2653 -0.0506
12418PP      PP22522   6.466   7.004   3.976  0.0013 -0.1112  0.2712
12419PP      PP22523  12.989   5.110   4.643 -0.0239 -0.0019 -0.4063
12420PP      PP22524   0.462   2.419   9.195 -0.4310 -0.1412  0.2539
12421PP      PP22525  11.380   8.214   1.373 -0.2612  0.2387  0.1328
12422PP      PP22526   8.813   5.519   8.570  0.0072 -0.1716  0.0905
12423PP      PP22527  10.897   4.967   8.610 -0.3336 -0.0347 -0.2768
12424PP      PP22528   4.523   9.117   1.599 -0.3163  0.1979  0.1496
12425PP      PP22529   5.231   2.804   3.419 -0.0211  0.0458 -0.2602
12426PP      PP22530  12.151  14.298   1.217  0.0883  0.0853 -0.1462
12427PP      PP22531   5.505   6.631  13.045  0.2580 -0.1567  0.0421
12428PP      PP22532   5.224  13.116   0.269 -0.0763  0.1485 -0.2572
12429PP      PP22533   4.095   0.289   1.089  0.1292  0.1423 -0.1515
12430PP      PP22534   2.795  12.807  10.591  0.4006  0.3421 -0.1888
12431PP      PP22535  15.257   1.487   0.980 -0.0087 -0.1352  0.0164
12432PP      PP22536   6.936   7.960   4.596 -0.0754  0.1315 -0.0326
12433PP      PP22537  13.216  15.325   0.913  0.2519  0.1542  0.0534
12434PP      PP22538   7.996   5.483  10.667 -0.3986 -0.1102 -0.1312
12435PP      PP22539   5.251   4.351  11.059  0.0453  0.2169 -0.3012
12436PP      PP22540   6.934   6.309   9.863  0.2121 -0.1217 -0.0091
12437PP      PP22541   4.907  12.394  13.114  0.0258 -0.0298 -0.2103
12438PP      PP22542   0.740   9.690   3.128  0.1009 -0.1279  0.1122
12439PP      PP22543   9.753   7.545  11.642 -0.0003  0.4122 -0.1374
12440PP      PP22544   8.954   7.763   4.585 -0.1724  0.0570 -0.1012
12441PP      PP22545   9.303   8.520   4.326 -0.0499  0.0918  0.0863
12442PP      PP22546   2.446   5.508   0.399 -0.2268 -0.3125  0.1246
12443PP      PP22547   1.977   6.986   9.787 -0.0934 -0.0302  0.3779
12444PP      PP22548   5.149  11.349  12.436 -0.1379  0.0029 -0.0145
12445PP      PP22549  11.376   1.347  10.818 -0.2244  0.1144 -0.4172
12446PP      PP22550   8.148   3.860  10.391  0.2771 -0.0119 -0.1648
12447PP      PP22551  15.286  14.855   1.493 -0.1755  0.1633 -0.0696
12448PP      PP22552   9.813  13.712   9.783  0.2459  0.2758  0.0671
12449PP      PP22553   6.456   1.316  11.906 -0.1864  0.0823 -0.2352
12450PP      PP22554   0.269  14.374   3.637  0.0335  0.2617  0.0454
12451PP      PP22555  13.634  14.672   3.126 -0.1606 -0.1846 -0.0779
12452PP      PP22556  11.619   9.522   3.332 -0.0994 -0.5185 -0.3483
12453PP      PP22557   3.205  10.675   0.266 -0.0090  0.0799 -0.2026
12454PP      PP22558   3.923  11.510   0.891 -0.0194  0.0804  0.0539
12455PP      PP22559   4.823  14.253   1.850 -0.3264  0.2592  0.1409
12456PP      PP22560  14.541   1.375  12.889 -0.2707 -0.0969  0.1066
12457PP      PP22561   3.067  14.430   1.425 -0.0527 -0.0927  0.3940
12458PP      PP22562   6.854   8.890   0.181  0.0641  0.2912 -0.0820
12459PP      PP22563   6.860   7.780   1.069 -0.0226 -0.0673 -0.2929
12460PP      PP22564   9.486   1.522   1.459 -0.0690 -0.1337 -0.1174
12461PP      PP22565   1.886  14.305   0.090 -0.2544 -0.0987 -0.1913
12462PP      PP22566   6.838   6.326  13.005  0.1726 -0.2461  0.0447
12463PP      PP22567   6.394   0.840   8.315  0.1404  0.1030  0.0421
12464PP      PP22568   7.838   4.401   0.283  0.1659 -0.1686  0.3803
12465PP      PP22569   4.360  15.728   2.742 -0.0488 -0.3794  0.0850
12466PP      PP22570   1.483   5.015   4.778 -0.2230 -0.2446  0.0722
12467PP      PP22571  11.325   3.991  13.007 -0.1748 -0.2460  0.1960
12468PP      PP22572   7.272   5.613  10.953 -0.1817 -0.2920  0.1212
12469PP      PP22573   9.138  14.772   9.129  0.1315 -0.2170  0.0334
12470PP      PP22574   0.953   2.910   3.156  0.3751 -0.0738 -0.0015
12471PP      PP22575   4.244   5.617   1.969  0.2370 -0.1843  0.2265
12472PP      PP22576  15.015   5.596   1.516 -0.2261  0.4127  0.2169
12473PP      PP22577  11.356  12.052   9.350 -0.1545  0.3080  0.0137
12474PP      PP22578  14.345   9.752   4.893  0.0128 -0.1800  0.0457
12475PP      PP22579  10.770   5.078   9.655  0.0296  0.0486 -0.3136
12476PP      PP22580  15.633  13.589  12.737  0.0294 -0.0218 -0.0885
12477PP      PP22581   1.155   1.947   0.903 -0.3179  0.1220 -0.1733
12478PP      PP22582   3.194   1.957  11.969  0.0968 -0.2340  0.1779
12479PP      PP22583   7.829   5.437   8.071 -0.0817  0.0547 -0.0616
12480PP      PP22584   2.157   8.578  10.899 -0.1006 -0.1772  0.2339
12481PP      PP22585  12.009  12.859   1.502  0.0788  0.1756 -0.1361
12482PP      PP22586  10.693  12.258  13.524  0.0062 -0.2705 -0.2990
12483PP      PP22587   5.452  11.912   0.976  0.0479  0.1668 -0.0131
12484PP      PP22588   0.266   0.593   0.077 -0.1661 -0.0259  0.0783
12485PP      PP22589  15.830   3.421  12.111  0.0823 -0.3327 -0.0451
12486PP      PP22590   8.470   8.719  11.735 -0.0982 -0.2143  0.0584
12487PP      PP22591   5.921   2.107   9.437 -0.2184  0.0810  0.0923
12488PP      PP22592   5.625  14.914  10.843  0.1306 -0.0998 -0.0457
12489PP      PP22593  11.124  11.483   4.893  0.1899  0.3649  0.3116
12490PP      PP22594  13.881  13.604  12.173 -0.3391 -0.2596  0.3799
12491PP      PP22595   2.280   1.838  10.277  0.1659  0.1822  0.1977
12492PP      PP22596   0.807   9.973   3.708  0.0892 -0.1835  0.3128
12493PP      PP22597   1.233   8.210   1.136 -0.2776 -0.0886 -0.1644
12494PP      PP22598   5.984   6.622   9.561  0.1637 -0.4286  0.0764
12495PP      PP22599   8.149  14.685  11.506  0.2711 -0.1891 -0.0370
12496PP      PP22600   4.986   7.344   2.188 -0.2391 -0.0224  0.0724
12497PP      PP22601   2.105  10.850   3.066 -0.0563  0.0384 -0.0648
12498PP      PP22602   7.389  14.017   3.008 -0.0486 -0.0168 -0.2081
12499PP      PP22603  11.947   4.064   2.146 -0.1335  0.4210 -0.2023
12500PP      PP22604   0.648   6.889   4.070  0.2244  0.2287 -0.0945
12501PP      PP22605  10.864  14.225  10.584  0.2735 -0.1672 -0.0657
12502PP      PP22606  14.493   6.583  11.121 -0.2259 -0.1324 -0.1944
12503PP      PP22607   6.525  14.749  13.260 -0.1340  0.0934 -0.3693
12504PP      PP22608  11.968  10.903   0.548  0.0081 -0.2100 -0.0441
12505PP      PP22609   2.931   8.850   1.573  0.0394 -0.3357  0.1044
12506PP      PP22610   5.652   8.920  12.062  0.3489 -0.3071  0.6386
12507PP      PP22611   3.965   3.948   1.330 -0.1671 -0.2252  0.0462
12508PP      PP22612  14.201   2.732   9.878  0.0746 -0.0164 -0.1809
12509PP      PP22613  15.478   3.846   1.206  0.2146 -0.0958  0.0787
12510PP      PP22614  15.091  11.949  12.798 -0.1989  0.4174 -0.2603
12511PP      PP22615   9.665  13.776   8.955 -0.0299  0.1240 -0.1543
12512PP      PP22616  13.897   2.468  11.471 -0.0708  0.0531 -0.1457
12513PP      PP22617   6.049   4.014   3.417 -0.0937 -0.3244 -0.2908
12514PP      PP22618  13.991   3.611  13.114 -0.3357 -0.3398  0.1178
12515PP      PP22619  15.593  12.809  13.389 -0.2604 -0.0210 -0.1351
12516PP      PP22620   1.377   2.080   1.689 -0.1384  0.1170  0.0722
12517PP      PP22621  13.660   9.441   3.378 -0.1211  0.1205  0.4377
12518PP      PP22622  12.796  11.155   4.601  0.2707 -0.0161  0.1417
12519PP      PP22623   9.261   2.912  12.383 -0.0941 -0.4990  0.0997
12520PP      PP22624  12.544   4.896  11.963 -0.1747  0.1850  0.0809
12521PP      PP22625  15.434   6.001   9.817  0.0161  0.0039 -0.3071
12522PP      PP22626   5.292  14.512  12.265  0.1119  0.0856 -0.1802
12523PP      PP22627  11.094   3.883  11.100 -0.1581 -0.2854 -0.1402
12524PP      PP22628   3.797  13.347   2.641 -0.2915 -0.0692  0.1625
12525PP      PP22629  12.595  12.345   1.248  0.1987 -0.0066 -0.0816
12526PP      PP22630  10.267  14.173   3.997 -0.0931 -0.0157  0.0579
12527PP      PP22631  11.015  10.541   4.700 -0.1271  0.0224 -0.0665
12528PP      PP22632  14.031   8.592  12.349 -0.0122  0.0985  0.1726
12529PP      PP22633  15.615   7.381   2.087 -0.0986 -0.0720 -0.2503
12530PP      PP22634   7.815   4.904   9.888  0.1430 -0.0059  0.2097
12531PP      PP22635   0.099   0.880  12.857  0.1835 -0.1180  0.0289
12532PP      PP22636   6.426   6.831   0.154  0.1683 -0.1758  0.0066
12533PP      PP22637   2.260  10.445  11.180  0.1696  0.0093 -0.0724
12534PP      PP22638   6.200  10.432   2.094  0.2764 -0.0935 -0.0192
12535PP      PP22639  15.525   2.085  10.981  0.0566  0.1214 -0.4327
12536PP      PP22640   7.626   4.942   4.062  0.1489  0.1283  0.1865
12537PP      PP22641  13.612  11.586  11.999  0.3566 -0.1470 -0.1497
12538PP      PP22642  11.299  13.649  13.447  0.0066  0.1355  0.1854
12539PP      PP22643   5.117   4.939  11.805 -0.1340  0.0289 -0.1762
12540PP      PP22644   1.979  14.208  12.966  0.1994  0.1705  0.2062
12541PP      PP22645   8.012  11.230  11.086 -0.2595 -0.3364  0.1033
12542PP      PP22646  13.522   8.177   2.501 -0.4585 -0.2427  0.1471
12543PP      PP22647  13.455  13.611  11.667  0.0841 -0.0198  0.0810
12544PP      PP22648  13.436  11.094  12.865  0.2472 -0.1571 -0.0895
12545PP      PP22649  14.782   2.346   3.821  0.2492  0.1460 -0.1883
12546PP      PP22650  15.171   8.178   4.850 -0.1427  0.1673  0.0876
12547PP      PP22651   1.034  12.289  11.898 -0.2573  0.0778 -0.1837
12548PP      PP22652  15.640   7.252   4.390  0.2265  0.0275  0.0226
12549PP      PP22653   5.929  15.338   9.568 -0.2553  0.1983  0.0603
12550PP      PP22654   8.956   5.166  12.775  0.0688 -0.3255 -0.1884
12551PP      PP22655  12.207   8.332  10.358  0.0674  0.1028  0.2493
12552PP      PP22656  10.868  14.650   1.615 -0.0964  0.0033 -0.0174
12553PP      PP22657   7.368   6.409   1.786 -0.2340  0.2201 -0.1746
12554PP      PP22658   7.719   0.789  12.280  0.2779 -0.2715  0.0997
12555PP      PP22659  13.596   6.270  13.291 -0.1883  0.0463  0.1077
12556PP      PP22660   1.304   6.997  10.020 -0.2185 -0.0309 -0.0108
12557PP      PP22661   0.514  15.047   0.140 -0.1369 -0.0912  0.0106
12558PP      PP22662  11.731  12.644   0.993  0.3339 -0.1351 -0.2150
12559PP      PP22663   9.258  11.568   3.209 -0.0169 -0.0031  0.2323
12560PP      PP22664   9.995   1.626   9.593 -0.0658  0.2324  0.3242
12561PP      PP22665  10.376   7.984   9.182  0.3383  0.1726 -0.0020
12562PP      PP22666  10.468   7.798  13.239  0.0033  0.2775  0.0895
12563PP      PP22667  14.280  14.728   3.132 -0.3660  0.0380 -0.1245
12564PP      PP22668   5.684   9.807   1.709  0.0565  0.1288 -0.0360
12565PP      PP22669   9.595  15.411  11.700 -0.2522  0.1052  0.0685
12566PP      PP22670   7.749  11.815  13.057 -0.0555 -0.0471 -0.1854
12567PP      PP22671  12.622  12.871   9.196 -0.1556 -0.0539 -0.2324
12568PP      PP22672   8.483   3.668   0.337 -0.2884 -0.4578 -0.3867
12569PP      PP22673   6.445   5.766   4.425 -0.2942 -0.0743 -0.0608
12570PP      PP22674  14.094   4.119   3.610 -0.0490 -0.1271  0.3158
12571PP      PP22675  10.004  13.825   2.351  0.3127 -0.4081 -0.1798
12572PP      PP22676   7.671   0.068   2.066 -0.3062 -0.0926  0.1197
12573PP      PP22677  13.400  11.578  10.636 -0.1193  0.1295 -0.0795
12574PP      PP22678   2.092   8.277   4.076  0.0423  0.2223 -0.3123
12575PP      PP22679   2.489   0.296   0.026 -0.1562  0.2644  0.0572
12576PP      PP22680  15.775   6.884  10.989  0.2303  0.0421  0.1904
12577PP      PP22681  14.177   4.215   2.694  0.2458  0.3188 -0.1770
12578PP      PP22682   2.753   5.640  11.714 -0.1939  0.2447  0.1712
12579PP      PP22683  12.823  10.339   9.293  0.0847 -0.1742 -0.0227
12580PP      PP22684   9.216   7.176   1.636 -0.0382  0.2265  0.2243
12581PP      PP22685   3.385   5.129   2.549 -0.1734 -0.0069  0.0673
12582PP      PP22686  15.226   4.042   3.954 -0.0631  0.0666 -0.0534
12583PP      PP22687   4.114   2.871   2.276 -0.0429  0.0857  0.2296
12584PP      PP22688   4.038  10.582   1.435 -0.1498  0.2743 -0.1605
12585PP      PP22689   5.001   9.439  10.003  0.1526 -0.1678 -0.1715
12586PP      PP22690   6.147   3.685  10.796 -0.0604 -0.2283  0.1344
12587PP      PP22691  15.675   4.566   1.779  0.0377  0.0551 -0.0482
12588PP      PP22692   9.754  11.635   0.528 -0.2063 -0.0463 -0.0771
12589PP      PP22693  13.880   2.038  12.757 -0.0328  0.0376  0.0564
12590PP      PP22694   1.122  10.782   1.161 -0.0838  0.1608  0.3563
12591PP      PP22695   7.021   8.209   1.226  0.2061 -0.0221 -0.0408
12592PP      PP22696  13.932  12.781  10.745 -0.1275  0.1009 -0.0046
12593PP      PP22697   8.542   2.489   3.689 -0.0031  0.1507  0.0741
12594PP      PP22698  14.454   8.799   0.463  0.2292  0.1743 -0.2032
12595PP      PP22699   9.168   9.683   1.422  0.2570 -0.1491 -0.1840
12596PP      PP22700  11.297   6.989   2.970 -0.1433 -0.3511 -0.2336
12597PP      PP22701  12.259  11.838  11.111 -0.0828  0.1426 -0.3539
12598PP      PP22702  10.441  15.019   9.148  0.1108  0.0929  0.0314
12599PP      PP22703  15.595  10.662   3.053 -0.3002 -0.0414  0.2609
12600PP      PP22704  14.455   5.510   2.298  0.0745  0.3153  0.1515
12601PP      PP22705  12.792  14.990   0.526  0.0003 -0.0719 -0.0573
12602PP      PP22706   7.607   3.541  13.495 -0.0903 -0.1214 -0.0359
12603PP      PP22707   2.406   5.808  13.140 -0.2340 -0.2250  0.0787
12604PP      PP22708   3.863  12.138   3.512  0.3094 -0.0826 -0.0226
12605PP      PP22709   1.072   6.297  11.354  0.1361  0.1235  0.0130
12606PP      PP22710  15.334   0.531  10.991  0.0315 -0.0331 -0.2215
12607PP      PP22711   5.791  14.083  10.553 -0.1206  0.1298  0.0674
12608PP      PP22712   1.291   1.200   9.439  0.2730  0.0775 -0.0819
12609PP      PP22713   7.779   7.471   1.993 -0.0851  0.0430  0.3650
12610PP      PP22714   2.533   9.655   4.042  0.0076 -0.0295 -0.3353
12611PP      PP22715   2.944   2.865  11.625 -0.1311  0.1414 -0.2380
12612PP      PP22716   9.719  15.242   1.572 -0.0614 -0.0127  0.0108
12613PP      PP22717  13.083   7.570   4.275  0.0089  0.0253 -0.1125
12614PP      PP22718   0.634   5.282   4.309 -0.3221 -0.0039  0.0798
12615PP      PP22719   9.575   5.486   2.450  0.2263  0.2453  0.1236
12616PP      PP22720  13.675   4.898   3.139 -0.2493 -0.2110  0.1704
12617PP      PP22721   4.337   0.358  11.584 -0.1175 -0.4957 -0.2247
12618PP      PP22722   0.535  13.158   0.985 -0.1625 -0.0240 -0.0225
12619PP      PP22723  11.797  14.042   2.042  0.1205 -0.0900 -0.1496
12620PP      PP22724   5.901   9.570  10.443  0.1479  0.0210 -0.1717
12621PP      PP22725   3.104   3.174  12.586 -0.3045 -0.3174  0.0098
12622PP      PP22726   1.071   0.613  12.788 -0.1595  0.0178 -0.0124
12623PP      PP22727   9.833  10.827  13.511  0.1066 -0.2564  0.2771
12624PP      PP22728  12.023   0.488  10.058 -0.1721  0.2126 -0.1150
12625PP      PP22729  14.505  12.547  13.138  0.1104  0.0839  0.1241
12626PP      PP22730   8.701  13.200   8.839  0.0661 -0.0748 -0.2097
12627PP      PP22731   4.972   3.239   0.339 -0.2667  0.1414  0.1813
12628PP      PP22732   3.823  10.770   3.393  0.1651  0.1692  0.1733
12629PP      PP22733   1.535   8.367   5.414 -0.1486  0.0069  0.0040
12630PP      PP22734   6.932   4.798   9.600  0.1075  0.1890 -0.0123
12631PP      PP22735   5.688   9.775   2.458 -0.0474  0.3069 -0.1173
12632PP      PP22736   9.015  12.883  11.252 -0.1538  0.4447  0.0032
12633PP      PP22737  14.618  13.089   9.570 -0.0758  0.1452  0.1078
12634PP      PP22738  13.739   8.434   2.052  0.3507 -0.0140 -0.1458
12635PP      PP22739  10.714   3.237   2.853 -0.0468 -0.2253 -0.0393
12636PP      PP22740   0.928   6.712   3.270  0.0440 -0.1283  0.1540
12637PP      PP22741  10.891  14.177   1.895  0.1745  0.0574  0.0870
12638PP      PP22742   9.904   1.030  11.060  0.1104 -0.2145  0.2712
12639PP      PP22743   6.868  11.081   9.794  0.1820  0.2145 -0.0804
12640PP      PP22744   3.205  10.666   5.107  0.5309  0.3862  0.0817
12641PP      PP22745   6.992   2.201   0.591  0.4266 -0.2595 -0.1882
12642PP      PP22746  15.667  12.669  12.572  0.1180 -0.0016 -0.3236
12643PP      PP22747  11.873   9.832  12.647 -0.0314 -0.0081 -0.0079
12644PP      PP22748   7.061   4.382   2.781  0.2263  0.2504  0.0478
12645PP      PP22749   5.973  12.553   0.461 -0.0289 -0.1590  0.0111
12646PP      PP22750   0.806  11.874   2.123  0.0537 -0.1321  0.0803
12647PP      PP22751   8.906  12.188   0.012 -0.0668  0.2792  0.1833
12648PP      PP22752   0.507   5.730   9.484  0.0016 -0.3181  0.2015
12649PP      PP22753  12.296   0.128  10.538  0.1233  0.2459  0.2193
12650PP      PP22754  13.229   1.455   1.437 -0.0397 -0.1336  0.2983
12651PP      PP22755   1.038   9.461  11.115 -0.4280 -0.1186 -0.0708
12652PP      PP22756  14.654   6.359   3.105  0.0619 -0.2630  0.0073
12653PP      PP22757  11.070   8.864  11.683 -0.2879  0.4697 -0.0757
12654PP      PP22758   2.016  11.143  13.216 -0.2260 -0.1484 -0.1652
12655PP      PP22759   1.951  13.095  11.587 -0.1456 -0.1450  0.5542
12656PP      PP22760   5.980  10.311   0.908  0.0207 -0.0666 -0.1269
12657PP      PP22761   4.918   0.461   9.755  0.0387 -0.1538  0.2795
12658PP      PP22762  11.656  12.691   2.351 -0.1544 -0.2473 -0.1073
12659PP      PP22763   8.657   9.143  11.192  0.1253  0.0087  0.2256
12660PP      PP22764   9.254  12.484   0.603 -0.4628  0.4851 -0.0634
12661PP      PP22765  15.016   2.972  12.340  0.3019 -0.2997  0.0390
12662PP      PP22766   1.625   1.795   1.137  0.3464  0.0891 -0.0474
12663PP      PP22767  11.510  10.528  12.360  0.0767  0.1374  0.0778
12664PP      PP22768   2.573  10.595   1.245  0.0886  0.0329  0.1681
12665PP      PP22769   0.961   4.550   3.087  0.1008  0.0640 -0.0523
12666PP      PP22770   3.137   6.952   5.226  0.1149  0.0770 -0.3115
12667PP      PP22771  11.509   3.131  12.868  0.2083  0.0968 -0.1281
12668PP      PP22772   2.695   5.982  12.568  0.1559  0.1042 -0.2974
12669PP      PP22773  15.230  13.273   3.063 -0.1257 -0.3454 -0.0178
12670PP      PP22774   2.604   8.439   5.392  0.1675  0.1609  0.0744
12671PP      PP22775  12.840  10.704  10.496 -0.1286  0.3149  0.2662
12672PP      PP22776  10.199   4.261   8.792  0.2581  0.1512  0.0713
12673PP      PP22777  15.089   3.933  13.087 -0.1822 -0.0319  0.0720
12674PP      PP22778  13.185   0.026   2.933  0.0765  0.0992 -0.2386
12675PP      PP22779   7.320   6.976  13.466 -0.1945  0.1436 -0.1732
12676PP      PP22780   3.187  12.776   1.086  0.0824  0.0883  0.1108
12677PP      PP22781   3.692   1.173   2.572  0.2534  0.1445 -0.2414
12678PP      PP22782   6.685   3.410   1.162  0.0435  0.3845  0.1178
12679PP      PP22783   6.467  15.685   2.017  0.0575 -0.2510 -0.2957
12680PP      PP22784   5.017   3.312   2.869 -0.3292 -0.0122 -0.1357
12681PP      PP22785   3.043   0.612   8.490  0.0484 -0.3912  0.0905
12682PP      PP22786   5.041   5.583  13.148 -0.2196  0.1934 -0.1425
12683PP      PP22787  12.862   9.979  12.875  0.0296  0.3086 -0.0604
12684PP      PP22788  14.718   0.910   0.183 -0.2046  0.2410  0.0669
12685PP      PP22789   2.882   9.188  10.573 -0.0715 -0.1132  0.0128
12686PP      PP22790   1.807  13.505   4.628 -0.2752 -0.0428  0.2816
12687PP      PP22791  14.671   2.137  10.996 -0.2039  0.2327 -0.0722
12688PP      PP22792   1.268  11.517   0.763 -0.1628  0.1471 -0.1431
12689PP      PP22793  14.585  12.037   2.428 -0.1939  0.1832 -0.2577
12690PP      PP22794   2.418  15.064   2.694 -0.3411 -0.3741  0.3822
12691PP      PP22795  15.062   1.595   2.930  0.1351  0.0470  0.0932
12692PP      PP22796  11.571   1.782  10.966 -0.3208 -0.1425  0.0556
12693PP      PP22797  10.298   9.942   2.369  0.1205 -0.0930 -0.0309
12694PP      PP22798  12.457   7.074  13.324 -0.0113 -0.0566  0.3103
12695PP      PP22799   1.342   8.545  10.427  0.0437  0.0174  0.0454
12696PP      PP22800  10.345  13.798  10.932  0.0948 -0.0865 -0.1439
12697PP      PP22801  15.439   9.537  11.997  0.0762 -0.2227  0.1249
12698PP      PP22802  10.720  12.821   1.651 -0.0143 -0.1763 -0.1520
12699PP      PP22803   4.225  15.057  12.547 -0.0002 -0.0214 -0.2909
12700PP      PP22804   6.328   2.498   3.038  0.1983 -0.2122  0.1204
12701PP      PP22805  12.758   1.371   1.483  0.0081  0.2398 -0.2649
12702PP      PP22806   6.100   6.785  11.417 -0.0060 -0.0272  0.2502
12703PP      PP22807  12.701   4.506  10.996  0.1160 -0.2163  0.0892
12704PP      PP22808  12.404  12.135  11.451  0.0710  0.0454 -0.0425
12705PP      PP22809  13.000   6.907  10.109  0.0756  0.1105 -0.0274
12706PP      PP22810  15.680   5.085   1.821  0.0388  0.0494 -0.1851
12707PP      PP22811  11.163   8.611   2.472  0.1440  0.1424  0.0027
12708PP      PP22812  13.654   1.898  11.794  0.1954 -0.0225 -0.1816
12709PP      PP22813   9.830   5.382  11.777  0.1976  0.1338  0.1178
12710PP      PP22814  14.435  12.708  10.908  0.0831 -0.3762 -0.0173
12711PP      PP22815  11.527  11.581  12.705 -0.4032  0.1539 -0.0753
12712PP      PP22816   6.342   2.519   1.354 -0.1220  0.0219  0.0249
12713PP      PP22817  12.004   3.464   3.006 -0.2793  0.3747 -0.1647
12714PP      PP22818  14.370  15.599  10.231 -0.2323  0.0533 -0.1268
12715PP      PP22819   2.863  10.397   3.612  0.1940 -0.2273 -0.0008
12716PP      PP22820   9.219   0.882  13.373 -0.1399  0.0932  0.1805
12717PP      PP22821  14.448  12.168  11.767  0.1506 -0.0953 -0.0164
12718PP      PP22822  14.821  10.689  10.733 -0.0571 -0.2646  0.0627
12719PP      PP22823  11.695  13.778   9.666  0.1036  0.2114 -0.1775
12720PP      PP22824   2.230   1.966   1.084  0.2203  0.0002 -0.0208
12721PP      PP22825   8.523   6.465   1.323 -0.2100  0.1089 -0.1289
12722PP      PP22826  12.905  12.803   1.435  0.0757  0.0113  0.1204
12723PP      PP22827  13.787   5.885  11.948 -0.2259 -0.0393  0.0292
12724PP      PP22828   4.009  11.198   4.390  0.2356  0.1292  0.0741
12725PP      PP22829   5.386   7.774   9.032  0.3025  0.0654 -0.0323
12726PP      PP22830   1.520   1.128   4.249  0.2212  0.2517 -0.1043
12727PP      PP22831   3.039   1.159  10.354  0.1352 -0.1457 -0.2609
12728PP      PP22832  13.668  10.425   0.039  0.1507 -0.0779  0.3451
12729PP      PP22833  11.831   7.160   0.426 -0.1468  0.0820 -0.3657
12730PP      PP22834  12.821  11.408   4.108 -0.2874 -0.1416 -0.0757
12731PP      PP22835   8.331   1.852  10.977 -0.0796  0.0425 -0.1306
12732PP      PP22836  14.578   8.794   3.770 -0.2209 -0.1169  0.1271
12733PP      PP22837   2.798  14.756  13.017 -0.2476 -0.1968  0.0909
12734PP      PP22838   5.481  14.893   9.147 -0.0968 -0.1811 -0.0736
12735PP      PP22839   2.336  15.511   2.757  0.1720  0.2285 -0.1143
12736PP      PP22840   5.288   4.408   4.204 -0.1232  0.0339  0.1963
12737PP      PP22841   8.625   0.333   1.368  0.1245  0.1289 -0.0766
12738PP      PP22842   8.988   5.484   1.330 -0.1257  0.1343 -0.0809
12739PP      PP22843   5.617   0.385  10.955 -0.2099 -0.0167 -0.4427
12740PP      PP22844   2.221  10.375  12.104  0.1078  0.3743  0.1096
12741PP      PP22845  12.287  14.054  10.421 -0.0014  0.1875  0.1549
12742PP      PP22846  10.661   3.399  13.119  0.0073 -0.0674 -0.0198
12743PP      PP22847  12.764   5.067  13.169 -0.0355  0.0951 -0.1163
12744PP      PP22848  12.881   1.308  12.254  0.2293  0.3591 -0.0015
12745PP      PP22849   0.416  15.509  12.022 -0.0034 -0.0685  0.0124
12746PP      PP22850  11.345  13.769   2.816  0.2736  0.3950  0.0363
12747PP      PP22851  13.619   7.403   2.783 -0.2999  0.0406 -0.1176
12748PP      PP22852   6.676   1.705   0.024 -0.0303 -0.0657  0.2147
12749PP      PP22853   0.045   5.803   0.718  0.3422 -0.3131  0.0308
12750PP      PP22854   9.085   8.300   3.819 -0.2416 -0.0879  0.2417
12751PP      PP22855   3.135   3.692   1.212 -0.1776 -0.1428  0.0982
12752PP      PP22856   0.727   3.605   0.378 -0.0622  0.1977  0.0509
12753PP      PP22857   4.834  10.823   4.737 -0.0368 -0.0567  0.1882
12754PP      PP22858   9.717  14.204   0.194  0.0533  0.1726  0.3722
12755PP      PP22859  14.393   2.551   1.445  0.3892  0.0361  0.4012
12756PP      PP22860   1.147  11.090  12.833  0.0126  0.2653  0.3085
12757PP      PP22861  11.431   3.132   1.696 -0.0334 -0.2017  0.0172
12758PP      PP22862   0.668   5.566   1.750 -0.0252 -0.1349 -0.0594
12759PP      PP22863   9.793  14.450   3.051  0.2008  0.1168  0.1496
12760PP      PP22864   0.118   5.422  10.180 -0.1526 -0.3236  0.0226
12761PP      PP22865   3.315  13.524  10.980  0.0643  0.0947 -0.2677
12762PP      PP22866   4.058   5.165  10.074 -0.1039 -0.2229 -0.0185
12763PP      PP22867   7.293   1.132  11.449  0.2806 -0.0635  0.1749
12764PP      PP22868   7.792  14.971   0.438  0.0744  0.0436  0.6418
12765PP      PP22869   2.259   6.184  10.434  0.0250 -0.3664  0.0023
12766PP      PP22870  12.568   4.569  10.177 -0.1359 -0.1379  0.1003
12767PP      PP22871  12.481   2.598   3.563  0.2594 -0.3611  0.0813
12768PP      PP22872   4.476  15.088   9.442  0.0531  0.0423 -0.1897
12769PP      PP22873   0.238   6.469   5.253 -0.2909 -0.2609 -0.0550
12770PP      PP22874  10.044  10.605   0.628 -0.0207 -0.0352 -0.0539
12771PP      PP22875   2.525   9.708  10.761 -0.1052  0.0950  0.0741
12772PP      PP22876   8.347  10.167   0.709 -0.0618 -0.3180 -0.2446
12773PP      PP22877   4.737  13.767   1.898 -0.0201 -0.0102  0.1444
12774PP      PP22878   3.492   3.879   9.943  0.0534  0.2881  0.1465
12775PP      PP22879   6.119  11.047  12.794 -0.3252  0.1773  0.0040
12776PP      PP22880   4.811  10.950   9.928  0.0270 -0.1572  0.1727
12777PP      PP22881   2.119   7.661   1.573 -0.1692  0.1806 -0.2205
12778PP      PP22882  15.521  15.651   1.122  0.0407 -0.3023  0.2308
12779PP      PP22883   3.017  12.682  11.045  0.2144  0.4503 -0.2547
12780PP      PP22884   8.090   1.773  10.511 -0.1923  0.0236  0.0155
12781PP      PP22885  12.434   1.475   3.481  0.1200 -0.0130 -0.0103
12782PP      PP22886   7.312   1.515  11.055  0.1897 -0.0496  0.1677
12783PP      PP22887  10.168  12.192   1.755 -0.4533 -0.2851  0.3223
12784PP      PP22888   6.072   4.708   4.199  0.2449  0.0901  0.3039
12785PP      PP22889  14.246  13.942  12.373  0.2005  0.1020 -0.0486
12786PP      PP22890   5.273  11.931  10.241  0.1985 -0.0638 -0.1761
12787PP      PP22891   0.114   5.575  12.504 -0.2023  0.0369 -0.1402
12788PP      PP22892  14.348   4.478  10.212 -0.0658  0.2236  0.4160
12789PP      PP22893   2.285   8.075  12.475 -0.0784  0.0193  0.0136
12790PP      PP22894   4.679   2.044   9.610 -0.1379  0.0279  0.0597
12791PP      PP22895   0.540   6.761   0.638  0.1337  0.0228  0.0507
12792PP      PP22896  15.143   0.464   3.731 -0.4803  0.0510 -0.3662
12793PP      PP22897   4.182   4.416   9.524  0.0693 -0.3128 -0.0353
12794PP      PP22898   4.965  15.215   8.149 -0.0065  0.1819  0.1020
12795PP      PP22899   9.972   4.595   3.452 -0.1692  0.2618 -0.2632
12796PP      PP22900  15.794  11.820   5.181  0.0589  0.0223 -0.1273
12797PP      PP22901   3.124   6.556   5.625 -0.1343 -0.0221 -0.2179
12798PP      PP22902   7.269  11.837   1.823  0.1227 -0.4666 -0.1223
12799PP      PP22903   3.265  12.565   2.862 -0.0797  0.0582  0.1014
12800PP      PP22904  10.450  13.379   3.174  0.1171  0.2201  0.0843
12801PP      PP22905   5.429   9.931   0.306  0.3106 -0.2809  0.0178
12802PP      PP22906   9.556   7.904  12.170 -0.0475 -0.2287 -0.2427
12803PP      PP22907   1.288  12.132   3.636  0.3314 -0.0551  0.0701
12804PP      PP22908  14.268   2.727   1.882 -0.0192 -0.0376 -0.0632
12805PP      PP22909  14.837  14.628   3.864  0.1941 -0.1521 -0.2734
12806PP      PP22910  12.444   8.631  13.407  0.2090  0.0222 -0.1288
12807PP      PP22911   3.563  11.087   4.977  0.1328  0.2236 -0.2721
12808PP      PP22912   2.223  14.606   1.718 -0.1989  0.3039 -0.0036
12809PP      PP22913  10.881   2.182   4.306  0.0349  0.2021 -0.0243
12810PP      PP22914   2.027   9.381   3.816 -0.0330 -0.3831 -0.1457
12811PP      PP22915  12.570  11.349  12.707 -0.2356 -0.3398  0.4523
12812PP      PP22916  14.580   1.162   0.677  0.0143  0.0702  0.0593
12813PP      PP22917  11.493   4.827   3.141  0.0993 -0.0414  0.2163
12814PP      PP22918  10.164  12.059  10.932 -0.3987  0.1459 -0.2164
12815PP      PP22919   9.243   5.825   9.331 -0.2603 -0.4356  0.0982
12816PP      PP22920   7.553   3.643   2.704 -0.2181  0.1590  0.0055
12817PP      PP22921   1.934   5.048   0.733 -0.1477 -0.0209  0.1271
12818PP      PP22922   0.350  11.465  13.114 -0.6755 -0.0236 -0.1776
12819PP      PP22923   3.984  14.101  11.279 -0.1917 -0.1657 -0.2301
12820PP      PP22924   8.054   5.240  10.159  0.1692 -0.1265 -0.0555
12821PP      PP22925   5.619   0.681  12.648  0.1289  0.2091  0.0915
12822PP      PP22926   8.143   4.774  11.790 -0.0830  0.1951  0.0536
12823PP      PP22927   6.858   5.572   2.111 -0.0391 -0.1073 -0.0889
12824PP      PP22928   7.793  13.769   3.091 -0.2120  0.2202 -0.2986
12825PP      PP22929  11.226  12.319   0.903 -0.2534 -0.2196 -0.4185
12826PP      PP22930   7.232  11.240  10.851  0.0425 -0.1148  0.3591
12827PP      PP22931   9.014  15.336  12.270 -0.1256  0.1314 -0.0073
12828PP      PP22932   6.830   8.087  10.499  0.0513  0.1633 -0.0925
12829PP      PP22933   0.786   4.223   2.049  0.1432 -0.2080 -0.0811
12830PP      PP22934   6.463   3.791   9.139 -0.1805 -0.0275  0.2367
12831PP      PP22935   4.623   6.947   1.558  0.0389  0.2080  0.1069
12832PP      PP22936   5.993  10.996   4.532 -0.0228  0.0349 -0.1775
12833PP      PP22937   4.784  13.989  13.484 -0.1241  0.0347  0.0100
12834PP      PP22938  14.754   6.106   3.513  0.0430  0.3921  0.0570
12835PP      PP22939  10.557   6.621  10.346  0.0761  0.1326  0.2274
12836PP      PP22940  11.374   7.524  10.107  0.0040 -0.1156  0.0848
12837PP      PP22941  13.192  13.790  10.695  0.2103  0.3152  0.2258
12838PP      PP22942  12.433   8.820   1.839 -0.0325 -0.3075 -0.2045
12839PP      PP22943   8.996   6.053  11.577 -0.1463 -0.2208 -0.1327
12840PP      PP22944   9.171   6.997  11.678  0.0497 -0.0173  0.2382
12841PP      PP22945   6.042   7.551  11.027  0.1073 -0.0097  0.4496
12842PP      PP22946   3.700   3.456  12.703 -0.0859 -0.1131 -0.0923
12843PP      PP22947   0.333  13.567  12.575  0.1806 -0.1555 -0.0610
12844PP      PP22948   2.639  11.565  12.948 -0.0598  0.0519  0.1510
12845PP      PP22949   5.623   6.671  11.516 -0.2125 -0.1334 -0.0985
12846PP      PP22950   3.685   3.737   8.933 -0.1888  0.0949  0.0312
12847PP      PP22951   4.807  11.266   0.693  0.3917  0.2044 -0.1203
12848PP      PP22952   1.447  13.940  10.908 -0.0575 -0.1166 -0.1873
12849PP      PP22953   4.880  12.769   3.115  0.0875  0.2982 -0.1583
12850PP      PP22954  15.714  12.367   1.279 -0.1621  0.2112 -0.1044
12851PP      PP22955   6.090  10.846   3.164  0.0351  0.0559 -0.1841
12852PP      PP22956   4.264   8.666   1.472 -0.3281 -0.0512 -0.0309
12853PP      PP22957  12.918   1.411  11.213 -0.0156  0.2861 -0.2182
12854PP      PP22958   7.591  13.202   1.697 -0.2152  0.1259  0.3273
12855PP      PP22959  13.858   6.181  10.683 -0.0142 -0.0557  0.0554
12856PP      PP22960  14.768  12.327  13.517 -0.1297 -0.0326  0.2879
12857PP      PP22961  14.809  11.246  10.916  0.1281  0.0545 -0.0545
12858PP      PP22962   6.894   3.797  12.789 -0.0465 -0.1777  0.0654
12859PP      PP22963  14.138   1.271   9.624  0.0612  0.2812  0.0525
12860PP      PP22964  15.421   2.932   2.280  0.0460  0.1808 -0.1818
12861PP      PP22965   9.403   3.739   2.905 -0.1863 -0.1462 -0.3622
12862PP      PP22966  12.956   1.169   9.841  0.0208 -0.3464  0.1657
12863PP      PP22967   8.292   4.141   1.511  0.0168 -0.2268 -0.1366
12864PP      PP22968  11.171   2.610   8.769 -0.1439 -0.1267 -0.1375
12865PP      PP22969   0.250  12.789  11.684 -0.2880  0.0714 -0.1654
12866PP      PP22970   6.360   5.575  12.579 -0.1014  0.0688 -0.0151
12867PP      PP22971   6.961  11.543  12.835  0.0735 -0.1543 -0.4099
12868PP      PP22972   3.022   1.757   0.915  0.1513  0.0224  0.0505
12869PP      PP22973   3.755   5.344  13.229  0.0744  0.0086 -0.2162
12870PP      PP22974   1.411   2.891  11.841  0.0926 -0.2182 -0.0088
12871PP      PP22975   1.880   2.716   9.504 -0.2545 -0.0988  0.0156
12872PP      PP22976   6.407  13.051   1.665 -0.1360  0.2893 -0.2194
12873PP      PP22977   1.047   9.363   0.592 -0.1627  0.3448 -0.2565
12874PP      PP22978   6.302   1.468   1.985  0.1693  0.1920 -0.0502
12875PP      PP22979   7.847  13.452  11.841  0.1109 -0.0763 -0.0104
12876PP      PP22980  12.569   4.250  10.589  0.0556  0.1598  0.2711
12877PP      PP22981  11.061  15.492   3.526  0.1407 -0.3025  0.1495
12878PP      PP22982   2.479   9.822  11.241  0.1826  0.2099  0.1575
12879PP      PP22983   3.021   4.781  12.868  0.1415 -0.2563 -0.3831
12880PP      PP22984  11.640   9.200   1.493 -0.1784  0.1062  0.2315
12881PP      PP22985   5.240  14.440   0.602 -0.2873 -0.2071  0.2281
12882PP      PP22986   5.087  14.886  11.491 -0.0720 -0.0664 -0.3499
12883PP      PP22987  10.767   8.935  11.275  0.2383 -0.0165 -0.3264
12884PP      PP22988   1.579  10.644   4.804  0.1093  0.1037  0.2438
12885PP      PP22989  15.122   6.171  10.601  0.0655 -0.3671 -0.1805
12886PP      PP22990  15.706  12.073  12.110 -0.2648 -0.0629 -0.1237
12887PP      PP22991  13.349   0.467   3.947 -0.1775  0.4849  0.1993
12888PP      PP22992  14.065   8.825   3.595 -0.0356  0.5346 -0.3511
12889PP      PP22993   7.231  15.361  10.256 -0.1311 -0.1034 -0.2193
12890PP      PP22994  10.179   0.410   0.900 -0.1102  0.0021 -0.0656
12891PP      PP22995  15.003   0.370  10.177  0.0901  0.1112  0.1288
12892PP      PP22996  13.175  10.059   9.580  0.1379  0.2272  0.0385
12893PP      PP22997  12.567   7.436   4.454 -0.1287 -0.0373 -0.1374
12894PP      PP22998   8.319   9.635  10.595 -0.3478  0.1638  0.2031
12895PP      PP22999  13.642  11.155   0.581 -0.2347 -0.2267  0.1444
12896PP      PP23000   7.069   8.644  12.024 -0.2042 -0.2483 -0.0678
12897PP      PP23001   2.515  14.422   3.104  0.0391 -0.2355  0.0593
12898PP      PP23002  13.104   0.886   9.092  0.0581  0.0138  0.2123
12899PP      PP23003   5.318   6.111   4.450 -0.1541 -0.0624 -0.0561
12900PP      PP23004  11.078   8.375  10.689  0.0721 -0.3351  0.2334
12901PP      PP23005   3.768   9.252   2.977  0.4960  0.1055  0.0773
12902PP      PP23006  15.453   8.171   1.070  0.0199  0.1253  0.2308
12903PP      PP23007  14.617  12.530   2.186 -0.2355 -0.1044  0.0525
12904PP      PP23008   7.802  15.424   2.347 -0.2672  0.4144  0.2782
12905PP      PP23009   8.794   0.512   2.965 -0.1939  0.0399 -0.0170
12906PP      PP23010   4.280   0.659   8.351  0.0002  0.0271  0.1150
12907PP      PP23011   4.480   9.478   0.925 -0.1296  0.0222 -0.0551
12908PP      PP23012   3.183   4.330  10.848 -0.2603  0.1066  0.1803
12909PP      PP23013  12.768  13.871  12.794 -0.0124 -0.2398 -0.0843
12910PP      PP23014   9.703   2.494   2.261 -0.0776  0.0889 -0.1251
12911PP      PP23015   0.219   0.091   2.417  0.1844  0.0093  0.2426
12912PP      PP23016   3.257   1.398  11.676  0.3029  0.2174  0.0309
12913PP      PP23017  15.055  12.034  10.938  0.0889 -0.0619  0.2167
12914PP      PP23018   1.498   6.684   2.941 -0.1939  0.0167 -0.0270
12915PP      PP23019   0.113   0.816  10.516 -0.0094  0.1584 -0.1210
12916PP      PP23020   0.329  13.688   1.132  0.2937 -0.1726  0.3265
12917PP      PP23021  10.502  10.811   3.918 -0.0241 -0.0063  0.1073
12918PP      PP23022   2.194  13.507   1.474 -0.1753 -0.0999 -0.0525
12919PP      PP23023  13.234   0.602   2.947 -0.0084  0.0823  0.0069
12920PP      PP23024  15.556  13.936   1.287  0.0096  0.1503  0.2160
12921PP      PP23025  10.454   2.783   1.439 -0.3749 -0.0270  0.2015
12922PP      PP23026   1.983   0.241   1.466  0.0219 -0.4402  0.0578
12923PP      PP23027  11.364   7.385   3.711 -0.3040 -0.0156 -0.2100
12924PP      PP23028   5.498   2.855   1.003  0.1613  0.0980  0.3117
12925PP      PP23029   5.809  12.887  10.979  0.0971  0.3017  0.0099
12926PP      PP23030  12.774   3.489   9.427  0.0607 -0.2363  0.2278
12927PP      PP23031  10.668  15.377   2.717  0.3366 -0.0419  0.0869
12928PP      PP23032   6.465   5.572   9.022  0.2581 -0.1182 -0.3254
12929PP      PP23033   5.532   8.767   2.284 -0.0417  0.0281 -0.1116
12930PP      PP23034  12.174  11.110  10.330 -0.1052 -0.1154  0.3371
12931PP      PP23035  14.334  14.950   1.504  0.1756 -0.1168  0.0927
12932PP      PP23036   9.932  15.762   9.970  0.0637  0.1513  0.2686
12933PP      PP23037   1.731   2.192   8.577  0.0217 -0.1678  0.1184
12934PP      PP23038   9.383  10.667  13.254 -0.3841 -0.2895  0.0633
12935PP      PP23039   4.207   2.961  12.776  0.0067  0.1740  0.1202
12936PP      PP23040   4.869   9.757  10.640 -0.0056 -0.0100 -0.1452
12937PP      PP23041   2.334   5.864  10.820 -0.0253  0.1584 -0.0156
12938PP      PP23042   0.996   1.830   0.455  0.0458  0.1004  0.1915
12939PP      PP23043   6.400   5.748  11.591  0.0152  0.1741 -0.0367
12940PP      PP23044   5.107   4.503   2.188 -0.3104  0.2121 -0.1812
12941PP      PP23045  15.436   7.068   2.472 -0.0869  0.0251 -0.3149
12942PP      PP23046  11.496  12.099   9.857 -0.2013 -0.0204  0.1672
12943PP      PP23047   0.940   7.004   1.923  0.1005 -0.1314  0.1143
12944PP      PP23048  10.618   7.516  10.689  0.0722 -0.0303  0.0460
12945PP      PP23049   0.189   5.637   4.185  0.4700 -0.0032 -0.0611
12946PP      PP23050   0.721   8.123  10.498 -0.1707  0.0117 -0.1395
12947PP      PP23051   9.540   4.469   9.457 -0.2370 -0.2303  0.1136
12948PP      PP23052   0.547  11.359   3.862  0.2338  0.1437 -0.3548
12949PP      PP23053   8.432   1.885  10.172 -0.1181 -0.1205 -0.0830
12950PP      PP23054  13.366  12.882   2.791  0.4035 -0.1711  0.0146
12951PP      PP23055  12.997   0.740   4.250 -0.1991 -0.1246  0.1415
12952PP      PP23056   7.348   5.241   8.149 -0.0066  0.0237 -0.1718
12953PP      PP23057   2.617  13.845   9.262 -0.0573  0.0865 -0.0923
12954PP      PP23058   5.304  10.829   1.258 -0.1451  0.0815  0.2138
12955PP      PP23059  12.079  15.456  11.653 -0.0227  0.1003 -0.0619
12956PP      PP23060   8.725   9.953  10.010  0.2698 -0.0760 -0.1734
12957PP      PP23061   0.258   7.011   0.052 -0.3233 -0.1779 -0.2913
12958PP      PP23062   3.316   5.870   0.170 -0.1670  0.2615 -0.2296
12959PP      PP23063  13.643   3.396   1.979 -0.0018 -0.0257  0.2594
12960PP      PP23064   7.150   6.119   4.533 -0.0660 -0.1551 -0.4593
12961PP      PP23065   3.131   7.957   2.003 -0.0766  0.1856 -0.1635
12962PP      PP23066   2.310   1.086  12.155  0.0788  0.2061 -0.1076
12963PP      PP23067   9.509   3.429  10.854 -0.1429 -0.0145  0.0906
12964PP      PP23068   2.890   8.687  11.119 -0.0757 -0.1263  0.0288
12965PP      PP23069   6.427  13.324   2.096  0.2421 -0.2482  0.0107
12966PP      PP23070   4.371  14.939   1.736 -0.0766  0.0220 -0.0797
12967PP      PP23071  11.666   3.396   9.283 -0.1696  0.2376  0.1487
12968PP      PP23072   0.063   0.323  10.286  0.0390  0.0432 -0.1064
12969PP      PP23073   6.080  12.073   9.055  0.2195  0.1167  0.1676
12970PP      PP23074   5.661   9.660  13.040 -0.0993  0.1243 -0.1403
12971PP      PP23075   1.111  15.220   9.159 -0.4327 -0.0900 -0.1942
12972PP      PP23076  15.563   5.968  10.415 -0.2391  0.3711  0.1948
12973PP      PP23077   9.783   5.186   3.942 -0.0621  0.0242  0.2143
12974PP      PP23078   1.564   6.944   5.409  0.1973  0.1091 -0.3223
12975PP      PP23079  10.781   7.820   9.509  0.2218  0.1578  0.0740
12976PP      PP23080  15.228  10.519  11.537 -0.0059  0.0867 -0.0059
12977PP      PP23081   5.359  11.498   9.982  0.3048 -0.0363  0.2611
12978PP      PP23082   3.438   8.496   4.778 -0.1811 -0.1937  0.3108
12979PP      PP23083   2.613   5.696   9.840  0.0421  0.4020  0.0605
12980PP      PP23084   5.051   9.949   2.668 -0.0947 -0.0664  0.0009
12981PP      PP23085   6.123  14.405   1.724 -0.4437 -0.0169  0.0318
12982PP      PP23086  15.796   8.833   5.218  0.1109 -0.0973  0.0957
12983PP      PP23087  13.539  13.954  12.213 -0.1083 -0.0314  0.1008
12984PP      PP23088  12.654   5.538   4.495 -0.1334 -0.0890  0.1988
12985PP      PP23089   7.743   9.880  11.280 -0.0387 -0.3307 -0.1329
12986PP      PP23090  11.135   0.837   2.389 -0.0287 -0.2525  0.1759
12987PP      PP23091  11.303   7.523  13.317  0.1208 -0.0608  0.2285
12988PP      PP23092  10.385  12.592   2.034  0.1842 -0.1179  0.2151
12989PP      PP23093   7.906   8.111   9.042  0.1232  0.3005 -0.0374
12990PP      PP23094   8.736  10.763   9.651  0.0809 -0.0395 -0.0075
12991PP      PP23095  12.608  13.799   9.446  0.3654  0.1114  0.0467
12992PP      PP23096   5.383   5.223  10.818  0.1825 -0.0419 -0.2654
12993PP      PP23097   9.177   9.264  12.305  0.2232 -0.1353 -0.0863
12994PP      PP23098  15.700   0.200   3.346 -0.1197 -0.3134  0.0699
12995PP      PP23099   1.599   1.278   3.787 -0.1273 -0.0486 -0.3310
12996PP      PP23100   5.561   8.134   1.197  0.2087  0.3990 -0.0911
12997PP      PP23101   8.964   5.855  13.345  0.0801  0.2960  0.0643
12998PP      PP23102  15.296   4.611   4.372 -0.1319 -0.2391  0.1664
12999PP      PP23103   1.366   7.415   3.658 -0.0838  0.1000 -0.1622
13000PP      PP23104  12.896  10.402  11.314  0.0911  0.0331 -0.3109
13001PP      PP23105   2.671   3.073   2.398 -0.0243  0.1129  0.2730
13002PP      PP23106   9.582   6.684  11.518  0.0754  0.2517 -0.4758
13003PP      PP23107  15.143   5.104   4.256 -0.0713  0.1080  0.1246
13004PP      PP23108  10.396  11.960   3.885  0.1216 -0.0282  0.0990
13005PP      PP23109   1.889   6.460  10.504  0.5358 -0.1996 -0.1068
13006PP      PP23110  15.052  11.718   3.020  0.1235 -0.2437 -0.1089
13007PP      PP23111   1.902  12.720  13.187 -0.1076  0.2652 -0.0098
13008PP      PP23112  15.121   4.187   4.497  0.3509  0.2365  0.1771
13009PP      PP23113   0.396  11.501   2.587  0.0516  0.0239 -0.1092
13010PP      PP23114  13.609  12.940   3.768 -0.1906 -0.2510  0.1919
13011PP      PP23115   0.036   9.088   2.246 -0.2495 -0.0935 -0.0680
13012PP      PP23116   2.470   6.947   5.219  0.0785 -0.2344 -0.1550
13013PP      PP23117   4.224   1.826  10.739  0.2656 -0.1594 -0.3310
13014PP      PP23118   8.102   1.506   2.182 -0.3708  0.1610  0.0790
13015PP      PP23119   1.687   3.602   9.131  0.3751 -0.2155 -0.3541
13016PP      PP23120   8.040  11.514   0.420 -0.0828 -0.2293 -0.0739
13017PP      PP23121   1.609   9.581  12.891 -0.3053 -0.1631  0.0836
13018PP      PP23122   0.865  15.408  11.861  0.0856  0.1152  0.1468
13019PP      PP23123   4.252   5.774   3.442  0.0721  0.3738  0.1289
13020PP      PP23124  13.692   7.922   3.409 -0.3306  0.1323 -0.1366
13021PP      PP23125   1.372  12.913   2.128 -0.0226 -0.3013 -0.1226
13022PP      PP23126  11.173  15.259   1.563 -0.2406  0.0713  0.3625
13023PP      PP23127   7.145  11.759   3.308 -0.0205 -0.1895  0.2000
13024PP      PP23128   1.357  10.883   0.639 -0.0896 -0.2044  0.2423
13025PP      PP23129  14.711  15.490   0.833  0.1183 -0.0615 -0.3741
13026PP      PP23130   1.482   3.034   0.272 -0.2618  0.1231  0.0999
13027PP      PP23131   3.889  12.480   9.937 -0.0159  0.0175 -0.0342
13028PP      PP23132   4.575   8.391   2.477  0.0106  0.0071  0.2887
13029PP      PP23133   5.954  12.748  10.180  0.1129 -0.0035 -0.2904
13030PP      PP23134  14.816   7.742   2.239 -0.2360  0.0430  0.1450
13031PP      PP23135   8.152   1.662   2.973 -0.2488 -0.0347  0.1170
13032PP      PP23136   4.367  11.848  10.107 -0.1091  0.2648  0.3451
13033PP      PP23137  14.731   1.177   2.950  0.1824  0.1823  0.1672
13034PP      PP23138   2.847   0.651  13.288  0.0676  0.1700  0.0327
13035PP      PP23139  13.559  10.569   0.556 -0.2444 -0.3689  0.0931
13036PP      PP23140   4.464   7.658  12.673  0.2184 -0.0318  0.0738
13037PP      PP23141   6.909   1.336   1.697  0.0847  0.2001 -0.1118
13038PP      PP23142  14.038   0.753  11.668  0.0273  0.0888  0.0004
13039PP      PP23143  14.079  13.625   9.154  0.1236  0.0467  0.0216
13040PP      PP23144   6.502   9.944  12.938  0.2711 -0.1437  0.0444
13041PP      PP23145   8.715   3.574   1.441  0.0888 -0.1386 -0.2855
13042PP      PP23146   8.806   0.050  12.532 -0.0719  0.2383  0.0474
13043PP      PP23147   7.731   4.000  11.840 -0.2236  0.1541  0.1707
13044PP      PP23148   6.942   8.600  10.687  0.0463  0.2120  0.2161
13045PP      PP23149  14.760  10.628  12.669 -0.0403 -0.3916 -0.0920
13046PP      PP23150   9.619  13.225   9.030  0.1729  0.1770  0.0736
13047PP      PP23151   7.197   7.921  12.812 -0.4270 -0.0414  0.2107
13048PP      PP23152   6.580  11.994   3.180  0.4148 -0.0344  0.2815
13049PP      PP23153   8.344   0.127   0.837 -0.3372 -0.1905 -0.0895
13050PP      PP23154   5.936   0.072  10.501  0.1912 -0.1093 -0.0995
13051PP      PP23155   3.223   4.673   2.436 -0.0387 -0.1195 -0.1275
13052PP      PP23156   2.732   5.062  11.613 -0.0209 -0.0396  0.1512
13053PP      PP23157   8.950   0.028   3.859  0.2957 -0.0209 -0.1149
13054PP      PP23158   1.421   2.581   3.134 -0.3997 -0.0185 -0.2023
13055PP      PP23159   7.251   8.077  10.839  0.0853 -0.3839 -0.1435
13056PP      PP23160  10.269  11.860  10.491 -0.0084 -0.2976  0.0163
13057PP      PP23161   4.053  12.023  10.464  0.0311  0.2639 -0.4722
13058PP      PP23162  12.790  13.418  12.217 -0.1046 -0.4370  0.0298
13059PP      PP23163   0.244   9.926  12.378  0.3281  0.1398 -0.3703
13060PP      PP23164   0.923   0.572   9.220  0.4673 -0.1593 -0.0184
13061PP      PP23165  10.302   0.856   2.236  0.2270  0.1300 -0.0029
13062PP      PP23166  15.561   3.247   1.899 -0.0579  0.2120  0.4123
13063PP      PP23167   9.796   0.502  11.001  0.1305  0.3711  0.0347
13064PP      PP23168   3.474  10.400   9.472  0.1186  0.1730  0.0675
13065PP      PP23169  15.587   4.966   4.010  0.3312 -0.0269  0.0589
13066PP      PP23170  13.676   3.978   0.306 -0.0760  0.2629 -0.1264
13067PP      PP23171   9.615   7.284   3.005  0.1824 -0.0309  0.2638
13068PP      PP23172  13.781   6.340   1.056 -0.4569 -0.4237 -0.1753
13069PP      PP23173   4.643   1.492  10.683  0.0687 -0.1945  0.0549
13070PP      PP23174   6.997  13.015   8.583 -0.0425  0.1829  0.2181
13071PP      PP23175   7.649   8.373   0.448 -0.0406  0.1119 -0.1092
13072PP      PP23176   8.861   3.989  12.822  0.0349  0.1353  0.1990
13073PP      PP23177   9.936  12.110   2.869  0.0512  0.2425 -0.1125
13074PP      PP23178   4.179   8.238   3.051  0.1571 -0.2651  0.1315
13075PP      PP23179   2.919   0.417  12.765 -0.2413  0.1252 -0.1982
13076PP      PP23180   3.632   7.765   0.437  0.4094 -0.2001  0.0081
13077PP      PP23181  14.301   8.536   9.766  0.0388 -0.0192  0.2687
13078PP      PP23182   8.598  13.544  12.304 -0.0346 -0.0037 -0.3065
13079PP      PP23183  14.551   6.520   2.609  0.1986  0.3469 -0.0492
13080PP      PP23184  15.548  11.440   3.098  0.1112  0.3891 -0.1107
13081PP      PP23185   4.883   3.116   9.573  0.1256  0.1167 -0.2182
13082PP      PP23186   8.483   0.533   1.839 -0.0240  0.1533 -0.2741
13083PP      PP23187  14.568   2.760  10.229 -0.1468 -0.0301  0.1318
13084PP      PP23188  14.469  11.837  10.385 -0.0270  0.0833 -0.5338
13085PP      PP23189  12.671   9.458   1.547 -0.0673  0.1112  0.4111
13086PP      PP23190   9.889  14.410   1.302 -0.0417 -0.1133  0.3044
13087PP      PP23191   0.347   4.198   3.762  0.0085  0.0211  0.0040
13088PP      PP23192   7.731   3.127   8.478  0.2492  0.0704 -0.1045
13089PP      PP23193   7.242   6.468  11.434  0.2266  0.1312  0.0348
13090PP      PP23194  11.862  12.504   3.859  0.0489 -0.1290 -0.0662
13091PP      PP23195   7.627  13.353  11.382  0.1652  0.0438  0.1122
13092PP      PP23196   5.847  13.977   2.637  0.1582  0.0654  0.0690
13093PP      PP23197   9.393   0.461   0.647  0.1911  0.2197  0.1810
13094PP      PP23198   3.486  10.275   9.955  0.2026  0.1361 -0.0705
13095PP      PP23199   6.340  13.816   3.548 -0.0282 -0.2783 -0.1011
13096PP      PP23200  12.220   7.566   0.441 -0.1126 -0.0210 -0.3596
13097PP      PP23201  13.278  14.260  10.537  0.0769 -0.0683  0.2130
13098PP      PP23202  12.158   0.881  11.000  0.0551 -0.1582  0.3000
13099PP      PP23203   6.872   8.222   0.274  0.1904 -0.2867  0.3187
13100PP      PP23204   4.795   3.844  13.062 -0.1013 -0.1829 -0.1849
13101PP      PP23205   1.600   8.105  10.579  0.1008  0.0131  0.1614
13102PP      PP23206   4.205  14.989   0.426  0.4233 -0.1280 -0.0392
13103PP      PP23207   0.925   4.182   8.971 -0.0825  0.2893 -0.2148
13104PP      PP23208   2.979   8.416  11.707  0.1158  0.1434 -0.0369
13105PP      PP23209   6.969   4.526   0.093 -0.2583  0.1581  0.1610
13106PP      PP23210   9.898   6.684   0.665 -0.1144 -0.0815 -0.2526
13107PP      PP23211   8.141   2.207   1.720 -0.3879  0.2531  0.1732
13108PP      PP23212  12.314   9.475  11.599  0.1849  0.1526  0.2029
13109PP      PP23213  12.917   7.591   4.796  0.2992 -0.0148 -0.0512
13110PP      PP23214   8.751  11.195   9.140  0.0365  0.0345 -0.1783
13111PP      PP23215   0.121  11.525  10.165  0.0506 -0.0864 -0.2383
13112PP      PP23216  15.463  15.021   3.333  0.0951 -0.0494 -0.0730
13113PP      PP23217   9.947  11.922  11.756 -0.1312 -0.0515  0.1718
13114PP      PP23218   1.809  14.491   0.695 -0.0433  0.1469  0.1795
13115PP      PP23219   3.197  11.946   3.063  0.0609 -0.1063 -0.0380
13116PP      PP23220   0.300   1.044   9.096  0.0278  0.0817  0.0598
13117PP      PP23221  11.136  15.672  10.766 -0.0349 -0.0895  0.3825
13118PP      PP23222   6.408  15.010   9.760 -0.0077  0.1452 -0.1760
13119PP      PP23223  10.432  12.990  10.516  0.2490  0.0506 -0.1692
13120PP      PP23224  13.826   9.033   1.493  0.2927  0.0613 -0.0439
13121PP      PP23225   2.509   9.619   2.656 -0.0761 -0.0602  0.2568
13122PP      PP23226   2.918  10.944  12.717 -0.2056  0.1422 -0.0908
13123PP      PP23227   7.031   3.051   4.207 -0.3001 -0.1897 -0.2112
13124PP      PP23228   4.515   7.298   0.663 -0.2297 -0.0805 -0.1977
13125PP      PP23229  11.763   6.497   4.821  0.1562  0.1456 -0.1049
13126PP      PP23230   3.317   9.133   1.427  0.1271 -0.1790 -0.1471
13127PP      PP23231  11.355   1.223  12.919 -0.0578  0.1752 -0.2775
13128PP      PP23232   5.324  12.160   0.439  0.0186 -0.1710 -0.0398
13129PP      PP23233   4.999   8.380   2.973  0.0117  0.1555  0.1601
13130PP      PP23234  11.204   6.085  10.697  0.2856 -0.0518 -0.1599
13131PP      PP23235   5.597   6.808   3.435 -0.0639 -0.0901 -0.1115
13132PP      PP23236   5.816   1.197   1.853  0.2966  0.3317  0.1921
13133PP      PP23237  11.181   3.517  13.043  0.0879  0.0416  0.3481
13134PP      PP23238   6.313  12.079   3.700  0.1786  0.1459 -0.1208
13135PP      PP23239   7.561   4.075  12.314 -0.3157 -0.3010  0.3020
13136PP      PP23240  10.439  10.481   4.926  0.0127 -0.2691  0.0521
13137PP      PP23241   1.179   3.402   0.372  0.0045 -0.0415 -0.1749
13138PP      PP23242  12.328  15.232   4.155 -0.1554 -0.0275 -0.1022
13139PP      PP23243   7.696   9.489   1.705  0.0391  0.1220  0.0376
13140PP      PP23244   2.128   0.609   2.488  0.3463 -0.0210  0.1186
13141PP      PP23245   4.319   3.695  12.812  0.1296  0.2693  0.0733
13142PP      PP23246  10.555   2.172   9.972  0.0946 -0.4469  0.1139
13143PP      PP23247   6.510  11.514  13.159  0.1325  0.0913  0.5200
13144PP      PP23248   4.842  13.435  10.211  0.1130 -0.0900  0.0808
13145PP      PP23249   2.405   2.921  13.269  0.2455  0.2152  0.3550
13146PP      PP23250   5.221  10.678  10.963 -0.2177 -0.0937 -0.0807
13147PP      PP23251   4.596   8.943  10.767  0.4188  0.1148 -0.0615
13148PP      PP23252   0.799  13.588   1.404 -0.0952  0.1251  0.3956
13149PP      PP23253   1.873   1.211  12.549 -0.0716 -0.1418  0.0285
13150PP      PP23254  12.950   8.608   2.678 -0.1379 -0.1080 -0.1847
13151PP      PP23255  14.956   4.687   4.050  0.2663  0.0612 -0.2236
13152PP      PP23256  12.797  14.979   2.729  0.4978 -0.1534 -0.0699
13153PP      PP23257   0.426   8.757   5.710 -0.2953 -0.0964  0.2111
13154PP      PP23258   3.494   4.241   9.136 -0.0017 -0.1456  0.1495
13155PP      PP23259  15.229  10.381   2.996 -0.1091  0.3473 -0.1846
13156PP      PP23260  12.176   5.927  11.357 -0.2458 -0.4096  0.0740
13157PP      PP23261   6.887  12.895   4.053  0.0576  0.2637 -0.1200
13158PP      PP23262  12.113   4.100   0.269 -0.0408  0.3012  0.0097
13159PP      PP23263  10.431  12.820  12.950  0.0822 -0.1042  0.0999
13160PP      PP23264  15.244   0.259  13.364  0.1907  0.1277 -0.2013
13161PP      PP23265   6.809   3.782   0.896  0.0299 -0.2460  0.2966
13162PP      PP23266   4.622  14.620   9.479  0.0611  0.1340 -0.2385
13163PP      PP23267  10.436  12.486  10.760  0.0930 -0.0876 -0.0295
13164PP      PP23268  14.943   7.393   1.415  0.0385 -0.2315 -0.4243
13165PP      PP23269   4.271   5.478   9.683  0.3694 -0.0198  0.5338
13166PP      PP23270   8.504   3.583  10.115 -0.2651 -0.0978 -0.1441
13167PP      PP23271  12.485  13.092   0.928 -0.2298  0.1359 -0.0388
13168PP      PP23272   1.302  14.192  11.740 -0.0157 -0.0514 -0.3819
13169PP      PP23273   6.160   5.388   2.437 -0.2739  0.2405 -0.3407
13170PP      PP23274  14.987   6.509  11.196  0.0648  0.1837  0.2592
13171PP      PP23275  14.709   2.837  11.890  0.2284 -0.1474 -0.0944
13172PP      PP23276   7.661   4.264   3.887  0.1317  0.2119  0.3249
13173PP      PP23277   4.342  13.454  10.676  0.1393  0.1934 -0.3989
13174PP      PP23278   6.769  11.401   0.316  0.4006  0.0146 -0.0465
13175PP      PP23279   9.009   7.026  12.127 -0.0155  0.0055 -0.0850
13176PP      PP23280   2.074   6.215   4.640 -0.4550 -0.1027  0.2311
13177PP      PP23281   6.220  14.921   1.608 -0.1548  0.0274 -0.2059
13178PP      PP23282  15.138   1.390   8.635  0.0800  0.1184 -0.1207
13179PP      PP23283   7.238   8.350  10.315 -0.0391  0.2025 -0.0518
13180PP      PP23284  15.284   0.633   8.374  0.0220 -0.0249 -0.0405
13181PP      PP23285  14.939   6.743   1.777 -0.2353  0.3152  0.0362
13182PP      PP23286  12.258   8.784  10.022 -0.1191 -0.0542  0.1419
13183PP      PP23287   0.248  14.523  11.743  0.2295  0.0630  0.1852
13184PP      PP23288  11.061   1.544   1.806  0.0865  0.1420  0.2363
13185PP      PP23289  11.904   8.254   1.374 -0.2059 -0.1358  0.2518
13186PP      PP23290   8.033   2.018  12.548 -0.1219  0.1175 -0.1564
13187PP      PP23291   6.520  10.415  11.338 -0.0923 -0.0172  0.1419
13188PP      PP23292  11.766  11.100   1.090  0.0741  0.1641  0.1176
13189PP      PP23293   0.688   1.852  11.701 -0.3863  0.1357  0.2076
13190PP      PP23294   2.410   6.844   3.791  0.2668  0.1885  0.3018
13191PP      PP23295   1.595  13.733   3.792 -0.0627 -0.2582  0.1637
13192PP      PP23296   4.269   3.081   1.811  0.4079 -0.1037 -0.1744
13193PP      PP23297  15.116  15.515   8.988  0.2839  0.1667  0.0560
13194PP      PP23298   4.149   0.181  12.138 -0.2740  0.4180  0.1243
13195PP      PP23299   7.956   2.248   2.419 -0.1601 -0.1860 -0.0411
13196PP      PP23300   8.891  11.159   0.565 -0.0101  0.1450  0.3899
13197PP      PP23301  13.582   7.385  11.776 -0.3136  0.0249  0.0552
13198PP      PP23302   1.742  15.043   3.660  0.1979 -0.0809  0.2611
13199PP      PP23303   9.435   5.869   1.560  0.1165 -0.0055  0.0810
13200PP      PP23304  13.183  14.188  10.005  0.1488  0.2233 -0.1352
13201PP      PP23305  13.195  15.631   9.799  0.3514 -0.0721  0.2027
13202PP      PP23306  11.369   4.416   0.543 -0.6268 -0.2487  0.0442
13203PP      PP23307   5.190   8.661   0.328 -0.1029 -0.0934  0.2862
13204PP      PP23308   1.794   7.111  10.643  0.0502 -0.0604 -0.1715
13205PP      PP23309   7.505   0.317   8.440  0.0578 -0.2712  0.4262
13206PP      PP23310   8.783   2.075   2.378  0.0548  0.0769  0.0402
13207PP      PP23311   5.866   2.147  11.059  0.1218  0.1157 -0.0769
13208PP      PP23312   7.079   1.738  12.051  0.0387 -0.0815 -0.0728
13209PP      PP23313  11.372   4.953   3.608  0.0216 -0.3748 -0.1018
13210PP      PP23314  12.659   8.437  10.230 -0.1727 -0.5649  0.1600
13211PP      PP23315  12.303  14.224   3.974 -0.1163  0.1713  0.1160
13212PP      PP23316   8.645   8.879   4.961 -0.1474 -0.3524  0.0485
13213PP      PP23317   5.667  10.196  11.700  0.0237 -0.0776 -0.1208
13214PP      PP23318  14.365   1.076  12.489  0.0420  0.2125  0.1853
13215PP      PP23319   5.987  12.043   3.266 -0.1067  0.4632 -0.0665
13216PP      PP23320   3.069   4.035   2.980  0.0626 -0.0464  0.1009
13217PP      PP23321  10.261   1.449  10.959 -0.0803  0.1624 -0.0571
13218PP      PP23322   7.821   6.194  13.278  0.0291 -0.2158  0.0321
13219PP      PP23323   8.657  14.559   1.875  0.0324  0.1079  0.0045
13220PP      PP23324  14.175   3.600   3.312 -0.1956  0.1813 -0.1792
13221PP      PP23325   6.580  11.977  13.194  0.3077 -0.2958 -0.1574
13222PP      PP23326   6.332   2.335   9.722 -0.1501 -0.1193 -0.2723
13223PP      PP23327   9.531   9.743   0.241  0.1031  0.1031  0.1482
13224PP      PP23328   0.390  10.042   0.303 -0.1949 -0.0030 -0.0169
13225PP      PP23329   6.928   3.587  11.750  0.0336  0.0601  0.0256
13226PP      PP23330   4.540   0.874   0.803 -0.0732 -0.1291  0.0001
13227PP      PP23331   9.799   4.384  10.532  0.0301 -0.0504 -0.2387
13228PP      PP23332   2.129  14.087   3.205  0.4377  0.0992  0.0015
13229PP      PP23333   2.357  11.928  12.956 -0.2291 -0.1586 -0.0391
13230PP      PP23334  15.161   4.164  10.627 -0.2733 -0.3077  0.2577
13231PP      PP23335   4.741   9.293  11.998  0.1122 -0.2442  0.1248
13232PP      PP23336   4.491  14.889  12.965  0.0483 -0.3109  0.2385
13233PP      PP23337  11.064   4.839  13.159 -0.1040 -0.1452  0.2269
13234PP      PP23338   5.176   4.468  11.947  0.1496 -0.1369  0.1410
13235PP      PP23339   9.733   3.724  11.195 -0.1096  0.3704 -0.0411
13236PP      PP23340   3.804   3.484  11.826 -0.0641 -0.1123 -0.0449
13237PP      PP23341  11.738   0.620   9.019  0.3634 -0.0533 -0.1894
13238PP      PP23342  15.797   3.478   0.793 -0.1696 -0.4920  0.2814
13239PP      PP23343  10.175   6.509  10.681 -0.0017  0.2352  0.0423
13240PP      PP23344  13.088   3.981  10.830 -0.0490  0.1970 -0.1828
13241PP      PP23345   5.246  13.825   1.922 -0.1199 -0.0620  0.0432
13242PP      PP23346   4.615   8.113   2.926 -0.0792  0.1070  0.0273
13243PP      PP23347   4.173   8.152   3.547  0.1336 -0.3183  0.0131
13244PP      PP23348   0.249  10.912  12.873 -0.1615  0.0446  0.2407
13245PP      PP23349   7.818   2.713   7.965 -0.2310 -0.2330  0.2474
13246PP      PP23350  11.185   7.217   4.450 -0.2739 -0.0533 -0.0015
13247PP      PP23351   2.504   6.382   0.488  0.1281 -0.2540 -0.1494
13248PP      PP23352  11.108   4.481  10.217 -0.1507  0.1189  0.1717
13249PP      PP23353   0.971  11.018   2.278  0.1420 -0.0807  0.0986
13250PP      PP23354  12.239   3.605  12.138 -0.0826 -0.2965  0.0709
13251PP      PP23355  15.634  13.088  12.886 -0.0967 -0.0816  0.0002
13252PP      PP23356   4.125  13.958   0.128 -0.3910  0.0650 -0.2239
13253PP      PP23357  11.803   8.033   3.402  0.2133 -0.1304 -0.1348
13254PP      PP23358   2.401   3.473  11.052  0.2485 -0.2810 -0.2298
13255PP      PP23359   1.148  12.817   4.322  0.0253  0.1399  0.5038
13256PP      PP23360   9.273  12.495   3.498 -0.0151  0.2013  0.1739
13257PP      PP23361   5.068   8.154   2.502  0.2494 -0.0001  0.0511
13258PP      PP23362   6.917   3.287  12.747  0.1421  0.3171 -0.1806
13259PP      PP23363   4.887  13.507   0.690 -0.0724 -0.1508  0.1224
13260PP      PP23364  15.720  11.225  13.024 -0.1426  0.2062  0.1814
13261PP      PP23365  15.190   8.473  13.264  0.2853 -0.0154  0.3302
13262PP      PP23366   2.622   4.408  12.997 -0.0027 -0.1820  0.2432
13263PP      PP23367  13.485   4.883  10.399 -0.1080 -0.0446 -0.0458
13264PP      PP23368   6.767  12.992   2.207  0.2326  0.0882 -0.0848
13265PP      PP23369  12.660   4.642   0.195  0.1309 -0.0529  0.0895
13266PP      PP23370   7.300  14.609   2.480  0.0236 -0.1016 -0.1975
13267PP      PP23371   7.112   6.817   0.953  0.1191 -0.1135 -0.0905
13268PP      PP23372   9.904   3.542   0.278  0.2925  0.2307 -0.1895
13269PP      PP23373  10.556   3.146   9.956 -0.0569 -0.0298  0.3130
13270PP      PP23374   6.577  10.296   9.028  0.0771 -0.1947  0.0991
13271PP      PP23375   6.079   5.410  12.196  0.0782 -0.3157  0.3285
13272PP      PP23376   1.044   6.933   2.771 -0.3313  0.0932 -0.2309
13273PP      PP23377   7.271   5.789   9.116  0.2052 -0.2334  0.0352
13274PP      PP23378   3.232   5.459  10.511  0.2787 -0.1331  0.0449
13275PP      PP23379   8.593   3.458   4.351  0.1652  0.1364 -0.4686
13276PP      PP23380   1.432   5.678  10.514 -0.2803 -0.0245 -0.2635
13277PP      PP23381  15.301   2.615   1.918  0.0383 -0.2825 -0.3168
13278PP      PP23382  10.849   9.951  10.142 -0.1548  0.1344 -0.0416
13279PP      PP23383  10.056   1.301  12.934 -0.0163 -0.0312  0.0224
13280PP      PP23384  10.883  10.372   2.314 -0.3426  0.0541  0.0805
13281PP      PP23385   0.648   4.016  12.569  0.2514  0.1287 -0.1193
13282PP      PP23386   8.264   7.521  12.316  0.1955  0.4835  0.1388
13283PP      PP23387   4.507  12.751   9.580  0.1724  0.0274  0.1336
13284PP      PP23388   9.756   6.876   4.530 -0.1979 -0.0957  0.4284
13285PP      PP23389  15.514  12.724   3.806 -0.4086  0.0182 -0.2215
13286PP      PP23390  13.062   9.857   4.713  0.2715 -0.2979 -0.0119
13287PP      PP23391  13.529   1.448   8.889  0.2614 -0.0364 -0.0425
13288PP      PP23392  10.178   9.297  11.535 -0.0384  0.5331 -0.1265
13289PP      PP23393   7.360   8.694   0.709 -0.0168 -0.1709  0.0973
13290PP      PP23394   6.860   1.211  12.240 -0.0254  0.0135 -0.0859
13291PP      PP23395  12.371  11.196   4.373 -0.0869 -0.2661 -0.3530
13292PP      PP23396  11.622   7.317  12.369  0.0964 -0.0001  0.0338
13293PP      PP23397  13.261  14.623   1.592  0.1611  0.1704 -0.3934
13294PP      PP23398   0.189   3.863  11.790 -0.2054  0.3327 -0.2623
13295PP      PP23399  10.162  15.276   2.652 -0.0540 -0.3182 -0.1569
13296PP      PP23400   3.243  14.828   3.588 -0.3063  0.1722 -0.2914
13297PP      PP23401   8.938  12.795   4.371 -0.1650  0.0190 -0.0595
13298PP      PP23402   8.136   3.758   3.291 -0.1181  0.1473  0.0324
13299PP      PP23403  10.263  12.111   0.356  0.0492 -0.0404 -0.2981
13300PP      PP23404  10.142   4.319   0.929 -0.1979  0.3093 -0.3497
13301PP      PP23405  14.055   0.284   1.756  0.2226  0.1835 -0.3037
13302PP      PP23406   7.293   2.915   9.871  0.2050 -0.1596  0.5003
13303PP      PP23407   5.276   3.897   9.722 -0.0621 -0.0504  0.3622
13304PP      PP23408   0.484   6.196   2.831  0.1477  0.0023 -0.0503
13305PP      PP23409  14.399   7.951   0.976  0.2706  0.4148 -0.0487
13306PP      PP23410  14.181  15.624   0.216 -0.1329  0.3980  0.0841
13307PP      PP23411   8.805   4.559  12.930 -0.0569 -0.4225 -0.2129
13308PP      PP23412   6.453  14.181   9.241 -0.3782  0.0706 -0.1342
13309PP      PP23413   6.337   4.534   0.789 -0.0604 -0.0968  0.1611
13310PP      PP23414   3.609   9.444  13.174  0.0026 -0.1477  0.0557
13311PP      PP23415   1.511   2.849   1.923 -0.3243  0.1267  0.0171
13312PP      PP23416   1.948   4.592  11.163 -0.2220 -0.4380  0.1684
13313PP      PP23417  14.844   7.500  11.067 -0.3947 -0.1456 -0.0413
13314PP      PP23418   4.274   7.634   9.797  0.2828 -0.0225 -0.5526
13315PP      PP23419   7.227   9.530  11.391 -0.0680  0.1133  0.2031
13316PP      PP23420  11.461  11.500   9.870 -0.0853 -0.0242 -0.2409
13317PP      PP23421   0.665   5.555   3.833 -0.2801 -0.3346 -0.0391
13318PP      PP23422   1.831   0.533  11.251  0.0601 -0.0089  0.0291
13319PP      PP23423   2.217   3.781  12.452 -0.1324 -0.1186 -0.0450
13320PP      PP23424   2.338   0.406  10.995  0.1207 -0.2215  0.0532
13321PP      PP23425   8.005   4.857   1.440  0.0154 -0.1639  0.1006
13322PP      PP23426  10.352   3.029  11.344 -0.0989 -0.1326 -0.0114
13323PP      PP23427  13.243   1.179   2.812  0.2078  0.1847 -0.1620
13324PP      PP23428   8.818   9.749   4.007 -0.0713 -0.0342 -0.1000
13325PP      PP23429   8.719   5.589   2.875  0.4150  0.0280 -0.0316
13326PP      PP23430  10.563   0.305  13.357 -0.0552  0.1395  0.0182
13327PP      PP23431   9.188   8.806   4.765 -0.2573  0.0598 -0.0901
13328PP      PP23432   3.445   2.380  11.035  0.0925  0.2613  0.2014
13329PP      PP23433  13.591   8.056  10.162 -0.0444  0.0032  0.1610
13330PP      PP23434   0.520   6.096  12.865 -0.1627  0.2840  0.1015
13331PP      PP23435  10.409  15.523   0.067  0.1219 -0.1801 -0.2070
13332PP      PP23436  14.584   4.714  12.056 -0.1621  0.5045 -0.1731
13333PP      PP23437   8.560  14.069  10.781 -0.1622 -0.1423 -0.2837
13334PP      PP23438  10.881  12.748   2.113  0.1994  0.2937 -0.0106
13335PP      PP23439   8.490  10.039  12.821  0.0556  0.0684 -0.1443
13336PP      PP23440   9.286   6.374   3.242  0.2573  0.1463 -0.1121
13337PP      PP23441   9.643   2.328   3.593  0.0261  0.0549  0.3296
13338PP      PP23442   4.920  13.740   3.579  0.0823 -0.0828  0.0416
13339PP      PP23443   0.153   8.479   4.710  0.1643  0.1268 -0.0026
13340PP      PP23444  10.680  15.626   0.487  0.0002  0.0699  0.4079
13341PP      PP23445   5.827  12.084   0.626  0.1107  0.0438 -0.0455
13342PP      PP23446  12.158   3.138  11.451 -0.2156  0.2569 -0.0419
13343PP      PP23447  11.383  11.944   2.291 -0.0028 -0.1919 -0.0969
13344PP      PP23448  14.045  14.048  13.410  0.1316 -0.0063 -0.1030
13345PP      PP23449   8.110   5.913  11.462  0.0355 -0.0334  0.2093
13346PP      PP23450   8.609   9.383   4.322  0.1910 -0.2028 -0.0011
13347PP      PP23451   5.934   8.023   4.079 -0.1939  0.0950 -0.0236
13348PP      PP23452   4.447   7.850   0.778 -0.0757 -0.0120 -0.2157
13349PP      PP23453   5.045  14.596   2.439 -0.1570  0.0973 -0.2349
13350PP      PP23454   2.448   6.120   2.329  0.0078  0.2052 -0.1973
13351PP      PP23455   3.621   5.970  10.476  0.2187  0.0335  0.2921
13352PP      PP23456   4.631  10.428  12.451  0.0122 -0.0445  0.1098
13353PP      PP23457   2.761   6.596  13.340  0.0035  0.0086  0.2561
13354PP      PP23458   4.082   5.095   1.962 -0.3338  0.4734 -0.2742
13355PP      PP23459   1.315   0.085   0.833  0.1283  0.0205  0.1773
13356PP      PP23460   9.836   3.990  10.195  0.1135 -0.1372  0.0140
13357PP      PP23461   2.406   8.954  12.654  0.2490 -0.2093  0.1502
13358PP      PP23462   4.476  10.164   1.328 -0.1720 -0.3452 -0.2159
13359PP      PP23463   7.459   5.248   2.543 -0.4055  0.3553  0.2818
13360PP      PP23464   0.662  13.758   4.288  0.2295  0.2464  0.1025
13361PP      PP23465   3.857   0.656  12.282  0.1928  0.0741  0.3834
13362PP      PP23466   5.438   3.064   9.200  0.1540 -0.1129 -0.1762
13363PP      PP23467   2.418   4.171  11.150 -0.0548 -0.0540 -0.0562
13364PP      PP23468  11.366   2.839   2.340 -0.2206  0.0777  0.0064
13365PP      PP23469   5.866   2.826   9.162  0.2564 -0.1597 -0.1057
13366PP      PP23470  10.137   8.653   4.498 -0.0882  0.3479  0.0158
13367PP      PP23471   4.437  11.553   5.223  0.1533 -0.1164  0.0979
13368PP      PP23472   1.278   0.805   8.040 -0.2966 -0.0957  0.1454
13369PP      PP23473   8.182   5.315   7.659  0.2046  0.0768 -0.0914
13370PP      PP23474   8.874  10.306   2.107 -0.0566  0.0243 -0.3218
13371PP      PP23475   9.559  10.167   4.957 -0.1048  0.0442 -0.3995
13372PP      PP23476   3.837  13.347   1.016 -0.0940  0.1423 -0.0113
13373PP      PP23477   5.506  13.984   0.601 -0.1727 -0.0006  0.0257
13374PP      PP23478   7.650  13.021   0.727 -0.0511  0.1852 -0.1548
13375PP      PP23479  13.910  14.528   3.839  0.1194 -0.2157  0.0846
13376PP      PP23480  11.846   4.965  13.412  0.0196  0.0208  0.3387
13377PP      PP23481  13.043   4.975   0.226 -0.1108  0.1022  0.0552
13378PP      PP23482  12.234   1.709   2.660 -0.2823  0.0206  0.1238
13379PP      PP23483   1.918   0.615  10.618  0.0071 -0.0604  0.3671
13380PP      PP23484   6.419  13.085   4.299 -0.3277 -0.1348 -0.0673
13381PP      PP23485  10.488   4.925   8.267 -0.0638 -0.0257 -0.1857
13382PP      PP23486  14.071   5.121   2.381  0.1025 -0.0207 -0.0539
13383PP      PP23487   7.469  10.895   2.068 -0.3994 -0.0528 -0.2230
13384PP      PP23488   0.472  10.941   2.845  0.4192 -0.0275 -0.3535
13385PP      PP23489   0.685   6.140   0.423  0.3180 -0.2574 -0.2093
13386PP      PP23490   1.140   2.617   0.665 -0.1065 -0.4712  0.0168
13387PP      PP23491   1.278   7.094   3.245 -0.1502  0.0650 -0.1982
13388PP      PP23492  14.493   3.024   1.489 -0.2154  0.0406  0.0629
13389PP      PP23493   0.500   0.521   0.828 -0.0062  0.0609 -0.0730
13390PP      PP23494   4.263   9.667   3.101  0.0193 -0.1146  0.1523
13391PP      PP23495  14.022   3.437   2.348 -0.3028 -0.4173  0.2381
13392PP      PP23496   0.968  11.320   5.108  0.3254 -0.1949 -0.0615
13393PP      PP23497   2.393   6.436   1.589 -0.3260  0.3182 -0.1010
13394PP      PP23498   1.867  11.353   2.758  0.2780  0.1279 -0.2335
13395PP      PP23499  15.066   4.648   3.594  0.2659 -0.0870 -0.0436
13396PP      PP23500   2.157  10.559  10.247  0.0127 -0.2100 -0.0775
13397PP      PP23501   6.448   1.660  10.492  0.1510 -0.3350  0.2658
13398PP      PP23502  13.926   9.445  11.297 -0.0825  0.1254  0.1111
13399PP      PP23503   0.831  13.502  12.726  0.3435  0.3895 -0.2056
13400PP      PP23504   0.222   0.823   8.580  0.0241 -0.2795 -0.2261
13401PP      PP23505  14.514   6.838   3.097 -0.1386 -0.0088 -0.2182
13402PP      PP23506   4.128   7.591   2.002  0.2552  0.0978 -0.0376
13403PP      PP23507   3.411  10.666  10.336 -0.0877 -0.1512  0.1363
13404PP      PP23508   6.607   0.030   0.276  0.2954  0.3011 -0.0189
13405PP      PP23509   8.733  15.460  13.424  0.0006  0.3110  0.0851
13406PP      PP23510  14.863   6.667   9.994  0.1216  0.0049  0.0370
13407PP      PP23511  12.998   2.212  12.989 -0.1322  0.2605  0.0652
13408PP      PP23512   0.051   4.619  11.009  0.3838 -0.1666 -0.0464
13409PP      PP23513   1.981   8.874   2.521 -0.1455 -0.0445 -0.0857
13410PP      PP23514   9.038   6.282   4.011  0.1651 -0.0208 -0.1093
13411PP      PP23515   3.472   6.271   1.838 -0.2212  0.0615  0.1052
13412PP      PP23516   6.879   0.181   8.846  0.0794  0.1867  0.0690
13413PP      PP23517   4.187  10.138   4.562  0.0723 -0.2174  0.3000
13414PP      PP23518   9.617  14.213   9.905  0.0761 -0.1208 -0.0719
13415PP      PP23519  15.464  15.092  12.768  0.0167  0.0339  0.2706
13416PP      PP23520   8.267   4.694   3.324  0.0187  0.0695  0.2141
13417PP      PP23521   1.263   2.867  10.363 -0.1045 -0.2884  0.1950
13418PP      PP23522   5.447   8.972   3.322  0.4883  0.2627  0.1282
13419PP      PP23523   5.962  14.157   3.125  0.1197  0.3524  0.0688
13420PP      PP23524  11.531   6.787   3.369 -0.2811  0.1535  0.2323
13421PP      PP23525   1.677   0.931   0.032  0.0897  0.0050  0.1943
13422PP      PP23526  13.800   9.373   4.217 -0.0529 -0.0082  0.0335
13423PP      PP23527   0.794   3.959   0.926  0.5850 -0.1651 -0.1634
13424PP      PP23528   4.168  14.443   2.240  0.1660  0.0152  0.0762
13425PP      PP23529   0.749   2.884  11.674 -0.0176  0.0499  0.4627
13426PP      PP23530   5.020   5.943   4.034  0.0686 -0.1350  0.1649
13427PP      PP23531  12.419  11.279   4.890  0.1663 -0.4655 -0.3988
13428PP      PP23532  11.698   7.934   2.918  0.0451  0.0168  0.1853
13429PP      PP23533  13.963  10.208   3.156 -0.4276  0.1411 -0.0834
13430PP      PP23534   8.034   5.950   0.818 -0.0974  0.1884 -0.0454
13431PP      PP23535   8.577   5.775  11.648 -0.3331 -0.1642  0.1313
13432PP      PP23536  14.130   7.443  10.611  0.2528  0.1260 -0.1566
13433PP      PP23537   2.802  11.805  13.326 -0.2497  0.2554 -0.1121
13434PP      PP23538  11.584  11.497   2.569  0.0495 -0.1366  0.2107
13435PP      PP23539   0.302  14.587   9.456  0.3673 -0.0176  0.1247
13436PP      PP23540   6.924   0.479   1.303 -0.2941  0.1363  0.0920
13437PP      PP23541  11.516   3.801  11.850 -0.2078 -0.0342 -0.1228
13438PP      PP23542   4.221   6.527   9.726 -0.1010 -0.1752  0.2933
13439PP      PP23543   8.844  14.654  13.164  0.1141 -0.3003  0.2344
13440PP      PP23544   0.536   2.675  10.286  0.2545 -0.0978 -0.0052
13441PP      PP23545   8.931   8.455  12.630  0.2880 -0.0886 -0.0419
13442PP      PP23546   4.267   4.248   0.888 -0.0834  0.2686 -0.0867
13443PP      PP23547   6.895   5.634  11.282 -0.0548  0.0731  0.1038
13444PP      PP23548  14.168   4.667   3.299  0.0819 -0.1956 -0.1323
13445PP      PP23549   5.873   4.928   3.813 -0.0177 -0.0962 -0.0459
13446PP      PP23550  10.618   1.765  11.282  0.0403  0.1171 -0.1346
13447PP      PP23551  12.424   7.189   0.961 -0.3165  0.0653 -0.2425
13448PP      PP23552   1.025   6.729  13.002  0.0753  0.0475 -0.0852
13449PP      PP23553   2.878   1.511   9.090 -0.2856 -0.1581 -0.0135
13450PP      PP23554   0.472  14.184  13.488  0.0673 -0.2426 -0.0595
13451PP      PP23555   5.938   3.158   9.561  0.0907  0.3008 -0.0181
13452PP      PP23556   6.201   2.089  12.028  0.1106  0.0733  0.0208
13453PP      PP23557  10.021  15.100  12.337  0.0142 -0.1762  0.0729
13454PP      PP23558  10.472  10.637  12.988 -0.2201 -0.4812 -0.2042
13455PP      PP23559   1.969  15.659   8.820 -0.0275  0.2543  0.1589
13456PP      PP23560  13.848  14.929   2.443 -0.0717  0.0927  0.1422
13457PP      PP23561   4.592  14.926   8.918  0.2385  0.1275  0.1293
13458PP      PP23562   9.187  13.425   8.830  0.0183  0.0088 -0.2702
13459PP      PP23563   1.057  10.546   4.957 -0.2165  0.0110  0.0027
13460PP      PP23564   4.893   7.823  10.675 -0.2979  0.1807  0.0937
13461PP      PP23565   7.165   2.788  12.757  0.1812 -0.1035  0.1722
13462PP      PP23566   2.344  15.550   0.960 -0.2710 -0.1165  0.2779
13463PP      PP23567  11.625  12.064  12.540 -0.2778 -0.1123 -0.0588
13464PP      PP23568   5.196   0.405   8.914 -0.0111  0.2983  0.1501
13465PP      PP23569  15.703  10.971  11.755 -0.3847  0.2676  0.1479
13466PP      PP23570   9.008   3.098   9.502 -0.1342 -0.1724 -0.0751
13467PP      PP23571   0.653   9.484  12.028 -0.5381  0.2327  0.1548
13468PP      PP23572   7.404   4.796  10.142  0.1314 -0.1660 -0.0630
13469PP      PP23573  14.570   9.852  10.498  0.3122 -0.2821 -0.2008
13470PP      PP23574   9.882  11.184   4.302 -0.1096  0.4402  0.0425
13471PP      PP23575   5.163   1.048   7.929 -0.0050 -0.0420  0.2127
13472PP      PP23576   6.479   8.059   3.002 -0.1997 -0.0115 -0.0113
13473PP      PP23577  11.140   3.923   3.317  0.2598  0.0926 -0.0687
13474PP      PP23578  12.267  13.871   9.047 -0.0661  0.2729 -0.0399
13475PP      PP23579   3.044   0.373  11.364 -0.0187  0.0455 -0.2116
13476PP      PP23580   3.338  14.324  10.726 -0.0402 -0.1286  0.2538
13477PP      PP23581   1.746   6.968  13.525  0.0494  0.0366 -0.0353
13478PP      PP23582   7.247  11.961  12.829  0.0196 -0.2617  0.0980
13479PP      PP23583   7.818   3.127   2.901  0.2107  0.3537  0.0087
13480PP      PP23584   5.414  12.419  13.232  0.1929 -0.1609  0.2249
13481PP      PP23585   3.325  11.778  12.252 -0.0850 -0.0607  0.2882
13482PP      PP23586   0.220   2.079  11.721 -0.0501  0.2728 -0.4002
13483PP      PP23587   8.796  12.125   2.651 -0.1007 -0.0304  0.1808
13484PP      PP23588  11.123   0.482  10.554  0.1984 -0.0278 -0.0479
13485PP      PP23589   5.560  14.661   7.644 -0.2153  0.1913  0.2354
13486PP      PP23590   4.091  11.105  13.230 -0.1036 -0.1747 -0.0791
13487PP      PP23591   0.996   0.210   9.641 -0.4006 -0.0056 -0.1866
13488PP      PP23592   9.853   7.856   9.225 -0.1464  0.1025 -0.0755
13489PP      PP23593   6.298   5.507   3.861  0.1788  0.2876 -0.0238
13490PP      PP23594  13.384   6.572  11.440 -0.0725  0.3405  0.0558
13491PP      PP23595   8.845   3.554   8.570 -0.1400  0.0320  0.0798
13492PP      PP23596  13.871  12.763   8.665  0.3194  0.2786 -0.0838
13493PP      PP23597   5.950  13.741   0.546 -0.2741  0.0175  0.1181
13494PP      PP23598   1.641   0.711  12.672 -0.1217 -0.0018 -0.3514
13495PP      PP23599  12.556   9.551   9.748 -0.2113  0.0389  0.0333
13496PP      PP23600   0.025   5.815   9.402  0.2768 -0.1051  0.0654
13497PP      PP23601  12.555  13.566   2.858 -0.0943 -0.1833 -0.3839
13498PP      PP23602   6.831   0.243  12.016  0.2311 -0.0883 -0.0609
13499PP      PP23603   7.818   1.534   0.291 -0.0245  0.1795 -0.1348
13500PP      PP23604   4.741  10.739  12.837 -0.3826 -0.0383 -0.1103
13501PP      PP23605  11.328   7.023  13.489  0.2458  0.1285 -0.3258
13502PP      PP23606  13.555  10.810   9.856  0.0777 -0.0857 -0.1764
13503PP      PP23607   9.006  13.433  12.627  0.0104  0.0944  0.4838
13504PP      PP23608   3.644   2.148  13.223 -0.0779 -0.2158  0.0695
13505PP      PP23609   2.646   5.197  12.136 -0.4481 -0.1132  0.3237
13506PP      PP23610   9.441   4.934   2.546 -0.0174  0.3779 -0.2432
13507PP      PP23611   0.208  15.662  13.026  0.2050  0.1554 -0.2060
13508PP      PP23612  11.662  10.295  11.436 -0.0120 -0.0245  0.1120
13509PP      PP23613   0.178  12.572   2.493  0.1639  0.4017  0.0434
13510PP      PP23614   7.759  15.132  13.464 -0.0936 -0.1968  0.2626
13511PP      PP23615   9.933   1.732   1.144  0.2721 -0.1346  0.1298
13512PP      PP23616   1.927   6.491  12.920  0.1635  0.1113  0.0768
13513PP      PP23617   2.350   2.206   2.304 -0.0892  0.0010  0.0614
13514PP      PP23618  10.961   6.687   1.165  0.3102  0.0189  0.4999
13515PP      PP23619  14.606   5.581   4.379  0.0734  0.0835  0.2366
13516PP      PP23620  14.505   0.685   3.134  0.2899  0.0333  0.1809
13517PP      PP23621  11.309   3.407   2.529 -0.0791  0.5152  0.2390
13518PP      PP23622  12.428   0.607  10.721  0.3203  0.0896  0.1981
13519PP      PP23623   4.921  11.043  13.248  0.3789 -0.6860  0.1683
13520PP      PP23624  14.053   7.258  13.224 -0.1559 -0.0328 -0.0805
13521PP      PP23625   8.768   8.917   2.525 -0.3602  0.0226  0.0353
13522PP      PP23626   7.014   5.255  11.564 -0.2417  0.1065  0.1367
13523PP      PP23627  11.164   5.890   1.802 -0.1155 -0.1226 -0.0107
13524PP      PP23628   8.873   0.736  11.902  0.2303  0.0924 -0.1183
13525PP      PP23629  13.081   9.392  10.952  0.0350  0.2326 -0.3828
13526PP      PP23630   0.568   4.407  11.080 -0.0395 -0.2930 -0.3359
13527PP      PP23631  12.636   3.071   8.810  0.0752 -0.1427 -0.3163
13528PP      PP23632  15.201  14.036  11.027  0.1685  0.3155  0.2518
13529PP      PP23633   7.215  12.856   2.532 -0.0733 -0.1045 -0.3440
13530PP      PP23634   2.938   7.052  13.016 -0.0829  0.1370  0.0817
13531PP      PP23635   8.697  13.294  11.247 -0.2185  0.0855  0.0934
13532PP      PP23636   5.458   0.595   3.362  0.1073  0.4877  0.0515
13533PP      PP23637   4.759  14.164  11.208  0.0789 -0.0811  0.2747
13534PP      PP23638   5.404   7.449  12.604  0.3890 -0.1133  0.1470
13535PP      PP23639   1.423   3.827   1.550  0.1738 -0.2741 -0.1752
13536PP      PP23640   0.876   9.997   0.487 -0.0897 -0.0866  0.1250
13537PP      PP23641   6.377   9.185  11.749 -0.5327 -0.0033 -0.0230
13538PP      PP23642  11.460   6.910   2.526 -0.2624  0.1137  0.2878
13539PP      PP23643  11.001   3.447   1.248  0.1735 -0.0670  0.0464
13540PP      PP23644   5.004   6.890   2.041 -0.3116 -0.0494  0.4060
13541PP      PP23645   7.430   2.160   0.967 -0.1304  0.0691  0.0798
13542PP      PP23646   5.464   3.553   9.346 -0.1081  0.1808  0.3580
13543PP      PP23647   7.296   4.925  10.630  0.2475  0.0807 -0.2495
13544PP      PP23648   5.951  10.007  12.161  0.0699  0.1095  0.3036
13545PP      PP23649  15.272   4.745  12.190 -0.2079 -0.0252 -0.3038
13546PP      PP23650  15.382   6.253  13.098 -0.0598 -0.1490 -0.1196
13547PP      PP23651  14.460  15.413   2.664  0.0499  0.1681  0.1984
13548PP      PP23652   7.313   9.083  12.323  0.3849  0.2030  0.2201
13549PP      PP23653   8.252   7.650   1.632  0.0636  0.0769  0.3427
13550PP      PP23654   7.491  14.055   0.581 -0.2352  0.1464 -0.1262
13551PP      PP23655   6.064   3.150   3.608  0.2689  0.3062  0.2491
13552PP      PP23656  12.621   8.019   0.683  0.3196 -0.0967 -0.0611
13553PP      PP23657  12.374  15.766   9.219  0.0392 -0.1064 -0.2706
13554PP      PP23658   3.216   6.769   4.790  0.0833 -0.0674  0.0946
13555PP      PP23659  10.769   6.915   0.015 -0.2264 -0.2568  0.3656
13556PP      PP23660  15.232  14.332  11.909 -0.0579  0.1048 -0.0920
13557PP      PP23661   1.957   2.227   4.075 -0.1272 -0.1172  0.1176
13558PP      PP23662  11.752   0.424   2.338  0.0819 -0.1684 -0.0551
13559PP      PP23663  12.291   7.654   4.754 -0.0404  0.2037  0.1033
13560PP      PP23664   8.640   7.145  12.521  0.2379  0.1903  0.1416
13561PP      PP23665  11.828   4.920  10.593 -0.2149  0.0530  0.0490
13562PP      PP23666  11.395   9.260  11.018 -0.0251 -0.2161  0.0603
13563PP      PP23667   6.558   7.096   9.954  0.0894 -0.1765  0.1947
13564PP      PP23668  14.847   4.298  10.282 -0.1505  0.2028 -0.0811
13565PP      PP23669   8.736  13.940  11.791  0.3107  0.0113  0.1365
13566PP      PP23670   4.439   4.436   9.948 -0.0975  0.3227  0.0416
13567PP      PP23671  14.300   5.430   4.803 -0.0404  0.1523 -0.0471
13568PP      PP23672   3.410   3.115  10.670 -0.1242  0.1059 -0.1566
13569PP      PP23673   6.236   0.052  13.262 -0.1436 -0.1982 -0.2514
13570PP      PP23674   0.386   6.935  12.024 -0.1702  0.2899  0.1746
13571PP      PP23675  12.362  11.550  10.668  0.0777  0.0179  0.1509
13572PP      PP23676   0.249   8.372   0.536 -0.3204  0.0032 -0.0773
13573PP      PP23677   4.467   2.187   3.755  0.0669  0.1696  0.2317
13574PP      PP23678  11.774  10.655   3.903  0.1464  0.0563 -0.0316
13575PP      PP23679   7.229   7.501   3.369 -0.3963  0.1918  0.2596
13576PP      PP23680   2.143   6.497   3.499 -0.0694  0.3803 -0.2577
13577PP      PP23681   1.984   1.295   4.068  0.1776 -0.0119 -0.1262
13578PP      PP23682   8.019  11.598   2.487  0.0877 -0.0170 -0.2729
13579PP      PP23683   4.017   6.244  11.564 -0.2183 -0.0758 -0.2569
13580PP      PP23684   8.340   5.769   2.533 -0.2734  0.0206 -0.0252
13581PP      PP23685   9.257  15.650   8.772 -0.2917 -0.3086  0.0837
13582PP      PP23686   7.801   8.632   3.932 -0.4914  0.0218 -0.3304
13583PP      PP23687   7.125   7.602   9.854  0.3371 -0.3648  0.4320
13584PP      PP23688  12.864   9.917  10.143  0.3071  0.2526  0.2724
13585PP      PP23689   6.434  14.004   7.954 -0.3578 -0.0147 -0.2501
13586PP      PP23690   3.363   4.629  12.504  0.0322  0.1190 -0.3236
13587PP      PP23691   2.108   9.726  12.849 -0.0992  0.1600  0.1910
13588PP      PP23692   1.943  11.020   4.577 -0.0520  0.1740 -0.2165
13589PP      PP23693  12.922   0.046   1.517 -0.1636  0.2443  0.1205
13590PP      PP23694   0.157   5.194   0.409  0.1172  0.0201 -0.3396
13591PP      PP23695   6.069   7.207   2.900  0.2402 -0.2149 -0.2815
13592PP      PP23696   1.953  15.165   8.924  0.0471  0.1792  0.0477
13593PP      PP23697   9.592   4.552  11.246  0.3417 -0.0159  0.0381
13594PP      PP23698   5.030  12.110  10.771  0.3490 -0.0797  0.1989
13595PP      PP23699   5.179   1.062   1.615 -0.2433 -0.0306 -0.1576
13596PP      PP23700   0.368  13.198  10.300 -0.0019 -0.1077  0.2032
13597PP      PP23701  13.163   4.785   4.997 -0.0333 -0.0548 -0.1273
13598PP      PP23702  13.755   4.522  10.218 -0.0626  0.1349 -0.5135
13599PP      PP23703   3.148   2.753   1.163 -0.0993 -0.1180  0.3847
13600PP      PP23704   9.317   8.702   1.442  0.0867 -0.1788  0.3976
13601PP      PP23705   6.986   8.947   3.410 -0.0013 -0.0618  0.0751
13602PP      PP23706   4.061  15.548   0.933  0.1787  0.1776 -0.5573
13603PP      PP23707   8.660   1.990   2.931  0.1848 -0.0383  0.0263
13604PP      PP23708   3.045  13.982  10.854  0.1121 -0.1142  0.1031
13605PP      PP23709  12.054   0.126  12.375 -0.0187 -0.0690 -0.0263
13606PP      PP23710  13.685  12.336   2.042  0.2272 -0.1409  0.0242
13607PP      PP23711  11.174  11.201   0.093 -0.2340 -0.0193 -0.0084
13608PP      PP23712  15.754   1.564  11.113 -0.0941 -0.1611 -0.2921
13609PP      PP23713  12.329   4.077  12.149 -0.2151  0.0156 -0.1798
13610PP      PP23714  15.770  11.564   9.579 -0.0024 -0.0704 -0.0867
13611PP      PP23715   8.456   3.970  11.839  0.1491 -0.4230 -0.0749
13612PP      PP23716  11.996  14.488   0.725  0.0035 -0.1359  0.2727
13613PP      PP23717  10.116   9.576  10.127  0.1537  0.0499  0.2855
13614PP      PP23718   5.430   7.882  13.499  0.0480  0.0356 -0.1424
13615PP      PP23719   3.931  10.147   1.205 -0.2625  0.2889  0.0301
13616PP      PP23720   3.412   3.475   0.872 -0.0025  0.2973  0.1316
13617PP      PP23721   6.738   3.803   3.417 -0.1991  0.1087 -0.0915
13618PP      PP23722  13.614   5.268   3.515  0.0371  0.0395  0.1994
13619PP      PP23723   1.905   3.009  12.433  0.2206  0.0766  0.2115
13620PP      PP23724   8.319   9.435   2.437  0.2131 -0.1185  0.0561
13621PP      PP23725   3.598   9.604  12.143  0.0161  0.0417 -0.0837
13622PP      PP23726   2.169  11.615   0.882 -0.1507 -0.3307 -0.1637
13623PP      PP23727   6.137   1.273   0.137  0.1378 -0.1753 -0.3119
13624PP      PP23728   4.418   6.055   0.071 -0.1663 -0.0943  0.0445
13625PP      PP23729  10.531  12.641   2.510  0.1900 -0.0678  0.1596
13626PP      PP23730  13.873   2.964  12.164  0.2050  0.2535  0.1642
13627PP      PP23731  12.832  12.460   0.769  0.0068  0.1334 -0.0772
13628PP      PP23732  10.351   6.494   8.939  0.1131 -0.0072  0.0201
13629PP      PP23733   7.948  14.580   1.147 -0.2363 -0.0089 -0.2021
13630PP      PP23734  14.271  15.593  12.558 -0.2502  0.1129 -0.0235
13631PP      PP23735  10.105   5.858   1.574 -0.0329 -0.0486  0.0231
13632PP      PP23736   0.832   8.635   1.024 -0.1003 -0.2713  0.0582
13633PP      PP23737  11.763   1.626   1.221 -0.0456  0.1672  0.4580
13634PP      PP23738   2.828   5.427  10.164 -0.3306 -0.1678  0.3592
13635PP      PP23739   9.968   6.783   2.313  0.0691  0.0155  0.0597
13636PP      PP23740   6.179   9.944   1.861 -0.0489 -0.2250 -0.2691
13637PP      PP23741   9.882  11.193  10.684 -0.1806 -0.3826 -0.2996
13638PP      PP23742  10.045   5.379   1.137 -0.2708 -0.1678 -0.0592
13639PP      PP23743   4.387   0.589  12.483  0.1913  0.0173 -0.0544
13640PP      PP23744  15.315  13.468   1.630 -0.1067 -0.1029 -0.1468
13641PP      PP23745   7.216   5.906   1.327  0.0229 -0.1117 -0.3664
13642PP      PP23746  12.735   1.732  11.901  0.3638  0.2144  0.0326
13643PP      PP23747  10.172   7.503   0.682 -0.0059 -0.2516  0.3432
13644PP      PP23748   8.180   9.634   4.221 -0.0621  0.3284 -0.0884
13645PP      PP23749   8.179   4.512   4.108 -0.1937  0.3817  0.1901
13646PP      PP23750   9.767   0.222  12.176 -0.0312  0.0768 -0.1836
13647PP      PP23751   5.800   2.823  12.701  0.1980  0.1809  0.1162
13648PP      PP23752   0.054  14.476  11.182 -0.2152 -0.1280  0.1784
13649PP      PP23753  12.914   2.485  11.633  0.1027 -0.0328 -0.2339
13650PP      PP23754   3.499  13.288  12.963  0.0633 -0.0737  0.0248
13651PP      PP23755  12.598  10.858   0.493 -0.2845  0.1642 -0.1420
13652PP      PP23756  14.360   5.856  13.176 -0.1216  0.2509  0.2748
13653PP      PP23757   6.451  14.938   1.146 -0.2639 -0.1066 -0.2724
13654PP      PP23758   4.628  12.324  11.722  0.0697 -0.0099 -0.0469
13655PP      PP23759   6.687   9.903   0.010 -0.1201  0.1108 -0.0320
13656PP      PP23760  12.713  10.422   2.262 -0.0368 -0.2466  0.1133
13657PP      PP23761   0.752  15.009  10.505  0.3100 -0.1449  0.1338
13658PP      PP23762   7.489  10.361   9.640  0.1056 -0.3611  0.2662
13659PP      PP23763   0.569  10.049   1.432  0.2475  0.1221  0.2797
13660PP      PP23764   7.145   1.879  11.572 -0.2015 -0.2492 -0.1389
13661PP      PP23765   4.959  10.353  12.089 -0.2144 -0.0817 -0.1014
13662PP      PP23766  14.640   1.997  13.507 -0.2249 -0.0561 -0.3326
13663PP      PP23767   2.972   3.492   1.733 -0.2189 -0.1478 -0.1177
13664PP      PP23768   3.778   2.757   9.330 -0.0057 -0.3385  0.0762
13665PP      PP23769   8.834   7.567   1.707  0.0138 -0.0715 -0.1757
13666PP      PP23770  10.118  11.253  13.319 -0.0510  0.2202  0.0281
13667PP      PP23771   1.142   1.918  12.512  0.0349  0.3231  0.1125
13668PP      PP23772  10.101   0.288   9.581 -0.2994 -0.0542  0.2599
13669PP      PP23773   3.745   9.109  12.315 -0.0636 -0.0006  0.4189
13670PP      PP23774   0.902   8.589   3.304  0.1440 -0.4406  0.1916
13671PP      PP23775   8.396   8.838   0.960  0.0402 -0.4077 -0.0226
13672PP      PP23776   5.455   4.584   3.718  0.1491 -0.0608 -0.0167
13673PP      PP23777  11.706   7.997   9.036 -0.0027 -0.0994 -0.0504
13674PP      PP23778   1.621   2.311   9.063  0.2562  0.1884 -0.1939
13675PP      PP23779  12.249   5.117   9.532  0.3702  0.0765 -0.0619
13676PP      PP23780   2.125   4.017   9.406 -0.0579  0.0072 -0.2086
13677PP      PP23781   2.059  13.586   4.114 -0.0991 -0.2284  0.1460
13678PP      PP23782   4.170   5.786  11.436  0.1382  0.1229 -0.0279
13679PP      PP23783  13.869   1.080  11.222 -0.1672 -0.2757  0.0968
13680PP      PP23784  14.291   6.030   2.298 -0.1874  0.1663  0.1938
13681PP      PP23785   5.785  11.599   1.543  0.1873  0.0148 -0.0838
13682PP      PP23786  11.213  13.075   0.036  0.2484  0.0507  0.3067
13683PP      PP23787   1.578   5.217   3.844  0.2029 -0.0009 -0.2156
13684PP      PP23788  11.830   9.197   4.312 -0.1991 -0.2539 -0.0693
13685PP      PP23789  11.694  10.247   1.561 -0.2233  0.0050 -0.4755
13686PP      PP23790   4.230   1.192  10.256 -0.1445 -0.0017  0.1260
13687PP      PP23791   0.370   9.392   1.180  0.1589 -0.0228 -0.0914
13688PP      PP23792   6.440   3.763   4.230  0.0355  0.1000  0.0633
13689PP      PP23793   6.460  13.494   8.100 -0.0528 -0.1037  0.0324
13690PP      PP23794   8.565  11.184  12.734 -0.1069  0.1280 -0.2134
13691PP      PP23795   3.304   0.141   1.754  0.1480  0.1284  0.1178
13692PP      PP23796   2.088   6.280   5.147  0.0756  0.0581 -0.2197
13693PP      PP23797   4.339   1.579  12.763  0.1810 -0.0277  0.1013
13694PP      PP23798   1.301  15.180   3.811  0.0678  0.0519 -0.2250
13695PP      PP23799   0.511   0.657  12.504  0.3716 -0.0200  0.0731
13696PP      PP23800  15.047  10.136   2.533 -0.2146  0.0500  0.0053
13697PP      PP23801   6.377  15.304   9.188 -0.0033 -0.0607 -0.2052
13698PP      PP23802   0.437   4.446   2.939 -0.1012 -0.2495  0.2462
13699PP      PP23803   7.208   4.276   2.319  0.0595  0.0287  0.0557
13700PP      PP23804   2.940   8.664   1.015  0.1751  0.1839 -0.0471
13701PP      PP23805   3.043  13.827   9.505 -0.1893 -0.0350  0.1468
13702PP      PP23806  15.391  15.657  10.862 -0.1449 -0.1241  0.2114
13703PP      PP23807  12.522   2.478   1.204 -0.0003 -0.2486 -0.0641
13704PP      PP23808   9.310   0.621   8.824 -0.0230  0.3749 -0.3471
13705PP      PP23809   7.193  15.648   0.151  0.0498 -0.0926 -0.0495
13706PP      PP23810   6.214  14.507   1.260  0.0540  0.0821 -0.0456
13707PP      PP23811   5.978   2.179   0.809  0.1541  0.0936  0.1543
13708PP      PP23812   4.911   6.556  11.471 -0.3864 -0.1189  0.0508
13709PP      PP23813   6.917  12.903   1.620  0.0415 -0.0732 -0.2166
13710PP      PP23814   7.428   7.001  12.611  0.2307  0.1212  0.0895
13711PP      PP23815  10.469   3.092   1.961 -0.0741  0.0154 -0.2311
13712PP      PP23816  11.497   3.799  10.847 -0.2600 -0.3501 -0.1812
13713PP      PP23817  14.286   9.433   2.815  0.2534 -0.2123 -0.0204
13714PP      PP23818   0.422   6.073   3.905  0.3363 -0.0462 -0.3143
13715PP      PP23819   5.085   5.156   9.844 -0.1134  0.1530  0.1642
13716PP      PP23820   7.510   7.972  11.476  0.0101  0.5881 -0.0403
13717PP      PP23821   7.138   9.608   0.736  0.1355  0.0486 -0.1184
13718PP      PP23822   7.162  11.016   9.414  0.1289  0.0127  0.0658
13719PP      PP23823   4.510  10.884  13.319  0.5120  0.1322 -0.0293
13720PP      PP23824   4.954  11.098  10.387 -0.1856 -0.1305  0.3035
13721PP      PP23825   2.518   8.327  11.323 -0.0123  0.0876 -0.3061
13722PP      PP23826   9.195  15.072   0.489 -0.1169 -0.2791  0.1742
13723PP      PP23827   8.518   7.731   0.693  0.1302  0.3555 -0.1623
13724PP      PP23828  11.974  14.586  11.412  0.2178 -0.0635  0.1145
13725PP      PP23829  10.945   8.061   2.315  0.0459  0.4621 -0.2219
13726PP      PP23830   7.838   3.520  12.498  0.3519 -0.0369  0.0934
13727PP      PP23831   5.070   8.238   1.321  0.0703 -0.2620  0.0249
13728PP      PP23832   5.428  15.359   1.192  0.3870  0.2106 -0.2961
13729PP      PP23833   7.927  14.853   2.845 -0.2813 -0.0221  0.0016
13730PP      PP23834   0.863   1.436  12.757 -0.1818 -0.0590 -0.1120
13731PP      PP23835   7.491   5.173   0.567  0.0375  0.0223  0.1212
13732PP      PP23836   2.693   2.587   2.276  0.0690 -0.0986  0.4174
13733PP      PP23837   8.071   7.834   0.715 -0.0220  0.0217 -0.1175
13734PP      PP23838  13.257   0.539   0.787 -0.2583  0.1258  0.3377
13735PP      PP23839   6.343  11.388   3.931  0.0897  0.1593  0.1713
13736PP      PP23840   0.255   5.700   2.097  0.0572  0.1967 -0.1229
13737PP      PP23841   1.855   3.966  12.816  0.1609 -0.3237 -0.4924
13738PP      PP23842   6.544   3.753   0.420  0.0287 -0.2466 -0.1514
13739PP      PP23843   7.096   8.270  11.616  0.0327 -0.1450 -0.1468
13740PP      PP23844  13.340  12.738   9.972  0.1321  0.2602 -0.2305
13741PP      PP23845   1.776   9.804   4.504  0.3315 -0.1584 -0.3399
13742PP      PP23846   1.930   9.354  10.231  0.0785 -0.1841  0.1334
13743PP      PP23847  11.170   2.674  11.273 -0.1399 -0.0196 -0.1282
13744PP      PP23848  11.030  10.877  11.790  0.1764  0.0145 -0.0312
13745PP      PP23849   0.820   7.994  13.453  0.0109  0.1164  0.1240
13746PP      PP23850  11.629   7.517   9.657 -0.0280 -0.1392 -0.0527
13747PP      PP23851   1.914   5.180   0.246 -0.1275 -0.1056  0.0917
13748PP      PP23852   7.790   7.485  13.238  0.1570 -0.1778  0.0297
13749PP      PP23853   5.549   9.109  10.704 -0.2756  0.0372  0.2169
13750PP      PP23854   3.652   8.955  10.793 -0.1525 -0.4188 -0.0616
13751PP      PP23855   4.691   3.726   0.217 -0.2763  0.0208  0.0737
13752PP      PP23856  10.570   6.285   9.347 -0.1246 -0.0871  0.1292
13753PP      PP23857   3.870  11.046   0.715  0.2230  0.1173  0.2860
13754PP      PP23858  12.040   7.454   2.914  0.0294  0.3448 -0.0204
13755PP      PP23859  14.487   5.421   1.762 -0.1500  0.0781  0.0134
13756PP      PP23860   0.039   8.760  11.148  0.0276  0.0729 -0.0126
13757PP      PP23861   8.299   7.477   0.278  0.4401 -0.1926 -0.0750
13758PP      PP23862   1.090  12.323   4.050 -0.2111  0.1165 -0.0179
13759PP      PP23863  12.765   3.764  12.033 -0.0106  0.0620  0.1725
13760PP      PP23864   0.192  13.385  10.967 -0.1453 -0.1032 -0.0511
13761PP      PP23865   9.582   1.378   8.347 -0.1967 -0.1165  0.1928
13762PP      PP23866  15.810   8.694   1.898 -0.1763 -0.0232 -0.1853
13763PP      PP23867   3.977  15.335  10.754 -0.2342 -0.0916  0.0972
13764PP      PP23868  14.486   0.962   9.423 -0.0927  0.1858  0.3576
13765PP      PP23869   9.986   5.468   2.798  0.1669  0.0630  0.0269
13766PP      PP23870   4.826   2.578   9.703 -0.0278  0.1458 -0.1097
13767PP      PP23871  15.265   2.203   3.797 -0.1550 -0.0565 -0.0468
13768PP      PP23872  15.371   7.830   3.568  0.2671 -0.0843 -0.0444
13769PP      PP23873   3.045   3.136  10.297 -0.2410  0.1067 -0.0503
13770PP      PP23874   3.717   2.455   2.107  0.0001  0.1671  0.1196
13771PP      PP23875  14.906  13.917  11.636 -0.0940  0.3223 -0.0979
13772PP      PP23876   8.697  12.144   1.260  0.2020  0.1406 -0.0230
13773PP      PP23877  11.002   4.140   3.883  0.0668  0.2461 -0.1158
13774PP      PP23878  12.509  12.159   0.670 -0.0495 -0.2557  0.1023
13775PP      PP23879   6.299  10.739  10.407 -0.1436  0.0318 -0.0368
13776PP      PP23880   0.826  13.195   2.787 -0.0727  0.0673  0.2111
13777PP      PP23881  14.066   5.591   1.493  0.2968 -0.0767  0.2764
13778PP      PP23882  15.084   9.394  13.076  0.0542 -0.2237 -0.0811
13779PP      PP23883   9.307  12.723   1.663  0.0537 -0.0453  0.1330
13780PP      PP23884   7.328   5.003  12.482 -0.1106  0.0529  0.2648
13781PP      PP23885   8.667   8.116   3.077 -0.0067 -0.0016  0.0541
13782PP      PP23886   2.471   4.966  11.015 -0.3790  0.3837  0.1133
13783PP      PP23887  14.950  12.293   4.271  0.1171 -0.0558  0.0842
13784PP      PP23888   8.101   3.858   0.108  0.0803 -0.4094  0.2624
13785PP      PP23889  11.128   1.518  11.282  0.1644 -0.0651  0.1823
13786PP      PP23890  11.060  13.914   0.759  0.0465  0.1366  0.3456
13787PP      PP23891   6.187   7.223   4.328  0.0255  0.0657 -0.1667
13788PP      PP23892   2.608   9.473   1.731 -0.1237 -0.2477 -0.1165
13789PP      PP23893   3.559   3.302   3.409 -0.0654 -0.0017 -0.2198
13790PP      PP23894  10.374   9.737  11.785  0.2474  0.0405 -0.1425
13791PP      PP23895   2.917   4.240  11.251  0.0486 -0.0425 -0.0647
13792PP      PP23896   8.055   6.460   0.961  0.1241  0.2031  0.1125
13793PP      PP23897  12.945  13.118   3.051 -0.0288  0.2479 -0.0464
13794PP      PP23898  13.310   5.474   4.536  0.2298  0.2395 -0.0333
13795PP      PP23899  14.801   2.311  10.031  0.1301 -0.1282  0.3123
13796PP      PP23900  10.841   4.594   0.432 -0.0077  0.1373  0.4648
13797PP      PP23901  11.545  11.528   3.055 -0.1249 -0.0309 -0.2266
13798PP      PP23902   3.608   7.357   2.783  0.2908  0.1723 -0.1594
13799PP      PP23903  14.228   2.446   3.733 -0.1915 -0.0492 -0.1858
13800PP      PP23904   1.384   0.484   1.960 -0.2505  0.1200 -0.1550
13801PP      PP23905  13.392   4.108   1.545  0.1096  0.1467  0.1649
13802PP      PP23906   7.079  13.768  13.333  0.1084 -0.2374  0.0348
13803PP      PP23907   0.521   2.827  12.680 -0.2290  0.2503 -0.2441
13804PP      PP23908   6.641   2.555  13.270 -0.2571  0.3623 -0.0578
13805PP      PP23909   5.410   6.101  10.827  0.1739  0.0393  0.0561
13806PP      PP23910  10.919  14.955   2.258  0.0748 -0.0634 -0.4912
13807PP      PP23911   6.511   5.671   1.735 -0.0330 -0.0230  0.0372
13808PP      PP23912   2.102   1.878  13.505  0.2995 -0.1792  0.0387
13809PP      PP23913   7.442   6.605  12.257 -0.0112 -0.1820 -0.2051
13810PP      PP23914   0.422   2.770   8.852  0.1163  0.3211  0.1833
13811PP      PP23915   8.200   5.910  10.921 -0.0938  0.0375  0.5383
13812PP      PP23916   4.187   2.157   1.681 -0.1542 -0.0630 -0.1663
13813PP      PP23917  12.474   6.919   3.745  0.0878  0.5537  0.0594
13814PP      PP23918   4.500   7.267   1.156  0.0087 -0.0044 -0.1650
13815PP      PP23919   0.742   3.621  12.999 -0.1380 -0.2513 -0.2520
13816PP      PP23920  11.255   4.003   4.327 -0.1058 -0.2479  0.0549
13817PP      PP23921   6.156  13.608   0.109 -0.1155 -0.0065  0.3327
13818PP      PP23922   0.964   1.001  11.903 -0.0563 -0.0776  0.0320
13819PP      PP23923   2.671   1.473   3.308 -0.1011  0.3899  0.1799
13820PP      PP23924   7.605   0.944   1.904  0.4164 -0.1767 -0.2746
13821PP      PP23925  12.170  10.644   0.180  0.1838 -0.3197 -0.0072
13822PP      PP23926  11.744   6.562   2.315 -0.2518  0.0635 -0.0248
13823PP      PP23927  13.117  10.829  10.094  0.2439  0.1662  0.3458
13824PP      PP23928   6.617  13.067  12.795  0.0673 -0.0814  0.2519
13825PP      PP23929   6.099  13.291   2.957 -0.1324  0.4294  0.2538
13826PP      PP23930   0.692  15.055   9.421  0.3843 -0.0354  0.1763
13827PP      PP23931   3.869  12.439   5.380 -0.0323 -0.0003 -0.0319
13828PP      PP23932  10.320  14.530   9.373  0.0024  0.1480  0.1333
13829PP      PP23933   6.632  11.164   2.142 -0.0861  0.0371 -0.1594
13830PP      PP23934   5.269   3.142  12.801  0.0770 -0.2154 -0.2020
13831PP      PP23935   0.148   4.254   9.499  0.2692  0.2085 -0.0167
13832PP      PP23936   4.815  10.675  10.707 -0.2755 -0.2277  0.1914
13833PP      PP23937   2.555  10.000  12.039 -0.1119  0.2786 -0.1609
13834PP      PP23938   6.723   5.219   9.888  0.1331  0.2426  0.1870
13835PP      PP23939   6.523   9.687   2.591 -0.0459  0.0453 -0.3215
13836PP      PP23940  12.058  10.259  10.590  0.0346 -0.0030 -0.1408
13837PP      PP23941   4.642   3.780  11.720 -0.0350  0.3110 -0.3194
13838PP      PP23942  13.280   7.087   2.512  0.0878 -0.1529  0.0035
13839PP      PP23943   5.664  10.666  10.781  0.1557  0.0503 -0.1114
13840PP      PP23944   1.448   7.494   4.898 -0.0544 -0.0525 -0.0807
13841PP      PP23945  10.330  11.191  12.288 -0.2655 -0.2499 -0.0426
13842PP      PP23946   9.241   7.762   2.155  0.1185  0.1063 -0.1081
13843PP      PP23947  15.694   2.704   2.599  0.1512  0.1697  0.0953
13844PP      PP23948   9.423  14.771   3.204 -0.3306 -0.0806 -0.1228
13845PP      PP23949   8.076   5.789   8.338 -0.0394  0.1234 -0.0422
13846PP      PP23950   4.002  11.721   0.277 -0.0274  0.0474  0.0839
13847PP      PP23951   0.193   6.377   1.330  0.0222 -0.1515  0.0108
13848PP      PP23952   9.586  10.469   3.143  0.1342  0.0512 -0.3365
13849PP      PP23953   0.879   8.298   9.977  0.2259 -0.2146 -0.0609
13850PP      PP23954  14.282  14.577   0.629  0.2025 -0.3977  0.0678
13851PP      PP23955   8.812  12.843   9.189 -0.1791  0.1425  0.2377
13852PP      PP23956   1.801  13.147   1.852 -0.1492 -0.0165 -0.0749
13853PP      PP23957   6.681   9.950   1.691 -0.0588 -0.5218 -0.0095
13854PP      PP23958   5.756   2.690   3.578  0.1964  0.2591 -0.0152
13855PP      PP23959   4.107   7.948   0.285  0.0050 -0.3651 -0.2762
13856PP      PP23960   4.974  11.932  11.604  0.1563  0.2190 -0.1109
13857PP      PP23961   3.546  14.219   1.846  0.2605 -0.1375 -0.2834
13858PP      PP23962   0.565   5.744  10.046 -0.0610 -0.0375  0.4070
13859PP      PP23963  10.705  13.536   0.501  0.0711  0.0052 -0.1845
13860PP      PP23964   0.355  10.907  10.547 -0.1122 -0.0843 -0.0373
13861PP      PP23965   2.982   9.463   5.621  0.2022  0.1781  0.0083
13862PP      PP23966   9.093   8.229   9.332  0.0224  0.2814  0.0904
13863PP      PP23967  13.227   0.790   9.587 -0.1088  0.0224 -0.2148
13864PP      PP23968  11.193  12.897  12.394  0.0145  0.1319 -0.0991
13865PP      PP23969  11.311   0.751   0.206 -0.1222  0.1609  0.0751
13866PP      PP23970   2.692   1.952  12.186 -0.0978 -0.0019  0.5821
13867PP      PP23971  10.123   5.203  10.809 -0.0859  0.2769 -0.1090
13868PP      PP23972  14.398   4.313  11.845  0.1637 -0.0507  0.4840
13869PP      PP23973  12.327   7.611   9.734 -0.1861  0.0648 -0.1679
13870PP      PP23974   2.215  14.200   2.116  0.1164 -0.1348 -0.1697
13871PP      PP23975   8.540   9.680   0.700 -0.0579 -0.2019 -0.0861
13872PP      PP23976  15.528  14.521  12.833  0.0015 -0.1746 -0.2805
13873PP      PP23977   3.311   7.731  12.684 -0.1406  0.2023 -0.0443
13874PP      PP23978   1.479   9.200  10.665 -0.1435  0.1916  0.0569
13875PP      PP23979  13.594  13.608  12.638  0.2209 -0.2751 -0.0280
13876PP      PP23980  13.351  11.122  11.984  0.1004  0.0699  0.1828
13877PP      PP23981   7.155  14.673  11.287 -0.3439 -0.2168 -0.3374
13878PP      PP23982   7.007   6.818  11.088 -0.2838 -0.1314 -0.0895
13879PP      PP23983   1.808   4.787  11.649 -0.0385  0.0178 -0.2510
13880PP      PP23984   6.444   3.378   0.122 -0.3103  0.1167 -0.0916
13881PP      PP23985   5.701  12.606   1.618 -0.0862 -0.2801 -0.2108
13882PP      PP23986  14.252   6.502  10.649 -0.1039  0.2434 -0.1259
13883PP      PP23987   3.846  10.887   9.346 -0.0475  0.0692  0.1957
13884PP      PP23988  12.994  13.042  11.868 -0.2554  0.0644 -0.1609
13885PP      PP23989   1.133   5.378  13.417  0.0777  0.0437  0.1419
13886PP      PP23990   2.376  12.562   0.100  0.2807 -0.2045 -0.0633
13887PP      PP23991   0.332   6.823   1.091  0.2083  0.0229  0.1768
13888PP      PP23992   9.734   5.769   1.976 -0.0422  0.0746  0.0870
13889PP      PP23993   6.868  14.424   9.647  0.2708 -0.1050 -0.4740
13890PP      PP23994  10.046  12.908   4.016 -0.0260 -0.0787 -0.2271
13891PP      PP23995  12.717  12.762   2.117 -0.1946 -0.2710 -0.0766
13892PP      PP23996   5.931   0.753   7.362 -0.3262 -0.0816 -0.1214
13893PP      PP23997   3.920  13.700   3.469 -0.0099  0.1415 -0.0137
13894PP      PP23998  10.456  14.693  13.123  0.0381 -0.2737 -0.3265
13895PP      PP23999   8.370  14.868   2.569 -0.0690  0.2348 -0.0830
13896PP      PP24000   7.872   1.440   0.809 -0.3088  0.2652  0.1667
13897PP      PP24001   0.757   9.269  11.541  0.2726 -0.0976  0.1134
13898PP      PP24002   5.232  10.369   2.916 -0.1950 -0.2104  0.1298
13899PP      PP24003  12.818  12.594  12.043  0.1082  0.1905 -0.1805
13900PP      PP24004   4.073   9.136   2.436  0.0066 -0.0192  0.0472
13901PP      PP24005   0.107   2.080   2.550 -0.1984  0.0848  0.1188
13902PP      PP24006   8.193  13.700  12.487 -0.0491  0.1733  0.1371
13903PP      PP24007   2.506   3.947  12.878 -0.0418 -0.0958 -0.0353
13904PP      PP24008   6.511  11.142   3.259  0.0666  0.1510  0.2711
13905PP      PP24009   6.880  10.823  12.133 -0.0077  0.2972 -0.1299
13906PP      PP24010   0.872  15.550  12.309 -0.2959  0.2243  0.2349
13907PP      PP24011   1.706   2.912   9.984 -0.4867 -0.0120  0.2852
13908PP      PP24012   7.106   2.681   0.748  0.0527 -0.1406 -0.1087
13909PP      PP24013   7.241   5.264   3.664  0.2269 -0.3424 -0.1975
13910PP      PP24014   8.365  10.928   9.216 -0.0615 -0.2836  0.1942
13911PP      PP24015   4.376   5.337   0.989 -0.1141  0.1050  0.1850
13912PP      PP24016  14.540  14.035   2.077  0.0846  0.0825 -0.0398
13913PP      PP24017  11.433  10.673   9.608  0.1181 -0.1502  0.0320
13914PP      PP24018   1.961  13.457  12.786 -0.0377 -0.0053  0.2104
13915PP      PP24019  11.028  10.068   5.234  0.1105  0.3186 -0.1106
13916PP      PP24020   7.843   9.918   1.428  0.1182 -0.1036 -0.3874
13917PP      PP24021   6.126  14.552   8.085  0.3491  0.2624  0.0706
13918PP      PP24022  14.353   9.546   2.286 -0.2325 -0.2616 -0.1337
13919PP      PP24023   9.624   7.270  10.823  0.0247 -0.0309 -0.3365
13920PP      PP24024   7.937   3.759  13.080 -0.1550  0.1022 -0.2386
13921PP      PP24025   6.824   4.605   2.392 -0.3359  0.0225  0.0649
13922PP      PP24026   8.403  10.256   3.595  0.3671 -0.0693 -0.2261
13923PP      PP24027  13.045   0.661  12.580 -0.1783  0.1662 -0.2213
13924PP      PP24028  13.659   8.643   0.643 -0.1195 -0.2693  0.1235
13925PP      PP24029  14.459  14.316  13.183  0.0959  0.0998  0.1410
13926PP      PP24030   3.310  12.923  12.510  0.3738  0.3121  0.3543
13927PP      PP24031   1.020   7.974   3.075  0.1114 -0.0603  0.0541
13928PP      PP24032  15.591  10.325   2.608  0.2008 -0.2418 -0.0027
13929PP      PP24033   5.206   9.050  11.007  0.0406  0.0754 -0.0869
13930PP      PP24034   5.693   2.363   8.745  0.0174  0.0808 -0.1723
13931PP      PP24035  11.500   6.202  11.417 -0.1232 -0.0432  0.2498
13932PP      PP24036  13.157   1.346   9.435  0.1247 -0.4827 -0.0293
13933PP      PP24037   6.950   7.082   3.137  0.2248  0.1783  0.2869
13934PP      PP24038  12.516  15.362  12.016  0.3201 -0.1463 -0.0003
13935PP      PP24039   7.499   9.205   0.818 -0.0923  0.2341  0.2777
13936PP      PP24040  13.774   4.753   1.228 -0.0861  0.0524 -0.2376
13937PP      PP24041   8.586   6.500  12.326  0.0778  0.0697  0.1325
13938PP      PP24042  15.198   5.139  10.939 -0.4133 -0.0000 -0.0048
13939PP      PP24043   6.337   8.492  12.911 -0.2361 -0.0929 -0.1656
13940PP      PP24044  11.089  11.469  10.884 -0.0379  0.4559  0.3209
13941PP      PP24045   4.490   5.991   2.209  0.1369 -0.0112  0.0599
13942PP      PP24046   8.539   4.573   8.498 -0.0643  0.2893 -0.3236
13943PP      PP24047   0.625   3.142  13.094 -0.0585  0.2591  0.1903
13944PP      PP24048   9.769  11.348  12.095  0.1923  0.0050 -0.0144
13945PP      PP24049   1.190  14.298   2.164  0.3164  0.1089  0.0670
13946PP      PP24050   2.405  11.624   4.302 -0.0630 -0.2410 -0.0776
13947PP      PP24051  10.906  11.786   0.098 -0.2131  0.1901  0.1383
13948PP      PP24052   2.649   8.768  11.579 -0.1302  0.2973 -0.1659
13949PP      PP24053  12.130   5.904   8.877  0.2094  0.0754  0.1954
13950PP      PP24054   7.392   0.452  12.507  0.0142 -0.0634  0.2265
13951PP      PP24055  10.058  11.269   2.229  0.2633  0.1066 -0.0967
13952PP      PP24056   9.844  10.933  13.005 -0.2620 -0.2204  0.2441
13953PP      PP24057  12.297  12.603  13.405  0.2045 -0.2332 -0.2219
13954PP      PP24058   6.453   9.520  10.934  0.2134  0.1837  0.0940
13955PP      PP24059   3.904   4.789  12.693 -0.2776 -0.1711  0.0589
13956PP      PP24060  15.389  15.658   0.115 -0.0173 -0.2142  0.0954
13957PP      PP24061   3.720   8.984   2.126 -0.0235 -0.1215 -0.1133
13958PP      PP24062  15.719  14.741   1.116 -0.1802  0.0485 -0.3423
13959PP      PP24063  10.877   8.101   9.889  0.4680  0.1553  0.0739
13960PP      PP24064   0.200   9.099   0.052  0.1454 -0.0846  0.3841
13961PP      PP24065   1.043  14.120   9.571  0.1609 -0.3358  0.0861
13962PP      PP24066   4.555   0.861   3.725 -0.0743  0.0817 -0.5359
13963PP      PP24067   8.471   4.986  12.773  0.1702  0.2321 -0.4097
13964PP      PP24068  13.024   9.534   0.574 -0.1442 -0.1422 -0.0904
13965PP      PP24069  10.639   6.068   4.363 -0.3868  0.0205 -0.1023
13966PP      PP24070   1.691   2.711   2.396 -0.1309  0.2205  0.1757
13967PP      PP24071  13.757   2.252   0.147 -0.1753 -0.3285 -0.1417
13968PP      PP24072   1.517  10.191   4.889  0.0880  0.3342 -0.1215
13969PP      PP24073  11.215  13.725  10.929 -0.0422 -0.1850 -0.2179
13970PP      PP24074  15.454  11.011   1.263 -0.0156 -0.4092 -0.1837
13971PP      PP24075  13.396   7.556   9.861  0.1182  0.0230  0.0923
13972PP      PP24076  13.174   9.595   3.428  0.1060 -0.3827  0.1544
13973PP      PP24077  12.794   9.949   1.450 -0.2367  0.2097 -0.3147
13974PP      PP24078  10.870  12.606  10.174 -0.0142  0.1349 -0.3766
13975PP      PP24079  14.597   8.324   3.482 -0.1777  0.1196  0.0807
13976PP      PP24080   1.987  12.284   3.287  0.4215 -0.1638 -0.1615
13977PP      PP24081   4.340  12.971  12.355  0.4010 -0.1738  0.1475
13978PP      PP24082  15.289   0.637  11.885  0.0126 -0.0598 -0.2153
13979PP      PP24083   8.608  12.235   2.184 -0.3400 -0.2318  0.0227
13980PP      PP24084   3.272   4.173   2.545 -0.2623  0.4513 -0.0459
13981PP      PP24085   2.640  15.159  13.244  0.0434  0.2080  0.0642
13982PP      PP24086  12.221   0.499   3.719  0.2746 -0.1722  0.2105
13983PP      PP24087   4.610   4.078  12.180  0.3336 -0.0383 -0.2372
13984PP      PP24088   2.801  14.159   9.911 -0.0224  0.0637  0.3978
13985PP      PP24089  13.858  11.736  12.935  0.1238  0.1056  0.0722
13986PP      PP24090   4.321  10.461   0.957  0.1466 -0.1273 -0.3154
13987PP      PP24091   8.361  14.995   1.034  0.0852 -0.0894  0.3757
13988PP      PP24092  14.171   3.983  11.475  0.1055 -0.1395  0.0939
13989PP      PP24093  11.317  15.528   2.072  0.0345 -0.0580 -0.3171
13990PP      PP24094   4.262  11.939   1.945  0.0303 -0.1754 -0.1258
13991PP      PP24095  15.642   6.596   2.261 -0.1822 -0.0960 -0.6210
13992PP      PP24096  10.185   0.579   9.994  0.1063  0.1858  0.0813
13993PP      PP24097   1.831  13.815   9.592  0.0269  0.1521  0.2163
13994PP      PP24098   2.295   9.507   1.242  0.0730  0.1014  0.1808
13995PP      PP24099   0.472   1.821   1.968 -0.1551 -0.0323 -0.0113
13996PP      PP24100   0.049   2.831   4.242 -0.0520 -0.0028 -0.2948
13997PP      PP24101  10.701  10.327  11.083 -0.2571 -0.0158 -0.3622
13998PP      PP24102  14.519  12.454   4.576 -0.0632  0.4458 -0.1754
13999PP      PP24103   4.898   8.295   0.584  0.2582 -0.0177  0.0148
14000PP      PP24104   9.867   8.088   4.581 -0.0211 -0.0427  0.0864
14001PP      PP24105   6.371   3.422   9.505  0.0068 -0.0212 -0.2622
14002PP      PP24106   5.359  14.421   8.626  0.2170  0.2606 -0.1702
14003PP      PP24107  13.733  10.754   4.775 -0.1416 -0.0881 -0.2189
14004PP      PP24108   9.915   8.308  13.398  0.2224 -0.1525  0.1776
14005PP      PP24109   0.772   5.764  11.284 -0.2212  0.2263 -0.1073
14006PP      PP24110   7.111   1.721  13.183 -0.1232 -0.1078 -0.1729
14007PP      PP24111  12.462   5.820   1.285  0.1349  0.0925  0.2265
14008PP      PP24112   9.993  14.555  11.317 -0.0792  0.2572 -0.6185
14009PP      PP24113   3.040   1.356   9.863  0.3318 -0.0502 -0.1606
14010PP      PP24114  13.837  12.417   5.188 -0.0356  0.3773  0.2566
14011PP      PP24115   7.245   1.814   1.623  0.6043  0.0312  0.0778
14012PP      PP24116   6.115   4.096  11.043  0.1159  0.0062  0.0498
14013PP      PP24117  14.138   8.289   3.697 -0.3703  0.0258  0.1891
14014PP      PP24118   9.485   9.243   0.271  0.1623  0.1374  0.0196
14015PP      PP24119   7.243   6.028   9.612 -0.0168  0.1850  0.1270
14016PP      PP24120  13.337   8.705   0.052 -0.2560  0.0732 -0.1124
14017PP      PP24121   2.125  14.858  12.473  0.4919 -0.2064  0.2378
14018PP      PP24122   9.671   2.952  12.970 -0.1120 -0.1732 -0.0225
14019PP      PP24123   5.779   9.180  11.212  0.1115 -0.1937 -0.1357
14020PP      PP24124   3.978  11.736   4.281 -0.0059  0.1260 -0.2898
14021PP      PP24125  13.474   9.718  10.753 -0.0597  0.0848 -0.0664
14022PP      PP24126   9.890  13.517  11.225 -0.1828  0.1157 -0.0563
14023PP      PP24127   7.217   0.399   9.873 -0.1967  0.1026 -0.0084
14024PP      PP24128  14.882   1.498   0.300 -0.0367 -0.1494  0.1069
14025PP      PP24129   7.564   5.732   0.417 -0.2231  0.1717  0.0364
14026PP      PP24130   8.629   0.906  11.461  0.1514  0.0776 -0.2385
14027PP      PP24131   4.292   0.278   8.651  0.0221  0.4913 -0.5127
14028PP      PP24132   1.143  13.305   4.191  0.1026  0.0874 -0.1369
14029PP      PP24133  10.733  11.168   3.597  0.0680  0.2152 -0.1311
14030PP      PP24134  13.636   4.007   2.028  0.1460 -0.1562  0.2590
14031PP      PP24135  13.946  14.294  11.213 -0.0032  0.3085 -0.0562
14032PP      PP24136  13.527  13.521   0.423  0.1119  0.2998 -0.0556
14033PP      PP24137  10.644   4.205   9.993 -0.2167 -0.0912 -0.2899
14034PP      PP24138  14.274  10.671   1.466  0.2975  0.2823  0.0732
14035PP      PP24139   7.058  11.867   2.846 -0.0246 -0.3112  0.2303
14036PP      PP24140  11.942   8.886   3.593  0.0029 -0.3353 -0.0916
14037PP      PP24141  12.834   9.318   0.129  0.1000  0.0113 -0.1261
14038PP      PP24142   5.819   2.204   3.174  0.0995 -0.2609 -0.1003
14039PP      PP24143   8.516   1.690   2.471 -0.0165 -0.0595 -0.2059
14040PP      PP24144  13.452  11.007   2.515 -0.3240 -0.0356 -0.0749
14041PP      PP24145   7.379  13.624   3.279 -0.1656 -0.0035 -0.0647
14042PP      PP24146   8.054  12.237   3.404  0.1965  0.0405 -0.0944
14043PP      PP24147  11.540  15.574   3.951  0.0901 -0.0923 -0.0765
14044PP      PP24148  11.965  10.301   5.462  0.0427  0.1431  0.0213
14045PP      PP24149   7.427  11.800   4.301  0.1213  0.0581 -0.0732
14046PP      PP24150   7.679   6.760  11.408  0.0245 -0.0466  0.4377
14047PP      PP24151  10.286   3.705  13.471 -0.3903  0.0259 -0.0617
14048PP      PP24152   4.200   7.746  13.384  0.0205 -0.1727 -0.0596
14049PP      PP24153   4.692   5.762  10.397  0.1314 -0.0913 -0.0319
14050PP      PP24154   5.854   5.358   1.177  0.3574  0.3735 -0.0848
14051PP      PP24155  10.807   8.619  12.017  0.0717 -0.3059  0.1485
14052PP      PP24156  12.444  12.953   2.911  0.0854  0.1718  0.2300
14053PP      PP24157  12.502   3.111   1.770 -0.2030 -0.0385 -0.0366
14054PP      PP24158  10.027  11.037  11.341  0.2004 -0.1956  0.1934
14055PP      PP24159   1.501   5.968  11.201  0.2438 -0.2941 -0.1163
14056PP      PP24160   7.123   8.724   1.487  0.0085  0.0461 -0.2326
14057PP      PP24161   9.257   9.595  10.593  0.1899  0.0262 -0.0598
14058PP      PP24162   9.743   2.109   2.620 -0.0689  0.0735  0.0135
14059PP      PP24163  13.641   0.151   4.151  0.2331 -0.0684 -0.0638
14060PP      PP24164   9.782   9.316  12.887  0.2259 -0.1937 -0.1924
14061PP      PP24165   9.188   9.192   9.570 -0.0581  0.2647  0.1583
14062PP      PP24166  10.238   3.340  11.925  0.0834  0.1845 -0.0017
14063PP      PP24167  12.668   5.514   0.443 -0.1021 -0.0129 -0.1588
14064PP      PP24168   7.558   3.725   9.839 -0.0045 -0.3722 -0.3063
14065PP      PP24169   6.069   5.752   1.405  0.0525  0.1835  0.4415
14066PP      PP24170   7.755  15.392   0.836  0.1065 -0.2026  0.1351
14067PP      PP24171   0.069   0.021  11.769  0.3317 -0.3998  0.0472
14068PP      PP24172   0.120   5.398  12.001  0.0848 -0.0088  0.2683
14069PP      PP24173   0.800   7.093  12.763  0.2031  0.3771  0.2631
14070PP      PP24174   8.287  14.228  10.434  0.1420 -0.3833 -0.2157
14071PP      PP24175   0.111   7.197  10.027 -0.0789  0.1400  0.0971
14072PP      PP24176   0.788   2.833   2.677  0.0622  0.1437  0.0555
14073PP      PP24177  15.197   2.785   8.721 -0.1675 -0.0039  0.1099
14074PP      PP24178  12.233  12.638   0.989 -0.2341  0.1629 -0.3003
14075PP      PP24179   9.488   0.561  11.484 -0.1548  0.0391  0.1007
14076PP      PP24180  10.616   5.839   3.094  0.1249 -0.0507  0.0212
14077PP      PP24181  13.927   1.660  10.916 -0.1206 -0.0810  0.1978
14078PP      PP24182  15.631   9.398   1.201 -0.2173 -0.0140  0.3844
14079PP      PP24183  12.274   1.869  11.797 -0.0566 -0.1162  0.0541
14080PP      PP24184  13.640  10.221  10.250 -0.1240  0.5281  0.1694
14081PP      PP24185  14.189   7.610  11.134 -0.2087  0.1622  0.0459
14082PP      PP24186   0.179   1.987  11.168 -0.0849  0.1282  0.0446
14083PP      PP24187  10.126   5.765   3.202  0.0000  0.0931 -0.0842
14084PP      PP24188   9.302   3.006   8.911  0.0401  0.0048  0.0509
14085PP      PP24189  11.329  10.481  11.858 -0.1023 -0.1659 -0.1691
14086PP      PP24190   7.302   8.944   9.372  0.2755  0.1147 -0.0445
14087PP      PP24191  10.752   5.112  12.492 -0.1324 -0.1986  0.3033
14088PP      PP24192   7.035   3.571   2.964  0.0478  0.2959 -0.2408
14089PP      PP24193  14.184   7.876   1.430  0.2274  0.1730 -0.0486
14090PP      PP24194   0.488   0.751   2.194  0.1956 -0.0456  0.1095
14091PP      PP24195  11.134  14.216   3.381  0.1731  0.0071 -0.0147
14092PP      PP24196  11.631   4.249   2.661  0.1958 -0.1036 -0.2365
14093PP      PP24197  14.507   0.872  11.301  0.0194  0.0615 -0.0179
14094PP      PP24198   4.150   4.978  13.076  0.0253 -0.0306  0.0864
14095PP      PP24199  12.311  10.903  12.784 -0.4442  0.1701 -0.2406
14096PP      PP24200  14.727  10.441  11.285  0.0248  0.0959 -0.0722
14097PP      PP24201  10.398   0.037  11.813  0.1417  0.1079  0.1321
14098PP      PP24202   1.772   9.334   2.401 -0.2260 -0.2884  0.0557
14099PP      PP24203   0.858   6.468   3.753  0.0355  0.0727  0.1929
14100PP      PP24204   7.595  13.257   9.683  0.1211 -0.1943  0.1838
14101PP      PP24205   3.681  10.289  10.592  0.1420 -0.1651 -0.2287
14102PP      PP24206   6.991   5.201  12.077  0.1835 -0.1579  0.1055
14103PP      PP24207   4.076  14.967   9.889 -0.0107  0.0426 -0.1279
14104PP      PP24208  11.132   1.584   3.742 -0.1985  0.5454  0.1415
14105PP      PP24209   7.222  15.165  11.951 -0.1865  0.5483  0.2348
14106PP      PP24210  11.907   9.660   2.267  0.1404 -0.0053  0.1619
14107PP      PP24211  14.605   2.020  12.665 -0.1529  0.2793  0.1592
14108PP      PP24212   9.588   7.565  12.695  0.3356  0.1900 -0.1444
14109PP      PP24213   4.434   7.989   3.974  0.0963 -0.2719  0.4895
14110PP      PP24214  10.435  13.879  12.437 -0.0503 -0.2537  0.3012
14111PP      PP24215   5.176   4.535  10.580  0.1497 -0.2950  0.0461
14112PP      PP24216  15.680  13.732   4.161  0.2396 -0.1759  0.1049
14113PP      PP24217   1.033   5.715   0.460 -0.4412  0.2865 -0.0407
14114PP      PP24218  14.843   4.327   3.248 -0.1858 -0.0902  0.4004
14115PP      PP24219   2.634  12.930   2.319 -0.0739 -0.2564 -0.0566
14116PP      PP24220   1.269  11.539   3.507 -0.0671  0.0619 -0.1562
14117PP      PP24221  14.495  12.700   0.652 -0.1519 -0.0018  0.1817
14118PP      PP24222  13.544  15.195  11.932  0.1011 -0.0709  0.0974
14119PP      PP24223  15.414   4.486   3.867 -0.1783 -0.1284  0.0187
14120PP      PP24224   8.958   1.473   2.330  0.1042 -0.3103  0.0397
14121PP      PP24225  13.887   4.162   3.081  0.0194 -0.0281 -0.0670
14122PP      PP24226   6.488   1.636   9.969  0.2325  0.1105 -0.0294
14123PP      PP24227   3.907   7.593   3.430 -0.0727  0.0937 -0.1308
14124PP      PP24228  12.479  11.863   2.047 -0.2492 -0.0574 -0.0064
14125PP      PP24229  14.739  12.285   0.581  0.0023  0.0194  0.0343
14126PP      PP24230   0.763   4.369   0.011 -0.1766  0.2208 -0.0538
14127PP      PP24231   5.736  11.187  13.061 -0.0751  0.0714  0.1195
14128PP      PP24232   0.522   2.171  10.177  0.1242 -0.3319  0.0015
14129PP      PP24233   9.713  13.969  13.223 -0.2789 -0.0271  0.1908
14130PP      PP24234  13.159   3.639   3.159  0.2803 -0.1390  0.2469
14131PP      PP24235  10.164   1.354  12.454 -0.2223 -0.2947 -0.0576
14132PP      PP24236   8.907   4.886   8.723 -0.0200 -0.1320  0.1363
14133PP      PP24237   0.475  10.095   3.280 -0.1083 -0.0363 -0.5208
14134PP      PP24238  12.330   0.939   2.780 -0.1899  0.1430  0.0025
14135PP      PP24239   8.722  14.138   2.679  0.2199  0.0329 -0.3528
14136PP      PP24240  15.707   2.348  12.626  0.2470 -0.0498  0.0646
14137PP      PP24241  12.633   4.879   9.776 -0.0809  0.1314  0.0169
14138PP      PP24242  13.346   9.679   4.307 -0.0908  0.0193 -0.0772
14139PP      PP24243   3.829  11.216  12.782 -0.3433  0.1674 -0.1530
14140PP      PP24244   4.723   1.270  10.176  0.1033 -0.2451  0.2552
14141PP      PP24245  13.330  14.591  11.366 -0.1512  0.1823  0.2264
14142PP      PP24246   6.790   3.605   8.762 -0.0192  0.0966  0.0823
14143PP      PP24247   0.668  12.688  10.304  0.0622 -0.0887 -0.1144
14144PP      PP24248   3.294   5.420   3.019 -0.2607  0.0778  0.0853
14145PP      PP24249   5.688   4.097   2.893  0.0242  0.2469 -0.3114
14146PP      PP24250  11.516   7.343  12.902 -0.2615  0.0187  0.1818
14147PP      PP24251   7.156  11.050  11.604  0.2412  0.1286 -0.1974
14148PP      PP24252  12.249  10.501   3.975 -0.0416 -0.0340  0.4478
14149PP      PP24253   5.589   2.438   1.791 -0.1456 -0.1119  0.0420
14150PP      PP24254  10.784   3.497   0.776  0.1444  0.3659  0.1723
14151PP      PP24255   9.215   2.804   2.035  0.1826  0.0108  0.3370
14152PP      PP24256   9.836   4.680   2.219 -0.0746  0.0864 -0.0053
14153PP      PP24257  14.395  10.410  10.380 -0.3156  0.0325  0.0843
14154PP      PP24258  12.749   9.486  11.833 -0.0804  0.1968  0.0079
14155PP      PP24259   3.364  13.697  13.267 -0.0366  0.2848  0.3661
14156PP      PP24260  12.872   6.626  11.576  0.1218 -0.2584 -0.1626
14157PP      PP24261   3.189   9.849   0.747 -0.0960 -0.3967  0.0545
14158PP      PP24262   7.841   5.468   9.787 -0.3028  0.0497 -0.3824
14159PP      PP24263   1.626   3.671  11.198  0.4522 -0.1254 -0.2364
14160PP      PP24264  12.980   4.754  12.869 -0.1413  0.0872  0.0668
14161PP      PP24265  12.960  10.050   0.981 -0.2644  0.2470 -0.1529
14162PP      PP24266  14.351   2.390  12.852 -0.0561 -0.2200 -0.0110
14163PP      PP24267  14.092   3.738   3.945 -0.0652 -0.2409 -0.4340
14164PP      PP24268  11.278  13.988   0.306 -0.2563  0.1284  0.1879
14165PP      PP24269   3.797   1.250   3.143  0.0280  0.3428 -0.0425
14166PP      PP24270   1.783  14.161   4.532 -0.3167 -0.0048  0.0792
14167PP      PP24271   1.364   4.812   9.601 -0.0258  0.0411  0.0590
14168PP      PP24272  13.076   9.060   5.133 -0.3617  0.0370  0.1067
14169PP      PP24273   6.116   7.064  13.388  0.1855  0.1269 -0.0072
14170PP      PP24274   4.159   7.032   4.225 -0.0185 -0.1590  0.2919
14171PP      PP24275   0.882   8.627  13.212  0.0608 -0.0197  0.1819
14172PP      PP24276   8.885   2.462  13.092 -0.0028 -0.3153  0.0396
14173PP      PP24277   2.386  15.621   2.270  0.1838  0.0263  0.2944
14174PP      PP24278   5.442   6.289   3.303 -0.2102  0.1052  0.0143
14175PP      PP24279   4.358  13.336  12.872 -0.0397  0.0276 -0.2700
14176PP      PP24280   3.443   0.157  13.471 -0.1593 -0.1894 -0.1464
14177PP      PP24281  14.749  15.363   9.423 -0.0461 -0.1546  0.0308
14178PP      PP24282   1.399   6.283  10.597 -0.0216 -0.1249  0.0297
14179PP      PP24283   5.529   4.007   3.851 -0.1376 -0.1363  0.1924
14180PP      PP24284   2.325   1.304  10.614 -0.1690  0.1180  0.1646
14181PP      PP24285  11.238  13.668  10.453 -0.1941  0.0256 -0.1080
14182PP      PP24286   7.873   4.425   9.301 -0.0315  0.0071 -0.0391
14183PP      PP24287   9.867  13.848  10.271 -0.2764  0.3335 -0.0353
14184PP      PP24288   8.359   4.916   3.809  0.1453 -0.0991  0.4561
14185PP      PP24289  13.157  10.463  10.807  0.0149 -0.3072 -0.0171
14186PP      PP24290   2.976   0.604   3.120 -0.1444 -0.2746  0.3175
14187PP      PP24291   0.414   0.838  11.540 -0.0607 -0.0279 -0.1419
14188PP      PP24292  15.569  13.610  10.832  0.2109 -0.0356 -0.1048
14189PP      PP24293   2.173  11.911   1.947  0.2260 -0.2107  0.0095
14190PP      PP24294   5.297   0.368  10.576 -0.0576  0.1354 -0.1375
14191PP      PP24295   2.764   7.161   1.050  0.0695  0.1712  0.1597
14192PP      PP24296   9.084  12.916   8.581 -0.0847  0.2515 -0.0351
14193PP      PP24297   2.467  15.216   4.358 -0.0974 -0.0168  0.0293
14194PP      PP24298   7.034  13.438  10.448  0.0407 -0.0567  0.2650
14195PP      PP24299   6.653  12.143   8.722 -0.3116 -0.2889 -0.1625
14196PP      PP24300   7.230   3.993   3.152 -0.0664 -0.0172 -0.0622
14197PP      PP24301   7.019   2.290   2.441 -0.3062  0.1335  0.1275
14198PP      PP24302   3.202  11.697  11.082 -0.1133 -0.2913  0.4087
14199PP      PP24303   3.562   6.543   9.047 -0.2737 -0.1624  0.1125
14200PP      PP24304  11.948   5.253  10.204  0.2479  0.2164 -0.1019
14201PP      PP24305   0.855  10.574  12.003 -0.2201 -0.0862  0.0856
14202PP      PP24306   8.279   6.161   8.601  0.1519 -0.5046  0.2656
14203PP      PP24307  10.454  15.812   4.713  0.0164  0.1341  0.1660
14204PP      PP24308   6.652  10.245   2.240 -0.0197 -0.1977 -0.2007
14205PP      PP24309  14.731   0.450   0.044  0.0907  0.1213 -0.3063
14206PP      PP24310   7.423   6.247  11.872  0.1147 -0.1011  0.0089
14207PP      PP24311   7.144  10.477  11.872 -0.2735  0.0846 -0.0310
14208PP      PP24312   7.315  14.794   1.558  0.1017 -0.4198 -0.3009
14209PP      PP24313   9.410   2.679   2.678 -0.0478 -0.0469 -0.0685
14210PP      PP24314   5.369   1.950  11.782  0.4824  0.3546 -0.2493
14211PP      PP24315  14.869   5.632   1.058 -0.0672 -0.1179 -0.1561
14212PP      PP24316   3.331   7.239   4.856 -0.2420 -0.0410  0.1189
14213PP      PP24317  13.885   2.996  11.304 -0.0482  0.1319  0.1514
14214PP      PP24318   8.286  11.987   1.479  0.1923 -0.1959 -0.3702
14215PP      PP24319   2.544   4.895   1.668 -0.0583  0.0173  0.1401
14216PP      PP24320   1.513   5.639   1.256 -0.0273 -0.1835  0.0544
14217PP      PP24321   8.816   4.985   9.703  0.1943 -0.0207 -0.0996
14218PP      PP24322  10.737  13.068   0.228 -0.2009  0.0554  0.2149
14219PP      PP24323  11.907  10.291  13.477  0.4083 -0.1097  0.0534
14220PP      PP24324   8.033   1.887   0.989  0.0576  0.1134 -0.1322
14221PP      PP24325   8.655  13.080  12.607  0.3748  0.0666 -0.1924
14222PP      PP24326  10.200   0.343   3.869 -0.1200  0.1819 -0.0846
14223PP      PP24327   9.130   0.299  11.044 -0.0634  0.2340 -0.3148
14224PP      PP24328  13.624  10.238  10.761  0.1564  0.1048 -0.0855
14225PP      PP24329   5.207  14.592  10.914  0.2358  0.2758  0.1388
14226PP      PP24330   0.163   2.642   3.504  0.0951 -0.3690 -0.0227
14227PP      PP24331  15.632  10.201   4.351 -0.1708 -0.0500 -0.3285
14228PP      PP24332   7.102   5.577   8.557 -0.0490 -0.0677  0.1878
14229PP      PP24333  15.247   1.488  12.080  0.1888  0.0531  0.2320
14230PP      PP24334   7.225  12.779   3.664 -0.0717  0.0065 -0.1467
14231PP      PP24335   1.571   7.742  10.234 -0.1558  0.0432 -0.1811
14232PP      PP24336   0.875   8.190   2.025 -0.1617  0.1958 -0.1830
14233PP      PP24337   1.194   3.933  11.937  0.1703 -0.4037  0.1319
14234PP      PP24338   7.468  11.967  11.447 -0.0342  0.0089 -0.0351
14235PP      PP24339   0.887   3.497   4.168  0.0252 -0.1194  0.0154
14236PP      PP24340   1.597   0.412   0.019  0.0125  0.2332 -0.1153
14237PP      PP24341   7.728  11.887   3.487 -0.0219  0.4264  0.1405
14238PP      PP24342   0.184   9.753   5.635 -0.0697  0.1240  0.0110
14239PP      PP24343   9.517   2.304  13.463  0.2612 -0.0292  0.0093
14240PP      PP24344  14.975   7.434  13.513 -0.0281  0.1570  0.0931
14241PP      PP24345   0.490  11.825  12.745  0.0416 -0.0024  0.1241
14242PP      PP24346  11.427   2.691  13.071  0.0710  0.1101  0.4963
14243PP      PP24347   9.597  12.154   9.262 -0.1220  0.0064 -0.1947
14244PP      PP24348  10.275  13.438  13.155 -0.0842  0.0506 -0.2251
14245PP      PP24349   9.918  11.257   0.288  0.2878  0.0891  0.0042
14246PP      PP24350   4.052  14.425   0.392  0.0429 -0.0370 -0.1132
14247PP      PP24351   4.782   3.973   0.692 -0.2933  0.1181 -0.3829
14248PP      PP24352  12.929  11.961   4.723 -0.0188 -0.2587  0.0768
14249PP      PP24353   7.177   5.852   3.103  0.2343 -0.0127 -0.3770
14250PP      PP24354  11.808  11.357  11.652  0.1682  0.1432  0.2538
14251PP      PP24355   4.206   6.730   2.272  0.3136  0.1331 -0.2183
14252PP      PP24356   3.155  15.237   2.528  0.0347  0.3543  0.2635
14253PP      PP24357   2.484  10.196  10.073 -0.1099 -0.0333  0.2709
14254PP      PP24358   1.196  15.718   3.927 -0.0668 -0.1772  0.1815
14255PP      PP24359   5.283  10.113   1.570 -0.0187 -0.0175 -0.0689
14256PP      PP24360  11.371   7.815   0.159  0.0127  0.0320 -0.1093
14257PP      PP24361   2.500   1.095  13.021 -0.2258 -0.3544  0.0394
14258PP      PP24362   7.944  12.265   2.947  0.0542  0.1474  0.1209
14259PP      PP24363   9.068   3.251   1.695 -0.1437 -0.0886  0.0965
14260PP      PP24364   2.908   0.326  10.376  0.2583  0.4503  0.1247
14261PP      PP24365   4.399  13.590  13.397  0.0258 -0.3945 -0.1378
14262PP      PP24366   3.569  15.148  11.600 -0.0427 -0.0271  0.0478
14263PP      PP24367  15.180   3.971   2.513 -0.1935 -0.0995 -0.0866
14264PP      PP24368  13.457  11.887  10.286 -0.4056  0.0721 -0.0740
14265PP      PP24369  11.075  14.653  12.555 -0.0799  0.4196  0.0053
14266PP      PP24370   0.009   0.151   2.828  0.0035 -0.0971  0.0500
14267PP      PP24371   7.034  13.986   8.086 -0.1998  0.2972 -0.1645
14268PP      PP24372   5.778   8.388  11.486 -0.2213  0.2178 -0.0982
14269PP      PP24373   4.533   0.693  11.892  0.0944 -0.0271 -0.0081
14270PP      PP24374   3.981   9.720  12.403 -0.2826  0.1960 -0.2805
14271PP      PP24375   7.425  12.449   0.579  0.0605 -0.2636  0.2624
14272PP      PP24376   3.329  14.131   1.031  0.0938 -0.1247 -0.0928
14273PP      PP24377  13.099   1.520   0.958 -0.1674 -0.1138  0.1210
14274PP      PP24378   9.471   6.124  11.398  0.1633 -0.1615  0.0176
14275PP      PP24379   1.137  12.214   2.645 -0.0547 -0.4286 -0.5038
14276PP      PP24380  10.369  14.020   2.652  0.1065 -0.3355 -0.1589
14277PP      PP24381  12.122   8.147   5.552  0.0547 -0.0310 -0.1345
14278PP      PP24382   9.109  10.674   0.427  0.0148  0.2530  0.0332
14279PP      PP24383   2.971  11.130   1.868  0.3151 -0.0910 -0.1510
14280PP      PP24384   1.304   1.853   9.730 -0.2669  0.0821  0.0784
14281PP      PP24385  15.138  14.779  12.517  0.1324  0.2840  0.1623
14282PP      PP24386   0.582  15.572   2.649 -0.0837 -0.1148 -0.2376
14283PP      PP24387   9.222  11.906  10.178 -0.5014 -0.1314  0.0635
14284PP      PP24388  15.712   6.079   5.157  0.1289  0.1073  0.1677
14285PP      PP24389   4.193   6.057   0.554  0.4584 -0.1248 -0.1547
14286PP      PP24390  11.644   3.255  11.229  0.2028  0.0514 -0.3112
14287PP      PP24391  15.105   9.569   2.746  0.1131  0.0521  0.0231
14288PP      PP24392   4.150  15.490   1.853 -0.1607  0.3950 -0.0156
14289PP      PP24393   7.317   9.185   1.729  0.0795 -0.1950  0.2078
14290PP      PP24394   3.964  13.649  13.153 -0.2551 -0.0894 -0.1641
14291PP      PP24395   6.748  11.456   2.557  0.3199  0.1557 -0.0818
14292PP      PP24396  14.857   4.818   3.181 -0.0360  0.3225  0.0273
14293PP      PP24397  10.284   7.288   9.250  0.3033  0.0703 -0.0625
14294PP      PP24398  10.203  13.775   3.730 -0.0920 -0.1555  0.3585
14295PP      PP24399   0.903   8.129  12.988  0.1972 -0.2796  0.0472
14296PP      PP24400   9.349   8.816   2.455 -0.2611 -0.0920 -0.0354
14297PP      PP24401   8.492   7.229  11.223 -0.1764  0.0150 -0.1752
14298PP      PP24402  13.146  12.042   9.588 -0.0686 -0.3008 -0.0666
14299PP      PP24403   1.525  13.677  12.980 -0.1936 -0.0990 -0.0930
14300PP      PP24404   1.739   7.405   0.680 -0.0507  0.0775 -0.4055
14301PP      PP24405  14.277  10.292  11.539  0.2877  0.0245 -0.0938
14302PP      PP24406   8.433   7.629   4.623  0.5628 -0.2761 -0.1551
14303PP      PP24407  10.358   9.915   3.630  0.1611  0.2303 -0.1002
14304PP      PP24408   2.619   5.657   2.263 -0.0149  0.2074 -0.2533
14305PP      PP24409  13.408   3.766  11.185 -0.2891  0.2228 -0.3223
14306PP      PP24410   4.341   6.482   2.805  0.3405 -0.2163  0.0467
14307PP      PP24411   2.308   1.771  11.386  0.1814  0.1936  0.0135
14308PP      PP24412   8.757  14.795   1.400  0.0417  0.1385 -0.3932
14309PP      PP24413  14.171   9.120   0.093  0.4832  0.0350 -0.0838
14310PP      PP24414  12.703   6.633  13.144  0.0584 -0.1465  0.0613
14311PP      PP24415   6.406   2.881   3.370 -0.1402  0.2923  0.0820
14312PP      PP24416   9.067  13.165   2.269 -0.2336  0.0234 -0.3075
14313PP      PP24417  13.421   8.774   1.507  0.0923 -0.3123  0.3964
14314PP      PP24418  14.622   9.675   1.041 -0.0282 -0.3074  0.1310
14315PP      PP24419  10.868   2.982   0.531 -0.1910  0.0648  0.0011
14316PP      PP24420  14.125   3.739   9.586 -0.3173 -0.2640  0.1093
14317PP      PP24421  10.751  11.197   9.942  0.3392 -0.2066 -0.1708
14318PP      PP24422   7.100  12.598   1.080  0.1350  0.0529  0.1038
14319PP      PP24423   9.891  12.895  12.014  0.0934  0.0233  0.0006
14320PP      PP24424   0.023   8.153  11.518  0.1899 -0.0171 -0.0582
14321PP      PP24425  12.571   7.317   2.695 -0.0790 -0.2881 -0.1205
14322PP      PP24426   4.758   6.934  13.117  0.0754 -0.0038 -0.2358
14323PP      PP24427   1.590   3.890   3.400  0.0732  0.2576  0.0253
14324PP      PP24428  14.096   0.031   4.007 -0.3983  0.1516  0.3045
14325PP      PP24429   4.920   0.427   7.907 -0.2837 -0.1460  0.0585
14326PP      PP24430   7.894   3.542   0.816  0.3427  0.1329 -0.2063
14327PP      PP24431  14.329   3.561  10.273  0.1138  0.2600  0.2123
14328PP      PP24432   5.371   9.327   9.653 -0.0478  0.0221  0.0774
14329PP      PP24433   6.769   3.099   8.798 -0.1924 -0.0544 -0.0846
14330PP      PP24434  15.120   5.532   2.520 -0.0161 -0.1349  0.0161
14331PP      PP24435   5.560   4.740  11.960 -0.4146 -0.0055  0.0946
14332PP      PP24436  15.037   5.629   4.057  0.1301 -0.0622 -0.2058
14333PP      PP24437   8.413   6.962   8.958 -0.1134  0.2628  0.2395
14334PP      PP24438   7.239  14.855  13.369 -0.0702  0.3786  0.2437
14335PP      PP24439  11.002   7.796   0.522 -0.0811 -0.2149 -0.0068
14336PP      PP24440  12.607   4.836   2.905 -0.0807  0.0463  0.0258
14337PP      PP24441  12.262  10.681   0.953 -0.1100  0.2504 -0.0049
14338PP      PP24442  10.999   9.819   9.007  0.2674 -0.0566  0.3195
14339PP      PP24443  14.488  14.556   1.873 -0.2739 -0.1750  0.1981
14340PP      PP24444   8.337  10.234   1.236 -0.0235  0.0718 -0.0126
14341PP      PP24445   5.655  15.431  10.574 -0.1049 -0.2749 -0.1334
14342PP      PP24446  10.885   9.323  10.955  0.1998 -0.2472 -0.1934
14343PP      PP24447   0.296   5.302   1.589 -0.0479 -0.0091  0.1298
14344PP      PP24448  14.750  10.572   1.237  0.2049 -0.1862  0.2576
14345PP      PP24449   8.331  14.098   1.714  0.0630 -0.0258  0.0457
14346PP      PP24450  10.050   4.073  10.902  0.0856  0.0025 -0.0556
14347PP      PP24451   1.974  15.805   3.989  0.0482  0.1884 -0.2016
14348PP      PP24452  10.662   4.089   1.672 -0.1225  0.1990 -0.2561
14349PP      PP24453  11.389   2.850   0.440 -0.1292  0.0313 -0.2936
14350PP      PP24454  15.597   5.452   2.480 -0.0016 -0.0968 -0.0830
14351PP      PP24455   2.394   9.621  10.090 -0.2202 -0.0846 -0.1871
14352PP      PP24456   9.685   6.001  13.279  0.3935  0.0528 -0.0722
14353PP      PP24457   0.045   0.701   0.510  0.0377  0.1278  0.0287
14354PP      PP24458  11.855   0.478  10.558 -0.2586 -0.0729  0.1636
14355PP      PP24459   5.649   0.476   0.217 -0.0893  0.0009 -0.1133
14356PP      PP24460  12.491  14.517   0.454 -0.1182 -0.3848 -0.1313
14357PP      PP24461  10.068   2.679  13.116 -0.1197 -0.3082  0.1314
14358PP      PP24462   6.234   0.806   9.945  0.1270  0.0811 -0.2094
14359PP      PP24463   1.096   6.296  12.623 -0.1319  0.0736 -0.0072
14360PP      PP24464   5.115  15.002   1.416  0.1684 -0.1855 -0.1664
14361PP      PP24465  12.409   5.046   1.923  0.0501  0.2266  0.2121
14362PP      PP24466  11.032  13.245  12.686 -0.0462 -0.1701  0.0955
14363PP      PP24467  12.688  13.290   4.553 -0.0260 -0.0487 -0.2130
14364PP      PP24468   5.318  10.957   1.796  0.0185  0.1794  0.2071
14365PP      PP24469   2.361   0.867  13.467  0.1945  0.0708 -0.1670
14366PP      PP24470   2.295  15.462  10.354 -0.1489  0.1174 -0.1179
14367PP      PP24471   1.797   0.281  12.797 -0.3402 -0.1419  0.0041
14368PP      PP24472   6.341   0.471  10.337  0.0698 -0.1619  0.1861
14369PP      PP24473   6.668   2.769  12.311 -0.2886  0.0019  0.0684
14370PP      PP24474  10.990   2.447   3.932  0.2506  0.2769  0.1752
14371PP      PP24475   1.573   0.998  10.334  0.1971 -0.2379  0.0050
14372PP      PP24476  11.797  11.169   9.990  0.1549  0.1895  0.0126
14373PP      PP24477   3.529  10.057   2.082  0.0121  0.0445  0.2486
14374PP      PP24478   5.838   7.627   9.796 -0.2409  0.1426 -0.1497
14375PP      PP24479   5.013   0.334   3.355  0.0538  0.1194 -0.1215
14376PP      PP24480   2.341  12.190  10.650  0.0378 -0.1383 -0.0069
14377PP      PP24481  14.255  15.255   0.964  0.1086  0.1299  0.1034
14378PP      PP24482   6.674  10.014   9.479  0.4209  0.0554  0.0888
14379PP      PP24483   2.142  12.432  10.260 -0.0250  0.0702  0.0425
14380PP      PP24484   8.374   8.892   2.245  0.0297 -0.0264 -0.4180
14381PP      PP24485  15.170   1.776   1.987 -0.4190  0.0989 -0.1542
14382PP      PP24486   1.991   9.325   0.600 -0.1662  0.1445  0.1478
14383PP      PP24487   6.579   3.820  13.280  0.0727 -0.0994 -0.0031
14384PP      PP24488   2.903   9.177   1.089 -0.0851 -0.0285  0.4635
14385PP      PP24489   9.107   1.380   2.803  0.0014  0.3405 -0.1337
14386PP      PP24490  11.066   5.936  13.525 -0.0484  0.3513  0.1875
14387PP      PP24491  12.716  15.365  11.184  0.2070 -0.0824  0.2932
14388PP      PP24492  11.866   7.798   2.232  0.0835 -0.0906  0.0384
14389PP      PP24493   4.761   7.852   9.917  0.2946 -0.5570  0.2071
14390PP      PP24494  13.420  13.318  12.989 -0.0929 -0.1570  0.7686
14391PP      PP24495  12.290  12.960   4.491  0.0857  0.0597 -0.4240
14392PP      PP24496   3.723  11.673  10.878  0.1206  0.1662 -0.2278
14393PP      PP24497  14.466   3.451   4.140 -0.0475  0.0309 -0.0137
14394PP      PP24498   2.718   7.836  13.373 -0.1379  0.0430  0.3809
14395PP      PP24499  14.427   3.216   1.941  0.1785 -0.2152 -0.0487
14396PP      PP24500  13.533   8.295   5.691 -0.0927 -0.0575 -0.2446
14397PP      PP24501   6.778   6.185  10.320  0.1957 -0.1000 -0.2358
14398PP      PP24502   0.763   9.355  12.691  0.1775 -0.3813 -0.3355
14399PP      PP24503   3.578  10.573  13.428 -0.2490 -0.2173 -0.1520
14400PP      PP24504   5.867  14.462   9.610  0.3338 -0.2470  0.1723
14401PP      PP24505  14.702  11.590   2.167  0.0183 -0.0907 -0.0508
14402PP      PP24506   4.338   6.534   1.343 -0.0495 -0.3006 -0.0043
14403PP      PP24507  10.290   6.502  12.336 -0.0120 -0.1370  0.0111
14404PP      PP24508  11.662   3.360   0.218 -0.6449  0.0609 -0.3334
14405PP      PP24509   9.317  12.482   0.056 -0.1988 -0.0444 -0.1049
14406PP      PP24510  13.749   6.055   9.501  0.2306 -0.2275  0.0921
14407PP      PP24511   4.226   5.259  11.603  0.0851  0.2576 -0.0288
14408PP      PP24512   8.229   1.178   3.140  0.2899  0.1180 -0.0619
14409PP      PP24513  11.953   3.587  13.389 -0.0801  0.1171 -0.0005
14410PP      PP24514  10.082   1.833  11.443  0.0353  0.1198 -0.1066
14411PP      PP24515   9.938   7.408  10.275 -0.2171  0.0177 -0.2388
14412PP      PP24516   7.750  10.899  10.761 -0.0564  0.2949  0.0959
14413PP      PP24517  12.614  11.664  11.678 -0.1843  0.2278 -0.1749
14414PP      PP24518  13.996   4.547  11.611 -0.0920  0.0948  0.1140
14415PP      PP24519   8.713   7.355   9.037 -0.2423 -0.0354  0.2314
14416PP      PP24520   8.726  10.712   0.707  0.6075 -0.0749 -0.3942
14417PP      PP24521   9.343   8.555  10.261  0.0150 -0.0999  0.2009
14418PP      PP24522   4.687  11.460   2.271 -0.1130  0.0986  0.0314
14419PP      PP24523   0.862  13.209   1.686 -0.0097  0.2265  0.2394
14420PP      PP24524  15.105  10.926   4.834 -0.2479  0.2734 -0.0444
14421PP      PP24525   5.851   0.395   7.949 -0.1954 -0.1325 -0.2198
14422PP      PP24526  10.918   1.082  12.392  0.0879  0.1212 -0.1070
14423PP      PP24527   5.965   4.386   0.180  0.0011  0.0301  0.2907
14424PP      PP24528  12.897   5.309  10.634  0.0432  0.0270  0.1451
14425PP      PP24529   3.044   2.343  12.345 -0.0453 -0.0738 -0.4249
14426PP      PP24530   1.022   2.322   9.025  0.1951  0.1632  0.1299
14427PP      PP24531   3.127   6.044  10.069  0.0760 -0.3462  0.0981
14428PP      PP24532  14.982  12.171   1.531 -0.3077  0.3354 -0.0961
14429PP      PP24533  10.330   0.311   1.337 -0.1752 -0.2809  0.3693
14430PP      PP24534  13.041   6.800   1.136  0.3137 -0.0224  0.0778
14431PP      PP24535   5.838   8.376   2.376 -0.1807 -0.0548  0.0195
14432PP      PP24536   6.608   2.559  10.680  0.2971 -0.1303  0.0080
14433PP      PP24537   9.747   9.159  12.390  0.2805 -0.0052  0.0219
14434PP      PP24538   7.933   5.329  12.082  0.0095 -0.0863  0.2290
14435PP      PP24539   3.603   0.053   0.369  0.0381  0.0775  0.4415
14436PP      PP24540   1.395  14.456   0.029  0.2533 -0.0824 -0.2144
14437PP      PP24541  14.154   1.159   0.456  0.5256  0.0158  0.0551
14438PP      PP24542   0.959  13.193  10.219 -0.3437 -0.0761  0.0773
14439PP      PP24543   7.908   6.005   8.913 -0.0053 -0.1891 -0.0191
14440PP      PP24544  12.514  13.127  10.703  0.3255 -0.0347 -0.1075
14441PP      PP24545   5.964   8.701   1.886 -0.2438 -0.0642 -0.0099
14442PP      PP24546  11.456   2.435   1.677  0.0103  0.2349 -0.0357
14443PP      PP24547   5.759  15.164  11.585  0.0700 -0.0562 -0.0240
14444PP      PP24548   6.112   9.661   1.374 -0.0703  0.0650  0.3957
14445PP      PP24549   9.575   2.708  10.207 -0.0070  0.1217 -0.1123
14446PP      PP24550   0.813  11.374   3.422 -0.0404  0.0673  0.0080
14447PP      PP24551   1.303   4.492  11.335 -0.1055  0.1534  0.0554
14448PP      PP24552  12.401   3.170  12.695 -0.3211  0.0840  0.0077
14449PP      PP24553  14.841   3.177  13.308  0.0299  0.0940 -0.0836
14450PP      PP24554   4.945   1.761   1.246 -0.1511  0.1423  0.0562
14451PP      PP24555   4.175   7.254   3.769  0.0809  0.2602  0.1360
14452PP      PP24556  13.881   0.627   3.310  0.2516 -0.0997  0.1429
14453PP      PP24557  11.243  14.467   4.213  0.1006  0.3716 -0.0882
14454PP      PP24558   6.688   9.037  10.997 -0.1562  0.0446  0.0290
14455PP      PP24559  11.670  13.565   3.234  0.4064  0.0188  0.0324
14456PP      PP24560  15.117  13.183   0.510 -0.0202 -0.3344  0.0880
14457PP      PP24561  11.116   9.014   1.226  0.1686 -0.0931 -0.1052
14458PP      PP24562   4.559  12.929   0.921  0.1096  0.0966  0.2489
14459PP      PP24563   0.252   0.707   3.562 -0.3700 -0.0518  0.1596
14460PP      PP24564  10.861  11.393  12.891 -0.0556 -0.3376  0.2483
14461PP      PP24565   9.971   1.652   2.768  0.1252 -0.1803 -0.3609
14462PP      PP24566   9.090   7.540   0.069  0.0092  0.1294 -0.1623
14463PP      PP24567  11.448   9.871   2.122 -0.2029  0.0193 -0.1379
14464PP      PP24568   3.317  12.567  10.694 -0.0061 -0.0933  0.2484
14465PP      PP24569   4.500   8.611   1.924  0.2303 -0.3924 -0.2093
14466PP      PP24570   3.391   1.682   2.439 -0.1773 -0.2079  0.3165
14467PP      PP24571   4.626   7.257   4.433 -0.3158  0.1630 -0.0261
14468PP      PP24572  10.308  11.054  12.834 -0.0969  0.1369 -0.1737
14469PP      PP24573   1.035   7.800   3.855 -0.0311  0.0748  0.4066
14470PP      PP24574  10.888  15.771  11.735  0.0505 -0.0717 -0.0575
14471PP      PP24575  14.139   8.091   3.217  0.3166 -0.0909 -0.1484
14472PP      PP24576   8.422  15.493   3.296  0.1054 -0.2317 -0.0307
14473PP      PP24577   2.688  13.458   1.395  0.1586 -0.1482  0.0510
14474PP      PP24578   6.793   5.544  13.431  0.0483 -0.0161 -0.1471
14475PP      PP24579   5.981   5.794  11.350  0.0092 -0.0001  0.0501
14476PP      PP24580   7.930  14.576  10.637 -0.3897 -0.4469 -0.0075
14477PP      PP24581  14.059   2.184   0.626  0.2057  0.1032 -0.0615
14478PP      PP24582   2.347  15.340   9.033  0.0754 -0.1944 -0.3809
14479PP      PP24583  14.346   1.645   0.395 -0.1837  0.0330  0.2508
14480PP      PP24584   6.440   2.985   9.219  0.2781 -0.0472  0.1272
14481PP      PP24585  13.574   8.887   1.995  0.0074  0.3060 -0.1975
14482PP      PP24586   9.726   1.780   3.568  0.0599  0.1167  0.0061
14483PP      PP24587   9.420   0.919   1.187  0.1085  0.0583 -0.5283
14484PP      PP24588   7.000  10.024  11.367  0.1925  0.0158 -0.0438
14485PP      PP24589   7.222   3.474   9.572 -0.0500  0.1606  0.1020
14486PP      PP24590  11.556   4.773  12.564  0.0065  0.0955  0.1066
14487PP      PP24591   2.702  10.600  13.411  0.0185 -0.0520  0.3216
14488PP      PP24592   2.613   8.154  10.317  0.0710  0.3157  0.3702
14489PP      PP24593   7.215   4.069   9.769  0.1549 -0.3414 -0.0485
14490PP      PP24594   8.886  12.069   4.268  0.3516 -0.2571  0.1694
14491PP      PP24595  14.794   2.847   0.212  0.0786  0.0493 -0.0497
14492PP      PP24596   3.093   4.680   9.729  0.1374 -0.2719 -0.0176
14493PP      PP24597   3.234  12.932   3.162 -0.1789  0.0278  0.1183
14494PP      PP24598   8.603   9.869  12.053 -0.1951 -0.0940 -0.0583
14495PP      PP24599   4.627  14.569   2.089 -0.0569 -0.1133  0.4162
14496PP      PP24600   3.607   2.382   3.400  0.0389  0.1553  0.0315
14497PP      PP24601   8.526  12.930   0.227 -0.1087 -0.4138  0.1684
14498PP      PP24602   3.514   5.808   3.888 -0.2933  0.2550 -0.2388
14499PP      PP24603   6.381  11.612   2.221  0.0929 -0.0014 -0.1254
14500PP      PP24604   1.528   4.445  12.054 -0.2216 -0.1281 -0.3145
14501PP      PP24605   1.144   8.450   4.625  0.1004 -0.2379  0.0864
14502PP      PP24606  14.881   4.291  11.674  0.1277  0.0781  0.0644
14503PP      PP24607  10.532  11.631   9.507 -0.2082 -0.0345 -0.0301
14504PP      PP24608  12.286   9.219   3.837  0.0137  0.0458  0.0234
14505PP      PP24609  11.856   2.005   2.884  0.3921  0.1973 -0.1766
14506PP      PP24610  15.614  15.309   2.107  0.1581 -0.0275  0.1447
14507PP      PP24611   7.286  10.117   0.822 -0.3223 -0.1038  0.2085
14508PP      PP24612   4.153   6.992   1.376 -0.0182 -0.0573 -0.1329
14509PP      PP24613   0.180   6.570  12.242  0.0875 -0.2465 -0.0779
14510PP      PP24614  15.306   3.777   1.954  0.1008  0.0525  0.2153
14511PP      PP24615  10.507  12.884   1.054  0.2516  0.0008  0.3088
14512PP      PP24616  12.515   1.175  12.602 -0.2282  0.1878 -0.0986
14513PP      PP24617  15.587   9.709   4.355  0.2037  0.0075  0.0406
14514PP      PP24618  13.803   1.378  12.741  0.6242  0.0890  0.1852
14515PP      PP24619   0.654   9.943  10.561 -0.1731  0.0054 -0.2151
14516PP      PP24620  15.289   4.324   0.499  0.0387  0.0847 -0.0240
14517PP      PP24621  14.100  12.236   4.311 -0.2658  0.0137 -0.1110
14518PP      PP24622  11.811   8.359   5.116 -0.0616 -0.2817  0.3792
14519PP      PP24623   9.162   5.186   9.956  0.1401 -0.1622  0.0183
14520PP      PP24624  10.428   5.430  10.447  0.0925 -0.3549 -0.2345
14521PP      PP24625   8.972   2.398   0.045 -0.2120 -0.3001 -0.0914
14522PP      PP24626   4.973   0.934   9.871  0.2200  0.0624  0.0969
14523PP      PP24627   2.488   6.099   3.300 -0.1352  0.0278 -0.1317
14524PP      PP24628   4.387  15.515  13.191 -0.1205 -0.0844  0.0458
14525PP      PP24629   6.694  15.669   7.890 -0.0171  0.1504  0.0415
14526PP      PP24630   5.821  15.332   0.866 -0.1399  0.2308 -0.0807
14527PP      PP24631   2.227   2.177   2.927 -0.2146  0.1813  0.4009
14528PP      PP24632   3.267  12.409   3.326 -0.1898 -0.0017  0.1751
14529PP      PP24633   9.756   9.560   0.684  0.1889 -0.1174  0.3509
14530PP      PP24634   1.071   7.682   5.236  0.1132  0.4788 -0.2006
14531PP      PP24635  11.789  10.604  11.067 -0.0927  0.0418  0.0411
14532PP      PP24636   9.547  12.506   2.952  0.0245 -0.0352  0.0789
14533PP      PP24637  12.485  12.014   9.731  0.2677 -0.0856  0.1031
14534PP      PP24638   3.849  12.060   4.964  0.3823 -0.1595 -0.0093
14535PP      PP24639   1.919   8.538   3.549  0.0147 -0.0423  0.0928
14536PP      PP24640  11.996   0.376  11.008 -0.3071 -0.2089 -0.0675
14537PP      PP24641   5.066   8.636   3.989  0.1913 -0.4409 -0.1110
14538PP      PP24642   6.796   1.508   2.789  0.1189  0.0272  0.0088
14539PP      PP24643   4.267  11.288   2.653 -0.0947  0.1783 -0.2547
14540PP      PP24644   2.314  14.004   4.440  0.0879  0.2379 -0.1078
14541PP      PP24645   1.796   5.067  12.727  0.0423  0.0898 -0.3622
14542PP      PP24646   5.842   9.929   4.240 -0.0068  0.0817  0.1911
14543PP      PP24647  15.719  13.145  11.879  0.2608 -0.2567 -0.0092
14544PP      PP24648  14.303   9.418   4.350 -0.1256  0.0699 -0.1490
14545PP      PP24649  13.066  13.223  11.426 -0.1002 -0.0906  0.0176
14546PP      PP24650  12.118   2.145   1.894  0.0800  0.1654 -0.2048
14547PP      PP24651   4.940  12.478   9.587  0.0044  0.0750 -0.0997
14548PP      PP24652   2.174   9.573  11.945  0.2491  0.0881 -0.0451
14549PP      PP24653  10.590   9.444  11.346  0.1925 -0.3583  0.3049
14550PP      PP24654   8.313  13.440   8.633 -0.2403  0.2274 -0.2093
14551PP      PP24655   6.094   3.758   0.162  0.0181  0.1551  0.2695
14552PP      PP24656   5.480   1.824   2.447 -0.2641 -0.1371 -0.0183
14553PP      PP24657   9.081   4.400   8.588  0.0640 -0.2460 -0.1093
14554PP      PP24658   4.401   4.463   4.047 -0.1298  0.1475  0.2071
14555PP      PP24659   8.906  14.984  10.402 -0.1652 -0.1277 -0.5020
14556PP      PP24660   1.901   2.046  11.242 -0.3442  0.0864 -0.3823
14557PP      PP24661   0.334  11.356   1.754 -0.0723 -0.2549 -0.0646
14558PP      PP24662   5.008   2.836   1.363  0.0324  0.0663  0.0977
14559PP      PP24663  15.728   2.374  11.356 -0.0535 -0.1456  0.5386
14560PP      PP24664   9.248   3.685  11.703 -0.1730 -0.3560  0.0010
14561PP      PP24665  13.312   2.612  10.694  0.0079  0.1665  0.0515
14562PP      PP24666   3.972   4.211   1.811  0.0930 -0.2039 -0.0976
14563PP      PP24667  15.810  15.363  11.700 -0.0707  0.0311 -0.0506
14564PP      PP24668  12.397   3.371   8.464 -0.2078 -0.2084  0.0890
14565PP      PP24669   1.137   6.929  11.335  0.0471 -0.2565 -0.1669
14566PP      PP24670   7.835   3.983   1.801  0.0691  0.1154  0.1758
14567PP      PP24671   1.920  15.802  12.336 -0.3132  0.3981  0.1648
14568PP      PP24672  14.394  13.955  11.557 -0.0341  0.1147 -0.6403
14569PP      PP24673   2.144  12.171  11.679 -0.1977 -0.2305 -0.3754
14570PP      PP24674   0.510   3.077   4.044 -0.0641 -0.1238 -0.0708
14571PP      PP24675  14.014   4.679   5.091 -0.1358  0.1664 -0.1237
14572PP      PP24676  13.911   8.444  10.130  0.1000 -0.0319 -0.1053
14573PP      PP24677   4.168   0.244   0.062  0.1043  0.1394  0.2881
14574PP      PP24678   5.212   4.936  12.269  0.0032 -0.0656 -0.1806
14575PP      PP24679   1.633  11.755   1.274  0.0682  0.1569  0.1408
14576PP      PP24680   9.879  13.406   3.922  0.3213  0.4205  0.0824
14577PP      PP24681   8.267  14.962  11.032  0.0869  0.1761 -0.1868
14578PP      PP24682   4.593   6.913  11.977  0.1611  0.2089  0.1883
14579PP      PP24683  10.305  12.268   3.197 -0.1600  0.2724  0.3305
14580PP      PP24684   6.442  14.034  10.985 -0.1599 -0.0013 -0.2137
14581PP      PP24685   4.496   2.470   3.319 -0.2482 -0.1081  0.0086
14582PP      PP24686   8.831   6.729   2.792 -0.2761  0.4609 -0.1126
14583PP      PP24687  11.887   4.727   1.427  0.0453 -0.3984  0.2623
14584PP      PP24688  13.825  11.538  10.989 -0.1267  0.0178  0.0077
14585PP      PP24689   6.062  14.114  11.348 -0.3942 -0.5024 -0.1616
14586PP      PP24690   4.172   7.031  11.631 -0.1229  0.1162  0.1983
14587PP      PP24691   1.101   4.145   3.296  0.0981  0.0836 -0.0704
14588PP      PP24692   4.466  13.496   9.027 -0.0221  0.1490  0.1952
14589PP      PP24693   0.643  13.890   3.633  0.0170 -0.0884 -0.3121
14590PP      PP24694  12.340  10.718   2.128  0.1165  0.1431 -0.2886
14591PP      PP24695   3.543  10.816  11.436  0.0239  0.2119  0.1878
14592PP      PP24696   3.528  10.794   9.844 -0.2759 -0.1714 -0.0726
14593PP      PP24697   9.644   3.835  10.596 -0.0042  0.3446 -0.0554
14594PP      PP24698   0.268  12.858  13.177  0.1253  0.0054  0.0518
14595PP      PP24699   1.113  10.134   4.545 -0.0779  0.3455 -0.1410
14596PP      PP24700   5.163  13.162   2.702  0.3834  0.0496 -0.1048
14597PP      PP24701  11.607  11.049  11.076  0.0317  0.2828 -0.1928
14598PP      PP24702   7.500  10.450   4.473  0.2998 -0.1708  0.0241
14599PP      PP24703   3.824   9.226  11.786  0.2868  0.0571  0.2334
14600PP      PP24704   7.764  14.371  11.441 -0.0105 -0.2650 -0.1293
14601PP      PP24705   3.508  15.437  12.158  0.0907  0.2236  0.3409
14602PP      PP24706   6.296   4.168   8.847  0.0182  0.0867 -0.1463
14603PP      PP24707   9.644   9.405  10.910  0.0373  0.0641  0.2759
14604PP      PP24708   5.915   8.865   4.203 -0.0328  0.1382  0.3982
14605PP      PP24709   5.338   2.710  11.321  0.3072  0.1720 -0.1367
14606PP      PP24710  11.268  11.964   4.969  0.0612  0.0819 -0.1630
14607PP      PP24711   0.858   7.759   9.968  0.0424 -0.0207  0.1426
14608PP      PP24712   7.031   1.292   0.756 -0.1684  0.1074 -0.1675
14609PP      PP24713   3.055   0.513   2.607  0.0444  0.1449 -0.0707
14610PP      PP24714   1.054  14.988  11.495  0.1233  0.0564 -0.1532
14611PP      PP24715  10.630   1.558   3.657 -0.0964 -0.3191 -0.1954
14612PP      PP24716   9.629  15.817   0.442 -0.2497  0.0278 -0.1975
14613PP      PP24717  11.782  14.290   9.863  0.2561 -0.2625  0.1689
14614PP      PP24718   7.819  14.909   1.558 -0.2038  0.0397 -0.1672
14615PP      PP24719   4.361  15.463   0.260  0.1917  0.1985  0.1616
14616PP      PP24720   1.255   3.530   2.440 -0.2840 -0.1021 -0.1224
14617PP      PP24721  12.874  11.845  10.089  0.1463 -0.0986  0.2041
14618PP      PP24722   9.796   7.375   9.225 -0.0583 -0.0910 -0.1585
14619PP      PP24723  15.120   4.019  12.503  0.0757  0.0796  0.0296
14620PP      PP24724  13.952   6.377   4.132 -0.1792  0.1911  0.1645
14621PP      PP24725  11.096   2.175   2.943 -0.0319 -0.2201 -0.0292
14622PP      PP24726   7.964   7.736   2.488 -0.4562  0.3018 -0.0950
14623PP      PP24727   5.990  14.900   9.359 -0.2083  0.2095  0.0069
14624PP      PP24728   5.653   6.903   8.107 -0.1804 -0.2563  0.0225
14625PP      PP24729  11.178   6.927   9.647 -0.0210  0.3909 -0.1166
14626PP      PP24730   9.990   7.069   0.312 -0.1481  0.0002  0.0130
14627PP      PP24731  12.424   5.536  11.603  0.1089 -0.1089 -0.1445
14628PP      PP24732   4.702   3.186  12.769  0.1136  0.1277 -0.1577
14629PP      PP24733  12.004   8.411  13.235 -0.0363 -0.2122  0.0700
14630PP      PP24734  10.839   1.608   1.310 -0.0354  0.0245 -0.1910
14631PP      PP24735  10.949  13.244  10.315  0.0505 -0.0197  0.0023
14632PP      PP24736   0.435   4.857   2.574  0.1360 -0.0369 -0.2814
14633PP      PP24737  11.709   8.689  11.828 -0.0027  0.2181  0.2624
14634PP      PP24738   1.376   7.017   4.499  0.1040 -0.1607 -0.2990
14635PP      PP24739   8.121   0.345   8.308  0.0258 -0.1320 -0.2494
14636PP      PP24740   0.302   7.314   1.927  0.1956 -0.1641 -0.1108
14637PP      PP24741  15.143   1.349   9.922 -0.0049  0.0935 -0.2682
14638PP      PP24742   6.456   2.009   9.055  0.1930 -0.1852  0.2914
14639PP      PP24743   9.292  14.353   3.000  0.0985  0.0777  0.1884
14640PP      PP24744   3.487   9.867  13.408  0.3401 -0.1105  0.3931
14641PP      PP24745   3.343   7.614   3.797 -0.1136  0.2466  0.1593
14642PP      PP24746   4.443  11.776   9.606 -0.2028  0.0102 -0.2997
14643PP      PP24747   2.227  12.783   1.826  0.0789 -0.0181  0.0072
14644PP      PP24748   8.544   7.027  11.938 -0.1326 -0.0801 -0.1883
14645PP      PP24749  15.025  15.419  11.130 -0.2570  0.3122  0.1217
14646PP      PP24750  15.329  11.440   5.148 -0.0575 -0.4321  0.2345
14647PP      PP24751  14.043   0.132  10.261 -0.1899 -0.3594 -0.0451
14648PP      PP24752  11.253  10.717   3.036 -0.0986  0.0604 -0.3838
14649PP      PP24753  14.078  10.892   4.392 -0.1220  0.0243  0.1056
14650PP      PP24754   8.884  10.007  11.705 -0.1561  0.1922 -0.0883
14651PP      PP24755  11.917   2.113   2.407 -0.4813 -0.0084  0.0499
14652PP      PP24756   3.257   6.056  11.990  0.1867 -0.1714  0.0755
14653PP      PP24757   5.574   1.915   7.909  0.0404 -0.0318 -0.0500
14654PP      PP24758   1.743   5.271   2.267  0.0074  0.2504 -0.0944
14655PP      PP24759   3.180  14.951   9.347 -0.0069  0.0818  0.1858
14656PP      PP24760  10.041  15.088  10.447 -0.0313  0.1681  0.0895
14657PP      PP24761   8.945  15.465   4.193  0.0699  0.2436  0.0929
14658PP      PP24762   6.333   0.872  11.763 -0.0891  0.1281  0.0395
14659PP      PP24763  13.060   3.105  10.670 -0.0484  0.0177  0.0842
14660PP      PP24764  10.787   8.358   8.986  0.0959  0.1036  0.1691
14661PP      PP24765   0.628   4.238  13.030  0.0516 -0.2613  0.1453
14662PP      PP24766  13.937   9.504   9.481 -0.0512  0.3238  0.1536
14663PP      PP24767   7.695   9.679   8.831  0.0709 -0.2812 -0.0740
14664PP      PP24768  13.620   9.463  12.584 -0.0112 -0.3665 -0.1524
14665PP      PP24769   9.952  14.336   1.977  0.1818  0.1071  0.1971
14666PP      PP24770  15.242   4.623  10.259 -0.1355 -0.2575 -0.0474
14667PP      PP24771   4.088  12.954   2.488 -0.1346 -0.1383  0.1253
14668PP      PP24772  15.346   0.178   2.767 -0.0622  0.0606  0.1316
14669PP      PP24773   9.770   2.734  13.508 -0.1430 -0.0061  0.1631
14670PP      PP24774   8.919   4.007   2.321 -0.2577 -0.1627 -0.0222
14671PP      PP24775   3.472   2.688  12.269  0.0806 -0.0070 -0.0260
14672PP      PP24776  14.347   3.546   1.437 -0.1443 -0.1983 -0.1108
14673PP      PP24777  11.553  14.598  12.832  0.0200  0.1525  0.1729
14674PP      PP24778  13.175  12.153   1.999  0.0304  0.1429  0.1624
14675PP      PP24779   0.516   3.577   1.236 -0.1002  0.0269  0.2068
14676PP      PP24780  14.733   1.400   1.334 -0.2650 -0.3494 -0.0257
14677PP      PP24781   2.526   3.029   0.817 -0.0829 -0.1895  0.0794
14678PP      PP24782  15.557  11.715   4.750  0.3660  0.0386  0.1809
14679PP      PP24783   9.749   9.558  10.451  0.3276 -0.1358  0.2505
14680PP      PP24784   5.717   1.670   8.659  0.0732  0.1813 -0.1875
14681PP      PP24785   1.726   2.578  12.011 -0.1325  0.1834 -0.0414
14682PP      PP24786   0.077   9.325  10.129 -0.1744  0.0084 -0.0338
14683PP      PP24787  14.485   0.609   8.955 -0.0741  0.0058 -0.0049
14684PP      PP24788   8.489   3.798   2.348 -0.3932 -0.1843 -0.1000
14685PP      PP24789  11.791   4.880   3.804 -0.1707 -0.3219  0.0138
14686PP      PP24790   5.680   2.279  12.600  0.0951  0.1040 -0.2058
14687PP      PP24791  13.029   3.050   1.307  0.0258  0.1558 -0.1328
14688PP      PP24792   1.924  11.296   1.213  0.2015 -0.0141  0.0863
14689PP      PP24793   9.298   9.569  12.864 -0.1888  0.1792  0.1696
14690PP      PP24794   1.577  11.390   4.676 -0.0374  0.3248  0.0237
14691PP      PP24795   4.137  12.778  11.027 -0.0313  0.1894  0.0630
14692PP      PP24796   9.806   2.917   2.917  0.2756  0.1315 -0.0837
14693PP      PP24797   3.529   8.776  11.730 -0.2478 -0.0665  0.0456
14694PP      PP24798   2.404  14.084   0.124 -0.1496 -0.1490 -0.0683
14695PP      PP24799   2.580   2.994   9.020 -0.1406 -0.0910 -0.2691
14696PP      PP24800   4.567  12.239   1.077 -0.0772 -0.0787 -0.2731
14697PP      PP24801   5.651  14.441  13.448 -0.0300 -0.0522  0.1942
14698PP      PP24802   8.649  15.208   9.494 -0.1059 -0.1230 -0.0988
14699PP      PP24803   5.562   7.555  10.292 -0.1085  0.1255  0.1121
14700PP      PP24804  12.196   9.873  10.908 -0.2185  0.0154  0.4000
14701PP      PP24805   9.423   1.898   1.134 -0.2044 -0.1622 -0.0184
14702PP      PP24806   1.555   8.289  12.003 -0.1062  0.0363 -0.0262
14703PP      PP24807  14.788  12.941   3.580  0.2610 -0.0293 -0.1924
14704PP      PP24808  13.227  10.337   3.563  0.1523 -0.0276  0.0612
14705PP      PP24809   7.656   5.565   9.275 -0.2665  0.4471 -0.0759
14706PP      PP24810   1.234   4.576   1.182  0.0817  0.3393 -0.0622
14707PP      PP24811   0.495   6.051   5.350  0.3132  0.0296 -0.0867
14708PP      PP24812  14.573   9.273  13.115 -0.1135  0.1791 -0.1895
14709PP      PP24813   9.752   0.654   2.258  0.1582 -0.1127 -0.1636
14710PP      PP24814  13.491   5.669   9.222 -0.0004 -0.0248 -0.1882
14711PP      PP24815  10.123   8.066  10.832  0.1360 -0.0188  0.2968
14712PP      PP24816   7.360   9.994  11.766  0.2240 -0.1112  0.2038
14713PP      PP24817   4.224  11.675   2.375  0.1234 -0.0832 -0.0551
14714PP      PP24818  13.985   7.434   0.191  0.0880  0.2887  0.0888
14715PP      PP24819   5.438   5.728  12.868 -0.1824  0.0897  0.0877
14716PP      PP24820   1.912   3.807   4.286  0.1109 -0.1043  0.2438
14717PP      PP24821  15.625   7.330   4.904 -0.0637 -0.0483  0.0429
14718PP      PP24822  12.868  12.806   2.582  0.1033 -0.0260 -0.3850
14719PP      PP24823  11.580   2.398   2.134  0.3648 -0.2087  0.3506
14720PP      PP24824   2.166   7.153   2.569 -0.7035 -0.2911  0.1062
14721PP      PP24825   3.238   5.784   1.728 -0.1079 -0.1971  0.1740
14722PP      PP24826   2.804   4.429   2.671  0.1004  0.1613 -0.1213
14723PP      PP24827  13.885   4.559   0.772 -0.0838  0.0121 -0.2066
14724PP      PP24828   9.606   9.411  11.951 -0.2251 -0.3296 -0.0089
14725PP      PP24829   2.083  11.736   3.168 -0.2115 -0.2444  0.0630
14726PP      PP24830   2.351   7.234   4.806 -0.0585  0.1024 -0.1993
14727PP      PP24831   5.457   6.225  12.709 -0.1513 -0.0686 -0.0897
14728PP      PP24832  12.004  10.532   2.537 -0.1423  0.1720 -0.1801
14729PP      PP24833   3.295  13.525   0.445 -0.0920  0.0441  0.0654
14730PP      PP24834   9.042  14.851  12.682 -0.0487  0.0661  0.0415
14731PP      PP24835   4.630  14.853   9.984  0.1111 -0.1622  0.1358
14732PP      PP24836  14.582   6.019   0.915 -0.2116 -0.0383 -0.1425
14733PP      PP24837   8.470  10.725   1.153 -0.0624 -0.1584 -0.0832
14734PP      PP24838   2.312  10.663  10.732  0.1104 -0.1164 -0.0993
14735PP      PP24839   4.576   1.335   0.522 -0.1662 -0.0494  0.2745
14736PP      PP24840   5.406  11.169  10.675 -0.0718 -0.0379 -0.0271
14737PP      PP24841   1.839  10.477   5.262  0.0932 -0.4013  0.0861
14738PP      PP24842  12.100   4.315  11.701 -0.0718  0.3789 -0.1493
14739PP      PP24843  13.980  15.598  13.153 -0.1286 -0.0988 -0.0891
14740PP      PP24844   7.949  10.592  10.405  0.1517 -0.0281  0.2736
14741PP      PP24845   3.442  12.914   4.556 -0.0941  0.0303  0.4484
14742PP      PP24846  13.463   9.396   1.244 -0.0687 -0.1808  0.1775
14743PP      PP24847  10.501   1.351  12.786 -0.2384  0.0864  0.0789
14744PP      PP24848   7.996  12.605  11.036  0.0735  0.0636  0.3990
14745PP      PP24849   9.249  10.567   3.890 -0.2465 -0.0390 -0.0880
14746PP      PP24850  13.016   8.458   3.863 -0.1618 -0.1918  0.0122
14747PP      PP24851   0.635  14.051   0.875  0.1986  0.0573 -0.2390
14748PP      PP24852   4.217   8.158  12.851  0.1306  0.0836  0.0634
14749PP      PP24853  11.121  15.497  12.714  0.3122  0.0578  0.1399
14750PP      PP24854   5.935   5.792  11.897  0.2806 -0.1990 -0.0996
14751PP      PP24855   9.031   4.043   3.731 -0.3683 -0.1014  0.1710
14752PP      PP24856   3.057   0.651   1.689  0.2478 -0.1270 -0.1115
14753PP      PP24857  11.348   6.393   8.774  0.0605 -0.1435  0.3704
14754PP      PP24858  13.995  12.395  13.149 -0.0021  0.1554  0.0664
14755PP      PP24859  14.315   4.575   2.404  0.1409  0.0628  0.0883
14756PP      PP24860  12.752   2.935   4.583  0.1010  0.0589  0.3318
14757PP      PP24861   3.968   0.982   0.488 -0.0727  0.2302 -0.1308
14758PP      PP24862   0.887   6.814  12.098  0.3964 -0.0003 -0.2938
14759PP      PP24863  12.695   9.757   3.415 -0.3997 -0.2338  0.1642
14760PP      PP24864  14.385   1.160   8.858 -0.1110  0.1060  0.0381
14761PP      PP24865  12.895   1.232   0.373 -0.1060 -0.0465 -0.2168
14762PP      PP24866   8.740   7.763  10.018 -0.0015  0.3182  0.0368
14763PP      PP24867   7.552  13.212   2.341 -0.1050 -0.0485  0.1841
14764PP      PP24868   8.045   1.890  11.390  0.0988 -0.0926  0.1204
14765PP      PP24869  13.717  12.804   2.275 -0.0228  0.0647 -0.2540
14766PP      PP24870   6.007   0.659   2.646 -0.1429  0.1035 -0.0387
14767PP      PP24871   2.926  14.536   3.929 -0.0708  0.2565 -0.1623
14768PP      PP24872  15.137  15.830   9.884 -0.3114 -0.2075  0.0542
14769PP      PP24873  12.477  13.122   4.028  0.0368 -0.0827  0.0305
14770PP      PP24874  13.733  11.955  10.699 -0.2740 -0.1991 -0.1774
14771PP      PP24875  11.612   1.363   0.752  0.0474 -0.0569 -0.5202
14772PP      PP24876   6.777  15.465  10.080 -0.1052  0.1643 -0.2159
14773PP      PP24877   0.939   5.841  11.773  0.0575  0.1552  0.1940
14774PP      PP24878   8.908   0.937   2.124  0.1659 -0.1386 -0.0048
14775PP      PP24879   9.416   7.115   4.297  0.1060 -0.1025  0.1691
14776PP      PP24880  14.047   0.631  11.150 -0.2948  0.1653  0.2067
14777PP      PP24881   5.685   4.902   1.787 -0.0971 -0.1087  0.2461
14778PP      PP24882   6.619  15.432   1.502 -0.2772  0.1275  0.1643
14779PP      PP24883   7.431   2.562   2.273 -0.1662  0.0865 -0.0076
14780PP      PP24884  12.344  13.127   1.923 -0.0002 -0.0147  0.0028
14781PP      PP24885   7.571   0.308   9.527  0.2311 -0.0684 -0.1343
14782PP      PP24886  15.025   4.268   0.057 -0.0053  0.0188 -0.0423
14783PP      PP24887   3.652  10.107   4.696  0.0349  0.0085 -0.1320
14784PP      PP24888  10.054  12.581   0.542 -0.1920  0.0312 -0.0646
14785PP      PP24889   5.588   6.358  13.427  0.3607 -0.1131  0.1892
14786PP      PP24890  10.487   5.534   2.499  0.0621 -0.0301 -0.1786
14787PP      PP24891   4.644   1.042  11.489 -0.0279  0.0785 -0.0475
14788PP      PP24892   4.228  10.813   1.877 -0.2997  0.1312 -0.0496
14789PP      PP24893  12.296  15.414  10.117 -0.4167  0.1135  0.2055
14790PP      PP24894  15.707   0.432   8.556  0.1237  0.1783  0.1848
14791PP      PP24895  11.455   0.365  10.999  0.2582 -0.1258  0.0254
14792PP      PP24896   7.266  15.164   0.185 -0.0860  0.1325 -0.0648
14793PP      PP24897   6.049   8.815  11.560 -0.0337  0.1556  0.3898
14794PP      PP24898   7.425   4.365   1.342 -0.1848  0.2713 -0.1012
14795PP      PP24899  13.085  13.842   0.689 -0.1232  0.1574 -0.0889
14796PP      PP24900  13.068  11.375  10.951  0.0941  0.2396  0.0964
14797PP      PP24901   3.723  14.745   8.563 -0.1937 -0.0433 -0.0479
14798PP      PP24902   9.323   8.811   3.827 -0.0547  0.0520 -0.0671
14799PP      PP24903   3.176  15.624  11.241 -0.1017  0.1239 -0.0453
14800PP      PP24904   9.228   1.398  11.090 -0.0754 -0.1787  0.1099
14801PP      PP24905   2.913  12.098   0.150 -0.2601 -0.0686 -0.2398
14802PP      PP24906  12.601  14.978  10.391 -0.3102 -0.2732  0.0043
14803PP      PP24907  14.225   9.000  10.865  0.1406 -0.0001  0.0439
14804PP      PP24908  14.417   1.491   4.256  0.0204 -0.0349 -0.1350
14805PP      PP24909   0.030  12.768  10.932  0.0200 -0.0461  0.0406
14806PP      PP24910   4.473  15.271   3.020 -0.2566 -0.0386 -0.2167
14807PP      PP24911   4.978  15.747  13.011  0.2185 -0.3112  0.3217
14808PP      PP24912  13.266   7.911   2.761  0.0725 -0.1115 -0.1707
14809PP      PP24913  15.146  13.141   2.415 -0.4999  0.2463 -0.1128
14810PP      PP24914  11.714   0.365   8.577 -0.1003 -0.1767  0.0832
14811PP      PP24915   2.964   8.005   1.241  0.1972 -0.2867 -0.0040
14812PP      PP24916  13.955   7.964   4.546 -0.0858  0.1194 -0.0637
14813PP      PP24917   1.043  10.326   4.047  0.0221 -0.1435 -0.1466
14814PP      PP24918  14.630   8.818   1.346  0.2351  0.1967  0.3156
14815PP      PP24919   5.841   9.175   1.617  0.0243  0.0488  0.3022
14816PP      PP24920   2.939   4.720  12.162  0.1265  0.3865  0.0115
14817PP      PP24921   5.055   2.994   0.801  0.2122  0.0774 -0.2629
14818PP      PP24922  15.341  11.493  10.993 -0.1553  0.2064  0.0133
14819PP      PP24923   4.174   5.880   1.125  0.1481 -0.1036 -0.0408
14820PP      PP24924   5.035   9.801  11.732  0.0792 -0.0348  0.0479
14821PP      PP24925   1.370   6.390  10.076 -0.0143 -0.0894  0.0620
14822PP      PP24926  15.320   6.435   1.891  0.1778 -0.0110 -0.1049
14823PP      PP24927   3.648   7.217   1.517  0.2240 -0.1519  0.0696
14824PP      PP24928  14.968  14.571  10.105  0.1442  0.1900 -0.2072
14825PP      PP24929   1.169  12.083   0.114  0.0478 -0.0608 -0.2293
14826PP      PP24930  13.545   4.506  13.073  0.0505 -0.2287 -0.0221
14827PP      PP24931  13.008  12.485   2.982  0.0528  0.2610  0.3116
14828PP      PP24932  10.099   0.641  12.351  0.4041  0.1305 -0.0164
14829PP      PP24933   9.041  12.623  12.037  0.0985  0.3590 -0.0268
14830PP      PP24934  12.162   4.575  13.399  0.1610  0.1250  0.2846
14831PP      PP24935   3.262   8.247   1.559 -0.0126  0.0640  0.0559
14832PP      PP24936  12.691   2.045  11.485  0.1458  0.2805 -0.0011
14833PP      PP24937  10.864   6.977   4.747  0.1781 -0.1614  0.0902
14834PP      PP24938  14.033   3.224   1.582 -0.1026 -0.1839 -0.2434
14835PP      PP24939   6.400  15.711   2.728  0.1520 -0.3638 -0.0278
14836PP      PP24940   8.101   9.330  13.296 -0.5028  0.1481  0.2045
14837PP      PP24941   2.475   3.967  10.549  0.0726 -0.3381 -0.4320
14838PP      PP24942  13.530   6.341   2.845  0.1727 -0.0654  0.0020
14839PP      PP24943  12.366  11.789  10.226  0.1566 -0.2421 -0.0301
14840PP      PP24944   3.608   0.469   3.494 -0.1051  0.2708 -0.1167
14841PP      PP24945  12.016  11.538   4.738 -0.2480  0.4037 -0.1581
14842PP      PP24946   0.773   9.511   1.528 -0.0118  0.0823  0.0724
14843PP      PP24947   0.662   1.804   8.615  0.1034 -0.0219  0.3389
14844PP      PP24948   7.709   1.055   1.410 -0.0186  0.2648 -0.0480
14845PP      PP24949   8.152   6.199   3.169 -0.3021 -0.3749 -0.0715
14846PP      PP24950  12.666   8.714   3.576 -0.0692  0.3891  0.0996
14847PP      PP24951   7.013   0.255  13.461 -0.1910 -0.0622  0.1634
14848PP      PP24952  14.315   5.605  12.174  0.0449 -0.2298  0.1029
14849PP      PP24953   1.702   8.265   0.942 -0.1474  0.2950  0.0325
14850PP      PP24954   1.304   1.697   4.071 -0.0172  0.0356 -0.2535
14851PP      PP24955   6.014   5.455  11.036  0.2653 -0.3301  0.1872
14852PP      PP24956   8.834   8.815   0.446 -0.1197  0.1966  0.0967
14853PP      PP24957  14.784  14.926   3.461 -0.2747 -0.1757  0.0426
14854PP      PP24958  13.206   5.861   2.932 -0.0865  0.3077  0.2137
14855PP      PP24959   8.657   8.114   9.636 -0.3227  0.3054 -0.1965
14856PP      PP24960   1.805   2.050  10.220 -0.1275  0.2144 -0.0064
14857PP      PP24961   3.227  10.447   4.670 -0.0159 -0.0063  0.1598
14858PP      PP24962   2.005   5.601   0.528  0.0405 -0.0065  0.0700
14859PP      PP24963   8.017  12.987   4.496  0.0184  0.1730  0.3250
14860PP      PP24964  15.328   3.160   2.728  0.0782 -0.0434  0.0311
14861PP      PP24965   2.686   3.970   2.576 -0.1147  0.2690 -0.2971
14862PP      PP24966   6.029  10.366   3.184  0.1925  0.1827  0.0121
14863PP      PP24967  15.201  12.968  13.057 -0.0756 -0.1663 -0.2165
14864PP      PP24968  12.946   6.373  11.169 -0.0423  0.2194  0.0899
14865PP      PP24969  11.886  13.583  12.793 -0.2564  0.1654 -0.2739
14866PP      PP24970   5.494  12.254   4.478  0.1777 -0.1488  0.3514
14867PP      PP24971   1.096   6.146   0.767  0.0186 -0.0353  0.1099
14868PP      PP24972   2.434   8.014   5.408 -0.0728 -0.0363  0.0716
14869PP      PP24973   2.225   2.316  10.349 -0.0504 -0.3056 -0.0168
14870PP      PP24974  11.881   2.573   3.006 -0.0332 -0.0631 -0.1794
14871PP      PP24975   7.536   4.207   2.645  0.2599 -0.2770 -0.3348
14872PP      PP24976  12.452  15.249  13.077  0.0630 -0.1451  0.2604
14873PP      PP24977  14.273  12.855   2.492 -0.1064  0.1550 -0.2250
14874PP      PP24978  15.637   8.885   4.666 -0.0333 -0.1743 -0.2138
14875PP      PP24979  11.691   8.105   0.979  0.1307  0.3019  0.0855
14876PP      PP24980  11.513   3.744  11.380 -0.0019 -0.0751 -0.2040
14877PP      PP24981  13.669   1.108   0.315  0.1555 -0.1030 -0.1209
14878PP      PP24982  10.345   5.952   9.615 -0.1630  0.2856  0.1062
14879PP      PP24983  14.693  12.049  13.049 -0.4312  0.2513 -0.1161
14880PP      PP24984  11.622   1.067   4.239 -0.0565 -0.0192  0.0811
14881PP      PP24985   9.084  11.607   4.165  0.5004 -0.2578  0.1560
14882PP      PP24986  15.056   3.916   0.412 -0.2123 -0.0439 -0.0215
14883PP      PP24987   8.204  10.554   2.817 -0.1042 -0.1184  0.1172
14884PP      PP24988   7.410   3.568   8.389 -0.1653  0.0718  0.0319
14885PP      PP24989  12.060   5.718   9.324  0.1222 -0.2871 -0.0460
14886PP      PP24990   9.780  12.393   4.049  0.2488  0.1681 -0.0482
14887PP      PP24991   8.818   9.582  12.959  0.2170  0.2373  0.2462
14888PP      PP24992   7.306  14.389   3.395  0.1936  0.1080  0.3203
14889PP      PP24993   6.311  11.997   1.358 -0.2732 -0.1594 -0.3311
14890PP      PP24994  12.625   7.323  11.850 -0.0816  0.3727 -0.0845
14891PP      PP24995   0.271   0.388  11.360 -0.1058  0.1156  0.2221
14892PP      PP24996  12.923  10.851   5.609  0.0989 -0.1786  0.2609
14893PP      PP24997   1.769   8.951  11.038  0.1339  0.0815  0.0956
14894PP      PP24998   9.420  10.438   2.212 -0.0770  0.1090  0.1327
14895PP      PP24999   5.952   7.409  12.631  0.1438 -0.0285  0.0798
14896PP      PP25000  12.705   6.641   5.384  0.2120 -0.1979 -0.1198
14897PP      PP25001  14.746   6.778  12.104  0.0604  0.2988 -0.2518
14898PP      PP25002   5.749   1.068  12.161  0.3700 -0.4639  0.0544
14899PP      PP25003  13.979  15.386   2.471  0.0216  0.2646  0.1745
14900PP      PP25004   2.249   5.796  10.138 -0.0305  0.3931 -0.2113
14901PP      PP25005  10.981   8.370   9.439 -0.1874  0.1375  0.1442
14902PP      PP25006   1.608  12.387   1.075  0.1753  0.2015 -0.0520
14903PP      PP25007   1.310   0.328   0.412  0.3034  0.1128 -0.0165
14904PP      PP25008   7.777   5.035  11.533  0.3664  0.0738 -0.0937
14905PP      PP25009   3.197  10.442   2.048 -0.0183 -0.1004  0.2602
14906PP      PP25010   4.461   1.586  13.396  0.2136 -0.0269 -0.1856
14907PP      PP25011   8.819   2.168   9.403  0.3912 -0.0176  0.0649
14908PP      PP25012  11.602   6.180   3.266 -0.1965 -0.2287  0.2186
14909PP      PP25013  13.639   3.521   3.953  0.3352  0.1379  0.3109
14910PP      PP25014  11.193  13.679  12.930 -0.1784 -0.2899 -0.0029
14911PP      PP25015  12.793  14.049  10.530  0.0256  0.0792  0.0323
14912PP      PP25016  12.364   0.256   4.192 -0.2859 -0.2355  0.0886
14913PP      PP25017   5.408  15.597   7.225 -0.1054 -0.1801  0.0747
14914PP      PP25018  13.792   5.272  13.429 -0.0025 -0.2555  0.0485
14915PP      PP25019   4.734   6.995  11.420 -0.0815  0.1895 -0.1413
14916PP      PP25020   6.757  14.600   2.562  0.1755 -0.2188  0.0936
14917PP      PP25021  13.422  12.082  12.070 -0.1362  0.0411 -0.3073
14918PP      PP25022  11.941   4.252  11.122 -0.0665 -0.1650  0.3134
14919PP      PP25023   5.692  12.021  11.720  0.1694 -0.0010 -0.1738
14920PP      PP25024  12.982   7.125  11.586 -0.1600 -0.0014 -0.1177
14921PP      PP25025  11.137   3.389  11.968 -0.3755 -0.1147  0.1628
14922PP      PP25026  10.645  12.003  12.494 -0.4207  0.3350  0.1654
14923PP      PP25027   2.679   3.069   1.893 -0.0045 -0.3656  0.0418
14924PP      PP25028   0.491  11.164   5.176 -0.3013 -0.1006  0.1153
14925PP      PP25029   8.582   0.620   0.947  0.1283  0.1800 -0.2572
14926PP      PP25030  15.658   0.037   2.076 -0.0971  0.2423 -0.0979
14927PP      PP25031   3.662   8.929   4.881  0.0086 -0.0485 -0.0597
14928PP      PP25032   3.753   3.958   9.453  0.0021  0.0060  0.0151
14929PP      PP25033  13.205  14.434   2.923 -0.0737  0.0448  0.1862
14930PP      PP25034   7.646  14.580  12.465  0.0699  0.2073 -0.0424
14931PP      PP25035   3.863  12.148  13.374  0.1804  0.3327  0.0325
14932PP      PP25036  15.380   7.001   1.919 -0.0580 -0.0300  0.0135
14933PP      PP25037  12.975  10.527   1.859 -0.0190  0.0311 -0.1799
14934PP      PP25038   3.416   6.457  12.947  0.1539 -0.0260  0.1951
14935PP      PP25039   5.640   9.540   9.210 -0.0181  0.2148 -0.0406
14936PP      PP25040  14.440   6.785   0.648  0.0727 -0.1506  0.1954
14937PP      PP25041   1.312   3.877   2.929 -0.2265  0.1897 -0.2006
14938PP      PP25042   9.170   7.288   9.355  0.1381  0.0214 -0.2355
14939PP      PP25043  12.959   5.159   5.251  0.0937 -0.2986  0.0555
14940PP      PP25044   2.100   6.965  11.033 -0.0512 -0.1735 -0.2087
14941PP      PP25045   5.312  11.959   9.020  0.2313 -0.0335 -0.1591
14942PP      PP25046   4.702   1.895   0.215  0.1346  0.0969  0.0344
14943PP      PP25047  13.263   2.974  12.981  0.3007 -0.2486 -0.0070
14944PP      PP25048   9.291   7.492  11.829  0.0667 -0.2222  0.0137
14945PP      PP25049   4.070   7.244   2.382 -0.1066 -0.0762 -0.1526
14946PP      PP25050   4.512  11.686   3.346 -0.0471 -0.0532  0.0963
14947PP      PP25051  14.505   7.949   2.574  0.0157 -0.1036 -0.1075
14948PP      PP25052  10.533  11.367   1.615  0.1990 -0.1621 -0.1597
14949PP      PP25053   8.684  12.939   9.794 -0.0523  0.0319  0.1429
14950PP      PP25054   8.564   2.154  10.617 -0.0211  0.0874  0.0181
14951PP      PP25055   1.414  10.634  11.104  0.0477 -0.0421 -0.0347
14952PP      PP25056   8.870   4.464   9.498  0.3028  0.2537 -0.2511
14953PP      PP25057   7.768   2.655   3.752 -0.2065  0.0577  0.4134
14954PP      PP25058  13.174   6.565   5.367 -0.0435  0.0923 -0.3722
14955PP      PP25059  14.086   8.450  13.275  0.1499  0.0055  0.0281
14956PP      PP25060  11.053  14.579  11.237  0.1256 -0.0748 -0.2520
14957PP      PP25061  13.365   3.320  10.197  0.1179  0.1981 -0.0334
14958PP      PP25062   8.564   7.236   0.944 -0.2613  0.0539  0.1369
14959PP      PP25063  10.254   2.881   8.422  0.1497 -0.1273 -0.0681
14960PP      PP25064   7.935  12.241   9.593 -0.0501 -0.0662  0.1100
14961PP      PP25065   9.769   0.805  10.427  0.3820 -0.1521 -0.0799
14962PP      PP25066   9.282  12.286   2.595  0.3330  0.0719 -0.1745
14963PP      PP25067  14.756  15.299   4.439 -0.0150 -0.0361  0.0416
14964PP      PP25068  15.296   4.244  11.455 -0.0738 -0.0942  0.1044
14965PP      PP25069  13.283   4.165   2.351  0.0487  0.1097  0.0101
14966PP      PP25070   2.319   6.674   2.314 -0.0838  0.0185 -0.2962
14967PP      PP25071   9.471  15.020   0.988  0.0824  0.0996 -0.1738
14968PP      PP25072   6.780  14.738  12.238  0.0680 -0.2671  0.3826
14969PP      PP25073  12.899   1.827   1.626  0.0205  0.0283 -0.0999
14970PP      PP25074   7.364  12.180   1.332  0.0117  0.0610  0.2468
14971PP      PP25075   3.710   5.164  12.394  0.1428 -0.0717  0.0816
14972PP      PP25076   6.943   7.653  13.131  0.0404  0.1404  0.1168
14973PP      PP25077   1.430   4.914  13.521  0.1431 -0.3839  0.0310
14974PP      PP25078   8.115   0.861  11.393 -0.1928 -0.2821  0.0387
14975PP      PP25079   1.122  11.608   1.314 -0.1266  0.2139  0.0645
14976PP      PP25080  14.014   3.241   4.098 -0.4843  0.0017 -0.0056
14977PP      PP25081   2.125  14.490   4.243 -0.0649 -0.2580  0.1851
14978PP      PP25082   7.309   1.166  12.061 -0.1213  0.0810 -0.3833
14979PP      PP25083  12.432   2.836  13.073  0.0632  0.0748 -0.0143
14980PP      PP25084   5.269   7.826   2.923 -0.3969 -0.4265 -0.2996
14981PP      PP25085   3.885   6.140  10.068 -0.2568 -0.1400  0.0404
14982PP      PP25086  10.307  10.948   1.934  0.1510 -0.1631  0.2840
14983PP      PP25087  12.724   3.273  12.240 -0.2164 -0.0673  0.0803
14984PP      PP25088   6.693   3.414   1.657  0.2056  0.1274  0.3889
14985PP      PP25089  11.370   8.561  13.191 -0.0256 -0.4488 -0.2901
14986PP      PP25090   8.311  13.379   9.162 -0.2097 -0.4046  0.0005
14987PP      PP25091   2.005   2.244   9.437  0.1885 -0.2344 -0.0700
14988PP      PP25092  11.120   9.767   2.847 -0.0631 -0.1067  0.1101
14989PP      PP25093   1.847   5.633   3.702  0.1520 -0.1500  0.0266
14990PP      PP25094   1.206  12.389   2.129  0.1521  0.2035 -0.1054
14991PP      PP25095   5.376   4.778   9.806 -0.1323  0.1944  0.2487
14992PP      PP25096  12.593  13.852  10.057  0.2805 -0.0984  0.0878
14993PP      PP25097   3.183   2.997   1.698  0.0655  0.2218 -0.5270
14994PP      PP25098  12.069   1.360  10.910 -0.1332 -0.0611 -0.2009
14995PP      PP25099   3.568  10.925   4.492 -0.0631 -0.1122 -0.0889
14996PP      PP25100   4.323  11.420   0.041 -0.1023  0.5266  0.1642
14997PP      PP25101  10.069  14.778   4.115  0.0646 -0.0127  0.0751
14998PP      PP25102   6.463   8.681  11.370 -0.4946 -0.1556 -0.1090
14999PP      PP25103  10.350   8.301   1.315 -0.3939 -0.0513 -0.0254
15000PP      PP25104   8.137   6.649  13.379  0.2191 -0.0636  0.1399
15001PP      PP25105  12.260   1.537   4.323  0.2677 -0.0526  0.3887
15002PP      PP25106  13.924   2.861   3.705 -0.2660 -0.0636 -0.3593
15003PP      PP25107   9.313   9.682  13.347  0.2082  0.1381  0.1590
15004PP      PP25108   7.035   4.916   3.971 -0.0408 -0.1746 -0.1429
15005PP      PP25109   2.811   1.097  11.634  0.0204 -0.1352 -0.0639
15006PP      PP25110  10.547   7.732  10.054  0.2299  0.2025 -0.1398
15007PP      PP25111   0.803   4.726  11.456  0.0653  0.0403 -0.0379
15008PP      PP25112  12.052   6.252  10.502  0.0135  0.6417 -0.0009
15009PP      PP25113   5.914   8.690  10.971 -0.0182  0.0540  0.2929
15010PP      PP25114   7.998   9.844   0.098  0.0646 -0.0109  0.4258
15011PP      PP25115  11.506   9.057  11.627  0.3032 -0.2873  0.1964
15012PP      PP25116   1.654  14.288  10.071 -0.1249  0.1397  0.0758
15013PP      PP25117   6.035   9.855  12.668  0.2844 -0.0481 -0.0100
15014PP      PP25118  15.154  12.139   0.332 -0.2079  0.0042  0.2419
15015PP      PP25119  12.397  15.121   2.488 -0.0234 -0.1513  0.0751
15016PP      PP25120  12.323   5.369   2.546 -0.0417 -0.3427  0.0844
15017PP      PP25121  13.474   7.532   3.252  0.3326 -0.2143 -0.3507
15018PP      PP25122  10.213  12.573   2.870 -0.1465 -0.1033 -0.0885
15019PP      PP25123  14.912  12.779  10.198  0.0737 -0.0551  0.2659
15020PP      PP25124   5.958   6.926   1.033  0.0753  0.0461  0.2379
15021PP      PP25125   6.966   7.766   0.599  0.0627  0.0472  0.0389
15022PP      PP25126   1.422  13.604   1.059  0.1496 -0.0856 -0.0221
15023PP      PP25127  11.676  13.757   1.613 -0.0355 -0.0133 -0.0714
15024PP      PP25128   9.999   2.630   1.015  0.1211  0.2632 -0.0040
15025PP      PP25129  13.855  10.012   9.831 -0.0570 -0.0862  0.3171
15026PP      PP25130   6.809   4.643   0.998  0.0175 -0.1432  0.0430
15027PP      PP25131  15.432   6.690   2.756  0.0998  0.1972  0.0484
15028PP      PP25132   2.257   5.788  12.681  0.1238 -0.2418  0.0195
15029PP      PP25133   9.994   3.982   9.141  0.1219  0.2571 -0.0800
15030PP      PP25134   1.999  14.597   3.769 -0.0667  0.2602  0.0595
15031PP      PP25135   9.026   7.257   3.880 -0.2252  0.2792 -0.1187
15032PP      PP25136   3.152   9.088  10.965 -0.0882 -0.3155 -0.0225
15033PP      PP25137  11.676   6.413  13.391 -0.0234  0.0292 -0.2744
15034PP      PP25138   7.811   9.727   9.441 -0.3277 -0.4121 -0.0405
15035PP      PP25139  13.645   1.662   2.873 -0.1283 -0.0401 -0.0497
15036PP      PP25140   5.081   6.971  10.099 -0.0030  0.3014 -0.2702
15037PP      PP25141   5.951  10.237   3.830 -0.2600 -0.0813 -0.0990
15038PP      PP25142   5.378   1.373   1.185 -0.3900  0.3662 -0.2700
15039PP      PP25143   0.543   4.663   4.057  0.0521  0.0231  0.1219
15040PP      PP25144  11.620   2.965  12.077 -0.2916  0.1975 -0.4637
15041PP      PP25145   6.733  13.529  13.006 -0.0456 -0.1344 -0.2346
15042PP      PP25146  11.282   0.820  10.955 -0.0949  0.0026  0.0656
15043PP      PP25147   3.838   6.068   0.189  0.0748 -0.1084 -0.3028
15044PP      PP25148  10.839   6.732  12.966  0.0544 -0.0901  0.2820
15045PP      PP25149  11.009  11.962   4.081  0.3816  0.1105  0.1370
15046PP      PP25150   3.374  11.915   4.213 -0.2866 -0.4918  0.1339
15047PP      PP25151   4.992  13.859   8.356 -0.0372 -0.1830 -0.1441
15048PP      PP25152  14.278   6.093   3.722  0.2185  0.0702  0.1846
15049PP      PP25153   5.421   9.860   9.487 -0.0451 -0.0410  0.0902
15050PP      PP25154  10.128   2.472   9.324  0.2509 -0.1415 -0.2052
15051PP      PP25155   3.316   5.238   0.799  0.0306 -0.0249  0.0186
15052PP      PP25156  13.885   6.179   3.305 -0.0737 -0.0767  0.0308
15053PP      PP25157  13.229   3.693   1.838 -0.0059 -0.0823  0.2310
15054PP      PP25158   9.628  13.255   2.273 -0.2153  0.0538 -0.1273
15055PP      PP25159   7.417   9.411   9.656 -0.0304 -0.2385  0.5139
15056PP      PP25160   7.644   5.597   8.568  0.0380  0.0180  0.0298
15057PP      PP25161  10.329   8.689  12.465  0.2529  0.0230  0.0276
15058PP      PP25162  12.380  12.101  11.949 -0.1320  0.0587  0.1438
15059PP      PP25163   7.673   7.004   1.862  0.0979  0.5925  0.0239
15060PP      PP25164   3.777   1.154  11.894  0.1905  0.1121  0.2683
15061PP      PP25165  11.065   9.554  13.039  0.1269 -0.0996 -0.2256
15062PP      PP25166   1.999   6.061  11.218 -0.2307 -0.3758 -0.3931
15063PP      PP25167   6.255  12.883   0.760  0.0085  0.4345 -0.2258
15064PP      PP25168   7.728   8.847   0.119  0.0914  0.0681  0.2400
15065PP      PP25169   1.868  11.075   2.001  0.1982 -0.2725 -0.1570
15066PP      PP25170   8.802  14.891  11.525  0.0179  0.0871 -0.0342
15067PP      PP25171   6.804   4.767  12.341  0.3294  0.2500 -0.1955
15068PP      PP25172   8.533  12.582   8.916 -0.3278 -0.2784 -0.0210
15069PP      PP25173  14.322  10.583  12.368 -0.2394 -0.0994  0.0356
15070PP      PP25174   5.787  12.913   2.920  0.1981  0.3051 -0.2236
15071PP      PP25175  13.418  13.870   9.688  0.2178 -0.0327 -0.0385
15072PP      PP25176   4.946   0.420  10.242  0.2107 -0.1605  0.0599
15073PP      PP25177  13.018  11.209  12.472 -0.0592 -0.1914  0.2016
15074PP      PP25178   9.167  11.094   4.097  0.2629  0.1323  0.1105
15075PP      PP25179  13.853   6.891   1.251 -0.2108  0.1579  0.3871
15076PP      PP25180   3.192  14.473  10.195 -0.0427  0.0737 -0.0012
15077PP      PP25181   7.599  13.784   1.837  0.2799  0.0827  0.1211
15078PP      PP25182  11.114   2.694   1.327  0.0568 -0.1381  0.1482
15079PP      PP25183   0.829   2.046  12.902 -0.2108  0.0002 -0.2929
15080PP      PP25184   3.175  10.432   4.000 -0.0122  0.0070 -0.1451
15081PP      PP25185   3.865  11.837  12.377 -0.0867 -0.3614  0.2168
15082PP      PP25186   2.700  11.409   2.242  0.1940 -0.0305  0.1489
15083PP      PP25187   9.419  13.590   0.348 -0.0181  0.1967 -0.0345
15084PP      PP25188  11.491  12.546  12.190 -0.0366 -0.0754  0.0563
15085PP      PP25189   2.585  10.026  12.568 -0.1298 -0.2552 -0.1805
15086PP      PP25190   4.543   6.506  12.328  0.0574 -0.4967  0.2014
15087PP      PP25191  14.493  15.651   4.271 -0.0001  0.0329 -0.3323
15088PP      PP25192  15.400   4.411  12.830 -0.0038  0.0209  0.2266
15089PP      PP25193  10.119   7.933   0.102  0.0157 -0.3254  0.2785
15090PP      PP25194   6.642   7.003   1.791 -0.3403 -0.0775  0.3437
15091PP      PP25195   8.329   1.683  12.167 -0.0741  0.0787  0.0297
15092PP      PP25196   7.448   8.333   4.328  0.1315  0.2970 -0.0868
15093PP      PP25197   3.108   9.841   3.305  0.0619 -0.2344 -0.2053
15094PP      PP25198   1.368   1.807  10.403 -0.0305 -0.0196 -0.1270
15095PP      PP25199   9.152   4.477   2.426  0.2496  0.1414 -0.3626
15096PP      PP25200   9.780  10.685  12.240  0.4651 -0.1645  0.5986
15097PP      PP25201  14.993  14.437  12.940  0.0406  0.1501  0.1614
15098PP      PP25202   0.339   2.530   2.605  0.3807  0.2429  0.1207
15099PP      PP25203  11.247   0.103   3.872 -0.0375 -0.1214 -0.0426
15100PP      PP25204  11.522  12.406   0.473 -0.2103 -0.2583  0.0694
15101PP      PP25205  11.529   5.260  11.923 -0.1598 -0.2026 -0.0148
15102PP      PP25206  15.531   0.954   9.411 -0.1208  0.2012 -0.2097
15103PP      PP25207   2.299   7.137  10.117  0.1303 -0.2088  0.3171
15104PP      PP25208  12.758   4.363  11.541 -0.1739  0.1677  0.0671
15105PP      PP25209   6.560   4.193   1.094  0.1734 -0.0002  0.0723
15106PP      PP25210  14.857  13.148   0.950 -0.1088  0.1994 -0.0370
15107PP      PP25211  14.738   6.193  10.882  0.1644  0.0764  0.0590
15108PP      PP25212   6.865   6.006   9.309 -0.1413  0.1289  0.1605
15109PP      PP25213   1.475   6.134   9.640  0.1559 -0.0300  0.0009
15110PP      PP25214  14.192  11.912  11.321 -0.0831  0.0670  0.1383
15111PP      PP25215   0.831   4.391  10.295  0.1298 -0.1144 -0.0022
15112PP      PP25216   9.239   1.632  12.783  0.0997 -0.0102  0.2240
15113PP      PP25217   6.111  13.110  10.588  0.0831  0.0232  0.0018
15114PP      PP25218  10.236   1.014   2.785  0.0408  0.0114 -0.1048
15115PP      PP25219   5.850   0.839  11.738 -0.2477 -0.3575 -0.0881
15116PP      PP25220   1.303   5.605  12.009 -0.4161 -0.1590 -0.1470
15117PP      PP25221   6.087  10.985   2.299 -0.2139 -0.3502 -0.1943
15118PP      PP25222   7.206  14.210   3.933  0.1232 -0.0379 -0.0477
15119PP      PP25223   8.151   2.743   3.412  0.0305  0.0664 -0.3230
15120PP      PP25224  12.337  11.024   1.474  0.1777  0.0032 -0.0105
15121PP      PP25225  15.636  10.886   2.312 -0.0798  0.0907 -0.1010
15122PP      PP25226   8.613   9.396   9.277  0.0724 -0.4947  0.0673
15123PP      PP25227   6.262   6.546   3.909 -0.1091 -0.0860  0.1460
15124PP      PP25228   5.500  10.298   3.387  0.3190  0.1089  0.3064
15125PP      PP25229  12.037   4.816  12.914 -0.0693  0.0796 -0.0034
15126PP      PP25230  10.274  14.905   2.010  0.3158  0.1880  0.0989
15127PP      PP25231  13.216   1.723  12.224 -0.2569 -0.0517  0.1770
15128PP      PP25232   8.216   8.903  11.243 -0.2186 -0.0516 -0.4125
15129PP      PP25233  14.524  14.896   8.875  0.0053  0.0669  0.3482
15130PP      PP25234  15.604   3.953  10.445  0.2316  0.1428  0.0662
15131PP      PP25235  14.800   6.655  10.653  0.1796  0.1442  0.0992
15132PP      PP25236   4.133   0.944   9.464  0.2586 -0.0126  0.2279
15133PP      PP25237   6.405   3.849   1.907  0.0732  0.3358  0.0817
15134PP      PP25238   5.088  13.071   0.765  0.0216  0.1131  0.0409
15135PP      PP25239   4.447   3.336   2.300 -0.2114  0.3847 -0.1989
15136PP      PP25240   1.640  14.937   0.508  0.0171  0.0218  0.0092
15137PP      PP25241   3.957   5.296   5.039  0.0525  0.0551 -0.1272
15138PP      PP25242   1.478  12.771   0.561 -0.2061  0.0711 -0.3070
15139PP      PP25243   4.537   3.529   3.868 -0.1386 -0.0761  0.0314
15140PP      PP25244   6.360  11.143   2.779 -0.2910 -0.1505  0.2661
15141PP      PP25245   8.324  12.090  12.589  0.0491 -0.1665  0.0573
15142PP      PP25246   6.160   2.481   8.739 -0.1039 -0.1306  0.1562
15143PP      PP25247   1.310   9.021   4.398  0.3695 -0.1960 -0.0235
15144PP      PP25248  12.120  10.612  10.177 -0.2340  0.3026 -0.1347
15145PP      PP25249   0.703  14.594   3.635  0.1688 -0.0050 -0.0377
15146PP      PP25250  15.628   4.383  10.568 -0.1132  0.3194  0.2198
15147PP      PP25251   2.816   2.074   1.305 -0.0464 -0.2122  0.2026
15148PP      PP25252   6.483   9.217  13.036  0.1523 -0.1144  0.1115
15149PP      PP25253   3.842   2.227   9.863 -0.0786 -0.1234  0.0415
15150PP      PP25254  10.361   1.339   1.280 -0.1629  0.1954  0.0309
15151PP      PP25255  15.628   1.855   1.409 -0.0674 -0.0358  0.1154
15152PP      PP25256   9.483   0.309   1.597  0.2397  0.0244  0.1401
15153PP      PP25257   6.280   5.108  10.856 -0.1248 -0.1254 -0.0941
15154PP      PP25258  11.444  12.423  11.441  0.1319 -0.1567  0.1864
15155PP      PP25259  14.948   1.067  11.898 -0.2633  0.2794 -0.0579
15156PP      PP25260  14.055   1.827   2.577  0.1474 -0.0641 -0.1639
15157PP      PP25261   7.097  14.497   2.922  0.1171  0.0370  0.1993
15158PP      PP25262  11.728   9.256   3.789  0.0229  0.2416  0.0359
15159PP      PP25263  10.639   7.526   0.753  0.0743  0.0461  0.2428
15160PP      PP25264  12.302  14.076   0.736  0.2933 -0.1397  0.2001
15161PP      PP25265   7.838   7.962  13.107 -0.4248  0.1454 -0.3381
15162PP      PP25266  14.722  10.838   1.667 -0.0318 -0.0106  0.1548
15163PP      PP25267   1.383  12.067  13.072  0.3771  0.1343  0.1143
15164PP      PP25268  11.982   3.426  12.516 -0.2438  0.2114  0.0577
15165PP      PP25269  10.445  11.157   4.418 -0.3887  0.3583 -0.3993
15166PP      PP25270   4.976  10.445   3.364 -0.0048 -0.0870  0.0884
15167PP      PP25271   4.052  11.230   4.960  0.1081 -0.0018 -0.1320
15168PP      PP25272   9.099   5.950   3.125 -0.1081 -0.2864 -0.4125
15169PP      PP25273   8.000  14.834   8.990  0.0950 -0.1157  0.0300
15170PP      PP25274   6.299   0.659   1.562 -0.3223 -0.0662 -0.0272
15171PP      PP25275   7.364  13.849  10.301  0.2247  0.0039  0.2881
15172PP      PP25276  13.677   2.114   2.394 -0.1066  0.0992 -0.1233
15173PP      PP25277  10.495   0.151   2.936 -0.3072  0.0851  0.3102
15174PP      PP25278   3.395   4.095   0.001 -0.0674 -0.2792 -0.2023
15175PP      PP25279   2.482   1.570   9.689  0.1131  0.0478 -0.0049
15176PP      PP25280  14.425  13.358   1.255  0.0481  0.3643 -0.0767
15177PP      PP25281   3.163  14.519   2.209 -0.4546 -0.0093  0.3351
15178PP      PP25282   7.387  15.308  10.819  0.3765  0.3606 -0.3400
15179PP      PP25283   3.910   5.746   1.593  0.0463 -0.0457  0.4279
15180PP      PP25284   1.033   3.620   9.573 -0.3960  0.1132  0.3478
15181PP      PP25285   7.877  13.516   2.129  0.0934  0.1067  0.1116
15182PP      PP25286   3.522  12.078   2.684 -0.4027  0.2455 -0.1023
15183PP      PP25287  14.678   4.829   8.953 -0.0594  0.1249 -0.1445
15184PP      PP25288  11.227  12.436   2.575 -0.1027  0.2094  0.0009
15185PP      PP25289   6.450  14.543  11.144  0.0257 -0.0931 -0.1194
15186PP      PP25290   9.352   1.185  12.687 -0.2257  0.3697  0.2588
15187PP      PP25291   2.186   0.019  11.272  0.2064 -0.1753 -0.3392
15188PP      PP25292  11.706   5.933  10.913  0.0684 -0.0486  0.0899
15189PP      PP25293  14.692   9.048   4.313 -0.0934  0.1240 -0.2655
15190PP      PP25294   3.439   4.823   0.563  0.0968 -0.0218 -0.0345
15191PP      PP25295   6.627   1.779  11.826 -0.1217 -0.3443 -0.0029
15192PP      PP25296   6.098  11.100   3.635  0.0207  0.0073  0.3256
15193PP      PP25297   5.062   2.098   3.816 -0.1219  0.0588 -0.2149
15194PP      PP25298   4.565   5.475  11.307 -0.0672  0.0424  0.0897
15195PP      PP25299   9.570  10.832   2.532  0.1127 -0.0401 -0.1505
15196PP      PP25300   6.418   3.505   3.588  0.0821  0.2506 -0.1286
15197PP      PP25301   9.943  14.172  10.674  0.3278 -0.1465 -0.0378
15198PP      PP25302  11.453   2.376   3.784 -0.0858 -0.1323 -0.0323
15199PP      PP25303   6.537   5.265  11.822  0.0139 -0.2290 -0.3494
15200PP      PP25304   8.556  11.649  12.278 -0.1013 -0.2017 -0.0221
15201PP      PP25305   2.394   8.044   0.183 -0.3486  0.2934 -0.1140
15202PP      PP25306   8.706  12.955  11.659 -0.1994  0.2890 -0.0156
15203PP      PP25307  13.210  10.137   2.590 -0.3164  0.0372 -0.1551
15204PP      PP25308  13.964  14.421   3.354 -0.0161 -0.1248 -0.1704
15205PP      PP25309  14.451   8.618   4.954 -0.0798 -0.1115  0.4356
15206PP      PP25310   6.896  15.530   2.504  0.0990 -0.1786  0.2597
15207PP      PP25311   5.889  14.617   3.757  0.1367  0.0825  0.0943
15208PP      PP25312   1.976   8.098  12.962 -0.2221  0.1831  0.2224
15209PP      PP25313   0.074  11.812   0.263 -0.0961 -0.1981  0.0089
15210PP      PP25314   8.667  11.410   4.326  0.1727 -0.0530 -0.1128
15211PP      PP25315   0.718   3.516  12.486  0.0358 -0.0823 -0.0332
15212PP      PP25316   4.180  12.801  12.888 -0.1011  0.1336  0.1605
15213PP      PP25317  10.511  15.794  11.321 -0.1474  0.1554  0.3245
15214PP      PP25318  14.091   2.606   0.408 -0.0494 -0.0601 -0.0059
15215PP      PP25319  12.477  15.051   8.572  0.1834  0.1156 -0.0495
15216PP      PP25320  14.944  10.764   2.934  0.2717  0.0987 -0.2058
15217PP      PP25321   5.830   0.368   8.883  0.1755  0.0206  0.1158
15218PP      PP25322  11.727   7.911   1.711  0.1605  0.4328 -0.0025
15219PP      PP25323   5.722  15.747   9.033 -0.2071  0.3095  0.2050
15220PP      PP25324   5.283   4.362  13.240  0.0917  0.4063  0.0829
15221PP      PP25325  12.024  10.447  11.895  0.0390 -0.0878 -0.1231
15222PP      PP25326   1.958   9.872  10.984  0.0068  0.1176 -0.2141
15223PP      PP25327   4.489   6.044  10.024  0.0130 -0.2882  0.2449
15224PP      PP25328   4.610   8.326   1.553 -0.3642  0.0256 -0.0760
15225PP      PP25329   2.172   3.934   0.713  0.0139  0.3013  0.0648
15226PP      PP25330  13.302  13.311  10.457 -0.0869  0.1378 -0.0241
15227PP      PP25331   6.039   1.349   9.735 -0.3182  0.2599  0.2112
15228PP      PP25332  11.094  11.696  12.162 -0.0963  0.1385  0.0867
15229PP      PP25333   9.206   7.724  11.327  0.2563 -0.0310  0.4118
15230PP      PP25334   6.829  12.665  12.868 -0.2373  0.2886 -0.0054
15231PP      PP25335   0.110   4.847   0.798 -0.3070  0.0442 -0.2151
15232PP      PP25336   5.006   7.407   4.708  0.0393  0.0572  0.1044
15233PP      PP25337   4.635   6.458   3.321  0.1517  0.2147 -0.1028
15234PP      PP25338   4.842  10.401   0.984 -0.1481 -0.2813  0.0521
15235PP      PP25339  10.524   4.774   2.296  0.1884  0.0877  0.1499
15236PP      PP25340   1.165   4.474   4.917  0.3283 -0.0316 -0.3148
15237PP      PP25341  10.838  11.239  12.075 -0.6023 -0.2554  0.2770
15238PP      PP25342   5.488  10.755  12.313  0.0521 -0.3863  0.2574
15239PP      PP25343   2.697  11.086   1.430  0.0908 -0.0355  0.0712
15240PP      PP25344   0.621   0.040   0.852 -0.0123 -0.1854 -0.0457
15241PP      PP25345   4.493  10.836  12.022  0.0518 -0.2165 -0.1495
15242PP      PP25346   4.807   4.420  13.001  0.1558 -0.0722  0.0943
15243PP      PP25347   4.777   8.279  10.412 -0.1852 -0.0752 -0.2948
15244PP      PP25348  10.456   8.216  11.699 -0.1098  0.1851  0.0537
15245PP      PP25349   9.497  14.106   9.341  0.1883  0.3649  0.1397
15246PP      PP25350  11.501  11.877  11.432 -0.1632  0.0174  0.2323
15247PP      PP25351   8.597   3.184   0.233  0.0981 -0.0176 -0.1414
15248PP      PP25352  11.526  14.086   3.837  0.0967  0.2899 -0.1266
15249PP      PP25353   9.406  11.957   0.814  0.0287 -0.0812  0.2390
15250PP      PP25354   5.096  11.682   2.040 -0.0957 -0.1372  0.5888
15251PP      PP25355  14.297   3.444   0.244 -0.0279 -0.2363  0.0467
15252PP      PP25356  15.597   3.960  12.283 -0.0820  0.1977  0.0676
15253PP      PP25357   6.212   9.669   4.443  0.1575  0.1105 -0.1654
15254PP      PP25358   7.712   3.933   8.519  0.1354 -0.0298 -0.0387
15255PP      PP25359  14.989  12.827   1.797  0.2629 -0.3877 -0.2179
15256PP      PP25360   0.964  13.168   4.714 -0.1818  0.1619 -0.5345
15257PP      PP25361  11.246   0.996  11.466 -0.1290 -0.0870 -0.1313
15258PP      PP25362  12.157   1.129   0.843  0.1886 -0.1427  0.1622
15259PP      PP25363  13.885  10.194  12.569  0.0976 -0.2785  0.1764
15260PP      PP25364  10.680   0.895   9.256  0.0466  0.1096 -0.0550
15261PP      PP25365   4.802  10.022   1.799  0.1439  0.0199 -0.0251
15262PP      PP25366   8.267  10.761   2.201  0.0165  0.5095 -0.1881
15263PP      PP25367  10.579   2.370   9.473  0.1612  0.2584  0.0187
15264PP      PP25368  11.064  14.297  12.078 -0.0414  0.0240 -0.0305
15265PP      PP25369  10.752   7.233   8.682 -0.2705 -0.3168  0.0866
15266PP      PP25370   4.868   9.225   2.591 -0.0522  0.1253 -0.2852
15267PP      PP25371   1.450  13.945  10.445  0.1929 -0.1526  0.1610
15268PP      PP25372  13.889   0.224  11.525  0.1674 -0.0636  0.0771
15269PP      PP25373   9.139   7.512   2.567  0.2110 -0.2092 -0.0020
15270PP      PP25374  12.739   7.708  12.156  0.2753  0.2198 -0.1895
15271PP      PP25375   6.143  11.881  12.037  0.0023 -0.0295 -0.0705
15272PP      PP25376  10.813   4.266  11.284  0.0745 -0.0990  0.1036
15273PP      PP25377  12.373   5.750  13.462 -0.1916  0.2787  0.0744
15274PP      PP25378   5.868  15.262   9.047  0.3363 -0.0717  0.2700
15275PP      PP25379   8.038   5.847   1.732  0.1469 -0.1239 -0.0238
15276PP      PP25380   3.190   4.575   3.726  0.3879  0.1879 -0.0634
15277PP      PP25381  13.127   9.419   3.956 -0.0833 -0.0104  0.1616
15278PP      PP25382   6.844   6.610  10.676 -0.0220  0.0077 -0.0570
15279PP      PP25383   9.566   5.095   0.021  0.5041 -0.1979 -0.1463
15280PP      PP25384   7.333  12.450  12.773  0.3452  0.0475  0.3495
15281PP      PP25385   1.071   3.120  11.081 -0.0869 -0.2338 -0.0910
15282PP      PP25386   3.378  10.289  13.045  0.0898 -0.0087 -0.0272
15283PP      PP25387  12.230  13.889   1.574  0.0024 -0.0113  0.1703
15284PP      PP25388   4.149  15.533  12.754 -0.1219 -0.0871 -0.2553
15285PP      PP25389   1.691   1.607   1.819  0.1206 -0.0752  0.2411
15286PP      PP25390   9.980   8.344  11.182  0.0873  0.0457  0.0932
15287PP      PP25391   8.617   3.407  13.046  0.2225  0.4438 -0.4681
15288PP      PP25392  13.411   2.543  11.176 -0.2742  0.0478  0.0973
15289PP      PP25393  14.361  10.994  13.154 -0.1152 -0.1105  0.1859
15290PP      PP25394   0.036   2.816  12.634  0.3334  0.1116  0.1078
15291PP      PP25395  10.730   3.161  11.712 -0.0051 -0.2189  0.1042
15292PP      PP25396  10.659  12.294   1.699 -0.2082  0.0072 -0.2319
15293PP      PP25397   9.268  15.397   8.337 -0.0991 -0.1327  0.0821
15294PP      PP25398   5.039   9.786   9.187 -0.2223  0.2568  0.1290
15295PP      PP25399  11.043  12.030  11.604 -0.2926  0.3309  0.3312
15296PP      PP25400   3.882   0.523   9.348 -0.1794 -0.1752  0.1268
15297PP      PP25401   1.383  11.339   3.071  0.0128  0.3884  0.5882
15298PP      PP25402   1.412   2.327   1.070 -0.0089 -0.0879  0.0188
15299PP      PP25403  13.782   9.370  13.330 -0.2815 -0.0317 -0.0449
15300PP      PP25404  13.896  11.233  13.041 -0.1223  0.2738  0.0967
15301PP      PP25405  14.615  15.376  10.815 -0.0369 -0.2696 -0.0471
15302PP      PP25406   6.973   9.759   2.964 -0.0974 -0.0356  0.1491
15303PP      PP25407   8.848   4.934  10.237 -0.1037  0.1346  0.2358
15304PP      PP25408  14.996   0.763   3.379  0.0037  0.1372 -0.2054
15305PP      PP25409   0.879  10.623   4.412  0.2294 -0.1806 -0.1535
15306PP      PP25410   9.964   0.113   9.146 -0.2201  0.0596 -0.0942
15307PP      PP25411   6.601   7.250  13.339 -0.1451 -0.2471  0.2974
15308PP      PP25412  10.990   3.979   9.150 -0.3669 -0.1910  0.0893
15309PP      PP25413  12.963  11.741  12.534  0.2584 -0.0974 -0.0605
15310PP      PP25414   3.846  15.739  13.081  0.1856 -0.0619 -0.2349
15311PP      PP25415  11.356   3.927   2.055 -0.0624  0.1545  0.1520
15312PP      PP25416  14.821  13.248  11.868  0.1879  0.0957 -0.2122
15313PP      PP25417   8.028   0.489   2.021 -0.1492  0.0849 -0.3066
15314PP      PP25418   0.829  13.043   3.324 -0.1116 -0.0855  0.0115
15315PP      PP25419   8.929  13.535   9.927  0.1065 -0.1584  0.0723
15316PP      PP25420   7.009   2.236   0.126  0.6770  0.0560  0.1249
15317PP      PP25421   8.803   3.661   0.737  0.3208 -0.1954 -0.1029
15318PP      PP25422   0.355  15.789   8.962  0.4394  0.1337  0.1238
15319PP      PP25423   5.395   4.998   2.936 -0.1996  0.0211 -0.0363
15320PP      PP25424  11.145   2.305   2.410 -0.1237 -0.3367 -0.1972
15321PP      PP25425  14.868   8.885  11.685  0.0800 -0.0592  0.2783
15322PP      PP25426   0.546  12.434  10.998 -0.2065  0.5127 -0.2473
15323PP      PP25427   9.838   6.252   4.089 -0.1143  0.2486 -0.0695
15324PP      PP25428  14.636   0.885  12.856 -0.4610 -0.5249 -0.0763
15325PP      PP25429  14.856  13.231   3.991  0.1306  0.1761 -0.2813
15326PP      PP25430   8.515  14.122  12.726 -0.1351 -0.0324 -0.2173
15327PP      PP25431  13.445   8.387  11.710 -0.0821 -0.0081  0.0236
15328PP      PP25432   2.606   5.387  12.630  0.1132 -0.0006  0.1918
15329PP      PP25433   1.176   2.501   2.701  0.0079 -0.0657 -0.0514
15330PP      PP25434   6.423   9.732  10.464  0.1290 -0.1832  0.1983
15331PP      PP25435   9.011   6.757   1.435 -0.2022  0.0898 -0.0283
15332PP      PP25436   7.023   4.462   9.969 -0.1565  0.0925  0.0193
15333PP      PP25437   1.563   0.743   8.635 -0.0059 -0.0541 -0.2002
15334PP      PP25438  12.412  11.476   2.394  0.1750  0.0247 -0.1018
15335PP      PP25439  10.423   7.266  10.233 -0.0550 -0.0694  0.5128
15336PP      PP25440   1.600  10.881  13.291  0.2138 -0.0083  0.1215
15337PP      PP25441   3.996  13.111  13.221 -0.2844 -0.0214  0.3368
15338PP      PP25442   2.897   6.018   5.118  0.0032  0.1131 -0.1687
15339PP      PP25443   1.311  10.716   0.157 -0.0754  0.1873 -0.1305
15340PP      PP25444   8.655   7.562   4.146  0.1279 -0.0806 -0.2385
15341PP      PP25445   7.557   6.069   4.261  0.3208  0.0754 -0.1634
15342PP      PP25446  10.547   2.753  10.855  0.0325  0.1563  0.5769
15343PP      PP25447  12.476   3.468  11.675  0.3105 -0.2047  0.2355
15344PP      PP25448  12.690  10.791   1.157 -0.0237 -0.1525  0.0499
15345PP      PP25449   5.262   4.347  12.483  0.1322 -0.1640  0.1984
15346PP      PP25450   4.920   8.777   1.451 -0.3029  0.2542 -0.1056
15347PP      PP25451  10.170  10.056   0.670  0.3732 -0.2156 -0.3516
15348PP      PP25452   5.087   5.372   1.558  0.1199 -0.0357  0.2425
15349PP      PP25453   1.039  10.252  13.503  0.1433  0.3390  0.0309
15350PP      PP25454   8.044   7.671  11.169 -0.1324  0.0004  0.0327
15351PP      PP25455   9.517  10.715   3.514  0.1650 -0.0311  0.0980
15352PP      PP25456   8.739  11.195   1.080  0.1383 -0.1466 -0.0937
15353PP      PP25457   4.528   4.877  10.048 -0.0666  0.4820  0.0622
15354PP      PP25458  11.807   2.453  13.503 -0.1204  0.2080  0.1623
15355PP      PP25459  12.579   6.158   5.380 -0.0303 -0.0009 -0.0038
15356PP      PP25460   3.222  15.744  12.340 -0.2572 -0.0434 -0.0323
15357PP      PP25461   0.765  11.888   2.599  0.0283  0.0592 -0.3077
15358PP      PP25462   3.674   2.965   1.921 -0.2387  0.0228  0.3058
15359PP      PP25463   0.802  10.524   2.523  0.2787 -0.2624 -0.3182
15360PP      PP25464   0.941   6.373   2.798  0.2065  0.0847  0.0771
15361PP      PP25465   0.231   9.607  10.519 -0.1036  0.1008 -0.2855
15362PP      PP25466  13.863   1.680  13.109  0.1061 -0.0911  0.1604
15363PP      PP25467   3.531  13.237  11.627  0.0718 -0.0104  0.0379
15364PP      PP25468   1.460   1.156   1.764  0.0733 -0.1189 -0.1424
15365PP      PP25469  15.355   8.703   4.211  0.0986 -0.0238 -0.0317
15366PP      PP25470   5.502  11.045  10.108  0.0094 -0.1616  0.1698
15367PP      PP25471   8.601  14.194   0.558 -0.0856 -0.0689  0.2420
15368PP      PP25472  12.308  10.651  10.707 -0.0911 -0.2584  0.1567
15369PP      PP25473  12.765  10.467  13.099  0.0917  0.2477 -0.2022
15370PP      PP25474   0.373   5.052  11.756  0.1956 -0.2989  0.2957
15371PP      PP25475  12.880  13.744   3.854  0.1719 -0.2450  0.0230
15372PP      PP25476   3.314  15.406   3.639  0.2339 -0.1180 -0.0454
15373PP      PP25477  12.642  11.291  10.205  0.1007  0.0000  0.0848
15374PP      PP25478  12.312   5.064  11.522  0.0157  0.1623 -0.0312
15375PP      PP25479  10.769  13.569  13.441 -0.1474 -0.2457 -0.0698
15376PP      PP25480  14.402   9.899  11.884 -0.1403  0.0915  0.0453
15377PP      PP25481  12.725   1.373   9.073 -0.1424 -0.1305 -0.3783
15378PP      PP25482  13.624  11.492   3.761 -0.3292  0.0068  0.2223
15379PP      PP25483  11.723  11.747   9.425 -0.2657  0.0184  0.2547
15380PP      PP25484   0.148   2.034   1.695 -0.0929 -0.3747 -0.1927
15381PP      PP25485   4.460   3.666   3.238  0.3540 -0.1070 -0.4437
15382PP      PP25486  13.113   4.053   1.120 -0.1559  0.0422  0.2276
15383PP      PP25487   8.579   7.372   2.496 -0.3075  0.1049 -0.2691
15384PP      PP25488   5.597   5.251   2.195  0.0780  0.1142  0.1877
15385PP      PP25489  10.202   2.003  10.982  0.0587  0.1519 -0.2036
15386PP      PP25490   7.323   6.623  13.077  0.1611  0.0070  0.0078
15387PP      PP25491  13.783  12.460   9.535 -0.1528 -0.1139 -0.3284
15388PP      PP25492  15.559   3.602  12.624 -0.2964 -0.3036 -0.0467
15389PP      PP25493   5.462   8.572  11.129  0.1817  0.0764 -0.1573
15390PP      PP25494   3.723   5.782   4.405  0.2600  0.0776 -0.0456
15391PP      PP25495   7.624  13.341   3.709 -0.0163 -0.1385 -0.1027
15392PP      PP25496  14.262  14.242  11.918  0.0648 -0.3047 -0.1318
15393PP      PP25497   0.868   5.078  12.675 -0.0346  0.1369  0.0291
15394PP      PP25498   6.770   5.226   4.342  0.1226 -0.1233  0.0602
15395PP      PP25499  14.848  13.079  10.575 -0.1242  0.1012 -0.1033
15396PP      PP25500   6.027   5.238   9.611 -0.0798  0.1673  0.1229
15397PP      PP25501   1.583  12.172  12.617  0.2021  0.0146  0.0290
15398PP      PP25502   2.792  10.188   1.540 -0.1441  0.3360 -0.1439
15399PP      PP25503   9.014  15.333  10.024  0.0649  0.0629 -0.0062
15400PP      PP25504  12.517   2.942  10.723  0.1790  0.3376  0.3879
15401PP      PP25505   4.097   2.612   8.946 -0.1480 -0.3492 -0.2240
15402PP      PP25506  13.538  13.248  10.003 -0.0023  0.1148  0.4635
15403PP      PP25507   1.854  12.352   0.298 -0.0218 -0.0782  0.1723
15404PP      PP25508  10.091   6.128   9.209  0.0702 -0.1824 -0.1466
15405PP      PP25509   2.654   6.879   9.837  0.3583  0.2406  0.0689
15406PP      PP25510   4.254   5.372   1.489  0.3785  0.1186  0.0704
15407PP      PP25511   2.812   5.568  10.785  0.2391  0.0632  0.0916
15408PP      PP25512   1.328   8.557   0.741 -0.0204  0.0296  0.1805
15409PP      PP25513   4.675   7.569  11.103  0.0968  0.0667  0.0831
15410PP      PP25514   8.715   6.253   3.041 -0.3407 -0.0683  0.0802
15411PP      PP25515   9.616   2.138   0.442 -0.4335 -0.0453 -0.1985
15412PP      PP25516  14.585  12.638   9.758  0.2615  0.2132 -0.3337
15413PP      PP25517  13.913   8.089   0.096  0.1326 -0.1370  0.0375
15414PP      PP25518   8.715  13.438  11.804  0.3506  0.0564 -0.0948
15415PP      PP25519   8.237   6.830  11.032  0.1556  0.2555  0.2116
15416PP      PP25520  11.411  13.445   2.141  0.0893  0.1782  0.3076
15417PP      PP25521   6.545   4.696  11.822 -0.0293 -0.0110  0.1741
15418PP      PP25522   3.447   3.443   1.996 -0.3075  0.0933  0.0587
15419PP      PP25523  11.482  13.250  13.120  0.2333  0.0849  0.0532
15420PP      PP25524   0.961   2.161   9.469  0.1459  0.0754  0.2199
15421PP      PP25525   7.404   4.734   2.310  0.1720 -0.2357  0.0223
15422PP      PP25526   2.414  12.538   0.872 -0.2314  0.0753 -0.3105
15423PP      PP25527  12.965   5.352  11.700  0.1321  0.0053  0.0471
15424PP      PP25528   0.446   2.797   3.165  0.0361 -0.2296  0.2685
15425PP      PP25529  12.451  11.532   3.410  0.1322 -0.0537  0.1640
15426PP      PP25530  12.697   5.648  13.079 -0.1535 -0.2827 -0.0985
15427PP      PP25531  12.782   6.830   9.675 -0.0985  0.2714 -0.0378
15428PP      PP25532  14.653   9.222   0.071 -0.1944 -0.1345  0.1787
15429PP      PP25533   0.682  11.626   4.846  0.2354  0.2928 -0.3447
15430PP      PP25534   5.252   0.211   0.985  0.0279 -0.0757 -0.0344
15431PP      PP25535   3.055  15.554   1.599 -0.2903 -0.3330  0.1021
15432PP      PP25536   7.660  13.704  12.258 -0.3462  0.4161  0.0074
15433PP      PP25537   3.641  13.934  10.813  0.0216 -0.1493  0.0064
15434PP      PP25538  13.324   1.902  12.800  0.3068 -0.5783 -0.0062
15435PP      PP25539  15.376  11.886   1.429  0.0159  0.0140  0.4097
15436PP      PP25540   5.495  11.937  10.712  0.0660 -0.3118  0.0181
15437PP      PP25541   3.052  11.214  10.980  0.0559 -0.1582  0.1450
15438PP      PP25542   7.064  13.229  13.297  0.0217  0.0532  0.1843
15439PP      PP25543   1.421   3.559   1.146 -0.4216  0.1606  0.3038
15440PP      PP25544   5.940   4.203  10.309  0.2521 -0.0670 -0.1845
15441PP      PP25545   0.659   8.128   3.432 -0.3893 -0.0112  0.2477
15442PP      PP25546   9.227   1.554   0.378 -0.1914  0.2398 -0.2169
15443PP      PP25547  10.759  10.656  10.732  0.1668 -0.3280 -0.1695
15444PP      PP25548   5.541   3.106  12.326  0.6235 -0.0254 -0.0342
15445PP      PP25549  12.049  11.783   2.545 -0.0048  0.1184 -0.0784
15446PP      PP25550  11.627   0.040   4.817 -0.1759  0.0392 -0.1382
15447PP      PP25551   1.466   2.199   3.650  0.0114 -0.1786 -0.1233
15448PP      PP25552   0.109  12.183  10.855  0.1463 -0.2588  0.0038
15449PP      PP25553  13.291   6.288  10.344  0.2771  0.2077 -0.0085
15450PP      PP25554  13.356  12.451   2.401 -0.0852 -0.3233  0.0106
15451PP      PP25555   6.724  14.444   3.859 -0.0147 -0.2781  0.0484
15452PP      PP25556  10.024   9.761   0.153  0.0947 -0.1962  0.0761
15453PP      PP25557  15.477  14.262  11.369 -0.0634  0.0236  0.1865
15454PP      PP25558   4.001   5.377  11.138 -0.0218 -0.0189 -0.0093
15455PP      PP25559  13.027   7.285   3.153 -0.1529  0.2719 -0.3078
15456PP      PP25560   7.365   1.656   3.812 -0.1711 -0.0539 -0.0124
15457PP      PP25561   2.416   0.203   1.904  0.3284  0.0202  0.1426
15458PP      PP25562   2.540  14.040   2.766 -0.0423  0.3617  0.1336
15459PP      PP25563  13.808   4.100   1.155  0.0170 -0.0340  0.1354
15460PP      PP25564   7.507   4.863   9.074  0.1308 -0.0202 -0.0419
15461PP      PP25565   5.003   1.189   9.371  0.3988  0.2302  0.2394
15462PP      PP25566   9.992   8.454  10.409 -0.0307  0.2281  0.1438
15463PP      PP25567   7.460   8.632   1.880  0.4213  0.2599 -0.0238
15464PP      PP25568   6.656   4.131  10.120 -0.0211  0.0616  0.3424
15465PP      PP25569   6.525   6.460   1.441  0.2646 -0.2473  0.0738
15466PP      PP25570   3.680  12.535   1.279  0.2394  0.0891  0.0087
15467PP      PP25571   0.284   9.490   3.346 -0.1202  0.0514  0.3023
15468PP      PP25572   7.992  11.545  10.260 -0.0429  0.2876 -0.2228
15469PP      PP25573   8.907   5.768   3.881  0.0527  0.0397 -0.2141
15470PP      PP25574  13.590   2.805  13.521  0.2192 -0.3472 -0.0414
15471PP      PP25575   5.613   2.981  13.165 -0.1525 -0.0751 -0.0462
15472PP      PP25576  10.250   6.268   0.412 -0.4528  0.1379  0.0363
15473PP      PP25577  13.779  11.144   3.002  0.1409 -0.1327  0.0054
15474PP      PP25578  15.684   6.217   4.061 -0.2358 -0.0487  0.0163
15475PP      PP25579   1.121   8.874   0.365 -0.3491  0.3125 -0.1329
15476PP      PP25580   7.387   6.973   4.260  0.2256 -0.2768 -0.0716
15477PP      PP25581   1.018   3.183  12.078 -0.0882  0.0325  0.0549
15478PP      PP25582  15.170   0.603   1.657 -0.0744 -0.1528 -0.0185
15479PP      PP25583   0.709   8.460   4.926  0.0039  0.1354 -0.1764
15480PP      PP25584  10.483   5.452   9.547 -0.1520 -0.0907  0.0811
15481PP      PP25585   2.500  13.814   0.714  0.0702  0.3372  0.0894
15482PP      PP25586   5.672   2.192   9.885 -0.3231  0.1574  0.3207
15483PP      PP25587   6.486   9.406  13.484 -0.2526 -0.0858 -0.0665
15484PP      PP25588  12.285   0.383  12.803 -0.3022 -0.0953 -0.1256
15485PP      PP25589   6.929  10.316   9.868 -0.0869 -0.2817 -0.1170
15486PP      PP25590   2.359   6.276  12.863 -0.0246 -0.1699  0.3077
15487PP      PP25591   4.443   7.618   0.313 -0.2573  0.1428 -0.1073
15488PP      PP25592   1.431   1.169  11.694  0.1200  0.0491 -0.3345
15489PP      PP25593   4.450   3.583   1.816  0.1630 -0.2588  0.0198
15490PP      PP25594   5.989   3.209   0.002 -0.0763  0.1697 -0.3449
15491PP      PP25595   6.451   7.859   3.613  0.1391 -0.1428  0.0567
15492PP      PP25596  12.777  10.901   2.148  0.1600  0.2916 -0.0426
15493PP      PP25597  11.479   4.362   9.849  0.0805  0.1537  0.0316
15494PP      PP25598  14.456   9.905   3.061  0.0585  0.2285 -0.0065
15495PP      PP25599  11.887   8.493  11.347  0.1824  0.4379  0.0195
15496PP      PP25600   2.718   3.450   3.700  0.0252 -0.1102 -0.1633
15497PP      PP25601   1.113  13.956   0.527 -0.0038  0.1810 -0.0213
15498PP      PP25602  10.270   1.097  10.656  0.0348 -0.1804  0.0904
15499PP      PP25603   1.777  11.327   0.744 -0.0365  0.2057 -0.1706
15500PP      PP25604   6.014   4.118   2.161 -0.0846  0.2897  0.2372
15501PP      PP25605   2.132   8.813   0.495  0.0831 -0.0146 -0.1542
15502PP      PP25606  12.093  13.031   0.561 -0.3445  0.2564  0.1544
15503PP      PP25607  10.995   7.390  11.632  0.0451  0.2965  0.0386
15504PP      PP25608   6.294   6.149   1.745 -0.0266 -0.1329  0.3870
15505PP      PP25609   7.374  11.454   9.399 -0.1960  0.0359 -0.1181
15506PP      PP25610   0.133   6.970   0.566 -0.0999 -0.1601 -0.0672
15507PP      PP25611  13.627   5.588   0.657  0.4642  0.1071  0.3173
15508PP      PP25612   9.242  10.042  12.663 -0.4751  0.0156  0.0102
15509PP      PP25613   2.306   2.737  12.152  0.0884 -0.1722 -0.1294
15510PP      PP25614   9.778   0.065  13.073  0.0331  0.1267 -0.3083
15511PP      PP25615   1.169   3.707   3.538  0.0288  0.1662 -0.0910
15512PP      PP25616  14.390  13.514   4.324 -0.1250 -0.0016  0.1446
15513PP      PP25617   7.060   5.139  11.064 -0.0509  0.0493 -0.2436
15514PP      PP25618   4.703  12.707   4.179 -0.0299 -0.1679 -0.0575
15515PP      PP25619   4.169   0.475   2.590 -0.1572  0.1285 -0.0586
15516PP      PP25620   6.157   4.957  10.058 -0.0626 -0.0850 -0.1126
15517PP      PP25621  15.475   9.382   2.229  0.1255  0.1686 -0.0332
15518PP      PP25622  10.620   9.105  11.733  0.3918  0.4415 -0.1110
15519PP      PP25623   9.856   5.960   9.931  0.0203  0.0787  0.0967
15520PP      PP25624   4.885   3.882   4.112 -0.2469  0.2264 -0.1713
15521PP      PP25625   6.541   1.478   9.076 -0.1469 -0.0262 -0.2922
15522PP      PP25626   9.499  13.054  11.312 -0.4103  0.0643  0.1308
15523PP      PP25627  13.877   7.165  11.440  0.2026 -0.0691  0.1655
15524PP      PP25628  15.504   6.520  11.257 -0.2105 -0.0959  0.0650
15525PP      PP25629   7.837  10.299  13.153 -0.0779  0.3711 -0.0443
15526PP      PP25630  12.940   4.677   4.102  0.1778 -0.0950 -0.1818
15527PP      PP25631   6.202   9.081   3.736 -0.0396 -0.0360  0.2495
15528PP      PP25632   1.080  13.946   1.606 -0.0175  0.0250 -0.0750
15529PP      PP25633   8.294   7.644   9.236  0.2844 -0.0413 -0.0050
15530PP      PP25634  15.633  13.870  12.274  0.2410  0.0017 -0.2444
15531PP      PP25635   4.256   2.325   2.140 -0.1068 -0.0736 -0.2162
15532PP      PP25636   7.491  10.051   0.040 -0.2281 -0.4641 -0.4336
15533PP      PP25637  14.121  13.963   2.507  0.2728 -0.2070  0.0269
15534PP      PP25638  11.921  13.537   9.216  0.0882 -0.0004 -0.0217
15535PP      PP25639   6.084   5.020   1.485 -0.0607  0.1465  0.0312
15536PP      PP25640   2.020   5.596   2.923 -0.0213 -0.2574  0.1722
15537PP      PP25641   0.301  10.523   2.625 -0.0257 -0.0740 -0.1553
15538PP      PP25642   7.094   1.835   0.989  0.0626  0.0793 -0.1227
15539PP      PP25643   8.657   2.917  12.832 -0.0550 -0.2187  0.0743
15540PP      PP25644   2.789   4.470   1.717 -0.3920 -0.0698 -0.1185
15541PP      PP25645  11.108   4.263   1.815 -0.0410  0.0638 -0.1392
15542PP      PP25646   1.354   4.344   2.827 -0.1342  0.4904  0.2980
15543PP      PP25647   7.654   1.926   9.030  0.1009  0.2142  0.2665
15544PP      PP25648   8.908   3.110   2.351 -0.1548 -0.0526 -0.2149
15545PP      PP25649   0.642  13.416   3.734 -0.1965  0.1306 -0.0666
15546PP      PP25650   6.487  14.592   0.272 -0.1081  0.0582 -0.1681
15547PP      PP25651  14.957  13.725   1.299  0.1779 -0.1447 -0.0987
15548PP      PP25652  10.006   2.361  10.227  0.1562 -0.0283  0.0525
15549PP      PP25653  11.013  10.811   9.253  0.2365  0.0469 -0.1537
15550PP      PP25654   7.380  13.701   9.362  0.0946 -0.1551 -0.2317
15551PP      PP25655  14.012   0.757   1.523  0.1958 -0.0378  0.0791
15552PP      PP25656   2.966   1.819   9.659  0.0125 -0.2102  0.3130
15553PP      PP25657   3.733   7.802  11.846 -0.3534 -0.1524 -0.0364
15554PP      PP25658  11.437   7.079  11.677  0.0733  0.1167 -0.0206
15555PP      PP25659  11.798  14.208  12.713 -0.2896 -0.0656 -0.0989
15556PP      PP25660  13.387   1.695   2.367  0.1261 -0.1649  0.3497
15557PP      PP25661   3.227   6.465   3.899 -0.0277 -0.3638 -0.0807
15558PP      PP25662  13.862   9.884  11.066  0.1910 -0.0803 -0.1080
15559PP      PP25663   6.673  13.279   3.805  0.2033  0.0515  0.0507
15560PP      PP25664   3.188   5.057  10.107 -0.1051 -0.1601  0.1476
15561PP      PP25665   7.473  14.353  12.899 -0.1374 -0.0244 -0.0273
15562PP      PP25666   7.136  14.424   0.957 -0.2047 -0.0107  0.0817
15563PP      PP25667  11.771  14.884  12.368  0.4282 -0.0831 -0.1111
15564PP      PP25668  13.384   7.186  13.357 -0.0644  0.2070  0.0249
15565PP      PP25669   8.791   7.306  10.507  0.0972  0.5330  0.1115
15566PP      PP25670   8.599  10.490   1.669  0.1655 -0.0407  0.3598
15567PP      PP25671   2.373   7.389   2.091 -0.0443 -0.1023 -0.3106
15568PP      PP25672   0.467   3.557   3.829  0.0525 -0.0440 -0.0577
15569PP      PP25673  12.730  10.761   3.074  0.0367 -0.2339 -0.2698
15570PP      PP25674  13.767   4.532   3.614  0.2001 -0.0988 -0.0291
15571PP      PP25675   8.549   5.611  13.475  0.1552 -0.0078  0.1270
15572PP      PP25676   2.678   0.623   2.021 -0.1126 -0.0750  0.1226
15573PP      PP25677  14.261   7.799  12.326  0.5411 -0.0779  0.2095
15574PP      PP25678  12.461  10.436  12.722 -0.1480  0.1029 -0.1450
15575PP      PP25679   2.924   2.176   1.883  0.0231 -0.0608 -0.0637
15576PP      PP25680  12.589  10.848  11.090 -0.0836  0.0383  0.0761
15577PP      PP25681   8.183   9.507  11.308  0.0860  0.2388  0.2666
15578PP      PP25682   2.481  12.057   3.860 -0.0588  0.2028  0.3290
15579PP      PP25683   5.845  10.459   4.285 -0.0625  0.3896 -0.2572
15580PP      PP25684  11.550   3.634   9.952  0.0664 -0.0926 -0.5066
15581PP      PP25685   7.340   3.607  13.104  0.2567 -0.3893 -0.0298
15582PP      PP25686  10.682   1.722  10.196  0.0082  0.0177  0.1539
15583PP      PP25687   1.980  15.356  12.827 -0.2677  0.0415  0.0906
15584PP      PP25688   6.124   4.299  12.792 -0.2265 -0.0117 -0.2158
15585PP      PP25689  14.073   6.603  13.065  0.1273  0.1249  0.0343
15586PP      PP25690  11.328   8.637   9.097  0.0028  0.0540 -0.0900
15587PP      PP25691   0.598   8.693   3.701  0.2939  0.0557 -0.1278
15588PP      PP25692   4.600   6.784   1.028 -0.3226 -0.3451  0.0426
15589PP      PP25693  11.359   8.770   4.057 -0.1368  0.1822  0.0454
15590PP      PP25694   2.509   5.371   2.657  0.1541  0.2601 -0.1004
15591PP      PP25695  10.150   4.518  11.245 -0.0517 -0.0859  0.0516
15592PP      PP25696  12.654   6.252   2.322  0.0052 -0.2772  0.1012
15593PP      PP25697   8.418   6.146  13.397  0.2412  0.0324 -0.0440
15594PP      PP25698   5.362   2.933   2.826 -0.0487  0.4762  0.0060
15595PP      PP25699   5.467  10.610   9.889 -0.2181  0.0492  0.4673
15596PP      PP25700   0.296   2.104   3.189 -0.2183  0.0069  0.0181
15597PP      PP25701   9.096   5.946   8.231 -0.0365  0.2835  0.2689
15598PP      PP25702   7.845   5.127   3.645 -0.1049 -0.0190  0.1208
15599PP      PP25703   7.665   0.454   8.967 -0.3771 -0.1722  0.2110
15600PP      PP25704   6.189  11.011   9.380  0.0512  0.1949  0.2325
15601PP      PP25705   7.762   8.586   3.019 -0.1632  0.0775 -0.2868
15602PP      PP25706   3.926  12.884   3.031 -0.0111 -0.1522 -0.0435
15603PP      PP25707  15.443   2.829  11.558 -0.1134  0.0745 -0.2585
15604PP      PP25708   6.940   4.100  10.742  0.0459 -0.0029  0.0616
15605PP      PP25709  10.501   9.414   3.253 -0.1033  0.0011  0.0084
15606PP      PP25710  10.180   6.006   4.402  0.0006 -0.1255  0.3334
15607PP      PP25711  12.155   6.368   1.478 -0.2712  0.0235  0.3900
15608PP      PP25712  15.027   4.430   2.817  0.2984  0.0983 -0.0211
15609PP      PP25713  15.368   8.912   2.205  0.4132  0.1133  0.0910
15610PP      PP25714   3.772  15.542   3.741  0.0955  0.2485  0.2314
15611PP      PP25715   0.871   2.765   9.278  0.0336 -0.0637 -0.1355
15612PP      PP25716  11.404  15.349  13.224 -0.1787  0.2997 -0.3011
15613PP      PP25717   5.454   3.999  10.525  0.1223 -0.0250 -0.3019
15614PP      PP25718  13.378   8.723   5.497 -0.0859 -0.0621 -0.1609
15615PP      PP25719   3.784   3.601  11.321 -0.0126 -0.1920  0.0700
15616PP      PP25720   3.690  12.693   3.454  0.2438 -0.0226 -0.1222
15617PP      PP25721   5.368  14.867  13.519  0.0555  0.2035  0.1235
15618PP      PP25722  13.995  11.490   0.505 -0.1108  0.2382  0.1829
15619PP      PP25723  10.983  14.825   3.827  0.1170 -0.0899 -0.0394
15620PP      PP25724   2.105   2.134   8.948  0.1274  0.0012 -0.0954
15621PP      PP25725   5.859  15.779   2.792  0.1737 -0.1275  0.0899
15622PP      PP25726  15.499   0.533  12.525  0.0134  0.3266 -0.0302
15623PP      PP25727  10.445   1.761   0.876 -0.0130  0.1044 -0.0445
15624PP      PP25728  11.135  14.800  12.048  0.4224  0.1753  0.2259
15625PP      PP25729   9.898   7.120   0.942 -0.0398 -0.0865 -0.0082
15626PP      PP25730  14.872  15.049   2.885  0.0606  0.2511 -0.0750
15627PP      PP25731   8.062  13.168   4.037 -0.1978 -0.0307  0.2416
15628PP      PP25732  15.668  10.487  11.831 -0.0486  0.2621 -0.3727
15629PP      PP25733   7.270  13.331  12.738 -0.2968  0.0146  0.2664
15630PP      PP25734  15.143   4.454   0.995  0.2421  0.0376 -0.4483
15631PP      PP25735   7.657   6.074   9.346  0.1410 -0.0194  0.0533
15632PP      PP25736  11.379   9.434   1.938  0.1084 -0.1713  0.0167
15633PP      PP25737   8.838   3.949  11.544 -0.0850 -0.4078  0.1319
15634PP      PP25738  15.010   6.062   4.446 -0.0680  0.3816 -0.0413
15635PP      PP25739   9.836  13.207   0.512  0.0978 -0.0278  0.3362
15636PP      PP25740   1.294  13.162   2.573  0.0220  0.0316  0.0617
15637PP      PP25741  14.500   3.279   2.568 -0.0478  0.3807 -0.1406
15638PP      PP25742   7.547   8.173   2.110 -0.2876  0.1042  0.1822
15639PP      PP25743   0.869   0.197  12.472 -0.5730 -0.0898 -0.1749
15640PP      PP25744   2.573   7.367  13.190 -0.0650 -0.0626  0.2779
15641PP      PP25745   9.547  11.882   2.734  0.0776  0.5979  0.1943
15642PP      PP25746   7.262  15.003   8.294  0.0456  0.2825 -0.1053
15643PP      PP25747   0.780  14.701   2.078  0.2505 -0.0415 -0.1647
15644PP      PP25748  13.260  11.492  11.623 -0.3487 -0.2631  0.2946
15645PP      PP25749   9.951   8.939   0.169  0.0500  0.0900 -0.0408
15646PP      PP25750   6.702  11.212   9.268 -0.0079 -0.0839 -0.0780
15647PP      PP25751  12.757  13.810   8.987  0.1755 -0.1398  0.0066
15648PP      PP25752  13.793   6.943   0.066  0.1604  0.0746  0.0255
15649PP      PP25753  10.813  11.511   4.229  0.0290  0.3066 -0.2200
15650PP      PP25754   5.571   1.100  13.076 -0.1486 -0.0083  0.0637
15651PP      PP25755  14.610   3.856  12.319  0.0674  0.0557 -0.3395
15652PP      PP25756   9.030  14.114   2.324  0.0204 -0.0143  0.0626
15653PP      PP25757  14.721   9.935   5.306  0.0989  0.0997 -0.1169
15654PP      PP25758   8.572   1.952   3.939 -0.2220 -0.1569 -0.0187
15655PP      PP25759   5.462   1.639  12.148 -0.0308 -0.3907 -0.3825
15656PP      PP25760   2.426   5.858   2.862 -0.2921  0.0694 -0.1046
15657PP      PP25761   8.050   8.350  12.873 -0.0070  0.1962  0.1691
15658PP      PP25762  12.120   6.046   9.861  0.0851  0.1214 -0.2367
15659PP      PP25763   4.047   5.364  10.515 -0.2586  0.1332 -0.0576
15660PP      PP25764   4.160  11.015  10.424 -0.0753  0.2139 -0.3044
15661PP      PP25765   8.833   4.964   2.697  0.2847 -0.2725 -0.1291
15662PP      PP25766  10.955   7.360  10.275 -0.0711  0.0082 -0.1479
15663PP      PP25767   0.516   2.990   0.049 -0.2625  0.1349  0.1466
15664PP      PP25768   7.348   6.299   3.019  0.0431 -0.4242  0.0443
15665PP      PP25769   9.582   1.730   0.031  0.2018 -0.0622  0.0843
15666PP      PP25770  12.102  10.075  10.124  0.1571 -0.0668  0.2970
15667PP      PP25771   9.052  12.185   1.724  0.0641 -0.2266 -0.1097
15668PP      PP25772   1.933   4.208  12.424  0.0037 -0.0595 -0.4090
15669PP      PP25773   8.695  12.444  11.673 -0.0962 -0.1037 -0.0967
15670PP      PP25774  13.333  10.325  12.811  0.4317 -0.1751 -0.2726
15671PP      PP25775   7.003  14.740  11.765  0.1217 -0.1636 -0.0043
15672PP      PP25776   6.236   0.120   0.707  0.0757 -0.0901 -0.0827
15673PP      PP25777   3.812   8.824   1.550 -0.0377  0.1448 -0.0771
15674PP      PP25778   5.406   3.991  11.995 -0.2585  0.2500 -0.1493
15675PP      PP25779   2.212   4.727   3.540 -0.1886  0.1465  0.2097
15676PP      PP25780  14.541  13.013   4.536 -0.0368  0.3922 -0.1403
15677PP      PP25781  14.623   4.393   4.266  0.1941 -0.0063  0.0887
15678PP      PP25782  13.764  14.263   2.202  0.0681  0.2559  0.4459
15679PP      PP25783  15.183   6.697   0.373  0.2889  0.1580 -0.2449
15680PP      PP25784   8.426   2.968  11.898  0.1719  0.1353 -0.1843
15681PP      PP25785  14.398  10.568   3.555  0.0647 -0.0523 -0.2533
15682PP      PP25786  12.764   2.539  12.102 -0.0656 -0.0050  0.0351
15683PP      PP25787   1.536   9.732   3.654  0.3047  0.0912 -0.1226
15684PP      PP25788  11.300  14.209  12.628 -0.0222  0.1563 -0.0315
15685PP      PP25789  13.125   1.492   1.928 -0.0780 -0.0045  0.0169
15686PP      PP25790   9.225   2.774  12.861  0.2002  0.2265 -0.0487
15687PP      PP25791  12.013   2.529  12.189  0.3630 -0.0991  0.1589
15688PP      PP25792   5.373   3.969   8.942 -0.0638 -0.0250  0.0403
15689PP      PP25793   6.404  13.769  11.733  0.1195  0.0384 -0.1203
15690PP      PP25794   3.398   4.148   4.086  0.0496 -0.2501  0.1535
15691PP      PP25795  14.969  14.174   1.089  0.2534  0.1663  0.3370
15692PP      PP25796   4.285  12.121   0.512 -0.1177 -0.4484  0.1901
15693PP      PP25797  14.499  11.372  10.578 -0.0439  0.0684  0.1356
15694PP      PP25798  12.644  11.328   0.123  0.0886  0.1220 -0.2882
15695PP      PP25799  14.556   8.510   1.910  0.1105 -0.0425 -0.1948
15696PP      PP25800  14.699   9.006  10.150 -0.1689  0.0597 -0.0408
15697PP      PP25801   1.750  12.815  11.079 -0.0165 -0.0468 -0.0139
15698PP      PP25802   4.676  10.425   3.811  0.0115 -0.0218  0.2985
15699PP      PP25803   0.616  13.216   9.759  0.2719  0.3615  0.1345
15700PP      PP25804   8.081   5.424   0.270  0.3741  0.1225  0.1831
15701PP      PP25805   3.686  10.430   3.814 -0.0596  0.0942  0.0756
15702PP      PP25806   7.773   1.110   3.422 -0.2325 -0.2155  0.1898
15703PP      PP25807  10.835   8.752  13.280  0.0274  0.0180  0.0892
15704PP      PP25808   7.698  14.894   8.523 -0.1273 -0.1331  0.2060
15705PP      PP25809   9.050  11.523  13.214 -0.1941  0.0913 -0.0852
15706PP      PP25810   2.432   4.236   3.974 -0.2367 -0.0954 -0.1160
15707PP      PP25811   2.373   9.330   5.209 -0.0716  0.0437  0.0055
15708PP      PP25812   8.396  10.278  10.238 -0.1206  0.1701 -0.2938
15709PP      PP25813   7.583   7.536  12.788 -0.0120 -0.2612  0.2718
15710PP      PP25814  13.264   7.915  13.459  0.2153 -0.0140  0.0347
15711PP      PP25815  15.510   8.348   3.450 -0.2111 -0.1047  0.1655
15712PP      PP25816   0.594   0.141   9.335  0.0118  0.0370 -0.3024
15713PP      PP25817   7.451  14.024   1.318 -0.0407 -0.1623  0.1065
15714PP      PP25818   7.201  15.207   8.729  0.0759  0.0263  0.0992
15715PP      PP25819  13.278   1.928   1.196  0.0742  0.1389 -0.0942
15716PP      PP25820  12.146   0.242   0.129 -0.0593  0.3964  0.1785
15717PP      PP25821  11.130   2.209   3.431 -0.0215 -0.1950  0.0480
15718PP      PP25822  14.203  12.152   3.724 -0.3658  0.0083 -0.0560
15719PP      PP25823   6.719  15.812   9.247  0.1080 -0.0481 -0.0125
15720PP      PP25824   3.393  10.697   2.738  0.0954 -0.0473 -0.1587
15721PP      PP25825  15.064   9.033   3.926  0.1514  0.1906  0.1907
15722PP      PP25826   0.687  13.525  11.207 -0.1308  0.2096  0.0403
15723PP      PP25827   9.644   1.229   0.116 -0.0134  0.1804 -0.2873
15724PP      PP25828   5.264  14.093  10.844  0.1050  0.2530  0.0469
15725PP      PP25829   0.079  14.267  13.193 -0.0279  0.2465 -0.0500
15726PP      PP25830   0.412   6.995  11.427 -0.3289  0.0102 -0.1672
15727PP      PP25831  10.331  14.663   0.777  0.0180  0.3223 -0.2823
15728PP      PP25832   9.564  12.145   9.788 -0.0460  0.2554 -0.0663
15729PP      PP25833   4.428   2.927   9.881 -0.4668 -0.1055  0.1041
15730PP      PP25834   8.413   5.691   0.562  0.1547 -0.1324  0.1110
15731PP      PP25835   3.634  14.446   1.410 -0.0180 -0.0115  0.2466
15732PP      PP25836  11.628  14.958  11.907 -0.0724  0.4431  0.1064
15733PP      PP25837   9.834   3.541   9.986 -0.1810 -0.1042  0.0503
15734PP      PP25838   3.726   1.477   2.160 -0.3893  0.2564  0.2484
15735PP      PP25839   8.676  11.045   2.504  0.0457  0.1353  0.0860
15736PP      PP25840   1.207  13.279  12.925  0.2998 -0.0585 -0.1408
15737PP      PP25841   9.657   1.474  12.418  0.1214  0.2371 -0.0009
15738PP      PP25842  10.525   1.308  13.356 -0.0334 -0.2809 -0.0168
15739PP      PP25843   4.595   3.587  10.806 -0.2129  0.0383  0.2476
15740PP      PP25844  11.882   2.677   2.414  0.0842  0.0003 -0.0194
15741PP      PP25845   6.533  12.476  12.061 -0.0427 -0.1088  0.4330
15742PP      PP25846   4.881   0.028   0.729  0.0747 -0.1162 -0.0134
15743PP      PP25847  14.115   1.529   3.636 -0.0182  0.1020  0.0926
15744PP      PP25848   1.944   7.307   1.122 -0.0208 -0.0371 -0.2974
15745PP      PP25849   1.274  12.009   0.986 -0.2074 -0.3259 -0.3360
15746PP      PP25850   4.172   9.039  13.071 -0.0488 -0.1464  0.0503
15747PP      PP25851  12.076   3.991  10.603 -0.1643  0.1182 -0.1124
15748PP      PP25852   6.062  11.144  13.422 -0.1705  0.2559 -0.0709
15749PP      PP25853  12.501  10.779   2.646 -0.0961  0.0404 -0.0268
15750PP      PP25854  11.799  10.028   3.137 -0.0525 -0.3878  0.1329
15751PP      PP25855   6.782   0.940   1.104  0.0647 -0.2157 -0.0804
15752PP      PP25856   5.963   1.683  11.924  0.1809  0.0341  0.0611
15753PP      PP25857  12.927   5.085  10.131 -0.0211 -0.0642 -0.2844
15754PP      PP25858   6.219   2.494   3.608 -0.0079 -0.1349 -0.0914
15755PP      PP25859   7.246   3.137  13.324  0.2428 -0.2014  0.2439
15756PP      PP25860   2.578   5.387   4.865  0.1331 -0.2660 -0.0712
15757PP      PP25861   1.678  12.992  12.718 -0.1002 -0.0545 -0.2211
15758PP      PP25862   9.778  14.649  10.575  0.3380 -0.2253 -0.1013
15759PP      PP25863   7.405   1.137   1.031 -0.4865 -0.2965 -0.1105
15760PP      PP25864   3.194   5.692  11.063 -0.0341  0.2694 -0.2331
15761PP      PP25865  15.192   1.143   0.028  0.0324 -0.2947  0.0370
15762PP      PP25866   0.039   3.997   0.970 -0.1497 -0.3569 -0.3463
15763PP      PP25867  12.423   4.270   9.028 -0.1470  0.0181 -0.0190
15764PP      PP25868   8.247   8.398   3.058  0.0644  0.1397 -0.0988
15765PP      PP25869   8.126   6.807  12.277  0.2300 -0.0259 -0.2999
15766PP      PP25870  13.679  15.678  12.578  0.0167  0.2516  0.2167
15767PP      PP25871  12.017   1.226   2.526  0.0540  0.1493  0.1763
15768PP      PP25872   6.959   8.753  12.564 -0.2447 -0.0567 -0.1132
15769PP      PP25873   6.837   0.766  11.949 -0.0528 -0.0368  0.2290
15770PP      PP25874   3.599  11.670  12.838 -0.1170  0.0539  0.4233
15771PP      PP25875  10.197  10.208   4.596  0.4117 -0.1396  0.0994
15772PP      PP25876   8.167  12.217  13.075 -0.2114  0.1833 -0.3743
15773PP      PP25877   3.282   3.920   2.130 -0.0486  0.0562  0.2669
15774PP      PP25878   8.882   2.671   4.039 -0.0602 -0.0967 -0.1003
15775PP      PP25879  14.739  13.598   0.850  0.0999 -0.2267 -0.0913
15776PP      PP25880   1.704   0.050   0.403 -0.0252  0.1079  0.2147
15777PP      PP25881  11.767   2.004   1.571 -0.1870  0.1431  0.1264
15778PP      PP25882   6.839   0.619   3.307 -0.0409 -0.1730  0.2903
15779PP      PP25883   9.397  14.223   1.343 -0.1679  0.2032  0.1161
15780PP      PP25884  12.819   0.256   2.550  0.1247  0.0612  0.0648
15781PP      PP25885  11.734   3.244  10.732 -0.3060 -0.2821 -0.1153
15782PP      PP25886   2.875   1.181   2.960 -0.1868  0.2403 -0.2061
15783PP      PP25887   6.170  11.385  11.793 -0.0016  0.1872 -0.3008
15784PP      PP25888   5.662   4.416  12.873 -0.2073 -0.2598 -0.1078
15785PP      PP25889   0.806   8.452   5.470 -0.0905  0.2166  0.0812
15786PP      PP25890  11.803  15.405   9.238  0.0911  0.1691 -0.2402
15787PP      PP25891  13.748   5.376  10.613 -0.1280 -0.0111 -0.1290
15788PP      PP25892  11.172  12.181  12.322  0.2578  0.2018  0.1230
15789PP      PP25893  11.510  10.651   1.331 -0.2773 -0.0392  0.2724
15790PP      PP25894  10.462   1.836   9.610 -0.0377  0.2323  0.1791
15791PP      PP25895   1.290  12.926  13.301  0.0570 -0.2724 -0.0019
15792PP      PP25896  10.825  15.597   1.927 -0.1488 -0.2380 -0.1419
15793PP      PP25897  10.793   0.673   0.164  0.3702 -0.3666  0.1706
15794PP      PP25898   5.558   9.280   2.012 -0.0135 -0.1725 -0.0012
15795PP      PP25899  14.731   2.011   1.259  0.3256  0.0003  0.0361
15796PP      PP25900   6.036  14.391   2.294  0.0449  0.1951 -0.0804
15797PP      PP25901  13.992   7.924   2.467 -0.1404  0.4056 -0.0362
15798PP      PP25902   0.469   3.729   1.696  0.4235 -0.1354 -0.2838
15799PP      PP25903   6.516   8.496   0.564 -0.1361 -0.2530  0.0371
15800PP      PP25904   8.733  14.741   9.507 -0.2318 -0.1166 -0.2713
15801PP      PP25905  10.021   8.883   3.238  0.1233  0.2296  0.0914
15802PP      PP25906   5.002   5.590  11.188 -0.0134  0.2259 -0.0171
15803PP      PP25907   0.515  10.944  11.769 -0.1352  0.0756 -0.2252
15804PP      PP25908   4.419   1.681  10.290  0.0295 -0.3139 -0.0949
15805PP      PP25909   9.272   3.818  11.162  0.2088 -0.3046 -0.0136
15806PP      PP25910   1.289  11.743   4.906 -0.2303 -0.2169  0.0954
15807PP      PP25911  13.384   7.978   4.692  0.2209  0.1735 -0.2152
15808PP      PP25912  11.734   8.493  10.007 -0.0936  0.1853  0.0277
15809PP      PP25913   0.999  15.506   2.318  0.0517  0.0486  0.0053
15810PP      PP25914   6.834  14.981   8.998 -0.1897  0.2017  0.0490
15811PP      PP25915   4.625   0.932   9.135 -0.3400 -0.0590 -0.1011
15812PP      PP25916   6.610  11.209   8.779 -0.0166 -0.2002  0.2439
15813PP      PP25917  14.372  10.061  11.078  0.1080 -0.0927 -0.0572
15814PP      PP25918   4.363  14.198  12.468  0.0393  0.0590 -0.1945
15815PP      PP25919   9.814  10.195  12.439 -0.2796 -0.0198  0.1847
15816PP      PP25920   6.689  10.393   3.857 -0.1618 -0.1073 -0.0086
15817PP      PP25921  10.558   1.839  13.456  0.5408 -0.4555  0.0329
15818PP      PP25922  11.392   8.764  10.899  0.0399 -0.5574 -0.4489
15819PP      PP25923   0.880   0.887  11.412  0.1251  0.0163  0.0314
15820PP      PP25924   6.365   0.382   8.060 -0.1183 -0.1519 -0.0694
15821PP      PP25925   1.247   7.010   5.048  0.1697 -0.2035  0.2342
15822PP      PP25926   2.235   1.046   2.117 -0.0828 -0.1098  0.2410
15823PP      PP25927   1.493  12.525   2.621  0.2563 -0.2774 -0.3004
15824PP      PP25928   2.216  13.797   8.883  0.0189 -0.1035 -0.2699
15825PP      PP25929  15.168  13.090   0.014  0.2922  0.1666  0.1984
15826PP      PP25930   0.526   9.537   9.897 -0.1861 -0.0363  0.0106
15827PP      PP25931  10.928   6.374   2.208  0.2991 -0.0006  0.0631
15828PP      PP25932   7.237  13.542   1.584  0.0821  0.1059  0.2965
15829PP      PP25933  12.435  13.761   3.722 -0.2013 -0.2067  0.0120
15830PP      PP25934   4.115  11.679  13.221 -0.0807  0.1112 -0.0839
15831PP      PP25935  13.668   7.098   3.586  0.1591 -0.3483  0.3040
15832PP      PP25936   2.337  15.181   9.792 -0.0286  0.0442  0.2365
15833PP      PP25937  13.985  14.256   0.931  0.2813  0.1821 -0.1326
15834PP      PP25938  11.012   5.994   0.536 -0.4043 -0.2737  0.0506
15835PP      PP25939  13.926  13.392   3.039  0.5034 -0.2135  0.4796
15836PP      PP25940   0.286   3.417   4.332 -0.3987  0.1260 -0.0326
15837PP      PP25941   9.637  15.459   1.159 -0.1314 -0.2413 -0.1434
15838PP      PP25942   0.737   6.602  11.611  0.4121 -0.0409  0.1880
15839PP      PP25943   1.011   0.771   1.809  0.3509  0.0094  0.2257
15840PP      PP25944   6.193   1.627   8.755 -0.0174 -0.0287 -0.2337
15841PP      PP25945  10.570   9.530  12.470  0.1029  0.2766  0.1796
15842PP      PP25946  14.571   0.783   1.363  0.0151  0.1893 -0.3728
15843PP      PP25947   2.901   8.433   1.841 -0.0761  0.1724  0.0119
15844PP      PP25948   7.236   6.301  10.588 -0.0952  0.0814 -0.0661
15845PP      PP25949   5.405   0.214   1.501 -0.2061  0.1299 -0.1734
15846PP      PP25950  12.558   7.193   0.470 -0.0857  0.2853 -0.1556
15847PP      PP25951  11.034   4.305  10.825  0.0593  0.0352 -0.1542
15848PP      PP25952   2.128   6.791   4.573  0.0139  0.0214  0.0806
15849PP      PP25953  10.466   8.737  12.962 -0.0702 -0.0995 -0.1878
15850PP      PP25954  13.824  15.214  12.847  0.3010  0.0807  0.2167
15851PP      PP25955  10.515   8.284  13.430  0.2047 -0.0380  0.0553
15852PP      PP25956  14.074   0.820   9.183 -0.2053  0.1145  0.0039
15853PP      PP25957  11.896  12.319  11.703  0.1035 -0.0795  0.2752
15854PP      PP25958   5.969   9.031  13.070 -0.1099 -0.2683 -0.1646
15855PP      PP25959   0.908   7.104  10.322  0.2482  0.0703 -0.1023
15856PP      PP25960   5.639   4.265  11.554 -0.1946  0.2352 -0.1978
15857PP      PP25961   7.503   7.419   0.470 -0.3351 -0.0963 -0.1049
15858PP      PP25962  14.277  10.678   2.013  0.0585 -0.3532 -0.1926
15859PP      PP25963   7.829   6.279  10.878 -0.0916  0.0486  0.2111
15860PP      PP25964  11.717   8.711   1.281  0.2550 -0.0055  0.1195
15861PP      PP25965   5.792   9.370   4.280 -0.1343 -0.1081 -0.3062
15862PP      PP25966  12.192  11.185   2.017  0.0411 -0.1581 -0.0067
15863PP      PP25967   1.804   5.400   3.313 -0.1645 -0.0713 -0.1695
15864PP      PP25968   7.624   8.507  10.106 -0.1019 -0.5021 -0.0339
15865PP      PP25969  10.481  11.057  11.127  0.1968  0.1528  0.2499
15866PP      PP25970   4.448   5.955   2.725 -0.2265 -0.1270  0.0155
15867PP      PP25971   9.038  11.484  11.900 -0.1715 -0.0991 -0.0616
15868PP      PP25972   8.589   7.014  10.102 -0.2213  0.0947 -0.0273
15869PP      PP25973   8.791   4.034   9.120  0.2420 -0.0011 -0.1330
15870PP      PP25974  10.717   5.322  13.318  0.3417  0.0216  0.2473
15871PP      PP25975   1.693  14.003   0.746 -0.0017 -0.1028 -0.2032
15872PP      PP25976   3.149  14.804  11.057 -0.0714 -0.1120 -0.2596
15873PP      PP25977  12.058  12.170   0.910  0.0747 -0.0544 -0.2258
15874PP      PP25978   7.015  11.773  11.744 -0.1059 -0.1506  0.3436
15875PP      PP25979   9.022   2.167   1.318  0.1660  0.3811  0.2192
15876PP      PP25980   4.754  11.258   2.794 -0.1196 -0.0376  0.0583
15877PP      PP25981   4.282   2.752  13.272  0.1505  0.1580  0.0733
15878PP      PP25982  12.961   6.323   4.056 -0.1296 -0.3348  0.1559
15879PP      PP25983  10.702   2.196   2.184 -0.0905  0.2704  0.1766
15880PP      PP25984  12.620  14.878   2.081 -0.3236  0.2123 -0.1889
15881PP      PP25985  10.299   4.193  13.182 -0.0006  0.2731 -0.1471
15882PP      PP25986   8.088   0.030  10.153 -0.1839  0.1907  0.1049
15883PP      PP25987  13.843   8.029   1.086  0.1674  0.1799  0.1746
15884PP      PP25988   7.844  13.228   8.535  0.1521 -0.2346  0.1179
15885PP      PP25989   3.176   1.827  12.477 -0.2618  0.0543  0.0777
15886PP      PP25990   1.966   4.183   0.230  0.2054 -0.2274  0.0573
15887PP      PP25991  12.824  10.544   9.805  0.1421 -0.0696 -0.1088
15888PP      PP25992  11.689   8.952  13.009 -0.0949 -0.0879  0.1079
15889PP      PP25993   1.811  13.473  11.254  0.0624  0.2517  0.0210
15890PP      PP25994   6.819   6.170  11.419  0.1166  0.1359 -0.1147
15891PP      PP25995   5.118   5.875   1.033 -0.0700 -0.0973  0.1007
15892PP      PP25996   5.800   6.928  11.026 -0.2698 -0.0223 -0.0683
15893PP      PP25997  13.970   6.969  10.511  0.2888  0.3092  0.2109
15894PP      PP25998   3.397   1.602  10.276 -0.0360 -0.0682  0.0046
15895PP      PP25999   2.583  10.094   2.201  0.1974 -0.0073 -0.1016
15896PP      PP26000   2.804   9.938  10.379 -0.0587  0.2187 -0.3134
15897PP      PP26001   7.576   3.400   1.308 -0.1978  0.1775 -0.0405
15898PP      PP26002  13.632  13.355   1.772  0.2424  0.2314 -0.0118
15899PP      PP26003   6.507   2.041   2.819 -0.1541  0.0200 -0.0002
15900PP      PP26004   9.911  11.625  10.217  0.0821 -0.0361  0.0440
15901PP      PP26005   2.843   6.753  12.120  0.0724 -0.0600  0.2601
15902PP      PP26006  13.615   6.131  12.382  0.0211  0.0044  0.1191
15903PP      PP26007   5.602   7.137  12.012  0.1573 -0.1749 -0.0387
15904PP      PP26008   1.552   6.399  11.496  0.0503  0.0822  0.1057
15905PP      PP26009  13.772  10.464  11.617 -0.2786 -0.5640  0.0866
15906PP      PP26010  15.318   8.475   5.430 -0.0767  0.0924  0.1708
15907PP      PP26011   6.629   8.323   9.435  0.1333  0.0795 -0.4145
15908PP      PP26012   2.400   4.310  12.299  0.2286  0.1185 -0.1321
15909PP      PP26013   9.877  12.838  11.472  0.0998  0.1354 -0.2382
15910PP      PP26014   0.809  12.796   2.022  0.1919  0.0804 -0.1596
15911PP      PP26015   3.696   7.093   4.447 -0.0412 -0.2433  0.0874
15912PP      PP26016   3.405  11.303   0.810 -0.0695 -0.2766  0.0030
15913PP      PP26017  10.712  11.597  10.423 -0.1602  0.1848  0.4694
15914PP      PP26018   7.472   8.394  11.250  0.0494  0.0470  0.0455
15915PP      PP26019   9.564   9.304   4.011 -0.0128  0.0094  0.3300
15916PP      PP26020  11.982   7.105   3.598  0.0579  0.1798  0.0332
15917PP      PP26021  11.130   6.901  11.411  0.1274 -0.0385 -0.2343
15918PP      PP26022   3.141   2.977   2.230  0.1867 -0.0705 -0.1270
15919PP      PP26023  10.833   1.067  12.925 -0.0236 -0.2046 -0.0818
15920PP      PP26024  14.393   0.381  11.452  0.0229  0.0951  0.1863
15921PP      PP26025   7.049  13.242   3.117  0.2287  0.0002  0.2171
15922PP      PP26026   9.789   6.116   3.440  0.0386 -0.1872  0.2245
15923PP      PP26027   6.173   4.667  10.454  0.0443  0.0641  0.0886
15924PP      PP26028   2.232  15.285  11.469 -0.0865 -0.2306 -0.1563
15925PP      PP26029   7.574   0.953  11.070  0.2616 -0.0266 -0.1687
15926PP      PP26030  13.573   8.162   5.169 -0.3887  0.4268  0.3028
15927PP      PP26031   2.591  14.904  11.242  0.2531 -0.1522  0.0187
15928PP      PP26032  12.229   8.288   9.800 -0.1701 -0.0961 -0.1601
15929PP      PP26033  13.822  11.956   0.831 -0.3263 -0.3095 -0.3272
15930PP      PP26034  11.476   4.252  11.115  0.1423 -0.1529  0.1400
15931PP      PP26035   8.203   4.148   0.531 -0.0031  0.0622 -0.0857
15932PP      PP26036   9.587  14.515   0.988  0.2158  0.0900  0.2374
15933PP      PP26037  10.807   9.169   9.626  0.0145 -0.1702  0.3203
15934PP      PP26038   3.435   9.407   3.371 -0.0214  0.0818  0.2093
15935PP      PP26039   7.846  15.046   7.905  0.2621 -0.3240 -0.5225
15936PP      PP26040  10.190   6.337  11.129  0.1553  0.1265  0.1992
15937PP      PP26041   4.188   1.015  12.181 -0.1691 -0.3048  0.0899
15938PP      PP26042   1.839  11.785  12.057  0.0509 -0.0713  0.0085
15939PP      PP26043   0.802   9.659   5.744  0.0509  0.2292 -0.0821
15940PP      PP26044   0.008  12.902   4.185 -0.1430 -0.2393  0.2968
15941PP      PP26045   8.050  14.251   8.936  0.3303 -0.0005  0.3565
15942PP      PP26046   7.311   2.640   1.193  0.0812 -0.1329 -0.2694
15943PP      PP26047  15.474   9.840   2.489 -0.1752  0.0589  0.1146
15944PP      PP26048  15.309   3.642   9.154 -0.0922 -0.0847  0.0796
15945PP      PP26049  11.116  10.120  10.608  0.0489 -0.4998 -0.4673
15946PP      PP26050   8.617   3.392  12.252 -0.3716 -0.0505 -0.0294
15947PP      PP26051   7.517  11.423   3.408 -0.2320  0.2534 -0.1545
15948PP      PP26052   3.561   8.064   3.499  0.0552 -0.0578 -0.2402
15949PP      PP26053   1.011  12.695   9.970  0.1769 -0.0332  0.2430
15950PP      PP26054  12.694   8.035   5.061 -0.0718  0.3333  0.1902
15951PP      PP26055  12.017   3.962  12.619 -0.1958  0.1101 -0.1731
15952PP      PP26056  15.194   7.249   0.435  0.0312 -0.1122  0.1131
15953PP      PP26057  15.805  12.054   3.690 -0.1452  0.0115 -0.0648
15954PP      PP26058  10.628  12.221  10.395  0.2111  0.1976  0.1761
15955PP      PP26059   9.707   6.076   2.931 -0.0610  0.0283 -0.0367
15956PP      PP26060  14.429   6.361  13.292 -0.1222 -0.0921  0.3192
15957PP      PP26061   2.069  14.341  11.910 -0.0511 -0.2064 -0.0272
15958PP      PP26062   2.304  13.570   0.079  0.0629 -0.0116 -0.0044
15959PP      PP26063   4.671  12.270   4.513 -0.0040 -0.0760 -0.0025
15960PP      PP26064   4.578   1.708   8.036 -0.0233  0.1616  0.0318
15961PP      PP26065   9.334   5.506  13.418  0.1571 -0.0756 -0.1344
15962PP      PP26066   1.320   2.467   8.179 -0.2006  0.3646 -0.0323
15963PP      PP26067   1.981   3.192  13.035 -0.2496  0.0234  0.3403
15964PP      PP26068   0.362  11.600  11.638 -0.3455  0.1002 -0.1129
15965PP      PP26069   5.476   9.486   0.667  0.1942  0.0497 -0.0395
15966PP      PP26070   8.387  15.020   0.457 -0.1838  0.0987 -0.0284
15967PP      PP26071   3.009   0.040  11.881 -0.0414  0.0169 -0.0692
15968PP      PP26072   9.275   0.765   9.938 -0.0862  0.1688  0.0430
15969PP      PP26073   4.193  12.547   3.439 -0.2284 -0.0099  0.4071
15970PP      PP26074  13.059   4.454   9.117 -0.0418  0.1621 -0.3725
15971PP      PP26075   7.891   4.412  12.230 -0.0797  0.1038  0.1915
15972PP      PP26076  14.930   0.843   8.736  0.0220  0.2676  0.0904
15973PP      PP26077   2.575  12.865   0.442 -0.2054  0.0632 -0.0709
15974PP      PP26078  13.942   2.502   2.204  0.0131  0.1181  0.0280
15975PP      PP26079  12.631   4.729   9.197  0.0767 -0.3526  0.1480
15976PP      PP26080   3.659   4.482   3.886  0.2972  0.2066 -0.0645
15977PP      PP26081  13.058   9.947   3.027 -0.0733  0.0728 -0.0554
15978PP      PP26082   7.399  13.121   9.301  0.0163  0.1428 -0.0489
15979PP      PP26083   8.087  14.944  12.761  0.0023 -0.0134 -0.1100
15980PP      PP26084   7.673   9.321  11.110 -0.2328  0.0387 -0.1602
15981PP      PP26085   3.973   1.739  13.229 -0.0912  0.0706  0.2290
15982PP      PP26086   0.015  10.824   5.197 -0.1024 -0.0468 -0.0288
15983PP      PP26087  10.446  13.242  11.766 -0.3579  0.2043 -0.0518
15984PP      PP26088   1.703   1.765  10.826 -0.0461  0.0803  0.1875
15985PP      PP26089   8.422   0.448  11.470 -0.1829  0.0466 -0.2581
15986PP      PP26090  14.964  10.179   0.300  0.0138  0.2695  0.1234
15987PP      PP26091  11.301   9.364   8.870  0.1871 -0.1328 -0.3612
15988PP      PP26092   1.704  10.250  11.176 -0.1713  0.1765 -0.0042
15989PP      PP26093  12.368   1.059   0.411  0.2299  0.0288  0.0856
15990PP      PP26094  15.426   2.224   2.431 -0.3306 -0.2863  0.0620
15991PP      PP26095   2.685   6.612  10.313 -0.1471  0.3093 -0.2700
15992PP      PP26096   5.349   1.388   2.230  0.0674 -0.2110 -0.0246
15993PP      PP26097   3.408  10.306   0.795  0.2795 -0.0799 -0.1461
15994PP      PP26098  11.905   7.960  11.006 -0.0547 -0.3561 -0.1333
15995PP      PP26099   1.937  15.477   0.411 -0.0021  0.1207 -0.0361
15996PP      PP26100   3.688  11.859  11.902 -0.1511 -0.0015 -0.0890
15997PP      PP26101   6.262  10.163  11.708  0.2533 -0.1602  0.1656
15998PP      PP26102   9.989   5.724  10.401 -0.0363 -0.2474 -0.2640
15999PP      PP26103   3.243  11.200  10.119 -0.0714 -0.0725  0.1725
16000PP      PP26104   9.317  10.479   0.863  0.0772 -0.1193 -0.2830
16001PP      PP26105   0.804  11.924   9.511  0.0546 -0.2638  0.3652
16002PP      PP26106   1.399   1.645  12.138  0.3680 -0.1431 -0.1695
16003PP      PP26107   2.408   4.793  10.541  0.0342 -0.2347 -0.2436
16004PP      PP26108   1.811  12.282  11.288 -0.1053  0.1528 -0.0018
16005PP      PP26109   3.561   5.313   3.505 -0.1030  0.0072  0.0143
16006PP      PP26110  15.558   1.170  10.305 -0.1930  0.0404  0.1967
16007PP      PP26111   7.312   0.691  12.010  0.0894 -0.0138 -0.1511
16008PP      PP26112   4.468   0.812  12.940  0.2567  0.2849  0.0252
16009PP      PP26113   4.861   0.843  12.383 -0.0135  0.1147 -0.0234
16010PP      PP26114   9.682   2.818   9.264  0.4607 -0.0706 -0.2619
16011PP      PP26115  15.769   6.840  10.517  0.0519 -0.1215  0.3944
16012PP      PP26116   9.122   0.045   1.830 -0.2358 -0.2711 -0.0295
16013PP      PP26117   9.940  11.158   3.043  0.1678  0.1097  0.0029
16014PP      PP26118  10.269   2.851   9.040 -0.1893 -0.0688 -0.0495
16015PP      PP26119  15.420   7.159  11.889  0.0760 -0.0505 -0.1548
16016PP      PP26120   7.980   4.620   8.614 -0.0545  0.2147 -0.0723
16017PP      PP26121   9.989   9.466   2.210 -0.0569 -0.0164  0.1392
16018PP      PP26122   1.641  14.634  13.105  0.1556 -0.0388 -0.5252
16019PP      PP26123   0.526   3.385   9.747 -0.0026 -0.4115  0.0291
16020PP      PP26124  13.769   3.936   4.323  0.0163 -0.2290  0.0687
16021PP      PP26125   7.881   6.734  10.624  0.0477 -0.0820 -0.0207
16022PP      PP26126  12.536  10.306   1.151 -0.0238 -0.0224  0.0041
16023PP      PP26127  11.258   8.630   3.163 -0.0134  0.1041  0.0670
16024PP      PP26128   5.114  12.402   0.073  0.0456  0.0780 -0.3291
16025PP      PP26129   6.798   7.086   4.285 -0.1257  0.2290 -0.0048
16026PP      PP26130  13.247   1.891  11.264 -0.0088  0.2029 -0.0637
16027PP      PP26131   1.013   0.966   0.900 -0.0571  0.0864  0.1889
16028PP      PP26132   1.586   7.654  10.782  0.0664 -0.1035 -0.1145
16029PP      PP26133  10.097   1.842  10.143  0.0224  0.0933 -0.0405
16030PP      PP26134   0.660  14.264   2.379 -0.1347  0.0821  0.0693
16031PP      PP26135   3.332   8.643   2.799 -0.1656  0.2655 -0.0161
16032PP      PP26136   8.297  12.685   9.325  0.0709 -0.1199  0.1239
16033PP      PP26137   0.837   9.819   4.167  0.1570  0.1090  0.1027
16034PP      PP26138   4.130   3.280   3.549  0.1158 -0.0609  0.1090
16035PP      PP26139  13.114   5.404  12.925 -0.0216  0.3802  0.1255
16036PP      PP26140   0.646  10.555  13.402 -0.0524  0.1072 -0.1644
16037PP      PP26141   6.215   0.324   1.136 -0.1598  0.1419  0.0273
16038PP      PP26142  10.016   0.933   1.110  0.1066 -0.3813  0.1040
16039PP      PP26143  14.109   5.197   0.629  0.1579  0.0785 -0.1208
16040PP      PP26144   8.404   0.667   9.980 -0.0285 -0.2788  0.0059
16041PP      PP26145   3.459  10.743   1.684  0.1008  0.0498 -0.2864
16042PP      PP26146   0.393  13.253   3.228  0.3294 -0.2041 -0.0468
16043PP      PP26147   5.755   7.565  12.207 -0.1767 -0.0706  0.0860
16044PP      PP26148   9.212   0.643  10.451 -0.1660  0.0824 -0.0504
16045PP      PP26149   7.073   4.710   1.947 -0.0749 -0.1736  0.4994
16046PP      PP26150  15.196   9.315   0.109  0.0455 -0.4140  0.1543
16047PP      PP26151   9.024   3.479   3.443 -0.0283 -0.0491  0.1089
16048PP      PP26152   4.765   0.547  13.456 -0.1823 -0.2013 -0.0488
16049PP      PP26153   6.068   0.233   1.882  0.3154  0.2453  0.0373
16050PP      PP26154   4.456   5.271   4.383  0.0253  0.0341 -0.0731
16051PP      PP26155   5.073   6.955   4.401 -0.1633 -0.3618 -0.0240
16052PP      PP26156   4.058  13.172   3.474  0.1156  0.1776 -0.0132
16053PP      PP26157  10.919   5.530   0.199  0.0903 -0.0177  0.0463
16054PP      PP26158   1.758  11.985   4.821 -0.0148 -0.2575 -0.0694
16055PP      PP26159   3.174  11.579   0.074 -0.0704  0.3124 -0.0826
16056PP      PP26160   9.918   5.114   0.370  0.3223  0.1655 -0.0177
16057PP      PP26161   2.039   1.069   2.569 -0.0887  0.1222  0.0542
16058PP      PP26162   6.397   7.861   1.822  0.1641  0.0120 -0.1247
16059PP      PP26163  11.177  15.302   9.742 -0.2510 -0.1809 -0.3304
16060PP      PP26164   5.849  11.071  12.051 -0.3627  0.4039 -0.2047
16061PP      PP26165   3.518   4.569   3.145  0.0237 -0.1763 -0.2034
16062PP      PP26166   3.110   9.736   0.276 -0.1157 -0.3037  0.1041
16063PP      PP26167   3.277   6.126   1.259 -0.2475 -0.0160 -0.0888
16064PP      PP26168   3.053  14.178   1.848  0.1935  0.0771  0.2782
16065PP      PP26169   3.579  15.401   7.906  0.0883 -0.1606  0.0121
16066PP      PP26170   4.864   7.647   0.531  0.0811 -0.2462  0.1285
16067PP      PP26171   8.288   8.829   1.757 -0.2431 -0.3022 -0.1567
16068PP      PP26172   5.768  12.999   9.049  0.1052 -0.0110 -0.0452
16069PP      PP26173   0.496   3.978  11.331  0.1968  0.2544 -0.0810
16070PP      PP26174   7.059   7.128  10.082 -0.1204  0.3472  0.2152
16071PP      PP26175  13.296   6.792   3.376  0.5429 -0.0818  0.0423
16072PP      PP26176   7.774   3.130   3.449 -0.0792 -0.0051 -0.2585
16073PP      PP26177  14.453   8.785  13.442  0.1518 -0.0153  0.3982
16074PP      PP26178   2.713  13.571  12.698  0.0827  0.0785  0.1724
16075PP      PP26179  12.951   8.847   1.924 -0.0034  0.0544 -0.2313
16076PP      PP26180  11.855   3.997   4.304 -0.0107  0.0574  0.4026
16077PP      PP26181   0.977  11.894  10.411 -0.1608  0.1214 -0.0444
16078PP      PP26182   7.503   4.011  13.408  0.0276  0.0933  0.1461
16079PP      PP26183   0.384   3.674   0.720  0.0538  0.2033  0.2531
16080PP      PP26184   3.084  13.987   3.069  0.2236  0.2491  0.2579
16081PP      PP26185  12.878  11.943   1.036  0.0894  0.1184 -0.1026
16082PP      PP26186  12.834   2.817   2.151  0.1055  0.2946  0.0631
16083PP      PP26187   8.863  10.268   0.399  0.0587 -0.3417 -0.0760
16084PP      PP26188  12.676   3.314   2.270 -0.2957  0.2813  0.0842
16085PP      PP26189  13.649  14.979  11.483  0.4277  0.1153  0.0025
16086PP      PP26190  10.324   4.763   3.053 -0.1648 -0.0764  0.4144
16087PP      PP26191  14.854  11.128  13.367 -0.0073  0.0731 -0.0898
16088PP      PP26192  15.169   5.202   3.271 -0.1142  0.0505 -0.1477
16089PP      PP26193   6.109  13.567   2.426 -0.1313  0.0046  0.2496
16090PP      PP26194   4.088  13.195   9.231 -0.0286  0.0592 -0.1256
16091PP      PP26195   9.817   2.429   3.118  0.1206  0.0996  0.2362
16092PP      PP26196   1.310  14.297   9.101 -0.1077 -0.1630  0.1201
16093PP      PP26197   4.781  12.783   9.200  0.2152  0.2249 -0.0324
16094PP      PP26198   4.055  14.374  10.452 -0.0104 -0.0252 -0.4182
16095PP      PP26199   5.693   2.577  10.933  0.1290  0.0986  0.0509
16096PP      PP26200   8.306  15.399   2.505  0.0607 -0.1767  0.1207
16097PP      PP26201  12.077   5.423   2.088 -0.2075  0.3471 -0.1451
16098PP      PP26202   3.873   4.234   2.337  0.1055 -0.0193  0.0675
16099PP      PP26203   6.481   4.375   2.884 -0.0836 -0.0384  0.2056
16100PP      PP26204   8.094   9.981   3.247 -0.2777 -0.0421 -0.2558
16101PP      PP26205   9.247   8.773  12.268  0.0352  0.0046  0.1927
16102PP      PP26206   5.814  13.221  10.166  0.2356 -0.1186 -0.1386
16103PP      PP26207   4.345   6.941  12.718  0.2079 -0.1662 -0.1136
16104PP      PP26208   8.659   6.890  10.776  0.1239 -0.4221 -0.1701
16105PP      PP26209   3.340  12.233  11.897 -0.0793  0.0457 -0.2229
16106PP      PP26210   9.932   1.366   3.207  0.1200  0.1300 -0.0535
16107PP      PP26211   7.099  14.998   1.165 -0.0787  0.2549  0.1042
16108PP      PP26212  15.113   9.222   5.086  0.2021 -0.0376  0.1286
16109PP      PP26213   3.325   7.967  11.413  0.0184 -0.0732 -0.2676
16110PP      PP26214  10.314  13.629   1.383  0.1406 -0.1254 -0.0104
16111PP      PP26215   5.676   3.394   2.714 -0.1529  0.0667 -0.0214
16112PP      PP26216   0.082   7.319   2.510  0.0320  0.1551  0.1169
16113PP      PP26217   3.922  10.859   2.571 -0.1622 -0.0518 -0.1281
16114PP      PP26218   1.744   8.615   4.339 -0.1763  0.0316 -0.0869
16115PP      PP26219  10.180   6.974  12.209  0.0240 -0.1500  0.0496
16116PP      PP26220   4.500   6.946  13.520 -0.0708  0.0693  0.1771
16117PP      PP26221   8.026   0.724   2.539  0.0177 -0.0503 -0.2327
16118PP      PP26222   9.312   5.549  11.655  0.2009 -0.1370  0.4041
16119PP      PP26223   4.070  10.928   1.131 -0.0857  0.0423 -0.0436
16120PP      PP26224   6.074   6.233   2.234  0.3425 -0.0831  0.0658
16121PP      PP26225  14.652   3.357  11.704 -0.0726  0.0585  0.2584
16122PP      PP26226   7.662  10.594  13.520  0.1078 -0.1597  0.0008
16123PP      PP26227   1.234  15.098  12.061  0.0319  0.1732  0.0850
16124PP      PP26228   0.708   7.231   5.112  0.0239  0.0383 -0.0376
16125PP      PP26229  14.915   3.205   4.216 -0.1176 -0.0136 -0.3611
16126PP      PP26230   5.209   1.451  13.317  0.1745 -0.4059 -0.0707
16127PP      PP26231   8.584   8.471   1.876 -0.2749 -0.0570  0.1592
16128PP      PP26232   8.760   4.762   2.204 -0.1714 -0.1478  0.0549
16129PP      PP26233  10.365  11.433  10.823 -0.1831 -0.0265  0.2956
16130PP      PP26234   9.665  15.305   0.483  0.1135 -0.0332 -0.1246
16131PP      PP26235   1.708   9.766   2.639 -0.3335  0.0662 -0.0012
16132PP      PP26236   9.998  13.997  11.227 -0.0706  0.0664  0.0976
16133PP      PP26237  10.397   9.222   1.808 -0.0516 -0.0449 -0.2056
16134PP      PP26238   3.064   5.382   3.874 -0.1342  0.3462  0.0563
16135PP      PP26239  13.243   6.972   2.052  0.0653  0.0193 -0.0234
16136PP      PP26240   9.088   3.325  12.088 -0.1958  0.0480 -0.0599
16137PP      PP26241   2.043   0.687   1.224 -0.1416 -0.0427 -0.3420
16138PP      PP26242   6.485  11.278  10.859 -0.0805 -0.1576 -0.0069
16139PP      PP26243   3.918   7.939  11.327  0.1100 -0.7433 -0.0526
16140PP      PP26244   3.611   3.857  12.253  0.2228 -0.1836  0.3871
16141PP      PP26245  15.001   3.805   0.946  0.2108  0.1048  0.1882
16142PP      PP26246   2.430   4.352   9.173 -0.1360  0.1961 -0.1760
16143PP      PP26247   6.203   7.709   3.122 -0.0993  0.1254 -0.1618
16144PP      PP26248  12.963   3.860   4.577  0.1862  0.3549 -0.2964
16145PP      PP26249   7.189   1.514   8.117  0.0850 -0.0247  0.3099
16146PP      PP26250   0.570   7.667   4.858 -0.1431 -0.1596  0.0552
16147PP      PP26251  12.110   8.333   4.289  0.1018  0.1744 -0.0315
16148PP      PP26252   6.839   2.398   2.858 -0.0638 -0.0827 -0.1396
16149PP      PP26253   2.153  14.120  10.076  0.0400 -0.1818  0.0244
16150PP      PP26254   4.897  15.762   3.700  0.1193  0.3204 -0.0186
16151PP      PP26255   5.924  10.617  11.869  0.0674  0.1028 -0.0410
16152PP      PP26256   4.041   6.018   3.830  0.2171 -0.0524  0.0193
16153PP      PP26257   9.842   8.396   4.173 -0.1435 -0.0983  0.1902
16154PP      PP26258   4.950  10.645   4.169 -0.0860 -0.4793 -0.3532
16155PP      PP26259  11.107  12.533  11.813 -0.0788  0.0940  0.0457
16156PP      PP26260   3.982   0.144   9.627  0.0706 -0.1578 -0.0351
16157PP      PP26261   9.507   4.991   1.538 -0.1114  0.2366 -0.0531
16158PP      PP26262  10.082   1.703  10.609  0.0092 -0.1308  0.0931
16159PP      PP26263  11.821   7.397  11.398 -0.0152 -0.0671  0.0797
16160PP      PP26264  13.976   9.428   1.230  0.2535  0.1817  0.2684
16161PP      PP26265   5.400  12.787   8.800 -0.0617 -0.1052  0.1616
16162PP      PP26266   0.489   0.167   1.437 -0.1269 -0.1193  0.0622
16163PP      PP26267  12.321  12.126   1.650 -0.0022 -0.3043  0.0308
16164PP      PP26268   2.310   1.827  12.520  0.0366  0.0724  0.0912
16165PP      PP26269  12.641  12.105  10.539 -0.1093 -0.0984 -0.1508
16166PP      PP26270   9.283   0.943   3.554  0.2428 -0.1456 -0.0307
16167PP      PP26271   1.208   3.567  11.031 -0.1289  0.1608 -0.2788
16168PP      PP26272   5.358  12.649   1.261 -0.2264  0.2079 -0.2321
16169PP      PP26273  11.559  10.376  10.465  0.0522 -0.2882 -0.0225
16170PP      PP26274   9.991  14.329  10.242  0.4244  0.1831 -0.1670
16171PP      PP26275   0.573  12.894   2.473 -0.1208  0.1653  0.0627
16172PP      PP26276  12.855  13.917  11.041  0.1367  0.2763  0.0719
16173PP      PP26277  12.791  12.367   9.958  0.1199  0.0091 -0.0331
16174PP      PP26278  11.594   4.322   0.091 -0.0753  0.0646 -0.0162
16175PP      PP26279   7.586   7.396   4.515  0.0282  0.0230  0.0430
16176PP      PP26280  12.377   7.927  11.829  0.3554 -0.1464  0.0319
16177PP      PP26281  14.796   0.654   8.221  0.1481  0.1061 -0.0219
16178PP      PP26282   3.963   8.579  12.805  0.0580 -0.1864 -0.0187
16179PP      PP26283   3.845  12.537  10.529 -0.0540 -0.0031  0.0824
16180PP      PP26284   2.854   6.075   2.559  0.1353  0.0755 -0.2655
16181PP      PP26285   5.415   7.683   4.603 -0.2665 -0.2218  0.1583
16182PP      PP26286  10.979   6.317  11.752 -0.1570 -0.1102 -0.4944
16183PP      PP26287   5.205   5.219   9.012 -0.0892  0.3130 -0.2483
16184PP      PP26288   4.107  15.426   9.429 -0.1121 -0.3530 -0.0929
16185PP      PP26289  12.501   7.676   1.107  0.1358 -0.4160 -0.0011
16186PP      PP26290   5.775   3.478  12.545  0.2783  0.0948  0.0720
16187PP      PP26291  10.827  13.805  10.168  0.0408 -0.0732 -0.0491
16188PP      PP26292   0.017   1.443   1.696 -0.0877 -0.2071  0.4680
16189PP      PP26293  14.129   2.445   3.125  0.0047  0.2453  0.0089
16190PP      PP26294  13.614   5.758   1.906 -0.0129  0.0125  0.0755
16191PP      PP26295  13.057  14.721   3.968 -0.1156  0.2517 -0.0484
16192PP      PP26296   1.830   5.343  10.141 -0.2110  0.2960  0.0124
16193PP      PP26297  10.982   0.556  13.138 -0.1237 -0.0027 -0.0838
16194PP      PP26298   8.812  10.467  12.060  0.0426 -0.0656 -0.0270
16195PP      PP26299  15.621   0.171   3.847 -0.2236  0.2193  0.1262
16196PP      PP26300   2.631   8.504   1.386  0.2008  0.3378 -0.2434
16197PP      PP26301   2.251  10.081   4.236  0.0166  0.1371 -0.1977
16198PP      PP26302   9.549   0.284  10.642  0.0231  0.0826  0.3691
16199PP      PP26303  12.221  13.563   2.444  0.2998 -0.1012 -0.0927
16200PP      PP26304   5.964  11.563  10.884  0.0824  0.1328 -0.0425
16201PP      PP26305  13.581  11.076  10.692  0.0103 -0.1668 -0.0137
16202PP      PP26306   7.787  10.199   0.984 -0.2613  0.0756  0.0736
16203PP      PP26307  15.812  10.975   0.951  0.3433 -0.1186  0.2571
16204PP      PP26308  12.462   0.498   2.892 -0.0911  0.1168  0.2027
16205PP      PP26309  15.033  13.585   3.515 -0.0848  0.5313  0.2038
16206PP      PP26310  12.149   6.826   4.927 -0.1271  0.2863  0.2022
16207PP      PP26311  10.318  11.296   2.683  0.1722  0.2893 -0.2526
16208PP      PP26312   7.910   5.466   0.769 -0.1296 -0.3052  0.3026
16209PP      PP26313  12.437   2.035   2.285 -0.4983 -0.0785  0.0157
16210PP      PP26314   8.873   9.110   2.052 -0.2154 -0.1136 -0.0784
16211PP      PP26315  10.749   0.736  10.810 -0.4281 -0.0551  0.0169
16212PP      PP26316   4.142   1.388   0.207 -0.2920 -0.2303 -0.0967
16213PP      PP26317   6.715   6.702   0.636 -0.0911  0.0550  0.0278
16214PP      PP26318  13.696  15.337   1.109 -0.2352 -0.0108 -0.0152
16215PP      PP26319   8.221   6.148  11.975 -0.2630  0.1254 -0.0775
16216PP      PP26320  12.685  12.979  11.151  0.1124 -0.0422 -0.1653
16217PP      PP26321   0.342   4.746  12.593  0.1531 -0.2334  0.1075
16218PP      PP26322  10.685  13.000   3.522 -0.2324 -0.0929 -0.1870
16219PP      PP26323   5.195   5.513   3.783  0.1348 -0.3104 -0.0292
16220PP      PP26324  10.467   0.970  11.139  0.0444  0.2842  0.0368
16221PP      PP26325  15.609   9.917   3.886 -0.1551 -0.1976  0.2737
16222PP      PP26326   9.288   2.285   2.399  0.2896 -0.0418  0.1707
16223PP      PP26327  15.622  15.188   1.331 -0.0715 -0.2271  0.1542
16224PP      PP26328   4.148  14.696   9.456  0.0314 -0.1361  0.2015
16225PP      PP26329   1.907   2.216   8.150 -0.1724 -0.0958 -0.3878
16226PP      PP26330   0.379   5.820   1.246 -0.1560 -0.4250  0.2069
16227PP      PP26331  11.343   2.973   9.178 -0.0800 -0.2335  0.2365
16228PP      PP26332  15.339   1.766   9.714  0.0334  0.1238  0.0664
16229PP      PP26333  11.125   3.504   9.239  0.0635  0.1622 -0.1382
16230PP      PP26334   9.576   1.838  11.482 -0.0156  0.0517 -0.0893
16231PP      PP26335   6.541   8.477  12.386  0.2925  0.0248  0.2561
16232PP      PP26336   0.355   7.544   1.477 -0.2408 -0.0713 -0.2476
16233PP      PP26337  13.385  10.125  13.224  0.1514 -0.1393  0.0406
16234PP      PP26338   0.829  13.292   2.292 -0.0898 -0.0736  0.0978
16235PP      PP26339  10.436  10.230  11.546  0.0649 -0.0578 -0.1650
16236PP      PP26340   5.727   6.043   1.593  0.1594  0.4125 -0.1521
16237PP      PP26341   7.895  11.444   9.800  0.0997 -0.0482 -0.1400
16238PP      PP26342   7.330   2.184   3.237  0.0434  0.3284 -0.2976
16239PP      PP26343  11.850   0.192   4.213 -0.2109  0.1187 -0.0464
16240PP      PP26344   9.569   1.728  10.367 -0.1778 -0.2200 -0.0407
16241PP      PP26345  10.349  10.057  10.217 -0.2607 -0.0304 -0.0072
16242PP      PP26346  11.180   6.444  11.131  0.4394  0.1492 -0.0012
16243PP      PP26347   8.510  13.476  13.339 -0.0709  0.2636  0.4318
16244PP      PP26348   5.817   7.614  13.120  0.1307  0.2482 -0.2587
16245PP      PP26349  10.190  11.713   2.946 -0.3546  0.0279  0.3821
16246PP      PP26350   5.802   4.309   4.386  0.1071  0.1747  0.2837
16247PP      PP26351   0.416  10.596   4.969  0.0086 -0.1261  0.1065
16248PP      PP26352   6.601  13.858   8.477  0.1103  0.1240  0.0795
16249PP      PP26353   6.254   9.023   2.005  0.1058 -0.0757  0.2939
16250PP      PP26354  13.577   9.309  12.134  0.0214 -0.0311  0.1404
16251PP      PP26355   3.372  13.624  10.456 -0.2103  0.1640  0.0251
16252PP      PP26356  12.984   2.292   1.439  0.1364 -0.1311 -0.2128
16253PP      PP26357   0.247   3.708  12.919 -0.1214  0.0456  0.0510
16254PP      PP26358   6.513   8.437  13.523 -0.3531 -0.1013 -0.1619
16255PP      PP26359   3.650   6.111  11.194  0.3084 -0.1410 -0.1514
16256PP      PP26360  13.201   5.960   1.591  0.0688 -0.1324 -0.2209
16257PP      PP26361  12.330   4.465   0.518 -0.2066  0.2367 -0.0277
16258PP      PP26362  15.637   1.114   0.234  0.0222 -0.0119 -0.1642
16259PP      PP26363  10.527  12.863   4.013 -0.0822  0.1042  0.1582
16260PP      PP26364   2.791   1.192  10.787 -0.1671 -0.2089  0.4719
16261PP      PP26365  10.594   0.498   0.625 -0.1506 -0.2799 -0.0866
16262PP      PP26366  13.955  10.956   2.603 -0.1827 -0.0842  0.1403
16263PP      PP26367   8.213   8.280   0.845  0.0471 -0.0594 -0.0716
16264PP      PP26368  13.283   4.662   2.328  0.1169  0.0460  0.0914
16265PP      PP26369   0.170   3.358  11.060 -0.0727 -0.0074 -0.1735
16266PP      PP26370   3.917  10.693  10.784 -0.0356  0.0005  0.1425
16267PP      PP26371   0.970   1.899   8.139  0.0131 -0.2503  0.0305
16268PP      PP26372   5.925   6.178   2.799  0.0018 -0.0541  0.0646
16269PP      PP26373   8.436   4.108   3.293 -0.1405 -0.1638  0.1711
16270PP      PP26374  10.051   5.168   3.186  0.3471  0.2043  0.3426
16271PP      PP26375   5.302  14.853   8.346  0.0369  0.2027 -0.2655
16272PP      PP26376   1.777  15.072   2.759  0.0014 -0.3173  0.2869
16273PP      PP26377   0.432  12.474   9.865  0.0715 -0.1465 -0.3155
16274PP      PP26378   8.424   1.987   9.060  0.2522 -0.1129  0.1004
16275PP      PP26379   5.782   1.836  11.463 -0.0740  0.0102 -0.0542
16276PP      PP26380   3.134   4.987  13.336  0.0270 -0.1428  0.0312
16277PP      PP26381   8.176  10.665   0.751  0.0394 -0.0231 -0.2594
16278PP      PP26382   1.731  15.117  11.694 -0.0447  0.0830  0.0624
16279PP      PP26383   3.569   2.154  12.162  0.0645  0.2012 -0.1573
16280PP      PP26384  11.273   5.876   9.599  0.1295  0.1395 -0.1488
16281PP      PP26385  11.842   1.453   8.933 -0.1855  0.0016  0.1446
16282PP      PP26386  12.387  13.533  13.030  0.1126  0.0335  0.2231
16283PP      PP26387   5.615   7.175   0.678  0.0202 -0.0320 -0.0931
16284PP      PP26388   2.001   8.155   5.132  0.0576  0.1708 -0.0610
16285PP      PP26389   6.509  14.458   7.736  0.2779  0.0889  0.2515
16286PP      PP26390  13.935  13.192   0.202 -0.2067  0.0768  0.1662
16287PP      PP26391  14.727  10.898  11.585 -0.2367 -0.0399 -0.2226
16288PP      PP26392   0.329  12.786   2.073 -0.1714  0.1444  0.2235
16289PP      PP26393  10.897   4.720   3.711 -0.2315 -0.1408  0.1514
16290PP      PP26394  10.671   9.231   0.382  0.2811 -0.2037 -0.0517
16291PP      PP26395   6.154  11.671   0.565  0.0854 -0.2849  0.0226
16292PP      PP26396   6.132   1.962   2.025 -0.1096  0.0287  0.1023
16293PP      PP26397  12.051  10.762   5.464  0.1026  0.0518 -0.1571
16294PP      PP26398   4.309   4.758   4.444 -0.3136  0.1274  0.1133
16295PP      PP26399   9.082   1.770  10.625 -0.2358  0.1080  0.0831
16296PP      PP26400   8.393  15.623   9.814  0.5538 -0.4233  0.1802
16297PP      PP26401  10.676  15.234  11.650  0.0885  0.2675  0.1436
16298PP      PP26402  11.165   9.178   2.715 -0.2758  0.1766  0.0379
16299PP      PP26403   5.618   7.189   9.966  0.0886 -0.4652  0.0614
16300PP      PP26404  15.793   8.502   0.866  0.2800 -0.2360  0.0568
16301PP      PP26405   9.799   0.139   2.171  0.3327 -0.1630  0.2372
16302PP      PP26406  14.065  12.487   3.369 -0.0665  0.0095  0.0314
16303PP      PP26407  15.477   5.581  11.174 -0.3992 -0.1830  0.1937
16304PP      PP26408   1.235  13.425  11.152  0.1428 -0.2609  0.0550
16305PP      PP26409   8.804   5.118   0.613  0.0633  0.1685 -0.2770
16306PP      PP26410   3.123  10.691  13.197 -0.1473  0.1546  0.3593
16307PP      PP26411   8.154  11.608  12.001  0.0140  0.0210  0.1864
16308PP      PP26412  15.559  15.439   3.072 -0.0415 -0.0148  0.0644
16309PP      PP26413  12.024   4.503  12.471  0.0962 -0.0489 -0.0361
16310PP      PP26414   2.164  14.516   9.242 -0.0281 -0.1140  0.0924
16311PP      PP26415   1.581   9.997   5.390  0.1425 -0.1454 -0.3233
16312PP      PP26416  12.402   4.274   3.905 -0.0517 -0.0758 -0.0027
16313PP      PP26417  10.185   6.900   3.054  0.1774 -0.2112  0.0088
16314PP      PP26418   2.404   5.621   3.375 -0.0204  0.3089  0.0559
16315PP      PP26419  14.141   5.128   3.105  0.0814 -0.2232  0.1954
16316PP      PP26420   6.927   7.048   9.081 -0.1696 -0.2059  0.2117
16317PP      PP26421  11.640  14.724   4.068 -0.3687  0.0091 -0.0257
16318PP      PP26422  12.009   2.876  10.981 -0.1342  0.0717  0.0122
16319PP      PP26423   5.569   4.666   2.183  0.1036  0.0319  0.0612
16320PP      PP26424   1.909  10.228   0.530  0.0656  0.0902 -0.2646
16321PP      PP26425  10.057   6.041  12.911  0.0554  0.0269  0.1398
16322PP      PP26426  10.630  12.513   3.546 -0.0289 -0.1522  0.0490
16323PP      PP26427   4.879  10.895  11.711 -0.2084 -0.2836  0.1527
16324PP      PP26428   4.943  12.222  12.602  0.0802 -0.1527 -0.1320
16325PP      PP26429   8.921   0.080  11.982  0.0505  0.0908 -0.0116
16326PP      PP26430  14.479   3.804  11.803  0.3350  0.0780 -0.0361
16327PP      PP26431  14.810   4.352   9.785  0.1077  0.2188  0.5196
16328PP      PP26432   9.707  10.095  13.402  0.0030 -0.0166 -0.0185
16329PP      PP26433   7.724   4.862  12.118 -0.0884 -0.2367  0.0161
16330PP      PP26434   1.629   9.291   1.521  0.0489 -0.0633  0.0473
16331PP      PP26435   3.088   7.535   1.001 -0.3703  0.2994 -0.3184
16332PP      PP26436   9.679   5.570   3.283  0.0677 -0.4124  0.0550
16333PP      PP26437  13.791  12.588  12.410  0.1436 -0.1370 -0.2089
16334PP      PP26438  14.836   5.990  11.408 -0.1650  0.3339 -0.0307
16335PP      PP26439  13.386  15.146   2.336 -0.2151  0.0388  0.0354
16336PP      PP26440   6.802  14.377   1.752 -0.5076 -0.2489 -0.0674
16337PP      PP26441   0.884  12.940   9.440  0.2845  0.1221 -0.1888
16338PP      PP26442   5.468   2.857   1.589 -0.3142 -0.1664 -0.0822
16339PP      PP26443   6.712  14.233  11.887 -0.3253  0.2588 -0.1063
16340PP      PP26444   2.912  13.172  11.929  0.0192 -0.2083  0.0182
16341PP      PP26445  15.774  11.792  13.259 -0.2494 -0.2427 -0.0375
16342PP      PP26446   3.110  14.488   3.080 -0.0184  0.0506 -0.0492
16343PP      PP26447  11.219  12.534   1.448 -0.0365 -0.2092 -0.0820
16344PP      PP26448   7.777  11.226   9.279  0.0230 -0.3650  0.0354
16345PP      PP26449   0.191   2.496  13.456  0.3576  0.2889  0.0373
16346PP      PP26450  13.139   7.182   0.776 -0.0855 -0.2620 -0.0957
16347PP      PP26451  15.315   3.475   5.197  0.3897 -0.3129 -0.1344
16348PP      PP26452   7.368   9.845  13.086  0.0935 -0.0241  0.2837
16349PP      PP26453   7.731   5.768  11.184  0.1602  0.1601 -0.1548
16350PP      PP26454   1.895   1.920   0.731 -0.0191  0.1750  0.4774
16351PP      PP26455  12.851   3.842  11.366  0.0598 -0.0188 -0.2878
16352PP      PP26456  11.212  10.213   2.954  0.1160 -0.0952 -0.2404
16353PP      PP26457   5.163   7.363  10.504  0.1762  0.3217 -0.3672
16354PP      PP26458   5.865   9.816   0.597 -0.4127  0.0827 -0.1101
16355PP      PP26459  13.691   0.920   1.915 -0.0154  0.2262 -0.0463
16356PP      PP26460  15.266  10.506  10.905  0.1224 -0.2649 -0.0551
16357PP      PP26461   6.896   9.723   2.052 -0.0676 -0.0934  0.0626
16358PP      PP26462   8.600   4.144  12.367 -0.0002  0.0751  0.2528
16359PP      PP26463   0.499  13.349  13.030 -0.0738  0.1826 -0.2607
16360PP      PP26464   9.320   5.920   2.643 -0.0494  0.0826 -0.0347
16361PP      PP26465   2.504   0.854   0.786  0.2917 -0.0628  0.3118
16362PP      PP26466   1.161  13.401  12.088  0.2876 -0.1910  0.1065
16363PP      PP26467   5.570  12.271  10.304 -0.1325  0.0945 -0.1628
16364PP      PP26468  14.173  14.784   1.068 -0.0151  0.0618 -0.0311
16365PP      PP26469   8.399  10.489  12.323  0.0948  0.0698  0.1625
16366PP      PP26470  15.078   3.018   1.589 -0.1720  0.0437 -0.1062
16367PP      PP26471   6.679  15.080  11.888  0.1617  0.0872  0.0598
16368PP      PP26472   5.252   2.479   9.969  0.0497 -0.2406 -0.0364
16369PP      PP26473   0.531   6.705  13.172 -0.0265 -0.0861  0.2259
16370PP      PP26474   2.046  14.065   9.221 -0.0136 -0.3454  0.1958
16371PP      PP26475   2.122  12.900   4.942  0.1070 -0.0851 -0.3112
16372PP      PP26476   1.623   6.879  11.252  0.0530  0.0357 -0.3607
16373PP      PP26477   1.569  10.509   1.048  0.1639  0.0892 -0.0929
16374PP      PP26478   6.893   0.375   8.319  0.0652  0.2542 -0.1778
16375PP      PP26479  12.527   9.168   1.209  0.2138  0.0158 -0.2555
16376PP      PP26480  10.619   2.677   3.750  0.3169 -0.1859 -0.1327
16377PP      PP26481   5.801  10.666   3.606  0.0281 -0.0208  0.0097
16378PP      PP26482   5.438   0.054   3.231  0.0127  0.0270  0.0827
16379PP      PP26483  13.524  15.294  13.250 -0.0496  0.2083 -0.0033
16380PP      PP26484   9.684  13.664   1.958  0.2932  0.1334  0.0031
16381PP      PP26485  10.535  10.787   3.386 -0.1785 -0.0591  0.2643
16382PP      PP26486   8.173   8.877  13.503 -0.1860 -0.0023  0.2772
16383PP      PP26487   7.705   5.078   1.044  0.2420 -0.2811  0.1314
16384PP      PP26488   8.008   5.276   1.693 -0.0718 -0.1605  0.3334
16385PP      PP26489   1.355   5.161   2.589  0.0579 -0.2111 -0.1601
16386PP      PP26490   7.274   8.823  13.267  0.1117  0.1393  0.0912
16387PP      PP26491   4.772   0.137   9.279 -0.0310 -0.0998 -0.0435
16388PP      PP26492   9.968   3.331  11.451 -0.1822 -0.0720  0.1786
16389PP      PP26493  13.097   3.110   4.154 -0.2827 -0.2183  0.0598
16390PP      PP26494  14.023   3.511   4.494 -0.0580  0.0983 -0.0496
16391PP      PP26495  15.022   2.686   4.136 -0.3223 -0.1524  0.1823
16392PP      PP26496   6.015  14.195   0.308 -0.0582  0.2781  0.3648
16393PP      PP26497  13.687   8.590   1.154  0.0865 -0.1104 -0.0545
16394PP      PP26498   4.088  15.396   4.082 -0.2916  0.0875  0.2087
16395PP      PP26499   9.822   5.813  11.433 -0.2051 -0.2265  0.0835
16396PP      PP26500  15.572   8.426   4.985 -0.0219 -0.1270 -0.1710
16397PP      PP26501   8.539  10.855  11.864 -0.3268 -0.1117 -0.0950
16398PP      PP26502   4.000   8.484   9.931 -0.1220  0.0013  0.0768
16399PP      PP26503   9.976  13.970   1.670  0.1439  0.0467  0.0574
16400PP      PP26504  14.739   7.890  10.110  0.4030  0.0252 -0.2091
16401PP      PP26505   6.964   4.943   9.079 -0.4901 -0.3829  0.0269
16402PP      PP26506   4.769  10.234  12.973 -0.1881 -0.1798 -0.2040
16403PP      PP26507   8.747   4.627  12.446  0.0495 -0.0791  0.1542
16404PP      PP26508   8.186  10.287   2.325  0.0398  0.1409 -0.1696
16405PP      PP26509   3.571  13.646   1.897 -0.0953  0.0776 -0.0925
16406PP      PP26510   8.620  15.475  10.434  0.0981  0.1378 -0.1467
16407PP      PP26511   2.970   8.172  12.117 -0.0727  0.3981  0.0913
16408PP      PP26512  12.506   9.032  11.924  0.0082 -0.1002 -0.0284
16409PP      PP26513  15.618   7.111   2.927 -0.1315  0.3790  0.2859
16410PP      PP26514   7.043   2.218  11.893 -0.1330 -0.1309 -0.0758
16411PP      PP26515   8.773   5.429   4.274  0.2818 -0.1345  0.0592
16412PP      PP26516   7.973  10.220   9.313 -0.0860 -0.0284 -0.1232
16413PP      PP26517   1.365   8.050   3.587 -0.1450 -0.2516  0.1408
16414PP      PP26518  12.204  13.951   9.849  0.2572 -0.2669 -0.2074
16415PP      PP26519   7.126   5.892   1.814  0.2411  0.0714 -0.0538
16416PP      PP26520  14.929   1.774  10.626  0.1620  0.2803  0.1466
16417PP      PP26521   7.442  13.103  11.758  0.0529  0.0629 -0.0668
16418PP      PP26522   5.480   2.417   0.400  0.0763  0.1001  0.0465
16419PP      PP26523  11.411   3.854   1.411 -0.0529  0.1233 -0.2438
16420PP      PP26524   3.320   3.808   4.450 -0.0696  0.2564  0.4994
16421PP      PP26525   4.280   1.264   8.959 -0.3328  0.0251 -0.1504
16422PP      PP26526   4.425   3.242   9.449  0.0283  0.1296 -0.1479
16423PP      PP26527  15.351   5.648   9.415 -0.3099  0.0231 -0.0925
16424PP      PP26528  12.593   9.082   5.249 -0.0286  0.2360 -0.0603
16425PP      PP26529  14.821  13.589  13.112 -0.0998 -0.0829 -0.1119
16426PP      PP26530  12.918   8.528  13.290 -0.0947  0.2442 -0.3497
16427PP      PP26531   7.433   9.380  10.202  0.3674 -0.0954 -0.1744
16428PP      PP26532   6.469  14.617  10.192  0.1959  0.1994 -0.0480
16429PP      PP26533  14.277   2.845   2.875 -0.1230 -0.0382  0.4951
16430PP      PP26534   2.075   4.290   1.034 -0.2871 -0.2013  0.0542
16431PP      PP26535   9.940   4.075   0.118  0.0753  0.1315 -0.0616
16432PP      PP26536  15.422   9.213  12.714  0.2502 -0.1120 -0.2816
16433PP      PP26537   7.370   4.447  13.216  0.1385 -0.0312  0.1115
16434PP      PP26538  14.499   4.084  13.295  0.1941  0.0512 -0.0353
16435PP      PP26539   0.259  11.946  11.236 -0.0130 -0.3300 -0.1399
16436PP      PP26540   4.726  15.194   7.702  0.2996  0.0461  0.1883
16437PP      PP26541   8.076   3.159   1.168  0.0652 -0.0848  0.0693
16438PP      PP26542   2.217   3.412   3.910  0.2563 -0.4735  0.0090
16439PP      PP26543   7.999  12.478  12.064 -0.0442 -0.0668 -0.2997
16440PP      PP26544  12.490  11.730   1.379  0.2276 -0.0354 -0.0162
16441PP      PP26545  15.355  11.336   0.438 -0.0430  0.1393 -0.2244
16442PP      PP26546   4.301  10.448  11.163 -0.0164  0.1938 -0.0606
16443PP      PP26547  14.614  15.249   9.923 -0.0157  0.0552 -0.0642
16444PP      PP26548  14.851  12.946   3.070 -0.1928  0.0945  0.0774
16445PP      PP26549   1.293   9.796   0.784  0.2014  0.2593 -0.0807
16446PP      PP26550   4.011  11.199   3.693  0.3483 -0.0591 -0.0341
16447PP      PP26551   6.431   9.578   3.836 -0.2129  0.3906 -0.1319
16448PP      PP26552   2.749   3.599  12.553  0.2045 -0.1265  0.4740
16449PP      PP26553   0.527   4.247   2.510 -0.0249  0.1254  0.0329
16450PP      PP26554  14.444   0.332  10.885 -0.0664 -0.0363  0.3861
16451PP      PP26555  10.460   3.263   8.654  0.1133  0.0028 -0.0226
16452PP      PP26556   0.291  12.098  11.894  0.3276  0.0643 -0.0012
16453PP      PP26557  10.879   3.796   2.147 -0.0670 -0.1916 -0.5301
16454PP      PP26558   2.654  15.660   8.939  0.2081 -0.1282 -0.0880
16455PP      PP26559  14.441  11.000  11.132 -0.1225  0.1071 -0.2908
16456PP      PP26560  14.067  13.633   1.894 -0.2365  0.3811  0.3374
16457PP      PP26561  10.281   1.859   3.952  0.2857 -0.0306  0.1123
16458PP      PP26562  12.331   9.534   5.129  0.0010  0.1507  0.0315
16459PP      PP26563   1.830  10.177  12.962  0.1550 -0.1884 -0.0444
16460PP      PP26564  11.443   8.405   3.615  0.0016 -0.0985  0.1967
16461PP      PP26565   8.224   6.434  11.357 -0.3267 -0.0672  0.2244
16462PP      PP26566   9.942   9.408   4.931  0.0779 -0.3631  0.1482
16463PP      PP26567   1.002   3.069  12.558  0.0194 -0.1248 -0.1951
16464PP      PP26568   9.090   1.230   9.809  0.3630  0.3686 -0.0330
16465PP      PP26569   4.747  12.732   3.589 -0.0917 -0.1691 -0.0419
16466PP      PP26570  11.062   9.313  11.437 -0.4556  0.4529  0.0141
16467PP      PP26571   6.675  13.065  10.542 -0.0044  0.3447  0.0348
16468PP      PP26572   4.571   9.847  12.044 -0.0573  0.1837 -0.1566
16469PP      PP26573   1.696   4.624   1.564  0.1226 -0.1460  0.0034
16470PP      PP26574   8.097   0.485   1.015 -0.2266  0.0037  0.1351
16471PP      PP26575   3.908   4.281  12.005  0.1183 -0.0527  0.2392
16472PP      PP26576   6.603   2.044  13.194  0.0644  0.2617  0.0616
16473PP      PP26577  12.601  13.200  12.717 -0.3235 -0.0435  0.0690
16474PP      PP26578  11.971  12.367  12.577  0.1534 -0.0174 -0.1321
16475PP      PP26579  13.457   9.590   2.912 -0.0837 -0.0265  0.1567
16476PP      PP26580   1.572   9.946  12.520 -0.3011 -0.3695  0.0503
16477PP      PP26581   6.697   2.966   0.673  0.0590  0.1676  0.0332
16478PP      PP26582   3.714   6.330   3.731 -0.0098  0.2566  0.0665
16479PP      PP26583  12.928  15.519   1.833  0.2284 -0.0215  0.5170
16480PP      PP26584  14.478   3.086  11.244 -0.2080 -0.1290  0.0841
16481PP      PP26585   9.371  11.936  13.322  0.0042  0.2445 -0.1460
16482PP      PP26586  11.263   9.999   9.480 -0.0020 -0.0040 -0.1643
16483PP      PP26587  11.003   7.495   4.119 -0.0830  0.1138 -0.1892
16484PP      PP26588   9.360   4.161  11.531 -0.0595 -0.0538 -0.2516
16485PP      PP26589   7.059   3.125  11.775  0.3135  0.1200 -0.1846
16486PP      PP26590   3.331   6.588  12.007  0.0920  0.1270  0.1633
16487PP      PP26591   6.532  12.557   0.352  0.2748 -0.1646  0.1364
16488PP      PP26592   5.326   1.330   8.918 -0.2080  0.0434 -0.1682
16489PP      PP26593   7.201   9.931   4.887 -0.0556 -0.2589 -0.0251
16490PP      PP26594  12.515   5.596   9.122  0.1304 -0.2016 -0.0356
16491PP      PP26595   9.206   1.927   2.856 -0.2262 -0.1674 -0.3511
16492PP      PP26596   2.338  10.394   1.698 -0.1196 -0.0318  0.4036
16493PP      PP26597   9.460  12.611   9.661  0.0915 -0.1353  0.2796
16494PP      PP26598  11.258   8.557   0.999  0.1783  0.3182 -0.0048
16495PP      PP26599  10.958   9.224   4.668 -0.2056 -0.2902 -0.0369
16496PP      PP26600   7.280   7.788  12.238  0.0079 -0.2499 -0.0871
16497PP      PP26601  14.157   9.189   3.222 -0.3462 -0.0009 -0.1201
16498PP      PP26602  10.579  11.176   3.072  0.2016  0.3594 -0.1648
16499PP      PP26603   2.789  13.351   0.586  0.0744  0.1230  0.2956
16500PP      PP26604   8.777   4.740   0.896  0.0452  0.2672  0.0773
16501PP      PP26605   2.133   1.534   2.248 -0.0640 -0.1094 -0.1902
16502PP      PP26606  10.482   4.393   1.309  0.2311 -0.0018 -0.0269
16503PP      PP26607   8.967   3.242  13.416 -0.1550 -0.0894 -0.0189
16504PP      PP26608   5.722   6.942  12.637 -0.2684 -0.1905 -0.1250
16505PP      PP26609   2.841   0.446  10.826  0.0717 -0.0075 -0.3590
16506PP      PP26610   6.342  11.552   9.535 -0.1864 -0.1232  0.0008
16507PP      PP26611   4.585   3.536   2.744  0.1398  0.2454 -0.0675
16508PP      PP26612   4.352  11.408   1.806  0.3119  0.1413  0.0652
16509PP      PP26613   5.191   8.497   1.689 -0.0679  0.0416 -0.0749
16510PP      PP26614  12.126   2.968   2.788  0.0410  0.2543 -0.0814
16511PP      PP26615   6.445   1.181  10.244 -0.1447 -0.2726 -0.0096
16512PP      PP26616  15.099   9.725   2.214 -0.0382 -0.0246  0.0399
16513PP      PP26617  10.658   2.590  10.310  0.1313  0.0687 -0.1828
16514PP      PP26618  10.105   8.638  10.818  0.0404 -0.0408 -0.1619
16515PP      PP26619   9.801   5.661  12.943  0.0468  0.3795  0.2260
16516PP      PP26620  10.928   7.980   2.805 -0.1054 -0.1920  0.0347
16517PP      PP26621   8.765  13.784   9.430  0.0043 -0.0004  0.1854
16518PP      PP26622   2.681   3.696  11.450  0.0132  0.3604  0.0741
16519PP      PP26623  10.837   7.005  10.664 -0.1831 -0.0988  0.0001
16520PP      PP26624   3.322  11.436   2.964  0.1383 -0.3806  0.1246
16521PP      PP26625   5.394   3.444  11.953  0.1485  0.1660 -0.0040
16522PP      PP26626   6.887   2.270   1.898 -0.2474  0.6593  0.3164
16523PP      PP26627   8.148   6.328   1.779  0.1154  0.3878 -0.1258
16524PP      PP26628   9.740   1.517   9.179  0.0425  0.0169  0.1909
16525PP      PP26629   3.304  14.071   9.911  0.2648 -0.1588  0.0135
16526PP      PP26630   0.635   2.604  13.121 -0.1816 -0.0810  0.2299
16527PP      PP26631   3.154   4.067  12.373  0.0236  0.1739 -0.1931
16528PP      PP26632  11.395   7.205  11.206 -0.3173  0.0432 -0.2357
16529PP      PP26633  11.276  12.840   0.947  0.3664 -0.2865  0.4390
16530PP      PP26634   8.248   1.041   3.639 -0.1121 -0.0608 -0.2772
16531PP      PP26635   2.274   3.609   9.179  0.1361 -0.0899 -0.2994
16532PP      PP26636  11.980   3.722  11.026 -0.1092  0.0153 -0.1126
16533PP      PP26637  12.807   6.989  12.565  0.1410 -0.0612  0.0891
16534PP      PP26638  15.301  10.006  12.086 -0.0011 -0.0444 -0.1691
16535PP      PP26639  15.339  10.967   0.047  0.0641  0.0485 -0.3281
16536PP      PP26640   9.942  12.989  12.999 -0.0110  0.0439 -0.0683
16537PP      PP26641   9.083   4.299  12.467 -0.0665  0.1588 -0.0098
16538PP      PP26642  14.742   3.653   2.314  0.1011  0.0197 -0.1697
16539PP      PP26643  12.991  12.894  10.385 -0.3991 -0.0892 -0.2129
16540PP      PP26644   2.542  15.404   3.935  0.0346 -0.0383  0.2358
16541PP      PP26645   1.915   2.411   9.944 -0.0596 -0.0313 -0.1022
16542PP      PP26646   1.082   9.304   4.806 -0.0780  0.2340 -0.2135
16543PP      PP26647   9.308   6.470   9.545 -0.0786 -0.0424  0.1787
16544PP      PP26648   4.579   9.295  10.347 -0.1940  0.1900  0.1413
16545PP      PP26649   8.329  15.756   2.874 -0.0006  0.1402 -0.1835
16546PP      PP26650   2.012   7.519  11.072  0.2519 -0.3153  0.0894
16547PP      PP26651   8.433  10.734  10.630 -0.0526  0.1454 -0.1437
16548PP      PP26652   0.532   3.878   4.265  0.0347 -0.2768 -0.1312
16549PP      PP26653  13.435   2.862   3.941  0.0856 -0.0416  0.2833
16550PP      PP26654  10.683   0.599   8.167  0.0774  0.0923  0.0637
16551PP      PP26655   5.315   1.953   3.112 -0.0256  0.1773  0.1738
16552PP      PP26656   8.413   3.750   8.826 -0.2054  0.2061  0.1557
16553PP      PP26657   3.235   7.552   5.278 -0.1346  0.0938 -0.1822
16554PP      PP26658  15.588   2.482   0.805 -0.0472  0.0249 -0.2432
16555PP      PP26659   6.314   4.629   3.804 -0.1941  0.1989  0.0335
16556PP      PP26660   7.796  14.795  11.172 -0.1729  0.1379 -0.0087
16557PP      PP26661  14.546  13.680   0.383  0.0658  0.1913  0.1773
16558PP      PP26662   2.153   5.323  12.376 -0.1175  0.2097 -0.1097
16559PP      PP26663   6.322  10.103   4.180  0.1316 -0.0693 -0.0737
16560PP      PP26664  13.061  13.384   2.583 -0.0552  0.0799  0.1457
16561PP      PP26665  15.215   0.803  10.019 -0.0706  0.1298  0.0653
16562PP      PP26666  12.876   0.294   9.904 -0.0676 -0.1866  0.0868
16563PP      PP26667   6.229   9.631   9.550  0.0898 -0.1257  0.5952
16564PP      PP26668   1.340   1.313   0.067  0.0891  0.0188  0.0727
16565PP      PP26669   3.454   2.690  11.403  0.0621 -0.0153  0.0321
16566PP      PP26670  15.795   6.776  13.282  0.1964 -0.0459 -0.2628
16567PP      PP26671  13.154  12.406   4.067 -0.2025 -0.2511  0.2859
16568PP      PP26672   4.077   1.900   0.174  0.0838  0.3033 -0.1612
16569PP      PP26673   4.053   7.512  11.443  0.2009  0.2624 -0.1994
16570PP      PP26674   8.357   4.933   2.906 -0.3490 -0.0720 -0.2926
16571PP      PP26675   7.767  14.309   1.646 -0.2202 -0.0071 -0.1909
16572PP      PP26676  10.989   1.946  12.906 -0.1334 -0.2938 -0.1448
16573PP      PP26677   8.144   5.037  10.875 -0.0745  0.0565  0.0346
16574PP      PP26678   2.295  12.916   2.663 -0.0512 -0.0963 -0.1666
16575PP      PP26679   1.320  11.632  12.812 -0.4863  0.2139 -0.0230
16576PP      PP26680   5.560   9.221  12.803 -0.0924 -0.3747 -0.1194
16577PP      PP26681  14.992   8.518  10.871 -0.1272  0.1688 -0.3713
16578PP      PP26682  12.485   6.495   0.370  0.0999  0.0645 -0.1447
16579PP      PP26683  11.251   9.653  10.031 -0.1096 -0.0535 -0.0629
16580PP      PP26684   4.185  12.358   1.469  0.0696  0.2115  0.1166
16581PP      PP26685  11.189   9.110  10.059  0.0051  0.1054 -0.1702
16582PP      PP26686   4.480   1.049   8.545 -0.0145  0.1404  0.0770
16583PP      PP26687  12.097   9.279   9.717 -0.1881  0.2331  0.0021
16584PP      PP26688   1.314   4.405   2.201 -0.1744  0.0908 -0.0199
16585PP      PP26689  15.653   7.822  11.195  0.2116 -0.0274 -0.1600
16586PP      PP26690  12.380  14.978   1.143  0.1861 -0.3330 -0.2615
16587PP      PP26691   5.717  10.213  12.898 -0.3112  0.1168  0.0103
16588PP      PP26692  10.993  15.185   3.144 -0.1078  0.3004  0.0404
16589PP      PP26693   2.282  14.476   0.431  0.3171  0.0936 -0.0002
16590PP      PP26694   4.720   4.689   3.149 -0.1841 -0.1613  0.0008
16591PP      PP26695  12.859  14.853   1.254  0.0232  0.0130  0.1557
16592PP      PP26696   8.165  13.706  10.650 -0.0781  0.1056  0.0860
16593PP      PP26697   3.498  14.026  12.121  0.1708  0.1225  0.2305
16594PP      PP26698  13.107   5.409   3.297 -0.0487  0.1557  0.4853
16595PP      PP26699   0.629   9.552   0.414  0.0389  0.0768  0.2888
16596PP      PP26700   7.346  10.002   4.043  0.1412  0.2409  0.1399
16597PP      PP26701  12.133   6.827   0.681  0.0120  0.2561 -0.5300
16598PP      PP26702   9.588  11.209  11.184  0.0740  0.1190  0.1616
16599PP      PP26703   8.580   6.791  11.472 -0.0740 -0.0993 -0.1188
16600PP      PP26704   2.450   8.242   2.550  0.0587  0.0438  0.1147
16601PP      PP26705   9.485  12.772   2.173 -0.3776 -0.2406  0.0508
16602PP      PP26706  12.878  14.638  12.959  0.0834  0.0419 -0.1823
16603PP      PP26707  10.185   6.194  13.388  0.2368 -0.0707  0.1521
16604PP      PP26708  10.886  13.233   2.005 -0.2114 -0.1358  0.1433
16605PP      PP26709   0.762   0.779   8.778  0.0697 -0.0255  0.0113
16606PP      PP26710   9.400  13.679  12.509  0.0806  0.0041 -0.0368
16607PP      PP26711   7.016   1.324   0.112  0.2569 -0.2538 -0.2862
16608PP      PP26712   7.400   9.548   1.243  0.2670  0.0344 -0.1280
16609PP      PP26713   2.483   3.043  11.823 -0.0721 -0.2459  0.4051
16610PP      PP26714   2.974   6.364  12.337 -0.0715 -0.1560  0.1107
16611PP      PP26715   9.329   5.495   3.885 -0.0348 -0.2655  0.0764
16612PP      PP26716   4.131  10.426   2.377  0.0128 -0.1494 -0.1699
16613PP      PP26717  12.887   3.494   9.988  0.3859  0.1048 -0.2715
16614PP      PP26718  15.096   7.995  11.036  0.3296 -0.0662  0.0167
16615PP      PP26719  12.347   2.374  13.235  0.1124 -0.2226  0.2355
16616PP      PP26720  12.081   8.020  12.382  0.1769 -0.2090 -0.0324
16617PP      PP26721  14.260   4.608   1.534  0.0102 -0.1003 -0.0600
16618PP      PP26722   5.511   7.204   4.613 -0.0208 -0.1586 -0.0619
16619PP      PP26723  14.715  14.934  12.765 -0.2774  0.0408 -0.0354
16620PP      PP26724   6.562   6.929   2.290  0.1015 -0.4006  0.0753
16621PP      PP26725  11.117  10.971   5.017 -0.0085  0.0507 -0.3137
16622PP      PP26726   5.649   2.931   8.707 -0.1110 -0.0615  0.0862
16623PP      PP26727   9.788   9.384  13.446  0.0046 -0.3286  0.0895
16624PP      PP26728  12.593  10.641   3.647  0.2103  0.0418 -0.0155
16625PP      PP26729  10.020   9.098   4.544  0.1382  0.1257 -0.1275
16626PP      PP26730   8.390  13.501   1.181  0.1782  0.2060  0.1427
16627PP      PP26731   5.413  10.341   1.144 -0.0427 -0.1076 -0.3871
16628PP      PP26732  11.316  11.248   5.385 -0.1262 -0.0457 -0.0666
16629PP      PP26733   2.076   7.988   2.800  0.3038 -0.2080  0.0005
16630PP      PP26734  10.246   1.681   3.425  0.1800 -0.3205 -0.0215
16631PP      PP26735   9.760   3.416  13.150  0.0767 -0.2137  0.1929
16632PP      PP26736  11.476   3.883   3.814  0.0272 -0.1414 -0.1710
16633PP      PP26737   3.014   1.309  11.186  0.0298  0.2582  0.0428
16634PP      PP26738   3.543  14.168  12.568  0.0236  0.0013  0.0826
16635PP      PP26739  10.736  15.385   4.489 -0.3262  0.1106 -0.4048
16636PP      PP26740   2.366   0.765   9.414  0.5891 -0.1128 -0.0684
16637PP      PP26741   8.598   4.318   2.580  0.5347 -0.1677 -0.0802
16638PP      PP26742  12.171   0.177   1.089 -0.3340  0.1597  0.1164
16639PP      PP26743   9.464  14.416  13.117 -0.1080  0.0566  0.1741
16640PP      PP26744   0.390   6.613   3.144  0.1949  0.0671 -0.1734
16641PP      PP26745  12.682  13.508   2.286 -0.2114 -0.2575 -0.1639
16642PP      PP26746   4.155   9.649  13.254 -0.0724  0.1154 -0.1138
16643PP      PP26747   8.681  14.582  12.440 -0.2011 -0.2354 -0.1600
16644PP      PP26748   9.506  13.848  11.241 -0.2068  0.2368  0.0025
16645PP      PP26749   0.328   7.086  12.513 -0.1155  0.3482  0.0967
16646PP      PP26750  14.313   0.929   2.729 -0.0223  0.0140  0.0334
16647PP      PP26751   0.418   3.454  11.456 -0.0086 -0.0426 -0.2034
16648PP      PP26752   2.454   3.065   2.946  0.1533 -0.1451 -0.2428
16649PP      PP26753  15.117   2.264  10.790  0.1681 -0.1722  0.0169
16650PP      PP26754  11.329  12.956  11.123 -0.2093  0.0191 -0.1688
16651PP      PP26755   5.780   4.963   2.609  0.0580 -0.2106  0.2270
16652PP      PP26756   1.338  15.591  10.313 -0.0238  0.2473 -0.0015
16653PP      PP26757   2.135   0.103   2.732  0.3531 -0.1327  0.1104
16654PP      PP26758   3.834   3.765   0.696  0.1427 -0.0544 -0.0337
16655PP      PP26759   1.785   2.189   0.305 -0.2869  0.1136 -0.0249
16656PP      PP26760   7.176   4.476  10.472 -0.3108 -0.0711  0.0662
16657PP      PP26761   6.512   7.565  10.428  0.4189  0.2119 -0.0282
16658PP      PP26762   7.010  13.298  11.931 -0.1788 -0.1511  0.0661
16659PP      PP26763   5.109   3.074   2.424 -0.1538 -0.1083 -0.0996
16660PP      PP26764  14.874   1.137  12.391 -0.1157  0.0183  0.0827
16661PP      PP26765   8.432  11.368  10.155 -0.0391  0.2148 -0.0352
16662PP      PP26766  13.561   1.432  12.016  0.3127  0.0810 -0.0046
16663PP      PP26767   1.847   1.572  10.435  0.1421 -0.1191  0.2105
16664PP      PP26768   8.618  13.729   8.284  0.0683  0.0341 -0.0513
16665PP      PP26769   1.545   3.581  10.204  0.1164  0.3024  0.0408
16666PP      PP26770   9.551   0.511  12.612  0.1267 -0.0740 -0.4352
16667PP      PP26771  11.694   5.986   2.178  0.1167 -0.2968  0.1474
16668PP      PP26772   9.902   8.388   3.177  0.0820  0.2912  0.0831
16669PP      PP26773  10.740  10.262   3.628  0.2913 -0.1793  0.1726
16670PP      PP26774   7.194   4.133   8.435 -0.0297  0.0866 -0.1666
16671PP      PP26775   2.489  11.487  11.908 -0.1368  0.0322 -0.1264
16672PP      PP26776   9.168  11.491   1.390  0.0811 -0.1414  0.0550
16673PP      PP26777  15.484   0.366   9.976  0.1018 -0.2955 -0.1453
16674PP      PP26778   1.066  10.028   5.148 -0.2352  0.1426  0.2441
16675PP      PP26779   5.909  12.398  12.391  0.3116  0.2162  0.0336
16676PP      PP26780   0.200   3.239   1.653 -0.1939 -0.4272  0.2204
16677PP      PP26781  12.655   0.996  10.429  0.0566  0.1014  0.2000
16678PP      PP26782  15.257   3.527   1.510  0.2267  0.4058 -0.0790
16679PP      PP26783   6.710   6.047   4.747  0.0143  0.3606 -0.1018
16680PP      PP26784   1.306   7.883  11.708  0.1818 -0.1768  0.1303
16681PP      PP26785  15.717  15.312  10.153  0.1511  0.1688 -0.4566
16682PP      PP26786   6.005  10.270  11.315 -0.1584 -0.1276  0.1454
16683PP      PP26787   1.568   5.990   0.939 -0.0069  0.1271 -0.1840
16684PP      PP26788   6.866  11.597  10.744  0.0929  0.0005  0.0255
16685PP      PP26789   8.223  12.960   8.684  0.0724  0.0190  0.0362
16686PP      PP26790   9.885   7.158   4.018  0.1230 -0.0162  0.1667
16687PP      PP26791  13.367  10.198  11.403 -0.0391 -0.0129 -0.1265
16688PP      PP26792   4.076   2.660   0.713 -0.1385 -0.1235 -0.0943
16689PP      PP26793  11.151   5.317   1.900  0.0189 -0.1273 -0.0670
16690PP      PP26794  10.329  13.637   9.120  0.1328  0.2644  0.1884
16691PP      PP26795  14.924   2.330   9.197 -0.0489  0.1237 -0.1980
16692PP      PP26796   7.842   1.857   1.497 -0.0710  0.1389 -0.1617
16693PP      PP26797   2.000  13.162  10.750  0.2240 -0.0281 -0.1128
16694PP      PP26798  15.771   1.905   0.389  0.1854 -0.0411  0.2614
16695PP      PP26799   6.711   0.519   0.401  0.1546  0.0783  0.2246
16696PP      PP26800   4.581   4.954   2.237  0.0761  0.1064 -0.2196
16697PP      PP26801   7.678  15.453  11.370 -0.0945  0.1851  0.0703
16698PP      PP26802   2.150   7.402  10.476 -0.3902  0.0679 -0.3337
16699PP      PP26803  14.383   9.052   2.332  0.1770 -0.0459  0.0565
16700PP      PP26804   5.343   5.660   2.316 -0.0058 -0.3129  0.0461
16701PP      PP26805   7.836   0.541  12.827 -0.0149  0.1525  0.1953
16702PP      PP26806  14.526  10.856   4.071  0.1015  0.2616 -0.1056
16703PP      PP26807   9.172  12.074   9.523 -0.1774  0.0392 -0.0991
16704PP      PP26808   0.307  13.560   9.989 -0.3584  0.0356 -0.5330
16705PP      PP26809   2.616   9.637  12.922  0.0378  0.2833  0.1447
16706PP      PP26810   0.669   3.477  11.939  0.0825 -0.2195 -0.1886
16707PP      PP26811  15.718   0.021  11.286  0.4628 -0.2895 -0.0482
16708PP      PP26812  13.823   2.197   2.830 -0.0056 -0.1762  0.3967
16709PP      PP26813   7.755   9.390   2.602  0.1063  0.1920 -0.1289
16710PP      PP26814   4.105  10.065   3.370 -0.1996 -0.1845  0.2363
16711PP      PP26815   2.664   6.751   0.754  0.1550  0.2143  0.1203
16712PP      PP26816   5.048  13.989  13.080  0.2142  0.1808  0.1508
16713PP      PP26817   4.405  12.389  10.390 -0.0643  0.0267  0.2344
16714PP      PP26818  12.437  10.819   5.154 -0.0633 -0.3324 -0.3633
16715PP      PP26819   3.447   6.968  12.925  0.2472  0.0219  0.1622
16716PP      PP26820  14.098   8.813   2.000 -0.1272 -0.0731 -0.0159
16717PP      PP26821   2.716   1.409  12.055  0.0224 -0.0860 -0.0635
16718PP      PP26822   7.151  15.467   9.147 -0.1538  0.2097 -0.4590
16719PP      PP26823   8.088   8.391  11.261  0.0950 -0.0326 -0.0187
16720PP      PP26824   8.240   6.559   3.550 -0.1333  0.1743  0.1446
16721PP      PP26825   8.549   0.314  12.869  0.1046  0.0438  0.1704
16722PP      PP26826   6.534   0.162   1.599 -0.1292  0.0643  0.0684
16723PP      PP26827   1.988  15.514   1.305 -0.0581  0.1986 -0.3284
16724PP      PP26828  12.479   5.569   9.661 -0.2368 -0.1035  0.0072
16725PP      PP26829   3.980  14.443   0.908 -0.0864 -0.2382 -0.2090
16726PP      PP26830   8.117   2.400  10.347  0.2156  0.0313  0.3316
16727PP      PP26831   6.785  15.591  12.118 -0.1291 -0.0616 -0.0004
16728PP      PP26832   1.179   6.588   1.998  0.3265  0.0815 -0.0655
16729PP      PP26833  14.956   8.075   3.728  0.1660  0.0925  0.0739
16730PP      PP26834   1.908   1.353   9.540 -0.1584 -0.3791  0.0006
16731PP      PP26835   1.649   4.496   4.766  0.3278 -0.1675 -0.0077
16732PP      PP26836   5.523   1.146  12.601  0.2168  0.1684 -0.1946
16733PP      PP26837  13.399   0.783   2.504 -0.1755 -0.1310  0.2025
16734PP      PP26838   5.322   9.660  13.427  0.5546  0.2553  0.3028
16735PP      PP26839   7.560   6.961   1.339  0.2623 -0.2696  0.5965
16736PP      PP26840   0.632  14.060   1.391 -0.3167  0.0266 -0.2136
16737PP      PP26841  14.487   8.030   2.089 -0.1266  0.0609 -0.1550
16738PP      PP26842  15.582  12.881   2.990 -0.0813  0.1941 -0.0125
16739PP      PP26843   4.544   7.768   3.416  0.1902 -0.2119 -0.1541
16740PP      PP26844   1.832   8.677  11.947  0.0381  0.1356 -0.0088
16741PP      PP26845   8.275  11.715  13.062  0.1502 -0.2819 -0.3804
16742PP      PP26846  13.530  13.056  10.875  0.0696  0.1120  0.0236
16743PP      PP26847  13.722   2.453  11.975 -0.3620 -0.0658  0.1584
16744PP      PP26848   9.485   3.572  12.107 -0.0293  0.1071  0.1936
16745PP      PP26849  11.137   2.162   8.537  0.3522 -0.0291 -0.0824
16746PP      PP26850   3.795   0.372  10.736 -0.0529 -0.0564 -0.1952
16747PP      PP26851  10.130   2.502  11.016  0.0546 -0.1977 -0.0808
16748PP      PP26852   1.970   5.453   1.789 -0.1019  0.1816 -0.2756
16749PP      PP26853   0.084  10.472   0.580 -0.1685  0.0721  0.2365
16750PP      PP26854  14.955   0.733   2.772  0.1763  0.0928  0.1997
16751PP      PP26855  11.192   8.514   5.399 -0.3935  0.1857  0.1893
16752PP      PP26856   1.498  12.246   1.547 -0.1694  0.1550 -0.0142
16753PP      PP26857   9.976  13.652  10.667  0.1554  0.3679 -0.1598
16754PP      PP26858   8.845   0.424   2.162  0.0139  0.1395 -0.0293
16755PP      PP26859   4.555   1.554   2.187 -0.1655  0.0822  0.2436
16756PP      PP26860   3.854   0.422   8.855 -0.1509  0.0417 -0.2558
16757PP      PP26861   6.647   2.536  11.151  0.0700 -0.1078 -0.1291
16758PP      PP26862  11.459  12.499  12.694  0.1377 -0.0510 -0.0647
16759PP      PP26863  10.028  10.974   9.329  0.0030 -0.0544  0.0127
16760PP      PP26864   3.968   9.411  12.791 -0.0672  0.1964 -0.0836
16761PP      PP26865   6.574   8.771   2.764  0.1115 -0.0106  0.0743
16762PP      PP26866   2.126  14.715   2.233  0.2064 -0.0338  0.3158
16763PP      PP26867   1.435   9.979   4.153  0.1499  0.0649  0.2005
16764PP      PP26868   2.588   8.379  10.799  0.1302  0.2044  0.2367
16765PP      PP26869   9.187   0.147   2.778 -0.0835 -0.2401 -0.1049
16766PP      PP26870  15.371   2.880   3.264  0.0733 -0.3361 -0.0824
16767PP      PP26871   6.852  14.390  13.497 -0.3009 -0.3332 -0.0260
16768PP      PP26872  10.370  12.509   9.941  0.3785  0.0327 -0.0250
16769PP      PP26873  15.590  13.816  13.438 -0.0249  0.0894  0.1614
16770PP      PP26874   5.832   4.159   1.533 -0.1435 -0.1989 -0.2410
16771PP      PP26875   9.304   2.222  11.772  0.1171 -0.2965 -0.2465
16772PP      PP26876   9.807   8.957  11.820 -0.0470  0.1081 -0.1901
16773PP      PP26877   5.274  14.639   1.089  0.2635 -0.2737 -0.1552
16774PP      PP26878  15.313   8.104  12.408  0.4084 -0.1447  0.2149
16775PP      PP26879   0.634   7.869  10.944  0.0141  0.4582 -0.1390
16776PP      PP26880  10.892   7.933  13.502 -0.2453 -0.1141  0.0774
16777PP      PP26881   5.554   7.212   1.160 -0.0983  0.2114 -0.0786
16778PP      PP26882  15.509   0.767   2.115  0.1637  0.2145  0.0192
16779PP      PP26883  11.982   8.622   5.486  0.0741 -0.0994 -0.1161
16780PP      PP26884   9.676   8.870  13.299  0.0239 -0.1672  0.0238
16781PP      PP26885   3.472  11.369   2.402 -0.1154 -0.3269  0.0265
16782PP      PP26886  13.033   1.016   1.088 -0.1472 -0.0256 -0.2285
16783PP      PP26887   2.513   8.475   0.526 -0.0143 -0.2034  0.2070
16784PP      PP26888  11.834   5.646   3.024 -0.2514 -0.0204  0.2537
16785PP      PP26889   2.291   8.544  12.304 -0.2326 -0.0555  0.0385
16786PP      PP26890   4.859  11.538   9.909  0.2702  0.4605  0.0057
16787PP      PP26891   0.257   8.909  12.649 -0.3401 -0.1683  0.3156
16788PP      PP26892   7.989  13.277   1.418  0.0965 -0.2078  0.0610
16789PP      PP26893   3.770   0.016   8.534 -0.1178  0.1322  0.0901
16790PP      PP26894   4.299   8.307   0.645 -0.3686 -0.1778 -0.0744
16791PP      PP26895   6.134   0.446  10.830  0.0756 -0.2037  0.3493
16792PP      PP26896  15.727   4.473   9.892 -0.1276  0.1855  0.2601
16793PP      PP26897  10.054  13.589   8.668 -0.1242  0.1455 -0.0744
16794PP      PP26898   2.387  11.774  11.509  0.1189 -0.1202 -0.1648
16795PP      PP26899  14.262   5.420  10.531 -0.2158 -0.0526  0.3385
16796PP      PP26900  14.385   4.116   3.200  0.4975 -0.2163  0.1426
16797PP      PP26901  12.490  12.064   2.604  0.2994 -0.0513 -0.1555
16798PP      PP26902  14.214   9.355   1.697  0.5929 -0.1574  0.2033
16799PP      PP26903   2.329   6.781  12.198 -0.0047  0.0154  0.2983
16800PP      PP26904   5.754   4.464  12.416 -0.2361 -0.0383 -0.2516
16801PP      PP26905  14.542  14.392   0.963 -0.3525  0.0827  0.1164
16802PP      PP26906   8.782  15.771  10.094 -0.4140 -0.2715  0.1746
16803PP      PP26907  11.772   5.121   1.110 -0.2419  0.0204 -0.2469
16804PP      PP26908   6.193   5.054  12.683 -0.0920  0.0794  0.3756
16805PP      PP26909  12.669  10.453   5.374  0.0140 -0.0566  0.1966
16806PP      PP26910   4.777   2.422  11.103  0.1669  0.0158 -0.2006
16807PP      PP26911   4.148   8.977   1.880  0.0561  0.0890  0.5399
16808PP      PP26912   4.290  13.993   0.706 -0.1210 -0.1870 -0.0058
16809PP      PP26913  13.732   2.110   9.494 -0.1866 -0.2651 -0.2899
16810PP      PP26914  15.621   1.057   0.774  0.2156  0.0037  0.0347
16811PP      PP26915   9.584   3.000  11.106  0.1946 -0.1868  0.1089
16812PP      PP26916  14.435   0.410   9.961  0.1600 -0.3593  0.2937
16813PP      PP26917   8.734   9.740   1.159  0.2769  0.3359 -0.0631
16814PP      PP26918   5.600  11.151   3.514 -0.0873 -0.1157  0.0317
16815PP      PP26919  12.059   2.324   1.253  0.1084 -0.0284 -0.1630
16816PP      PP26920   6.626   4.687   0.415  0.0730 -0.2669  0.0083
16817PP      PP26921   9.313   1.193  10.247 -0.0615 -0.0291 -0.1107
16818PP      PP26922  12.500   8.712   5.568 -0.1589 -0.0113  0.2074
16819PP      PP26923  11.801  10.588   0.912  0.0766 -0.2043 -0.2027
16820PP      PP26924   1.277   2.722   9.898  0.1622 -0.2093  0.0050
16821PP      PP26925  13.125  11.144  10.517  0.1061  0.1476 -0.4763
16822PP      PP26926   6.657   4.210   0.604  0.1120 -0.1730  0.0822
16823PP      PP26927   4.099   0.202   8.108  0.2775  0.3883  0.0451
16824PP      PP26928   2.148  11.998   9.898  0.2994  0.1927 -0.0273
16825PP      PP26929  14.286  15.730   2.274  0.0155  0.2642 -0.1452
16826PP      PP26930   3.867  14.054   2.177 -0.0960  0.2645 -0.1570
16827PP      PP26931   2.503  11.998   3.311 -0.0022  0.1203 -0.4316
16828PP      PP26932  12.189   4.782   9.958  0.2178  0.1400 -0.2189
16829PP      PP26933   7.996  10.132   4.130  0.1445 -0.1280 -0.0062
16830PP      PP26934   6.391   4.834   2.574 -0.0046 -0.3169  0.1273
16831PP      PP26935  15.088  13.888   4.474  0.0601 -0.2473 -0.3538
16832PP      PP26936   9.842   9.023   3.697  0.0218 -0.0619  0.0181
16833PP      PP26937   4.942   6.136   3.038 -0.0546  0.0655  0.0986
16834PP      PP26938  10.023   7.188  11.445  0.0726 -0.1624 -0.2436
16835PP      PP26939  14.887  13.526   0.018 -0.0626 -0.0410 -0.2588
16836PP      PP26940   4.223   9.322  12.074  0.0030  0.2084 -0.0526
16837PP      PP26941   5.000  11.148   4.363 -0.3759 -0.1486 -0.0101
16838PP      PP26942  15.695  14.187   3.375 -0.1141 -0.1361  0.0273
16839PP      PP26943   8.092   4.423  10.288  0.1781 -0.2131  0.1535
16840PP      PP26944   4.237   9.989   0.790  0.1214 -0.0085  0.3089
16841PP      PP26945  15.709  13.394  10.105 -0.3115  0.2826  0.1021
16842PP      PP26946   3.107   9.657  13.058  0.1941  0.0160  0.2132
16843PP      PP26947   8.619   5.279   9.016  0.3478  0.0484 -0.0355
16844PP      PP26948   4.238   1.870   9.885  0.1336 -0.1109 -0.1102
16845PP      PP26949   6.449   5.907  12.260  0.0425  0.0279 -0.2240
16846PP      PP26950   4.945   1.115   3.594 -0.1895 -0.1903  0.5110
16847PP      PP26951  10.863   8.459  10.237 -0.1763 -0.3808 -0.0468
16848PP      PP26952   9.438   9.215   4.625 -0.0801 -0.0405 -0.3473
16849PP      PP26953   1.942   4.698   3.102 -0.0507  0.1187  0.4142
16850PP      PP26954   4.020   9.499   1.965  0.0345 -0.3256 -0.1084
16851PP      PP26955   8.013   6.020   4.144  0.1161 -0.0341  0.0565
16852PP      PP26956  11.432   9.916   4.835 -0.0922 -0.0089 -0.2489
16853PP      PP26957   8.178   0.045   0.059  0.1393 -0.3167 -0.1347
16854PP      PP26958  11.462  14.185  13.144  0.1420  0.0518  0.1858
16855PP      PP26959   5.676  11.117   8.675 -0.5395 -0.0569 -0.2184
16856PP      PP26960  13.979  15.380  11.096 -0.1904 -0.1599  0.2696
16857PP      PP26961   5.778  15.105  13.369 -0.0154 -0.1625  0.2697
16858PP      PP26962   9.711  11.194   3.471 -0.0801  0.1639 -0.0022
16859PP      PP26963   8.917  11.667   2.651 -0.1015  0.1228  0.2140
16860PP      PP26964  11.543   5.222   2.217 -0.0227 -0.0618  0.0779
16861PP      PP26965   2.639   6.971  11.216 -0.1314 -0.0235 -0.0702
16862PP      PP26966  12.282   5.117   3.506  0.0700  0.1083  0.3493
16863PP      PP26967   3.156   1.379  12.245  0.2284  0.1075  0.1040
16864PP      PP26968  15.076   8.595   3.489  0.1002  0.0441  0.2509
16865PP      PP26969   1.346   4.954  12.505  0.0683 -0.1121 -0.2840
16866PP      PP26970   4.037  15.614   9.927 -0.0293 -0.1011 -0.2752
16867PP      PP26971   8.589  15.349  11.339 -0.0632 -0.0133  0.0787
16868PP      PP26972   1.438  11.937  11.109  0.0917  0.0222  0.0150
16869PP      PP26973  14.432  13.618   9.870  0.4231  0.0162 -0.1198
16870PP      PP26974   0.622   9.000   1.354  0.1848 -0.2116  0.0473
16871PP      PP26975   9.300   9.228   1.438 -0.3001 -0.0690  0.0339
16872PP      PP26976   3.112  12.502  10.203  0.0691 -0.0672  0.4224
16873PP      PP26977   0.784   8.853   2.912  0.0246 -0.2118  0.0526
16874PP      PP26978  15.259   6.962   4.884  0.1589  0.2599 -0.3012
16875PP      PP26979   6.404  11.466   1.130  0.1813 -0.0583 -0.1829
16876PP      PP26980   6.408   3.259  11.972 -0.0539 -0.0743 -0.0405
16877PP      PP26981  12.085  10.209   1.309 -0.1654 -0.0298  0.2773
16878PP      PP26982  13.377   1.471  10.009 -0.0354  0.1978 -0.0700
16879PP      PP26983   4.656   7.279   3.426 -0.1142 -0.1566 -0.1935
16880PP      PP26984  10.784  12.490  12.171 -0.2114  0.2621  0.1001
16881PP      PP26985  10.712   4.338   0.040 -0.2199  0.0216  0.2277
16882PP      PP26986  13.519   7.794   0.398 -0.0530 -0.1718 -0.3051
16883PP      PP26987  15.659  13.321   3.282  0.3707 -0.0496 -0.0812
16884PP      PP26988   2.839  13.162  11.006  0.0808 -0.1550 -0.1524
16885PP      PP26989  14.825  12.106   1.992  0.1467 -0.2332 -0.0884
16886PP      PP26990  11.721   5.691   4.016  0.0980  0.3926 -0.1352
16887PP      PP26991   3.135   5.129  12.314  0.2910 -0.0333  0.1038
16888PP      PP26992  12.808  12.470  13.276 -0.0090 -0.1694  0.1589
16889PP      PP26993   4.357   0.391   1.505  0.0286 -0.0114 -0.0156
16890PP      PP26994  10.135   6.846  12.739 -0.3115  0.1292 -0.1415
16891PP      PP26995  13.869   1.732   2.171  0.1826 -0.1694 -0.5037
16892PP      PP26996   8.321   2.791   9.860 -0.1589 -0.1185 -0.2532
16893PP      PP26997   0.017   5.526  10.750 -0.0381 -0.0282  0.0181
16894PP      PP26998   3.710   1.514   0.451  0.1793 -0.0228  0.3589
16895PP      PP26999   8.518  11.165  10.987 -0.0229 -0.2549  0.3595
16896PP      PP27000   5.347   7.398   1.827 -0.0668 -0.1168  0.0573
16897PP      PP27001   7.603   4.398   8.794 -0.1019 -0.1120 -0.1100
16898PP      PP27002  13.580   2.075  10.679 -0.0235 -0.3741 -0.0722
16899PP      PP27003   2.907   0.106   8.475 -0.0392 -0.1693 -0.0372
16900PP      PP27004   7.164  10.942   3.840  0.0227  0.1084  0.1095
16901PP      PP27005   2.518   4.269   1.328 -0.1962 -0.0796 -0.0400
16902PP      PP27006   8.459  11.517  11.326  0.0888 -0.0775  0.0107
16903PP      PP27007   7.973  13.539  13.195  0.0594  0.0357 -0.0099
16904PP      PP27008  11.920   7.946   9.649  0.0922 -0.0647  0.0991
16905PP      PP27009   9.253  13.016   9.271 -0.3778 -0.0701  0.0817
16906PP      PP27010   8.293   3.119  10.398  0.0059 -0.3246  0.4365
16907PP      PP27011  13.189   4.616   4.540 -0.1186 -0.0460  0.1487
16908PP      PP27012  10.664   9.787   4.280 -0.2837 -0.0312 -0.1174
16909PP      PP27013   7.983  14.004   2.124 -0.1033 -0.0857 -0.1288
16910PP      PP27014   2.544  15.034   0.928 -0.2059  0.0281 -0.0338
16911PP      PP27015   5.087  14.349  10.345 -0.2450 -0.3118  0.1441
16912PP      PP27016  11.948  10.746   4.409  0.1310 -0.2586 -0.0458
16913PP      PP27017   6.042  12.883  12.138 -0.0647  0.2927  0.0579
16914PP      PP27018  11.533   1.915   3.608 -0.4221 -0.0736  0.1209
16915PP      PP27019  13.195   8.540   9.459 -0.2968  0.0974  0.2166
16916PP      PP27020  14.525   5.387   1.288  0.0571  0.0227  0.2476
16917PP      PP27021   4.690   1.083   7.930 -0.0688  0.0378 -0.2018
16918PP      PP27022   6.982   0.181  10.823 -0.1943 -0.0279 -0.0193
16919PP      PP27023   1.248   7.470   0.535  0.0960 -0.0233 -0.0222
16920PP      PP27024   3.255   0.709  10.530  0.0649  0.2685  0.2220
16921PP      PP27025  11.764   4.971   9.692  0.3623 -0.0492  0.0556
16922PP      PP27026   3.122   7.122   2.358 -0.2346 -0.0033  0.1659
16923PP      PP27027  14.845   5.329   2.882  0.3051 -0.1264  0.0895
16924PP      PP27028   7.960  10.861  13.197  0.0905  0.2164  0.0895
16925PP      PP27029   7.484  12.102  12.387  0.1159 -0.0009  0.0163
16926PP      PP27030   2.790   5.367   3.095  0.1598  0.2361  0.1855
16927PP      PP27031   1.523   5.552   5.610  0.1626  0.1672 -0.2132
16928PP      PP27032  13.066   6.087   5.183 -0.2377 -0.3278 -0.0731
16929PP      PP27033   2.037   9.336   0.040  0.2117  0.3231 -0.0273
16930PP      PP27034   5.116   4.977   2.393  0.0664 -0.2752  0.0862
16931PP      PP27035  11.210  10.490  10.933 -0.0771 -0.0685  0.2160
16932PP      PP27036  14.888   7.728   0.657  0.0667 -0.1084  0.0946
16933PP      PP27037   1.039   2.053   2.054  0.1394 -0.2487  0.0896
16934PP      PP27038   1.276   8.836  10.971 -0.0113 -0.0246  0.3571
16935PP      PP27039  13.176  15.375  12.794 -0.0299  0.0320  0.2390
16936PP      PP27040   2.716   6.052   1.291 -0.2695  0.0441 -0.0112
16937PP      PP27041   6.168   3.172   3.018  0.1069  0.4494  0.0612
16938PP      PP27042   3.252   0.971   2.663  0.0342 -0.2812 -0.0011
16939PP      PP27043  12.070  11.065   2.499 -0.0997 -0.1633 -0.0908
16940PP      PP27044   7.434  11.957   9.560 -0.0192 -0.1334 -0.0441
16941PP      PP27045  15.775  13.064   1.782  0.0567 -0.3879 -0.2185
16942PP      PP27046   6.980   8.222   4.124  0.1369 -0.2977 -0.2143
16943PP      PP27047   4.369   4.978  12.579 -0.2492 -0.2582 -0.0532
16944PP      PP27048   2.540  12.058   2.652 -0.0991  0.0898 -0.0332
16945PP      PP27049   4.433   2.246  11.719  0.0559 -0.0053  0.2612
16946PP      PP27050   2.273  15.125   1.448 -0.1368  0.0110  0.0640
16947PP      PP27051   9.815   6.525   3.073 -0.0005  0.0178 -0.2129
16948PP      PP27052   3.256   2.510   2.105 -0.0950  0.0004  0.0040
16949PP      PP27053   9.680   8.863   4.271  0.2074 -0.3167 -0.1402
16950PP      PP27054  12.465   9.961  11.446  0.2890 -0.1572 -0.1045
16951PP      PP27055   4.889   2.619   4.056  0.0136 -0.2138  0.4531
16952PP      PP27056  11.705  10.540   0.414 -0.0892  0.1666 -0.0457
16953PP      PP27057   9.244   4.401   9.107  0.2399 -0.2008 -0.1170
16954PP      PP27058  11.318   4.715   0.064  0.3714  0.0735  0.1488
16955PP      PP27059   6.684   8.820   9.823 -0.0793  0.0693 -0.1978
16956PP      PP27060  14.636   5.813  10.581  0.0995 -0.0781 -0.1775
16957PP      PP27061  11.885   2.153  11.610 -0.0020  0.0332 -0.0610
16958PP      PP27062   6.078   5.337  11.595  0.0458  0.2042 -0.1537
16959PP      PP27063  15.673   5.901  12.304  0.0011 -0.1113 -0.1017
16960PP      PP27064   9.756  13.891  11.701 -0.0994  0.1923 -0.0954
16961PP      PP27065   8.085   7.424   4.107 -0.1474 -0.3556  0.1155
16962PP      PP27066   5.416   1.854  10.196  0.1640 -0.0105 -0.0315
16963PP      PP27067   4.540   0.051  12.759 -0.0382 -0.1200 -0.3693
16964PP      PP27068   5.611   5.351   3.268 -0.0445 -0.0855  0.0813
16965PP      PP27069  10.986  13.250  10.801  0.1395 -0.1376 -0.1635
16966PP      PP27070   4.210   3.469   0.452  0.2670  0.1295  0.1250
16967PP      PP27071  13.957   5.344   1.923 -0.3122  0.0112 -0.0234
16968PP      PP27072   8.912   7.993  12.836 -0.1777 -0.3605 -0.0567
16969PP      PP27073   9.941   1.607   2.270  0.0026 -0.2618 -0.2335
16970PP      PP27074   8.933  10.890   1.506 -0.1688 -0.0299 -0.1961
16971PP      PP27075  13.874   1.307   2.650 -0.3528 -0.0223  0.2849
16972PP      PP27076   2.658   2.574  12.967  0.0773 -0.0523 -0.1521
16973PP      PP27077   6.490  11.937   4.173 -0.0493  0.1580  0.3970
16974PP      PP27078   2.080   8.489   9.805  0.1430  0.2392  0.0908
16975PP      PP27079  14.736  12.214  12.243 -0.0821 -0.0423 -0.0324
16976PP      PP27080   9.368   3.283   0.656 -0.0153 -0.0797  0.0089
16977PP      PP27081   5.239  11.116  12.880  0.2172  0.1568  0.2530
16978PP      PP27082  10.625   8.230   3.281 -0.0660  0.1619  0.2233
16979PP      PP27083   4.405  12.072   0.026 -0.0648  0.4566  0.1658
16980PP      PP27084  12.966   0.709   0.292  0.0517 -0.0832  0.1088
16981PP      PP27085   3.107   4.149  10.054 -0.1289  0.4583  0.0180
16982PP      PP27086   0.865   1.053   2.378  0.4082 -0.0537 -0.1899
16983PP      PP27087   6.813   2.601   0.382 -0.1633  0.0438  0.3837
16984PP      PP27088   4.043  15.156   2.680 -0.1135 -0.0200 -0.3655
16985PP      PP27089  13.340   4.578   3.296  0.0732 -0.2516 -0.2073
16986PP      PP27090   0.275  15.051   1.262 -0.0479  0.0074  0.2680
16987PP      PP27091  12.746   2.167  13.428 -0.1283  0.0037  0.0773
16988PP      PP27092   6.149   5.668   9.397  0.0943  0.0735  0.2870
16989PP      PP27093   6.144   3.689  13.210 -0.0784 -0.1914  0.1307
16990PP      PP27094   1.582  11.121  10.957  0.1666  0.0829 -0.0585
16991PP      PP27095  12.283   7.587  12.156  0.4093 -0.1001 -0.0216
16992PP      PP27096   7.645  15.397   0.345 -0.0299  0.1757  0.0846
16993PP      PP27097  12.061  12.428  10.849  0.1685  0.1731 -0.1707
16994PP      PP27098   2.287   6.310  13.343 -0.0561  0.3644  0.1309
16995PP      PP27099   7.516   3.964   9.381 -0.0526 -0.1044  0.0520
16996PP      PP27100   0.255   9.066   3.083  0.1295 -0.2527 -0.0729
16997PP      PP27101   4.561  11.258  11.184 -0.1225 -0.2798 -0.0751
16998PP      PP27102  11.668   6.711   0.330  0.1358  0.0334 -0.0223
16999PP      PP27103  15.633   8.745  12.543  0.0345  0.1733  0.0224
17000PP      PP27104  14.906   8.802   2.266  0.2587  0.1538  0.0021
17001PP      PP27105   7.494  14.962  11.536 -0.0909 -0.1794 -0.2866
17002PP      PP27106   5.587   3.589  10.996 -0.0425 -0.2552 -0.2255
17003PP      PP27107   5.233  13.148  12.378 -0.0790 -0.1461  0.1500
17004PP      PP27108   0.678  11.756  11.959  0.2841 -0.0462  0.1190
17005PP      PP27109   2.024   7.311  12.089 -0.0663 -0.1516 -0.1138
17006PP      PP27110  10.634  15.775   3.759  0.2280  0.0355 -0.0117
17007PP      PP27111   6.003  14.226  12.454 -0.3785 -0.0895  0.2479
17008PP      PP27112  13.131   7.283  12.313 -0.2408 -0.1518  0.2956
17009PP      PP27113   5.776  13.156   0.300  0.4273 -0.1364  0.1421
17010PP      PP27114   7.707   6.309  10.344 -0.1515 -0.3737  0.0701
17011PP      PP27115   7.779  14.845   3.493  0.1315 -0.0803  0.2608
17012PP      PP27116   5.096   2.819  10.960 -0.1915 -0.1838 -0.0511
17013PP      PP27117   1.067   7.636   0.959 -0.0853  0.0830 -0.2004
17014PP      PP27118   4.430   0.704   1.955  0.0885 -0.1937  0.1334
17015PP      PP27119   1.469   5.456   0.277 -0.0325  0.0485 -0.0525
17016PP      PP27120   9.205  15.018   1.402  0.1576  0.1682  0.0562
17017PP      PP27121   8.309   2.068   2.147  0.2710  0.1679  0.2305
17018PP      PP27122   2.398  11.234   0.121  0.0569  0.0073  0.0633
17019PP      PP27123  14.715   5.860  12.348 -0.2306  0.0629  0.0646
17020PP      PP27124   0.186   6.252   3.499 -0.2815 -0.3714  0.3350
17021PP      PP27125   1.179  10.267  12.318 -0.1172 -0.0382  0.1134
17022PP      PP27126   9.387  13.940  10.184  0.3070  0.0511  0.0628
17023PP      PP27127  12.880   1.240   3.683 -0.0358 -0.0726 -0.2187
17024PP      PP27128  10.535   7.732   0.297  0.0479 -0.1663 -0.0058
17025PP      PP27129   7.087   3.612   1.325  0.0657 -0.0778 -0.2454
17026PP      PP27130   2.719   2.561   0.668 -0.1967  0.0463 -0.0730
17027PP      PP27131   2.668   0.680  11.233 -0.0931  0.0291  0.0498
17028PP      PP27132  11.268  11.373  10.389  0.2011 -0.0053  0.3118
17029PP      PP27133   2.892  11.096   0.005  0.0874 -0.0771 -0.0208
17030PP      PP27134  13.028   3.578  10.465 -0.0546 -0.0238  0.0722
17031PP      PP27135   4.512   3.044  11.055  0.1065  0.2332 -0.0856
17032PP      PP27136   6.371  10.232   1.348  0.0043  0.1431  0.1040
17033PP      PP27137  12.847  11.598  10.534  0.0956 -0.0478  0.1376
17034PP      PP27138   0.456   9.550  13.386  0.0469 -0.2946 -0.2707
17035PP      PP27139   1.555  10.906  11.582  0.2433 -0.1546 -0.0632
17036PP      PP27140   3.116   9.774  12.138 -0.2760 -0.0135  0.0859
17037PP      PP27141   3.085   6.034  10.622 -0.0452 -0.0227 -0.0586
17038PP      PP27142  12.388   7.074   2.134 -0.0645  0.1165 -0.2004
17039PP      PP27143   1.045   7.210   4.175 -0.2635 -0.2436  0.2645
17040PP      PP27144   2.077   3.697  13.439 -0.0494  0.1975  0.4538
17041PP      PP27145  12.125  11.646  12.182 -0.0556 -0.1953  0.0111
17042PP      PP27146  10.158  12.953   0.245 -0.4050  0.3143 -0.3202
17043PP      PP27147   4.785   9.611   3.324 -0.1085 -0.0104 -0.1757
17044PP      PP27148   0.953  13.778  10.234 -0.0012 -0.4583 -0.1039
17045PP      PP27149   4.489  10.303   0.550 -0.1136 -0.0168 -0.2111
17046PP      PP27150   8.476   2.394  12.887  0.3623  0.1127  0.0171
17047PP      PP27151   5.471  11.636  12.730  0.0395  0.1869 -0.2534
17048PP      PP27152   0.954   1.913   3.816  0.0378 -0.1519  0.1274
17049PP      PP27153  10.840   3.843  12.352 -0.1860 -0.0629  0.1224
17050PP      PP27154  14.551   6.062   4.177 -0.1845  0.1438 -0.0948
17051PP      PP27155   0.623   6.324   4.847 -0.0349  0.1876 -0.1416
17052PP      PP27156   2.830   2.383  13.406 -0.1125 -0.0382 -0.1386
17053PP      PP27157  14.046   2.921   9.023  0.1472 -0.3115 -0.2515
17054PP      PP27158  12.388  14.748   1.563  0.1517 -0.0175 -0.3034
17055PP      PP27159   3.441  13.946   1.468  0.0076 -0.1067 -0.1057
17056PP      PP27160   9.907  14.773  13.132  0.3775 -0.0066 -0.2239
17057PP      PP27161  14.940   4.891   2.623  0.1865  0.2839  0.0891
17058PP      PP27162  10.165  15.359  11.857  0.0308 -0.0728 -0.1613
17059PP      PP27163   2.231   7.106   3.339  0.1969  0.1054  0.1364
17060PP      PP27164   5.863  13.434   1.362 -0.2720  0.1962  0.2021
17061PP      PP27165   7.297   5.203   4.315  0.0527  0.0220 -0.0238
17062PP      PP27166  13.675   9.750   5.188  0.0518  0.1065  0.1163
17063PP      PP27167  13.679  12.938   9.623  0.1239 -0.3301 -0.2616
17064PP      PP27168   1.827  13.918  12.535  0.0831  0.0917 -0.0810
17065PP      PP27169  10.502  10.991  13.299 -0.0187  0.2284 -0.0971
17066PP      PP27170   6.006   0.985  10.913  0.0272  0.1255  0.1542
17067PP      PP27171  10.159   3.066  13.486  0.2009  0.2196 -0.1099
17068PP      PP27172   2.816  14.873  10.150  0.1868  0.0267  0.5204
17069PP      PP27173   9.711   0.724   0.052  0.1784 -0.0648 -0.0167
17070PP      PP27174  13.921  13.300   0.719  0.1635 -0.0717 -0.1306
17071PP      PP27175  10.512   8.944   4.893 -0.0141 -0.2331  0.1587
17072PP      PP27176  12.396  13.580   1.136  0.2263  0.2021  0.0857
17073PP      PP27177   0.251   8.145   2.553 -0.0034  0.2924  0.2285
17074PP      PP27178  13.218  13.836   3.549  0.0282 -0.0059 -0.2384
17075PP      PP27179   3.623  12.151   4.562  0.1322  0.1561  0.1902
17076PP      PP27180  12.652  10.037   9.637 -0.1874 -0.0753 -0.0527
17077PP      PP27181   2.796  13.357   9.371  0.0527  0.5122  0.1628
17078PP      PP27182   3.486   0.145   2.376 -0.2375  0.1729 -0.0734
17079PP      PP27183  11.149   2.868  12.054  0.0719 -0.1447  0.1061
17080PP      PP27184   5.004   8.780  11.957 -0.2384 -0.1319 -0.2084
17081PP      PP27185   0.837   4.756   9.735  0.1064 -0.0120  0.1234
17082PP      PP27186   8.179   5.164  13.359  0.0101  0.0004 -0.0838
17083PP      PP27187  15.724   2.502  13.066 -0.1431 -0.1208  0.0913
17084PP      PP27188   0.108   3.798   4.042  0.1063 -0.2632 -0.0874
17085PP      PP27189   3.030  13.655   3.492 -0.2290  0.0621 -0.0183
17086PP      PP27190   0.392   5.764   3.446  0.1362  0.1103 -0.0646
17087PP      PP27191   3.769   7.378   4.015  0.0336  0.1594  0.1448
17088PP      PP27192   6.245   6.278  11.496 -0.0898 -0.0796 -0.1323
17089PP      PP27193   4.334  13.269  11.171  0.2064  0.0099  0.0716
17090PP      PP27194   8.593  10.159  11.344 -0.1464  0.2297  0.0149
17091PP      PP27195  11.006   5.511   0.651  0.0924 -0.1993  0.0893
17092PP      PP27196  13.427   4.993   0.847  0.1237 -0.0750 -0.0608
17093PP      PP27197   1.455  14.647   3.692  0.0340  0.1696  0.2843
17094PP      PP27198  10.309   2.255   0.806  0.2742  0.1808 -0.0799
17095PP      PP27199   4.149  14.895   3.277 -0.1580 -0.0480 -0.2017
17096PP      PP27200   2.430   8.694   3.560 -0.2893  0.2135  0.2117
17097PP      PP27201  11.481  14.241   2.384  0.1929  0.1768  0.0220
17098PP      PP27202   9.959   5.478   9.822  0.0181  0.2492 -0.1778
17099PP      PP27203  14.611  12.241  10.765  0.1573  0.2241  0.0864
17100PP      PP27204  13.649  12.465   3.651  0.1707 -0.1206  0.2000
17101PP      PP27205   3.227   8.094   3.820 -0.0455  0.0741  0.4206
17102PP      PP27206   9.114  13.834   9.062 -0.0707  0.2692  0.0103
17103PP      PP27207  12.139   3.060   8.978  0.0566 -0.0535  0.1874
17104PP      PP27208   0.225   1.549   0.110 -0.0911 -0.0457 -0.0049
17105PP      PP27209  11.947   6.105  12.516  0.1132 -0.2013 -0.1100
17106PP      PP27210   8.052   6.019   2.238  0.0212  0.1151  0.1486
17107PP      PP27211  12.691   9.686  12.412 -0.3437 -0.1908  0.0044
17108PP      PP27212   0.125   3.435  13.320 -0.3509  0.2029  0.3130
17109PP      PP27213   4.588  12.812  11.292  0.0918 -0.2172  0.0633
17110PP      PP27214   4.224  10.035   3.865  0.0841  0.2298 -0.0995
17111PP      PP27215  10.714   1.865   1.760 -0.0469 -0.0355  0.3025
17112PP      PP27216   7.792   5.646   2.416 -0.1090 -0.1773 -0.3773
17113PP      PP27217  13.199   8.007   1.738  0.0589  0.0388 -0.1545
17114PP      PP27218   9.063   0.507   3.829  0.1915  0.1661 -0.0229
17115PP      PP27219   5.497  12.931   2.446 -0.1044  0.0901 -0.2232
17116PP      PP27220   2.439   9.909   1.691  0.2178  0.2542  0.0016
17117PP      PP27221   5.467  15.016   9.642 -0.1341  0.1260  0.1856
17118PP      PP27222  12.281   8.667   9.524 -0.0531 -0.1908  0.1361
17119PP      PP27223  12.377   5.708  10.133  0.2688  0.1715 -0.2494
17120PP      PP27224   4.622  10.143  10.552 -0.0359  0.0395 -0.1657
17121PP      PP27225   5.458   6.699   8.771  0.2282  0.1467 -0.1562
17122PP      PP27226   7.859  15.253  10.952  0.1000  0.0867 -0.2712
17123PP      PP27227  12.909   2.672  13.179 -0.0000 -0.1044 -0.1480
17124PP      PP27228  15.014  15.105   0.114  0.0098  0.0165  0.0399
17125PP      PP27229  14.696  12.948  12.882 -0.3065  0.3041 -0.0048
17126PP      PP27230   2.015   8.331   2.389 -0.1274  0.2507 -0.1278
17127PP      PP27231  14.456   3.267   3.036  0.5383 -0.1476 -0.2251
17128PP      PP27232   6.423  11.115   0.768  0.1774  0.0426 -0.2782
17129PP      PP27233   5.646   5.486   9.089  0.3220  0.0570  0.0900
17130PP      PP27234   3.080   4.970   2.921 -0.3121 -0.0642  0.1154
17131PP      PP27235  11.527   9.735  11.304 -0.0395 -0.0827 -0.1961
17132PP      PP27236   4.143  11.496  10.439 -0.1339 -0.0231  0.0363
17133PP      PP27237   9.129  10.464   1.718  0.2259 -0.0828 -0.2717
17134PP      PP27238   7.957  12.506   4.213  0.3440  0.0855  0.2897
17135PP      PP27239   1.184   4.966  10.615  0.3937 -0.1958 -0.2191
17136PP      PP27240  14.613  14.006  10.198  0.0840  0.1944 -0.1352
17137PP      PP27241   8.584   2.097   0.926  0.3980  0.0958  0.1460
17138PP      PP27242  15.486  12.741   9.002 -0.0712 -0.1539 -0.0286
17139PP      PP27243  13.134   0.303  12.133  0.0140  0.1110  0.0956
17140PP      PP27244   2.249   1.875  10.848  0.0348  0.0148 -0.1826
17141PP      PP27245   9.380   8.381  13.284 -0.0292 -0.1442 -0.1022
17142PP      PP27246   6.895  13.895   9.000 -0.1160  0.0324  0.0638
17143PP      PP27247   4.864  15.496  12.002  0.3669 -0.1774  0.0800
17144PP      PP27248  12.762  12.508  12.638 -0.2053  0.1092 -0.0230
17145PP      PP27249   1.808   2.791   3.472  0.0846  0.2066 -0.0649
17146PP      PP27250   4.552   0.366  10.015  0.5014  0.3768 -0.1169
17147PP      PP27251   4.046   8.702  12.163 -0.1240  0.0330  0.1652
17148PP      PP27252   6.823   3.371   9.257  0.3964 -0.0812 -0.0488
17149PP      PP27253   0.046  14.186  10.533 -0.2067  0.0591  0.2835
17150PP      PP27254  12.848   9.961   0.447 -0.1963 -0.2072  0.0319
17151PP      PP27255   9.479  10.537  11.845 -0.0465 -0.0122 -0.3058
17152PP      PP27256  15.235   0.120   8.893  0.0321  0.2770  0.0092
17153PP      PP27257   7.873   2.675   1.181  0.0122 -0.2851 -0.0116
17154PP      PP27258  13.429   3.101  11.056 -0.0981 -0.1722  0.1540
17155PP      PP27259   8.801  12.455  10.825  0.1151 -0.3513  0.4065
17156PP      PP27260  12.764  11.892   9.276  0.0647 -0.0343  0.0113
17157PP      PP27261  12.619   6.723  10.397 -0.0477 -0.2339 -0.0493
17158PP      PP27262   3.884   3.294   1.600 -0.1951  0.0061 -0.0759
17159PP      PP27263   7.579  15.422   8.481  0.0995 -0.2565  0.1227
17160PP      PP27264  13.326   7.669   5.180  0.4352 -0.1449  0.0984
17161PP      PP27265   5.027   6.054  12.986 -0.0581  0.0830  0.1470
17162PP      PP27266   0.117   1.210  10.827 -0.0620  0.0660 -0.0133
17163PP      PP27267   8.991   6.812   9.311 -0.2678  0.1286 -0.1786
17164PP      PP27268   3.031   9.966   2.014 -0.1180 -0.1942  0.0469
17165PP      PP27269   1.108   5.999  10.878 -0.0751 -0.1964  0.0828
17166PP      PP27270   8.510  15.637   3.753  0.4818 -0.1131 -0.1877
17167PP      PP27271   2.173   9.607   2.234  0.1194 -0.2781 -0.0930
17168PP      PP27272   1.187   5.815  12.490  0.1065 -0.1758  0.0365
17169PP      PP27273   9.002   0.839   2.651 -0.0847 -0.2144 -0.0946
17170PP      PP27274   1.342   6.993   0.361 -0.0427 -0.0531 -0.0848
17171PP      PP27275  11.066  12.139  10.180 -0.0500 -0.1177  0.2047
17172PP      PP27276  11.900   4.486   4.163  0.0455 -0.1243  0.3026
17173PP      PP27277   3.350   2.009   9.948  0.1210 -0.0490 -0.4700
17174PP      PP27278   0.079   1.047   2.035  0.3607  0.2598  0.0999
17175PP      PP27279   6.207  15.733   9.393 -0.2044  0.0005  0.2262
17176PP      PP27280   5.509   4.922   0.357  0.2148 -0.1232  0.0341
17177PP      PP27281  11.706  13.095   1.866 -0.4241 -0.0002  0.1424
17178PP      PP27282  11.205   6.876   1.635  0.1200  0.4707  0.2897
17179PP      PP27283   4.218  11.316   0.543 -0.0867  0.0889 -0.1141
17180PP      PP27284  11.499  10.372  12.948  0.2670 -0.1380 -0.1191
17181PP      PP27285  13.050   6.268  13.303 -0.0881 -0.0148  0.1296
17182PP      PP27286   1.024  13.724  13.134 -0.0738  0.2543  0.2012
17183PP      PP27287   7.290   6.544   9.364 -0.0846 -0.0711  0.1686
17184PP      PP27288   1.616   1.425   9.153  0.1195  0.0784  0.3551
17185PP      PP27289   1.740  14.281   1.661  0.0575 -0.0386  0.0136
17186PP      PP27290   9.407   3.232   2.181  0.1487  0.0110 -0.0247
17187PP      PP27291   6.354  10.875   1.899  0.0427  0.2743 -0.1424
17188PP      PP27292  11.989   9.591   2.903  0.2472 -0.2156 -0.1667
17189PP      PP27293   7.904   0.317  11.315 -0.1648 -0.0962 -0.1174
17190PP      PP27294   6.924  15.760   0.754 -0.1051  0.0329  0.2409
17191PP      PP27295   2.078   9.418  10.878 -0.0055  0.2315 -0.1279
17192PP      PP27296   9.790   4.169   2.166 -0.3510  0.1211 -0.2272
17193PP      PP27297   2.895   8.797   3.321  0.2119  0.0700  0.2236
17194PP      PP27298  12.736   8.368   1.868 -0.3064  0.0924 -0.2045
17195PP      PP27299   0.111  12.883   1.269  0.2254 -0.2222 -0.2445
17196PP      PP27300   2.147  11.610   0.340  0.2756 -0.0963 -0.1348
17197PP      PP27301   6.420  12.445   3.359  0.1754 -0.2230 -0.3774
17198PP      PP27302  10.187  13.115   1.450  0.3774 -0.1927  0.1509
17199PP      PP27303   7.103   5.566   2.654 -0.0950  0.1156  0.1279
17200PP      PP27304   6.362   6.886  11.826  0.0189  0.4179 -0.0965
17201PP      PP27305   0.924  14.467   1.613 -0.0254 -0.1659  0.2091
17202PP      PP27306  15.460   5.414  12.128 -0.1483 -0.0403 -0.1724
17203PP      PP27307   6.958   5.023   0.573  0.2569  0.2244 -0.1532
17204PP      PP27308   5.833  13.677   8.723 -0.1689 -0.4112 -0.2321
17205PP      PP27309  14.379  10.546  10.907  0.1034  0.2920  0.2531
17206PP      PP27310  15.316   4.243   3.395  0.1712  0.1449 -0.1676
17207PP      PP27311  12.409   0.090  13.266 -0.0651 -0.1361  0.0256
17208PP      PP27312   7.215   3.040   0.436 -0.2099 -0.0864  0.0302
17209PP      PP27313   7.115   2.313  10.091 -0.2217  0.1891  0.0036
17210PP      PP27314  12.592   7.074  11.230 -0.3655 -0.2304 -0.3658
17211PP      PP27315   2.206  11.711  11.033 -0.0964 -0.0965 -0.1458
17212PP      PP27316  13.532  15.492   3.922  0.2443  0.1914 -0.0688
17213PP      PP27317   4.200   1.330   3.800 -0.0209  0.0289 -0.1201
17214PP      PP27318   2.819  12.294  10.599 -0.0071  0.0569  0.2826
17215PP      PP27319  11.479   2.409   9.316 -0.0514 -0.1081  0.2482
17216PP      PP27320   6.716   2.579  12.764  0.2655 -0.0614  0.0927
17217PP      PP27321  15.087   2.119   2.931 -0.0255  0.0115 -0.2243
17218PP      PP27322   0.913  14.555  10.418 -0.3020  0.3988  0.3496
17219PP      PP27323   9.686  14.918   0.139 -0.0286  0.0920 -0.1078
17220PP      PP27324   9.788   5.682   3.853 -0.0001  0.0750  0.2507
17221PP      PP27325   9.622  10.661   9.303 -0.0089  0.0871 -0.1721
17222PP      PP27326  15.005   7.568  10.511 -0.1412  0.1494 -0.1452
17223PP      PP27327  13.128  12.832   9.067 -0.0347 -0.2147  0.0325
17224PP      PP27328   3.860   7.211   1.061 -0.0939 -0.1122 -0.2559
17225PP      PP27329  13.005  14.911   3.364 -0.0585 -0.3868 -0.1737
17226PP      PP27330   9.763  15.430  13.115 -0.2212  0.1647  0.1745
17227PP      PP27331   7.526   1.955  10.268 -0.0685 -0.2512  0.0889
17228PP      PP27332   6.390  11.566   3.492  0.0280 -0.1272  0.3030
17229PP      PP27333   1.265   9.856   2.813  0.0218  0.1317  0.0045
17230PP      PP27334   1.061   2.898  13.007  0.0862 -0.1159 -0.2670
17231PP      PP27335   4.521  13.248   9.681 -0.0139 -0.0431 -0.3274
17232PP      PP27336  12.304  12.608   4.096  0.1100 -0.3225  0.2498
17233PP      PP27337   5.596   7.966   9.454  0.0930 -0.0793  0.1502
17234PP      PP27338   3.166   7.259   3.337 -0.2535 -0.0422  0.2506
17235PP      PP27339  12.235   3.401   3.501  0.3356 -0.1887 -0.3280
17236PP      PP27340   0.674   0.413  12.935 -0.0267  0.0536  0.0570
17237PP      PP27341   4.932  14.027   2.318  0.0460  0.0339 -0.2505
17238PP      PP27342   4.409   5.641  10.807  0.2217  0.1850 -0.1414
17239PP      PP27343   4.980  12.503   8.878  0.1683  0.1559 -0.1377
17240PP      PP27344  11.238   5.673   3.696 -0.0702 -0.2016 -0.0743
17241PP      PP27345   2.238  10.618  13.119  0.1004  0.1944 -0.2375
17242PP      PP27346  14.891   3.055   2.381 -0.1064 -0.2915  0.3365
17243PP      PP27347  12.026  12.491   0.542 -0.0174  0.0234  0.2338
17244PP      PP27348  13.946   6.674   0.669 -0.2726 -0.4553  0.0880
17245PP      PP27349  11.615   3.141  10.217  0.0717 -0.2657  0.2866
17246PP      PP27350   1.522  12.055   4.174 -0.1946 -0.1013 -0.0504
17247PP      PP27351   3.277   2.220   1.386 -0.1187  0.0718  0.2870
17248PP      PP27352   8.350   4.381  12.729  0.2266  0.0205  0.0750
17249PP      PP27353   4.134   2.085   8.884  0.1079  0.0970  0.0095
17250PP      PP27354  11.958  12.069  12.163  0.3146  0.0526  0.1233
17251PP      PP27355   8.623  11.522   3.382  0.0661  0.2991 -0.2754
17252PP      PP27356   4.186   5.749   4.214 -0.2240 -0.0167 -0.4377
17253PP      PP27357  14.128  12.868   9.660 -0.0952 -0.0355 -0.1019
17254PP      PP27358   4.702   3.206   3.257 -0.3271  0.0029  0.3583
17255PP      PP27359  14.028   9.029   0.654  0.2385  0.0088 -0.0741
17256PP      PP27360   6.480   6.843  10.958  0.1990 -0.2594  0.1533
17257PP      PP27361   1.163   0.259   3.507 -0.1394  0.1048 -0.0189
17258PP      PP27362   0.214  12.563  10.559 -0.0924  0.0403 -0.3845
17259PP      PP27363  14.057   8.277   0.610  0.2243  0.3458  0.0064
17260PP      PP27364   0.528   7.529  13.425 -0.0447 -0.0883 -0.0707
17261PP      PP27365  13.102   6.384   0.768  0.0779  0.1454 -0.3388
17262PP      PP27366  10.811   7.682   1.256  0.1092  0.5599  0.2520
17263PP      PP27367   3.250  15.526   8.270 -0.0822  0.1976 -0.0909
17264PP      PP27368   1.257   0.937   8.971  0.3239  0.1707  0.1143
17265PP      PP27369  15.638  13.209   0.208  0.1601  0.2223  0.1440
17266PP      PP27370   9.222   7.552  10.497  0.1676  0.1771  0.2447
17267PP      PP27371  10.320  13.235   3.770  0.1333 -0.0841  0.1303
17268PP      PP27372   0.987   6.938   3.695 -0.0374 -0.0844 -0.3770
17269PP      PP27373   3.405  10.203  12.024  0.1383  0.1915 -0.0843
17270PP      PP27374  15.571  12.389   3.391  0.3536 -0.2887 -0.0393
17271PP      PP27375   8.799  13.018   3.930 -0.1441  0.0353 -0.3741
17272PP      PP27376   6.120   5.158   9.112 -0.1891 -0.2143  0.0846
17273PP      PP27377   5.688   0.528   0.761  0.1083  0.1677  0.1800
17274PP      PP27378  12.718   3.553   3.431 -0.0888  0.0873  0.1514
17275PP      PP27379  10.496  11.776  10.016  0.3464 -0.1590 -0.3078
17276PP      PP27380   5.525   5.708  11.062  0.2969 -0.2802  0.1792
17277PP      PP27381   1.905  11.342   4.140 -0.0740 -0.2026 -0.2857
17278PP      PP27382   5.131  10.208   9.809  0.2781 -0.1789 -0.0647
17279PP      PP27383   4.119   6.257   3.388 -0.0026  0.1369 -0.1968
17280PP      PP27384  13.793  10.146   2.372 -0.2568  0.1004 -0.0820
17281PP      PP27385   3.171  15.336   1.109 -0.0011  0.0460 -0.0577
17282PP      PP27386   5.443   4.446   9.419 -0.0051 -0.0336 -0.0096
17283PP      PP27387  13.956   3.304   1.106  0.4061  0.2223  0.4252
17284PP      PP27388   7.797   5.211  12.676 -0.0244 -0.1194  0.2085
17285PP      PP27389  10.568   4.938  12.978 -0.0495 -0.3823 -0.3003
17286PP      PP27390   6.998   4.974   1.493 -0.0622  0.2123 -0.0343
17287PP      PP27391   8.805   6.339  13.072  0.1482  0.0325 -0.4822
17288PP      PP27392  10.713   1.673   4.115  0.1463  0.0888  0.0966
17289PP      PP27393  13.778   9.706   1.616  0.2364 -0.4270 -0.1351
17290PP      PP27394  14.149   2.307  10.836  0.0833  0.4844 -0.2613
17291PP      PP27395   8.791  13.973   7.866  0.2711 -0.0321 -0.2675
17292PP      PP27396   0.082   0.753   8.136 -0.1760  0.0246  0.1445
17293PP      PP27397   1.903   1.641  12.287  0.2378 -0.1928 -0.2820
17294PP      PP27398   8.528   7.786  11.367  0.1403 -0.1338  0.1686
17295PP      PP27399   3.202   9.040   4.802  0.2124  0.1227  0.0632
17296PP      PP27400  13.748   6.894   2.498 -0.0300 -0.6036 -0.2478
17297PP      PP27401   3.519   2.146  11.627  0.0677  0.0745  0.0963
17298PP      PP27402   7.198   7.457   8.933 -0.0383 -0.0228 -0.2132
17299PP      PP27403   1.949   3.057   1.719 -0.1001  0.1109 -0.1037
17300PP      PP27404   5.862   3.874  12.816 -0.0858  0.1564 -0.0936
17301PP      PP27405   9.109  10.782   9.196  0.0144 -0.0441  0.0264
17302PP      PP27406   0.838  10.526  10.943 -0.0708  0.2847 -0.3862
17303PP      PP27407   8.858   1.266  12.720 -0.0678  0.1196 -0.1122
17304PP      PP27408   2.496   9.243  11.621 -0.1696 -0.0218 -0.5058
17305PP      PP27409   0.362   0.995  13.324  0.0603 -0.1507  0.0451
17306PP      PP27410   4.586   7.868   1.931  0.0257 -0.0849 -0.0152
17307PP      PP27411   0.284   5.653  12.995  0.0428  0.5672 -0.0924
17308PP      PP27412   9.241   0.266  12.332 -0.0059 -0.0407  0.1950
17309PP      PP27413   2.649  14.836   9.212  0.5307 -0.3749  0.2454
17310PP      PP27414   3.891   8.857   4.162 -0.1607 -0.0336  0.3015
17311PP      PP27415   8.204   8.479   0.361 -0.0533 -0.0489 -0.3360
17312PP      PP27416   3.768   8.613  10.366 -0.1038 -0.0242 -0.4844
17313PP      PP27417   0.375  10.040  11.580  0.0431 -0.0205  0.0121
17314PP      PP27418   7.660  13.555   1.153  0.0563  0.1578  0.2104
17315PP      PP27419   1.226   9.685   4.518 -0.0442  0.1282  0.2883
17316PP      PP27420  11.178  10.970  10.090 -0.0185 -0.0184 -0.1569
17317PP      PP27421  11.875   5.793  12.904  0.2387  0.1525 -0.0968
17318PP      PP27422   6.333  15.332   8.561  0.0272  0.0083  0.0642
17319PP      PP27423   2.841   7.055  10.241 -0.0513 -0.3712 -0.3013
17320PP      PP27424   2.680  14.689   4.471 -0.1567  0.1252  0.1229
17321PP      PP27425   4.053   3.612   3.909 -0.0365 -0.2380 -0.3021
17322PP      PP27426   3.119  11.347   1.346 -0.1595  0.1063  0.0119
17323PP      PP27427  12.164  15.736  12.753 -0.1173 -0.0351  0.2001
17324PP      PP27428  14.985   2.788   3.665 -0.1038  0.0637  0.1767
17325PP      PP27429   7.315   8.722  11.582 -0.0716  0.2560 -0.1563
17326PP      PP27430   2.256   2.255   0.509 -0.1886  0.0256  0.1286
17327PP      PP27431  14.348  13.670   3.265  0.0823  0.0496  0.3898
17328PP      PP27432   9.633   5.879   8.520  0.0684  0.2075  0.0531
17329PP      PP27433   0.331   6.039  12.387  0.1091  0.2154 -0.0226
17330PP      PP27434   5.761  13.719  10.113  0.0356  0.1378 -0.0034
17331PP      PP27435  13.520  10.896  11.507 -0.0559  0.0546 -0.1390
17332PP      PP27436   1.477   8.553  12.415  0.0324 -0.0154 -0.1273
17333PP      PP27437   9.575   4.012   1.138 -0.1735  0.1930  0.1921
17334PP      PP27438   6.549   9.868  12.147  0.1541 -0.0584 -0.0382
17335PP      PP27439   9.101   1.133  10.692  0.0990  0.0234  0.1145
17336PP      PP27440  13.136   6.174  12.385  0.4594 -0.2275 -0.0906
17337PP      PP27441   7.335  10.489  13.030 -0.0927  0.0010 -0.0185
17338PP      PP27442   6.220  13.858   2.008  0.0608  0.2330 -0.0656
17339PP      PP27443  13.557   9.913  12.712 -0.1814  0.0166 -0.1046
17340PP      PP27444   4.739   4.229   0.074 -0.4024  0.4076  0.0769
17341PP      PP27445  11.770   8.926  11.124  0.1381  0.0290 -0.0005
17342PP      PP27446   4.735   2.690  13.132  0.2687 -0.0519  0.5286
17343PP      PP27447  11.816   9.715   0.682  0.2932  0.2122  0.0547
17344PP      PP27448   6.500   0.179  10.716  0.0743 -0.0310 -0.0097
17345PP      PP27449   1.060  12.437  12.571 -0.0136  0.1621 -0.0160
17346PP      PP27450   8.265  15.198   3.711 -0.0548  0.4691 -0.1067
17347PP      PP27451   4.639  11.711  10.461 -0.0695 -0.1545 -0.2522
17348PP      PP27452   9.090   0.853   0.801 -0.0649 -0.0966  0.1042
17349PP      PP27453  15.049   9.142   5.957 -0.0289 -0.0785  0.0208
17350PP      PP27454   9.713   2.949   2.407  0.0106 -0.2854 -0.1501
17351PP      PP27455  15.169   2.564   8.191 -0.1759  0.0515  0.2503
17352PP      PP27456   0.456   9.544   4.272 -0.0421  0.0412 -0.2479
17353PP      PP27457   5.092   5.331   3.181 -0.0511 -0.1871  0.0041
17354PP      PP27458   9.322  15.483   3.771 -0.2213 -0.2072 -0.0564
17355PP      PP27459  11.946  12.280   2.658  0.2341  0.1643  0.1195
17356PP      PP27460  12.509  12.078  13.378  0.0538  0.0820 -0.0384
17357PP      PP27461  13.768  12.384   0.465 -0.0048  0.0011  0.0596
17358PP      PP27462   4.708   9.954   0.789 -0.3524  0.3962 -0.0541
17359PP      PP27463  10.497   4.616   9.557  0.1526 -0.1390 -0.3200
17360PP      PP27464   6.801   4.847  11.389 -0.2616 -0.2039  0.2248
17361PP      PP27465   9.181  13.384   4.203  0.0512 -0.2064  0.2749
17362PP      PP27466  12.538   6.054  12.407 -0.2332 -0.4080 -0.1137
17363PP      PP27467   7.878   7.132   8.434  0.2501 -0.0640 -0.1519
17364PP      PP27468   8.558   0.022   0.351 -0.3091 -0.0370  0.1811
17365PP      PP27469   3.816  15.410   0.552  0.1446  0.0001  0.1956
17366PP      PP27470  10.296   7.040   4.663  0.0465 -0.0110  0.1796
17367PP      PP27471   7.606   0.666  11.462  0.0527  0.1823  0.1798
17368PP      PP27472  14.054  12.373   1.734  0.2670  0.2457 -0.2948
17369PP      PP27473   3.213   3.566   3.666  0.0292  0.0207  0.0261
17370PP      PP27474  15.390  11.007  11.260 -0.0359  0.2092  0.0133
17371PP      PP27475  13.459  15.337   1.810  0.0469  0.0147 -0.2081
17372PP      PP27476   5.238   3.619   3.779  0.2030  0.1713  0.0107
17373PP      PP27477   1.228   8.609   5.701 -0.2192  0.1688 -0.1047
17374PP      PP27478  15.737  14.300   2.733 -0.0394 -0.3079 -0.2476
17375PP      PP27479  10.105  15.570   2.104 -0.0660  0.0045  0.1297
17376PP      PP27480   7.236   1.870   9.354  0.2002 -0.0169  0.1837
17377PP      PP27481   7.549   4.633   0.587 -0.1045 -0.0289 -0.0121
17378PP      PP27482   7.125  10.160  10.445 -0.1755 -0.1300 -0.1832
17379PP      PP27483  15.630   9.271   0.347 -0.1370  0.1054 -0.0459
17380PP      PP27484  13.814   0.239  10.853  0.1318 -0.1352 -0.0509
17381PP      PP27485   9.617  13.479   2.830  0.0453  0.2138 -0.2767
17382PP      PP27486   6.661   5.994   0.678  0.2017 -0.1595  0.0160
17383PP      PP27487   5.216  10.826   0.746  0.2542 -0.1350  0.1476
17384PP      PP27488  12.310   3.939   9.376 -0.1113  0.0099  0.1486
17385PP      PP27489   9.721  11.068  12.537  0.0338 -0.1511 -0.2157
17386PP      PP27490  10.470   2.856   9.523  0.2653 -0.2168  0.1729
17387PP      PP27491   7.761  15.472   9.914 -0.2472 -0.0864 -0.2821
17388PP      PP27492   9.478  13.496   0.898 -0.1817  0.1072  0.2248
17389PP      PP27493  13.413   4.059   3.198 -0.0702  0.1586 -0.1693
17390PP      PP27494  11.257   9.688  10.887  0.1710  0.1078 -0.1279
17391PP      PP27495  14.409   4.943   5.519  0.2756 -0.1527  0.3951
17392PP      PP27496   3.223  11.329   3.806  0.1169  0.0542 -0.1534
17393PP      PP27497   7.251   9.886  10.905  0.2077  0.0354  0.4588
17394PP      PP27498   3.695   0.075   0.892  0.0709 -0.1666 -0.0347
17395PP      PP27499   9.109   1.982   0.532  0.0226  0.1789  0.0396
17396PP      PP27500  14.038   0.602  12.145  0.0358 -0.1105 -0.1948
17397PP      PP27501  10.744   6.247   1.284  0.2023 -0.1831  0.0808
17398PP      PP27502   0.770   1.901   9.872  0.0855 -0.0901  0.3117
17399PP      PP27503   8.354   7.620  10.326  0.1739 -0.0226 -0.0795
17400PP      PP27504   1.904  11.378   5.377  0.0742  0.0386  0.0962
17401PP      PP27505  13.278   2.106   0.213 -0.2201  0.0883 -0.1720
17402PP      PP27506  13.351   7.011   4.018 -0.1279 -0.1239 -0.0520
17403PP      PP27507  14.197   4.836   2.027  0.0658  0.0199  0.1533
17404PP      PP27508   3.249  12.943   2.232 -0.1719 -0.0012 -0.0671
17405PP      PP27509   0.709   6.783  11.096 -0.0689  0.0136  0.0209
17406PP      PP27510   1.145   6.868   0.899  0.1168  0.0658  0.0226
17407PP      PP27511   9.070  14.734  12.168 -0.0095  0.2714 -0.0262
17408PP      PP27512   3.248   0.173  10.968  0.4067  0.2358 -0.0651
17409PP      PP27513   2.920   5.732  12.216 -0.1751 -0.2681  0.1872
17410PP      PP27514  14.788  10.354   3.228  0.0870  0.1111  0.1360
17411PP      PP27515   2.269   7.830   4.613  0.0423 -0.3599 -0.0111
17412PP      PP27516  14.060   5.505   2.752 -0.1449 -0.2255 -0.0309
17413PP      PP27517   7.959   2.112   2.910  0.4024  0.1595 -0.0616
17414PP      PP27518   8.838  10.326   9.754  0.1597  0.1003 -0.0281
17415PP      PP27519   8.140   6.060   1.269 -0.3009  0.0093 -0.1026
17416PP      PP27520  12.977   0.550   1.600  0.1083  0.0169  0.1853
17417PP      PP27521  10.124   4.714  10.800 -0.0636  0.0378 -0.0170
17418PP      PP27522   0.220  13.233   0.533  0.0044  0.0284 -0.2129
17419PP      PP27523   0.732   5.672  12.638  0.2439  0.4530 -0.0640
17420PP      PP27524   4.959   4.629  13.413  0.1330  0.1031  0.0402
17421PP      PP27525   4.557  15.495   9.042  0.2880 -0.2281  0.0176
17422PP      PP27526   5.957   7.869   9.061  0.0470 -0.1425 -0.0552
17423PP      PP27527  15.298  10.636   3.465  0.0521 -0.1086 -0.1587
17424PP      PP27528  10.685  15.088   1.773  0.2210  0.0333  0.0472
17425PP      PP27529   1.859  12.146  10.837  0.0319  0.1528 -0.0783
17426PP      PP27530   6.131   2.174  13.339  0.1301  0.0515  0.0454
17427PP      PP27531   7.971   3.061   8.960  0.2362 -0.1673  0.0029
17428PP      PP27532  11.145   6.568   2.642 -0.1632 -0.0266  0.3544
17429PP      PP27533  15.136  10.496  13.091  0.1812  0.2240 -0.2461
17430PP      PP27534  12.928   2.719  10.976 -0.0304  0.0746 -0.0263
17431PP      PP27535  15.202   3.186   0.146  0.0227  0.2959 -0.0497
17432PP      PP27536   1.904   6.307   9.881 -0.2727  0.1781  0.0417
17433PP      PP27537   9.446  11.480  11.554  0.2050  0.1193 -0.0994
17434PP      PP27538  10.035  10.827   1.045  0.0443 -0.1314 -0.1094
17435PP      PP27539   6.229   6.934  12.901 -0.0020  0.2757  0.1517
17436PP      PP27540   3.851  12.967   4.020 -0.0710 -0.0127 -0.0058
17437PP      PP27541  13.105   2.559   0.081 -0.2948 -0.2433 -0.0753
17438PP      PP27542   0.773   0.505   0.337 -0.2873  0.0068 -0.0973
17439PP      PP27543   1.230   9.796  12.129  0.2016 -0.2280  0.0701
17440PP      PP27544   7.819   2.747   2.456 -0.3027  0.0445 -0.0607
17441PP      PP27545  12.802   4.376   3.089 -0.3811 -0.0418 -0.1940
17442PP      PP27546   2.367  13.419   0.990  0.2240 -0.3790  0.0795
17443PP      PP27547   9.174   5.704   2.169 -0.1537  0.1497 -0.1865
17444PP      PP27548   7.678  15.274   8.967  0.2001 -0.3126  0.2591
17445PP      PP27549   6.538   3.436   9.995  0.0627 -0.0426 -0.1512
17446PP      PP27550  13.948  13.631   4.337 -0.2737 -0.4084 -0.4832
17447PP      PP27551   2.464   0.306  11.581  0.0628  0.1008 -0.3013
17448PP      PP27552  11.278  12.390   2.098  0.1086  0.1907 -0.1635
17449PP      PP27553  13.523  14.612   2.499  0.2227  0.1240  0.0519
17450PP      PP27554  11.663  10.256   9.288 -0.3024  0.0493  0.1112
17451PP      PP27555  11.593  12.035   0.041 -0.1238 -0.2567  0.2311
17452PP      PP27556  14.245   0.775   2.005  0.1359  0.3829  0.2162
17453PP      PP27557  13.086   6.737   2.759  0.1245 -0.0890  0.0116
17454PP      PP27558  15.519   3.228   9.415 -0.3062 -0.0396 -0.2957
17455PP      PP27559  11.908   8.548   4.665 -0.0667  0.0198 -0.1057
17456PP      PP27560   5.817   7.664   1.274 -0.0104 -0.3328 -0.1610
17457PP      PP27561  12.941   3.201   0.830  0.0211  0.0748  0.1505
17458PP      PP27562  13.588   8.169   3.814  0.1769  0.0387 -0.3078
17459PP      PP27563   9.613   6.585   3.817  0.2846 -0.1255  0.1357
17460PP      PP27564  11.673   8.813  12.516  0.0237  0.1572 -0.0131
17461PP      PP27565   2.697   9.282  13.367 -0.2574  0.0957 -0.0901
17462PP      PP27566   7.326  10.539   2.354  0.2156 -0.0548 -0.2644
17463PP      PP27567  11.241   7.393   2.199 -0.2527 -0.1816  0.0632
17464PP      PP27568  13.740  14.072   9.276  0.1410  0.0795  0.0350
17465PP      PP27569   8.775  14.185   9.101  0.1314 -0.1282 -0.0522
17466PP      PP27570  11.871   0.391   9.570  0.0424  0.0684 -0.0728
17467PP      PP27571  12.668   3.873   2.537 -0.0703 -0.1199 -0.0602
17468PP      PP27572  13.564   5.451  11.544  0.0553  0.0978 -0.0078
17469PP      PP27573  14.816  11.015   2.103  0.0143 -0.2095 -0.3746
17470PP      PP27574  12.910   9.795  11.492 -0.1131 -0.2706  0.4245
17471PP      PP27575   8.560  11.334   9.606  0.0520 -0.2262 -0.1260
17472PP      PP27576   5.137   8.973  10.036 -0.1404  0.0089  0.1953
17473PP      PP27577   7.946   0.704   9.473 -0.2242  0.0190 -0.0485
17474PP      PP27578   0.537   0.141  12.067 -0.0811 -0.1143  0.0131
17475PP      PP27579  14.022  13.907   9.981  0.1838 -0.1815 -0.1549
17476PP      PP27580  11.127  10.327   9.834 -0.3590 -0.1451 -0.1933
17477PP      PP27581  11.386   9.282   4.201  0.0129  0.2182 -0.1429
17478PP      PP27582   4.149   0.049   3.804  0.3020  0.2563  0.0831
17479PP      PP27583  14.401   2.877   8.498  0.1264  0.0989 -0.1380
17480PP      PP27584  15.682   4.695   9.405 -0.2203 -0.0650  0.1006
17481PP      PP27585   9.680   5.637   0.355  0.0950  0.4274  0.4679
17482PP      PP27586  15.627  10.737   4.667 -0.0959  0.3870 -0.2503
17483PP      PP27587   8.667   2.615   8.468  0.3195  0.1518  0.1010
17484PP      PP27588   4.581   8.777  11.233  0.0432 -0.3392  0.0213
17485PP      PP27589   0.135  14.497   0.215  0.0842 -0.2727  0.1282
17486PP      PP27590   5.741   7.202   1.597  0.1211 -0.0349 -0.0972
17487PP      PP27591  10.614   8.114   3.741  0.0208 -0.0835  0.1301
17488PP      PP27592  11.713  11.075   3.041 -0.0122 -0.2828 -0.0360
17489PP      PP27593   0.471   1.356   2.001 -0.1486  0.2315  0.0374
17490PP      PP27594   6.834  14.893   9.529  0.0368 -0.4818  0.2534
17491PP      PP27595   8.450   2.368   2.598  0.1360  0.0892  0.2743
17492PP      PP27596  15.042   0.889  11.007  0.0473 -0.0941  0.2012
17493PP      PP27597   5.619  15.504  11.146  0.0781  0.0948 -0.0106
17494PP      PP27598   3.895  14.630   2.855 -0.1934  0.3992 -0.1706
17495PP      PP27599   5.840  13.561   1.933  0.0479  0.2333  0.1301
17496PP      PP27600  12.315   3.694   4.356 -0.1827  0.0091  0.1645
17497PP      PP27601  10.890  14.078  11.077  0.0840  0.1385  0.0707
17498PP      PP27602   8.316  14.551   1.474  0.0127 -0.1473  0.4370
17499PP      PP27603  10.020  11.035   3.864 -0.1720  0.0570 -0.0579
17500PP      PP27604   6.894   1.741   0.515  0.2165 -0.0175  0.2898
17501PP      PP27605   1.183  15.176  10.757 -0.2892 -0.1191  0.1906
17502PP      PP27606   8.762  15.292   1.280  0.0425 -0.6389 -0.1221
17503PP      PP27607   1.106  15.096   9.617 -0.1949  0.0617 -0.0298
17504PP      PP27608  12.591  15.478  10.591 -0.2462  0.0941  0.1572
17505PP      PP27609  10.120   5.665  12.078  0.2334 -0.0321 -0.0289
17506PP      PP27610   2.281   8.949  11.230  0.2644 -0.1486 -0.0848
17507PP      PP27611  13.749  12.916   4.844  0.0443  0.0312 -0.0513
17508PP      PP27612  11.601   9.420  13.187  0.0983 -0.1157  0.2171
17509PP      PP27613   0.499   1.132  10.567 -0.1265 -0.0071 -0.3972
17510PP      PP27614   4.486  10.905   5.226  0.1405 -0.0387  0.1117
17511PP      PP27615   1.715   3.172  10.419  0.0637  0.0961 -0.0854
17512PP      PP27616   5.076   4.852  11.039  0.3800  0.1528  0.2303
17513PP      PP27617   9.427   5.698  11.160 -0.0717  0.1501  0.0426
17514PP      PP27618  11.452   7.874   3.715 -0.0457 -0.2367  0.0076
17515PP      PP27619  14.604   4.074   0.926 -0.1208 -0.0124  0.0520
17516PP      PP27620   4.457  10.502   3.326  0.2282  0.2936 -0.0183
17517PP      PP27621   8.238   7.000   1.833 -0.0419 -0.1973  0.0886
17518PP      PP27622  12.319   2.418   3.965 -0.2679  0.1562  0.1410
17519PP      PP27623   7.316   9.777   3.553  0.0516  0.0220 -0.1506
17520PP      PP27624   7.699   4.568  10.675 -0.1724  0.1626 -0.1305
17521PP      PP27625   7.586  14.974   1.037 -0.3200  0.2689 -0.3255
17522PP      PP27626  11.840   5.231   2.626 -0.1533  0.0096 -0.2742
17523PP      PP27627   1.408   7.620   3.167  0.2248  0.0278  0.2044
17524PP      PP27628  13.550   6.601   1.856  0.1496 -0.1108 -0.0044
17525PP      PP27629   0.795  11.343   2.895 -0.0240 -0.1464  0.1207
17526PP      PP27630  12.626   2.947   2.651 -0.1529 -0.1679 -0.2649
17527PP      PP27631   6.260   1.690  13.260 -0.1823 -0.1346  0.2256
17528PP      PP27632   0.516   2.881   9.743 -0.1461  0.4401 -0.1628
17529PP      PP27633   7.490  10.684   9.050 -0.1854  0.1009  0.1965
17530PP      PP27634   6.798   5.526  12.354 -0.1699 -0.2004 -0.0500
17531PP      PP27635  15.406  12.628   2.501 -0.2002  0.0195 -0.1327
17532PP      PP27636   4.659  10.226   3.003 -0.2904  0.0226  0.1744
17533PP      PP27637   2.712   8.662  13.109  0.3300  0.1452  0.1676
17534PP      PP27638   2.660  10.586  12.917 -0.1297 -0.3290  0.1308
17535PP      PP27639   3.723   0.351   1.403  0.2773  0.4175  0.0965
17536PP      PP27640  10.210   1.285   9.259 -0.0813 -0.1887  0.0022
17537PP      PP27641  12.333   2.550   1.677  0.1492  0.1437  0.0463
17538PP      PP27642  13.929   9.330   2.132 -0.1118  0.1880  0.0497
17539PP      PP27643   0.797   8.887   4.603  0.0909  0.2228 -0.0590
17540PP      PP27644   4.943  10.060  10.245 -0.0259 -0.1509 -0.1031
17541PP      PP27645  10.840   0.244   1.640 -0.0726 -0.1696 -0.1872
17542PP      PP27646   9.449   5.343   9.234 -0.1947 -0.0125 -0.1821
17543PP      PP27647   6.010   1.207   8.688  0.2464  0.1112 -0.0965
17544PP      PP27648  15.473   5.073   2.818 -0.1036  0.4618  0.1915
17545PP      PP27649   1.708   4.190   0.616 -0.0484 -0.2065  0.2295
17546PP      PP27650   4.139   0.523   0.671 -0.3775  0.0913  0.2418
17547PP      PP27651  10.455  15.784   0.963 -0.0042  0.2092  0.1434
17548PP      PP27652   3.522  13.042   1.304 -0.1797  0.0487  0.0801
17549PP      PP27653   7.620  15.667   9.369 -0.2300  0.2003  0.7162
17550PP      PP27654   6.161   9.774  10.040 -0.3293  0.0515  0.3325
17551PP      PP27655   8.826   1.479  10.270  0.1867  0.1201 -0.0908
17552PP      PP27656  13.911   5.760  12.442  0.1394 -0.1245 -0.3940
17553PP      PP27657   5.032   4.835   1.325  0.0709 -0.0807 -0.2080
17554PP      PP27658   2.725   7.669  10.609  0.0863  0.0992 -0.0439
17555PP      PP27659   5.549   8.206   3.705 -0.0647 -0.2869  0.2813
17556PP      PP27660  10.997   4.771  12.685  0.0773  0.0532 -0.3189
17557PP      PP27661   8.545   6.600   9.340 -0.0615 -0.1106 -0.0969
17558PP      PP27662   5.263   1.725  11.311  0.1697  0.2440  0.2000
17559PP      PP27663  15.476  10.565   0.287  0.1246  0.0281  0.0865
17560PP      PP27664  13.762  12.555   2.740  0.2069  0.0788 -0.1585
17561PP      PP27665  14.277   1.649   1.962 -0.0963  0.3269  0.1921
17562PP      PP27666   5.916  14.760   2.014 -0.0135  0.1521 -0.0359
17563PP      PP27667   5.501   0.171   8.576 -0.1617  0.2208 -0.1524
17564PP      PP27668   0.466  11.884   1.771  0.1912 -0.0599 -0.2522
17565PP      PP27669   4.395   4.184  13.206 -0.1565  0.1126 -0.2061
17566PP      PP27670   2.199  10.272  13.521 -0.1514 -0.0255  0.1610
17567PP      PP27671   1.713   4.177  11.245  0.0590  0.0179 -0.0020
17568PP      PP27672  12.582   2.579   8.709  0.0867 -0.0213  0.1709
17569PP      PP27673  10.144   0.466  13.106 -0.0260  0.1986  0.1602
17570PP      PP27674   8.817   9.583   9.699  0.2794 -0.2104  0.1218
17571PP      PP27675   3.579  12.144  11.360 -0.1419 -0.2125 -0.0041
17572PP      PP27676  14.340  11.416   9.439  0.0187 -0.1086 -0.1650
17573PP      PP27677   8.934  11.087   0.068  0.1589 -0.0966  0.2071
17574PP      PP27678   9.757   7.074  11.832 -0.0488  0.1730 -0.2236
17575PP      PP27679  14.226   8.588   3.201  0.1235 -0.0480  0.0204
17576PP      PP27680   4.020  11.924  11.383 -0.0091  0.1434 -0.3039
17577PP      PP27681  12.955  11.987   1.544 -0.2163  0.0331 -0.1396
17578PP      PP27682   3.622  15.675  10.968  0.0360 -0.0956  0.2649
17579PP      PP27683  12.252  14.983   0.637  0.1899 -0.2269  0.2744
17580PP      PP27684   5.930  12.045   9.520  0.0365  0.0401 -0.5634
17581PP      PP27685  14.991   7.417   3.723  0.2192  0.1223  0.0691
17582PP      PP27686  15.622  10.051  10.248  0.1031 -0.1717  0.2971
17583PP      PP27687   4.262  14.527   8.442 -0.1157  0.0698  0.0621
17584PP      PP27688  12.062   9.823   9.147 -0.1682 -0.0398 -0.2818
17585PP      PP27689   6.132   6.268  12.143 -0.2732 -0.0999  0.1288
17586PP      PP27690   6.948   6.177  12.267 -0.0093  0.1761  0.2302
17587PP      PP27691  14.455   4.853   4.377  0.0719 -0.2860 -0.1429
17588PP      PP27692  12.911  10.325  12.470 -0.3297 -0.2153 -0.3314
17589PP      PP27693   3.744   0.743  10.421 -0.0517  0.1402 -0.0608
17590PP      PP27694   8.206   7.402   9.671  0.0885  0.2061 -0.0829
17591PP      PP27695  14.487   3.963   2.032  0.4379 -0.0740 -0.2622
17592PP      PP27696   5.657   5.409   1.638 -0.1451 -0.1393 -0.1350
17593PP      PP27697   5.752   7.428   0.048 -0.0045  0.2105  0.2082
17594PP      PP27698   7.774   4.960  10.458 -0.3039 -0.1284 -0.2949
17595PP      PP27699   3.323   7.627   2.441 -0.0360 -0.3587 -0.1654
17596PP      PP27700  11.521  14.366  11.174  0.1059 -0.0982  0.1566
17597PP      PP27701   3.890   0.434  12.701 -0.1638 -0.0574  0.0247
17598PP      PP27702   3.543   8.852   3.222 -0.0212 -0.0936 -0.0577
17599PP      PP27703  11.559   5.274  12.551 -0.1340 -0.1251 -0.0608
17600PP      PP27704  14.083  12.419   2.359 -0.0451  0.0320  0.2518
17601PP      PP27705   5.130  11.782   0.579  0.3148 -0.0977  0.2504
17602PP      PP27706   8.054  14.171   2.885  0.2125  0.0029  0.0717
17603PP      PP27707   0.079  11.081   3.279  0.0126  0.4493  0.1289
17604PP      PP27708   1.049   8.201  10.952 -0.1353  0.0668 -0.3209
17605PP      PP27709   8.473  10.644  12.967 -0.0636  0.5199  0.0625
17606PP      PP27710  13.264  14.684  13.369 -0.4824  0.2128  0.1029
17607PP      PP27711   0.422  12.319   2.879  0.0461  0.0145  0.0143
17608PP      PP27712   7.821   9.799  10.782 -0.1229 -0.0324  0.2389
17609PP      PP27713  15.755   6.293   2.719  0.1379  0.2574 -0.2326
17610PP      PP27714  12.026   5.758   2.502 -0.0216  0.2576  0.1509
17611PP      PP27715   3.869   5.383   1.081 -0.0867 -0.1056 -0.2449
17612PP      PP27716  15.051   2.723   9.907 -0.1170 -0.2081 -0.3296
17613PP      PP27717  10.685   2.515   1.060 -0.0600  0.1899 -0.6005
17614PP      PP27718   3.370   6.577   1.444  0.1158 -0.0655  0.0255
17615PP      PP27719   0.445  11.294  12.099  0.0504 -0.3149 -0.0888
17616PP      PP27720  11.057   8.418   0.052  0.3587 -0.3223  0.0692
17617PP      PP27721   3.575  10.237  12.520 -0.0004  0.0804  0.0133
17618PP      PP27722   1.186   8.902  11.420 -0.0680  0.0154  0.2542
17619PP      PP27723   5.974   6.635  13.292 -0.0650 -0.2672 -0.4314
17620PP      PP27724   3.930  12.391  11.956  0.1134 -0.0497 -0.2538
17621PP      PP27725  12.127   7.948  13.044 -0.0446  0.0559 -0.0494
17622PP      PP27726   4.065   8.663   2.293 -0.3558  0.3045 -0.1697
17623PP      PP27727   1.335   1.866   9.204  0.2888 -0.2218  0.0988
17624PP      PP27728   6.495   9.241   2.405  0.0463  0.1280  0.0991
17625PP      PP27729  12.987   6.357   0.307 -0.2225 -0.0746  0.1297
17626PP      PP27730   2.884   9.627   2.927 -0.3040 -0.2357 -0.1164
17627PP      PP27731   1.931   1.541   2.741 -0.0462  0.3843  0.1171
17628PP      PP27732   2.708  13.883   3.809  0.1666 -0.0523  0.0295
17629PP      PP27733   1.288   7.554   2.674 -0.0288 -0.0899 -0.1412
17630PP      PP27734   4.406  12.283   9.919 -0.0093 -0.1443 -0.1316
17631PP      PP27735   9.346   2.681   9.715 -0.0186  0.0100  0.0240
17632PP      PP27736  12.486  12.576   0.350 -0.1140 -0.0101  0.1095
17633PP      PP27737   0.520  13.036   4.289  0.1724  0.2244 -0.0556
17634PP      PP27738   2.009   4.532  12.060 -0.0632 -0.1528 -0.0661
17635PP      PP27739   4.918  13.152  12.861 -0.1015  0.2455 -0.1113
17636PP      PP27740  10.850  11.670   1.923 -0.1098  0.3420 -0.0584
17637PP      PP27741   5.862  10.597  10.348  0.3302  0.0588 -0.3408
17638PP      PP27742  13.718   2.976  10.022 -0.1231 -0.3569  0.0081
17639PP      PP27743   8.368   8.584   2.632  0.1700  0.0601 -0.0576
17640PP      PP27744   5.217   7.037  12.862  0.0817  0.1001 -0.0461
17641PP      PP27745   6.275  10.717  13.452  0.0956 -0.3917  0.0467
17642PP      PP27746   7.284   5.921  11.490  0.0426 -0.0929 -0.3548
17643PP      PP27747  10.486   1.003   8.446  0.1225 -0.2701 -0.0110
17644PP      PP27748   2.021   3.791  10.374  0.0761 -0.1410 -0.2828
17645PP      PP27749   2.351  12.363   2.949 -0.1830  0.1117 -0.1725
17646PP      PP27750   0.434  14.136  11.965 -0.0196  0.0095 -0.0340
17647PP      PP27751  13.993  10.234  12.044  0.1434  0.0621 -0.3165
17648PP      PP27752   5.942   4.846   4.649 -0.0603  0.0336 -0.3790
17649PP      PP27753   5.052   9.356   1.824 -0.1837 -0.2224 -0.0390
17650PP      PP27754   1.449   2.735  12.352  0.0003 -0.1766  0.2372
17651PP      PP27755  10.934  14.343  10.071 -0.1008 -0.2375 -0.0082
17652PP      PP27756   5.330   4.449   0.185  0.0855  0.0971  0.1503
17653PP      PP27757  11.144  15.066  11.522  0.2574 -0.0041  0.1829
17654PP      PP27758  12.282   7.245  10.542  0.2538  0.0186 -0.0103
17655PP      PP27759   8.668  11.024  11.425  0.0928 -0.2150  0.3048
17656PP      PP27760   8.608  15.082  12.626  0.0224  0.3723 -0.3334
17657PP      PP27761   3.034   4.992   1.383  0.2167 -0.2437  0.0776
17658PP      PP27762   5.914  12.849   4.169 -0.2199 -0.0158  0.2089
17659PP      PP27763   1.854   8.514   2.885  0.0028  0.2295  0.1219
17660PP      PP27764  15.527   9.658  11.552  0.1122  0.0025  0.1696
17661PP      PP27765  11.439   4.954   1.386 -0.1376 -0.0861 -0.1460
17662PP      PP27766   8.314  13.536   1.680 -0.0235 -0.0075  0.0233
17663PP      PP27767   9.613   9.951  11.896  0.1443  0.0596 -0.0076
17664PP      PP27768  12.931  10.816  12.772 -0.2789 -0.0562 -0.2332
17665PP      PP27769  12.324   7.985   3.305  0.2627 -0.0020  0.2219
17666PP      PP27770   4.158   3.859  12.050 -0.1406  0.1168  0.2852
17667PP      PP27771   4.969  13.666   8.918  0.1579  0.0457 -0.0759
17668PP      PP27772   8.945   6.555  11.002 -0.2724 -0.0354  0.0745
17669PP      PP27773   6.562   9.451   1.318  0.2153  0.1837  0.1708
17670PP      PP27774  13.264  12.325  13.145 -0.0772 -0.0404  0.2199
17671PP      PP27775   5.799  12.015   2.364  0.1877 -0.2717  0.1043
17672PP      PP27776   8.222  11.479   1.565  0.0668 -0.0570  0.1812
17673PP      PP27777   9.518  13.028   4.137  0.1819  0.3761  0.0482
17674PP      PP27778  11.759   7.588  13.472 -0.1348 -0.0127 -0.2651
17675PP      PP27779  11.239   6.150  12.129 -0.0347  0.1101  0.0885
17676PP      PP27780   4.560  11.695   0.423 -0.0241  0.1081 -0.1678
17677PP      PP27781   0.064   9.431  12.808  0.2244 -0.0732  0.0609
17678PP      PP27782  12.853   9.744   4.284  0.0912  0.2936  0.0365
17679PP      PP27783  13.096  15.375   3.034 -0.2108 -0.1161  0.2303
17680PP      PP27784   7.954   6.021   2.763 -0.2305  0.2759 -0.0156
17681PP      PP27785   4.160   6.978   0.783 -0.1099  0.1325  0.0839
17682PP      PP27786   2.672   1.653  11.057  0.0762  0.1714  0.0007
17683PP      PP27787   1.979   8.598   1.942  0.0383 -0.1849  0.0461
17684PP      PP27788  15.047  14.382   4.240 -0.0831  0.0829  0.3788
17685PP      PP27789  11.883  15.792  10.223 -0.0103 -0.1388  0.3343
17686PP      PP27790   0.483  12.974  10.713 -0.2357  0.2025  0.2335
17687PP      PP27791   6.208  10.821  11.126 -0.0186  0.1771 -0.0958
17688PP      PP27792   8.463  13.014   1.098  0.1484 -0.1123 -0.2440
17689PP      PP27793   7.101   6.491  12.634  0.4981  0.0428  0.3045
17690PP      PP27794   7.464  10.573   1.156  0.1435 -0.0165 -0.2960
17691PP      PP27795   9.122   1.499  12.320  0.1310 -0.3202 -0.0577
17692PP      PP27796  12.678  13.267  10.142  0.2618  0.3390  0.0472
17693PP      PP27797  15.174  15.318  10.049 -0.0290 -0.0782  0.3075
17694PP      PP27798   0.543   6.968   2.790  0.1682  0.3138 -0.1938
17695PP      PP27799   8.437   2.344  11.171 -0.0921  0.0725  0.0149
17696PP      PP27800  10.879  10.759   9.725  0.0291 -0.2841  0.1396
17697PP      PP27801   5.912   8.721   1.328 -0.1070  0.2955 -0.2406
17698PP      PP27802   2.748  14.762   2.837  0.0845 -0.2642 -0.0287
17699PP      PP27803   5.786   8.295   1.700 -0.0100  0.2441  0.2991
17700PP      PP27804   0.819   5.017   3.802 -0.0945 -0.1041 -0.0709
17701PP      PP27805   6.416   7.216  11.442 -0.1863  0.1951 -0.1508
17702PP      PP27806  11.200   5.832   3.038  0.1908  0.0078 -0.1746
17703PP      PP27807   5.827   7.462   2.246 -0.1673  0.0938  0.1660
17704PP      PP27808  15.775  15.022  10.882 -0.1024  0.1613 -0.3118
17705PP      PP27809   2.364   8.689  10.361 -0.1851 -0.0501 -0.1612
17706PP      PP27810   5.220   4.960   1.905 -0.1405  0.0617 -0.1003
17707PP      PP27811  15.066   0.203   0.330 -0.1143 -0.1421 -0.2676
17708PP      PP27812   9.270  15.349   3.242  0.1723 -0.1390 -0.3515
17709PP      PP27813   9.739  11.765   4.130  0.1828 -0.0115  0.0532
17710PP      PP27814  13.082   1.174   8.693  0.0781 -0.0192 -0.2758
17711PP      PP27815   7.805   1.915   2.044  0.2562 -0.2860 -0.0956
17712PP      PP27816  14.634  14.324   0.154  0.1066 -0.1517  0.1334
17713PP      PP27817   1.640   9.885   3.159 -0.1010  0.0474 -0.0258
17714PP      PP27818   4.062   8.778  11.691 -0.0055  0.0957  0.1630
17715PP      PP27819   2.894   6.874   3.490 -0.1201  0.2318 -0.2376
17716PP      PP27820   8.855   7.378   0.527  0.1198  0.0424 -0.3505
17717PP      PP27821  13.935   4.785   0.342 -0.1381  0.3096 -0.1163
17718PP      PP27822   4.577   2.228  10.665  0.0774 -0.2599  0.0443
17719PP      PP27823  15.494  13.772   3.084  0.0537  0.1693  0.0855
17720PP      PP27824   9.132   0.407   3.292 -0.0904 -0.2651 -0.2719
17721PP      PP27825   4.066  12.050  12.844  0.1592  0.1796  0.0532
17722PP      PP27826  13.710   3.898  12.704 -0.0454  0.1189  0.2469
17723PP      PP27827  15.385  12.728   0.357  0.0129 -0.1178  0.0473
17724PP      PP27828   4.595   2.287   9.219  0.0447 -0.0775  0.1047
17725PP      PP27829  13.173   0.004   3.900 -0.1733 -0.1965 -0.1994
17726PP      PP27830  13.435   3.268   0.893 -0.0196  0.3683  0.2678
17727PP      PP27831   8.898   5.263   1.878 -0.4014  0.1276 -0.1343
17728PP      PP27832  15.483   7.624  13.508  0.2515  0.2136  0.0228
17729PP      PP27833   1.798  13.975  11.709  0.2121 -0.1148 -0.0340
17730PP      PP27834   9.760   2.034   2.053 -0.0002  0.3226 -0.1444
17731PP      PP27835  14.683   6.245  10.393  0.4295  0.3233  0.0142
17732PP      PP27836  10.871   5.447   3.232 -0.1680  0.0043  0.0287
17733PP      PP27837   6.540   2.179   8.572  0.0022 -0.2624  0.1229
17734PP      PP27838   2.000  13.876   0.367  0.1090  0.0066  0.1448
17735PP      PP27839   6.756  15.464   2.986 -0.1269  0.1362 -0.1728
17736PP      PP27840   9.447  14.201  12.524  0.1526  0.1097 -0.0174
17737PP      PP27841  12.168   4.309  12.955  0.0869 -0.1622 -0.0693
17738PP      PP27842   7.037  15.627   8.522 -0.1106  0.0892 -0.0105
17739PP      PP27843   6.905  11.660  13.463 -0.3207  0.1909  0.1242
17740PP      PP27844   7.709  12.598   3.249 -0.2861 -0.2429  0.3300
17741PP      PP27845   7.959  11.897  11.533  0.1898 -0.1526 -0.3114
17742PP      PP27846   6.027  14.722  13.070 -0.0976  0.2814  0.0824
17743PP      PP27847  10.172   9.223  12.114  0.0056  0.0044  0.1444
17744PP      PP27848   8.669  10.279   3.145  0.1311 -0.1328  0.1515
17745PP      PP27849   2.032  10.975   2.479 -0.1108  0.3103  0.2723
17746PP      PP27850   5.573   9.726  11.849  0.2475  0.0926 -0.2678
17747PP      PP27851   1.801   7.597   9.603  0.0250  0.1609 -0.0563
17748PP      PP27852   8.012  15.252   1.241 -0.0522  0.0476 -0.2093
17749PP      PP27853   9.416  15.103   1.938 -0.2680  0.5350  0.2461
17750PP      PP27854   5.895   3.275  10.164  0.0474 -0.0904 -0.2477
17751PP      PP27855   3.914   2.726   9.841 -0.0542 -0.0610 -0.3134
17752PP      PP27856   2.802  15.433   0.781  0.3067 -0.0847  0.5829
17753PP      PP27857  12.391   1.671  10.023 -0.1224  0.0492 -0.0956
17754PP      PP27858   5.179   7.449   9.944 -0.0108  0.0000 -0.2067
17755PP      PP27859   6.466   0.866   3.033  0.3050 -0.0511 -0.2299
17756PP      PP27860   0.530   0.595   9.533 -0.0859  0.0235  0.0939
17757PP      PP27861   0.726  14.976   1.553  0.1052  0.1835 -0.0211
17758PP      PP27862   1.788   2.123   1.996  0.0367 -0.0622 -0.2315
17759PP      PP27863  12.612   7.515  10.259 -0.1926  0.2029  0.0288
17760PP      PP27864   5.702  13.065  12.524 -0.1229 -0.1591  0.0943
17761PP      PP27865  13.702   4.474   1.720  0.0824 -0.0257  0.0581
17762PP      PP27866   2.082   0.809  12.822  0.1768  0.1896  0.0328
17763PP      PP27867   2.785   6.814   0.283 -0.1642  0.0443  0.0756
17764PP      PP27868  15.082   1.546   8.052  0.2707  0.1918 -0.0967
17765PP      PP27869   9.415   6.228   1.108 -0.1562  0.1231 -0.3529
17766PP      PP27870   3.763  10.706   0.347  0.1388  0.0181  0.0380
17767PP      PP27871   4.763  14.383   3.316 -0.0147 -0.1067 -0.2432
17768PP      PP27872   7.884   6.466  11.799 -0.0631 -0.1732 -0.1864
17769PP      PP27873   2.231   5.177   3.196  0.2699  0.1608  0.0491
17770PP      PP27874   4.368   4.465  12.700  0.0170  0.0568 -0.3427
17771PP      PP27875  11.312  14.767   4.692 -0.0536 -0.2075  0.1535
17772PP      PP27876   9.146   6.967   0.202 -0.1047 -0.4011 -0.1394
17773PP      PP27877   9.126   4.885   3.069  0.2142 -0.0294 -0.0197
17774PP      PP27878  13.581   1.433   0.810 -0.2397 -0.1010  0.1348
17775PP      PP27879  11.041  15.374  10.395 -0.1709 -0.1111  0.0026
17776PP      PP27880  12.298   7.197   1.479  0.0291 -0.0025 -0.2436
17777PP      PP27881  14.392  15.678   1.748  0.0170 -0.1019 -0.0178
17778PP      PP27882  10.377   6.435   2.120  0.1573  0.0531  0.0189
17779PP      PP27883   5.068   3.306  12.387  0.2099  0.0155  0.1729
17780PP      PP27884   2.376  10.834   4.476 -0.0979  0.1310 -0.1154
17781PP      PP27885   1.044   1.532   9.982  0.1093 -0.0482  0.0361
17782PP      PP27886  14.357   7.478   2.294 -0.0126  0.4915  0.0590
17783PP      PP27887   4.047  11.496  11.721 -0.0401 -0.1043 -0.0278
17784PP      PP27888   4.804  13.972  10.442 -0.0464 -0.0357  0.0969
17785PP      PP27889  14.913   0.672  12.217  0.1042  0.3187  0.1241
17786PP      PP27890   8.580   4.445  11.471  0.1285 -0.0774 -0.0472
17787PP      PP27891   8.752   8.324  10.132 -0.0307 -0.1232  0.1301
17788PP      PP27892   7.574  11.645   2.784 -0.0771 -0.0574  0.0748
17789PP      PP27893  14.013  13.535  13.262  0.0481  0.5214 -0.0698
17790PP      PP27894  13.729   1.700  12.392 -0.1798  0.0536 -0.0180
17791PP      PP27895   5.692  11.154   2.947  0.0573 -0.1116  0.0888
17792PP      PP27896   7.943  11.692   3.058 -0.0679 -0.1055 -0.2112
17793PP      PP27897   5.657   7.294  11.363  0.3958  0.0212  0.0791
17794PP      PP27898   0.848   5.299   2.937  0.1281 -0.4810 -0.0730
17795PP      PP27899   5.035  15.237   9.118  0.1713  0.3497  0.1484
17796PP      PP27900   9.097   7.918  13.291  0.3556 -0.0407 -0.1179
17797PP      PP27901  11.329   1.793  12.275 -0.0390 -0.0132 -0.1578
17798PP      PP27902   1.873   8.215  12.324  0.4131  0.2069 -0.3129
17799PP      PP27903   0.915   8.936   1.841 -0.3505 -0.1942 -0.4135
17800PP      PP27904   4.437   8.590  12.575 -0.0846  0.1994  0.0870
17801PP      PP27905   6.139   3.188   0.455 -0.2498 -0.0646  0.0615
17802PP      PP27906   2.378   2.192   9.851 -0.1480  0.2263 -0.0143
17803PP      PP27907  15.301   8.066  11.475 -0.1122 -0.1815 -0.0645
17804PP      PP27908   5.697   2.907  11.719 -0.2377 -0.1663  0.0775
17805PP      PP27909   7.520  15.078   2.593 -0.0318 -0.2371 -0.0059
17806PP      PP27910   0.910   2.370   3.967  0.1402 -0.0305  0.1383
17807PP      PP27911   7.172   9.788  10.037 -0.0262 -0.1041  0.0236
17808PP      PP27912  11.572   9.468   4.669 -0.0230 -0.0792 -0.0491
17809PP      PP27913  10.462   4.098   4.117 -0.0057 -0.1766  0.1147
17810PP      PP27914   2.568   9.845   5.047 -0.0953 -0.0645 -0.0242
17811PP      PP27915   0.725   3.201  10.599 -0.0722 -0.3046  0.3931
17812PP      PP27916   7.313   3.473  12.062  0.1975 -0.0219 -0.0561
17813PP      PP27917   3.986  11.575   1.410 -0.0924 -0.1089 -0.0661
17814PP      PP27918   0.423   1.044   2.979  0.1507  0.0008  0.1914
17815PP      PP27919   4.083   3.419  12.350 -0.1151 -0.1423 -0.1220
17816PP      PP27920   5.092   8.149  13.186  0.2578 -0.0129 -0.2135
17817PP      PP27921   5.548   0.746   1.760  0.0145  0.0369  0.1835
17818PP      PP27922   1.769  14.742  12.133  0.0392  0.2762  0.0684
17819PP      PP27923  10.116   1.548   8.790  0.0076 -0.0783 -0.0589
17820PP      PP27924   3.805  13.641   9.082 -0.1478  0.0967 -0.2351
17821PP      PP27925  15.598   4.926   3.513 -0.2942 -0.3593  0.2188
17822PP      PP27926  12.017   1.848   8.724 -0.2174 -0.1557 -0.3861
17823PP      PP27927   7.118   4.001  11.160 -0.0766 -0.2368 -0.1588
17824PP      PP27928   7.102   7.505   4.815  0.1119 -0.2910 -0.1008
17825PP      PP27929   5.080  14.779  12.707 -0.3338  0.0732 -0.2683
17826PP      PP27930   2.002   0.495  13.221  0.1323 -0.1242 -0.0006
17827PP      PP27931   4.862  10.883   3.087 -0.0593 -0.0772 -0.2805
17828PP      PP27932   6.064   9.372  12.733  0.0754 -0.1892 -0.2204
17829PP      PP27933  13.329  13.234  13.498  0.0212  0.0848  0.0715
17830PP      PP27934  11.490  15.668   9.594  0.1052  0.1952 -0.2206
17831PP      PP27935  14.948  14.033   2.842 -0.3625  0.0797 -0.2746
17832PP      PP27936  12.485   8.357  12.978  0.0544  0.1293  0.1736
17833PP      PP27937  14.934   5.549   3.572 -0.1597  0.2223  0.1809
17834PP      PP27938  10.811   1.523  12.245  0.0345  0.1674 -0.1609
17835PP      PP27939   4.923  15.060   9.598 -0.2542 -0.0202 -0.2465
17836PP      PP27940   6.224   6.680  12.392 -0.1478 -0.1605 -0.2903
17837PP      PP27941   4.823   5.517   0.787  0.0108  0.1926 -0.2342
17838PP      PP27942   5.356   5.638  10.131  0.7276  0.2119 -0.0022
17839PP      PP27943  11.804   6.431  10.125  0.1377 -0.1453 -0.2610
17840PP      PP27944  13.297  15.565   1.359  0.2446  0.0186  0.0283
17841PP      PP27945   2.706   7.037  10.697 -0.2360  0.0636 -0.0160
17842PP      PP27946   7.933   3.857   2.372  0.4396 -0.1403  0.1019
17843PP      PP27947   8.310  11.466   9.195  0.2257 -0.1802 -0.0397
17844PP      PP27948   8.415  11.956   3.125 -0.1182  0.1508  0.2874
17845PP      PP27949  13.838   3.121   9.461 -0.2064 -0.2541 -0.3745
17846PP      PP27950   0.775  12.953  12.898 -0.3033  0.2475 -0.4295
17847PP      PP27951  12.380   2.550   2.217 -0.1359 -0.1363  0.1570
17848PP      PP27952   4.337   2.429  12.746 -0.1414  0.2261  0.0219
17849PP      PP27953   6.752   0.088   9.859 -0.1389  0.0369  0.2484
17850PP      PP27954   6.831   9.593  13.123  0.1805  0.2344 -0.0506
17851PP      PP27955   9.131  13.450  10.439 -0.0674  0.1317  0.0971
17852PP      PP27956  11.538   8.971   4.697 -0.1866 -0.1621 -0.2031
17853PP      PP27957   5.366   8.993  11.503 -0.2883  0.1786 -0.2835
17854PP      PP27958  12.392   2.418  11.760 -0.0727 -0.2278 -0.1600
17855PP      PP27959   8.597   1.509  11.596  0.1545  0.1851  0.0354
17856PP      PP27960   9.764   6.433  10.227 -0.3481 -0.0912  0.2447
17857PP      PP27961  14.598   6.029   0.248  0.1149  0.1915  0.0980
17858PP      PP27962  11.716   7.831  10.113 -0.0076 -0.0770  0.4457
17859PP      PP27963   6.916   1.026  12.746  0.0236  0.0542 -0.4428
17860PP      PP27964  13.191   7.573  12.997 -0.3470 -0.2405 -0.2487
17861PP      PP27965   6.760  10.403  12.993 -0.2967 -0.2960  0.2770
17862PP      PP27966  12.449  14.770  13.221 -0.1725 -0.2115  0.2018
17863PP      PP27967   1.383   9.016  12.721  0.0812 -0.2165  0.1213
17864PP      PP27968   7.746   4.627   3.162 -0.1025 -0.1714 -0.2826
17865PP      PP27969   6.209   7.932  10.189  0.0617 -0.2237  0.0586
17866PP      PP27970   5.455   3.710   1.635 -0.1307 -0.0047  0.1030
17867PP      PP27971   3.987   3.719   3.353 -0.4047 -0.0376  0.0984
17868PP      PP27972   2.443   7.530   5.244  0.2825 -0.0179 -0.1059
17869PP      PP27973  11.911   9.927   4.449 -0.0894 -0.0283  0.3276
17870PP      PP27974  10.017   6.181   8.718  0.2353  0.0760  0.4308
17871PP      PP27975   6.353   6.389  10.134 -0.2140 -0.0470  0.1268
17872PP      PP27976   2.948   5.601   1.351  0.0479  0.2416 -0.1162
17873PP      PP27977   4.592  10.436   2.060  0.1508 -0.4162 -0.1664
17874PP      PP27978  12.080  10.746  12.263  0.2991  0.0182  0.2706
17875PP      PP27979   5.000  14.030   0.683  0.6099 -0.1149  0.1872
17876PP      PP27980   7.088   9.183   4.467  0.3599  0.2124  0.1141
17877PP      PP27981   5.912   6.001  12.553 -0.2001  0.1058 -0.0361
17878PP      PP27982   5.417   3.325   0.959  0.3917  0.0474  0.3251
17879PP      PP27983  10.014  10.406  10.108  0.2460 -0.2002 -0.3392
17880PP      PP27984   6.646  11.180  11.681  0.0684  0.1514 -0.0237
17881PP      PP27985  15.344   3.316   9.909 -0.0758 -0.0064 -0.3413
17882PP      PP27986   3.234   2.039  10.452  0.1913  0.0211 -0.2387
17883PP      PP27987  14.925   4.685  12.590  0.3028  0.0454  0.0762
17884PP      PP27988   7.991   7.819  10.636 -0.1581  0.1722  0.1417
17885PP      PP27989  10.264  10.356  12.004 -0.0738  0.2047  0.1354
17886PP      PP27990   4.807  11.677   4.454 -0.1868  0.1421  0.0399
17887PP      PP27991   5.696  10.118  10.885  0.1193 -0.0044 -0.1461
17888PP      PP27992  14.641  10.741   2.450 -0.0596  0.0738  0.0967
17889PP      PP27993   9.081   8.311   0.167  0.1031  0.0098 -0.0665
17890PP      PP27994  10.534   4.850   8.884  0.0782  0.1874 -0.0676
17891PP      PP27995   0.076   5.195   4.731 -0.2794 -0.1859 -0.0872
17892PP      PP27996  11.518   1.443   9.373 -0.0852  0.1062  0.0202
17893PP      PP27997   4.040  11.198   2.127 -0.1139 -0.0420  0.1664
17894PP      PP27998   8.271   6.866   9.757  0.2530  0.3467 -0.0635
17895PP      PP27999   5.858  13.822  11.027  0.0267 -0.0877  0.2553
17896PP      PP28000   8.250   9.371   3.377  0.3965  0.1313  0.0590
17897PP      PP28001  11.529  10.208   4.271 -0.0473  0.1811 -0.0723
17898PP      PP28002  10.223   5.246  12.787 -0.0482 -0.3514  0.0182
17899PP      PP28003   0.789  12.922   3.843 -0.2030  0.1061  0.0866
17900PP      PP28004   1.866   2.814  13.312  0.0992 -0.1069  0.0709
17901PP      PP28005   8.803   3.824   4.124  0.1600 -0.0698 -0.1197
17902PP      PP28006   2.438  13.447   4.494 -0.0507  0.1401  0.0536
17903PP      PP28007   8.037  12.963   9.651  0.1183 -0.2045 -0.0351
17904PP      PP28008   9.437   9.140   2.870  0.3802  0.0693 -0.0797
17905PP      PP28009   0.358  12.710   3.215 -0.1096  0.1103 -0.1487
17906PP      PP28010   2.030   6.580  11.408  0.1228  0.1000  0.2888
17907PP      PP28011   7.627  12.186   4.677 -0.1472 -0.4749  0.5435
17908PP      PP28012  11.203   3.535  12.527 -0.0153 -0.0252 -0.2433
17909PP      PP28013   7.394   3.919   4.159 -0.3109 -0.1812  0.0932
17910PP      PP28014   3.831   3.980  12.871 -0.0673 -0.1983 -0.1189
17911PP      PP28015   0.857  14.550  12.548 -0.0784  0.3694 -0.2246
17912PP      PP28016  15.499   8.029   5.684 -0.0235 -0.0694 -0.3347
17913PP      PP28017   5.091  15.091   0.904 -0.0448  0.1219  0.1108
17914PP      PP28018   7.567  12.188  10.979 -0.5030  0.2488  0.0601
17915PP      PP28019  11.373  12.889   4.635 -0.4725  0.1606 -0.2641
17916PP      PP28020   0.066   9.464   3.885  0.0111  0.1249 -0.2049
17917PP      PP28021   1.340  10.964   1.949 -0.2017  0.0779  0.0768
17918PP      PP28022  11.812  10.207   2.211  0.1615  0.4341  0.2092
17919PP      PP28023   9.236  12.401  10.542  0.0723 -0.1395  0.0348
17920PP      PP28024  12.245  14.573   2.216  0.3590 -0.4274 -0.0790
17921PP      PP28025  14.958  15.682   1.269 -0.1868 -0.4115 -0.0521
17922PP      PP28026   6.380   3.848   1.401  0.5084  0.1766  0.2431
17923PP      PP28027   6.428   8.926  13.437 -0.1146 -0.1522  0.0178
17924PP      PP28028   1.529  15.232   1.538 -0.0790 -0.0443  0.2354
17925PP      PP28029  15.193  10.581   1.536  0.3877  0.1633  0.2533
17926PP      PP28030   0.155  14.385   2.274 -0.4409  0.0865  0.0701
17927PP      PP28031   4.014  14.177   2.707  0.2723 -0.0943 -0.0270
17928PP      PP28032  11.130  12.830  10.510 -0.0522 -0.2206 -0.3942
17929PP      PP28033   6.228  15.485  12.056 -0.1635  0.0676  0.0495
17930PP      PP28034   0.808  10.045  11.970  0.1871 -0.0936 -0.3406
17931PP      PP28035   3.101   7.668   4.690  0.0773 -0.2681 -0.3280
17932PP      PP28036  14.472   8.441  11.516  0.0601 -0.1429 -0.0011
17933PP      PP28037   9.436   5.422   1.267  0.1682  0.2418 -0.1578
17934PP      PP28038  11.766  10.810  10.638 -0.0626 -0.1566 -0.0052
17935PP      PP28039  13.382  10.568  11.927 -0.0086  0.1125 -0.4091
17936PP      PP28040  14.882   4.575   9.339  0.0060 -0.0544  0.1532
17937PP      PP28041   5.321  14.068  12.429 -0.0147  0.0228  0.0578
17938PP      PP28042   6.852  15.334   0.413  0.2630  0.1150 -0.1591
17939PP      PP28043   9.899  13.787  12.449  0.1019  0.1790  0.1653
17940PP      PP28044   8.046  14.514  10.121  0.1661  0.1432  0.3054
17941PP      PP28045  15.731   1.607   9.390 -0.0211  0.0476  0.1686
17942PP      PP28046  10.394   8.128   4.710  0.0184 -0.1783 -0.0781
17943PP      PP28047   4.804   1.342   8.807  0.2022 -0.0203  0.1739
17944PP      PP28048  15.599   6.408  12.476  0.1520  0.1008 -0.1026
17945PP      PP28049   2.681   7.469   4.493  0.2181 -0.2934 -0.0417
17946PP      PP28050   6.052  14.154  10.091 -0.1231 -0.1656  0.1054
17947PP      PP28051   8.101   3.219  10.861 -0.0349 -0.0892  0.1808
17948PP      PP28052   8.092   9.574   2.940  0.0345  0.0227 -0.1095
17949PP      PP28053  12.817   7.335   2.229  0.1640  0.1508 -0.1949
17950PP      PP28054   5.906   6.486   1.811 -0.2561  0.0505 -0.1951
17951PP      PP28055  15.754   9.495   2.724 -0.2802  0.1736  0.0491
17952PP      PP28056  14.276  13.979   4.384 -0.0718 -0.3904 -0.0927
17953PP      PP28057  13.578  14.745   8.732 -0.0959 -0.5418 -0.0524
17954PP      PP28058   7.514   7.246   9.233 -0.1145 -0.1629 -0.3884
17955PP      PP28059  14.432  14.442  11.387 -0.1025  0.0050 -0.0394
17956PP      PP28060   2.540   4.156  11.655  0.0241 -0.2176  0.0714
17957PP      PP28061  12.875  11.180  12.032  0.1389  0.1669  0.0357
17958PP      PP28062   2.896   4.627   0.484 -0.4554 -0.0574  0.1455
17959PP      PP28063   5.264  14.039  11.927  0.5530  0.1483  0.0762
17960PP      PP28064   0.830   8.621   2.489 -0.0514 -0.2306  0.0161
17961PP      PP28065   0.104  11.911   0.778  0.0689 -0.1088  0.0294
17962PP      PP28066   9.903  12.027   3.453  0.2152 -0.1684 -0.0200
17963PP      PP28067   1.062   3.974   0.249 -0.4701  0.1412 -0.0843
17964PP      PP28068   4.065  10.138  11.484  0.0210  0.2866  0.4371
17965PP      PP28069  12.914  15.682   3.451  0.0311 -0.0550 -0.0796
17966PP      PP28070  10.787  13.743  10.652  0.2263  0.0282 -0.0218
17967PP      PP28071  11.342   4.714  10.680  0.1410  0.0174  0.1095
17968PP      PP28072   8.899   7.811   9.198 -0.0468  0.1794  0.1044
17969PP      PP28073   0.915   0.463   2.253 -0.1738 -0.1520  0.0297
17970PP      PP28074  14.887   5.835   3.120  0.3593 -0.0637  0.0688
17971PP      PP28075   5.298   1.791  12.627  0.2653  0.0273 -0.3617
17972PP      PP28076  14.230   8.851  10.122  0.4465  0.4319  0.1609
17973PP      PP28077   7.789  14.073  10.513  0.1992 -0.0689  0.0325
17974PP      PP28078   7.412  12.251   3.517 -0.3062 -0.3453 -0.0850
17975PP      PP28079  10.170   4.294   2.927 -0.1934 -0.1342  0.2054
17976PP      PP28080   4.628  14.708  12.479 -0.1479  0.0719 -0.0075
17977PP      PP28081   2.272   1.643   3.039 -0.0701 -0.1045 -0.1037
17978PP      PP28082   0.418  15.288   9.096 -0.1997  0.3285  0.2554
17979PP      PP28083   2.106   9.927  12.418  0.1867  0.0544 -0.2022
17980PP      PP28084   8.333   2.880   2.552  0.4174 -0.1398 -0.3958
17981PP      PP28085   4.041   1.436  12.379  0.0659  0.1303  0.1742
17982PP      PP28086   1.006   2.634  12.111  0.3288  0.1750  0.1538
17983PP      PP28087   8.302  11.155  12.204  0.2450 -0.1341  0.1896
17984PP      PP28088  15.085  15.034   9.226  0.2501  0.0986 -0.1420
17985PP      PP28089   6.265   0.032   8.834  0.0632 -0.1616 -0.0758
17986PP      PP28090   3.179   2.524  10.574  0.1165  0.0718  0.1802
17987PP      PP28091  14.911   1.571  11.767 -0.0187  0.2022  0.1512
17988PP      PP28092  11.073   7.934  10.955  0.0495  0.1877  0.0763
17989PP      PP28093   3.951   3.163   9.605  0.1429 -0.2354  0.1035
17990PP      PP28094  15.620  10.748   1.669  0.0559 -0.2012  0.0007
17991PP      PP28095  13.350   2.234  11.598  0.0476 -0.0843 -0.1844
17992PP      PP28096   1.558  11.651   0.254  0.0269  0.1130 -0.2937
17993PP      PP28097   6.899  11.117  13.477  0.2201  0.1366  0.0815
17994PP      PP28098  13.803  12.882   1.835 -0.0473  0.2895  0.0472
17995PP      PP28099  14.363  15.301  12.944  0.0681  0.1951  0.0300
17996PP      PP28100   4.597   9.011   0.604 -0.2354 -0.0475 -0.0468
17997PP      PP28101   1.257   3.138   0.805  0.0035 -0.1877 -0.0643
17998PP      PP28102   9.647  11.201   1.373  0.3571 -0.0536  0.0965
17999PP      PP28103  14.093  13.660   0.256 -0.2264 -0.1200  0.1255
18000PP      PP28104   3.413   9.472  12.660 -0.2046  0.0901 -0.0357
18001PP      PP28105   8.806  13.118  10.214  0.2351  0.2330  0.1491
18002PP      PP28106   2.598   6.204  12.099  0.1450  0.2879  0.3122
18003PP      PP28107   7.137  11.978  10.101  0.0623  0.2909  0.1079
18004PP      PP28108  10.659  13.374   9.910 -0.2439 -0.2349  0.0800
18005PP      PP28109  12.117   2.760   4.287 -0.2035  0.0917 -0.1216
18006PP      PP28110   5.039   1.267  12.651  0.1931  0.0694  0.3417
18007PP      PP28111  10.826  13.111  13.165  0.1412  0.0050 -0.0917
18008PP      PP28112   6.960   5.515   1.479 -0.1326  0.1486 -0.0200
18009PP      PP28113  11.974   4.815  12.001 -0.2483  0.0333  0.0371
18010PP      PP28114   7.718   6.484   2.145  0.0142 -0.0193 -0.3785
18011PP      PP28115  12.253   3.741   1.238 -0.2448 -0.0320 -0.1232
18012PP      PP28116   0.956   3.556  10.109 -0.0360  0.1838  0.1579
18013PP      PP28117   1.203   3.532  12.422  0.0432 -0.1770 -0.0007
18014PP      PP28118  10.647   4.712  10.018 -0.2176 -0.0113 -0.1469
18015PP      PP28119   2.404   5.247  10.024 -0.1030 -0.0679 -0.0611
18016PP      PP28120   2.744   0.078   2.841 -0.1247  0.1688  0.4418
18017PP      PP28121   5.849   2.290  11.715 -0.2340  0.2126 -0.0717
18018PP      PP28122   2.016   9.154   5.656  0.1136  0.1594  0.0715
18019PP      PP28123   5.395  15.241   1.741  0.0092  0.2546 -0.1194
18020PP      PP28124   7.134  12.906  12.516 -0.1401 -0.1048 -0.2439
18021PP      PP28125   9.598   5.315   0.727 -0.1655  0.0674 -0.4036
18022PP      PP28126  12.890  12.826   3.813 -0.1688  0.0010 -0.3218
18023PP      PP28127   4.741  11.940  12.049 -0.1168  0.1585 -0.3818
18024PP      PP28128  11.615  15.771  12.960 -0.3383  0.0324  0.2483
18025PP      PP28129  15.769   4.137   1.562  0.3008 -0.0057  0.1194
18026PP      PP28130  10.163  12.953  12.489 -0.1282 -0.0399 -0.2840
18027PP      PP28131   4.800  13.844   3.092 -0.2516 -0.2889  0.0613
18028PP      PP28132   5.268   1.151  12.113  0.3148  0.0310 -0.1082
18029PP      PP28133  14.127   6.493  12.572 -0.0532  0.0512  0.0137
18030PP      PP28134   5.053   7.544   3.235 -0.2763 -0.1917 -0.0130
18031PP      PP28135   5.290  11.336   4.844 -0.1083 -0.3941 -0.1241
18032PP      PP28136   2.503  10.387   0.381  0.2517 -0.1423  0.1236
18033PP      PP28137   5.340  11.424  13.277 -0.3164 -0.0281  0.2611
18034PP      PP28138  15.732   7.580   3.277  0.2542 -0.3800 -0.2381
18035PP      PP28139  10.620   9.621   9.237 -0.2852 -0.0537 -0.0704
18036PP      PP28140  10.545   9.614  12.982 -0.4017  0.3638 -0.0724
18037PP      PP28141  11.429   5.135  10.973 -0.0249 -0.0567 -0.0498
18038PP      PP28142  13.046   0.540   2.067  0.1073 -0.0811  0.1404
18039PP      PP28143   6.983   2.795  11.388  0.0605 -0.1686  0.3171
18040PP      PP28144   0.601  12.525   5.110  0.4122  0.0452  0.3033
18041PP      PP28145   3.165   1.824  11.335 -0.1893  0.0200  0.0156
18042PP      PP28146  10.248   2.917   4.042 -0.0971  0.0799 -0.2266
18043PP      PP28147   3.617  12.664   0.821  0.3293 -0.2231 -0.3392
18044PP      PP28148  14.872  14.975  11.361  0.0543 -0.5052  0.0217
18045PP      PP28149   7.349  14.161  11.627 -0.0794 -0.4691  0.1030
18046PP      PP28150   3.865  13.555  12.698  0.1937  0.1024  0.1371
18047PP      PP28151   6.594   6.255  11.894  0.1901 -0.0618 -0.3688
18048PP      PP28152   6.604   8.187  11.950  0.3226  0.0967 -0.2032
18049PP      PP28153   1.985   5.883   3.321 -0.2364  0.1843 -0.1179
18050PP      PP28154  10.725   5.028   2.743  0.3921 -0.1389 -0.2169
18051PP      PP28155   6.390   0.462   3.356  0.1765 -0.0679 -0.0557
18052PP      PP28156   1.589   8.124   4.441  0.1384  0.0067  0.2122
18053PP      PP28157   9.260   6.250  13.238  0.0087  0.1112 -0.0091
18054PP      PP28158  14.375   2.097   1.648 -0.0002  0.1817  0.4078
18055PP      PP28159   5.924   9.547   3.814  0.0024  0.2926  0.0348
18056PP      PP28160   3.070  12.054   2.398 -0.1325 -0.1397  0.1011
18057PP      PP28161   9.575  12.788  13.277  0.1579  0.0725  0.2479
18058PP      PP28162   2.205  11.740   5.126  0.3435 -0.0033  0.1589
18059PP      PP28163  13.442  11.426   1.268  0.0450  0.3158  0.0245
18060PP      PP28164  11.229  10.305   1.030  0.1292 -0.0464 -0.0886
18061PP      PP28165   8.951  15.624   9.612 -0.5207 -0.1867 -0.0105
18062PP      PP28166  13.700  11.368   1.717 -0.3431 -0.0867 -0.3178
18063PP      PP28167   6.754   5.641   4.030 -0.1531 -0.0808 -0.2058
18064PP      PP28168   4.286  13.384   3.018 -0.0169 -0.2172 -0.1814
18065PP      PP28169   7.479  12.681  11.296 -0.0465  0.1346  0.0663
18066PP      PP28170   3.658   2.232   8.895 -0.0511  0.1114  0.0667
18067PP      PP28171  10.000   5.400  11.274 -0.1925  0.0112  0.0784
18068PP      PP28172  11.225   5.131   2.763  0.0695 -0.2432  0.4534
18069PP      PP28173  13.068  12.419   1.202  0.0202 -0.2751  0.0445
18070PP      PP28174  12.402   6.459   3.513 -0.0729  0.1895  0.1988
18071PP      PP28175  11.335   9.938   0.096 -0.0559  0.1139 -0.3267
18072PP      PP28176   0.191   5.614   5.011 -0.1506  0.2148 -0.0966
18073PP      PP28177   7.859   6.935   3.404 -0.1296 -0.1121 -0.2453
18074PP      PP28178   1.019   8.298   0.286 -0.0017 -0.2613 -0.0181
18075PP      PP28179   3.713  15.191   3.416  0.0243 -0.1163 -0.0513
18076PP      PP28180   2.133   4.311  10.303  0.0196 -0.0618  0.3076
18077PP      PP28181  15.188   9.711   3.813 -0.0950  0.0080 -0.2311
18078PP      PP28182  11.569  15.687   3.456  0.1247 -0.2849  0.1426
18079PP      PP28183   0.163   7.945   5.435  0.1115 -0.2224 -0.1054
18080PP      PP28184  10.560   5.213  10.067  0.0434 -0.2094  0.0750
18081PP      PP28185  12.496   2.064  12.761 -0.1571  0.0247  0.2113
18082PP      PP28186  14.250  11.771   1.229  0.0258 -0.2114  0.1936
18083PP      PP28187   7.567  11.074   1.263 -0.0828 -0.2068 -0.0530
18084PP      PP28188  15.824  11.452  11.915  0.0590 -0.0935 -0.1391
18085PP      PP28189   0.593   8.018   4.500  0.1354 -0.0383 -0.0530
18086PP      PP28190  12.366  10.084   3.623 -0.2490  0.2701  0.2965
18087PP      PP28191  14.466   5.552   3.762 -0.0841 -0.0857 -0.0324
18088PP      PP28192   8.333   7.085   3.464  0.1408  0.0139 -0.1026
18089PP      PP28193   5.794   8.757   2.895  0.0109 -0.0810  0.0979
18090PP      PP28194   5.867   3.115   2.195  0.0257 -0.4639 -0.2489
18091PP      PP28195   2.087   7.421  13.494  0.4430  0.0929 -0.1444
18092PP      PP28196  14.771  10.369   4.220  0.2142 -0.0506 -0.1361
18093PP      PP28197   0.981  13.503   0.163 -0.0001  0.3381 -0.4296
18094PP      PP28198   5.196  12.646  12.789 -0.0265  0.4170 -0.2498
18095PP      PP28199   6.578   0.056  12.479 -0.0923  0.1793 -0.4447
18096PP      PP28200  11.693  14.076   0.669 -0.4303 -0.0311  0.1610
18097PP      PP28201  14.332  13.657   8.618  0.1431  0.3728  0.0936
18098PP      PP28202  13.906  10.454   3.674 -0.1374  0.1496  0.2714
18099PP      PP28203   8.416   2.966   9.276  0.2755  0.0192  0.1041
18100PP      PP28204   5.054   0.330  12.517  0.3391  0.0106  0.1680
18101PP      PP28205   2.183  11.390   2.257  0.4236  0.0112 -0.2764
18102PP      PP28206   4.379   0.811  11.173 -0.0378 -0.2117 -0.1265
18103PP      PP28207   7.674   2.630   9.639 -0.0742  0.0018 -0.3413
18104PP      PP28208  11.065  10.830   2.183  0.0557 -0.0244 -0.0709
18105PP      PP28209  13.429   0.735   3.493  0.0992  0.1141  0.0993
18106PP      PP28210   0.149   1.853   8.522 -0.0548 -0.1657  0.0770
18107PP      PP28211  14.431  13.213   3.258 -0.0177 -0.2500 -0.1611
18108PP      PP28212   6.289   2.753   0.224  0.1995  0.0491  0.1815
18109PP      PP28213   0.875   4.933   4.676 -0.2768 -0.1062 -0.5307
18110PP      PP28214  11.989   9.730   1.187 -0.0589  0.3605 -0.1043
18111PP      PP28215   3.160   5.338  11.514 -0.1285 -0.2641  0.0900
18112PP      PP28216   7.044  12.751   0.529 -0.0905  0.1272 -0.2140
18113PP      PP28217  13.419   6.070   1.106  0.2412  0.1328  0.0159
18114PP      PP28218  14.307   8.595  10.566 -0.2757 -0.2053 -0.0644
18115PP      PP28219   5.916  15.289   2.698 -0.1147  0.1061  0.3080
18116PP      PP28220   0.674   6.981   4.682 -0.0222 -0.2648  0.3684
18117PP      PP28221   7.107  14.018   2.578  0.3068 -0.3532 -0.0581
18118PP      PP28222   5.120   5.736  10.647  0.0834 -0.2215  0.1337
18119PP      PP28223  13.871  11.669   3.060 -0.1415 -0.1530 -0.1283
18120PP      PP28224  15.098   2.459  10.358  0.0631 -0.0578 -0.1470
18121PP      PP28225   2.803  13.852   4.331 -0.0308  0.0258 -0.3298
18122PP      PP28226   5.431   7.725   0.856 -0.0884  0.1375 -0.2160
18123PP      PP28227  14.410  15.271   3.169 -0.0268  0.1260 -0.1666
18124PP      PP28228  14.567  13.784   2.665 -0.0450 -0.0451  0.0663
18125PP      PP28229  13.626  10.721  11.056  0.1829  0.2556 -0.0760
18126PP      PP28230   1.350  11.617  13.332  0.1727 -0.3298 -0.2413
18127PP      PP28231   7.816   8.884  11.577 -0.2677 -0.2219 -0.2208
18128PP      PP28232   7.780   1.976   0.035 -0.5538 -0.2296  0.3011
18129PP      PP28233   7.730  11.638   0.054  0.2356  0.0105  0.0600
18130PP      PP28234   4.471   6.869   3.075 -0.3358 -0.1975 -0.0709
18131PP      PP28235  10.687  12.965  12.514 -0.1388  0.1614 -0.0946
18132PP      PP28236   3.127   2.212  13.049  0.2625 -0.1785 -0.3764
18133PP      PP28237   4.335   9.947  12.777  0.2905 -0.3112 -0.0500
18134PP      PP28238   5.458   5.856  12.408 -0.1694 -0.2008 -0.0420
18135PP      PP28239   3.103   0.312   3.492  0.0022  0.1774  0.0997
18136PP      PP28240   8.045   6.757   8.695  0.1523 -0.1131  0.1498
18137PP      PP28241  13.851  13.913   3.078 -0.1331 -0.0885  0.0261
18138PP      PP28242  10.454   6.377   0.860 -0.0542 -0.0617  0.0414
18139PP      PP28243  15.041   4.752   0.617 -0.0986 -0.0240 -0.0512
18140PP      PP28244   4.888   4.512  11.437  0.0537  0.1234  0.2287
18141PP      PP28245  10.783  15.124   9.508  0.0602  0.2816  0.0311
18142PP      PP28246   7.142   9.491   4.099 -0.0314  0.1319 -0.0712
18143PP      PP28247   7.722   7.795   1.625  0.0999 -0.0668 -0.0298
18144PP      PP28248  15.396   3.373   1.047 -0.0398 -0.2396  0.1930
18145PP      PP28249  12.130   1.137  11.439  0.0853 -0.3382 -0.2102
18146PP      PP28250  14.878  15.601  10.415  0.0049 -0.1195 -0.3855
18147PP      PP28251   5.460  11.551  11.037  0.2246  0.3403 -0.2045
18148PP      PP28252   6.452   2.559   1.980 -0.0291  0.0072 -0.0180
18149PP      PP28253   2.700   4.892  10.131 -0.2479 -0.0853  0.0501
18150PP      PP28254   9.304  10.026   1.876  0.3026 -0.2828  0.1972
18151PP      PP28255   4.138   4.389  10.319  0.1624  0.1001 -0.0833
18152PP      PP28256  10.542   5.395  12.150 -0.0064 -0.1137 -0.4405
18153PP      PP28257  12.878   6.482   9.980  0.1588 -0.0072 -0.2011
18154PP      PP28258   4.214   4.700   3.110 -0.2252  0.3049 -0.2825
18155PP      PP28259   6.278   9.215  11.260  0.0144 -0.1599  0.1342
18156PP      PP28260   3.673  12.561   9.377  0.1098  0.0359  0.0132
18157PP      PP28261  14.884   1.944  11.432  0.3214 -0.0517  0.1223
18158PP      PP28262   5.869  15.169   0.387  0.0249 -0.3590  0.1957
18159PP      PP28263   3.660   6.218   2.513  0.1024 -0.0098 -0.1509
18160PP      PP28264   1.115   5.405   3.635  0.1409 -0.1083 -0.1890
18161PP      PP28265   2.637   0.830  10.445  0.0403  0.2648  0.0790
18162PP      PP28266   5.289  13.100  10.871 -0.0316  0.2379 -0.0614
18163PP      PP28267  11.706  15.384   1.908  0.1063  0.0270  0.1562
18164PP      PP28268   9.006   9.325   3.916  0.0894 -0.4653 -0.1822
18165PP      PP28269   4.101   2.892   1.349  0.0161  0.2084 -0.0314
18166PP      PP28270   2.559   6.351   4.856  0.1999  0.2013  0.3357
18167PP      PP28271  14.009   4.776   9.841 -0.0976  0.0391 -0.0501
18168PP      PP28272   4.222   6.588   4.020 -0.3784 -0.3222 -0.0526
18169PP      PP28273  15.728   8.417  13.081  0.1699 -0.3337  0.1600
18170PP      PP28274   1.716  14.733   4.220  0.1764  0.0593  0.0328
18171PP      PP28275  13.202  12.233   9.074 -0.0626 -0.2045  0.0671
18172PP      PP28276   3.871   2.628  11.158 -0.1079 -0.2115 -0.0976
18173PP      PP28277   5.864   6.025  10.325 -0.3306 -0.0613 -0.1840
18174PP      PP28278   5.052   4.263   3.087  0.0317 -0.0021 -0.0640
18175PP      PP28279   9.301   2.777  13.404  0.0463 -0.0054  0.1148
18176PP      PP28280  15.006   5.728  10.950 -0.0681 -0.2765 -0.2201
18177PP      PP28281  13.079   6.936  11.170 -0.0554 -0.2939 -0.1140
18178PP      PP28282   5.185  12.571   4.343 -0.0330 -0.1320  0.4072
18179PP      PP28283   2.996   7.247   1.476 -0.0898 -0.1809  0.1384
18180PP      PP28284   0.041  10.981   4.130 -0.1309 -0.0571  0.1871
18181PP      PP28285   2.869  13.319   2.140 -0.1986  0.0604 -0.3642
18182PP      PP28286  10.126   5.135  12.250 -0.1556 -0.1405  0.1096
18183PP      PP28287   5.062   3.039  10.028 -0.0148 -0.1460 -0.0213
18184PP      PP28288  11.730   2.729  11.338 -0.0052  0.2374  0.1288
18185PP      PP28289  13.776   9.471   0.790  0.1504 -0.2706  0.1499
18186PP      PP28290  11.161   4.637  11.145 -0.2408  0.0106 -0.2288
18187PP      PP28291   1.187   1.805  10.858 -0.0508  0.0965 -0.2038
18188PP      PP28292   5.604   0.952   2.880  0.0390  0.0900 -0.1598
18189PP      PP28293  12.108   5.726   4.397  0.3304  0.0874 -0.1349
18190PP      PP28294   4.046   0.771   1.643  0.2445  0.0538  0.2189
18191PP      PP28295   2.411  14.970   3.152 -0.0842  0.0630  0.4105
18192PP      PP28296   3.923   0.267  10.196  0.0220 -0.0918  0.0641
18193PP      PP28297   8.624   1.541   0.010  0.3094 -0.1479  0.0903
18194PP      PP28298  10.286   2.713  11.781  0.1294 -0.0173  0.0537
18195PP      PP28299   5.393  11.602   3.662 -0.1390  0.1649  0.1330
18196PP      PP28300   5.646  13.215  11.966 -0.1345 -0.1836  0.0587
18197PP      PP28301   5.368   7.898  12.114 -0.0284  0.1299  0.2009
18198PP      PP28302   3.873   8.273   2.566 -0.0240  0.4888  0.2232
18199PP      PP28303  12.849  12.717  11.530 -0.0971  0.1980  0.1895
18200PP      PP28304   3.016   6.656   1.120  0.2653  0.1833  0.3145
18201PP      PP28305  13.639  13.948  13.095 -0.1423 -0.0038 -0.3379
18202PP      PP28306  14.627  13.806  11.147  0.4387 -0.1254 -0.1027
18203PP      PP28307   9.848   2.197  11.735  0.3187 -0.0792 -0.0354
18204PP      PP28308   5.142  14.156   3.482  0.1767 -0.2782 -0.0568
18205PP      PP28309   6.001   7.590   1.748 -0.2678  0.0850  0.1695
18206PP      PP28310   6.900  15.644  13.277  0.2475  0.0321  0.0577
18207PP      PP28311   9.638   1.362   9.844 -0.2548 -0.2146  0.3820
18208PP      PP28312   6.942  13.807  11.815  0.0506 -0.0028  0.1303
18209PP      PP28313   4.830   6.608   2.845  0.1610 -0.1138  0.0627
18210PP      PP28314   6.613   5.966  13.197  0.4264 -0.1643  0.0930
18211PP      PP28315  11.035   2.138   0.407 -0.0014  0.0139  0.0824
18212PP      PP28316   6.523   2.064   2.356 -0.1479  0.1640  0.2449
18213PP      PP28317  10.719   3.323   0.142 -0.0153  0.1780 -0.1159
18214PP      PP28318  12.207   6.610   9.947  0.0505 -0.2865 -0.0998
18215PP      PP28319  14.792  13.984  12.771  0.0110 -0.1675 -0.0931
18216PP      PP28320   9.012   1.611   3.869  0.0901  0.1585 -0.1636
18217PP      PP28321   3.407   6.061   0.663  0.2164 -0.0455  0.2494
18218PP      PP28322  14.555  15.379  13.376 -0.0257  0.1781  0.2236
18219PP      PP28323   8.242   0.280  12.377 -0.1904 -0.0707 -0.0089
18220PP      PP28324   1.501   4.590  10.846 -0.1113 -0.1152 -0.0357
18221PP      PP28325  15.391  12.876   2.060  0.0829  0.0405  0.0488
18222PP      PP28326   8.817   5.950   2.564  0.2933 -0.2854 -0.4158
18223PP      PP28327   4.786   9.749  13.508 -0.0975  0.1446  0.0267
18224PP      PP28328   3.795  10.444   1.838  0.0804 -0.0761  0.0159
18225PP      PP28329  12.351   3.909  13.342  0.0304 -0.1258 -0.0199
18226PP      PP28330   0.290   9.969   4.188  0.2368  0.3398  0.1084
18227PP      PP28331   6.823   3.951   3.977  0.2456  0.0522 -0.1892
18228PP      PP28332  14.416   9.058  12.639 -0.3495  0.0253 -0.0055
18229PP      PP28333   8.435  12.746   4.221  0.0384  0.0219 -0.0994
18230PP      PP28334  13.341  12.496   0.739 -0.2398 -0.0391 -0.0006
18231PP      PP28335  12.461   1.872   3.106  0.1273 -0.1103 -0.1421
18232PP      PP28336   5.394  15.266   2.689  0.1482  0.0329  0.2007
18233PP      PP28337   7.467  11.177   8.846  0.0571  0.0632 -0.1617
18234PP      PP28338  12.608   8.239   4.109 -0.2047  0.1041  0.0035
18235PP      PP28339   6.288   8.674   4.762 -0.1144 -0.0525 -0.2253
18236PP      PP28340   4.531   2.655   1.678  0.0776 -0.1926  0.3873
18237PP      PP28341  13.750   6.619   3.363 -0.0704 -0.3445 -0.2883
18238PP      PP28342   9.318   0.049   0.902  0.3203 -0.0401  0.0860
18239PP      PP28343   3.604   3.993  11.646 -0.2253  0.0123  0.0138
18240PP      PP28344   7.299  14.214   1.759  0.3208 -0.1743  0.2519
18241PP      PP28345   6.871  10.191   3.349 -0.0396  0.0472 -0.2492
18242PP      PP28346   8.860   3.119   0.884  0.1735 -0.1622 -0.0586
18243PP      PP28347   8.339  14.852  10.449  0.0792 -0.0318 -0.0854
18244PP      PP28348   8.726   3.483  11.671  0.0838  0.1585 -0.0223
18245PP      PP28349  12.778  12.828   4.332 -0.1324 -0.3497 -0.0840
18246PP      PP28350  15.763  12.886   3.404 -0.2210  0.1429 -0.0007
18247PP      PP28351   4.438  12.943   3.247 -0.1170 -0.0909 -0.2744
18248PP      PP28352  10.200  15.479   9.123  0.1595  0.2101 -0.3247
18249PP      PP28353   1.095   4.958   0.944  0.2410 -0.2218  0.1406
18250PP      PP28354  12.603   6.598   4.124  0.0985 -0.0468 -0.2543
18251PP      PP28355  11.109   4.515  11.642 -0.1427 -0.0700 -0.0282
18252PP      PP28356   8.770  10.756  12.492 -0.1940  0.0764 -0.0340
18253PP      PP28357   2.013   0.860   0.640 -0.0724  0.3191  0.2944
18254PP      PP28358   5.726   0.260  13.315  0.0579  0.1839  0.0798
18255PP      PP28359   9.185   9.225  13.254 -0.2025  0.1399  0.2732
18256PP      PP28360   5.892   6.415   3.637  0.0899 -0.1240 -0.4830
18257PP      PP28361  14.127  11.955  13.335  0.1426  0.1329  0.1867
18258PP      PP28362   9.236  12.564  11.580  0.1496  0.2468  0.0256
18259PP      PP28363  10.535   3.435   1.412  0.0120 -0.0712  0.0950
18260PP      PP28364   7.788   9.462  12.505 -0.0728  0.1957 -0.0625
18261PP      PP28365   4.051  10.759   5.214 -0.0121  0.2251  0.1574
18262PP      PP28366   0.137   0.382  12.803  0.1128 -0.0793 -0.0421
18263PP      PP28367  13.639   0.470   2.209 -0.0073 -0.0120 -0.0240
18264PP      PP28368   2.515  15.401  11.043 -0.1034 -0.0569  0.2356
18265PP      PP28369  14.877   1.781  13.025 -0.0445  0.0305  0.0122
18266PP      PP28370   4.346  13.447   0.875  0.0780  0.2156 -0.0959
18267PP      PP28371   0.971   7.609  10.415  0.1587  0.0356  0.4238
18268PP      PP28372   1.022  10.123   2.403  0.1808  0.3279  0.0801
18269PP      PP28373  15.600   2.097   3.002  0.1221  0.0196 -0.0504
18270PP      PP28374  14.036   6.777   3.794  0.1222  0.0459  0.1573
18271PP      PP28375  14.969   9.613   9.469  0.0130  0.1315  0.0122
18272PP      PP28376   1.278  13.501   1.534  0.2051 -0.2538  0.2785
18273PP      PP28377  12.525  14.650   8.916 -0.0810 -0.1316 -0.0170
18274PP      PP28378   2.748   6.763   1.512 -0.1408 -0.0422 -0.1544
18275PP      PP28379   6.389   1.304   8.037 -0.0064  0.1741  0.1652
18276PP      PP28380   5.900   3.722   1.844  0.1194  0.0500  0.0050
18277PP      PP28381   5.426   5.345  12.495  0.1304  0.1427  0.0331
18278PP      PP28382  12.990   3.456   4.939  0.3915 -0.2835 -0.0524
18279PP      PP28383   6.845   0.552  12.465 -0.1225 -0.0585 -0.1560
18280PP      PP28384   6.738  11.139  10.375 -0.1430 -0.1448 -0.1567
18281PP      PP28385  15.365   9.501  10.870 -0.1068  0.0151  0.0697
18282PP      PP28386  14.019   9.534   0.373 -0.0527  0.0098 -0.1370
18283PP      PP28387   1.443  11.535   4.244  0.1713  0.0420  0.1882
18284PP      PP28388   9.321   8.212   3.205 -0.1654 -0.3590 -0.1891
18285PP      PP28389  12.970   2.135  11.963 -0.2694 -0.0909 -0.1439
18286PP      PP28390  13.429   5.358   1.581  0.0818  0.2238 -0.1276
18287PP      PP28391   3.220   6.694  10.332 -0.1670  0.0080 -0.1706
18288PP      PP28392  12.214   9.405   0.932 -0.0530 -0.1858 -0.0488
18289PP      PP28393   8.611   8.615   0.076  0.2531 -0.1753 -0.1438
18290PP      PP28394  12.103   9.327   4.736  0.0716  0.2903 -0.0657
18291PP      PP28395  13.260   5.051   4.195 -0.0980 -0.2238 -0.0602
18292PP      PP28396   2.093   4.324  11.606 -0.1225  0.0180 -0.1479
18293PP      PP28397   9.116   9.057   4.301  0.1471  0.0381 -0.0417
18294PP      PP28398   9.619   0.205   8.781  0.1206 -0.1693 -0.0399
18295PP      PP28399  11.034   6.864  11.901  0.4552 -0.0605  0.3954
18296PP      PP28400  12.491   6.841  12.232 -0.0262  0.1055  0.2250
18297PP      PP28401   5.137   3.919   1.929  0.2088 -0.3299  0.2930
18298PP      PP28402   0.902  10.625   1.729 -0.1959 -0.0678  0.2038
18299PP      PP28403  10.308   8.702  13.461  0.1461 -0.1648  0.0507
18300PP      PP28404  10.631   6.002  10.360 -0.2848 -0.3631  0.0958
18301PP      PP28405   9.040   7.350   2.109 -0.1629  0.1085 -0.2325
18302PP      PP28406  10.759  12.732   8.991  0.0506  0.1557  0.2045
18303PP      PP28407  14.291   7.079   5.088 -0.0739 -0.0770 -0.1955
18304PP      PP28408   5.567  15.336   2.232 -0.0599  0.0124  0.2135
18305PP      PP28409   2.318   5.540   4.423  0.2437  0.2743 -0.0683
18306PP      PP28410  15.374   1.069  12.228  0.3608 -0.2085  0.0701
18307PP      PP28411   7.477  15.752   0.592 -0.1661 -0.1512 -0.0021
18308PP      PP28412   5.741  12.627  12.861 -0.2721 -0.0148  0.2468
18309PP      PP28413  12.210   1.808   0.991 -0.1108  0.1097 -0.0568
18310PP      PP28414   0.146  12.506   4.532 -0.1784  0.0494  0.0900
18311PP      PP28415   2.342  10.540   3.525 -0.0122 -0.2474  0.1132
18312PP      PP28416  12.453  14.594  11.943  0.1074  0.0457  0.0119
18313PP      PP28417  12.105   2.873  13.512  0.2232 -0.1733  0.0215
18314PP      PP28418   8.419  11.541   2.827 -0.3679  0.5070  0.1202
18315PP      PP28419   3.993   5.567  11.997 -0.1983 -0.0461 -0.2319
18316PP      PP28420  14.484   4.331  11.285  0.0461  0.3184  0.1143
18317PP      PP28421   8.589   4.358   3.776  0.1469  0.0646  0.1083
18318PP      PP28422  10.367  13.121   0.628 -0.0487 -0.1501 -0.1614
18319PP      PP28423   2.507   9.539   0.770  0.2233  0.0193 -0.0685
18320PP      PP28424   4.187   4.726   0.410  0.0429 -0.1330  0.1043
18321PP      PP28425  13.817   6.900   4.195 -0.1734 -0.3168 -0.0020
18322PP      PP28426  10.478   2.400   8.991  0.2205 -0.0426  0.0557
18323PP      PP28427  10.067  11.783   2.446  0.1692  0.2854  0.0480
18324PP      PP28428   6.800   9.923   3.945 -0.0936  0.2320  0.1501
18325PP      PP28429  12.532   5.927   4.106  0.1448  0.1373 -0.4632
18326PP      PP28430  15.294  11.006  10.737 -0.1919  0.1200  0.1636
18327PP      PP28431   8.288  13.210  12.861 -0.1266  0.0400  0.1930
18328PP      PP28432  11.857   5.818   3.488 -0.1103 -0.1665 -0.2970
18329PP      PP28433   5.467   6.326   2.785  0.0419  0.0828 -0.2751
18330PP      PP28434  14.989   2.369   0.036 -0.0868  0.0891  0.1341
18331PP      PP28435  15.550  13.466   9.555 -0.1445  0.0838 -0.2312
18332PP      PP28436   1.062   5.851  13.032 -0.1578 -0.1575 -0.2219
18333PP      PP28437   7.806  14.367   3.271 -0.1397  0.2663 -0.1553
18334PP      PP28438   1.328   9.501  13.334 -0.1753  0.1795  0.0903
18335PP      PP28439  12.544   8.918   2.681  0.2836  0.0201 -0.1419
18336PP      PP28440  14.091   0.768   0.121  0.1680  0.1168  0.0814
18337PP      PP28441   3.877  13.740   2.943  0.0324  0.0192  0.0459
18338PP      PP28442  15.682  10.648  11.370 -0.3070  0.1116  0.0988
18339PP      PP28443   6.205   5.064   3.430  0.5945  0.0826 -0.0261
18340PP      PP28444  12.876  14.381   2.518 -0.0109 -0.1398 -0.1147
18341PP      PP28445  10.615   0.135  10.543 -0.0973 -0.2078 -0.1986
18342PP      PP28446  11.355   1.397   1.367 -0.2052  0.2431  0.1846
18343PP      PP28447   2.433   7.624  12.308  0.2235  0.0495 -0.0968
18344PP      PP28448   9.748   6.247   1.491  0.2149 -0.0050  0.1245
18345PP      PP28449  13.090  15.335  11.931  0.0817  0.1598 -0.1044
18346PP      PP28450   8.307  14.517   3.294  0.0184 -0.4067  0.1973
18347PP      PP28451  10.826   1.799   2.764  0.2830  0.0011 -0.1401
18348PP      PP28452   9.652   8.630   5.481 -0.1008  0.2531 -0.0471
18349PP      PP28453  10.804   6.887   4.234 -0.1454  0.1259 -0.1947
18350PP      PP28454   3.423  15.750   1.316  0.0525 -0.0354  0.2404
18351PP      PP28455   7.520  10.407  12.184  0.2660  0.0410 -0.0112
18352PP      PP28456   4.786  11.354   1.522  0.1717  0.1969 -0.2925
18353PP      PP28457   5.015  11.240  11.043 -0.0420  0.4016  0.0880
18354PP      PP28458   7.121  12.412   9.439 -0.2048 -0.0747  0.1463
18355PP      PP28459  12.563   8.194  12.265  0.0139 -0.1072 -0.1364
18356PP      PP28460  11.346  10.427   3.820 -0.0992 -0.0172 -0.1311
18357PP      PP28461   3.690   6.990  13.394 -0.0606  0.0240 -0.0830
18358PP      PP28462   4.293  14.412   4.010  0.2860 -0.0757  0.0872
18359PP      PP28463  10.034  11.405  11.692  0.1334 -0.3391 -0.3706
18360PP      PP28464   2.905  12.478   2.128 -0.2308  0.1995  0.2330
18361PP      PP28465   3.396  15.598  11.714 -0.1377 -0.0946 -0.1894
18362PP      PP28466  10.230   7.891  11.348  0.1662 -0.1348 -0.0039
18363PP      PP28467  12.076   8.914   4.966  0.3289  0.0308  0.0020
18364PP      PP28468   2.191   2.990   9.820  0.1333 -0.1896 -0.0577
18365PP      PP28469   9.238  10.986   1.113 -0.2759 -0.2799  0.1808
18366PP      PP28470  14.617  12.232  11.305 -0.0774  0.0498  0.1364
18367PP      PP28471  14.179  14.945   3.993  0.0556 -0.1025 -0.0457
18368PP      PP28472   8.703   5.071   1.234  0.0767  0.1626  0.1437
18369PP      PP28473   2.562  14.487   2.414 -0.3488  0.0724  0.1216
18370PP      PP28474   8.030  15.699   0.460  0.0556 -0.1137 -0.0178
18371PP      PP28475   5.042   9.738   4.772  0.0726 -0.0205  0.1518
18372PP      PP28476   9.503   4.834   8.875  0.0489 -0.1820 -0.1949
18373PP      PP28477   1.938   8.876  10.559  0.3301 -0.0894  0.2710
18374PP      PP28478   4.188  11.991  11.949 -0.1195 -0.0154 -0.1846
18375PP      PP28479  15.440   5.846   4.250 -0.1091  0.2479 -0.0575
18376PP      PP28480  15.146   1.892  13.525 -0.1636  0.0709 -0.0091
18377PP      PP28481   5.141  14.881   7.782 -0.0408 -0.3363 -0.1239
18378PP      PP28482   9.918   6.935   9.663  0.1757 -0.0629  0.0829
18379PP      PP28483  12.254   2.542  12.716  0.1556 -0.0823 -0.1533
18380PP      PP28484   3.102   7.521  13.141  0.1231 -0.0622  0.0927
18381PP      PP28485  13.996   4.985   4.642 -0.1505 -0.1762  0.1176
18382PP      PP28486  10.178  14.824  10.935 -0.0159 -0.0297 -0.1844
18383PP      PP28487   9.661  14.857  11.056 -0.1952 -0.0890  0.1682
18384PP      PP28488   6.184  13.298  11.770  0.0789  0.1672 -0.0009
18385PP      PP28489   9.500  10.017  10.522 -0.1129  0.1301  0.1039
18386PP      PP28490   2.747  13.667  12.246  0.1371 -0.1102  0.1147
18387PP      PP28491   5.780  12.838   1.111 -0.3165 -0.0258 -0.1078
18388PP      PP28492   5.990  11.985   1.762  0.0329  0.1084 -0.0005
18389PP      PP28493   8.683  10.454   9.265  0.1714 -0.1968  0.1489
18390PP      PP28494  14.327   0.261  12.822  0.0060 -0.1560  0.1572
18391PP      PP28495  15.165   3.500  10.437 -0.0363  0.0901 -0.4708
18392PP      PP28496   5.289   2.787   9.548 -0.1653  0.1422 -0.1191
18393PP      PP28497   0.355   8.206   1.054 -0.3460  0.1698  0.2843
18394PP      PP28498  12.328   0.678   0.932  0.0006  0.0649  0.0657
18395PP      PP28499   9.935   9.909   1.044 -0.0396 -0.1745  0.3164
18396PP      PP28500   0.063   8.311  12.464  0.0546 -0.1801  0.1097
18397PP      PP28501  12.559  14.100  12.311  0.0011 -0.0092 -0.0925
18398PP      PP28502   2.379  11.277   2.733  0.4890  0.2214 -0.3123
18399PP      PP28503   7.716   7.087   2.778  0.0485 -0.1247  0.1445
18400PP      PP28504   7.093   7.409  10.778 -0.1298 -0.0102  0.0043
18401PP      PP28505  15.098  12.451   2.106  0.1409 -0.3100 -0.1518
18402PP      PP28506  14.585   0.553   2.366  0.3224  0.2142 -0.1685
18403PP      PP28507   0.705   4.799  12.083  0.3109 -0.3862  0.2239
18404PP      PP28508  11.538   5.591   1.916  0.0012  0.2750  0.1063
18405PP      PP28509   6.942  10.622  11.444  0.0847  0.4306  0.1035
18406PP      PP28510  14.240   7.394   1.386 -0.1274  0.0362 -0.4152
18407PP      PP28511   5.053   6.487  12.755  0.0387 -0.0422  0.0549
18408PP      PP28512   8.969  13.318   3.467  0.1044 -0.0074  0.1658
18409PP      PP28513   2.655   0.716   0.292 -0.0387 -0.0468  0.0656
18410PP      PP28514  12.626   9.152   2.195  0.2184  0.3876  0.0895
18411PP      PP28515  11.345  11.050   2.642  0.0376 -0.2156  0.0807
18412PP      PP28516  13.351  11.770  11.116  0.0762  0.1575  0.1500
18413PP      PP28517  13.231   8.104   3.280 -0.1138 -0.1724  0.1235
18414PP      PP28518   2.114   9.788  10.493 -0.2176 -0.0833  0.4674
18415PP      PP28519  12.169   9.358  11.067 -0.1115  0.1356  0.2637
18416PP      PP28520  13.561   4.921   1.930 -0.0701  0.2259  0.2109
18417PP      PP28521   4.317  14.515   3.549  0.1674 -0.1464  0.0405
18418PP      PP28522   5.837   0.479   1.360 -0.0256  0.1427 -0.4167
18419PP      PP28523  13.989  12.714   4.427  0.1449  0.3276  0.2916
18420PP      PP28524  10.438   7.831  12.669 -0.2985  0.0765  0.0048
18421PP      PP28525   9.075   2.674   1.193  0.0404  0.2536 -0.0220
18422PP      PP28526   6.767   9.091   1.555 -0.0333 -0.3274  0.0255
18423PP      PP28527   9.325   6.757  13.253  0.0123  0.0454  0.1390
18424PP      PP28528  12.839  12.385   1.780  0.1098 -0.2287  0.2634
18425PP      PP28529   3.153  15.400   9.205 -0.1694  0.0241 -0.2913
18426PP      PP28530   1.441  15.660   1.254 -0.2370  0.1185  0.0315
18427PP      PP28531   6.205   2.483  12.880 -0.1032 -0.0700  0.2143
18428PP      PP28532   7.742  14.589   8.007 -0.0674  0.1333  0.2724
18429PP      PP28533   3.394   7.872  10.371  0.1642 -0.4291 -0.3634
18430PP      PP28534  14.555  14.895   9.409  0.1145 -0.2221  0.2155
18431PP      PP28535   1.323   1.100   3.336  0.1638  0.0315  0.0454
18432PP      PP28536   4.989  13.356   1.807  0.0090 -0.2362  0.1024
18433PP      PP28537   6.095   9.789   0.066  0.0308 -0.2984  0.0150
18434PP      PP28538   5.299   9.379   5.183 -0.0466 -0.1387 -0.0596
18435PP      PP28539   0.287   7.180   4.362  0.0833 -0.2794  0.1545
18436PP      PP28540   0.417   9.231   2.673  0.0260 -0.3345  0.1334
18437PP      PP28541   8.626  13.679   8.941  0.1666  0.0302  0.2507
18438PP      PP28542   5.077  12.713  11.119  0.1090  0.2616 -0.0102
18439PP      PP28543   4.962   5.644  12.624  0.0542 -0.4207 -0.3649
18440PP      PP28544   4.612  14.976   0.208 -0.3067  0.1686 -0.2154
18441PP      PP28545   0.691   0.983   0.305  0.3018 -0.2155  0.4922
18442PP      PP28546   8.208   6.305  12.981 -0.0573 -0.4837  0.0597
18443PP      PP28547  14.522  11.311   0.345  0.3709  0.0332 -0.2713
18444PP      PP28548   6.871  10.675  10.246 -0.0398 -0.1927  0.3837
18445PP      PP28549   0.108   4.456  13.029 -0.1971  0.2291 -0.1730
18446PP      PP28550   7.880   0.709   0.160  0.1680 -0.2696  0.1133
18447PP      PP28551   7.455   6.454   3.819 -0.0399 -0.3485  0.1565
18448PP      PP28552  14.891  14.892   1.801 -0.1386 -0.0537 -0.0893
18449PP      PP28553  10.069  15.589   3.121 -0.0645 -0.3516 -0.2719
18450PP      PP28554   2.564   3.123  10.152 -0.0410  0.2649  0.0036
18451PP      PP28555   2.904   7.654  12.205  0.0635  0.2872  0.1052
18452PP      PP28556   2.994   0.764  10.018  0.1897  0.0121 -0.0494
18453PP      PP28557  13.788   0.083   0.511  0.5173  0.2354 -0.1477
18454PP      PP28558   9.239  10.157   9.461 -0.2674  0.0169  0.0385
18455PP      PP28559   5.102  11.152   2.422 -0.0584  0.0049 -0.1208
18456PP      PP28560   8.335   2.675   8.814  0.1326 -0.3299  0.0997
18457PP      PP28561   5.377   8.045   0.503  0.0476  0.1034  0.2080
18458PP      PP28562  12.707   5.974  11.454  0.3766  0.3749 -0.0786
18459PP      PP28563   0.193  11.047  11.351 -0.0011  0.0288  0.0140
18460PP      PP28564   4.381  14.476   3.042 -0.0186 -0.0880  0.2668
18461PP      PP28565   6.635   6.162   4.154 -0.0119  0.2749 -0.0775
18462PP      PP28566  11.782   4.719   0.423  0.0343 -0.3902 -0.1429
18463PP      PP28567   4.962   8.041   3.350  0.0426  0.1247  0.2102
18464PP      PP28568   8.309  12.098  11.973  0.1128  0.1297 -0.0436
18465PP      PP28569   4.043  12.897   0.566  0.2755 -0.2490 -0.3709
18466PP      PP28570  10.798  13.765   1.220 -0.2238 -0.2048  0.0537
18467PP      PP28571   3.201   7.127  10.645  0.1361 -0.2292 -0.0725
18468PP      PP28572   4.403   0.683   0.246  0.1934  0.2053  0.0796
18469PP      PP28573  11.517   0.286   9.914 -0.0648 -0.3029  0.2160
18470PP      PP28574   7.018   2.255  13.007 -0.0439 -0.0256 -0.0776
18471PP      PP28575  12.201   5.861   0.879  0.0590 -0.3391 -0.0551
18472PP      PP28576   3.319   6.143   3.538 -0.1004 -0.0096  0.1015
18473PP      PP28577  15.704   4.445  11.890 -0.0568 -0.0604  0.1437
18474PP      PP28578   9.845  13.273  13.381  0.2344  0.2795 -0.1617
18475PP      PP28579  14.911  11.522   3.518  0.4419  0.1695 -0.2097
18476PP      PP28580   9.731  15.230   3.525 -0.1554  0.0016  0.2036
18477PP      PP28581   6.570  10.767  12.546 -0.1605  0.0455  0.0288
18478PP      PP28582  14.369   8.342  12.038  0.0799 -0.3065  0.2038
18479PP      PP28583   3.150  11.064   4.666 -0.2703 -0.0367 -0.3505
18480PP      PP28584   9.376  13.498   3.263 -0.1671 -0.1093 -0.2092
18481PP      PP28585   0.815   1.585   1.175 -0.0506  0.2586  0.0241
18482PP      PP28586  13.147  10.426   3.030  0.0837 -0.0420  0.2008
18483PP      PP28587   2.252   9.453  12.496 -0.1085  0.1364 -0.2496
18484PP      PP28588   7.970  12.204   1.163 -0.0487 -0.1413 -0.1820
18485PP      PP28589   6.059  14.229  11.842  0.1141  0.0198 -0.1492
18486PP      PP28590  10.553   8.382   2.519  0.0268  0.2180 -0.0573
18487PP      PP28591   8.614  12.092   8.861  0.1129  0.1319  0.0882
18488PP      PP28592  12.656   6.024   0.615 -0.0446  0.0287  0.1486
18489PP      PP28593   4.467   3.267   0.089 -0.0844 -0.0495  0.1522
18490PP      PP28594  10.841   2.142  10.456 -0.0770 -0.0843 -0.0456
18491PP      PP28595   2.840   8.710  10.401  0.0197  0.2639  0.0245
18492PP      PP28596   8.614  14.096   3.167  0.0986 -0.1615  0.0207
18493PP      PP28597   9.466   3.853   0.124 -0.0129  0.2866  0.2833
18494PP      PP28598   9.681  15.255  10.672 -0.1846  0.1208  0.1678
18495PP      PP28599   8.925   6.136   9.066 -0.0870  0.3447  0.0304
18496PP      PP28600  13.351   0.051   1.812  0.2166 -0.1970 -0.1584
18497PP      PP28601   8.857   4.977  10.707  0.0810  0.2138 -0.2635
18498PP      PP28602   5.687   3.795   2.376  0.0673  0.0674  0.3015
18499PP      PP28603   9.545   0.860   9.456  0.0043  0.0754 -0.2302
18500PP      PP28604  13.209   4.450   1.857 -0.1012  0.1119 -0.0139
18501PP      PP28605   2.721  11.252   4.450 -0.3043  0.1404  0.0304
18502PP      PP28606  14.804   3.369   3.772 -0.1041 -0.2624 -0.2087
18503PP      PP28607   3.199   6.799  13.415  0.0878 -0.0832 -0.1575
18504PP      PP28608   2.967   9.165  11.491 -0.3193 -0.0572  0.0779
18505PP      PP28609  13.009   6.490   9.237  0.3810  0.0088  0.0312
18506PP      PP28610   5.912   8.435   0.897 -0.2051  0.2948 -0.0603
18507PP      PP28611   3.062   6.025   2.103  0.3633 -0.1056  0.0232
18508PP      PP28612   7.521  10.288  10.794 -0.1685 -0.0469 -0.1222
18509PP      PP28613   5.958  14.740  11.679  0.1057  0.0765  0.1460
18510PP      PP28614  12.001  15.530   2.394 -0.1305  0.0213 -0.2293
18511PP      PP28615   1.449  14.635  10.464 -0.1262 -0.0390  0.1353
18512PP      PP28616   3.564  10.263  11.575 -0.0242  0.1140  0.2516
18513PP      PP28617   0.030  11.302  12.402  0.0422  0.2836  0.1110
18514PP      PP28618   5.396  13.271  12.956  0.1625 -0.3963 -0.0932
18515PP      PP28619   4.940   4.528   2.642 -0.0887  0.0434 -0.2777
18516PP      PP28620   3.730   6.340   9.609  0.2268 -0.0085  0.3303
18517PP      PP28621   6.091   5.565   3.379  0.0185 -0.0494 -0.0229
18518PP      PP28622   7.212   1.504  12.449  0.1626 -0.1078  0.0593
18519PP      PP28623  10.508  15.728   9.509  0.0336  0.1715  0.3406
18520PP      PP28624  14.587   7.441  10.383  0.0570  0.0456  0.0864
18521PP      PP28625   6.209  15.196  10.159  0.0996  0.0079  0.2242
18522PP      PP28626  11.965   1.639  11.433  0.0217  0.0664  0.0400
18523PP      PP28627   0.928  13.733   2.605  0.2270  0.0352  0.2955
18524PP      PP28628  14.764   7.004   0.205  0.0895  0.1383  0.1913
18525PP      PP28629  14.200  10.983  12.719  0.1827  0.3524  0.1728
18526PP      PP28630   4.646   0.050  13.417  0.2375  0.1608  0.1393
18527PP      PP28631   3.755   5.824   3.463  0.0175 -0.1161 -0.0252
18528PP      PP28632   8.253  13.400   2.738 -0.0170  0.0842  0.0746
18529PP      PP28633  14.650  10.962   5.087  0.1854  0.0807  0.0216
18530PP      PP28634   3.169   2.109   3.344  0.3334  0.0977  0.2179
18531PP      PP28635   1.798  12.601  11.851  0.4225  0.0692 -0.1652
18532PP      PP28636  10.956  11.739   9.860  0.2355 -0.0268 -0.1378
18533PP      PP28637   8.125   0.753  10.422 -0.3967  0.0357  0.2281
18534PP      PP28638   5.425   1.954  13.113  0.1393 -0.2144 -0.0897
18535PP      PP28639   5.393  15.315   0.225 -0.0126  0.2386  0.1496
18536PP      PP28640  12.553   0.385   1.410 -0.2056 -0.0493 -0.1172
18537PP      PP28641   4.982  12.519   2.637 -0.0386  0.1748  0.2931
18538PP      PP28642  14.275   3.978   4.549  0.0207  0.2716 -0.3623
18539PP      PP28643  15.119  10.248  10.312  0.1043  0.1398  0.0943
18540PP      PP28644  15.198   6.800   5.417  0.0156  0.1670  0.1310
18541PP      PP28645   8.450  10.567   0.295 -0.2181  0.1357 -0.1098
18542PP      PP28646   9.476   3.291   2.701 -0.1898  0.3076 -0.0807
18543PP      PP28647   8.307  14.379   9.379 -0.0362 -0.0734  0.0746
18544PP      PP28648   1.859   5.833   9.771  0.0350  0.0142 -0.0019
18545PP      PP28649   6.243  12.372   2.892 -0.2028  0.0841 -0.1562
18546PP      PP28650  13.938  11.056   9.205  0.0296  0.2430  0.0482
18547PP      PP28651   8.092  12.431   8.730  0.0548 -0.0188 -0.2480
18548PP      PP28652  12.364  12.569  11.202 -0.1144  0.5181 -0.0668
18549PP      PP28653   2.978  12.126   9.776  0.2968  0.0866  0.1011
18550PP      PP28654   4.468  13.555   3.493  0.0649 -0.1703 -0.2555
18551PP      PP28655   8.334  12.240   0.783  0.0768  0.2393  0.0671
18552PP      PP28656  12.353  10.403   9.765  0.3071  0.2673  0.2073
18553PP      PP28657   8.132   0.167   3.301  0.1489  0.0255  0.1348
18554PP      PP28658  12.042   6.764   1.224 -0.0360 -0.0610  0.4468
18555PP      PP28659   8.067   7.990  11.562 -0.3815  0.1042 -0.2399
18556PP      PP28660  12.372   7.014  12.842  0.0909  0.2198 -0.1726
18557PP      PP28661   1.305   1.616   2.822 -0.2605 -0.1630 -0.0530
18558PP      PP28662   8.906   1.059   3.196 -0.2200 -0.0677 -0.1133
18559PP      PP28663   1.392  14.144  12.776 -0.0283  0.2949  0.2205
18560PP      PP28664   1.039   4.079   9.453  0.0315  0.1645 -0.0342
18561PP      PP28665  14.520   7.406   0.477 -0.1284  0.0248 -0.0169
18562PP      PP28666   9.947   7.671   1.058 -0.1801  0.0083 -0.0246
18563PP      PP28667  11.461   2.705   3.277  0.0543 -0.0871  0.1550
18564PP      PP28668   4.897   2.021  11.453 -0.0383 -0.0554  0.3118
18565PP      PP28669   2.629   7.665   1.200 -0.1816 -0.0821 -0.0756
18566PP      PP28670   7.698   3.477   9.295 -0.0168  0.0517  0.3399
18567PP      PP28671   3.779   5.536   3.000 -0.0005 -0.1981 -0.1315
18568PP      PP28672   2.758  14.840   0.516  0.3197  0.1031 -0.0120
18569PP      PP28673  11.012   3.579   1.741 -0.2629  0.0353 -0.1103
18570PP      PP28674   4.837  13.858  11.714  0.2257 -0.0496  0.0093
18571PP      PP28675   2.034  10.121   4.933  0.1177 -0.0663  0.1015
18572PP      PP28676   6.027   0.648  11.268 -0.3530  0.2124  0.1226
18573PP      PP28677  12.799  12.437   9.429  0.0349 -0.1928 -0.1490
18574PP      PP28678   8.015   8.750   3.432 -0.1896  0.6075  0.1293
18575PP      PP28679   4.133   1.379   9.805 -0.2764 -0.0535 -0.1862
18576PP      PP28680  15.276   2.555  12.813 -0.0670 -0.0623  0.2823
18577PP      PP28681  14.379   0.355   9.408 -0.2008 -0.0778 -0.1481
18578PP      PP28682  15.448  10.237   0.761 -0.1509 -0.0374 -0.2258
18579PP      PP28683  14.183  15.104  10.737 -0.0389  0.0949  0.1097
18580PP      PP28684  11.842   9.645  12.148 -0.0178 -0.2538 -0.0513
18581PP      PP28685  13.324  11.619   4.131 -0.0624 -0.1572 -0.1604
18582PP      PP28686  12.134   5.462  11.235  0.1009  0.2188  0.1362
18583PP      PP28687  14.430   4.787   4.914 -0.1195  0.2721  0.1148
18584PP      PP28688   7.938   9.843   2.445 -0.1692  0.2274 -0.2564
18585PP      PP28689   4.320   2.454   9.739 -0.1629  0.1156  0.0871
18586PP      PP28690   1.757   2.253  13.314  0.4617 -0.0750 -0.0694
18587PP      PP28691   4.166   0.957  11.650  0.0691  0.1536 -0.4365
18588PP      PP28692   2.585   5.708   0.920  0.2249 -0.1269 -0.0589
18589PP      PP28693   0.286   5.748  11.402 -0.0854  0.1646 -0.2052
18590PP      PP28694   9.907   0.045   1.671  0.3323  0.2270 -0.0405
18591PP      PP28695   2.191   7.624  12.847  0.1430  0.1432  0.0757
18592PP      PP28696  10.054  11.540  11.229 -0.1957 -0.1342  0.2784
18593PP      PP28697   0.239   3.110   1.107 -0.0278 -0.1834 -0.0533
18594PP      PP28698   8.744  11.710   9.271 -0.0846 -0.0268 -0.3421
18595PP      PP28699   2.858  14.928   2.324  0.2303 -0.1278 -0.3220
18596PP      PP28700  13.801  14.654  12.635 -0.2734  0.0717 -0.1950
18597PP      PP28701  11.313   1.111   3.850 -0.0293 -0.2010 -0.1963
18598PP      PP28702   0.161   9.626   0.343  0.2335 -0.0668 -0.5745
18599PP      PP28703  10.101   4.430   9.352 -0.0618  0.0708  0.0576
18600PP      PP28704  13.554   3.586   4.711 -0.2963  0.0840 -0.0622
18601PP      PP28705  11.216   6.463  12.614  0.0116 -0.1144 -0.0318
18602PP      PP28706  15.483   9.532   5.919  0.1808  0.2156  0.0034
18603PP      PP28707  13.335  11.674   1.724  0.0021 -0.0304  0.2997
18604PP      PP28708   0.667   1.778   3.431  0.1638 -0.4194 -0.1177
18605PP      PP28709   5.533  10.754   3.178 -0.0702  0.4424 -0.1474
18606PP      PP28710  13.712  14.171  10.243 -0.1370 -0.2117 -0.2859
18607PP      PP28711   2.445   8.164   3.734  0.3079 -0.1998  0.2471
18608PP      PP28712   8.471   2.421   3.126  0.1404  0.1884 -0.0578
18609PP      PP28713  13.574   2.567   0.492  0.0581 -0.0134 -0.0530
18610PP      PP28714   9.311   6.467  12.739  0.1862  0.0389  0.1041
18611PP      PP28715  11.555   6.742  11.276 -0.0789 -0.1149  0.0008
18612PP      PP28716   4.055  14.068   8.368 -0.2006  0.0594 -0.3397
18613PP      PP28717   4.477   9.044   3.425 -0.1179  0.2303 -0.0181
18614PP      PP28718   3.840  13.991   1.077  0.0401  0.1590 -0.0791
18615PP      PP28719   3.898  13.738   9.910  0.0287 -0.1281  0.1867
18616PP      PP28720   9.367  12.124   3.951 -0.0476  0.1926 -0.0860
18617PP      PP28721   0.740  10.996   4.751  0.1460  0.1632 -0.1027
18618PP      PP28722   5.488  11.389   1.971 -0.1104  0.2345 -0.0810
18619PP      PP28723  14.582   4.939   1.635  0.1265  0.2786  0.0940
18620PP      PP28724   5.735  12.988  13.335 -0.1164 -0.2629  0.2238
18621PP      PP28725  12.079   0.841   9.700  0.0095 -0.2147  0.0391
18622PP      PP28726   2.858   5.158   9.711  0.0943 -0.0075  0.4663
18623PP      PP28727  14.838   7.052   4.269 -0.1289 -0.2395 -0.1791
18624PP      PP28728  10.216  12.171   1.270  0.0233  0.0288  0.0995
18625PP      PP28729  13.805   9.825  12.228 -0.1329 -0.1220  0.3081
18626PP      PP28730   6.121   1.708   0.759  0.0250 -0.0387 -0.0811
18627PP      PP28731  14.137   5.347  13.075  0.3234 -0.1268 -0.1756
18628PP      PP28732   6.563   3.926   2.437  0.3516  0.2145 -0.0840
18629PP      PP28733   9.278  14.562  11.243  0.0630  0.0372 -0.0232
18630PP      PP28734   7.033  14.204   8.537 -0.1365 -0.1105  0.0947
18631PP      PP28735   1.500  14.210   9.619 -0.3041  0.2872  0.1102
18632PP      PP28736  11.469   1.573   4.112  0.0702  0.1429 -0.0175
18633PP      PP28737   3.655   4.568   2.659 -0.2895 -0.1395  0.2677
18634PP      PP28738   3.756   1.652  11.445 -0.1513  0.2928 -0.0625
18635PP      PP28739  14.291   7.688   4.908 -0.1420  0.2148 -0.0382
18636PP      PP28740   7.368   4.867  11.385 -0.3438  0.1970  0.0387
18637PP      PP28741   8.664   4.347   4.271 -0.0237 -0.1729 -0.1181
18638PP      PP28742   0.291   0.220   0.486 -0.4206 -0.2927  0.1208
18639PP      PP28743  13.648   7.366  12.955 -0.4817 -0.0630  0.0595
18640PP      PP28744   5.299   7.917   5.045 -0.1561 -0.1238  0.1068
18641PP      PP28745   7.320  14.791   8.994 -0.2002 -0.0521  0.0323
18642PP      PP28746  13.240   8.172  12.315  0.3523 -0.2000  0.0951
18643PP      PP28747   5.116   2.284   4.302  0.2626 -0.3906  0.1298
18644PP      PP28748  12.255   3.465   2.083  0.1343 -0.0201  0.3460
18645PP      PP28749  10.159  14.379   2.421  0.3689  0.0367  0.3940
18646PP      PP28750  12.403   1.768  13.236  0.1584 -0.0081 -0.1755
18647PP      PP28751  14.143   0.300   0.058 -0.0366  0.2787  0.0254
18648PP      PP28752   6.688   6.592  12.235 -0.3062  0.0043  0.0769
18649PP      PP28753   8.951   9.743   0.237  0.0572 -0.0055  0.0564
18650PP      PP28754   5.302   9.986   0.814  0.0142  0.0647 -0.1511
18651PP      PP28755   8.055   8.535  10.705 -0.0376 -0.2591  0.1055
18652PP      PP28756   9.848  13.209   1.842 -0.4116  0.4222 -0.1965
18653PP      PP28757   9.435   8.167   0.542 -0.1854 -0.3407  0.0525
18654PP      PP28758   4.590  12.264   3.409  0.0824  0.0812  0.0040
18655PP      PP28759   5.096   0.294   2.853  0.0700 -0.2765  0.0952
18656PP      PP28760  10.803  10.931  12.687  0.2336 -0.2350 -0.1853
18657PP      PP28761   0.621   1.887  10.912 -0.0350 -0.0643 -0.0230
18658PP      PP28762  12.298   8.787  11.047 -0.3491 -0.2686  0.2012
18659PP      PP28763   1.425   1.025  12.261  0.3727 -0.0732  0.0318
18660PP      PP28764   1.407  15.832   2.125 -0.0948 -0.1607  0.0720
18661PP      PP28765  10.087   5.151  10.242 -0.1889  0.1119 -0.0304
18662PP      PP28766  15.743   2.027  13.344 -0.1923 -0.1307 -0.0214
18663PP      PP28767  10.730   3.034   1.142  0.1245 -0.1672  0.1005
18664PP      PP28768   7.674  14.361   3.857  0.2170  0.1450 -0.1179
18665PP      PP28769  10.145  14.334  13.290  0.0624 -0.0030 -0.3110
18666PP      PP28770   1.018  11.499   3.992  0.0285  0.4513 -0.0862
18667PP      PP28771   7.628   5.622   2.896  0.0691 -0.4059  0.3769
18668PP      PP28772   3.598   7.141   5.391 -0.1938 -0.2003  0.1425
18669PP      PP28773  13.513  10.151   4.789 -0.2158  0.0358 -0.1030
18670PP      PP28774   6.308   5.485  13.113  0.0102 -0.1754  0.1716
18671PP      PP28775   2.840  10.664   1.684 -0.0083 -0.4320  0.2042
18672PP      PP28776   2.452   3.484   2.309  0.3876 -0.1275 -0.0747
18673PP      PP28777   6.963   1.125  11.049  0.2223 -0.1295  0.2629
18674PP      PP28778   0.239   3.257  12.656 -0.2610 -0.0775 -0.1588
18675PP      PP28779   6.519   9.490   1.802 -0.2890 -0.0373  0.0991
18676PP      PP28780  13.995  14.958   3.498 -0.1109 -0.0488 -0.2201
18677PP      PP28781   5.909   8.203   3.208 -0.1727 -0.0274 -0.0376
18678PP      PP28782   1.352   4.848   2.949 -0.1296  0.2907 -0.0145
18679PP      PP28783   8.650  14.761   9.020  0.1473 -0.1847  0.1943
18680PP      PP28784  11.459  15.574  10.148 -0.0953  0.0261  0.0327
18681PP      PP28785   3.867  15.086   1.869  0.2993  0.0574  0.0114
18682PP      PP28786   8.028   4.703   2.006 -0.1389  0.0152 -0.1322
18683PP      PP28787   2.449   7.002   4.260 -0.0686 -0.0622 -0.3416
18684PP      PP28788   3.887   7.816  12.702 -0.2587 -0.3546  0.2044
18685PP      PP28789   2.413   0.485   1.456  0.0354  0.2765 -0.1547
18686PP      PP28790   6.999   9.269  10.045 -0.0249  0.3488  0.3254
18687PP      PP28791  14.950   9.944   3.027 -0.2783 -0.2401 -0.0093
18688PP      PP28792   0.748  13.092   0.350  0.1498  0.0344 -0.0323
18689PP      PP28793  15.788   6.097   2.044 -0.0807 -0.0402  0.1923
18690PP      PP28794  13.523  12.351   3.079 -0.1046 -0.2084  0.1756
18691PP      PP28795   4.073   6.279  13.319 -0.1247 -0.2425  0.4858
18692PP      PP28796   3.806   6.564   0.466  0.1751  0.0895  0.0149
18693PP      PP28797   5.822   7.772   0.423 -0.1415  0.1765 -0.0651
18694PP      PP28798  10.522   1.397  11.831  0.1029  0.1401  0.0875
18695PP      PP28799   5.889   4.417   2.591 -0.1268 -0.0721  0.3492
18696PP      PP28800  14.249  12.923   1.030  0.3465 -0.2127  0.0558
18697PP      PP28801  12.479  10.789   9.441  0.1620  0.1006  0.1306
18698PP      PP28802   1.562  14.111  13.243 -0.1415 -0.1223 -0.0760
18699PP      PP28803  12.428  13.563   4.223  0.0740  0.1095 -0.0345
18700PP      PP28804   5.276  14.094   1.107  0.0522  0.1127 -0.1069
18701PP      PP28805   2.488  12.126   4.369  0.0490  0.0157 -0.1056
18702PP      PP28806   0.234   7.984  12.830  0.0872  0.2228  0.1493
18703PP      PP28807  13.348   5.578   0.202 -0.2499  0.1374  0.1193
18704PP      PP28808   2.140   5.634   2.181  0.3086 -0.2870 -0.2320
18705PP      PP28809   7.541   5.538   3.354  0.1073  0.1812 -0.2368
18706PP      PP28810   6.090  10.444   9.186  0.1517 -0.0474 -0.1548
18707PP      PP28811   7.702  12.663   4.700  0.1220  0.0797 -0.0191
18708PP      PP28812  11.727  15.217   0.178  0.2444  0.2358  0.0624
18709PP      PP28813  15.301  13.304  10.464  0.0408  0.1456  0.0022
18710PP      PP28814   7.625   1.277  10.696 -0.1343  0.0323 -0.1263
18711PP      PP28815   0.135  15.119   3.288 -0.1396  0.0351  0.0840
18712PP      PP28816   6.821   1.717  12.800  0.0443  0.0809 -0.1376
18713PP      PP28817   7.984  11.880   4.311  0.0085 -0.0191 -0.0089
18714PP      PP28818  11.228   8.809   1.863 -0.0300 -0.1716  0.0857
18715PP      PP28819  14.804   2.968   2.879 -0.3464  0.1356 -0.1501
18716PP      PP28820   1.193   1.071  12.896  0.0854  0.1003  0.2125
18717PP      PP28821  15.556   6.255   3.270 -0.0248  0.2103  0.0736
18718PP      PP28822   0.229   2.966  10.709  0.1363 -0.0820 -0.1882
18719PP      PP28823   4.489  10.822   1.438  0.1522  0.0365 -0.0237
18720PP      PP28824  10.023   6.397   9.725  0.1034  0.0691 -0.2736
18721PP      PP28825  10.155  10.962  11.826 -0.0364 -0.1309  0.1397
18722PP      PP28826  10.904  10.552   3.985  0.2914  0.1478  0.0009
18723PP      PP28827   0.767  15.561  10.511  0.0377  0.4269 -0.0593
18724PP      PP28828   9.381  15.824   3.375  0.5667  0.3283 -0.2313
18725PP      PP28829   2.713  13.304  13.432 -0.0189 -0.2857 -0.1960
18726PP      PP28830   3.140   1.464   3.392  0.0655 -0.0610 -0.2457
18727PP      PP28831   8.398  13.627   2.163 -0.2189  0.1144 -0.3989
18728PP      PP28832  14.500   6.920   2.174  0.0007 -0.0202  0.0510
18729PP      PP28833   7.610  13.434  10.222 -0.0875 -0.0475 -0.0383
18730PP      PP28834   7.705  11.379   1.682 -0.0375 -0.1429  0.0394
18731PP      PP28835   9.737   3.329   9.070  0.1660 -0.0143 -0.1636
18732PP      PP28836   9.079   6.470   0.092  0.0596  0.0910  0.3656
18733PP      PP28837   7.537   3.229   8.025 -0.0700 -0.0127  0.0738
18734PP      PP28838   6.997  11.004   1.103 -0.2308  0.0404 -0.0517
18735PP      PP28839   7.604   0.060   1.444  0.2136 -0.1646 -0.3252
18736PP      PP28840  11.117   7.897   9.111 -0.1044  0.0323 -0.0968
18737PP      PP28841  15.115  11.032  12.558 -0.2790 -0.0632  0.1160
18738PP      PP28842  10.439   0.968  12.202  0.1234 -0.0190 -0.3449
18739PP      PP28843  15.806  12.405  11.301  0.0562  0.0447 -0.1433
18740PP      PP28844  10.051   3.110   9.463 -0.0898  0.1177  0.2510
18741PP      PP28845   8.100  11.080   3.928 -0.0929  0.2015  0.1623
18742PP      PP28846   7.121   8.572   2.750 -0.0315 -0.0599  0.2636
18743PP      PP28847   6.016   7.912   0.865 -0.0788 -0.0696  0.1762
18744PP      PP28848   5.878  15.716   7.789 -0.2734  0.2917  0.3272
18745PP      PP28849   8.786   8.626   4.110  0.0313  0.3308  0.1161
18746PP      PP28850   8.694   1.600   8.423  0.0971 -0.2015  0.0302
18747PP      PP28851  12.570   1.558   1.899  0.0936 -0.1628 -0.1117
18748PP      PP28852   6.319  11.762   2.781 -0.0846 -0.1354 -0.1212
18749PP      PP28853   1.761   0.793   2.163 -0.3326  0.1009  0.1576
18750PP      PP28854   6.309  11.837  12.558  0.1924  0.1013  0.0143
18751PP      PP28855   1.894   3.083   0.548 -0.0538 -0.1574 -0.0594
18752PP      PP28856  14.091  10.134  10.643 -0.3124  0.3193  0.0911
18753PP      PP28857  12.413   4.185   4.400 -0.2172 -0.0148 -0.0800
18754PP      PP28858   6.293   9.379  12.227  0.1023 -0.1774  0.0406
18755PP      PP28859   4.020   4.810  11.053 -0.2400  0.2273 -0.0756
18756PP      PP28860   3.903   8.435   1.854  0.0544  0.1359 -0.0957
18757PP      PP28861  10.200  12.904   3.402 -0.1542 -0.0889 -0.2712
18758PP      PP28862   2.685   7.089   3.060  0.1681  0.3482  0.4063
18759PP      PP28863  13.132   5.332   2.719 -0.4296  0.1384 -0.0168
18760PP      PP28864   7.592  11.802  11.928  0.1711 -0.2779  0.1663
18761PP      PP28865   1.833   6.019  10.766 -0.3209 -0.2900  0.1523
18762PP      PP28866   2.170  15.093  10.737  0.0797 -0.0867 -0.2406
18763PP      PP28867  15.643  13.867   2.476  0.0348 -0.2799  0.0779
18764PP      PP28868   4.593   5.631   0.319 -0.2859  0.0237  0.1932
18765PP      PP28869  10.912  12.627  13.315  0.1750 -0.1777  0.1988
18766PP      PP28870  15.389   1.759   2.559 -0.0830  0.0272  0.0494
18767PP      PP28871  13.315  13.158   1.373  0.0153 -0.1043  0.0187
18768PP      PP28872   7.858   7.639  11.892 -0.1759 -0.0130 -0.0375
18769PP      PP28873   2.920   1.580  13.011 -0.4390 -0.0922  0.0406
18770PP      PP28874   1.821   6.967   0.495  0.3700  0.0433 -0.3616
18771PP      PP28875   0.777  15.060  13.236 -0.2242  0.0726 -0.2694
18772PP      PP28876   1.934  15.706  11.734 -0.0017  0.3511 -0.1018
18773PP      PP28877  12.501   9.865   2.979  0.1322  0.3394  0.0112
18774PP      PP28878  10.002   7.912  11.846 -0.2587  0.2678 -0.0327
18775PP      PP28879   4.925   1.768  10.258  0.0664  0.1613  0.0131
18776PP      PP28880  12.998  14.208  13.281  0.4622  0.0483  0.0768
18777PP      PP28881  13.026  11.206   5.150  0.2790  0.0955  0.1096
18778PP      PP28882   1.187  14.220  10.153  0.1790  0.1391  0.1690
18779PP      PP28883   2.512   2.322  12.442 -0.0496 -0.0619  0.6048
18780PP      PP28884  11.099   2.232   9.509 -0.1718  0.3099 -0.1975
18781PP      PP28885   5.057   0.292   8.401 -0.4149  0.4084  0.0507
18782PP      PP28886  10.081  11.428   4.665 -0.2358 -0.0871 -0.1325
18783PP      PP28887   0.564   9.223   5.885  0.0921 -0.1652  0.0731
18784PP      PP28888   5.343  13.204  10.322  0.1233 -0.1222  0.1165
18785PP      PP28889   2.593  12.580   4.118 -0.2330  0.0420 -0.0490
18786PP      PP28890  13.854  12.750   0.073  0.1858  0.1923  0.0525
18787PP      PP28891  14.905   9.799  11.873  0.4116 -0.1135 -0.0325
18788PP      PP28892  10.216  11.077   9.806  0.1729 -0.0329 -0.0023
18789PP      PP28893  11.108   8.334  11.761 -0.2108  0.1247 -0.2112
18790PP      PP28894  12.695   0.926   9.312  0.0715  0.3940  0.2979
18791PP      PP28895   9.959  14.277   0.701  0.1829 -0.3013  0.1754
18792PP      PP28896   0.194   3.064  11.709 -0.1277  0.1033  0.3023
18793PP      PP28897  11.099  11.344   2.269  0.2287 -0.1451 -0.0579
18794PP      PP28898  15.830  14.652   3.350  0.1620  0.2915  0.1258
18795PP      PP28899   7.512   9.849  10.406 -0.0918 -0.0521  0.1073
18796PP      PP28900   0.034   8.018   3.782  0.0929 -0.0867 -0.0056
18797PP      PP28901   5.209  15.389   3.460 -0.1036  0.0181  0.0446
18798PP      PP28902  12.059   8.553   0.248  0.0625  0.3231  0.0046
18799PP      PP28903  14.608   7.367  12.432  0.3088  0.0083  0.0139
18800PP      PP28904  14.908  15.599   3.936  0.0764 -0.3000 -0.2263
18801PP      PP28905   4.195  11.659   3.728 -0.1429  0.0094  0.1551
18802PP      PP28906   8.264  12.722  11.704  0.0486 -0.2202 -0.2931
18803PP      PP28907   6.070   7.227   0.356  0.2782  0.1068  0.3919
18804PP      PP28908  14.784  14.919  12.218 -0.0629 -0.3495 -0.0205
18805PP      PP28909  13.773   0.319  12.681  0.0154  0.0201  0.2908
18806PP      PP28910  11.078   5.544  12.192 -0.0660  0.0296 -0.0098
18807PP      PP28911   8.465   1.418   8.853  0.0021  0.1716 -0.2440
18808PP      PP28912   1.134  12.498   1.339 -0.0757 -0.0176  0.0817
18809PP      PP28913   7.526   0.701   0.565  0.1699  0.1360 -0.1386
18810PP      PP28914   2.203   3.823  11.447 -0.0748 -0.0530 -0.1734
18811PP      PP28915   7.773   5.912  12.096 -0.0945 -0.1337 -0.3310
18812PP      PP28916   0.309  14.702   1.628  0.2096  0.0809 -0.2043
18813PP      PP28917   6.840   8.520   3.257 -0.3976 -0.1505 -0.1287
18814PP      PP28918   3.193   0.342   1.181  0.2491 -0.2595  0.0054
18815PP      PP28919   4.116   7.674   1.111  0.4777  0.2304 -0.0381
18816PP      PP28920   4.753   4.864  10.545  0.1075 -0.2607  0.2627
18817PP      PP28921   9.887  12.514   3.307  0.0528 -0.0936 -0.1250
18818PP      PP28922   1.703   1.186   1.174 -0.2011  0.1286 -0.1457
18819PP      PP28923   2.998   4.479  11.651 -0.1828  0.1202 -0.1546
18820PP      PP28924   2.953   2.599   1.658 -0.4284 -0.3865  0.0998
18821PP      PP28925   1.395   2.351  12.663 -0.3979 -0.1789 -0.2659
18822PP      PP28926   3.548  12.219  10.264 -0.0127 -0.0030  0.0496
18823PP      PP28927   4.526  15.524   8.183  0.1828 -0.0559  0.2577
18824PP      PP28928  11.795   7.057  10.937 -0.1472  0.0648  0.1011
18825PP      PP28929  10.843  10.834   2.708  0.1195  0.2706  0.3584
18826PP      PP28930   1.344   6.670   2.452  0.1701 -0.2454 -0.0349
18827PP      PP28931   9.777   9.085   2.467  0.2079 -0.2393  0.1646
18828PP      PP28932   6.396   4.559  13.457  0.1720 -0.3106 -0.0729
18829PP      PP28933  14.724   3.777   4.536  0.3035 -0.0126  0.1606
18830PP      PP28934   5.293  13.600   2.939  0.0217 -0.3896  0.0382
18831PP      PP28935   1.580   2.560   1.512  0.0600 -0.0000  0.0002
18832PP      PP28936   6.336   8.872   3.299 -0.1451 -0.0645 -0.0289
18833PP      PP28937   9.997   8.226   1.636  0.2084  0.1676 -0.0112
18834PP      PP28938   2.745  12.928   3.126 -0.3490 -0.0869  0.3862
18835PP      PP28939  15.612   2.379  11.884  0.1411 -0.2049  0.1469
18836PP      PP28940  11.581   9.997   1.078 -0.1777 -0.2921 -0.0316
18837PP      PP28941   2.924   0.396  12.267  0.1243  0.2056  0.2809
18838PP      PP28942   5.085  10.160   3.751 -0.0926  0.0233 -0.0795
18839PP      PP28943   4.872  15.354   0.530  0.2386  0.1264 -0.0575
18840PP      PP28944  14.573  11.395   1.281 -0.2479 -0.1061 -0.1476
18841PP      PP28945   5.312   6.367   1.665 -0.1297 -0.1191 -0.0210
18842PP      PP28946   5.131   6.283  12.279  0.2612 -0.0235 -0.1698
18843PP      PP28947   3.823  10.040   4.133  0.1196  0.0126 -0.0602
18844PP      PP28948   1.373   0.264  12.529  0.0543 -0.0174  0.2132
18845PP      PP28949  15.441  11.452  10.373 -0.1522  0.2271  0.2327
18846PP      PP28950   9.952   1.062  11.928 -0.0017  0.0199 -0.1694
18847PP      PP28951   1.877   1.833   9.257  0.3687  0.0090  0.1749
18848PP      PP28952  10.608  12.663  11.620  0.0717  0.0333  0.0150
18849PP      PP28953  10.754   3.588  10.802  0.1315  0.4136  0.1248
18850PP      PP28954   8.196  11.991   9.144 -0.1084  0.1512 -0.1582
18851PP      PP28955   3.763   2.524  11.928  0.1000 -0.1482 -0.2734
18852PP      PP28956  14.551  10.852   3.200  0.1160 -0.0946  0.1268
18853PP      PP28957   5.931   7.725  10.535  0.0886  0.1351 -0.1280
18854PP      PP28958   1.779  14.520  12.613  0.1011  0.0690  0.2090
18855PP      PP28959   1.615   6.045   5.284  0.2070 -0.3159 -0.3102
18856PP      PP28960  14.558  14.777   4.270  0.3393  0.1962 -0.0910
18857PP      PP28961   9.685  15.675  10.418 -0.0321 -0.0135 -0.1481
18858PP      PP28962   6.553   8.050  13.170  0.0876  0.0971 -0.2532
18859PP      PP28963  14.206   3.798   1.008  0.1447 -0.2028 -0.0229
18860PP      PP28964   2.625   0.332   3.347  0.1958  0.0059 -0.2073
18861PP      PP28965   6.145   8.864   0.837 -0.2289 -0.2547 -0.4917
18862PP      PP28966   0.093   5.741   1.631  0.2253  0.0380 -0.2691
18863PP      PP28967  13.662   4.004   9.706  0.1378 -0.2686  0.1460
18864PP      PP28968  12.342  12.856   3.470  0.3364 -0.2242  0.0900
18865PP      PP28969  11.940   8.049   0.044 -0.2667 -0.2574 -0.0120
18866PP      PP28970   9.434   5.988  12.802 -0.2153  0.0660 -0.1633
18867PP      PP28971  14.523   8.588  12.445  0.2403  0.1743 -0.2625
18868PP      PP28972  11.500   3.885   9.073 -0.1456  0.1944  0.0601
18869PP      PP28973  12.271   5.628   3.320 -0.2455 -0.0174  0.1381
18870PP      PP28974   5.828  13.533   3.599  0.3699  0.0937  0.1612
18871PP      PP28975  12.098   2.992   3.791 -0.1369  0.1196 -0.6166
18872PP      PP28976  13.567   5.662  10.975  0.3793  0.2719  0.0056
18873PP      PP28977  10.132  15.592  12.284 -0.0111 -0.0002 -0.0212
18874PP      PP28978   9.777   2.091   1.485 -0.1916  0.3492  0.1826
18875PP      PP28979  10.407   7.512  11.824  0.2091 -0.2239  0.1146
18876PP      PP28980  15.687   5.659   1.162 -0.1470  0.3113  0.1976
18877PP      PP28981  11.343   7.849   2.071  0.1273  0.1317  0.3336
18878PP      PP28982   4.330  13.153   1.329 -0.0507  0.2810  0.3098
18879PP      PP28983  11.568  11.322   4.945  0.0387 -0.1950  0.1360
18880PP      PP28984  11.274   7.761  12.133  0.0110 -0.0353  0.0120
18881PP      PP28985  14.641  12.074   2.933 -0.2744  0.2568  0.1822
18882PP      PP28986   0.548   0.146  10.336  0.1210  0.1120  0.2381
18883PP      PP28987   9.014  12.171  11.359 -0.0538 -0.1495 -0.2730
18884PP      PP28988  14.846   1.974   0.450 -0.1373  0.1068  0.1058
18885PP      PP28989   4.436   9.912   4.950  0.0509  0.1318  0.1227
18886PP      PP28990   0.535   2.323  10.672  0.1999 -0.1129  0.1242
18887PP      PP28991   6.400   3.723  11.770 -0.0594  0.1554  0.0870
18888PP      PP28992   7.123  15.296   1.510  0.2521 -0.1955  0.1134
18889PP      PP28993   6.082   6.219   9.328 -0.2175  0.0014  0.2929
18890PP      PP28994   4.771  14.781  11.137 -0.0742 -0.2711  0.1487
18891PP      PP28995  15.703  14.472   1.530 -0.2047 -0.0145  0.1272
18892PP      PP28996   0.796   3.076   0.510 -0.2046 -0.2258  0.2843
18893PP      PP28997  15.321   0.137   7.868  0.0189  0.1493  0.4412
18894PP      PP28998   8.163  14.053   9.769 -0.1016 -0.3900 -0.0809
18895PP      PP28999  11.730   2.424   4.238 -0.0567  0.2110 -0.3757
18896PP      PP29000   8.025  13.778  10.166  0.3508  0.1242 -0.0424
18897PP      PP29001   3.227   0.782  11.582 -0.0358 -0.2734  0.0740
18898PP      PP29002  12.288  11.747   5.115 -0.1976  0.0565 -0.0135
18899PP      PP29003   4.705   6.368  13.229 -0.2170 -0.2245  0.2187
18900PP      PP29004  11.001   2.304  10.052  0.2495  0.1319  0.3430
18901PP      PP29005   9.487   7.256  11.306  0.2750  0.0446  0.0461
18902PP      PP29006  11.429  11.134   9.556  0.1253  0.0156 -0.3283
18903PP      PP29007  10.926   1.367   3.019 -0.0314  0.3829  0.2474
18904PP      PP29008   5.207   2.606  13.274  0.0640  0.2076  0.3375
18905PP      PP29009  10.756   2.417   0.066  0.2201  0.4865 -0.1325
18906PP      PP29010   6.086  15.583  11.609 -0.0963 -0.3807  0.0583
18907PP      PP29011   3.985  15.450   3.121 -0.0646 -0.0092  0.0875
18908PP      PP29012   5.186   3.552   4.389  0.2590 -0.2622  0.0371
18909PP      PP29013   7.963   5.267   3.171  0.0172  0.2594  0.2228
18910PP      PP29014   4.437   0.475   9.305 -0.0524 -0.0314  0.1811
18911PP      PP29015  15.358  11.195   4.262 -0.0705  0.2865 -0.1441
18912PP      PP29016  15.133   7.187   2.889  0.2478  0.0792 -0.0379
18913PP      PP29017   0.740   7.548   4.377 -0.0118 -0.0650  0.3179
18914PP      PP29018   1.187   5.396   4.863 -0.1985 -0.1070 -0.0340
18915PP      PP29019  14.145  14.117   1.721 -0.0036 -0.2438  0.3391
18916PP      PP29020  10.226   6.671  11.476  0.0190 -0.1698  0.0311
18917PP      PP29021  10.436   6.520   4.481  0.1312 -0.2276 -0.1418
18918PP      PP29022   8.656   7.595   9.586  0.2292 -0.3723 -0.0268
18919PP      PP29023  14.028  13.220   4.523  0.1852 -0.0776 -0.0648
18920PP      PP29024   1.680   6.189  12.528  0.2296  0.2743  0.0433
18921PP      PP29025   2.186   2.657   8.952 -0.0219  0.1020 -0.0671
18922PP      PP29026   2.654   4.911   1.039 -0.3518  0.0045 -0.2193
18923PP      PP29027  15.638   7.995  12.032 -0.0583  0.0481 -0.1180
18924PP      PP29028  11.244   4.274   2.974  0.0691  0.1729 -0.3428
18925PP      PP29029   8.767  14.370  11.313  0.0150 -0.0368 -0.1702
18926PP      PP29030   2.644   4.349  10.281  0.0410 -0.0322  0.0096
18927PP      PP29031  11.211   4.076  11.525 -0.0769  0.1730  0.0371
18928PP      PP29032  10.717  14.057  12.971  0.0560 -0.1608  0.3417
18929PP      PP29033  11.746  13.709   2.374 -0.0542  0.0186 -0.1479
18930PP      PP29034  12.592  11.096  13.133  0.1233 -0.2080  0.0717
18931PP      PP29035   6.424   8.651   9.096  0.0483 -0.0668  0.0686
18932PP      PP29036   5.901  11.669  11.448  0.1330 -0.1353 -0.1807
18933PP      PP29037   8.621  13.155   0.664 -0.0275 -0.1494 -0.0959
18934PP      PP29038   9.817   3.040   0.398 -0.0246 -0.1013 -0.2486
18935PP      PP29039   4.026  13.971   3.952  0.1818  0.0490  0.3661
18936PP      PP29040   1.395   2.318   2.265  0.0800  0.2144  0.1431
18937PP      PP29041   0.605  13.979   2.842 -0.0986 -0.2067  0.1662
18938PP      PP29042   9.945  15.136  11.460 -0.1674 -0.1591 -0.0599
18939PP      PP29043   8.099  15.211   8.579  0.2362  0.1236 -0.1922
18940PP      PP29044   2.561   1.790   2.028  0.3373 -0.0337 -0.0225
18941PP      PP29045   7.795  13.324  12.744  0.1709  0.1753  0.0520
18942PP      PP29046  11.676   3.732   8.549 -0.0063 -0.0615  0.3261
18943PP      PP29047   7.524   9.881   4.496 -0.2034 -0.1488 -0.1417
18944PP      PP29048  14.606   4.444  10.813 -0.3572 -0.0685 -0.1594
18945PP      PP29049   3.127   7.281   2.785  0.2914 -0.4236 -0.0391
18946PP      PP29050   1.874  12.395   1.888  0.1112  0.0497  0.2173
18947PP      PP29051  15.059   3.810   3.581  0.2124 -0.2570  0.2379
18948PP      PP29052  14.343   6.816   1.477  0.2040 -0.0040  0.0548
18949PP      PP29053   6.703  11.674   8.546 -0.0751 -0.0438 -0.0952
18950PP      PP29054  12.361   1.587  12.781  0.4300  0.2151 -0.1818
18951PP      PP29055  11.183  15.764   1.452  0.2404 -0.1587 -0.1671
18952PP      PP29056   5.841   6.689  12.112 -0.1609 -0.1777 -0.1217
18953PP      PP29057  14.843   3.798  11.395 -0.1874  0.1279 -0.1671
18954PP      PP29058   4.723   7.459  10.228 -0.0333 -0.0551 -0.1109
18955PP      PP29059  13.304  12.551  11.666 -0.2212  0.0420 -0.1382
18956PP      PP29060   6.721  11.951  11.072 -0.1146 -0.2814 -0.1498
18957PP      PP29061   2.954  10.261  12.296  0.4423  0.3306  0.1142
18958PP      PP29062   3.293   1.595   1.314  0.0946 -0.0784 -0.1526
18959PP      PP29063   4.857   3.173  13.250 -0.1446 -0.1278 -0.1577
18960PP      PP29064  10.630  10.126  10.603  0.2468 -0.1965  0.0876
18961PP      PP29065  13.421   0.520  13.496  0.2967 -0.0452 -0.1482
18962PP      PP29066  14.798   8.113  11.750 -0.0482  0.2124  0.1226
18963PP      PP29067   8.440  12.816  10.644 -0.3051 -0.0781 -0.1376
18964PP      PP29068   5.227   9.105   1.139 -0.0673  0.0340  0.1088
18965PP      PP29069   8.624  13.237   3.027 -0.0921 -0.0501 -0.1039
18966PP      PP29070   8.043  13.501   3.567  0.1347  0.0204 -0.0915
18967PP      PP29071   7.576  13.641   8.621 -0.2349 -0.0188 -0.0227
18968PP      PP29072   9.182   3.047  10.023  0.1077 -0.1497 -0.1546
18969PP      PP29073  14.105   7.665  12.836 -0.1093  0.0370  0.1785
18970PP      PP29074   1.873   1.138  10.793  0.3478  0.0808  0.0363
18971PP      PP29075   3.939  11.021  11.839 -0.0780 -0.1766 -0.1593
18972PP      PP29076   8.095   8.777  12.052  0.0826  0.0334 -0.0517
18973PP      PP29077  14.389  10.080   3.526 -0.1567  0.0178  0.2748
18974PP      PP29078   1.076   0.266  10.689  0.0861 -0.1409 -0.0147
18975PP      PP29079  10.915   3.770   2.666 -0.0595  0.1618 -0.1478
18976PP      PP29080   3.488  14.474   0.609  0.0665  0.0724  0.1976
18977PP      PP29081  14.890  12.733   2.607 -0.1169 -0.0011  0.0523
18978PP      PP29082  15.663   9.108   4.122  0.0915  0.2822 -0.1144
18979PP      PP29083  15.161   1.019   8.030  0.2981 -0.0330  0.0993
18980PP      PP29084   1.432  12.524  11.515  0.0846  0.0086 -0.0588
18981PP      PP29085   0.286  11.984   9.827 -0.1682  0.0819  0.0570
18982PP      PP29086   5.445  11.904   4.113 -0.0764  0.1574 -0.3188
18983PP      PP29087   3.442   9.985   3.700  0.2118 -0.0499  0.1697
18984PP      PP29088   9.609   8.112  11.529 -0.0807  0.4911 -0.2384
18985PP      PP29089   2.116   3.732   3.213  0.2340  0.2904 -0.3625
18986PP      PP29090  12.093  12.035   3.863  0.1892  0.1050 -0.2220
18987PP      PP29091   0.463  11.525   1.305 -0.1319 -0.0209  0.0070
18988PP      PP29092   8.182   9.749   1.091  0.3005  0.1440 -0.0294
18989PP      PP29093   4.807  12.972  12.089 -0.2155 -0.0777 -0.1120
18990PP      PP29094   8.375  15.046   3.151  0.1479 -0.2948  0.3290
18991PP      PP29095   0.769  14.231   3.293 -0.1262 -0.3258 -0.0663
18992PP      PP29096   1.454   2.191  11.100 -0.1897  0.0667 -0.0740
18993PP      PP29097  10.478  10.479  13.437 -0.3082 -0.3945  0.0487
18994PP      PP29098   0.558   0.963   1.070  0.1153 -0.0885  0.3917
18995PP      PP29099   1.349   2.270  10.623 -0.1055 -0.0355 -0.0108
18996PP      PP29100   8.364   0.601   3.910  0.1017  0.0657 -0.0603
18997PP      PP29101   0.559   5.483  11.635 -0.0180 -0.0748 -0.0351
18998PP      PP29102   1.373   7.557   1.445  0.0361 -0.0693  0.0854
18999PP      PP29103   2.434   8.696   4.533  0.3160 -0.2883 -0.0478
19000PP      PP29104   9.496   2.224  10.156  0.0951 -0.1431  0.4292
19001PP      PP29105  15.797   4.981   9.736 -0.1346 -0.0001  0.0593
19002PP      PP29106   6.681   7.521   9.044  0.1240 -0.2212 -0.0036
19003PP      PP29107  13.317  11.200   9.627 -0.0628  0.2793 -0.1935
19004PP      PP29108   7.263   4.826   1.014 -0.1261 -0.1490  0.1065
19005PP      PP29109   8.304  11.833   9.626 -0.4163 -0.1051 -0.1758
19006PP      PP29110  10.765   0.247  10.982 -0.1152  0.1633  0.1311
19007PP      PP29111   5.999  15.038   8.266  0.1198 -0.2022 -0.0796
19008PP      PP29112  15.579   0.984   1.650 -0.1924 -0.3332  0.0124
19009PP      PP29113   2.987  13.734   0.928 -0.0807  0.1564  0.0206
19010PP      PP29114  11.864   2.748  10.477 -0.1700 -0.1583  0.3149
19011PP      PP29115  12.954   8.570  10.634 -0.2892 -0.1053  0.1244
19012PP      PP29116   4.937   2.562  11.603  0.0546  0.1568  0.0444
19013PP      PP29117   8.746  12.131  10.422 -0.4316  0.1311  0.4300
19014PP      PP29118   6.911  13.405   9.224 -0.1124  0.0421  0.0569
19015PP      PP29119   3.031  10.778  10.046  0.0562  0.2676 -0.0754
19016PP      PP29120   0.647  13.520  10.671 -0.0484  0.1772  0.0802
19017PP      PP29121  14.103   2.244   9.761 -0.0623  0.0868  0.1813
19018PP      PP29122   4.749  15.344  11.490 -0.2375  0.3377 -0.1716
19019PP      PP29123  10.935   8.948   3.144  0.2924 -0.2825  0.0247
19020PP      PP29124   5.992   2.586  11.364 -0.0432  0.0951 -0.0115
19021PP      PP29125   3.542   6.332   4.696 -0.0640 -0.0222  0.2481
19022PP      PP29126  15.605   5.428   4.432  0.2825 -0.2606 -0.4282
19023PP      PP29127   8.309   2.954   3.857  0.0502  0.0157  0.0341
19024PP      PP29128  11.713   6.139  11.894 -0.0402 -0.1111  0.0284
19025PP      PP29129   5.005   0.609   3.753  0.1693  0.0609  0.2444
19026PP      PP29130  11.267   6.134   4.116  0.2124 -0.1165 -0.2504
19027PP      PP29131  10.633  15.014   4.092  0.1340  0.4372 -0.2095
19028PP      PP29132  10.289   2.553   0.013  0.0437 -0.0462 -0.0995
19029PP      PP29133   7.708   1.320  12.351 -0.0523  0.0936  0.1798
19030PP      PP29134  13.537   9.151   4.619  0.3330  0.1796  0.0196
19031PP      PP29135   9.588  10.927   0.739  0.0075 -0.1244 -0.0300
19032PP      PP29136   9.113   3.924   8.810  0.0805  0.0550  0.2248
19033PP      PP29137   6.292  12.093   0.213 -0.3900  0.0032  0.2216
19034PP      PP29138   8.384   4.208  10.656  0.1809  0.1916 -0.2223
19035PP      PP29139  10.420   5.845   1.110  0.1268  0.0083  0.0532
19036PP      PP29140   5.306  15.537   0.669 -0.2292  0.2179 -0.0241
19037PP      PP29141  12.165  11.490   2.916  0.2286  0.4445  0.0447
19038PP      PP29142  12.379   7.859  11.204 -0.1355  0.0089 -0.1513
19039PP      PP29143   7.010   9.564   1.560 -0.0392  0.1115 -0.1471
19040PP      PP29144  11.292   0.824   9.124  0.0273 -0.1224  0.3042
19041PP      PP29145   8.747   9.273   1.008 -0.1428  0.0164 -0.0777
19042PP      PP29146   8.919  10.500  12.919 -0.0747  0.0138  0.1828
19043PP      PP29147  11.281   0.267  12.837 -0.0875  0.0791 -0.0835
19044PP      PP29148  11.311  11.828   3.507 -0.0336 -0.0242  0.1962
19045PP      PP29149  15.793  10.941   0.310  0.2267 -0.3244 -0.0530
19046PP      PP29150   3.451   4.404  13.013 -0.0688  0.0311  0.1868
19047PP      PP29151   8.343   9.170   1.375  0.1378  0.1764  0.0467
19048PP      PP29152  12.828   8.059   2.954 -0.1406  0.2318  0.0484
19049PP      PP29153   9.987   4.836   8.983 -0.0237 -0.2086  0.1825
19050PP      PP29154  15.710   3.432  10.355 -0.0326 -0.0506  0.1394
19051PP      PP29155   7.868   7.811   3.759  0.1700 -0.1026  0.5389
19052PP      PP29156   7.146   6.967  11.553  0.0829  0.5337 -0.1869
19053PP      PP29157   2.267   3.179   1.275  0.1690  0.0075 -0.0170
19054PP      PP29158  14.696   9.028   4.835  0.1267  0.0172  0.4015
19055PP      PP29159  14.548   4.588   2.880 -0.0885  0.0649  0.2812
19056PP      PP29160  13.058   5.519   4.903  0.1683 -0.2515 -0.2560
19057PP      PP29161  14.620   8.806   3.290  0.0249 -0.3380 -0.1843
19058PP      PP29162  12.706   1.672   0.640  0.3045 -0.0041 -0.1689
19059PP      PP29163   3.537   5.814  12.444  0.4041  0.2757  0.0583
19060PP      PP29164  12.868   4.014   4.140 -0.1066  0.3450 -0.0278
19061PP      PP29165   3.710   7.880  13.225 -0.0544 -0.1622  0.0370
19062PP      PP29166   1.227  11.057   3.468  0.0673 -0.0635  0.0910
19063PP      PP29167  12.023   7.384   1.892  0.1112  0.1361 -0.2754
19064PP      PP29168   7.369   0.737   3.141  0.3649 -0.0476 -0.1710
19065PP      PP29169   0.635   4.688   2.101  0.3316  0.0003  0.3897
19066PP      PP29170   1.801   4.122   1.973 -0.1274  0.0637 -0.0783
19067PP      PP29171   0.018   2.355   9.338 -0.0370  0.2610  0.1512
19068PP      PP29172  15.025  14.972  13.102 -0.3058  0.0790  0.0932
19069PP      PP29173   8.714   7.446  12.119 -0.0081  0.0056 -0.2146
19070PP      PP29174   4.163  11.969   3.198 -0.1977  0.1013  0.1298
19071PP      PP29175   7.438   3.827   2.210  0.0269  0.0044 -0.2509
19072PP      PP29176  13.834   2.898   3.170 -0.2466  0.3235 -0.1917
19073PP      PP29177   3.936   1.581   8.684 -0.3593 -0.1007  0.0050
19074PP      PP29178   8.598   6.530   8.804 -0.0135  0.0549  0.3176
19075PP      PP29179  15.680   9.675   3.457 -0.0505  0.1023  0.1074
19076PP      PP29180   3.914   2.042   3.220  0.2285  0.0709  0.0245
19077PP      PP29181   3.324  13.381   2.838 -0.2407  0.0883 -0.3516
19078PP      PP29182   3.829  11.560   2.713 -0.1127 -0.1330  0.0369
19079PP      PP29183   1.511   9.293   0.742 -0.0540  0.0893  0.0516
19080PP      PP29184  13.667  15.003   0.703 -0.0487  0.0067  0.2079
19081PP      PP29185   1.652   6.554   4.184 -0.0257  0.1885  0.1177
19082PP      PP29186  15.020   4.259   1.906 -0.1502  0.0053  0.1812
19083PP      PP29187   5.157   0.062   9.555  0.1069 -0.3539 -0.1577
19084PP      PP29188  14.518  14.777   9.972 -0.0805 -0.0015  0.1106
19085PP      PP29189   3.676   8.535   0.650  0.1103 -0.1456  0.0928
19086PP      PP29190   5.625  15.489   8.145 -0.0591 -0.0003 -0.0444
19087PP      PP29191  12.665   0.281   3.654  0.0896  0.1794 -0.0072
19088PP      PP29192  15.196  14.730  10.573  0.1185  0.1493 -0.4122
19089PP      PP29193   4.428   0.591   7.849 -0.1532 -0.2036  0.1056
19090PP      PP29194   2.824  12.581   3.426 -0.0192  0.4561 -0.0526
19091PP      PP29195   7.691   2.819  12.675  0.2574  0.0381  0.0955
19092PP      PP29196   2.725  12.530   1.309 -0.1399  0.2863  0.1317
19093PP      PP29197   6.555   8.696  11.910  0.3211  0.0804 -0.1462
19094PP      PP29198  13.513   9.222   2.453  0.4870 -0.1866 -0.2094
19095PP      PP29199   3.509   9.409  10.746 -0.0838  0.0732  0.2306
19096PP      PP29200   3.276  12.886   9.792  0.3215 -0.2068 -0.0318
19097PP      PP29201   2.852   6.938   1.952 -0.2888  0.0736  0.0332
19098PP      PP29202  11.574   2.232   3.179  0.2339 -0.1154 -0.2770
19099PP      PP29203   4.763  13.515   1.415 -0.1387  0.0073  0.3101
19100PP      PP29204  11.907   2.670  13.073  0.1020 -0.1898 -0.1339
19101PP      PP29205  14.448  10.256   2.258  0.0311 -0.1644  0.0300
19102PP      PP29206   2.877  11.380  10.507 -0.2079  0.0245 -0.3618
19103PP      PP29207  15.283   3.595  13.370  0.0213 -0.0779 -0.0026
19104PP      PP29208   2.479   2.969   3.488  0.0048  0.1498 -0.0265
19105PP      PP29209   3.146  10.869   3.162  0.4441  0.0895 -0.2984
19106PP      PP29210  13.146   5.723   2.357  0.1840  0.1766 -0.0396
19107PP      PP29211   5.553  15.008   7.983  0.0310  0.1952  0.2807
19108PP      PP29212  15.806   2.912  10.028 -0.2937 -0.2191 -0.0256
19109PP      PP29213   6.414  14.457   0.797 -0.1566 -0.2041 -0.0620
19110PP      PP29214   4.128   3.813  11.560  0.1530 -0.1457  0.0043
19111PP      PP29215   6.555  14.008   9.882 -0.0712 -0.1231  0.2149
19112PP      PP29216   9.939   5.535   4.826 -0.0776  0.1153  0.0320
19113PP      PP29217  14.861   6.540   4.243  0.0674 -0.2059  0.0657
19114PP      PP29218   7.158  13.535   9.855 -0.0538 -0.0943  0.0705
19115PP      PP29219   4.007  10.823  11.248 -0.1792  0.2052 -0.0659
19116PP      PP29220  11.757   2.748   9.967 -0.0969 -0.2082  0.2446
19117PP      PP29221   5.685  12.565   3.316 -0.0204 -0.1985 -0.0958
19118PP      PP29222   5.462  14.167   7.729 -0.0887  0.3864  0.3956
19119PP      PP29223  14.338  14.835   2.616  0.0274  0.0279  0.0620
19120PP      PP29224  15.265   9.575   0.586 -0.1711  0.3182  0.1615
19121PP      PP29225   7.825   2.601   8.596 -0.0588  0.1408  0.0132
19122PP      PP29226   2.581  11.877  12.513 -0.2269 -0.4017  0.1064
19123PP      PP29227  13.390   6.031   0.113  0.0660 -0.1279 -0.0589
19124PP      PP29228   4.994   5.494   9.467  0.1156 -0.0719 -0.1477
19125PP      PP29229   4.284   7.038   9.990  0.1968  0.3626  0.0227
19126PP      PP29230   3.649   9.402  10.267 -0.4870 -0.2021  0.1201
19127PP      PP29231   0.496   7.788   3.051 -0.1904  0.2865  0.1521
19128PP      PP29232  11.467   2.861  10.844  0.1087  0.0043  0.0068
19129PP      PP29233  11.149   7.895   1.000 -0.0498 -0.0156  0.0009
19130PP      PP29234  14.300  11.322   4.347  0.0348 -0.0015  0.1025
19131PP      PP29235  10.533  12.326  13.037 -0.3254 -0.0221 -0.0309
19132PP      PP29236   4.971  12.972   2.216  0.0580 -0.1204  0.4077
19133PP      PP29237   5.657  11.601   8.845  0.1125 -0.0232 -0.1221
19134PP      PP29238   0.796  11.551  13.476 -0.1283 -0.2461  0.1733
19135PP      PP29239   3.102   0.520   0.149  0.1218  0.3056  0.4109
19136PP      PP29240   8.359   1.188  10.277 -0.0619 -0.0535 -0.1435
19137PP      PP29241   1.534   7.362  11.165 -0.0108  0.1641  0.1470
19138PP      PP29242   7.739   8.100  10.960  0.0831  0.2243  0.1843
19139PP      PP29243  12.890   4.012   9.533  0.1782  0.2680  0.2195
19140PP      PP29244   2.849   1.605   0.268 -0.2532  0.3319 -0.0157
19141PP      PP29245  11.761  11.548   2.080 -0.0562 -0.1389 -0.2086
19142PP      PP29246   0.306  13.870   2.323  0.1183 -0.5011 -0.1602
19143PP      PP29247   4.396  10.758   2.806 -0.1496 -0.2732 -0.0204
19144PP      PP29248  15.223  13.598   4.041  0.0095  0.0661 -0.4216
19145PP      PP29249   2.876   9.041   2.169 -0.1716  0.3182 -0.0281
19146PP      PP29250   8.757   0.749   3.611  0.0278  0.0541 -0.0105
19147PP      PP29251   7.359  11.683  11.041 -0.0341 -0.2630  0.0072
19148PP      PP29252   5.783  11.722   2.879  0.0663  0.0898  0.0008
19149PP      PP29253   5.960   9.125  10.297 -0.1780 -0.0357 -0.0281
19150PP      PP29254  12.801   2.701   1.644  0.0916  0.0069  0.0051
19151PP      PP29255  14.166   0.185   3.318  0.0257  0.1202  0.0572
19152PP      PP29256  15.030   0.025   9.362 -0.3096 -0.2181 -0.5272
19153PP      PP29257   0.328   8.913   4.820  0.3615 -0.2719 -0.2840
19154PP      PP29258   6.381   6.389   0.439 -0.0997  0.0138  0.1120
19155PP      PP29259   6.961   6.633   1.479  0.0078 -0.1729 -0.1728
19156PP      PP29260   4.488  15.710   1.076 -0.3176  0.0532  0.1973
19157PP      PP29261   5.070  13.745  11.267 -0.0567  0.1733  0.1849
19158PP      PP29262  13.844   0.035   2.540  0.0578  0.1469 -0.1304
19159PP      PP29263  15.695  14.739   2.477  0.0736 -0.0885 -0.0320
19160PP      PP29264  12.440   1.908   0.233  0.0519 -0.3203  0.0894
19161PP      PP29265   8.635   9.606  11.034 -0.1612  0.0142  0.0016
19162PP      PP29266  15.702   1.329   9.813  0.3598  0.0464 -0.2056
19163PP      PP29267  13.782   8.906  10.601 -0.0528 -0.1054 -0.4896
19164PP      PP29268  11.048   4.789   2.164  0.0181  0.0381  0.0006
19165PP      PP29269  15.638   8.785   3.218  0.2720 -0.2043 -0.0181
19166PP      PP29270   2.886   2.346   9.509 -0.0278  0.3734  0.1309
19167PP      PP29271   2.673  15.174  10.615 -0.1837 -0.0724  0.1354
19168PP      PP29272   4.334  12.032  12.442 -0.1009 -0.3727 -0.0956
19169PP      PP29273   7.049   3.762   2.508  0.1777  0.0232 -0.2756
19170PP      PP29274   0.999   6.591   0.503  0.1163  0.3289 -0.0849
19171PP      PP29275  10.327   5.822  11.566 -0.1278  0.1121 -0.0303
19172PP      PP29276   3.224   2.512   3.104  0.1211 -0.0326 -0.1605
19173PP      PP29277   9.267   4.683   9.878  0.0674  0.0370  0.0612
19174PP      PP29278   7.001   8.506  11.171  0.1464 -0.3377 -0.1909
19175PP      PP29279   1.238   5.371  12.796 -0.1970 -0.1374  0.1163
19176PP      PP29280  12.020   5.431   0.150 -0.1593  0.1101  0.2644
19177PP      PP29281  13.312   8.157   1.258 -0.0318 -0.0476 -0.1736
19178PP      PP29282   6.934   6.945  12.414  0.1440  0.1587 -0.1286
19179PP      PP29283   3.039  14.642   9.703  0.0462  0.0487 -0.2144
19180PP      PP29284   3.963   8.841  11.178  0.0315  0.1304  0.0154
19181PP      PP29285  12.731   3.525   1.328  0.2060 -0.0966  0.1274
19182PP      PP29286   6.282   3.017   9.922  0.1617  0.0740  0.1040
19183PP      PP29287   0.272   3.830   3.433 -0.0615 -0.0594  0.3422
19184PP      PP29288  11.022   0.597  11.412 -0.1277  0.0728  0.0925
19185PP      PP29289   8.277  13.708  11.961  0.1366 -0.1294 -0.3992
19186PP      PP29290   1.212   3.875  12.831 -0.1380 -0.1113  0.1713
19187PP      PP29291   3.547   1.059  11.271  0.1112 -0.0753 -0.4087
19188PP      PP29292  12.122  10.087   2.686 -0.1773 -0.0201 -0.1505
19189PP      PP29293  13.456  10.247  12.329 -0.3463 -0.0975  0.1584
19190PP      PP29294   4.367   9.540   2.433 -0.0503 -0.1213 -0.2439
19191PP      PP29295   9.834  12.463  11.123 -0.0043  0.0919  0.1105
19192PP      PP29296   0.152  10.234  13.073  0.2490  0.1680  0.1361
19193PP      PP29297  14.535  12.499   4.012 -0.1308 -0.2156  0.0011
19194PP      PP29298   6.599   1.713  12.357  0.1455  0.2054  0.2199
19195PP      PP29299   7.066   7.351   9.464 -0.1427  0.1861  0.2400
19196PP      PP29300   0.878  12.455   9.481 -0.1898  0.0572  0.0992
19197PP      PP29301  10.094  15.581  12.784 -0.1238  0.1083 -0.2781
19198PP      PP29302  14.518  11.792   0.656 -0.1261  0.2819  0.0997
19199PP      PP29303  11.308   5.807  11.825 -0.1058 -0.2522 -0.1014
19200PP      PP29304   7.766   3.302   2.403 -0.0934 -0.0801  0.3220
19201PP      PP29305   0.668   1.120   9.731 -0.0194  0.0553 -0.1519
19202PP      PP29306   5.462   7.874   4.066 -0.0836  0.0577 -0.0467
19203PP      PP29307   1.479  12.852   9.968  0.1498 -0.0749 -0.2103
19204PP      PP29308  11.211   4.209   8.732  0.2663 -0.0900  0.0589
19205PP      PP29309  14.816   0.621  11.678  0.1213 -0.0484 -0.0840
19206PP      PP29310  13.814   5.565   4.723 -0.1203 -0.2334 -0.1226
19207PP      PP29311   7.017   4.721   4.495  0.1899 -0.2477  0.0769
19208PP      PP29312   9.334   2.534  10.977  0.1998 -0.0114 -0.0494
19209PP      PP29313   4.883   3.599   9.789 -0.1492 -0.1827  0.2619
19210PP      PP29314   4.786  13.368   2.901  0.0214  0.0555 -0.0115
19211PP      PP29315   4.860   6.067   3.508 -0.0875  0.1613 -0.2058
19212PP      PP29316   2.996   6.540   9.857 -0.0053 -0.0982  0.3919
19213PP      PP29317   4.934   8.668  13.402 -0.0836 -0.1446  0.1787
19214PP      PP29318  11.653  10.136  12.081  0.1462  0.1177  0.0174
19215PP      PP29319   3.610  10.482   4.297  0.0667  0.2861 -0.0786
19216PP      PP29320   5.260  15.401   7.769 -0.0540  0.0273 -0.2396
19217PP      PP29321   1.240  10.462   5.405  0.1806  0.3133  0.1187
19218PP      PP29322   7.269   7.954   0.261 -0.2207  0.0321  0.2461
19219PP      PP29323  14.021   8.277   4.950  0.0944 -0.2156 -0.1007
19220PP      PP29324  10.322   4.826   0.353  0.1653 -0.2205  0.1594
19221PP      PP29325   2.150  11.023   3.583 -0.3000 -0.1024  0.0474
19222PP      PP29326   7.355   3.456  10.519 -0.0429 -0.3005 -0.4048
19223PP      PP29327   9.508   3.144  11.821 -0.0104 -0.0017 -0.2368
19224PP      PP29328  10.777  14.219   9.597 -0.0149  0.1315  0.1736
19225PP      PP29329   2.895   1.001   9.004 -0.2884 -0.3691 -0.3405
19226PP      PP29330   0.936  10.534   3.519  0.1937  0.0775  0.1781
19227PP      PP29331   5.670   5.020  12.902 -0.2124 -0.0024 -0.0190
19228PP      PP29332  10.288  14.230   1.073  0.0620 -0.1002  0.0281
19229PP      PP29333   5.197  11.812  12.264  0.4530 -0.1032  0.0876
19230PP      PP29334   2.588  14.190  12.199  0.0165 -0.0125  0.0783
19231PP      PP29335  13.561   1.305   3.243 -0.0119  0.3342  0.1432
19232PP      PP29336  12.885   8.530  12.740 -0.0696  0.3150  0.1334
19233PP      PP29337  10.314  12.636   1.474  0.0193  0.0044  0.2497
19234PP      PP29338   6.501  14.742   2.951  0.0588 -0.1255 -0.3296
19235PP      PP29339  10.550   2.805  13.234 -0.2112 -0.1975 -0.1188
19236PP      PP29340   5.147   7.039   1.588 -0.0636 -0.1261 -0.3244
19237PP      PP29341  13.426   4.313  10.564  0.0939  0.0164 -0.0260
19238PP      PP29342  11.448   0.264   0.214 -0.1422 -0.0008 -0.1674
19239PP      PP29343  12.212   2.953   1.413 -0.0122 -0.0464 -0.4518
19240PP      PP29344   0.686   2.138   1.197 -0.1510 -0.1319  0.0394
19241PP      PP29345  10.453   6.645   1.403 -0.4111 -0.2007  0.0607
19242PP      PP29346   7.569  10.332  10.225 -0.0492  0.4132  0.3664
19243PP      PP29347  14.886   0.274   2.954  0.4265 -0.4751  0.3280
19244PP      PP29348   1.351   1.494  12.665 -0.0323  0.0238  0.0935
19245PP      PP29349  14.083   5.882   9.849  0.3601 -0.0866 -0.0417
19246PP      PP29350   3.838   9.920  12.871  0.2181 -0.2553  0.1260
19247PP      PP29351   4.233   8.137   1.194  0.2034 -0.0105  0.0002
19248PP      PP29352  11.595   3.025   8.669 -0.0597 -0.2541 -0.2394
19249PP      PP29353   3.216   7.252  12.615 -0.3099 -0.1376 -0.1716
19250PP      PP29354  14.196   6.140   1.310 -0.2527  0.2545 -0.1576
19251PP      PP29355   3.913   1.395   9.328 -0.4224  0.2038 -0.0842
19252PP      PP29356  12.022   1.180  13.505  0.0339 -0.0611 -0.0674
19253PP      PP29357   4.089  12.057   2.684  0.1348 -0.1847  0.3434
19254PP      PP29358   1.588   8.077   3.004  0.2202 -0.0942  0.0587
19255PP      PP29359  13.681   0.122   3.658  0.1039  0.2431  0.3860
19256PP      PP29360  11.144  11.852   0.959  0.1289  0.2648  0.1868
19257PP      PP29361   1.257   0.908   2.187 -0.0769 -0.0715  0.2671
19258PP      PP29362   2.174  12.458  12.088 -0.1009 -0.0584 -0.0305
19259PP      PP29363  13.602   6.224   0.593  0.0399  0.0884 -0.0154
19260PP      PP29364  14.910  12.062  11.789 -0.0747  0.1275 -0.0341
19261PP      PP29365  14.872  13.853   9.815  0.1545  0.5019 -0.0217
19262PP      PP29366  14.712   4.672   1.046  0.1520  0.0275 -0.3062
19263PP      PP29367  14.165   0.015  11.158 -0.1725  0.0451 -0.1083
19264PP      PP29368  10.115   6.988   1.434  0.0523  0.0907  0.0077
19265PP      PP29369   2.115   2.117  12.177  0.1782  0.1021 -0.0175
19266PP      PP29370  11.165   7.260   8.960 -0.0877  0.0203 -0.1019
19267PP      PP29371  13.286  12.712  13.508  0.0375 -0.3182 -0.2908
19268PP      PP29372   9.364  14.140   8.792 -0.0772  0.1286 -0.2567
19269PP      PP29373   9.146   0.181   9.787 -0.1634  0.1506 -0.0202
19270PP      PP29374  15.353   1.548   0.482  0.1592 -0.6184 -0.0971
19271PP      PP29375   4.141   2.622  10.237 -0.3952  0.1739 -0.0102
19272PP      PP29376   4.772   8.876  12.917 -0.0114 -0.1909 -0.1143
19273PP      PP29377  10.195   4.796   3.815  0.0754  0.0986 -0.1657
19274PP      PP29378   4.593   4.704  11.826 -0.1673  0.1178 -0.3123
19275PP      PP29379   1.072   8.299  12.506  0.1700  0.3539 -0.0595
19276PP      PP29380  15.381   2.079   9.313 -0.2103  0.3923  0.1815
19277PP      PP29381   8.564   3.484   2.706  0.0062 -0.0821  0.1648
19278PP      PP29382   4.233  10.752   0.496  0.2639 -0.0507 -0.1490
19279PP      PP29383  11.832  14.479   9.379 -0.1939  0.6734 -0.0465
19280PP      PP29384  15.815   3.794   5.120 -0.0288 -0.1045 -0.2369
19281PP      PP29385  11.300  13.474  10.023  0.0605 -0.3174 -0.1967
19282PP      PP29386  12.161  10.252   1.817  0.0929  0.1064  0.0112
19283PP      PP29387   9.610   5.942  11.848  0.1565 -0.4045 -0.0081
19284PP      PP29388   8.283  13.877   2.581 -0.2659  0.2288 -0.0788
19285PP      PP29389   8.615   2.484   1.362  0.0295  0.4521 -0.3707
19286PP      PP29390   8.550   2.328  10.018  0.1112  0.0193  0.0379
19287PP      PP29391  10.321   3.793  11.746  0.1580  0.1083  0.1627
19288PP      PP29392  11.529   9.384  12.653  0.2899 -0.0987 -0.0400
19289PP      PP29393  14.700   1.236   8.361  0.2139 -0.0960  0.2213
19290PP      PP29394  11.659   8.616   2.224 -0.1417  0.0701  0.0994
19291PP      PP29395   4.545  11.310  10.208 -0.1013  0.2752 -0.1927
19292PP      PP29396   5.622   8.476   5.005 -0.3874 -0.0854 -0.1083
19293PP      PP29397  14.928  13.358   1.949  0.0318 -0.0450 -0.3937
19294PP      PP29398  12.200   6.356   4.413 -0.0407  0.0703  0.0613
19295PP      PP29399  11.293   1.845   9.157  0.2444  0.1548  0.2398
19296PP      PP29400  11.952   5.577  11.721 -0.0628  0.2102  0.1054
19297PP      PP29401   5.340  12.211   9.820 -0.0428  0.0834  0.0749
19298PP      PP29402  14.316  11.809   4.617 -0.0145 -0.1106  0.1841
19299PP      PP29403   9.135   5.618  10.760  0.0695  0.1208  0.1838
19300PP      PP29404  15.637  15.050   9.395  0.3588  0.0399 -0.2292
19301PP      PP29405  13.269   2.699   1.759 -0.0903 -0.2938  0.1460
19302PP      PP29406   4.454   0.967   9.865 -0.1020 -0.1131 -0.0169
19303PP      PP29407  11.526  13.754  12.500 -0.2773  0.1060  0.3247
19304PP      PP29408  12.008   8.799   2.851 -0.0851  0.2165 -0.1944
19305PP      PP29409  15.026   9.503  10.470  0.3251  0.1073  0.3531
19306PP      PP29410  14.475  13.822  13.293 -0.0782 -0.1545  0.0826
19307PP      PP29411   9.273   5.463   8.343 -0.0695 -0.4108 -0.0352
19308PP      PP29412   8.680   6.260   2.194  0.1578 -0.0666 -0.0295
19309PP      PP29413   4.835  15.524   9.515 -0.5703 -0.1145 -0.2715
19310PP      PP29414   0.036   9.230  12.358 -0.3689  0.0740  0.0003
19311PP      PP29415  10.643  15.178   3.664  0.0406  0.2737 -0.0435
19312PP      PP29416  13.261  12.953   2.316  0.0716 -0.0198 -0.1362
19313PP      PP29417   9.629  11.008  11.716 -0.3699 -0.0591  0.4321
19314PP      PP29418   5.908  15.545   7.235  0.3917 -0.0851 -0.0726
19315PP      PP29419  10.790  10.561   1.844 -0.3413 -0.1891 -0.3882
19316PP      PP29420  10.772  12.016   3.502 -0.0131  0.4406 -0.0299
19317PP      PP29421   0.415  11.206  10.886  0.0323 -0.2199 -0.0472
19318PP      PP29422  14.867  11.679   9.668  0.0504  0.1487 -0.0601
19319PP      PP29423   7.292  15.284   0.749  0.2210 -0.2063  0.1505
19320PP      PP29424  10.263  10.590  11.112 -0.1702  0.1560 -0.0621
19321PP      PP29425  10.996   1.463  12.696  0.2867  0.1271 -0.0303
19322PP      PP29426  15.402  12.983  10.052 -0.2143  0.0149 -0.2549
19323PP      PP29427   5.809  13.071   3.398  0.1329 -0.0002 -0.3260
19324PP      PP29428   3.142   7.789   0.466 -0.2005  0.1364  0.0166
19325PP      PP29429   6.113   1.352  12.316  0.3336  0.0486 -0.1204
19326PP      PP29430  12.309  11.929   3.108 -0.0448  0.0265  0.4982
19327PP      PP29431  15.712  10.790   3.682 -0.1924  0.1358 -0.0040
19328PP      PP29432  11.618   7.293   3.310 -0.1589 -0.0277 -0.1732
19329PP      PP29433  13.244   0.069  12.539 -0.1237  0.1269 -0.1611
19330PP      PP29434   8.983  13.895  10.612  0.1604  0.0980 -0.0846
19331PP      PP29435   2.504   0.201  12.109 -0.0662 -0.1163  0.3279
19332PP      PP29436   9.525  14.667  12.616  0.1776 -0.0880  0.1644
19333PP      PP29437  10.134   8.912  11.217  0.0380  0.1052  0.1930
19334PP      PP29438  12.252  14.433   9.936 -0.1798  0.2707  0.3011
19335PP      PP29439  14.142   9.064  13.060 -0.0872 -0.0125  0.1344
19336PP      PP29440  11.947  14.420   1.654  0.1328  0.2621  0.1338
19337PP      PP29441  12.819   8.246   1.104  0.0956  0.0911  0.0460
19338PP      PP29442  15.359  10.866   0.697  0.0981 -0.2576 -0.1334
19339PP      PP29443   5.106   1.450  10.886 -0.0079 -0.0081 -0.0632
19340PP      PP29444   8.912   4.002   0.344  0.2411  0.0655 -0.2849
19341PP      PP29445  12.490   4.602  12.329  0.4125  0.2262  0.0586
19342PP      PP29446  14.965   5.244  12.337 -0.2380  0.0805 -0.0212
19343PP      PP29447  12.984   9.408   2.879  0.0000 -0.0165 -0.0219
19344PP      PP29448  12.599   2.850   4.014  0.0899  0.0655  0.0177
19345PP      PP29449   3.039  15.520  13.243  0.0117  0.1031 -0.2987
19346PP      PP29450   3.757   3.401   2.896 -0.0273 -0.3336 -0.0074
19347PP      PP29451   8.310   8.475   3.857 -0.1938  0.1118 -0.2085
19348PP      PP29452  14.610  14.059  10.742 -0.4334  0.4120  0.0720
19349PP      PP29453   3.599  13.780   0.156  0.1088  0.1017 -0.2630
19350PP      PP29454   9.764   1.284   3.622 -0.0001  0.1350 -0.5050
19351PP      PP29455  11.634  10.703  10.072  0.1033  0.2815  0.0308
19352PP      PP29456   8.765   2.641   2.288 -0.3004 -0.3106  0.0771
19353PP      PP29457  12.196   3.858   3.214 -0.0359 -0.1917 -0.0125
19354PP      PP29458   3.494   9.985   1.150  0.0905 -0.0436 -0.2290
19355PP      PP29459  13.068  10.718   2.659  0.2203 -0.0675  0.1620
19356PP      PP29460   2.873   5.738   0.460  0.1319 -0.1561 -0.0786
19357PP      PP29461   5.212  14.408   1.533 -0.1138 -0.2619  0.2475
19358PP      PP29462   7.296  14.240   9.429 -0.0801  0.0256  0.0003
19359PP      PP29463  12.029   8.275   2.994  0.1380 -0.1387 -0.2147
19360PP      PP29464   5.827  12.364   9.890 -0.2886 -0.1298 -0.0012
19361PP      PP29465   5.923  10.238   0.323 -0.0388 -0.2347  0.0616
19362PP      PP29466   0.013   3.225   3.940 -0.2972  0.0213 -0.1995
19363PP      PP29467   5.453   8.350   3.253  0.0512  0.0999  0.1540
19364PP      PP29468   9.325   9.380   2.385 -0.0126 -0.2139 -0.0062
19365PP      PP29469   7.660  10.652   3.100 -0.2687 -0.3532  0.1609
19366PP      PP29470   4.997   2.290   1.300 -0.1402 -0.0079 -0.3876
19367PP      PP29471   5.968   6.446  12.730  0.1620  0.0963  0.3100
19368PP      PP29472   9.639  14.290  11.041  0.1763  0.1487 -0.2222
19369PP      PP29473   3.423   7.065   1.901  0.1649  0.1619  0.1672
19370PP      PP29474  11.737   8.974  10.080  0.0886 -0.0730 -0.0884
19371PP      PP29475  11.111   8.567   4.452  0.2253 -0.0061 -0.1346
19372PP      PP29476   2.626   3.142  11.322 -0.0876 -0.1107  0.2560
19373PP      PP29477   9.578   7.428   1.955  0.1066  0.3235 -0.1731
19374PP      PP29478   6.026   9.127   0.059 -0.2078 -0.0071 -0.1950
19375PP      PP29479   8.696   0.540  12.412 -0.2425 -0.3367 -0.0064
19376PP      PP29480   2.792   0.141   1.613 -0.1229 -0.0156 -0.0398
19377PP      PP29481   0.910   9.953  10.988 -0.0031 -0.0768  0.1295
19378PP      PP29482  10.629  12.712   9.573 -0.0086 -0.0885 -0.0338
19379PP      PP29483   5.965  13.285   0.860 -0.0854  0.1286 -0.2516
19380PP      PP29484   2.466   5.501   3.919 -0.1331 -0.1096 -0.1238
19381PP      PP29485  12.865   8.180  11.845  0.1433  0.0778 -0.3387
19382PP      PP29486  12.533  15.541   2.187  0.1178  0.1804 -0.0403
19383PP      PP29487  10.161   5.707   8.655 -0.0585  0.2411 -0.0793
19384PP      PP29488   7.377  15.558   1.138 -0.0639  0.2832  0.1119
19385PP      PP29489   9.072  15.443   2.168  0.1268  0.4040 -0.4637
19386PP      PP29490  15.113   4.722  13.107  0.0417  0.1480  0.1802
19387PP      PP29491  13.950   5.611   3.373  0.2397  0.3655 -0.2607
19388PP      PP29492  13.516   9.533   0.401 -0.0590 -0.2554  0.4263
19389PP      PP29493   9.668  13.217  12.519 -0.2914 -0.4856 -0.0445
19390PP      PP29494  12.911  11.755  11.292  0.1292 -0.0434 -0.3395
19391PP      PP29495  11.944   5.728   1.682 -0.0437  0.2080  0.0087
19392PP      PP29496   2.696  13.111   9.800 -0.1569 -0.3336 -0.4125
19393PP      PP29497   8.474  12.444   9.891  0.1269  0.0441  0.0020
19394PP      PP29498   9.242   2.255  10.616 -0.0704 -0.0165  0.3906
19395PP      PP29499  12.424   4.648   1.450 -0.2951  0.1733 -0.4318
19396PP      PP29500   4.674   8.919   9.181 -0.2878  0.0097 -0.1831
19397PP      PP29501   5.061   0.903  11.750  0.1535  0.1357  0.0585
19398PP      PP29502  12.181   4.521   1.938  0.2522 -0.1218  0.0356
19399PP      PP29503   6.244   6.018   3.210  0.1394 -0.2709 -0.1651
19400PP      PP29504  10.568   6.821   3.363 -0.1720  0.3311 -0.4389
19401PP      PP29505  13.697  12.386   4.681 -0.1683 -0.0746  0.2279
19402PP      PP29506  15.152  14.733   2.512  0.0132  0.2090  0.0480
19403PP      PP29507   7.931   9.138   3.111 -0.0886 -0.0243 -0.2716
19404PP      PP29508   2.209  13.465   0.550 -0.0973 -0.1510  0.0568
19405PP      PP29509   6.082   6.901   3.492  0.0069 -0.2890 -0.0846
19406PP      PP29510   0.626   8.469   4.293  0.1925  0.1278  0.1092
19407PP      PP29511   8.099   0.211   1.519 -0.3595 -0.1893  0.1072
19408PP      PP29512   6.917   1.307  10.047 -0.0683 -0.2558 -0.0605
19409PP      PP29513  14.282  12.679  12.233  0.1142  0.0848  0.2163
19410PP      PP29514   4.817   0.951   0.397 -0.0739  0.0788 -0.1102
19411PP      PP29515  14.119  11.585  12.432  0.0958  0.3391 -0.2622
19412PP      PP29516   1.255  15.584   1.717  0.2810  0.1605 -0.1717
19413PP      PP29517   4.342  14.016   3.258  0.2753  0.2906  0.1299
19414PP      PP29518  15.204   8.223  10.279 -0.0030 -0.3285  0.3321
19415PP      PP29519  10.466   7.961   0.895 -0.2300  0.1007  0.4269
19416PP      PP29520   3.854  12.518   3.881 -0.0434 -0.2200 -0.1938
19417PP      PP29521   4.190   7.791  12.257 -0.0995 -0.1025 -0.2105
19418PP      PP29522  11.279   1.704   3.232  0.1008  0.0258 -0.2638
19419PP      PP29523  11.576   9.285   9.737  0.1378 -0.2378  0.0346
19420PP      PP29524  12.623  10.371   0.690  0.2531 -0.1866 -0.1624
19421PP      PP29525   4.110   5.553   0.537  0.0610 -0.2611 -0.2965
19422PP      PP29526  12.875   7.725   3.424 -0.0721  0.0141  0.0307
19423PP      PP29527   1.207  11.929  12.454 -0.0852 -0.0123 -0.1125
19424PP      PP29528   3.836   6.222   0.838  0.0122 -0.0688  0.0180
19425PP      PP29529  11.567   0.301   2.888 -0.4088  0.3995  0.1107
19426PP      PP29530  12.938   7.128   4.584 -0.0013 -0.1555 -0.0134
19427PP      PP29531   7.291   9.519   9.174 -0.0561 -0.1095 -0.2306
19428PP      PP29532  10.216  10.597  12.534 -0.0078  0.0058 -0.0364
19429PP      PP29533   0.589   6.319  12.119  0.0974 -0.0814  0.4301
19430PP      PP29534   5.306  14.967  10.462 -0.0043  0.0048 -0.0126
19431PP      PP29535   4.623   8.022  13.131 -0.0081 -0.1358  0.0924
19432PP      PP29536  12.098  14.095  11.311 -0.0441 -0.0163 -0.2484
19433PP      PP29537   5.325   3.152  13.525 -0.0850 -0.2151 -0.0246
19434PP      PP29538   1.420   4.317   0.208 -0.2535 -0.0501 -0.0377
19435PP      PP29539   5.487  12.044   1.968 -0.0691  0.0401  0.3284
19436PP      PP29540  13.477  13.058  11.754 -0.0633 -0.1274 -0.1610
19437PP      PP29541   2.052  11.943   1.436 -0.1030 -0.0201 -0.0267
19438PP      PP29542  10.191   1.033  10.127  0.3197 -0.0286 -0.3352
19439PP      PP29543  13.484   7.331   4.580  0.2406  0.2695 -0.2393
19440PP      PP29544   5.751   9.287  11.710 -0.1656 -0.2003  0.2383
19441PP      PP29545   5.610   6.285  12.204 -0.1088  0.0854  0.2473
19442PP      PP29546   4.079   8.918   0.722  0.1320 -0.0227  0.1149
19443PP      PP29547  12.858   0.456  13.354  0.1051  0.0082 -0.0705
19444PP      PP29548  14.989   1.894   8.874  0.1999  0.0516 -0.1762
19445PP      PP29549   6.153   7.613   2.621 -0.0824  0.5413  0.0950
19446PP      PP29550  10.618   9.224   1.346 -0.1650 -0.0570  0.1116
19447PP      PP29551  13.735  14.278   9.733 -0.1458  0.1719 -0.3715
19448PP      PP29552  11.563   8.364  12.170 -0.0452 -0.0884  0.1178
19449PP      PP29553  14.583   0.947  10.776  0.1306 -0.0291 -0.0407
19450PP      PP29554   7.545  10.105   2.273  0.2831  0.1962 -0.1024
19451PP      PP29555  14.860  11.338  11.380 -0.1037  0.0893 -0.0814
19452PP      PP29556   3.688  15.382   9.082 -0.0957 -0.0912 -0.0864
19453PP      PP29557   3.826  14.536  10.904  0.0574 -0.2997 -0.1614
19454PP      PP29558  13.855   8.560  12.829 -0.0815  0.0357  0.0061
19455PP      PP29559   1.673   8.612   5.846 -0.0733 -0.1480  0.3710
19456PP      PP29560  14.927   5.458   2.048  0.1199  0.4531 -0.0329
19457PP      PP29561  13.738   7.358   4.046  0.1025 -0.1795 -0.0314
19458PP      PP29562  12.414  13.050   2.398 -0.0818 -0.1268 -0.4327
19459PP      PP29563  12.982   5.661   0.897  0.0038  0.1303  0.2443
19460PP      PP29564   8.010   4.827  12.977  0.2375  0.0535  0.0129
19461PP      PP29565  13.748   0.172  11.957  0.1562  0.1699 -0.2430
19462PP      PP29566  12.132   7.160  12.393  0.3399 -0.0381  0.2272
19463PP      PP29567   8.006  14.270   8.297 -0.0246  0.2625  0.2526
19464PP      PP29568   4.690   1.201  11.998  0.0743 -0.1176 -0.2852
19465PP      PP29569  14.517   8.245   1.461  0.0281 -0.2340 -0.0247
19466PP      PP29570   4.797  15.385  13.457  0.1054 -0.0168 -0.1345
19467PP      PP29571  12.692   6.432  12.667  0.0414 -0.1692  0.0270
19468PP      PP29572   7.839  11.161   3.033 -0.2281  0.0028 -0.0409
19469PP      PP29573  14.255  14.031   3.672 -0.2781 -0.0708  0.1974
19470PP      PP29574  11.501  11.392   3.533  0.1051 -0.0432 -0.1182
19471PP      PP29575   5.703   5.201  10.005  0.0563 -0.1923 -0.0397
19472PP      PP29576   4.449   2.501   2.728 -0.0651 -0.0800  0.0730
19473PP      PP29577   1.187  13.919   3.495  0.0949 -0.0048  0.2779
19474PP      PP29578  13.265   5.243  13.394  0.0722  0.2154 -0.3207
19475PP      PP29579   2.710   3.116  12.905 -0.2479 -0.0512  0.3084
19476PP      PP29580  12.479  14.651   3.239  0.3997 -0.1068  0.0633
19477PP      PP29581   3.570   2.825   2.471 -0.0042  0.2641  0.0500
19478PP      PP29582  11.022   2.040  13.389  0.0360  0.3441 -0.4371
19479PP      PP29583  11.516   6.514   0.746 -0.1379 -0.1197 -0.1781
19480PP      PP29584  13.379   6.279   3.450  0.0114  0.3479 -0.2306
19481PP      PP29585  13.406  12.125   4.973  0.3216  0.0472 -0.2482
19482PP      PP29586   4.033   5.403  12.682  0.4231  0.1854  0.1656
19483PP      PP29587   6.930  11.357   3.483  0.3943  0.0295  0.2374
19484PP      PP29588   0.020  15.817   0.026 -0.2091 -0.2072 -0.2543
19485PP      PP29589  10.107  13.600   2.790  0.0375 -0.1508  0.0614
19486PP      PP29590   5.947  11.458   9.852  0.2491  0.1378 -0.1640
19487PP      PP29591  13.980   7.818   3.907 -0.0190  0.0144  0.0591
19488PP      PP29592  11.155   1.229   4.302 -0.0736  0.0792  0.3803
19489PP      PP29593   5.623   6.529   0.919  0.0713 -0.1950 -0.3158
19490PP      PP29594   2.301   6.991  11.645  0.0560  0.1018 -0.0297
19491PP      PP29595   7.777   0.309  12.196 -0.3047  0.1800  0.1402
19492PP      PP29596  12.944   4.956   1.043 -0.0598 -0.0670  0.1792
19493PP      PP29597   7.299  10.023   1.353 -0.3001 -0.2692 -0.0572
19494PP      PP29598   6.523   5.250   9.406  0.0813 -0.0160 -0.3097
19495PP      PP29599   5.768   6.250  11.741 -0.0555  0.0373  0.6288
19496PP      PP29600  12.956  11.389  12.962 -0.3587  0.0659  0.1565
19497PP      PP29601   1.092   6.668   4.175 -0.0764  0.1522 -0.0153
19498PP      PP29602  13.979  10.498   0.878 -0.0252 -0.2421  0.0173
19499PP      PP29603  15.422   7.653   0.648  0.0033 -0.0126 -0.0960
19500PP      PP29604  12.456   3.953  11.659 -0.1538 -0.0887 -0.0141
19501PP      PP29605   4.882   0.571   2.117 -0.3528  0.3759 -0.1009
19502PP      PP29606   9.849   0.589   1.531 -0.2445  0.0055 -0.0208
19503PP      PP29607  14.350   1.864  10.756  0.2547 -0.1690  0.2941
19504PP      PP29608  13.633   3.201   2.496  0.3825  0.1733 -0.0162
19505PP      PP29609   3.948  10.462   9.750 -0.3114  0.3980 -0.0557
19506PP      PP29610   5.180  10.196  10.771 -0.1283  0.0469 -0.0354
19507PP      PP29611  11.809   5.467  10.873 -0.0523  0.1893  0.2122
19508PP      PP29612   3.220   3.202  13.079 -0.0629 -0.1091 -0.1803
19509PP      PP29613  12.786  14.137   3.083 -0.1301  0.0319 -0.0711
19510PP      PP29614   5.227  14.443  13.234 -0.0055 -0.1943 -0.0352
19511PP      PP29615   2.964  11.138   2.755 -0.0753  0.4164  0.0914
19512PP      PP29616   0.251  14.543  10.207  0.0714 -0.1229  0.2991
19513PP      PP29617  10.630   1.227  10.326  0.0495  0.3503  0.0284
19514PP      PP29618  14.572   7.009   3.800  0.0327 -0.2167  0.0950
19515PP      PP29619   0.204   1.497  11.642  0.3051  0.2316 -0.1189
19516PP      PP29620   8.496  11.752   0.076 -0.1754  0.0583 -0.0454
19517PP      PP29621   0.930   9.114  13.068  0.1544 -0.3503  0.1919
19518PP      PP29622   6.503  11.993   1.810 -0.1615  0.1076 -0.4067
19519PP      PP29623   8.164   3.213  12.317  0.1520  0.0210 -0.0451
19520PP      PP29624   9.508   5.511  12.107 -0.1073  0.0667 -0.1906
19521PP      PP29625   8.950   4.798   1.565  0.1653 -0.2393  0.0638
19522PP      PP29626  13.953  10.370  11.141 -0.0620  0.0203 -0.1040
19523PP      PP29627   3.964  14.292  13.277  0.3321  0.2507  0.0246
19524PP      PP29628   7.386  13.625  11.795 -0.0001 -0.1352  0.1459
19525PP      PP29629  15.756  10.897  10.946  0.3056  0.3973 -0.1114
19526PP      PP29630   3.743   5.958  11.831  0.1017 -0.0896 -0.1418
19527PP      PP29631   7.498  11.025   0.426 -0.1330  0.4687  0.3006
19528PP      PP29632   8.413   9.999   9.376 -0.3107 -0.1422 -0.3640
19529PP      PP29633  13.392   1.002  10.347  0.1638 -0.0445 -0.1453
19530PP      PP29634   8.216   9.902  11.083  0.0717 -0.0899  0.0560
19531PP      PP29635   7.014   0.622   8.693 -0.2243  0.0331  0.2596
19532PP      PP29636  11.078  15.164  10.903  0.2585  0.0940 -0.1128
19533PP      PP29637  13.016   4.678  11.826  0.2301  0.1606  0.4434
19534PP      PP29638  11.970  13.130   2.314  0.2944  0.0975  0.2033
19535PP      PP29639   9.395  11.380   0.894  0.0007 -0.0731  0.2682
19536PP      PP29640   6.886  13.271   8.205  0.4296 -0.0168 -0.2325
19537PP      PP29641  12.002  11.946  10.642 -0.0704  0.5016 -0.0229
19538PP      PP29642  12.983  14.137   1.693 -0.4772  0.1629  0.0164
19539PP      PP29643   3.200   8.135   4.503 -0.1901  0.1804 -0.3340
19540PP      PP29644  10.521   6.698  11.920  0.0848  0.2729 -0.0196
19541PP      PP29645   8.968   7.283   1.199 -0.1537 -0.0837  0.0819
19542PP      PP29646   7.447   0.626   3.840  0.1465  0.0321  0.2579
19543PP      PP29647   7.960   6.177   9.892  0.2660  0.1208  0.0021
19544PP      PP29648   0.431  15.830  12.591  0.1089 -0.1302  0.3949
19545PP      PP29649   6.615   5.141   2.243 -0.1893  0.0390  0.1060
19546PP      PP29650  10.081   2.319  12.685 -0.1018  0.1771 -0.1452
19547PP      PP29651   3.806   9.351  11.170  0.1017 -0.0564 -0.1949
19548PP      PP29652   1.678  11.882   1.775  0.1490 -0.1409 -0.0604
19549PP      PP29653   4.616   0.192   8.232 -0.0255 -0.0867 -0.0124
19550PP      PP29654   8.003   7.181  11.980 -0.0155  0.0333  0.0348
19551PP      PP29655  13.539  15.237  10.962 -0.1773 -0.4426 -0.2121
19552PP      PP29656   1.404   0.742   0.669  0.0762 -0.0363 -0.0313
19553PP      PP29657   4.642   2.059   2.452  0.4516 -0.2603  0.6550
19554PP      PP29658   1.580   8.216   1.918  0.1239  0.3041 -0.3139
19555PP      PP29659  11.467  14.889  11.012  0.4125  0.0416 -0.0390
19556PP      PP29660   6.229   7.552   3.957 -0.2568  0.0629 -0.0269
19557PP      PP29661   5.201   2.102  13.517 -0.0906 -0.1984 -0.0040
19558PP      PP29662  12.561   7.439  12.523  0.0857  0.2043  0.0984
19559PP      PP29663   2.943   5.991   9.565  0.0171  0.2948  0.0764
19560PP      PP29664   0.669  10.314  12.429 -0.0695 -0.1499 -0.1802
19561PP      PP29665  12.063   1.614   3.782 -0.0510 -0.0326 -0.1525
19562PP      PP29666   7.193   4.085   3.641  0.0865  0.0362  0.0830
19563PP      PP29667  15.020   4.244  11.096 -0.2388 -0.0016  0.4016
19564PP      PP29668   6.442  15.513   9.781  0.0256 -0.3602  0.2367
19565PP      PP29669  15.528   9.945   2.993 -0.0913  0.0419  0.0055
19566PP      PP29670   4.102   7.068   0.317 -0.1544  0.1552 -0.2119
19567PP      PP29671  13.450  15.613   3.352 -0.1151  0.1155  0.3262
19568PP      PP29672  11.853  11.627   0.940 -0.1221 -0.1977 -0.1080
19569PP      PP29673  12.661  13.481   0.093 -0.1198 -0.2247  0.2285
19570PP      PP29674   8.282  12.609   3.777  0.0353 -0.2981  0.0404
19571PP      PP29675  11.971  11.726   9.823  0.1140  0.1907  0.0129
19572PP      PP29676   3.593   7.053   2.386  0.0089  0.2145  0.0583
19573PP      PP29677   9.462   1.559   8.778  0.1696 -0.0970  0.0891
19574PP      PP29678   8.552  12.531  13.326  0.0950  0.1415  0.2124
19575PP      PP29679  12.968   3.110   9.219  0.0557  0.3317 -0.0652
19576PP      PP29680  13.929   9.068  12.518 -0.0949 -0.0890  0.0840
19577PP      PP29681   3.564  11.157  11.072  0.0229 -0.2742  0.0501
19578PP      PP29682   1.733   1.548   8.275 -0.0564 -0.0455  0.2554
19579PP      PP29683  15.461   9.980   4.838 -0.1095  0.2721  0.1976
19580PP      PP29684   3.744   1.266  10.462 -0.0476 -0.0982  0.1929
19581PP      PP29685   6.547   9.223   9.473  0.0203  0.0185 -0.1691
19582PP      PP29686  11.889  12.417   0.053  0.3108 -0.0803  0.1963
19583PP      PP29687   4.674   9.388   4.044  0.1278 -0.4057 -0.2993
19584PP      PP29688   3.683   2.012   3.776 -0.0016 -0.0964  0.2778
19585PP      PP29689  14.897  11.167   2.627  0.3218  0.1146 -0.0140
19586PP      PP29690  15.153   7.765  11.979  0.0089  0.3859  0.0163
19587PP      PP29691   2.707   2.925   9.693  0.1348 -0.2330 -0.3339
19588PP      PP29692   8.324  14.179  11.469 -0.1315  0.0499 -0.0706
19589PP      PP29693  13.893  11.483   2.622 -0.0051 -0.2593 -0.3935
19590PP      PP29694   6.546   8.107   0.825 -0.1986 -0.3438  0.3263
19591PP      PP29695  13.096   7.411   1.700 -0.3499 -0.2364  0.1524
19592PP      PP29696   5.141   9.528   2.943  0.1289  0.0633  0.1660
19593PP      PP29697   4.301  14.456  12.865 -0.0403 -0.2298 -0.1404
19594PP      PP29698  12.328   3.163   4.432 -0.2383  0.0710  0.0066
19595PP      PP29699   9.336   8.959  11.797  0.4695  0.0639  0.3394
19596PP      PP29700  13.303   2.528  12.716  0.0905 -0.5625  0.0179
19597PP      PP29701   2.001  15.220   2.378  0.1105  0.1373 -0.0648
19598PP      PP29702  10.190  12.020  12.653  0.4271 -0.1020  0.2070
19599PP      PP29703  14.857   8.559  12.064  0.0408 -0.0492 -0.3920
19600PP      PP29704   7.483   4.788   1.599 -0.0589 -0.0034  0.0376
19601PP      PP29705   7.171   7.141  12.043 -0.2186 -0.0192  0.2037
19602PP      PP29706  15.076  15.571   2.859 -0.3219 -0.0141  0.0456
19603PP      PP29707  13.151   9.599   2.436  0.1239  0.1385  0.1402
19604PP      PP29708  12.814  12.214  11.744  0.1484 -0.0981 -0.2191
19605PP      PP29709   2.924  13.205  13.009 -0.3009 -0.2039 -0.2602
19606PP      PP29710   3.282  15.594   8.777  0.2242 -0.1230 -0.2063
19607PP      PP29711   0.391   4.048   1.305 -0.0974  0.3732 -0.0427
19608PP      PP29712   9.333  13.579   9.492 -0.1483 -0.0294 -0.0972
19609PP      PP29713  12.658   5.886  11.920 -0.0599  0.1059 -0.1126
19610PP      PP29714   9.879   1.315  10.345 -0.0049 -0.2491 -0.0214
19611PP      PP29715  11.386  11.195  11.897  0.1050 -0.0190 -0.0002
19612PP      PP29716   8.382   4.613   1.201  0.1280  0.0946  0.1882
19613PP      PP29717  13.422   2.755   4.617 -0.2190  0.0493  0.0260
19614PP      PP29718  15.411   9.753   0.108 -0.0659 -0.0534  0.4974
19615PP      PP29719   8.757  13.137  13.101 -0.3179 -0.0619  0.3759
19616PP      PP29720  10.580  15.127  10.619 -0.1853  0.1818  0.1254
19617PP      PP29721  11.538   5.060  13.002  0.0428 -0.0009 -0.1293
19618PP      PP29722   5.109   8.473  12.817  0.0273  0.0704 -0.2022
19619PP      PP29723  13.866  14.145   4.169 -0.0840 -0.1352 -0.3894
19620PP      PP29724   1.779  10.540   1.867 -0.2339 -0.3115 -0.0587
19621PP      PP29725   2.690  12.308  12.802  0.1671  0.3850  0.0437
19622PP      PP29726   5.007  14.407   7.658 -0.2172  0.1992 -0.0081
19623PP      PP29727  10.375  10.456   0.950  0.3556  0.1666  0.0451
19624PP      PP29728  14.388   0.587   4.703  0.0048  0.0159  0.2505
19625PP      PP29729  14.183   9.227   4.873 -0.0907  0.0013  0.2408
19626PP      PP29730  15.204  15.520   2.323  0.2170  0.1048 -0.2282
19627PP      PP29731   1.908  11.201  12.488 -0.2613 -0.0739 -0.1624
19628PP      PP29732   9.129   9.615   2.794  0.1023 -0.1155 -0.2077
19629PP      PP29733   8.694   8.316   0.531  0.1029  0.0724 -0.2373
19630PP      PP29734  14.936   4.612   1.515 -0.2680  0.2027  0.0077
19631PP      PP29735  14.748   0.158   2.071  0.0232 -0.3770 -0.2045
19632PP      PP29736   5.484   8.220   4.616 -0.0805 -0.1673 -0.0533
19633PP      PP29737  11.592   0.906   2.524 -0.0570  0.0255  0.1366
19634PP      PP29738  11.884  14.057  12.179  0.3035  0.0655 -0.1664
19635PP      PP29739  10.173  14.975   3.624  0.0208 -0.0805 -0.2265
19636PP      PP29740  10.235   2.567   2.710  0.0960 -0.1377  0.0715
19637PP      PP29741  11.153   9.718   4.459 -0.3046 -0.3447 -0.1884
19638PP      PP29742   6.274   9.268   4.188  0.3040 -0.0970  0.0049
19639PP      PP29743   5.182   7.828  10.283 -0.3212 -0.0315 -0.3276
19640PP      PP29744   3.001  13.035   1.439 -0.2623 -0.2081 -0.0836
19641PP      PP29745   7.881   8.069   1.225 -0.1317  0.0419 -0.2708
19642PP      PP29746   5.261   9.017   0.652  0.0051 -0.1870 -0.0477
19643PP      PP29747   9.560   1.608   2.556  0.0425 -0.0378  0.1134
19644PP      PP29748   5.869  11.544   9.279 -0.2647  0.0498  0.0142
19645PP      PP29749  13.075  12.864  13.071  0.0611  0.1495  0.2475
19646PP      PP29750   7.336  15.325  13.232 -0.4001  0.2126  0.0953
19647PP      PP29751  13.049   8.298   9.935 -0.2483  0.1724  0.1092
19648PP      PP29752   4.670   5.622   1.302 -0.2685 -0.0077 -0.0014
19649PP      PP29753   9.014  14.240   0.294 -0.1638 -0.1683 -0.2265
19650PP      PP29754   9.990  10.061  11.504  0.3322  0.3359 -0.0722
19651PP      PP29755  14.624   2.090   9.609 -0.3735 -0.0131  0.2362
19652PP      PP29756   4.345  15.633  12.347  0.0733  0.1386  0.0397
19653PP      PP29757   4.796   9.298  11.090 -0.0934 -0.2056  0.1863
19654PP      PP29758   4.800   0.743   8.254 -0.2763  0.3250  0.1662
19655PP      PP29759  14.984   3.843  11.906  0.1414  0.1856  0.0183
19656PP      PP29760  11.315   6.731  13.033  0.2972 -0.1620 -0.3608
19657PP      PP29761   1.676   9.046  11.575  0.3978 -0.0380 -0.0702
19658PP      PP29762   6.053   1.284  11.437  0.0043  0.1690  0.0490
19659PP      PP29763   4.339   9.090   4.324  0.1122  0.3543  0.2539
19660PP      PP29764   8.303   5.375   9.501 -0.1482 -0.3770 -0.0975
19661PP      PP29765  13.718  12.204   0.020  0.2153  0.0987  0.4121
19662PP      PP29766   5.084   2.728   2.003 -0.1642 -0.1078 -0.2258
19663PP      PP29767  13.826   1.762   9.883  0.0775  0.1862  0.0895
19664PP      PP29768  13.799  12.473   0.958 -0.0053 -0.3164  0.1731
19665PP      PP29769  12.002   0.712   4.152 -0.2554 -0.1923  0.1607
19666PP      PP29770  11.556  13.360   1.234  0.0102 -0.1927 -0.1074
19667PP      PP29771  13.663   4.435  10.995  0.1526 -0.0934  0.1499
19668PP      PP29772   3.678  14.629   9.677  0.2754  0.2499  0.1904
19669PP      PP29773  12.218  14.016  13.041  0.2270  0.1096  0.0543
19670PP      PP29774   7.120   3.441   3.410  0.0870  0.1185  0.1163
19671PP      PP29775   4.531   8.454  10.822 -0.1698  0.1650  0.0918
19672PP      PP29776   9.587   8.211   2.790 -0.0591  0.0537 -0.0337
19673PP      PP29777  11.872  13.013   9.674  0.1313  0.1977 -0.3769
19674PP      PP29778   8.475   9.996   0.168  0.0828  0.0989  0.0401
19675PP      PP29779   7.351  12.127   2.410  0.1681  0.0966 -0.1550
19676PP      PP29780  14.895  13.760   2.287  0.0755 -0.0912 -0.0801
19677PP      PP29781   3.001   7.260   0.499  0.0946  0.0286  0.0022
19678PP      PP29782  11.986   3.587   8.911 -0.1841  0.2328 -0.0814
19679PP      PP29783   9.658  15.516  12.560  0.2802  0.2700  0.0925
19680PP      PP29784   5.891   6.836   8.545  0.1883  0.1289  0.0321
19681PP      PP29785   0.250   3.788   9.520 -0.3180 -0.0153 -0.1707
19682PP      PP29786   7.517   8.357   1.050  0.3910  0.3457  0.3133
19683PP      PP29787   0.112  14.230   1.079  0.1375  0.1193 -0.1026
19684PP      PP29788   8.207   2.359  11.595 -0.3035 -0.2962 -0.2029
19685PP      PP29789   3.251  15.505   2.972  0.0059  0.3334 -0.0877
19686PP      PP29790  13.774   3.523   0.064  0.0818 -0.1205  0.3087
19687PP      PP29791   0.586   7.367   3.878  0.3584  0.0708 -0.0706
19688PP      PP29792   0.140   1.241   8.283 -0.1403  0.0423  0.3441
19689PP      PP29793   2.143   5.944   0.889 -0.0649 -0.1227  0.1164
19690PP      PP29794  13.116  12.040  10.762 -0.0821  0.0212 -0.1209
19691PP      PP29795  15.636   1.133  13.229  0.2914 -0.2260 -0.2090
19692PP      PP29796   4.808  13.353   0.022 -0.0548  0.2393 -0.1390
19693PP      PP29797   1.373   6.329   1.184  0.0515 -0.1554 -0.6381
19694PP      PP29798   9.215  11.564   9.284  0.1697  0.3328 -0.0403
19695PP      PP29799   2.121  14.686   2.868 -0.1001 -0.1122 -0.1779
19696PP      PP29800   1.539  14.649   2.828 -0.0882 -0.0957  0.3431
19697PP      PP29801   3.719   0.986   9.091 -0.0066 -0.2648  0.0258
19698PP      PP29802   0.060   2.420  10.908  0.0445 -0.1040  0.3165
19699PP      PP29803   0.978   3.531   0.829  0.0681 -0.0553 -0.0741
19700PP      PP29804  12.167   9.882   9.667  0.1092 -0.0116 -0.1229
19701PP      PP29805  13.587  14.152   2.691 -0.0745 -0.1760  0.1207
19702PP      PP29806   3.294  10.197   1.563 -0.2117 -0.1407  0.0637
19703PP      PP29807  14.240   9.683   3.945  0.3168  0.1281 -0.2638
19704PP      PP29808  15.739   6.602   1.751  0.0140 -0.0774 -0.0998
19705PP      PP29809  11.905  15.317   9.833  0.1341  0.0254 -0.0828
19706PP      PP29810  15.764   0.798   9.904 -0.1990 -0.4206 -0.0053
19707PP      PP29811   5.848  11.910  12.456  0.4029  0.2553 -0.1379
19708PP      PP29812  10.936  13.730  12.485  0.1263 -0.0326 -0.1725
19709PP      PP29813   1.311  14.478   3.199  0.0439  0.1941  0.0589
19710PP      PP29814  12.348  14.193   3.506 -0.1572  0.0568 -0.2940
19711PP      PP29815  15.813  12.615   1.697  0.1617 -0.2139  0.0239
19712PP      PP29816   1.639  15.357   2.012  0.1740  0.0026 -0.3970
19713PP      PP29817   3.370   0.893   3.158 -0.0652  0.1176  0.2743
19714PP      PP29818   5.187   1.371  10.043 -0.1216  0.3899 -0.3415
19715PP      PP29819   4.741   7.810  12.119  0.0391 -0.0261 -0.1192
19716PP      PP29820   8.704   7.614  13.148 -0.2936 -0.2824 -0.2426
19717PP      PP29821  14.506   8.946  12.005  0.0177  0.3892  0.0965
19718PP      PP29822   3.929   4.045  13.394 -0.1221 -0.3147  0.0292
19719PP      PP29823   1.667   3.572  13.121  0.0803  0.1818  0.1884
19720PP      PP29824   5.203   1.236  11.410 -0.0774 -0.1506 -0.0976
19721PP      PP29825   0.778  12.706   2.884  0.2611 -0.1332 -0.0830
19722PP      PP29826   7.479   3.879   1.444 -0.3599 -0.1285  0.4898
19723PP      PP29827   2.745   6.366   3.791  0.0899 -0.0799  0.1237
19724PP      PP29828   8.260   8.014   3.378  0.1745  0.0929 -0.1329
19725PP      PP29829  10.600   3.882   1.154 -0.0357  0.0346 -0.0035
19726PP      PP29830   2.368   3.537   9.788 -0.0006 -0.0070 -0.0977
19727PP      PP29831  11.588   9.383   0.205  0.0963 -0.0627 -0.0107
19728PP      PP29832  12.760   6.445  12.153  0.0128 -0.1038 -0.2843
19729PP      PP29833   5.568   8.738  12.979  0.0603  0.1537 -0.0141
19730PP      PP29834   8.977   7.351   9.931  0.1281 -0.0615  0.0692
19731PP      PP29835   3.969   9.755   0.229  0.0086  0.0759 -0.1690
19732PP      PP29836   1.709  15.724  13.141 -0.2057  0.1030  0.0475
19733PP      PP29837  13.350   3.249  13.445  0.0176 -0.0224 -0.1573
19734PP      PP29838   5.399   6.087   8.993 -0.0111  0.3269  0.1698
19735PP      PP29839  11.571  15.276  10.631 -0.0890 -0.0907 -0.0949
19736PP      PP29840   7.746   3.405  10.233 -0.0924 -0.0490 -0.1363
19737PP      PP29841   3.980   8.759   0.290  0.1101  0.1706 -0.0134
19738PP      PP29842   1.840   2.220  10.734 -0.0487  0.0663  0.2415
19739PP      PP29843  15.416   6.471   0.002  0.2229  0.1370 -0.1343
19740PP      PP29844  11.094   9.262  12.451 -0.4152  0.5020 -0.0574
19741PP      PP29845   5.701   4.637  10.175  0.1826 -0.0893 -0.3095
19742PP      PP29846  14.673  10.210  13.444 -0.0054  0.1656  0.1548
19743PP      PP29847   9.509   0.090   3.864  0.1018  0.0994  0.1271
19744PP      PP29848   7.123   3.041  12.346 -0.0236 -0.1301 -0.0689
19745PP      PP29849  12.477  14.622   2.678 -0.0950  0.2674  0.0079
19746PP      PP29850  14.681  10.638  13.211 -0.0139 -0.1026 -0.0186
19747PP      PP29851   2.968   8.210   6.501  0.1000  0.1787  0.2128
19748PP      PP29852   4.176   3.744  11.012 -0.0149  0.0024 -0.3523
19749PP      PP29853   8.173  14.604  12.388 -0.3468 -0.1347  0.0629
19750PP      PP29854  11.442   3.223   9.692 -0.2727  0.0158  0.0501
19751PP      PP29855   8.602  15.001   9.922  0.0188 -0.0948 -0.0905
19752PP      PP29856   9.613   6.447   2.443  0.1655 -0.0276 -0.3982
19753PP      PP29857   8.454   9.265   1.975  0.2001  0.0128  0.0170
19754PP      PP29858   5.432  14.200   3.069 -0.1095 -0.4091 -0.0229
19755PP      PP29859  10.479   0.083   2.154  0.1626  0.1616  0.0820
19756PP      PP29860  15.743   3.349   2.416  0.3461 -0.2327  0.0152
19757PP      PP29861   1.469   8.482  11.291  0.0469 -0.1114  0.1943
19758PP      PP29862   9.672  12.329  13.301 -0.0831  0.3429  0.0024
19759PP      PP29863   9.487   7.779   3.711 -0.0319 -0.0198 -0.3482
19760PP      PP29864   7.019   7.991   9.155 -0.1113  0.0279  0.0546
19761PP      PP29865  11.523   0.755   0.715  0.1705 -0.2766 -0.4170
19762PP      PP29866   5.086  10.820   0.218 -0.1749 -0.0580 -0.4171
19763PP      PP29867  13.275  15.151   4.215 -0.1142  0.0453  0.1394
19764PP      PP29868   5.124  15.615   1.593 -0.1672  0.0646  0.1096
19765PP      PP29869  13.283   1.890   9.071  0.1166  0.1472  0.1144
19766PP      PP29870   3.388  12.652   1.833  0.0182  0.0953  0.0510
19767PP      PP29871   0.562   8.423  10.970 -0.0393  0.2964  0.2087
19768PP      PP29872   1.974  13.247   3.103  0.0329  0.0058  0.1680
19769PP      PP29873  14.857  10.238   3.714 -0.0137  0.4447  0.1831
19770PP      PP29874  15.218   1.314   1.470 -0.1960 -0.0195  0.1380
19771PP      PP29875   8.429   2.816   1.024 -0.0135 -0.0639 -0.0807
19772PP      PP29876   5.498   8.482   9.171  0.1109  0.0944  0.0535
19773PP      PP29877   2.034  11.430  10.264 -0.1026  0.0092 -0.0163
19774PP      PP29878  11.235   7.929   9.612 -0.1490 -0.0967 -0.0320
19775PP      PP29879  14.256   3.097   0.570  0.0822  0.1611  0.1809
19776OST    PA129880   6.129   8.914  12.136  0.3329 -0.2629  0.1890
19776OST    PA229881   5.999   8.900  12.462  0.0584  0.2721  0.1666
19776OST    PA329882   5.920   9.172  12.322 -0.4139  0.1291  0.0948
19776OST    PA429883   5.878   8.907  12.611 -0.0275  0.2380  0.1872
19776OST    PA529884   5.910   8.627  12.705 -0.3088  0.2413  0.4969
19776OST    PA629885   6.084   8.565  12.528  0.0797  0.6243 -0.2012
19777OST    PA129886   4.566  15.760   4.389  0.0599  0.2002 -0.0609
19777OST    PA229887   4.588  15.650   4.052  0.0852  0.1287  0.3663
19777OST    PA329888   4.507  15.930   4.002 -0.3978 -0.2487  0.0289
19777OST    PA429889   4.457  15.583   3.922  0.2159  0.1253 -0.1219
19777OST    PA529890   4.600  15.306   3.961 -0.2834  0.2341  0.1371
19777OST    PA629891   4.786  15.361   4.073  0.0341  0.4628 -0.4160
19778OST    PA129892   2.431  14.658  12.025  0.1953  0.1799  0.1837
19778OST    PA229893   2.609  14.947  12.064 -0.3517  0.2067 -0.0823
19778OST    PA329894   2.841  14.900  12.279 -0.0794  0.1773 -0.0686
19778OST    PA429895   2.578  15.133  12.101  0.4586  0.1817 -0.0405
19778OST    PA529896   2.518  15.201  11.791 -0.2920 -0.3053 -0.0487
19778OST    PA629897   2.557  14.998  11.696 -0.0868  0.3046 -0.1199
19779OST    PA129898  15.555   0.331   1.089 -0.0150 -0.1009 -0.0356
19779OST    PA229899  15.855   0.164   1.030  0.0326 -0.1070 -0.0102
19779OST    PA329900  15.884   0.331   0.817  0.1772 -0.1889  0.1391
19779OST    PA429901  15.984   0.003   0.944  0.0370 -0.1560 -0.0197
19779OST    PA529902  16.002  -0.162   1.228  0.0336 -0.2099  0.1263
19779OST    PA629903  15.907   0.015   1.333 -0.2217 -0.0025 -0.3112
19780OST    PA129904   0.472   4.009   0.331 -0.2660 -0.0094  0.0667
19780OST    PA229905   0.178   4.091   0.520 -0.0346 -0.0929  0.2711
19780OST    PA329906   0.071   3.888   0.338 -0.0126 -0.1119 -0.0416
19780OST    PA429907  -0.016   4.173   0.580  0.0222 -0.0887 -0.0405
19780OST    PA529908   0.089   4.405   0.752  0.3618 -0.4153  0.0348
19780OST    PA629909   0.320   4.359   0.698 -0.1235 -0.1970 -0.4278
19781OST    PA129910   1.860   6.027  13.121 -0.2342  0.0089  0.1570
19781OST    PA229911   1.668   5.882  12.850  0.1096 -0.2252 -0.1396
19781OST    PA329912   1.490   6.125  12.939  0.5179  0.2252 -0.1854
19781OST    PA429913   1.498   5.765  12.834 -0.2482 -0.3237  0.1293
19781OST    PA529914   1.666   5.470  12.830  0.0056 -0.0691  0.0435
19781OST    PA629915   1.865   5.595  12.830 -0.0781  0.2498 -0.2245
19782OST    PA129916   1.736  10.335  12.207  0.0898  0.0386  0.1745
19782OST    PA229917   1.852  10.638  12.387 -0.0635  0.0963  0.0811
19782OST    PA329918   1.649  10.844  12.360 -0.1379  0.7612  0.2465
19782OST    PA429919   1.992  10.776  12.494  0.1746 -0.0332  0.1171
19782OST    PA529920   2.170  10.564  12.629  0.2065  0.3170 -0.1657
19782OST    PA629921   2.020  10.388  12.562  0.0975  0.2573  0.1515
19783OST    PA129922  14.810   7.113   9.500 -0.3651 -0.1137  0.3374
19783OST    PA229923  15.028   7.236   9.774  0.1734  0.2627  0.0186
19783OST    PA329924  15.169   6.937   9.769  0.5165 -0.1692 -0.1542
19783OST    PA429925  15.053   7.248   9.942 -0.2456  0.2084  0.3651
19783OST    PA529926  14.874   7.463  10.035 -0.0427  0.1036 -0.1151
19783OST    PA629927  14.805   7.522   9.808  0.0664 -0.0095  0.1517
19784OST    PA129928   6.123   4.130   5.179 -0.2487 -0.1825  0.0970
19784OST    PA229929   5.846   3.980   5.006 -0.5442 -0.1038 -0.0676
19784OST    PA329930   5.890   3.718   4.942 -0.1114  0.3143  0.2416
19784OST    PA429931   5.661   3.967   5.022  0.0913  0.1754 -0.0421
19784OST    PA529932   5.578   4.267   4.875  0.1947 -0.1667 -0.2030
19784OST    PA629933   5.830   4.289   4.845  0.1964  0.1179  0.0716
19785OST    PA129934   4.250   2.231   0.588 -0.2369  0.4162 -0.0775
19785OST    PA229935   4.020   1.981   0.710 -0.0332  0.4836 -0.0431
19785OST    PA329936   3.848   2.161   0.887  0.2878 -0.0386  0.1236
19785OST    PA429937   3.895   1.848   0.662  0.3157  0.3673 -0.0297
19785OST    PA529938   4.101   1.629   0.553 -0.2484 -0.2046 -0.2182
19785OST    PA629939   4.279   1.744   0.637  0.1291  0.0746  0.0305
19786OST    PA129940  15.218   6.007   1.221 -0.3704  0.0371 -0.3056
19786OST    PA229941  15.170   6.264   1.446  0.0871 -0.1321  0.0473
19786OST    PA329942  15.049   6.130   1.696  0.0410  0.2391 -0.1084
19786OST    PA429943  15.084   6.436   1.478  0.1781 -0.2077  0.0042
19786OST    PA529944  15.341   6.604   1.456  0.0940 -0.1792  0.0425
19786OST    PA629945  15.475   6.406   1.385 -0.0459 -0.2364 -0.1315
19787OST    PA129946   4.052  14.775  12.182  0.2151 -0.2101 -0.1469
19787OST    PA229947   3.790  14.714  12.429  0.0377  0.3395  0.4370
19787OST    PA329948   3.949  14.481  12.516 -0.0150 -0.1375 -0.0806
19787OST    PA429949   3.604  14.620  12.418  0.0000  0.1266 -0.2446
19787OST    PA529950   3.454  14.906  12.321 -0.2082  0.1747 -0.2465
19787OST    PA629951   3.690  15.012  12.328  0.1818 -0.5528 -0.0363
19788OST    PA129952   2.081  10.928  11.677 -0.0120 -0.0198 -0.1333
19788OST    PA229953   1.893  11.020  11.960  0.2548  0.1583  0.0488
19788OST    PA329954   1.866  10.724  12.014 -0.6919 -0.0449 -0.4987
19788OST    PA429955   1.746  11.066  12.079  0.3943 -0.0013 -0.0407
19788OST    PA529956   1.791  11.372  12.117  0.0392  0.1005  0.2404
19788OST    PA629957   1.984  11.350  11.959  0.2338 -0.0845  0.2541
19789OST    PA129958  15.156  12.872   4.902  0.0758  0.0192  0.1994
19789OST    PA229959  15.218  12.546   4.808 -0.3748 -0.2369  0.0381
19789OST    PA329960  14.927  12.526   4.759 -0.0554  0.1051 -0.3024
19789OST    PA429961  15.271  12.343   4.739 -0.1222 -0.1770  0.1236
19789OST    PA529962  15.496  12.311   4.974 -0.2380 -0.3220  0.1060
19789OST    PA629963  15.453  12.574   5.053 -0.0997 -0.0047  0.0554
19790OST    PA129964  15.564   4.084   0.195  0.1276  0.3874 -0.1548
19790OST    PA229965  15.905   4.182   0.093 -0.0555 -0.0909  0.0882
19790OST    PA329966  15.795   4.458   0.164 -0.2860  0.1234  0.2059
19790OST    PA429967  16.027   4.238  -0.031  0.0094 -0.2501  0.1130
19790OST    PA529968  16.032   4.032  -0.234 -0.5902  0.1255  0.3591
19790OST    PA629969  15.902   3.884  -0.109  0.2266  0.2177  0.2267
19791OST    PA129970  11.802   4.446   8.722  0.0510 -0.2181 -0.0798
19791OST    PA229971  11.787   4.363   9.076 -0.5182 -0.0119 -0.0842
19791OST    PA329972  11.876   4.088   9.043 -0.1959 -0.3989  0.3297
19791OST    PA429973  11.839   4.372   9.259  0.0859 -0.3505  0.0080
19791OST    PA529974  11.749   4.655   9.317  0.2270  0.2446  0.4914
19791OST    PA629975  11.678   4.706   9.112  0.0887 -0.1009  0.2389
19792OST    PA129976   6.024  11.827   3.973  0.1887  0.1216 -0.1980
19792OST    PA229977   5.882  11.560   4.170 -0.2733 -0.1509 -0.1146
19792OST    PA329978   5.756  11.496   3.911 -0.2408 -0.0998 -0.3177
19792OST    PA429979   5.915  11.380   4.244 -0.0454  0.0030  0.3801
19792OST    PA529980   6.176  11.439   4.435 -0.0743  0.1209 -0.1764
19792OST    PA629981   6.177  11.644   4.369 -0.0064  0.1629 -0.0776
19793OST    PA129982  11.106  11.488   8.848  0.0054 -0.1874 -0.3319
19793OST    PA229983  11.006  11.674   9.145  0.0332 -0.0158 -0.0534
19793OST    PA329984  10.786  11.709   8.955 -0.2113 -0.0797  0.0726
19793OST    PA429985  10.919  11.791   9.310 -0.0955  0.1207  0.1728
19793OST    PA529986  11.168  11.719   9.492 -0.5316 -0.0582  0.1256
19793OST    PA629987  11.299  11.574   9.306  0.0661 -0.1130 -0.4061
19794OST    PA129988  13.282  10.163   4.276 -0.0997  0.0718  0.1404
19794OST    PA229989  13.293  10.439   4.047  0.2172  0.0292 -0.1003
19794OST    PA329990  13.025  10.528   4.180  0.2010  0.7715  0.2226
19794OST    PA429991  13.348  10.625   4.044 -0.0966 -0.2300  0.2035
19794OST    PA529992  13.613  10.470   3.896  0.2743  0.0777 -0.6522
19794OST    PA629993  13.564  10.225   3.908 -0.1999 -0.0218 -0.1822
19795OST    PA129994   7.383   0.100   3.897  0.0354 -0.0290  0.1678
19795OST    PA229995   7.313   0.224   3.553 -0.1593 -0.0521 -0.4452
19795OST    PA329996   7.116   0.351   3.725  0.1588  0.4114  0.0112
19795OST    PA429997   7.230   0.282   3.394  0.0887 -0.0599  0.3590
19795OST    PA529998   7.438   0.097   3.241 -0.2499 -0.7243 -0.1367
19795OST    PA629999   7.563   0.011   3.425  0.0495 -0.1742 -0.0515
19796OST    PA130000   7.835   0.351   3.800 -0.0844 -0.1886 -0.3333
19796OST    PA230001   7.845   0.512   3.481  0.0671 -0.0695 -0.0772
19796OST    PA330002   7.614   0.449   3.318  0.4874 -0.2084  0.2042
19796OST    PA430003   7.855   0.688   3.422  0.2044 -0.1813 -0.1333
19796OST    PA530004   8.113   0.784   3.384 -0.5541 -0.1497  0.0172
19796OST    PA630005   8.202   0.582   3.506  0.0910 -0.1112  0.3693
19797OST    PA130006   5.757   3.642   9.759 -0.1048  0.2676  0.2426
19797OST    PA230007   5.547   3.631  10.060 -0.5223  0.0065 -0.0808
19797OST    PA330008   5.651   3.911  10.104  0.0008  0.5069  0.6365
19797OST    PA430009   5.365   3.699  10.178 -0.0557  0.1039 -0.0235
19797OST    PA530010   5.184   3.504  10.011 -0.0866  0.0242 -0.3549
19797OST    PA630011   5.347   3.415   9.843  0.2190 -0.3421 -0.2070
19798OST    PA130012   8.762   7.346   3.424  0.2721 -0.0545  0.0242
19798OST    PA230013   8.963   7.229   3.169 -0.1444  0.4362  0.1131
19798OST    PA330014   9.166   7.370   3.352  0.0869  0.2466 -0.3680
19798OST    PA430015   9.053   7.255   3.008 -0.3395  0.0669  0.3634
19798OST    PA530016   8.795   7.174   2.823 -0.5159  0.3242  0.2939
19798OST    PA630017   8.652   7.148   3.011 -0.1616  0.0093  0.1396
19799OST    PA130018  15.592  11.705   2.046  0.0444  0.0252  0.2227
19799OST    PA230019  15.458  12.019   1.966  0.0552 -0.0651  0.0803
19799OST    PA330020  15.241  11.992   2.183  0.1379 -0.1703  0.3264
19799OST    PA430021  15.349  12.112   1.845 -0.0091 -0.4270  0.5917
19799OST    PA530022  15.585  12.225   1.703 -0.0153 -0.0728  0.1625
19799OST    PA630023  15.758  12.133   1.790  0.0215 -0.1353  0.0535
19800OST    PA130024   5.119   2.731   8.961 -0.1624 -0.2289 -0.0334
19800OST    PA230025   4.785   2.640   8.877  0.2639 -0.0780 -0.1898
19800OST    PA330026   4.912   2.614   8.613  0.4493 -0.0501 -0.1271
19800OST    PA430027   4.601   2.701   8.815  0.0398  0.4912  0.3924
19800OST    PA530028   4.517   2.782   9.100 -0.2795  0.1662 -0.2522
19800OST    PA630029   4.710   2.739   9.225  0.0124  0.3977  0.2513
19801OST    PA130030  12.166   0.818   1.405 -0.0989 -0.2477  0.0438
19801OST    PA230031  12.004   0.699   1.686  0.0256 -0.0715  0.0486
19801OST    PA330032  11.751   0.673   1.497  0.1701 -0.1368 -0.3369
19801OST    PA430033  11.916   0.587   1.831 -0.2152 -0.1043 -0.1267
19801OST    PA530034  12.203   0.515   1.944  0.0970 -0.0778  0.1564
19801OST    PA630035  12.342   0.668   1.815 -0.0615  0.0955  0.2398
19802OST    PA130036  14.863   8.519   0.413 -0.0858  0.3058  0.0731
19802OST    PA230037  14.979   8.308   0.680  0.1044 -0.2066 -0.0318
19802OST    PA330038  14.713   8.167   0.647 -0.2264  0.0309 -0.1193
19802OST    PA430039  14.998   8.254   0.874 -0.1097 -0.1543 -0.0795
19802OST    PA530040  15.257   8.450   0.924 -0.0506  0.0949  0.4723
19802OST    PA630041  15.239   8.536   0.689 -0.4106 -0.0182  0.0272
19803OST    PA130042  10.145  13.977   8.304 -0.1917 -0.0548 -0.4748
19803OST    PA230043   9.960  14.259   8.262  0.2055  0.2953 -0.5894
19803OST    PA330044  10.013  14.322   7.988 -0.1214 -0.0684 -0.1761
19803OST    PA430045   9.998  14.457   8.319  0.0291 -0.1641 -0.4478
19803OST    PA530046   9.916  14.419   8.639 -0.1108  0.2066  0.5096
19803OST    PA630047   9.855  14.159   8.595 -0.2263 -0.2288 -0.0475
19804OST    PA130048   6.938   3.587  10.845 -0.0034  0.0816 -0.1182
19804OST    PA230049   6.682   3.812  11.018 -0.2422 -0.0502  0.3056
19804OST    PA330050   6.559   3.844  10.746  0.0581  0.4091 -0.0069
19804OST    PA430051   6.482   3.825  11.122 -0.0052  0.1042 -0.0606
19804OST    PA530052   6.590   3.719  11.377 -0.0122  0.0669  0.0703
19804OST    PA630053   6.806   3.678  11.314 -0.3320 -0.3028 -0.1052
19805OST    PA130054   9.937   1.246   1.466 -0.1281  0.1146 -0.2453
19805OST    PA230055  10.060   1.256   1.803 -0.2778  0.2492 -0.0917
19805OST    PA330056  10.323   1.321   1.689 -0.0802  0.2077  0.4281
19805OST    PA430057  10.140   1.236   1.999 -0.0921 -0.2313 -0.1180
19805OST    PA530058   9.925   1.049   2.104  0.1925 -0.2103 -0.0572
19805OST    PA630059   9.804   1.007   1.898  0.1898  0.1099 -0.2187
19806OST    PA130060   5.617   3.541   4.203  0.3157  0.0784  0.0064
19806OST    PA230061   5.625   3.863   4.352  0.2481  0.1465  0.2210
19806OST    PA330062   5.382   3.945   4.222  0.2325 -0.2968  0.2254
19806OST    PA430063   5.573   3.947   4.534 -0.1025 -0.2159 -0.3805
19806OST    PA530064   5.883   3.858   4.642  0.1325  0.0453  0.0394
19806OST    PA630065   5.953   3.737   4.421  0.0026  0.0341 -0.0257
19807OST    PA130066  15.314   1.008   3.748 -0.2865 -0.0230 -0.1006
19807OST    PA230067  15.603   1.237   3.771  0.1806  0.0355  0.2081
19807OST    PA330068  15.405   1.389   3.590  0.1908  0.3676  0.0999
19807OST    PA430069  15.767   1.325   3.699 -0.0066 -0.2502  0.0260
19807OST    PA530070  15.978   1.098   3.821  0.1702  0.0525  0.0366
19807OST    PA630071  15.795   0.990   3.913  0.2395 -0.0252 -0.0549
19808OST    PA130072   7.586   7.248  10.217 -0.1105  0.1445  0.5338
19808OST    PA230073   7.654   7.492   9.941 -0.2125 -0.2657 -0.2689
19808OST    PA330074   7.482   7.254   9.816 -0.0946  0.0980  0.4706
19808OST    PA430075   7.773   7.513   9.787 -0.0682 -0.2679 -0.0492
19808OST    PA530076   8.042   7.616   9.951 -0.0283 -0.0895  0.6072
19808OST    PA630077   7.909   7.589  10.157  0.2051  0.1801 -0.0206
19809OST    PA130078   0.550   8.571  12.330  0.2286  0.1384 -0.0328
19809OST    PA230079   0.898   8.678  12.318  0.1673  0.1000  0.3392
19809OST    PA330080   0.929   8.586  12.034 -0.2724  0.6464  0.4792
19809OST    PA430081   1.037   8.809  12.313 -0.0322  0.0120 -0.3373
19809OST    PA530082   1.057   8.853  12.630 -0.1165 -0.1103  0.3622
19809OST    PA630083   0.841   8.781  12.654 -0.0141  0.2122  0.0002
19810OST    PA130084   7.784   2.076  10.762 -0.3836 -0.0112  0.1080
19810OST    PA230085   7.885   2.264  11.074 -0.1396  0.4073 -0.1128
19810OST    PA330086   8.157   2.227  10.924  0.4221 -0.2504  0.4408
19810OST    PA430087   7.938   2.413  11.170  0.3133 -0.1922 -0.0419
19810OST    PA530088   7.643   2.562  11.126  0.3068 -0.1922 -0.2439
19810OST    PA630089   7.557   2.397  10.969 -0.1711 -0.1046 -0.1363
19811OST    PA130090   3.316  14.458  11.755  0.2998 -0.1902 -0.1516
19811OST    PA230091   3.225  14.775  11.899 -0.0888 -0.2208 -0.0554
19811OST    PA330092   3.518  14.832  11.834  0.0524  0.1271  0.6093
19811OST    PA430093   3.188  14.949  11.945  0.0405 -0.0477 -0.0827
19811OST    PA530094   2.911  14.972  11.826 -0.1043 -0.4854  0.6402
19811OST    PA630095   2.887  14.720  11.830  0.2750  0.0727  0.1830
19812OST    PA130096  13.683   2.126   8.960 -0.1974 -0.1679  0.1304
19812OST    PA230097  13.577   2.235   8.626 -0.1309  0.3103 -0.0569
19812OST    PA330098  13.476   1.953   8.685 -0.1620  0.3060 -0.4212
19812OST    PA430099  13.569   2.208   8.412  0.1148 -0.6034  0.0048
19812OST    PA530100  13.839   2.384   8.382  0.1830 -0.2070 -0.3596
19812OST    PA630101  13.848   2.466   8.616  0.1302  0.3436  0.0938
19813OST    PA130102   3.665   3.675  10.879 -0.0158  0.1356 -0.0377
19813OST    PA230103   3.413   3.772  11.090  0.2041 -0.3642  0.3285
19813OST    PA330104   3.257   3.532  10.974 -0.2327  0.0201  0.1234
19813OST    PA430105   3.234   3.857  11.150  0.0880  0.0336  0.3728
19813OST    PA530106   3.382   4.106  11.238  0.1105 -0.2674 -0.0694
19813OST    PA630107   3.598   4.026  11.172  0.0804 -0.2085  0.0389
19814OST    PA130108  13.168   4.031  11.737 -0.1135 -0.0916  0.1050
19814OST    PA230109  13.268   3.839  12.040  0.5556 -0.0589  0.3484
19814OST    PA330110  13.214   3.572  11.914  0.6759 -0.6438 -0.2938
19814OST    PA430111  13.411   3.778  12.146 -0.5263 -0.2471 -0.2640
19814OST    PA530112  13.430   4.037  12.298 -0.5078 -0.2034 -0.3959
19814OST    PA630113  13.236   4.136  12.268 -0.0440  0.1561 -0.2208
19815OST    PA130114  13.581   5.200   9.311 -0.1216  0.0289  0.0285
19815OST    PA230115  13.251   5.056   9.220 -0.2061 -0.1155 -0.0743
19815OST    PA330116  13.209   5.334   9.220  0.6044 -0.4830 -0.2474
19815OST    PA430117  13.063   5.000   9.209  0.2643 -0.4112  0.1596
19815OST    PA530118  13.083   4.744   9.378  0.1610 -0.2728  0.3631
19815OST    PA630119  13.340   4.734   9.383  0.0168 -0.0313  0.2637
19816OST    PA130120   8.913   0.921   1.218 -0.0951  0.3407 -0.1525
19816OST    PA230121   8.895   1.020   1.542  0.0662 -0.5182  0.0361
19816OST    PA330122   9.074   1.233   1.482 -0.2218 -0.1579  0.3222
19816OST    PA430123   8.859   1.082   1.714  0.0048  0.1072 -0.0122
19816OST    PA530124   8.543   1.039   1.678 -0.2796 -0.1202  0.2433
19816OST    PA630125   8.552   0.868   1.515 -0.1332 -0.0590 -0.0903
19817OST    PA130126  13.799   4.687   9.338  0.1267  0.0083 -0.2069
19817OST    PA230127  13.601   4.725   9.039 -0.2444  0.0515 -0.3301
19817OST    PA330128  13.775   4.968   9.018 -0.3491  0.0148  0.3774
19817OST    PA430129  13.485   4.786   8.910 -0.2520 -0.2310  0.0275
19817OST    PA530130  13.384   4.500   8.846  0.3689 -0.1537  0.0584
19817OST    PA630131  13.534   4.394   9.018  0.1713 -0.1755  0.1448
19818OST    PA130132   4.144  12.176   4.502  0.1099  0.0241 -0.1343
19818OST    PA230133   4.138  12.270   4.159 -0.0691  0.1169  0.0486
19818OST    PA330134   4.424  12.334   4.179  0.0320  0.0803  0.0027
19818OST    PA430135   4.146  12.199   3.951 -0.2312  0.0264  0.1172
19818OST    PA530136   3.879  12.049   3.967 -0.1412  0.1825  0.0414
19818OST    PA630137   3.809  12.161   4.176 -0.1621 -0.0848  0.3574
19819OST    PA130138  13.697   0.149   1.469  0.0317 -0.1261  0.0500
19819OST    PA230139  13.864  -0.059   1.236 -0.2695 -0.0053  0.1155
19819OST    PA330140  14.097  -0.076   1.433 -0.0452  0.1151 -0.4174
19819OST    PA430141  13.971  -0.144   1.099 -0.2205  0.3186  0.1446
19819OST    PA530142  13.719  -0.111   0.892  0.1862 -0.1505  0.0322
19819OST    PA630143  13.576  -0.005   1.037 -0.2383  0.3387 -0.0174
19820OST    PA130144  12.652   1.119   3.241 -0.2308  0.1910  0.2358
19820OST    PA230145  12.949   1.321   3.195 -0.0630  0.2907  0.2562
19820OST    PA330146  12.722   1.497   3.207 -0.0502 -0.1848 -0.1396
19820OST    PA430147  13.074   1.430   3.279 -0.1082 -0.0991 -0.0824
19820OST    PA530148  13.199   1.189   3.444 -0.0439  0.0216 -0.3280
19820OST    PA630149  13.090   1.036   3.347 -0.2294  0.6057  0.1772
19821OST    PA130150  13.424   8.835  11.545 -0.2377  0.0354  0.1162
19821OST    PA230151  13.370   9.174  11.522  0.2796 -0.3134 -0.0960
19821OST    PA330152  13.533   9.251  11.265  0.5653 -0.2370 -0.1319
19821OST    PA430153  13.255   9.349  11.505 -0.2078 -0.0295 -0.0308
19821OST    PA530154  12.975   9.238  11.596  0.1781 -0.1830 -0.1004
19821OST    PA630155  13.071   9.093  11.715 -0.0554  0.0714  0.0245
19822OST    PA130156  13.799   2.819   8.193  0.2110  0.2691 -0.1174
19822OST    PA230157  13.527   2.715   8.419 -0.1827  0.1848  0.5303
19822OST    PA330158  13.434   2.524   8.233 -0.1110 -0.2586  0.2691
19822OST    PA430159  13.446   2.633   8.574  0.2454  0.1701  0.2597
19822OST    PA530160  13.660   2.761   8.761  0.3326  0.1325  0.2362
19822OST    PA630161  13.788   2.902   8.610 -0.1361  0.1496 -0.1213
19823OST    PA130162  14.274   3.785   6.060  0.3004 -0.0072  0.0961
19823OST    PA230163  14.236   3.685   5.739 -0.0175  0.1205  0.2738
19823OST    PA330164  14.188   4.004   5.721  0.5292 -0.1237 -0.3561
19823OST    PA430165  14.305   3.674   5.526 -0.1463  0.1627 -0.0100
19823OST    PA530166  14.410   3.364   5.601 -0.2352  0.6295  0.3232
19823OST    PA630167  14.297   3.345   5.829  0.0736 -0.1836  0.1144
19824OST    PA130168  10.228   3.409   4.102 -0.0665 -0.0453 -0.1720
19824OST    PA230169  10.424   3.585   4.342  0.1519  0.0330  0.0217
19824OST    PA330170  10.300   3.518   4.587 -0.3130  0.4090 -0.1387
19824OST    PA430171  10.518   3.746   4.415  0.0153  0.0240  0.1391
19824OST    PA530172  10.802   3.727   4.232  0.1801  0.2443  0.4807
19824OST    PA630173  10.729   3.513   4.161 -0.0365 -0.0354  0.2940
19825OST    PA130174  11.141  13.676   4.536  0.1352 -0.1885 -0.0715
19825OST    PA230175  11.121  13.895   4.244 -0.1520 -0.0176 -0.3569
19825OST    PA330176  11.400  13.994   4.276  0.0582  0.3115 -0.0122
19825OST    PA430177  11.053  14.056   4.127  0.1922  0.2736 -0.1486
19825OST    PA530178  10.785  13.895   4.051 -0.3921 -0.1047 -0.5985
19825OST    PA630179  10.834  13.685   4.177  0.0648 -0.0872  0.1514
19826OST    PA130180   9.284   1.862   2.237  0.0793  0.1959 -0.0722
19826OST    PA230181   9.113   2.070   1.982 -0.0762 -0.2219 -0.1262
19826OST    PA330182   9.032   2.350   2.079  0.1171 -0.1797  0.1997
19826OST    PA430183   9.109   2.122   1.795  0.1652  0.0794 -0.1926
19826OST    PA530184   9.342   1.947   1.622  0.1263  0.1143  0.0008
19826OST    PA630185   9.422   1.880   1.829 -0.0418  0.1280  0.2971
19827OST    PA130186   3.714   0.612   0.179 -0.2947  0.0481  0.1107
19827OST    PA230187   3.680   0.931   0.006 -0.0017  0.3108 -0.1831
19827OST    PA330188   3.927   1.095   0.013  0.0333 -0.1143  0.2979
19827OST    PA430189   3.551   1.080   0.025  0.2341 -0.0822 -0.1471
19827OST    PA530190   3.270   0.963  -0.011 -0.1449  0.6579 -0.1294
19827OST    PA630191   3.376   0.763  -0.102  0.3011  0.0393  0.1706
19828OST    PA130192  15.515  12.685  11.964 -0.1671 -0.2114 -0.4594
19828OST    PA230193  15.857  12.601  12.023 -0.2156 -0.2462  0.0251
19828OST    PA330194  15.832  12.460  11.768  0.0149  0.0081  0.2684
19828OST    PA430195  15.990  12.495  12.081  0.0793  0.0223  0.2526
19828OST    PA530196  16.108  12.690  12.304  0.1379 -0.5062  0.5735
19828OST    PA630197  15.929  12.851  12.261 -0.0816  0.0081  0.1697
19829OST    PA130198   2.984  11.970   0.611  0.1073  0.1076 -0.2244
19829OST    PA230199   2.989  11.633   0.717 -0.2153 -0.0104 -0.1579
19829OST    PA330200   3.252  11.594   0.567  0.0798 -0.1388 -0.1239
19829OST    PA430201   3.001  11.487   0.806  0.1825 -0.0279 -0.0951
19829OST    PA530202   2.791  11.468   0.998 -0.6529 -0.0199 -0.0742
19829OST    PA630203   2.693  11.675   0.924  0.0546  0.3147  0.0445
19830OST    PA130204  15.581   4.510  13.332  0.0780  0.2306 -0.0203
19830OST    PA230205  15.720   4.804  13.381  0.2203  0.2274 -0.1065
19830OST    PA330206  15.485   4.963  13.323  0.2930 -0.3727 -0.0747
19830OST    PA430207  15.803   4.943  13.514 -0.0783 -0.2045 -0.3230
19830OST    PA530208  16.071   4.857  13.545  0.0083 -0.0943  0.1013
19830OST    PA630209  16.038   4.639  13.427 -0.2539 -0.1626 -0.2440
19831OST    PA130210  10.554   7.052  11.565 -0.3685 -0.1807 -0.1403
19831OST    PA230211  10.599   7.161  11.219 -0.1349  0.3912 -0.2757
19831OST    PA330212  10.817   7.011  11.123 -0.0310  0.1284  0.0611
19831OST    PA430213  10.543   7.231  11.008  0.2167 -0.0481  0.0293
19831OST    PA530214  10.519   7.532  11.110  0.4097 -0.0134  0.1066
19831OST    PA630215  10.566   7.491  11.373  0.3588 -0.0026  0.4301
19832OST    PA130216  11.191  10.052  11.722 -0.1871 -0.1266 -0.0195
19832OST    PA230217  11.398   9.738  11.799 -0.0354  0.3692  0.1934
19832OST    PA330218  11.136   9.642  11.737  0.0883 -0.2164  0.2211
19832OST    PA430219  11.488   9.540  11.793  0.1570 -0.1673  0.0545
19832OST    PA530220  11.798   9.649  11.720  0.2517  0.2260 -0.0627
19832OST    PA630221  11.712   9.898  11.721  0.0158  0.0286  0.2612
19833OST    PA130222  10.090   1.754  12.699 -0.1492  0.0906  0.1893
19833OST    PA230223  10.320   1.859  12.457 -0.4096 -0.6450  0.4873
19833OST    PA330224  10.554   1.748  12.594  0.0889 -0.0167 -0.1532
19833OST    PA430225  10.400   2.055  12.447  0.2571  0.4951 -0.0842
19833OST    PA530226  10.157   2.173  12.274  0.3337  0.1266 -0.3354
19833OST    PA630227  10.035   1.941  12.248  0.1810  0.0024 -0.0545
19834OST    PA130228   6.919   6.318   2.691  0.0140 -0.0490 -0.1232
19834OST    PA230229   6.971   6.615   2.453  0.2866  0.1339  0.2911
19834OST    PA330230   6.827   6.740   2.657 -0.2096  0.0332  0.0125
19834OST    PA430231   7.086   6.771   2.420 -0.0492  0.0535  0.0220
19834OST    PA530232   7.354   6.629   2.304 -0.2784  0.1482 -0.2480
19834OST    PA630233   7.272   6.417   2.338  0.4426  0.3380 -0.0368
19835OST    PA130234   9.622   2.457  12.996  0.1978 -0.3304  0.1386
19835OST    PA230235   9.637   2.599  12.660  0.2006  0.2341 -0.1282
19835OST    PA330236   9.860   2.807  12.630 -0.1679 -0.0002  0.0599
19835OST    PA430237   9.577   2.637  12.486  0.1796 -0.1569  0.1869
19835OST    PA530238   9.294   2.485  12.450 -0.2169  0.0682  0.1112
19835OST    PA630239   9.337   2.378  12.656  0.0627 -0.1410  0.3213
19836OST    PA130240   4.131  14.695   8.938 -0.0387  0.2024  0.3472
19836OST    PA230241   4.044  15.057   8.921 -0.0095 -0.1079  0.0429
19836OST    PA330242   4.030  15.045   9.189  0.2371 -0.3302 -0.0479
19836OST    PA430243   4.145  15.210   8.909  0.0531 -0.2818 -0.0403
19836OST    PA530244   4.311  15.147   8.633 -0.2530 -0.0605  0.0751
19836OST    PA630245   4.171  14.999   8.561 -0.0612  0.4569  0.1489
19837OST    PA130246  10.036   3.839   4.191 -0.2420 -0.0006  0.2133
19837OST    PA230247   9.885   3.768   3.882  0.2356 -0.1788  0.1468
19837OST    PA330248  10.132   3.906   3.790  0.3836 -0.0477  0.2194
19837OST    PA430249   9.858   3.630   3.712 -0.5464 -0.4045 -0.1930
19837OST    PA530250   9.674   3.409   3.892 -0.3026 -0.0473 -0.0525
19837OST    PA630251   9.661   3.550   4.068 -0.1916 -0.3097 -0.2189
19838OST    PA130252   1.952   5.723  11.924 -0.0408 -0.3042  0.0492
19838OST    PA230253   1.838   5.654  12.246  0.2830  0.0193 -0.0431
19838OST    PA330254   2.015   5.876  12.274  0.1386 -0.3598  0.0502
19838OST    PA430255   1.730   5.704  12.389 -0.0209  0.1589  0.1382
19838OST    PA530256   1.560   5.430  12.390 -0.3127  0.1097 -1.0527
19838OST    PA630257   1.662   5.375  12.187  0.0558 -0.1343 -0.1321
19839OST    PA130258   6.887  13.433   4.169  0.1248  0.2787 -0.1298
19839OST    PA230259   7.193  13.508   4.033 -0.2032  0.0022 -0.2810
19839OST    PA330260   7.079  13.763   4.111  0.4225 -0.1319 -0.2091
19839OST    PA430261   7.386  13.575   4.067  0.1317 -0.1879 -0.1259
19839OST    PA530262   7.536  13.294   4.136 -0.0489 -0.0181 -0.4539
19839OST    PA630263   7.320  13.180   4.109  0.2152 -0.1154  0.0737
19840OST    PA130264   1.562   5.071   1.791 -0.1590  0.2154 -0.0117
19840OST    PA230265   1.354   4.777   1.852  0.4022 -0.0054  0.1324
19840OST    PA330266   1.317   4.845   1.575 -0.3007  0.2885  0.2461
19840OST    PA430267   1.158   4.712   1.863  0.0666  0.0872  0.0328
19840OST    PA530268   1.111   4.887   2.132 -0.0124  0.6605 -0.0569
19840OST    PA630269   1.348   4.888   2.210 -0.0821 -0.0559 -0.1025
19841OST    PA130270   3.818  14.283   8.776 -0.0570  0.0347  0.3734
19841OST    PA230271   3.672  14.254   9.088 -0.2272 -0.4028 -0.1168
19841OST    PA330272   3.916  14.409   9.141  0.0521  0.2314  0.1991
19841OST    PA430273   3.679  14.138   9.231 -0.2419 -0.1280  0.2654
19841OST    PA530274   3.459  13.919   9.094  0.0658  0.1045 -0.2708
19841OST    PA630275   3.459  14.040   8.916 -0.1248  0.1798  0.2221
19842OST    PA130276   6.568  10.643   9.543  0.2092  0.0273  0.1291
19842OST    PA230277   6.471  10.584   9.903  0.1996  0.2084 -0.0070
19842OST    PA330278   6.536  10.836  10.029  0.1766 -0.1558 -0.4595
19842OST    PA430279   6.348  10.531  10.020  0.0672 -0.0714 -0.0147
19842OST    PA530280   6.236  10.257   9.939  0.0959 -0.6147 -0.1688
19842OST    PA630281   6.365  10.273   9.737 -0.3653  0.1045  0.0147
19843OST    PA130282  12.045   6.607   3.875 -0.3481  0.2164 -0.0051
19843OST    PA230283  11.815   6.833   4.032  0.2774  0.1521 -0.3252
19843OST    PA330284  11.657   6.925   3.766 -0.0437 -0.0011 -0.1154
19843OST    PA430285  11.816   7.021   4.131  0.3675 -0.0276  0.1161
19843OST    PA530286  11.937   6.905   4.392 -0.2174  0.0052 -0.0048
19843OST    PA630287  11.917   6.662   4.326 -0.1142  0.0909 -0.1364
19844OST    PA130288   5.618   1.950   0.098  0.0006 -0.1265 -0.0944
19844OST    PA230289   5.506   1.888   0.418  0.1775  0.3748 -0.1415
19844OST    PA330290   5.788   1.900   0.536 -0.3056 -0.2181 -0.4467
19844OST    PA430291   5.415   1.962   0.573 -0.4400 -0.1914 -0.0172
19844OST    PA530292   5.119   1.882   0.393 -0.0521  0.1227  0.0675
19844OST    PA630293   5.230   1.731   0.243  0.1110  0.0759 -0.0475
19845OST    PA130294   8.723  11.773   3.826  0.1414 -0.1831  0.2109
19845OST    PA230295   8.383  11.693   3.837 -0.0638 -0.1232 -0.1751
19845OST    PA330296   8.391  11.619   4.123  0.4247  0.0741 -0.3047
19845OST    PA430297   8.175  11.733   3.850 -0.3024  0.2958  0.3726
19845OST    PA530298   8.110  11.892   3.592 -0.0174 -0.2497  0.4912
19845OST    PA630299   8.354  11.904   3.540  0.0694  0.0783  0.2766
19846OST    PA130300   7.115  13.255   0.731 -0.3118 -0.1068 -0.3132
19846OST    PA230301   6.858  13.265   0.471  0.0473  0.0090  0.1706
19846OST    PA330302   7.054  13.444   0.309  0.3179  0.1716 -0.2625
19846OST    PA430303   6.757  13.194   0.320  0.0640 -0.0598  0.1367
19846OST    PA530304   6.606  13.013   0.516  0.0295  0.0826 -0.1273
19846OST    PA630305   6.704  13.056   0.719  0.0245 -0.1386  0.0916
19847OST    PA130306  12.411  15.825   4.921  0.1573 -0.0777  0.0275
19847OST    PA230307  12.236  15.640   5.177 -0.3648  0.2624  0.1958
19847OST    PA330308  12.412  15.430   5.107  0.2051  0.0815 -0.1864
19847OST    PA430309  12.081  15.517   5.225  0.0142  0.0197  0.0255
19847OST    PA530310  11.825  15.693   5.187 -0.5049  0.2485  0.1565
19847OST    PA630311  11.987  15.880   5.199 -0.1896 -0.0793  0.1463
19848OST    PA130312  12.458   7.417   8.907 -0.1685 -0.1534 -0.0064
19848OST    PA230313  12.620   7.511   9.208 -0.0775  0.0168  0.1756
19848OST    PA330314  12.682   7.770   9.088 -0.1250 -0.4128  0.0169
19848OST    PA430315  12.615   7.573   9.419 -0.2817 -0.1048 -0.5134
19848OST    PA530316  12.539   7.281   9.513  0.1851 -0.0442 -0.2035
19848OST    PA630317  12.594   7.200   9.313  0.1969  0.2423  0.3585
19849OST    PA130318   4.117  10.052  10.517  0.0081 -0.1439  0.3906
19849OST    PA230319   3.905   9.835  10.728 -0.0094  0.0134 -0.0961
19849OST    PA330320   3.879   9.698  10.477  0.5498  0.0663 -0.0626
19849OST    PA430321   3.883   9.668  10.859  0.2697 -0.2509 -0.1436
19849OST    PA530322   4.116   9.781  11.025 -0.1761  0.1476  0.0603
19849OST    PA630323   4.116   9.983  10.965  0.1759  0.1408  0.0302
19850OST    PA130324  11.879  12.539  10.012 -0.1058 -0.0406  0.1253
19850OST    PA230325  12.014  12.687  10.303  0.0706  0.6728  0.0993
19850OST    PA330326  11.947  12.418  10.393 -0.0364 -0.1999 -0.1106
19850OST    PA430327  12.051  12.758  10.464  0.0186 -0.0204  0.1050
19850OST    PA530328  12.084  13.059  10.363 -0.2348  0.1053  0.2558
19850OST    PA630329  12.065  13.016  10.116 -0.0369  0.0045 -0.4069
19851OST    PA130330   6.660  13.502   9.694 -0.2428 -0.2173  0.0292
19851OST    PA230331   6.631  13.167   9.803 -0.3400  0.1973 -0.1811
19851OST    PA330332   6.523  13.136   9.516  0.1309  0.4377 -0.1467
19851OST    PA430333   6.641  12.950   9.840 -0.0794 -0.4436 -0.1046
19851OST    PA530334   6.857  12.957  10.058 -0.1539  0.0222  0.0784
19851OST    PA630335   6.835  13.198  10.084  0.0350  0.4390 -0.4203
19852OST    PA130336   7.815  14.177   0.237 -0.2461  0.0403 -0.0459
19852OST    PA230337   7.909  14.482   0.057 -0.0506 -0.0141  0.3094
19852OST    PA330338   8.136  14.312  -0.027  0.3256 -0.0536  0.0826
19852OST    PA430339   7.851  14.562  -0.111  0.3363  0.3953 -0.4423
19852OST    PA530340   7.556  14.632   0.015 -0.0319 -0.2534 -0.0887
19852OST    PA630341   7.611  14.587   0.221  0.1785 -0.2676 -0.2052
19853OST    PA130342   4.362  12.442   1.957 -0.1239 -0.0038  0.2375
19853OST    PA230343   4.381  12.480   2.304  0.1194  0.3724 -0.3933
19853OST    PA330344   4.453  12.759   2.248 -0.2507 -0.5874 -0.2418
19853OST    PA430345   4.372  12.495   2.509  0.0866  0.3179 -0.1136
19853OST    PA530346   4.462  12.206   2.589  0.5656  0.1961 -0.0505
19853OST    PA630347   4.439  12.110   2.376 -0.0584 -0.0174 -0.2327
19854OST    PA130348   3.960  13.084  10.174 -0.0266 -0.4288  0.2165
19854OST    PA230349   3.697  13.020  10.377  0.3348  0.0678  0.1478
19854OST    PA330350   3.648  13.263  10.536  0.1256  0.2269 -0.2307
19854OST    PA430351   3.593  12.916  10.502 -0.2253  0.1314 -0.1331
19854OST    PA530352   3.468  12.698  10.300 -0.0633 -0.1938  0.0807
19854OST    PA630353   3.564  12.795  10.125 -0.5682 -0.2539 -0.0107
19855OST    PA130354  11.794  15.058   4.363 -0.4503  0.2302 -0.1532
19855OST    PA230355  11.458  15.116   4.333  0.3060 -0.4301 -0.1610
19855OST    PA330356  11.461  15.129   4.030 -0.4133  0.3150 -0.3972
19855OST    PA430357  11.242  15.120   4.352 -0.2885  0.4794  0.1642
19855OST    PA530358  11.227  15.233   4.653  0.2695 -0.1507 -0.5277
19855OST    PA630359  11.490  15.253   4.648  0.0211 -0.0180 -0.4028
19856OST    PA130360  13.656   0.755  10.864 -0.3046  0.2898 -0.1138
19856OST    PA230361  13.775   1.073  10.740 -0.4922 -0.1022 -0.1376
19856OST    PA330362  13.494   1.158  10.739 -0.4111 -0.2244  0.5004
19856OST    PA430363  13.839   1.216  10.622 -0.2373  0.0662 -0.0759
19856OST    PA530364  14.149   1.108  10.631 -0.0669  0.2718  0.2310
19856OST    PA630365  14.123   0.944  10.789  0.1352  0.2265 -0.3890
19857OST    PA130366   1.619   3.418   3.243  0.1408 -0.0032 -0.1709
19857OST    PA230367   1.701   3.110   3.101  0.0296 -0.1705 -0.0147
19857OST    PA330368   1.393   3.078   3.154 -0.0822  0.0353  0.0648
19857OST    PA430369   1.718   2.946   3.020  0.2134 -0.2180 -0.1755
19857OST    PA530370   2.010   2.900   3.124 -0.1999 -0.2758 -0.0155
19857OST    PA630371   2.034   3.108   3.213 -0.4582 -0.0039 -0.4347
19858OST    PA130372   5.710   1.547  12.875  0.1978  0.0093 -0.0138
19858OST    PA230373   6.047   1.652  12.866  0.1598  0.3347 -0.1055
19858OST    PA330374   6.040   1.404  12.714 -0.0972  0.3124  0.0613
19858OST    PA430375   6.213   1.737  12.760 -0.0638  0.3265  0.1275
19858OST    PA530376   6.096   2.018  12.809 -0.0039 -0.1908  0.2585
19858OST    PA630377   5.899   1.979  12.924  0.0903 -0.2413 -0.2209
19859OST    PA130378  13.380  11.088   4.809 -0.1916 -0.1304  0.2926
19859OST    PA230379  13.495  11.110   4.480 -0.1249 -0.2762  0.0855
19859OST    PA330380  13.763  11.124   4.596 -0.1234 -0.0842 -0.2385
19859OST    PA430381  13.544  10.965   4.344  0.0511  0.1488 -0.0002
19859OST    PA530382  13.262  10.952   4.203  0.0445 -0.0081 -0.1073
19859OST    PA630383  13.180  11.144   4.317 -0.0158  0.1564 -0.0090
19860OST    PA130384  13.805  13.720   2.282 -0.0738  0.2593 -0.0898
19860OST    PA230385  13.461  13.667   2.246  0.1789  0.1619 -0.0552
19860OST    PA330386  13.330  13.902   2.387 -0.0849 -0.0146  0.6955
19860OST    PA430387  13.298  13.620   2.123  0.2878  0.3758 -0.1800
19860OST    PA530388  13.379  13.301   2.183 -0.2317 -0.3205  0.0654
19860OST    PA630389  13.570  13.325   2.323 -0.0429  0.0561 -0.2070
19861OST    PA130390  15.528  12.293  12.925  0.0921 -0.1086  0.1848
19861OST    PA230391  15.829  12.415  12.930 -0.0133 -0.1581 -0.1890
19861OST    PA330392  15.695  12.674  13.025 -0.5111  0.2028  0.0706
19861OST    PA430393  15.988  12.511  12.856 -0.3799  0.2796  0.0491
19861OST    PA530394  16.169  12.237  12.890 -0.2461  0.0709  0.2358
19861OST    PA630395  16.017  12.097  12.985 -0.0089  0.2189 -0.0836
19862OST    PA130396  13.084   4.575  10.180 -0.1104  0.2909 -0.2439
19862OST    PA230397  12.978   4.292  10.355 -0.0437  0.1913  0.3494
19862OST    PA330398  12.979   4.429  10.604 -0.1644 -0.3235 -0.3401
19862OST    PA430399  12.975   4.113  10.424  0.2179  0.0450  0.1863
19862OST    PA530400  12.879   3.991  10.161 -0.2233  0.2932  0.2672
19862OST    PA630401  12.872   4.205  10.037  0.2084  0.3193 -0.3802
19863OST    PA130402   1.508  15.260   9.878 -0.1387  0.0535 -0.0605
19863OST    PA230403   1.387  15.530   9.708 -0.0551  0.0947  0.2674
19863OST    PA330404   1.405  15.413   9.442  0.0924 -0.3032  0.4764
19863OST    PA430405   1.259  15.665   9.684 -0.3123  0.0355  0.0030
19863OST    PA530406   1.392  15.846   9.908 -0.2830  0.3120 -0.0761
19863OST    PA630407   1.588  15.748   9.919 -0.0347  0.1781 -0.1722
19864OST    PA130408   3.996   1.210  11.239 -0.0700  0.0641 -0.3258
19864OST    PA230409   3.994   1.095  10.907 -0.0387 -0.0382 -0.0581
19864OST    PA330410   3.782   0.906  10.931 -0.0870 -0.3043  0.0463
19864OST    PA430411   4.068   1.035  10.714 -0.3015 -0.1676  0.0643
19864OST    PA530412   4.307   1.248  10.719 -0.6399 -0.1408  0.1123
19864OST    PA630413   4.292   1.270  10.922  0.0792 -0.1276 -0.0814
19865OST    PA130414  10.603   6.433  13.428  0.1102  0.0981  0.3234
19865OST    PA230415  10.662   6.198  13.654  0.2561  0.3329 -0.3013
19865OST    PA330416  10.882   6.351  13.787  0.3382  0.2111 -0.2784
19865OST    PA430417  10.614   6.054  13.801 -0.0671  0.0028  0.1102
19865OST    PA530418  10.607   5.809  13.580 -0.0820 -0.3103 -0.2480
19865OST    PA630419  10.590   5.952  13.399  0.1595 -0.2548 -0.0157
19866OST    PA130420   2.505  13.806  10.376 -0.2000 -0.3494 -0.2758
19866OST    PA230421   2.259  13.535  10.356  0.1545  0.1274  0.2567
19866OST    PA330422   2.076  13.680  10.532 -0.2164  0.2122 -0.1081
19866OST    PA430423   2.128  13.422  10.282 -0.1403  0.1690 -0.1919
19866OST    PA530424   2.274  13.238  10.068 -0.1408 -0.5073 -0.0293
19866OST    PA630425   2.498  13.353  10.127 -0.0534 -0.2689 -0.1171
19867OST    PA130426   8.780   9.971  13.348 -0.0768 -0.1121  0.1021
19867OST    PA230427   8.606   9.680  13.349 -0.2520  0.1879  0.1465
19867OST    PA330428   8.836   9.506  13.402 -0.3296 -0.2971  0.3818
19867OST    PA430429   8.505   9.519  13.253 -0.1434 -0.1813  0.4230
19867OST    PA530430   8.265   9.682  13.108 -0.3490 -0.3523  0.1278
19867OST    PA630431   8.351   9.867  13.217  0.3865 -0.2868  0.0915
19868OST    PA130432   9.321   4.267   0.353 -0.0400  0.0065  0.0237
19868OST    PA230433   9.417   4.608   0.315  0.0835 -0.0127 -0.1147
19868OST    PA330434   9.311   4.657   0.068  0.0617  0.0621  0.1146
19868OST    PA430435   9.532   4.772   0.334  0.1612  0.1342 -0.2726
19868OST    PA530436   9.411   4.877   0.625 -0.0778  0.3121 -0.1760
19868OST    PA630437   9.249   4.680   0.635 -0.2734  0.1474 -0.0447
19869OST    PA130438  13.763   2.455   3.509  0.1399  0.1109 -0.1445
19869OST    PA230439  13.480   2.330   3.677 -0.0144  0.3368 -0.1595
19869OST    PA330440  13.655   2.294   3.885 -0.2583 -0.0268 -0.0497
19869OST    PA430441  13.368   2.141   3.720  0.1019  0.0997  0.2599
19869OST    PA530442  13.175   2.161   3.464 -0.1250  0.0224  0.0768
19869OST    PA630443  13.263   2.360   3.396  0.2075  0.1493 -0.0982
19870OST    PA130444   6.717   2.536   9.402  0.1223 -0.0802 -0.1795
19870OST    PA230445   7.050   2.464   9.535 -0.1237  0.1034  0.1118
19870OST    PA330446   7.062   2.753   9.584  0.4244  0.1050  0.0444
19870OST    PA430447   7.176   2.429   9.681  0.0345  0.1171 -0.1637
19870OST    PA530448   7.050   2.137   9.706 -0.2414  0.2824  0.0114
19870OST    PA630449   6.891   2.125   9.514 -0.1994 -0.0727 -0.2733
19871OST    PA130450  14.907   7.013   3.419  0.1119 -0.0057  0.0485
19871OST    PA230451  15.103   6.705   3.339  0.1015  0.0170 -0.0514
19871OST    PA330452  15.301   6.847   3.150  0.5533  0.2375 -0.2354
19871OST    PA430453  15.231   6.571   3.434 -0.0200 -0.0641  0.1243
19871OST    PA530454  14.986   6.427   3.569 -0.0859 -0.1857 -0.1161
19871OST    PA630455  14.817   6.585   3.479 -0.0218 -0.3184  0.0698
19872OST    PA130456   2.646   7.540  11.404  0.0100 -0.0727 -0.0264
19872OST    PA230457   2.389   7.430  11.591 -0.0259  0.0335 -0.5655
19872OST    PA330458   2.256   7.347  11.344  0.0586 -0.0459 -0.3689
19872OST    PA430459   2.227   7.457  11.700 -0.1568 -0.3571 -0.3363
19872OST    PA530460   2.390   7.606  11.929  0.1539  0.2514 -0.2375
19872OST    PA630461   2.608   7.583  11.855  0.1399  0.0758  0.1747
19873OST    PA130462  14.070   7.516   3.481  0.1118 -0.3612 -0.0327
19873OST    PA230463  14.014   7.331   3.185 -0.2184  0.0114 -0.1721
19873OST    PA330464  13.909   7.607   3.129  0.6058  0.1023  0.2212
19873OST    PA430465  13.878   7.221   3.130  0.0892  0.0015  0.3892
19873OST    PA530466  13.974   6.965   3.291  0.3312 -0.2527 -0.2744
19873OST    PA630467  14.134   7.056   3.407  0.2406  0.1454  0.3255
19874OST    PA130468  10.731   8.000  11.251  0.2011 -0.0810 -0.2973
19874OST    PA230469  10.997   7.963  11.476 -0.0266 -0.3493 -0.1897
19874OST    PA330470  11.226   8.133  11.362 -0.1423  0.3030 -0.2155
19874OST    PA430471  11.109   7.867  11.638 -0.0041 -0.1976 -0.0762
19874OST    PA530472  10.901   7.738  11.839 -0.1086 -0.2411 -0.3092
19874OST    PA630473  10.739   7.853  11.684  0.0688  0.0819 -0.3808
19875OST    PA130474  14.939   6.538  13.217 -0.2553  0.0694  0.0709
19875OST    PA230475  15.055   6.551  12.871  0.0285  0.1488 -0.1456
19875OST    PA330476  14.876   6.336  12.817 -0.0603 -0.0055 -0.1798
19875OST    PA430477  15.192   6.483  12.741 -0.0985  0.0931  0.1865
19875OST    PA530478  15.411   6.667  12.831 -0.2968 -0.0952 -0.1664
19875OST    PA630479  15.298   6.798  13.017 -0.1224 -0.1310  0.0297
19876OST    PA130480  11.420   5.640  10.635 -0.0017 -0.1037  0.0873
19876OST    PA230481  11.225   5.602  10.952  0.2664 -0.0035  0.0064
19876OST    PA330482  11.329   5.835  11.031  0.2163 -0.3625  0.1086
19876OST    PA430483  11.159   5.528  11.132 -0.1182  0.1798 -0.1817
19876OST    PA530484  10.966   5.311  11.009 -0.3294  0.0514  0.1402
19876OST    PA630485  11.057   5.360  10.779  0.2865 -0.2750  0.0539
19877OST    PA130486   3.644   8.210  10.039 -0.3388 -0.1431  0.3263
19877OST    PA230487   3.531   8.476   9.826 -0.3975 -0.1422 -0.0533
19877OST    PA330488   3.437   8.666  10.020 -0.0326 -0.4472 -0.3516
19877OST    PA430489   3.388   8.520   9.679 -0.0724  0.0290 -0.4136
19877OST    PA530490   3.567   8.414   9.435  0.8494 -0.1542 -0.1494
19877OST    PA630491   3.745   8.405   9.533 -0.1464  0.0563  0.2574
19878OST    PA130492  13.032   1.660   4.490  0.1597  0.3419 -0.1653
19878OST    PA230493  12.840   1.435   4.269 -0.2908  0.0632 -0.2195
19878OST    PA330494  12.942   1.552   4.010  0.3027 -0.2681 -0.1522
19878OST    PA430495  12.827   1.246   4.201 -0.0208 -0.3030 -0.0938
19878OST    PA530496  12.616   1.115   4.404 -0.5465  0.2690 -0.2757
19878OST    PA630497  12.635   1.335   4.515 -0.0011 -0.2344  0.1417
19879OST    PA130498   5.175  12.371   1.767 -0.0054  0.1675 -0.0138
19879OST    PA230499   4.904  12.252   1.576  0.0049 -0.1309 -0.1619
19879OST    PA330500   4.897  12.482   1.394  0.1038 -0.3628 -0.1271
19879OST    PA430501   4.713  12.202   1.529  0.1105 -0.5491 -0.5410
19879OST    PA530502   4.665  12.054   1.803  0.4303 -0.4396 -0.2259
19879OST    PA630503   4.879  12.071   1.907  0.0249  0.0276  0.2396
19880OST    PA130504   7.680   2.624  11.521  0.0321  0.3158  0.0610
19880OST    PA230505   7.492   2.912  11.504  0.0703  0.1666 -0.1465
19880OST    PA330506   7.363   2.726  11.309 -0.5605  0.1657 -0.2692
19880OST    PA430507   7.386   3.076  11.451  0.0647 -0.0332 -0.1696
19880OST    PA530508   7.472   3.232  11.718 -0.2509 -0.6078  0.2672
19880OST    PA630509   7.601   3.033  11.798  0.1267 -0.0572 -0.3269
19881OST    PA130510  14.963   4.358   5.357 -0.2581 -0.1346  0.0285
19881OST    PA230511  14.920   4.571   5.100  0.0184  0.1669  0.2538
19881OST    PA330512  14.748   4.721   5.244  0.0618  0.0200  0.3130
19881OST    PA430513  15.011   4.734   4.993 -0.1906 -0.2429 -0.2005
19881OST    PA530514  15.246   4.604   4.825 -0.4407  0.0918  0.7289
19881OST    PA630515  15.174   4.391   4.935 -0.0274 -0.2647  0.1705
19882OST    PA130516  11.582   6.259  10.482  0.2710  0.0560  0.1599
19882OST    PA230517  11.621   6.581  10.624 -0.2024  0.1173 -0.3318
19882OST    PA330518  11.598   6.729  10.355 -0.0661  0.0183  0.0225
19882OST    PA430519  11.762   6.658  10.691  0.0272  0.2708  0.3470
19882OST    PA530520  11.793   6.555  10.975  0.1742  0.1720 -0.1059
19882OST    PA630521  11.639   6.401  10.964  0.1058 -0.0845  0.2963
19883OST    PA130522   7.388   7.964   9.539  0.0060 -0.3293  0.0658
19883OST    PA230523   7.678   8.039   9.775  0.0389 -0.2467 -0.0506
19883OST    PA330524   7.798   8.140   9.526  0.1258 -0.0957 -0.1502
19883OST    PA430525   7.831   7.958   9.831  0.6641  0.3561 -0.0154
19883OST    PA530526   7.653   7.859  10.095  0.1079 -0.1546 -0.0041
19883OST    PA630527   7.466   7.937  10.007  0.1199  0.3096 -0.1292
19884OST    PA130528  11.749   6.259   4.192  0.0064 -0.1164 -0.0764
19884OST    PA230529  11.790   6.155   3.842  0.2050 -0.0656  0.1463
19884OST    PA330530  11.501   6.088   3.749  0.0982 -0.0923  0.2472
19884OST    PA430531  11.831   6.246   3.679 -0.2928  0.0956  0.0501
19884OST    PA530532  12.142   6.197   3.745 -0.1154 -0.2710 -0.4281
19884OST    PA630533  12.115   6.115   3.996  0.0430 -0.0568 -0.1716
19885OST    PA130534  10.869  14.242  11.641 -0.0898  0.0409 -0.1041
19885OST    PA230535  10.585  14.162  11.470  0.0266  0.0423 -0.1961
19885OST    PA330536  10.564  13.920  11.649  0.0661  0.1033  0.1835
19885OST    PA430537  10.409  14.147  11.376 -0.1798  0.1675 -0.3732
19885OST    PA530538  10.375  14.441  11.300 -0.2173  0.3117  0.7435
19885OST    PA630539  10.573  14.507  11.386  0.0432  0.0676 -0.0702
19886OST    PA130540  10.737   8.713   9.843 -0.2252 -0.1881  0.1433
19886OST    PA230541  10.482   8.473   9.826 -0.1195 -0.4657  0.0103
19886OST    PA330542  10.465   8.584  10.100 -0.3152 -0.0086  0.0227
19886OST    PA430543  10.467   8.299   9.866 -0.1994  0.0540  0.1861
19886OST    PA530544  10.533   8.152   9.597  0.1444 -0.2062  0.1788
19886OST    PA630545  10.512   8.354   9.468  0.1379 -0.4375 -0.2492
19887OST    PA130546   1.483   0.176  11.909 -0.2853 -0.2059  0.2070
19887OST    PA230547   1.791   0.355  11.770  0.0385  0.1646  0.3692
19887OST    PA330548   1.588   0.466  11.600  0.1615  0.1989  0.1121
19887OST    PA430549   1.930   0.329  11.632  0.0749 -0.2428 -0.1896
19887OST    PA530550   2.161   0.215  11.836  0.3661 -0.1318  0.3788
19887OST    PA630551   2.028   0.339  12.027  0.3646 -0.0973 -0.1001
19888OST    PA130552   9.573  14.576   8.855  0.0038  0.2187  0.0198
19888OST    PA230553   9.731  14.751   8.592  0.1546  0.0053  0.1427
19888OST    PA330554   9.975  14.825   8.752 -0.1778  0.0329  0.4745
19888OST    PA430555   9.767  14.855   8.442 -0.0490 -0.0118 -0.1710
19888OST    PA530556   9.552  14.713   8.275 -0.1215  0.4084 -0.2610
19888OST    PA630557   9.454  14.570   8.439 -0.0578 -0.1985  0.3893
19889OST    PA130558   8.282   3.339   8.399  0.0585 -0.1797 -0.0340
19889OST    PA230559   8.359   3.653   8.290 -0.4212  0.1545 -0.1567
19889OST    PA330560   8.134   3.772   8.459  0.2179  0.1118  0.2724
19889OST    PA430561   8.491   3.810   8.319  0.0032 -0.0127 -0.0042
19889OST    PA530562   8.737   3.701   8.178  0.0492  0.0717  0.1710
19889OST    PA630563   8.617   3.465   8.118 -0.1820 -0.2490  0.2202
19890OST    PA130564   7.171   3.978  10.222 -0.3361  0.0061  0.0029
19890OST    PA230565   7.490   4.147  10.158 -0.2158 -0.1216 -0.2536
19890OST    PA330566   7.399   4.380  10.034 -0.1619  0.0967  0.1649
19890OST    PA430567   7.635   4.256  10.280  0.1054  0.0832  0.0228
19890OST    PA530568   7.756   3.980  10.437 -0.1630 -0.3981 -0.0475
19890OST    PA630569   7.613   3.866  10.282  0.0853 -0.0314  0.1579
19891OST    PA130570   7.220  15.141   3.405 -0.1603 -0.2204  0.1827
19891OST    PA230571   7.260  15.447   3.550 -0.0179 -0.0101  0.0677
19891OST    PA330572   7.442  15.373   3.791  0.5258  0.0072  0.2775
19891OST    PA430573   7.132  15.593   3.651 -0.1365  0.0892  0.0615
19891OST    PA530574   7.023  15.690   3.351  0.1388 -0.1888 -0.0213
19891OST    PA630575   7.159  15.551   3.203  0.0477  0.3236  0.0052
19892OST    PA130576   1.922   0.775  12.305 -0.4845 -0.0079 -0.2784
19892OST    PA230577   1.693   0.670  12.059  0.3185 -0.2939 -0.4143
19892OST    PA330578   1.602   0.434  12.215  0.0256 -0.1285  0.0987
19892OST    PA430579   1.544   0.676  11.920 -0.5764 -0.2084 -0.0266
19892OST    PA530580   1.743   0.786  11.713  0.0687 -0.4319  0.1433
19892OST    PA630581   1.915   0.791  11.820  0.0620 -0.1517 -0.0063
19893OST    PA130582  10.491  14.619   3.781  0.2216 -0.0450  0.1384
19893OST    PA230583  10.611  14.331   3.584  0.0720  0.1872  0.1773
19893OST    PA330584  10.547  14.408   3.340 -0.0333 -0.0232 -0.2187
19893OST    PA430585  10.551  14.140   3.566  0.0954  0.2325  0.1124
19893OST    PA530586  10.822  14.047   3.698  0.0115 -0.1041  0.1633
19893OST    PA630587  10.923  14.281   3.740  0.1916  0.1677 -0.0727
19894OST    PA130588  10.996   5.522  10.357 -0.0545 -0.1123  0.0820
19894OST    PA230589  11.039   5.768  10.126  0.0151  0.1138  0.3988
19894OST    PA330590  11.283   5.853  10.266 -0.2106 -0.4747  0.0120
19894OST    PA430591  11.038   5.897   9.979 -0.1547 -0.1881  0.0122
19894OST    PA530592  10.815   5.795   9.791  0.0254  0.2718 -0.2384
19894OST    PA630593  10.807   5.560   9.900 -0.3426 -0.2554 -0.1125
19895OST    PA130594   6.527   4.657   3.323 -0.0712 -0.0756 -0.1358
19895OST    PA230595   6.669   4.993   3.379  0.1121  0.1374  0.1744
19895OST    PA330596   6.920   4.931   3.549  0.0671 -0.0136 -0.1810
19895OST    PA430597   6.639   5.142   3.441  0.1262 -0.1643 -0.0369
19895OST    PA530598   6.493   5.258   3.185  0.2356 -0.1933  0.4151
19895OST    PA630599   6.504   5.050   3.051  0.1074 -0.0468 -0.0770
19896OST    PA130600   9.930  13.829   4.162 -0.0900 -0.4201 -0.2741
19896OST    PA230601  10.258  13.722   4.230  0.5711 -0.2474  0.2810
19896OST    PA330602  10.298  13.956   4.384  0.3372 -0.3876  0.0320
19896OST    PA430603  10.436  13.693   4.155  0.5135 -0.0086 -0.1618
19896OST    PA530604  10.396  13.360   4.125 -0.2722 -0.2511 -0.2107
19896OST    PA630605  10.200  13.352   4.231  0.0877  0.1387 -0.3244
19897OST    PA130606  11.077   0.639   3.670  0.2782 -0.0191  0.1207
19897OST    PA230607  11.323   0.593   3.390  0.1391  0.0695 -0.1623
19897OST    PA330608  11.354   0.896   3.463 -0.0409  0.0586 -0.3714
19897OST    PA430609  11.495   0.551   3.333 -0.0352  0.2561  0.0310
19897OST    PA530610  11.504   0.237   3.337  0.2993 -0.0439 -0.0205
19897OST    PA630611  11.264   0.213   3.404  0.0649 -0.2554  0.2145
19898OST    PA130612  12.588  10.155  11.003 -0.2889 -0.1583  0.0084
19898OST    PA230613  12.824  10.127  10.776 -0.0879  0.4704  0.1252
19898OST    PA330614  12.651  10.336  10.650  0.2287 -0.2645 -0.0394
19898OST    PA430615  12.934  10.106  10.619 -0.2775  0.0211  0.1557
19898OST    PA530616  13.227  10.042  10.798  0.2408  0.0506  0.0572
19898OST    PA630617  13.112  10.028  11.005 -0.2964 -0.0434  0.2280
19899OST    PA130618  14.380   2.435   9.372  0.1438 -0.0796  0.0981
19899OST    PA230619  14.168   2.344   9.081  0.4969  0.1529  0.0691
19899OST    PA330620  14.002   2.119   9.188 -0.4003  0.1165  0.4387
19899OST    PA430621  14.021   2.421   8.957  0.3150  0.1445 -0.1052
19899OST    PA530622  14.228   2.588   8.790 -0.0212 -0.1907  0.1517
19899OST    PA630623  14.425   2.492   8.896  0.3962 -0.1710  0.3218
19900OST    PA130624   4.055  13.496  11.451  0.0408 -0.2555  0.0910
19900OST    PA230625   4.119  13.496  11.795 -0.2824 -0.2068  0.2571
19900OST    PA330626   3.884  13.332  11.772 -0.0097  0.4307 -0.2434
19900OST    PA430627   4.170  13.433  11.977  0.5487  0.2129 -0.2400
19900OST    PA530628   4.491  13.528  11.995  0.7533  0.1319 -0.1718
19900OST    PA630629   4.466  13.611  11.775  0.5365  0.2408 -0.1478
19901OST    PA130630  15.476   0.669   4.136 -0.0431 -0.0966  0.0383
19901OST    PA230631  15.754   0.537   4.304  0.2775  0.2312 -0.3142
19901OST    PA330632  15.563   0.541   4.501  0.1233 -0.0974  0.4162
19901OST    PA430633  15.921   0.448   4.438  0.4395  0.0327 -0.4226
19901OST    PA530634  16.136   0.549   4.245 -0.1286  0.2227 -0.2069
19901OST    PA630635  15.981   0.648   4.073 -0.1858 -0.1677 -0.0986
19902OST    PA130636   4.887   8.429   9.969 -0.0019  0.1216  0.2783
19902OST    PA230637   4.568   8.478   9.819 -0.0686  0.2401 -0.0689
19902OST    PA330638   4.730   8.631   9.633  0.3427  0.2494  0.0555
19902OST    PA430639   4.436   8.399   9.690  0.2484 -0.0788  0.2195
19902OST    PA530640   4.385   8.116   9.884 -0.3568 -0.1386 -0.1626
19902OST    PA630641   4.459   8.219  10.042  0.2282  0.1714 -0.5220
19903OST    PA130642   5.577   9.897  12.550 -0.1792 -0.2287 -0.0954
19903OST    PA230643   5.564   9.533  12.472 -0.2235 -0.0197  0.1190
19903OST    PA330644   5.367   9.538  12.712  0.2510 -0.1536  0.2657
19903OST    PA430645   5.463   9.379  12.368 -0.0746 -0.1373 -0.2719
19903OST    PA530646   5.674   9.388  12.120 -0.2454 -0.2580  0.0106
19903OST    PA630647   5.819   9.549  12.227 -0.3902 -0.0258 -0.0454
19904OST    PA130648  12.814  11.046   9.606 -0.0407  0.0093 -0.3933
19904OST    PA230649  12.696  11.247   9.342 -0.2012 -0.2026  0.2143
19904OST    PA330650  12.426  11.225   9.497  0.2788  0.5118  0.2888
19904OST    PA430651  12.620  11.365   9.182  0.1783  0.1767  0.0116
19904OST    PA530652  12.877  11.496   9.105 -0.3175 -0.2564 -0.2019
19904OST    PA630653  13.015  11.389   9.282  0.4841  0.2280  0.0267
19905OST    PA130654  11.748   4.250  12.120  0.0278  0.3268  0.0638
19905OST    PA230655  11.568   4.084  12.403 -0.4078  0.2586  0.3387
19905OST    PA330656  11.434   4.327  12.372  0.1200 -0.2318 -0.2367
19905OST    PA430657  11.484   4.012  12.580  0.1089  0.0223 -0.0452
19905OST    PA530658  11.596   3.723  12.444  0.2202  0.1919  0.2302
19905OST    PA630659  11.733   3.794  12.279  0.2241 -0.1785 -0.3733
19906OST    PA130660  10.828  14.517   4.626  0.1659 -0.0591  0.1210
19906OST    PA230661  10.813  14.229   4.429  0.0671 -0.1736  0.1127
19906OST    PA330662  10.939  14.021   4.578 -0.1253  0.3865 -0.3962
19906OST    PA430663  10.659  14.116   4.342 -0.0622 -0.0659  0.1933
19906OST    PA530664  10.654  14.231   4.054 -0.2126 -0.1502  0.5090
19906OST    PA630665  10.804  14.433   4.117 -0.1477  0.3294  0.0071
19907OST    PA130666   3.852  13.862  11.754 -0.3406  0.0733 -0.0093
19907OST    PA230667   3.682  14.164  11.657  0.0073  0.3086 -0.0732
19907OST    PA330668   3.430  14.001  11.645 -0.2712  0.1597 -0.3638
19907OST    PA430669   3.658  14.242  11.529 -0.1170 -0.2142  0.2487
19907OST    PA530670   3.924  14.425  11.576 -0.0624  0.0544  0.1503
19907OST    PA630671   4.011  14.278  11.737  0.1002 -0.1893  0.0625
19908OST    PA130672   6.672   8.303   2.588 -0.1753 -0.2462 -0.2911
19908OST    PA230673   6.595   8.006   2.405 -0.2680 -0.0497  0.0454
19908OST    PA330674   6.347   8.020   2.531  0.3710 -0.0546  0.0911
19908OST    PA430675   6.579   7.800   2.376 -0.0520 -0.3565  0.0726
19908OST    PA530676   6.788   7.824   2.094  0.1816 -0.2515  0.3838
19908OST    PA630677   6.815   8.069   2.136 -0.0838 -0.0064  0.0504
19909OST    PA130678   6.711   1.993  11.331 -0.1322 -0.1359 -0.1859
19909OST    PA230679   6.385   1.995  11.457 -0.2096 -0.1992 -0.0631
19909OST    PA330680   6.279   1.750  11.543 -0.4374  0.3706 -0.2019
19909OST    PA430681   6.230   2.074  11.432  0.4723  0.1103  0.0754
19909OST    PA530682   6.306   2.347  11.559  0.1632 -0.2310  0.2340
19909OST    PA630683   6.499   2.310  11.600  0.0451 -0.2810 -0.3632
19910OST    PA130684   5.096   2.512   0.863 -0.0227 -0.1394  0.2011
19910OST    PA230685   5.235   2.184   0.922 -0.3477  0.1453 -0.0245
19910OST    PA330686   4.959   2.094   0.820 -0.0202  0.0338 -0.2852
19910OST    PA430687   5.289   2.014   0.971  0.1901 -0.1616  0.0960
19910OST    PA530688   5.608   2.072   0.954  0.4239  0.1132  0.2920
19910OST    PA630689   5.544   2.309   0.874 -0.1836  0.1944 -0.5207
19911OST    PA130690   7.725   6.784  10.114  0.0318 -0.1991  0.2076
19911OST    PA230691   7.595   6.905   9.840  0.0746 -0.0755 -0.4172
19911OST    PA330692   7.341   6.813  10.003 -0.0899  0.0942 -0.1726
19911OST    PA430693   7.489   6.932   9.661 -0.4260 -0.2182  0.0217
19911OST    PA530694   7.729   7.166   9.581 -0.0080  0.3497 -0.2824
19911OST    PA630695   7.871   7.094   9.754  0.2276  0.0886 -0.3361
19912OST    PA130696  12.925   0.448   9.424 -0.0928  0.0389 -0.0382
19912OST    PA230697  12.662   0.582   9.634  0.4921 -0.1006 -0.0979
19912OST    PA330698  12.771   0.845   9.724  0.3686  0.0919  0.2316
19912OST    PA430699  12.485   0.608   9.738  0.3183  0.0458 -0.1702
19912OST    PA530700  12.343   0.353   9.644 -0.4045  0.2575 -0.1820
19912OST    PA630701  12.518   0.291   9.506  0.1806  0.0357  0.0942
19913OST    PA130702  10.583   2.208  13.127 -0.0719 -0.0160  0.1208
19913OST    PA230703  10.286   2.027  13.085  0.3037 -0.0102 -0.1413
19913OST    PA330704  10.060   2.226  13.141 -0.2478 -0.1006 -0.1000
19913OST    PA430705  10.171   1.843  13.165  0.0679 -0.1705 -0.0194
19913OST    PA530706  10.369   1.605  13.119  0.0378 -0.1442  0.1849
19913OST    PA630707  10.528   1.751  13.015 -0.2774 -0.0536  0.1370
19914OST    PA130708   3.903   0.967   9.998 -0.0664  0.0104  0.0338
19914OST    PA230709   3.698   0.856   9.732 -0.0932  0.2379 -0.2783
19914OST    PA330710   3.699   1.121   9.575  0.0047 -0.1048 -0.2553
19914OST    PA430711   3.550   0.782   9.620  0.1622  0.1867  0.0713
19914OST    PA530712   3.542   0.511   9.766  0.4242 -0.2710 -0.0606
19914OST    PA630713   3.747   0.557   9.891  0.1623  0.1311  0.2656
19915OST    PA130714   7.116   5.286  13.177 -0.0452 -0.1738 -0.2670
19915OST    PA230715   6.843   5.274  12.957  0.1665 -0.0001  0.1201
19915OST    PA330716   6.754   5.579  13.000  0.0806 -0.0960  0.5266
19915OST    PA430717   6.714   5.255  12.782 -0.4174 -0.0862 -0.4525
19915OST    PA530718   6.804   4.969  12.662 -0.4771 -0.0287 -0.5844
19915OST    PA630719   7.000   5.007  12.836  0.4555  0.1737  0.2062
19916OST    PA130720  13.482  13.304   2.979 -0.0305  0.1294 -0.0529
19916OST    PA230721  13.470  13.487   3.279  0.3076  0.2840  0.2240
19916OST    PA330722  13.624  13.239   3.412  0.0606  0.3097  0.0953
19916OST    PA430723  13.587  13.634   3.327 -0.0363 -0.0496 -0.3249
19916OST    PA530724  13.429  13.823   3.088 -0.2464  0.1457 -0.1254
19916OST    PA630725  13.268  13.685   3.046 -0.2600  0.4063  0.0903
19917OST    PA130726   6.395   1.577   3.062  0.2838 -0.3193  0.2768
19917OST    PA230727   6.278   1.275   2.950  0.0714  0.2096  0.1985
19917OST    PA330728   6.492   1.214   2.754 -0.0006  0.0677 -0.0218
19917OST    PA430729   6.144   1.235   2.816  0.2751 -0.2598 -0.1584
19917OST    PA530730   5.900   1.255   3.018 -0.3014 -0.2931  0.1933
19917OST    PA630731   6.054   1.301   3.227 -0.1290 -0.1343  0.3653
19918OST    PA130732   7.466   9.390   4.476 -0.0419  0.2371 -0.0314
19918OST    PA230733   7.722   9.258   4.676 -0.1575  0.1681  0.1683
19918OST    PA330734   7.720   8.957   4.690  0.4754 -0.0621 -0.0838
19918OST    PA430735   7.850   9.264   4.827 -0.1232 -0.0362 -0.0335
19918OST    PA530736   8.028   9.505   4.758 -0.1142  0.1306 -0.1026
19918OST    PA630737   7.897   9.538   4.565  0.3434  0.0229  0.4310
19919OST    PA130738   2.951   8.222   9.712 -0.0494  0.2791  0.0287
19919OST    PA230739   2.905   7.916   9.550 -0.2294  0.2116  0.3823
19919OST    PA330740   2.711   8.003   9.347 -0.3232  0.3047  0.5420
19919OST    PA430741   2.978   7.784   9.436 -0.4526 -0.2959 -0.0857
19919OST    PA530742   3.131   7.646   9.683 -0.1088 -0.3854 -0.7392
19919OST    PA630743   3.032   7.775   9.859 -0.1066 -0.0610  0.0750
19920OST    PA130744   6.060   5.555   8.753 -0.1912  0.5108  0.2713
19920OST    PA230745   6.172   5.888   8.734  0.2091  0.0172  0.0613
19920OST    PA330746   6.414   5.859   8.583 -0.0565 -0.1464 -0.2603
19920OST    PA430747   6.107   6.063   8.669 -0.4384  0.3281 -0.1651
19920OST    PA530748   5.898   6.097   8.923  0.4877  0.1063 -0.0943
19920OST    PA630749   5.940   5.894   9.025  0.1373 -0.1191 -0.0922
19921OST    PA130750  13.332   9.469   9.123 -0.2173 -0.0037 -0.1888
19921OST    PA230751  13.491   9.281   8.886 -0.5474 -0.2430  0.0205
19921OST    PA330752  13.644   9.473   8.699 -0.0839  0.2275 -0.2842
19921OST    PA430753  13.613   9.109   8.831 -0.1117  0.2876  0.2309
19921OST    PA530754  13.385   8.914   8.755  0.0193  0.0669  0.1485
19921OST    PA630755  13.203   9.083   8.846 -0.0694  0.3318 -0.3521
19922OST    PA130756   4.907   6.189  10.588 -0.1207 -0.0715 -0.0705
19922OST    PA230757   5.156   6.338  10.395 -0.0295  0.3377 -0.0747
19922OST    PA330758   5.285   6.038  10.425  0.3512  0.2317 -0.1861
19922OST    PA430759   5.343   6.431  10.445  0.1736 -0.0259  0.4088
19922OST    PA530760   5.111   6.655  10.539  0.0537 -0.1647 -0.0059
19922OST    PA630761   4.931   6.607  10.413 -0.1743 -0.0659 -0.2039
19923OST    PA130762   4.285  13.589  12.408  0.0070 -0.1322  0.1779
19923OST    PA230763   4.282  13.851  12.156 -0.0615  0.4094  0.0057
19923OST    PA330764   4.035  13.891  12.265  0.1056 -0.0632 -0.0069
19923OST    PA430765   4.281  13.996  11.988 -0.1144 -0.0980 -0.3448
19923OST    PA530766   4.620  14.014  12.031  0.1204 -0.2416  0.1404
19923OST    PA630767   4.618  13.855  12.206  0.1734 -0.0287  0.3430
19924OST    PA130768   5.136   0.382  11.120 -0.1867 -0.2234  0.2714
19924OST    PA230769   4.979   0.641  10.924  0.1657 -0.1995 -0.0135
19924OST    PA330770   4.943   0.551  10.654  0.0564 -0.2524 -0.1880
19924OST    PA430771   4.813   0.745  10.933  0.0335 -0.1766 -0.0367
19924OST    PA530772   4.887   0.956  11.187  0.0218  0.2690  0.3357
19924OST    PA630773   5.119   0.850  11.175 -0.4274  0.0057  0.0215
19925OST    PA130774   3.700  14.388   3.965  0.2505 -0.1597  0.2691
19925OST    PA230775   3.630  14.698   4.125  0.1800  0.2540  0.0312
19925OST    PA330776   3.320  14.693   4.027 -0.2816  0.6645 -0.3637
19925OST    PA430777   3.612  14.821   4.277  0.1777  0.0729 -0.1123
19925OST    PA530778   3.900  14.867   4.309  0.3217 -0.1313  0.0235
19925OST    PA630779   3.971  14.765   4.103  0.5186  0.0839 -0.0264
19926OST    PA130780   5.221   4.938   4.072 -0.0755  0.2876  0.1580
19926OST    PA230781   5.557   4.981   4.131 -0.1513 -0.0227 -0.1771
19926OST    PA330782   5.584   4.673   4.165 -0.2860  0.2841  0.1175
19926OST    PA430783   5.713   5.037   4.247 -0.0467  0.3869 -0.2125
19926OST    PA530784   5.658   5.331   4.277  0.3156  0.1092  0.0291
19926OST    PA630785   5.493   5.317   4.133  0.0580 -0.0061  0.1058
19927OST    PA130786   6.282  14.511   4.007 -0.0742  0.1208 -0.1617
19927OST    PA230787   6.329  14.187   3.932  0.1364 -0.1891 -0.0299
19927OST    PA330788   6.390  14.133   4.207 -0.6585 -0.3800 -0.0065
19927OST    PA430789   6.147  14.073   3.923  0.1846  0.0034  0.1753
19927OST    PA530790   6.173  14.167   3.600  0.0515 -0.0024 -0.1661
19927OST    PA630791   6.355  14.296   3.584  0.1080  0.0547  0.0194
19928OST    PA130792   7.443  11.249   4.187  0.3933  0.0789  0.1361
19928OST    PA230793   7.374  11.012   4.447 -0.1261  0.0857  0.0444
19928OST    PA330794   7.254  10.774   4.303  0.1530  0.1583  0.1862
19928OST    PA430795   7.504  10.902   4.580  0.2943 -0.0248  0.2899
19928OST    PA530796   7.579  11.150   4.770  0.0461  0.0812 -0.2123
19928OST    PA630797   7.465  11.319   4.642  0.0519  0.3213  0.0476
19929OST    PA130798   2.626   7.865   2.083  0.1901 -0.0737  0.0411
19929OST    PA230799   2.348   8.102   2.014 -0.0468 -0.0988 -0.2721
19929OST    PA330800   2.555   8.299   2.025  0.0915 -0.0219 -0.0268
19929OST    PA430801   2.217   8.234   1.949  0.1644 -0.1044 -0.4774
19929OST    PA530802   1.987   7.999   1.972  0.0433 -0.1549  0.4359
19929OST    PA630803   2.139   7.830   2.056 -0.1393  0.1882  0.1392
19930OST    PA130804  15.450   4.874   0.987  0.0180 -0.2034 -0.1456
19930OST    PA230805  15.481   4.644   1.249 -0.0830 -0.1561  0.0949
19930OST    PA330806  15.295   4.854   1.363  0.1218  0.3927 -0.2722
19930OST    PA430807  15.415   4.491   1.350  0.1942 -0.0412  0.4287
19930OST    PA530808  15.528   4.300   1.137  0.1160 -0.1076 -0.1313
19930OST    PA630809  15.632   4.429   0.973  0.0122  0.1425 -0.3279
19931OST    PA130810  14.690  12.230   5.213 -0.0103 -0.0960 -0.1614
19931OST    PA230811  14.959  12.455   5.173 -0.2630 -0.1214  0.0090
19931OST    PA330812  15.062  12.244   5.395  0.5118 -0.1284 -0.0873
19931OST    PA430813  15.028  12.599   5.271  0.3562  0.1234  0.5594
19931OST    PA530814  14.831  12.813   5.169  0.1063  0.2171 -0.3055
19931OST    PA630815  14.695  12.629   5.014 -0.0480 -0.1199  0.2225
19932OST    PA130816  15.392  10.837   9.620  0.1052 -0.0551 -0.2086
19932OST    PA230817  15.625  11.064   9.772 -0.3287 -0.1426  0.1926
19932OST    PA330818  15.561  11.174   9.497 -0.3493  0.2172 -0.2619
19932OST    PA430819  15.716  11.249   9.840  0.3612  0.1362  0.3499
19932OST    PA530820  15.745  11.152  10.136  0.2127 -0.1345 -0.0510
19932OST    PA630821  15.678  10.943  10.110 -0.0174 -0.0612  0.2028
19933OST    PA130822   1.494   0.216   9.470 -0.1268  0.3433  0.2891
19933OST    PA230823   1.772   0.001   9.476  0.1287 -0.3882  0.2753
19933OST    PA330824   1.830   0.160   9.725  0.1506  0.3382  0.4677
19933OST    PA430825   1.956  -0.058   9.460  0.1471  0.0504 -0.1711
19933OST    PA530826   1.923  -0.216   9.202 -0.1991 -0.3734  0.1873
19933OST    PA630827   1.686  -0.165   9.181  0.0074 -0.0783 -0.0008
19934OST    PA130828   8.476   8.133   4.636 -0.1910 -0.0902 -0.2570
19934OST    PA230829   8.442   8.486   4.611  0.3620 -0.1838 -0.0605
19934OST    PA330830   8.417   8.505   4.900  0.1992 -0.0365 -0.1038
19934OST    PA430831   8.305   8.620   4.549 -0.3948  0.4393  0.2020
19934OST    PA530832   8.273   8.541   4.227 -0.0092  0.1501 -0.3689
19934OST    PA630833   8.435   8.367   4.276  0.1223 -0.0615  0.3011
19935OST    PA130834  11.476  15.799  12.444  0.1662 -0.0837  0.1446
19935OST    PA230835  11.527  16.166  12.367 -0.4053  0.2197 -0.1988
19935OST    PA330836  11.447  16.114  12.092 -0.2580 -0.0734  0.0190
19935OST    PA430837  11.613  16.371  12.352  0.3558  0.0363 -0.0485
19935OST    PA530838  11.767  16.353  12.582  0.3391 -0.1479  0.1609
19935OST    PA630839  11.726  16.151  12.688  0.3243 -0.0623 -0.1435
  15.83283  15.83283  13.52619
