frame t= 0.000
  947
    1CAT    PA2    1   2.252   3.004   3.135
    1CAT    PA3    2   2.220   3.199   2.895
    1CAT    PA3    3   2.008   3.186   3.359
    1CAT    PA4    4   1.971   3.283   3.165
    1CAT    PA5    5   1.857   3.492   3.285
    1CAT    PA6    6   1.705   3.715   3.375
    1CAT    PA7    7   1.595   3.499   3.400
    2WN      WN    8   0.084   3.595   3.359
    3WN      WN    9   0.460   2.488   2.882
    4WN      WN   10   3.165   2.218   0.652
    5WN      WN   11   3.295   3.303   2.679
    6WN      WN   12   1.213   3.294   0.205
    7WN      WN   13   1.296   1.446   1.188
    8WN      WN   14   0.811   1.294   1.352
    9WN      WN   15   1.802   2.109   0.786
   10WN      WN   16   1.477   3.201   3.141
   11WN      WN   17   0.126   0.762   3.104
   12WN      WN   18   0.888   0.042   2.906
   13WN      WN   19   2.582   0.430   1.793
   14WN      WN   20   2.231   1.301   0.363
   15WN      WN   21   2.801   0.735   3.454
   16WN      WN   22   0.167   0.527   2.579
   17WN      WN   23   0.266   3.146   3.600
   18WN      WN   24   1.788   2.536   0.332
   19WN      WN   25   0.220   1.319   2.025
   20WN      WN   26   1.113   1.210   3.262
   21WN      WN   27   3.572   1.069   1.761
   22WN      WN   28   3.336   2.112   2.620
   23WN      WN   29   1.644   1.445   1.647
   24WN      WN   30   2.190   2.784   2.016
   25WN      WN   31   0.690   2.218   2.248
   26WN      WN   32   0.049   1.746   1.819
   27WN      WN   33   1.085   1.718   3.011
   28WN      WN   34   3.356   1.501   3.265
   29WN      WN   35   0.972   2.945   1.710
   30WN      WN   36   2.093   2.634   2.844
   31WN      WN   37   1.313   1.274   2.069
   32WN      WN   38   1.605   2.058   1.712
   33WN      WN   39   2.602   2.831   3.560
   34WN      WN   40   1.681   2.151   3.570
   35WN      WN   41   1.662   1.867   3.048
   36WN      WN   42   0.071   1.258   3.570
   37WN      WN   43   2.903   2.793   3.169
   38WN      WN   44   0.484   0.375   1.167
   39WN      WN   45   1.011   2.633   2.166
   40WN      WN   46   3.474   2.416   1.456
   41WN      WN   47   2.887   0.816   2.023
   42WN      WN   48   3.172   0.769   0.118
   43WN      WN   49   3.637   1.570   2.424
   44WN      WN   50   1.604   3.277   2.177
   45WN      WN   51   3.378   2.743   0.615
   46WN      WN   52   0.507   3.529   0.369
   47WN      WN   53   0.900   3.575   1.045
   48WN      WN   54   0.697   0.329   2.471
   49WN      WN   55   3.320   1.347   2.746
   50WN      WN   56   2.725   1.769   1.205
   51WN      WN   57   2.691   1.457   0.232
   52WN      WN   58   1.899   2.601   2.372
   53WN      WN   59   1.705   0.931   1.571
   54WN      WN   60   2.305   3.018   2.565
   55WN      WN   61   3.176   1.809   0.987
   56WN      WN   62   2.078   0.467   1.003
   57WN      WN   63   0.735   3.161   0.686
   58WN      WN   64   0.106   0.660   1.285
   59WN      WN   65   2.892   1.267   1.759
   60WN      WN   66   0.350   2.884   1.674
   61WN      WN   67   1.691   3.234   0.544
   62WN      WN   68   3.083   1.260   0.008
   63WN      WN   69   0.106   3.018   2.172
   64WN      WN   70   0.897   2.590   2.652
   65WN      WN   71   1.270   1.950   1.271
   66WN      WN   72   1.292   0.355   2.364
   67WN      WN   73   3.521   0.117   1.661
   68WN      WN   74   0.740   1.989   0.129
   69WN      WN   75   0.395   1.022   0.308
   70WN      WN   76   0.457   2.978   1.102
   71WN      WN   77   1.588   2.461   1.350
   72WN      WN   78   2.920   3.320   3.064
   73WN      WN   79   1.846   0.962   0.748
   74WN      WN   80   3.229   3.360   1.520
   75WN      WN   81   2.906   1.213   3.118
   76WN      WN   82   3.619   2.869   1.252
   77WN      WN   83   2.246   2.161   2.736
   78WN      WN   84   0.012   1.712   0.942
   79WN      WN   85   1.123   2.127   2.515
   80WN      WN   86   2.327   1.391   0.893
   81WN      WN   87   2.204   1.881   0.997
   82WN      WN   88   0.547   1.301   2.471
   83WN      WN   89   0.532   1.177   3.393
   84WN      WN   90   0.422   0.094   1.552
   85WN      WN   91   2.190   0.441   2.113
   86WN      WN   92   1.838   0.626   3.276
   87WN      WN   93   2.193   0.775   0.454
   88WN      WN   94   3.376   3.168   3.208
   89WN      WN   95   2.343   0.249   3.247
   90WN      WN   96   3.362   2.550   3.369
   91WN      WN   97   2.792   0.717   2.965
   92WN      WN   98   2.592   0.655   1.235
   93WN      WN   99   2.985   1.789   3.639
   94WN      WN  100   0.725   3.365   1.625
   95WN      WN  101   1.383   1.082   0.611
   96WN      WN  102   0.952   0.366   3.275
   97WN      WN  103   3.004   0.850   0.956
   98WN      WN  104   3.371   1.332   0.901
   99WN      WN  105   1.114   3.549   3.372
  100WN      WN  106   1.040   0.085   0.607
  101WN      WN  107   3.361   0.619   1.642
  102WN      WN  108   3.511   2.868   0.087
  103WN      WN  109   0.418   2.071   1.789
  104WN      WN  110   2.335   0.658   0.019
  105WN      WN  111   3.469   2.990   1.739
  106WN      WN  112   3.508   0.184   2.489
  107WN      WN  113   1.953   1.396   3.043
  108WN      WN  114   2.046   2.735   0.746
  109WN      WN  115   2.446   2.029   3.486
  110WN      WN  116   2.120   0.006   1.795
  111WN      WN  117   0.732   0.909   1.858
  112WN      WN  118   0.286   2.109   2.632
  113WN      WN  119   2.145   3.302   1.338
  114WN      WN  120   3.339   0.899   2.210
  115WN      WN  121   3.319   2.305   0.182
  116WN      WN  122   1.754   1.788   1.243
  117WN      WN  123   3.606   0.299   2.984
  118WN      WN  124   1.755   2.134   2.578
  119WN      WN  125   1.972   1.020   2.023
  120WN      WN  126   2.824   1.318   0.861
  121WN      WN  127   3.111   1.051   0.503
  122WN      WN  128   2.920   3.091   0.892
  123WN      WN  129   2.754   2.694   1.688
  124WN      WN  130   2.650   1.773   0.666
  125WN      WN  131   2.083   1.983   1.652
  126WN      WN  132   2.964   1.771   1.719
  127WN      WN  133   0.339   0.786   2.143
  128WN      WN  134   3.117   1.838   2.970
  129WN      WN  135   3.468   3.456   2.116
  130WN      WN  136   1.398   2.900   1.518
  131WN      WN  137   2.399   0.763   2.606
  132WN      WN  138   1.606   3.471   2.667
  133WN      WN  139   3.303   0.425   1.133
  134WN      WN  140   3.094   1.744   2.434
  135WN      WN  141   0.077   1.065   2.472
  136WN      WN  142   2.937   0.860   1.490
  137WN      WN  143   3.348   1.011   3.267
  138WN      WN  144   2.233   2.710   1.485
  139WN      WN  145   1.489   3.301   1.098
  140WN      WN  146   0.604   0.481   0.356
  141WN      WN  147   1.708   0.135   2.166
  142WN      WN  148   0.736   3.255   0.014
  143WN      WN  149   1.110   1.721   0.765
  144WN      WN  150   1.764   2.350   3.078
  145WN      WN  151   1.594   0.708   1.068
  146WN      WN  152   2.950   0.305   1.496
  147WN      WN  153   2.670   3.587   1.824
  148WN      WN  154   2.082   3.235   2.164
  149WN      WN  155   1.478   2.272   2.125
  150WN      WN  156   3.248   2.995   2.251
  151WN      WN  157   0.942   0.498   1.020
  152WN      WN  158   1.464   2.795   1.980
  153WN      WN  159   0.947   0.726   0.045
  154WN      WN  160   1.748   1.335   2.439
  155WN      WN  161   2.596   0.201   2.309
  156WN      WN  162   0.016   2.044   2.194
  157WN      WN  163   1.720   1.862   0.352
  158WN      WN  164   0.988   0.177   0.122
  159WN      WN  165   1.726   1.258   1.173
  160WN      WN  166   2.696   0.234   2.872
  161WN      WN  167   1.284   2.246   2.981
  162WN      WN  168   2.088   2.028   3.198
  163WN      WN  169   2.705   2.058   3.091
  164WN      WN  170   1.989   0.198   3.596
  165WN      WN  171   1.211   0.814   1.989
  166WN      WN  172   0.637   0.770   1.387
  167WN      WN  173   0.423   3.482   1.063
  168WN      WN  174   1.755   2.812   3.188
  169WN      WN  175   0.790   2.297   0.547
  170WN      WN  176   2.470   1.682   1.768
  171WN      WN  177   2.750   1.481   2.167
  172WN      WN  178   1.955   2.155   2.101
  173WN      WN  179   2.425   2.529   0.233
  174WN      WN  180   2.097   0.550   1.561
  175WN      WN  181   3.576   0.828   0.829
  176WN      WN  182   0.070   3.417   2.860
  177WN      WN  183   0.487   2.643   2.392
  178WN      WN  184   0.054   3.489   0.624
  179WN      WN  185   1.953   0.759   2.430
  180WN      WN  186   1.316   2.782   0.279
  181WN      WN  187   3.221   3.164   0.465
  182WN      WN  188   2.196   1.817   0.479
  183WN      WN  189   1.039   1.008   0.996
  184WN      WN  190   1.871   0.918   0.048
  185WN      WN  191   2.455   2.483   3.226
  186WN      WN  192   2.808   0.389   0.843
  187WN      WN  193   0.138   0.237   0.291
  188WN      WN  194   1.424   2.556   2.581
  189WN      WN  195   1.223   2.472   1.673
  190WN      WN  196   0.965   2.424   0.071
  191WN      WN  197   0.206   2.665   0.839
  192WN      WN  198   0.710   1.735   3.281
  193WN      WN  199   1.414   0.295   3.467
  194WN      WN  200   2.123   0.437   2.823
  195WN      WN  201   1.318   0.205   1.104
  196WN      WN  202   2.377   0.282   0.609
  197WN      WN  203   0.322   0.214   2.186
  198WN      WN  204   0.370   1.177   1.556
  199WN      WN  205   3.059   0.285   1.962
  200WN      WN  206   0.481   0.783   0.776
  201WN      WN  207   3.052   0.471   2.392
  202WN      WN  208   3.448   1.674   0.077
  203WN      WN  209   0.740   0.432   1.896
  204WN      WN  210   1.854   1.004   2.836
  205WN      WN  211   0.002   0.694   0.314
  206WN      WN  212   0.788   2.083   2.875
  207WN      WN  213   2.146   1.481   2.054
  208WN      WN  214   2.013   3.560   0.350
  209WN      WN  215   0.159   2.067   0.047
  210WN      WN  216   0.894   2.478   3.173
  211WN      WN  217   0.415   1.645   2.804
  212WN      WN  218   1.406   1.750   2.598
  213WN      WN  219   3.174   0.109   2.860
  214WN      WN  220   3.572   1.719   2.851
  215WN      WN  221   3.560   1.919   0.537
  216WN      WN  222   2.423   2.251   0.636
  217WN      WN  223   2.897   3.551   0.331
  218WN      WN  224   2.074   1.541   3.473
  219WN      WN  225   0.404   2.508   3.513
  220WN      WN  226   3.610   0.430   3.465
  221WN      WN  227   3.328   1.358   2.086
  222WN      WN  228   1.491   0.117   0.290
  223WN      WN  229   3.030   2.716   0.233
  224WN      WN  230   0.799   0.809   3.119
  225WN      WN  231   1.233   2.803   2.981
  226WN      WN  232   3.359   0.794   2.779
  227WN      WN  233   2.570   3.453   0.747
  228WN      WN  234   2.809   2.072   2.114
  229WN      WN  235   1.059   0.488   2.781
  230WN      WN  236   1.528   1.557   3.538
  231WN      WN  237   1.031   2.736   0.732
  232WN      WN  238   2.786   2.234   0.996
  233WN      WN  239   0.554   0.860   2.720
  234WN      WN  240   1.883   2.922   1.184
  235WN      WN  241   3.633   1.482   1.365
  236WN      WN  242   1.855   0.115   3.084
  237WN      WN  243   2.635   2.820   2.163
  238WN      WN  244   2.938   3.164   1.871
  239WN      WN  245   2.157   2.966   0.299
  240WN      WN  246   0.167   2.858   3.141
  241WN      WN  247   0.910   0.850   2.379
  242WN      WN  248   0.880   0.198   1.489
  243WN      WN  249   2.501   1.040   2.181
  244WN      WN  250   1.299   2.211   0.381
  245WN      WN  251   3.297   2.153   1.880
  246WN      WN  252   0.624   2.911   3.303
  247WN      WN  253   3.011   3.593   1.100
  248WN      WN  254   1.110   0.613   1.545
  249WN      WN  255   0.879   2.106   1.635
  250WN      WN  256   1.192   3.517   2.385
  251WN      WN  257   3.259   3.613   3.417
  252WN      WN  258   2.418   1.801   2.350
  253WN      WN  259   0.267   1.599   0.265
  254WN      WN  260   3.401   3.257   0.962
  255WN      WN  261   3.238   0.581   0.581
  256WN      WN  262   1.377   0.100   2.984
  257WN      WN  263   3.083   2.902   1.442
  258WN      WN  264   3.112   1.458   1.347
  259WN      WN  265   1.229   1.131   1.563
  260WN      WN  266   1.474   1.393   2.887
  261WN      WN  267   2.585   2.546   2.750
  262WN      WN  268   1.235   1.000   2.862
  263WN      WN  269   1.214   3.466   1.478
  264WN      WN  270   0.531   3.425   3.112
  265WN      WN  271   0.643   2.786   0.242
  266WN      WN  272   3.160   2.544   1.052
  267WN      WN  273   0.764   1.336   2.938
  268WN      WN  274   3.537   1.266   0.419
  269WN      WN  275   1.282   2.323   0.890
  270WN      WN  276   2.381   1.705   2.971
  271WN      WN  277   2.272   1.333   2.515
  272WN      WN  278   0.832   1.705   2.544
  273WN      WN  279   3.042   3.593   2.373
  274WN      WN  280   2.833   0.227   3.367
  275WN      WN  281   0.497   0.377   2.954
  276WN      WN  282   0.836   1.400   2.007
  277WN      WN  283   1.205   1.214   0.129
  278WN      WN  284   0.008   2.973   2.674
  279WN      WN  285   1.593   1.682   2.117
  280WN      WN  286   1.416   0.707   0.222
  281WN      WN  287   0.551   1.523   1.003
  282WN      WN  288   0.322   3.375   2.440
  283WN      WN  289   3.117   1.601   0.548
  284WN      WN  290   3.212   0.517   3.234
  285WN      WN  291   2.648   2.726   1.197
  286WN      WN  292   0.246   1.650   3.374
  287WN      WN  293   3.212   0.114   0.670
  288WN      WN  294   2.732   2.589   0.681
  289WN      WN  295   1.634   1.647   0.766
  290WN      WN  296   2.821   0.451   0.289
  291WN      WN  297   2.886   1.058   2.475
  292WN      WN  298   0.595   1.651   1.682
  293WN      WN  299   0.889   2.590   1.331
  294WN      WN  300   2.652   1.210   1.296
  295WN      WN  301   1.675   0.589   1.992
  296WN      WN  302   3.637   2.500   2.503
  297WN      WN  303   3.555   0.487   2.064
  298WN      WN  304   0.094   3.317   1.440
  299WN      WN  305   0.603   2.504   0.976
  300WN      WN  306   0.518   0.121   3.529
  301WN      WN  307   1.637   2.974   3.631
  302WN      WN  308   3.392   1.942   1.421
  303WN      WN  309   2.746   2.119   0.301
  304WN      WN  310   2.041   3.640   2.513
  305WN      WN  311   2.898   2.362   3.550
  306WN      WN  312   1.713   0.072   0.830
  307WN      WN  313   2.426   0.941   1.689
  308WN      WN  314   0.112   2.528   2.021
  309WN      WN  315   1.365   0.490   0.662
  310WN      WN  316   1.169   1.974   3.511
  311WN      WN  317   2.163   0.955   1.225
  312WN      WN  318   2.368   2.365   2.347
  313WN      WN  319   0.522   2.970   2.782
  314WN      WN  320   1.113   2.953   3.505
  315WN      WN  321   0.964   0.750   0.519
  316WN      WN  322   2.481   0.892   0.844
  317WN      WN  323   1.124   1.592   1.680
  318WN      WN  324   0.779   3.290   2.545
  319WN      WN  325   3.524   3.407   0.146
  320WN      WN  326   0.387   2.079   3.142
  321WN      WN  327   2.382   2.341   1.830
  322WN      WN  328   0.818   1.990   1.072
  323WN      WN  329   1.189   2.997   2.467
  324WN      WN  330   1.567   0.416   1.508
  325WN      WN  331   0.178   2.400   0.438
  326WN      WN  332   1.697   1.351   0.308
  327WN      WN  333   0.343   1.900   1.327
  328WN      WN  334   1.633   0.542   2.791
  329WN      WN  335   3.305   0.251   0.218
  330WN      WN  336   3.398   1.997   3.317
  331WN      WN  337   3.610   2.348   2.991
  332WN      WN  338   3.018   3.146   3.602
  333WN      WN  339   0.757   3.602   2.080
  334WN      WN  340   3.616   2.224   0.954
  335WN      WN  341   2.146   1.491   1.467
  336WN      WN  342   1.913   0.103   1.357
  337WN      WN  343   0.972   3.087   1.194
  338WN      WN  344   1.471   0.828   2.419
  339WN      WN  345   1.171   0.197   1.888
  340WN      WN  346   0.234   3.019   0.436
  341WN      WN  347   2.050   2.383   1.154
  342WN      WN  348   0.925   3.178   3.033
  343WN      WN  349   0.402   2.001   0.729
  344WN      WN  350   0.287   0.544   1.728
  345WN      WN  351   1.835   2.509   1.785
  346WN      WN  352   0.087   0.363   0.805
  347WN      WN  353   2.751   1.569   2.732
  348WN      WN  354   2.628   0.955   0.304
  349WN      WN  355   3.145   2.627   1.952
  350WN      WN  356   1.806   3.111   1.783
  351WN      WN  357   1.218   3.215   0.694
  352WN      WN  358   2.500   0.118   0.124
  353WN      WN  359   0.300   3.378   1.865
  354WN      WN  360   2.497   1.136   3.500
  355WN      WN  361   0.480   0.666   3.499
  356WN      WN  362   0.211   1.266   0.832
  357WN      WN  363   0.902   1.255   0.557
  358WN      WN  364   2.665   1.582   3.374
  359WN      WN  365   1.008   1.863   2.083
  360WN      WN  366   2.482   0.149   1.203
  361WN      WN  367   1.613   3.580   1.706
  362WN      WN  368   2.827   3.042   2.643
  363WN      WN  369   2.411   3.191   1.754
  364WN      WN  370   2.430   2.171   1.348
  365WN      WN  371   1.892   0.396   0.419
  366WN      WN  372   3.573   0.024   1.141
  367WN      WN  373   1.261   1.659   0.304
  368WN      WN  374   3.427   0.996   1.294
  369WN      WN  375   2.119   2.166   0.171
  370WN      WN  376   3.055   2.366   2.919
  371WN      WN  377   2.709   3.067   0.386
  372WN      WN  378   1.324   0.742   3.292
  373WN      WN  379   1.144   1.326   2.533
  374WN      WN  380   3.236   2.821   2.810
  375WN      WN  381   2.336   0.771   3.187
  376WN      WN  382   0.180   1.242   2.964
  377WN      WN  383   1.940   1.719   2.690
  378WN      WN  384   0.297   2.477   1.347
  379WN      WN  385   0.444   1.774   2.237
  380WN      WN  386   2.761   2.060   2.587
  381WN      WN  387   2.533   3.440   3.398
  382WN      WN  388   2.429   1.179   2.951
  383WN      WN  389   2.706   3.233   1.356
  384WN      WN  390   1.708   2.953   2.679
  385WN      WN  391   1.193   3.308   1.948
  386WN      WN  392   2.998   2.479   2.367
  387WN      WN  393   2.048   2.551   3.504
  388WN      WN  394   0.653   2.504   1.843
  389WN      WN  395   2.999   2.263   1.488
  390WN      WN  396   2.640   3.329   2.239
  391WN      WN  397   0.618   3.058   2.109
  392WN      WN  398   1.639   1.110   3.319
  393WN      WN  399   2.090   3.276   0.830
  394WN      WN  400   1.398   2.531   3.468
  395WN      WN  401   1.524   2.769   0.845
  396WN      WN  402   0.745   1.509   0.104
  397WN      WN  403   3.165   2.218   4.296
  398WN      WN  404   1.213   3.294   3.849
  399WN      WN  405   1.802   2.109   4.430
  400WN      WN  406   2.231   1.301   4.007
  401WN      WN  407   1.788   2.536   3.976
  402WN      WN  408   0.484   0.375   4.811
  403WN      WN  409   3.172   0.769   3.762
  404WN      WN  410   3.378   2.743   4.259
  405WN      WN  411   0.507   3.529   4.013
  406WN      WN  412   0.900   3.575   4.689
  407WN      WN  413   2.725   1.769   4.849
  408WN      WN  414   2.691   1.457   3.876
  409WN      WN  415   3.176   1.809   4.631
  410WN      WN  416   2.078   0.467   4.647
  411WN      WN  417   0.735   3.161   4.330
  412WN      WN  418   1.691   3.234   4.188
  413WN      WN  419   3.083   1.260   3.652
  414WN      WN  420   1.270   1.950   4.915
  415WN      WN  421   0.740   1.989   3.773
  416WN      WN  422   0.395   1.022   3.952
  417WN      WN  423   0.457   2.978   4.746
  418WN      WN  424   1.846   0.962   4.392
  419WN      WN  425   0.012   1.712   4.586
  420WN      WN  426   2.327   1.391   4.537
  421WN      WN  427   2.204   1.881   4.641
  422WN      WN  428   2.193   0.775   4.098
  423WN      WN  429   1.383   1.082   4.255
  424WN      WN  430   3.004   0.850   4.600
  425WN      WN  431   3.371   1.332   4.545
  426WN      WN  432   1.040   0.085   4.251
  427WN      WN  433   3.511   2.868   3.731
  428WN      WN  434   2.335   0.658   3.663
  429WN      WN  435   2.046   2.735   4.390
  430WN      WN  436   2.145   3.302   4.982
  431WN      WN  437   3.319   2.305   3.826
  432WN      WN  438   1.754   1.788   4.887
  433WN      WN  439   2.824   1.318   4.505
  434WN      WN  440   3.111   1.051   4.147
  435WN      WN  441   2.920   3.091   4.536
  436WN      WN  442   2.650   1.773   4.310
  437WN      WN  443   3.303   0.425   4.777
  438WN      WN  444   1.489   3.301   4.742
  439WN      WN  445   0.604   0.481   4.000
  440WN      WN  446   0.736   3.255   3.658
  441WN      WN  447   1.110   1.721   4.409
  442WN      WN  448   1.594   0.708   4.712
  443WN      WN  449   0.942   0.498   4.664
  444WN      WN  450   0.947   0.726   3.689
  445WN      WN  451   1.720   1.862   3.996
  446WN      WN  452   0.988   0.177   3.766
  447WN      WN  453   1.726   1.258   4.817
  448WN      WN  454   0.423   3.482   4.707
  449WN      WN  455   0.790   2.297   4.191
  450WN      WN  456   2.425   2.529   3.877
  451WN      WN  457   3.576   0.828   4.473
  452WN      WN  458   0.054   3.489   4.268
  453WN      WN  459   1.316   2.782   3.923
  454WN      WN  460   3.221   3.164   4.109
  455WN      WN  461   2.196   1.817   4.123
  456WN      WN  462   1.039   1.008   4.640
  457WN      WN  463   1.871   0.918   3.692
  458WN      WN  464   2.808   0.389   4.487
  459WN      WN  465   0.138   0.237   3.935
  460WN      WN  466   0.965   2.424   3.715
  461WN      WN  467   0.206   2.665   4.483
  462WN      WN  468   1.318   0.205   4.748
  463WN      WN  469   2.377   0.282   4.253
  464WN      WN  470   0.481   0.783   4.420
  465WN      WN  471   3.448   1.674   3.721
  466WN      WN  472   0.002   0.694   3.958
  467WN      WN  473   2.013   3.560   3.994
  468WN      WN  474   0.159   2.067   3.691
  469WN      WN  475   3.560   1.919   4.181
  470WN      WN  476   2.423   2.251   4.280
  471WN      WN  477   2.897   3.551   3.975
  472WN      WN  478   1.491   0.117   3.934
  473WN      WN  479   3.030   2.716   3.877
  474WN      WN  480   2.570   3.453   4.391
  475WN      WN  481   1.031   2.736   4.376
  476WN      WN  482   2.786   2.234   4.640
  477WN      WN  483   1.883   2.922   4.828
  478WN      WN  484   2.157   2.966   3.943
  479WN      WN  485   1.299   2.211   4.025
  480WN      WN  486   3.011   3.593   4.744
  481WN      WN  487   0.267   1.599   3.909
  482WN      WN  488   3.401   3.257   4.606
  483WN      WN  489   3.238   0.581   4.225
  484WN      WN  490   0.643   2.786   3.886
  485WN      WN  491   3.160   2.544   4.696
  486WN      WN  492   3.537   1.266   4.063
  487WN      WN  493   1.282   2.323   4.534
  488WN      WN  494   1.205   1.214   3.773
  489WN      WN  495   1.416   0.707   3.866
  490WN      WN  496   0.551   1.523   4.647
  491WN      WN  497   3.117   1.601   4.192
  492WN      WN  498   2.648   2.726   4.841
  493WN      WN  499   3.212   0.114   4.314
  494WN      WN  500   2.732   2.589   4.325
  495WN      WN  501   1.634   1.647   4.410
  496WN      WN  502   2.821   0.451   3.933
  497WN      WN  503   0.094   3.317   5.084
  498WN      WN  504   0.603   2.504   4.620
  499WN      WN  505   2.746   2.119   3.945
  500WN      WN  506   1.713   0.072   4.474
  501WN      WN  507   1.365   0.490   4.306
  502WN      WN  508   0.964   0.750   4.163
  503WN      WN  509   2.481   0.892   4.488
  504WN      WN  510   3.524   3.407   3.790
  505WN      WN  511   0.818   1.990   4.716
  506WN      WN  512   0.178   2.400   4.082
  507WN      WN  513   1.697   1.351   3.952
  508WN      WN  514   3.305   0.251   3.862
  509WN      WN  515   3.616   2.224   4.598
  510WN      WN  516   1.913   0.103   5.001
  511WN      WN  517   0.234   3.019   4.080
  512WN      WN  518   2.050   2.383   4.798
  513WN      WN  519   0.402   2.001   4.373
  514WN      WN  520   0.087   0.363   4.449
  515WN      WN  521   2.628   0.955   3.948
  516WN      WN  522   1.218   3.215   4.338
  517WN      WN  523   2.500   0.118   3.768
  518WN      WN  524   0.211   1.266   4.476
  519WN      WN  525   0.902   1.255   4.201
  520WN      WN  526   1.892   0.396   4.063
  521WN      WN  527   3.573   0.024   4.785
  522WN      WN  528   1.261   1.659   3.948
  523WN      WN  529   2.119   2.166   3.815
  524WN      WN  530   2.709   3.067   4.030
  525WN      WN  531   0.297   2.477   4.991
  526WN      WN  532   2.090   3.276   4.474
  527WN      WN  533   1.524   2.769   4.489
  528WN      WN  534   0.745   1.509   3.748
  529WN      WN  535   0.126   4.406   3.104
  530WN      WN  536   0.888   3.686   2.906
  531WN      WN  537   2.582   4.074   1.793
  532WN      WN  538   2.801   4.379   3.454
  533WN      WN  539   0.167   4.171   2.579
  534WN      WN  540   1.113   4.854   3.262
  535WN      WN  541   0.071   4.902   3.570
  536WN      WN  542   0.484   4.019   1.167
  537WN      WN  543   2.887   4.460   2.023
  538WN      WN  544   3.172   4.413   0.118
  539WN      WN  545   0.697   3.973   2.471
  540WN      WN  546   1.705   4.575   1.571
  541WN      WN  547   2.078   4.111   1.003
  542WN      WN  548   0.106   4.304   1.285
  543WN      WN  549   2.892   4.911   1.759
  544WN      WN  550   3.083   4.904   0.008
  545WN      WN  551   1.292   3.999   2.364
  546WN      WN  552   3.521   3.761   1.661
  547WN      WN  553   0.395   4.666   0.308
  548WN      WN  554   1.846   4.606   0.748
  549WN      WN  555   2.906   4.857   3.118
  550WN      WN  556   0.422   3.738   1.552
  551WN      WN  557   2.190   4.085   2.113
  552WN      WN  558   1.838   4.270   3.276
  553WN      WN  559   2.193   4.419   0.454
  554WN      WN  560   2.343   3.893   3.247
  555WN      WN  561   2.792   4.361   2.965
  556WN      WN  562   2.592   4.299   1.235
  557WN      WN  563   1.383   4.726   0.611
  558WN      WN  564   0.952   4.010   3.275
  559WN      WN  565   3.004   4.494   0.956
  560WN      WN  566   1.040   3.729   0.607
  561WN      WN  567   3.361   4.263   1.642
  562WN      WN  568   2.335   4.302   0.019
  563WN      WN  569   3.508   3.828   2.489
  564WN      WN  570   2.120   3.650   1.795
  565WN      WN  571   0.732   4.553   1.858
  566WN      WN  572   3.339   4.543   2.210
  567WN      WN  573   3.606   3.943   2.984
  568WN      WN  574   1.972   4.664   2.023
  569WN      WN  575   2.824   4.962   0.861
  570WN      WN  576   3.111   4.695   0.503
  571WN      WN  577   0.339   4.430   2.143
  572WN      WN  578   2.399   4.407   2.606
  573WN      WN  579   3.303   4.069   1.133
  574WN      WN  580   0.077   4.709   2.472
  575WN      WN  581   2.937   4.504   1.490
  576WN      WN  582   3.348   4.655   3.267
  577WN      WN  583   0.604   4.125   0.356
  578WN      WN  584   1.708   3.779   2.166
  579WN      WN  585   1.594   4.352   1.068
  580WN      WN  586   2.950   3.949   1.496
  581WN      WN  587   0.942   4.142   1.020
  582WN      WN  588   0.947   4.370   0.045
  583WN      WN  589   2.596   3.845   2.309
  584WN      WN  590   0.988   3.821   0.122
  585WN      WN  591   2.696   3.878   2.872
  586WN      WN  592   1.989   3.842   3.596
  587WN      WN  593   1.211   4.458   1.989
  588WN      WN  594   0.637   4.414   1.387
  589WN      WN  595   2.097   4.194   1.561
  590WN      WN  596   3.576   4.472   0.829
  591WN      WN  597   1.953   4.403   2.430
  592WN      WN  598   1.039   4.652   0.996
  593WN      WN  599   1.871   4.562   0.048
  594WN      WN  600   2.808   4.033   0.843
  595WN      WN  601   0.138   3.881   0.291
  596WN      WN  602   1.414   3.939   3.467
  597WN      WN  603   2.123   4.081   2.823
  598WN      WN  604   1.318   3.849   1.104
  599WN      WN  605   2.377   3.926   0.609
  600WN      WN  606   0.322   3.858   2.186
  601WN      WN  607   3.059   3.929   1.962
  602WN      WN  608   0.481   4.427   0.776
  603WN      WN  609   3.052   4.115   2.392
  604WN      WN  610   0.740   4.076   1.896
  605WN      WN  611   1.854   4.648   2.836
  606WN      WN  612   0.002   4.338   0.314
  607WN      WN  613   3.174   3.753   2.860
  608WN      WN  614   3.610   4.074   3.465
  609WN      WN  615   1.491   3.761   0.290
  610WN      WN  616   0.799   4.453   3.119
  611WN      WN  617   3.359   4.438   2.779
  612WN      WN  618   1.059   4.132   2.781
  613WN      WN  619   0.554   4.504   2.720
  614WN      WN  620   1.855   3.759   3.084
  615WN      WN  621   0.910   4.494   2.379
  616WN      WN  622   0.880   3.842   1.489
  617WN      WN  623   2.501   4.684   2.181
  618WN      WN  624   1.110   4.257   1.545
  619WN      WN  625   3.238   4.225   0.581
  620WN      WN  626   1.377   3.744   2.984
  621WN      WN  627   1.229   4.775   1.563
  622WN      WN  628   1.235   4.644   2.862
  623WN      WN  629   3.537   4.910   0.419
  624WN      WN  630   2.272   4.977   2.515
  625WN      WN  631   2.833   3.871   3.367
  626WN      WN  632   0.497   4.021   2.954
  627WN      WN  633   1.416   4.351   0.222
  628WN      WN  634   3.212   4.161   3.234
  629WN      WN  635   3.212   3.758   0.670
  630WN      WN  636   2.821   4.095   0.289
  631WN      WN  637   2.886   4.702   2.475
  632WN      WN  638   1.675   4.233   1.992
  633WN      WN  639   3.555   4.131   2.064
  634WN      WN  640   0.518   3.765   3.529
  635WN      WN  641   1.713   3.716   0.830
  636WN      WN  642   2.426   4.585   1.689
  637WN      WN  643   1.365   4.134   0.662
  638WN      WN  644   2.163   4.599   1.225
  639WN      WN  645   0.964   4.394   0.519
  640WN      WN  646   2.481   4.536   0.844
  641WN      WN  647   1.567   4.060   1.508
  642WN      WN  648   1.633   4.186   2.791
  643WN      WN  649   3.305   3.895   0.218
  644WN      WN  650   1.913   3.747   1.357
  645WN      WN  651   1.471   4.472   2.419
  646WN      WN  652   1.171   3.841   1.888
  647WN      WN  653   0.287   4.188   1.728
  648WN      WN  654   0.087   4.007   0.805
  649WN      WN  655   2.628   4.599   0.304
  650WN      WN  656   2.500   3.762   0.124
  651WN      WN  657   2.497   4.780   3.500
  652WN      WN  658   0.480   4.310   3.499
  653WN      WN  659   0.211   4.910   0.832
  654WN      WN  660   2.482   3.793   1.203
  655WN      WN  661   1.892   4.040   0.419
  656WN      WN  662   3.573   3.668   1.141
  657WN      WN  663   3.427   4.640   1.294
  658WN      WN  664   1.324   4.386   3.292
  659WN      WN  665   1.144   4.970   2.533
  660WN      WN  666   2.336   4.415   3.187
  661WN      WN  667   0.180   4.886   2.964
  662WN      WN  668   2.429   4.823   2.951
  663WN      WN  669   1.639   4.754   3.319
  664WN      WN  670   0.484   4.019   4.811
  665WN      WN  671   3.172   4.413   3.762
  666WN      WN  672   2.078   4.111   4.647
  667WN      WN  673   3.083   4.904   3.652
  668WN      WN  674   0.395   4.666   3.952
  669WN      WN  675   1.846   4.606   4.392
  670WN      WN  676   2.193   4.419   4.098
  671WN      WN  677   1.383   4.726   4.255
  672WN      WN  678   3.004   4.494   4.600
  673WN      WN  679   1.040   3.729   4.251
  674WN      WN  680   2.335   4.302   3.663
  675WN      WN  681   2.824   4.962   4.505
  676WN      WN  682   3.111   4.695   4.147
  677WN      WN  683   3.303   4.069   4.777
  678WN      WN  684   0.604   4.125   4.000
  679WN      WN  685   1.594   4.352   4.712
  680WN      WN  686   0.942   4.142   4.664
  681WN      WN  687   0.947   4.370   3.689
  682WN      WN  688   0.988   3.821   3.766
  683WN      WN  689   3.576   4.472   4.473
  684WN      WN  690   1.039   4.652   4.640
  685WN      WN  691   1.871   4.562   3.692
  686WN      WN  692   2.808   4.033   4.487
  687WN      WN  693   0.138   3.881   3.935
  688WN      WN  694   1.318   3.849   4.748
  689WN      WN  695   2.377   3.926   4.253
  690WN      WN  696   0.481   4.427   4.420
  691WN      WN  697   0.002   4.338   3.958
  692WN      WN  698   1.491   3.761   3.934
  693WN      WN  699   3.238   4.225   4.225
  694WN      WN  700   1.229   4.775   5.207
  695WN      WN  701   3.537   4.910   4.063
  696WN      WN  702   1.416   4.351   3.866
  697WN      WN  703   3.212   3.758   4.314
  698WN      WN  704   2.821   4.095   3.933
  699WN      WN  705   1.713   3.716   4.474
  700WN      WN  706   1.365   4.134   4.306
  701WN      WN  707   0.964   4.394   4.163
  702WN      WN  708   2.481   4.536   4.488
  703WN      WN  709   3.305   3.895   3.862
  704WN      WN  710   0.087   4.007   4.449
  705WN      WN  711   2.628   4.599   3.948
  706WN      WN  712   2.500   3.762   3.768
  707WN      WN  713   0.211   4.910   4.476
  708WN      WN  714   1.892   4.040   4.063
  709WN      WN  715   3.573   3.668   4.785
  710WN      WN  716   3.728   3.595   3.359
  711WN      WN  717   4.104   2.488   2.882
  712WN      WN  718   4.455   1.294   1.352
  713WN      WN  719   3.770   0.762   3.104
  714WN      WN  720   4.532   0.042   2.906
  715WN      WN  721   3.811   0.527   2.579
  716WN      WN  722   3.910   3.146   3.600
  717WN      WN  723   3.864   1.319   2.025
  718WN      WN  724   4.757   1.210   3.262
  719WN      WN  725   4.334   2.218   2.248
  720WN      WN  726   3.693   1.746   1.819
  721WN      WN  727   4.729   1.718   3.011
  722WN      WN  728   4.616   2.945   1.710
  723WN      WN  729   3.715   1.258   3.570
  724WN      WN  730   4.128   0.375   1.167
  725WN      WN  731   4.655   2.633   2.166
  726WN      WN  732   4.151   3.529   0.369
  727WN      WN  733   4.544   3.575   1.045
  728WN      WN  734   4.341   0.329   2.471
  729WN      WN  735   4.379   3.161   0.686
  730WN      WN  736   3.750   0.660   1.285
  731WN      WN  737   3.994   2.884   1.674
  732WN      WN  738   3.750   3.018   2.172
  733WN      WN  739   4.541   2.590   2.652
  734WN      WN  740   4.384   1.989   0.129
  735WN      WN  741   4.039   1.022   0.308
  736WN      WN  742   4.101   2.978   1.102
  737WN      WN  743   3.656   1.712   0.942
  738WN      WN  744   4.191   1.301   2.471
  739WN      WN  745   4.176   1.177   3.393
  740WN      WN  746   4.066   0.094   1.552
  741WN      WN  747   4.369   3.365   1.625
  742WN      WN  748   4.596   0.366   3.275
  743WN      WN  749   4.684   0.085   0.607
  744WN      WN  750   4.062   2.071   1.789
  745WN      WN  751   4.376   0.909   1.858
  746WN      WN  752   3.930   2.109   2.632
  747WN      WN  753   3.983   0.786   2.143
  748WN      WN  754   3.721   1.065   2.472
  749WN      WN  755   4.248   0.481   0.356
  750WN      WN  756   4.380   3.255   0.014
  751WN      WN  757   4.586   0.498   1.020
  752WN      WN  758   4.591   0.726   0.045
  753WN      WN  759   3.660   2.044   2.194
  754WN      WN  760   4.632   0.177   0.122
  755WN      WN  761   4.928   2.246   2.981
  756WN      WN  762   4.855   0.814   1.989
  757WN      WN  763   4.281   0.770   1.387
  758WN      WN  764   4.067   3.482   1.063
  759WN      WN  765   4.434   2.297   0.547
  760WN      WN  766   3.714   3.417   2.860
  761WN      WN  767   4.131   2.643   2.392
  762WN      WN  768   3.698   3.489   0.624
  763WN      WN  769   4.683   1.008   0.996
  764WN      WN  770   3.782   0.237   0.291
  765WN      WN  771   5.068   2.556   2.581
  766WN      WN  772   4.867   2.472   1.673
  767WN      WN  773   4.609   2.424   0.071
  768WN      WN  774   3.850   2.665   0.839
  769WN      WN  775   4.354   1.735   3.281
  770WN      WN  776   3.966   0.214   2.186
  771WN      WN  777   4.014   1.177   1.556
  772WN      WN  778   4.125   0.783   0.776
  773WN      WN  779   4.384   0.432   1.896
  774WN      WN  780   3.646   0.694   0.314
  775WN      WN  781   4.432   2.083   2.875
  776WN      WN  782   3.803   2.067   0.047
  777WN      WN  783   4.538   2.478   3.173
  778WN      WN  784   4.059   1.645   2.804
  779WN      WN  785   5.050   1.750   2.598
  780WN      WN  786   4.048   2.508   3.513
  781WN      WN  787   4.443   0.809   3.119
  782WN      WN  788   4.703   0.488   2.781
  783WN      WN  789   4.675   2.736   0.732
  784WN      WN  790   4.198   0.860   2.720
  785WN      WN  791   3.811   2.858   3.141
  786WN      WN  792   4.554   0.850   2.379
  787WN      WN  793   4.524   0.198   1.489
  788WN      WN  794   4.268   2.911   3.303
  789WN      WN  795   4.754   0.613   1.545
  790WN      WN  796   4.523   2.106   1.635
  791WN      WN  797   4.836   3.517   2.385
  792WN      WN  798   3.911   1.599   0.265
  793WN      WN  799   4.873   1.131   1.563
  794WN      WN  800   4.175   3.425   3.112
  795WN      WN  801   4.287   2.786   0.242
  796WN      WN  802   4.408   1.336   2.938
  797WN      WN  803   4.926   2.323   0.890
  798WN      WN  804   4.476   1.705   2.544
  799WN      WN  805   4.141   0.377   2.954
  800WN      WN  806   4.480   1.400   2.007
  801WN      WN  807   4.849   1.214   0.129
  802WN      WN  808   3.652   2.973   2.674
  803WN      WN  809   4.195   1.523   1.003
  804WN      WN  810   3.966   3.375   2.440
  805WN      WN  811   3.890   1.650   3.374
  806WN      WN  812   4.239   1.651   1.682
  807WN      WN  813   4.533   2.590   1.331
  808WN      WN  814   3.738   3.317   1.440
  809WN      WN  815   4.247   2.504   0.976
  810WN      WN  816   4.162   0.121   3.529
  811WN      WN  817   3.756   2.528   2.021
  812WN      WN  818   4.166   2.970   2.782
  813WN      WN  819   4.757   2.953   3.505
  814WN      WN  820   4.608   0.750   0.519
  815WN      WN  821   4.423   3.290   2.545
  816WN      WN  822   4.031   2.079   3.142
  817WN      WN  823   4.462   1.990   1.072
  818WN      WN  824   3.822   2.400   0.438
  819WN      WN  825   3.987   1.900   1.327
  820WN      WN  826   4.401   3.602   2.080
  821WN      WN  827   4.616   3.087   1.194
  822WN      WN  828   4.815   0.197   1.888
  823WN      WN  829   3.878   3.019   0.436
  824WN      WN  830   4.569   3.178   3.033
  825WN      WN  831   4.046   2.001   0.729
  826WN      WN  832   3.931   0.544   1.728
  827WN      WN  833   3.731   0.363   0.805
  828WN      WN  834   3.944   3.378   1.865
  829WN      WN  835   4.124   0.666   3.499
  830WN      WN  836   3.855   1.266   0.832
  831WN      WN  837   4.546   1.255   0.557
  832WN      WN  838   4.652   1.863   2.083
  833WN      WN  839   3.824   1.242   2.964
  834WN      WN  840   3.941   2.477   1.347
  835WN      WN  841   4.088   1.774   2.237
  836WN      WN  842   4.837   3.308   1.948
  837WN      WN  843   4.297   2.504   1.843
  838WN      WN  844   4.262   3.058   2.109
  839WN      WN  845   4.389   1.509   0.104
  840WN      WN  846   4.857   3.294   3.849
  841WN      WN  847   4.128   0.375   4.811
  842WN      WN  848   4.151   3.529   4.013
  843WN      WN  849   4.544   3.575   4.689
  844WN      WN  850   4.379   3.161   4.330
  845WN      WN  851   4.384   1.989   3.773
  846WN      WN  852   4.039   1.022   3.952
  847WN      WN  853   4.101   2.978   4.746
  848WN      WN  854   3.656   1.712   4.586
  849WN      WN  855   4.684   0.085   4.251
  850WN      WN  856   4.248   0.481   4.000
  851WN      WN  857   4.380   3.255   3.658
  852WN      WN  858   4.586   0.498   4.664
  853WN      WN  859   4.591   0.726   3.689
  854WN      WN  860   4.632   0.177   3.766
  855WN      WN  861   4.067   3.482   4.707
  856WN      WN  862   4.434   2.297   4.191
  857WN      WN  863   3.698   3.489   4.268
  858WN      WN  864   4.683   1.008   4.640
  859WN      WN  865   3.782   0.237   3.935
  860WN      WN  866   4.609   2.424   3.715
  861WN      WN  867   3.850   2.665   4.483
  862WN      WN  868   4.125   0.783   4.420
  863WN      WN  869   3.646   0.694   3.958
  864WN      WN  870   3.803   2.067   3.691
  865WN      WN  871   4.675   2.736   4.376
  866WN      WN  872   3.911   1.599   3.909
  867WN      WN  873   4.287   2.786   3.886
  868WN      WN  874   4.926   2.323   4.534
  869WN      WN  875   4.195   1.523   4.647
  870WN      WN  876   4.247   2.504   4.620
  871WN      WN  877   4.608   0.750   4.163
  872WN      WN  878   4.768   1.592   5.324
  873WN      WN  879   4.462   1.990   4.716
  874WN      WN  880   3.822   2.400   4.082
  875WN      WN  881   3.878   3.019   4.080
  876WN      WN  882   4.046   2.001   4.373
  877WN      WN  883   3.731   0.363   4.449
  878WN      WN  884   3.855   1.266   4.476
  879WN      WN  885   4.546   1.255   4.201
  880WN      WN  886   3.941   2.477   4.991
  881WN      WN  887   4.389   1.509   3.748
  882WN      WN  888   4.940   5.090   1.188
  883WN      WN  889   3.770   4.406   3.104
  884WN      WN  890   4.532   3.686   2.906
  885WN      WN  891   3.811   4.171   2.579
  886WN      WN  892   4.757   4.854   3.262
  887WN      WN  893   3.715   4.902   3.570
  888WN      WN  894   4.128   4.019   1.167
  889WN      WN  895   4.341   3.973   2.471
  890WN      WN  896   3.750   4.304   1.285
  891WN      WN  897   4.039   4.666   0.308
  892WN      WN  898   4.066   3.738   1.552
  893WN      WN  899   4.596   4.010   3.275
  894WN      WN  900   4.684   3.729   0.607
  895WN      WN  901   4.376   4.553   1.858
  896WN      WN  902   3.983   4.430   2.143
  897WN      WN  903   3.721   4.709   2.472
  898WN      WN  904   4.248   4.125   0.356
  899WN      WN  905   4.586   4.142   1.020
  900WN      WN  906   4.591   4.370   0.045
  901WN      WN  907   4.632   3.821   0.122
  902WN      WN  908   4.855   4.458   1.989
  903WN      WN  909   4.281   4.414   1.387
  904WN      WN  910   4.683   4.652   0.996
  905WN      WN  911   3.782   3.881   0.291
  906WN      WN  912   3.966   3.858   2.186
  907WN      WN  913   4.125   4.427   0.776
  908WN      WN  914   4.384   4.076   1.896
  909WN      WN  915   3.646   4.338   0.314
  910WN      WN  916   4.443   4.453   3.119
  911WN      WN  917   4.703   4.132   2.781
  912WN      WN  918   4.198   4.504   2.720
  913WN      WN  919   4.554   4.494   2.379
  914WN      WN  920   4.524   3.842   1.489
  915WN      WN  921   4.754   4.257   1.545
  916WN      WN  922   4.873   4.775   1.563
  917WN      WN  923   4.141   4.021   2.954
  918WN      WN  924   4.162   3.765   3.529
  919WN      WN  925   4.608   4.394   0.519
  920WN      WN  926   4.815   3.841   1.888
  921WN      WN  927   3.931   4.188   1.728
  922WN      WN  928   3.731   4.007   0.805
  923WN      WN  929   4.124   4.310   3.499
  924WN      WN  930   3.855   4.910   0.832
  925WN      WN  931   3.824   4.886   2.964
  926WN      WN  932   4.940   5.090   4.832
  927WN      WN  933   4.128   4.019   4.811
  928WN      WN  934   4.039   4.666   3.952
  929WN      WN  935   4.684   3.729   4.251
  930WN      WN  936   4.248   4.125   4.000
  931WN      WN  937   4.586   4.142   4.664
  932WN      WN  938   4.591   4.370   3.689
  933WN      WN  939   4.632   3.821   3.766
  934WN      WN  940   4.683   4.652   4.640
  935WN      WN  941   3.782   3.881   3.935
  936WN      WN  942   4.125   4.427   4.420
  937WN      WN  943   3.646   4.338   3.958
  938WN      WN  944   4.873   4.775   5.207
  939WN      WN  945   4.608   4.394   4.163
  940WN      WN  946   3.731   4.007   4.449
  941WN      WN  947   3.855   4.910   4.476
   5.00000   5.00000   5.00000
