frame t= 0.000
  948
    1GEN    PA1    1   1.811   2.772   3.586
    1GEN    PA2    2   2.017   3.002   3.625
    1GEN    PA3    3   1.846   2.963   3.269
    1GEN    PA4    4   2.022   3.116   3.343
    1GEN    PA5    5   1.999   3.290   3.115
    1GEN    PA6    6   2.089   3.447   2.898
    1GEN    PA7    7   2.084   3.207   2.928
    2WN      WN    8   0.084   3.595   3.359
    3WN      WN    9   0.460   2.488   2.882
    4WN      WN   10   3.165   2.218   0.652
    5WN      WN   11   3.295   3.303   2.679
    6WN      WN   12   1.213   3.294   0.205
    7WN      WN   13   1.296   1.446   1.188
    8WN      WN   14   0.811   1.294   1.352
    9WN      WN   15   1.802   2.109   0.786
   10WN      WN   16   1.477   3.201   3.141
   11WN      WN   17   0.126   0.762   3.104
   12WN      WN   18   0.888   0.042   2.906
   13WN      WN   19   2.582   0.430   1.793
   14WN      WN   20   2.231   1.301   0.363
   15WN      WN   21   2.801   0.735   3.454
   16WN      WN   22   0.167   0.527   2.579
   17WN      WN   23   0.266   3.146   3.600
   18WN      WN   24   1.788   2.536   0.332
   19WN      WN   25   0.220   1.319   2.025
   20WN      WN   26   1.113   1.210   3.262
   21WN      WN   27   3.572   1.069   1.761
   22WN      WN   28   3.336   2.112   2.620
   23WN      WN   29   1.644   1.445   1.647
   24WN      WN   30   2.190   2.784   2.016
   25WN      WN   31   0.690   2.218   2.248
   26WN      WN   32   0.049   1.746   1.819
   27WN      WN   33   1.085   1.718   3.011
   28WN      WN   34   3.356   1.501   3.265
   29WN      WN   35   0.972   2.945   1.710
   30WN      WN   36   2.093   2.634   2.844
   31WN      WN   37   1.313   1.274   2.069
   32WN      WN   38   1.605   2.058   1.712
   33WN      WN   39   2.602   2.831   3.560
   34WN      WN   40   1.681   2.151   3.570
   35WN      WN   41   1.662   1.867   3.048
   36WN      WN   42   0.071   1.258   3.570
   37WN      WN   43   2.903   2.793   3.169
   38WN      WN   44   0.484   0.375   1.167
   39WN      WN   45   1.011   2.633   2.166
   40WN      WN   46   3.474   2.416   1.456
   41WN      WN   47   2.887   0.816   2.023
   42WN      WN   48   3.172   0.769   0.118
   43WN      WN   49   3.637   1.570   2.424
   44WN      WN   50   1.604   3.277   2.177
   45WN      WN   51   3.378   2.743   0.615
   46WN      WN   52   0.507   3.529   0.369
   47WN      WN   53   0.900   3.575   1.045
   48WN      WN   54   0.697   0.329   2.471
   49WN      WN   55   3.320   1.347   2.746
   50WN      WN   56   2.725   1.769   1.205
   51WN      WN   57   2.691   1.457   0.232
   52WN      WN   58   1.899   2.601   2.372
   53WN      WN   59   1.705   0.931   1.571
   54WN      WN   60   2.305   3.018   2.565
   55WN      WN   61   3.176   1.809   0.987
   56WN      WN   62   2.078   0.467   1.003
   57WN      WN   63   0.735   3.161   0.686
   58WN      WN   64   0.106   0.660   1.285
   59WN      WN   65   2.892   1.267   1.759
   60WN      WN   66   0.350   2.884   1.674
   61WN      WN   67   1.691   3.234   0.544
   62WN      WN   68   3.083   1.260   0.008
   63WN      WN   69   0.106   3.018   2.172
   64WN      WN   70   0.897   2.590   2.652
   65WN      WN   71   1.270   1.950   1.271
   66WN      WN   72   1.292   0.355   2.364
   67WN      WN   73   3.521   0.117   1.661
   68WN      WN   74   0.740   1.989   0.129
   69WN      WN   75   0.395   1.022   0.308
   70WN      WN   76   0.457   2.978   1.102
   71WN      WN   77   1.588   2.461   1.350
   72WN      WN   78   2.920   3.320   3.064
   73WN      WN   79   1.846   0.962   0.748
   74WN      WN   80   3.229   3.360   1.520
   75WN      WN   81   2.906   1.213   3.118
   76WN      WN   82   3.619   2.869   1.252
   77WN      WN   83   2.246   2.161   2.736
   78WN      WN   84   0.012   1.712   0.942
   79WN      WN   85   1.123   2.127   2.515
   80WN      WN   86   2.327   1.391   0.893
   81WN      WN   87   2.204   1.881   0.997
   82WN      WN   88   0.547   1.301   2.471
   83WN      WN   89   0.532   1.177   3.393
   84WN      WN   90   0.422   0.094   1.552
   85WN      WN   91   2.190   0.441   2.113
   86WN      WN   92   1.838   0.626   3.276
   87WN      WN   93   2.193   0.775   0.454
   88WN      WN   94   3.376   3.168   3.208
   89WN      WN   95   2.343   0.249   3.247
   90WN      WN   96   3.362   2.550   3.369
   91WN      WN   97   2.792   0.717   2.965
   92WN      WN   98   2.592   0.655   1.235
   93WN      WN   99   2.985   1.789   3.639
   94WN      WN  100   0.725   3.365   1.625
   95WN      WN  101   1.383   1.082   0.611
   96WN      WN  102   0.952   0.366   3.275
   97WN      WN  103   3.004   0.850   0.956
   98WN      WN  104   3.371   1.332   0.901
   99WN      WN  105   1.114   3.549   3.372
  100WN      WN  106   1.040   0.085   0.607
  101WN      WN  107   3.361   0.619   1.642
  102WN      WN  108   3.511   2.868   0.087
  103WN      WN  109   0.418   2.071   1.789
  104WN      WN  110   2.335   0.658   0.019
  105WN      WN  111   3.469   2.990   1.739
  106WN      WN  112   3.508   0.184   2.489
  107WN      WN  113   1.953   1.396   3.043
  108WN      WN  114   2.046   2.735   0.746
  109WN      WN  115   2.446   2.029   3.486
  110WN      WN  116   2.120   0.006   1.795
  111WN      WN  117   0.732   0.909   1.858
  112WN      WN  118   0.286   2.109   2.632
  113WN      WN  119   2.145   3.302   1.338
  114WN      WN  120   3.339   0.899   2.210
  115WN      WN  121   3.319   2.305   0.182
  116WN      WN  122   1.754   1.788   1.243
  117WN      WN  123   3.606   0.299   2.984
  118WN      WN  124   1.755   2.134   2.578
  119WN      WN  125   1.972   1.020   2.023
  120WN      WN  126   2.824   1.318   0.861
  121WN      WN  127   3.111   1.051   0.503
  122WN      WN  128   2.920   3.091   0.892
  123WN      WN  129   2.754   2.694   1.688
  124WN      WN  130   2.650   1.773   0.666
  125WN      WN  131   2.083   1.983   1.652
  126WN      WN  132   2.964   1.771   1.719
  127WN      WN  133   0.339   0.786   2.143
  128WN      WN  134   3.117   1.838   2.970
  129WN      WN  135   3.468   3.456   2.116
  130WN      WN  136   1.398   2.900   1.518
  131WN      WN  137   2.405   3.433   2.842
  132WN      WN  138   2.399   0.763   2.606
  133WN      WN  139   1.606   3.471   2.667
  134WN      WN  140   3.303   0.425   1.133
  135WN      WN  141   3.094   1.744   2.434
  136WN      WN  142   0.077   1.065   2.472
  137WN      WN  143   2.937   0.860   1.490
  138WN      WN  144   3.348   1.011   3.267
  139WN      WN  145   2.233   2.710   1.485
  140WN      WN  146   1.489   3.301   1.098
  141WN      WN  147   0.604   0.481   0.356
  142WN      WN  148   1.708   0.135   2.166
  143WN      WN  149   0.736   3.255   0.014
  144WN      WN  150   1.110   1.721   0.765
  145WN      WN  151   1.764   2.350   3.078
  146WN      WN  152   1.594   0.708   1.068
  147WN      WN  153   2.950   0.305   1.496
  148WN      WN  154   2.670   3.587   1.824
  149WN      WN  155   2.082   3.235   2.164
  150WN      WN  156   1.478   2.272   2.125
  151WN      WN  157   3.248   2.995   2.251
  152WN      WN  158   0.942   0.498   1.020
  153WN      WN  159   1.464   2.795   1.980
  154WN      WN  160   0.947   0.726   0.045
  155WN      WN  161   1.748   1.335   2.439
  156WN      WN  162   2.596   0.201   2.309
  157WN      WN  163   0.016   2.044   2.194
  158WN      WN  164   1.720   1.862   0.352
  159WN      WN  165   0.988   0.177   0.122
  160WN      WN  166   1.726   1.258   1.173
  161WN      WN  167   2.696   0.234   2.872
  162WN      WN  168   1.284   2.246   2.981
  163WN      WN  169   2.088   2.028   3.198
  164WN      WN  170   2.705   2.058   3.091
  165WN      WN  171   1.989   0.198   3.596
  166WN      WN  172   1.211   0.814   1.989
  167WN      WN  173   0.637   0.770   1.387
  168WN      WN  174   0.423   3.482   1.063
  169WN      WN  175   0.790   2.297   0.547
  170WN      WN  176   2.470   1.682   1.768
  171WN      WN  177   2.750   1.481   2.167
  172WN      WN  178   1.955   2.155   2.101
  173WN      WN  179   2.425   2.529   0.233
  174WN      WN  180   2.097   0.550   1.561
  175WN      WN  181   3.576   0.828   0.829
  176WN      WN  182   0.070   3.417   2.860
  177WN      WN  183   0.487   2.643   2.392
  178WN      WN  184   0.054   3.489   0.624
  179WN      WN  185   1.953   0.759   2.430
  180WN      WN  186   1.316   2.782   0.279
  181WN      WN  187   3.221   3.164   0.465
  182WN      WN  188   2.196   1.817   0.479
  183WN      WN  189   1.039   1.008   0.996
  184WN      WN  190   1.871   0.918   0.048
  185WN      WN  191   2.455   2.483   3.226
  186WN      WN  192   2.808   0.389   0.843
  187WN      WN  193   0.138   0.237   0.291
  188WN      WN  194   1.424   2.556   2.581
  189WN      WN  195   1.223   2.472   1.673
  190WN      WN  196   0.965   2.424   0.071
  191WN      WN  197   0.206   2.665   0.839
  192WN      WN  198   0.710   1.735   3.281
  193WN      WN  199   1.414   0.295   3.467
  194WN      WN  200   2.123   0.437   2.823
  195WN      WN  201   1.318   0.205   1.104
  196WN      WN  202   2.377   0.282   0.609
  197WN      WN  203   0.322   0.214   2.186
  198WN      WN  204   0.370   1.177   1.556
  199WN      WN  205   3.059   0.285   1.962
  200WN      WN  206   0.481   0.783   0.776
  201WN      WN  207   3.052   0.471   2.392
  202WN      WN  208   3.448   1.674   0.077
  203WN      WN  209   0.740   0.432   1.896
  204WN      WN  210   1.854   1.004   2.836
  205WN      WN  211   0.002   0.694   0.314
  206WN      WN  212   0.788   2.083   2.875
  207WN      WN  213   2.146   1.481   2.054
  208WN      WN  214   2.013   3.560   0.350
  209WN      WN  215   0.159   2.067   0.047
  210WN      WN  216   0.894   2.478   3.173
  211WN      WN  217   0.415   1.645   2.804
  212WN      WN  218   1.406   1.750   2.598
  213WN      WN  219   3.174   0.109   2.860
  214WN      WN  220   3.572   1.719   2.851
  215WN      WN  221   3.560   1.919   0.537
  216WN      WN  222   2.423   2.251   0.636
  217WN      WN  223   2.897   3.551   0.331
  218WN      WN  224   2.074   1.541   3.473
  219WN      WN  225   0.404   2.508   3.513
  220WN      WN  226   3.610   0.430   3.465
  221WN      WN  227   3.328   1.358   2.086
  222WN      WN  228   1.636   3.488   3.563
  223WN      WN  229   1.491   0.117   0.290
  224WN      WN  230   3.030   2.716   0.233
  225WN      WN  231   0.799   0.809   3.119
  226WN      WN  232   1.233   2.803   2.981
  227WN      WN  233   3.359   0.794   2.779
  228WN      WN  234   2.570   3.453   0.747
  229WN      WN  235   2.809   2.072   2.114
  230WN      WN  236   1.059   0.488   2.781
  231WN      WN  237   1.528   1.557   3.538
  232WN      WN  238   1.031   2.736   0.732
  233WN      WN  239   2.786   2.234   0.996
  234WN      WN  240   0.554   0.860   2.720
  235WN      WN  241   1.883   2.922   1.184
  236WN      WN  242   3.633   1.482   1.365
  237WN      WN  243   1.855   0.115   3.084
  238WN      WN  244   2.635   2.820   2.163
  239WN      WN  245   2.938   3.164   1.871
  240WN      WN  246   2.157   2.966   0.299
  241WN      WN  247   0.167   2.858   3.141
  242WN      WN  248   0.910   0.850   2.379
  243WN      WN  249   0.880   0.198   1.489
  244WN      WN  250   2.501   1.040   2.181
  245WN      WN  251   1.299   2.211   0.381
  246WN      WN  252   3.297   2.153   1.880
  247WN      WN  253   0.624   2.911   3.303
  248WN      WN  254   3.011   3.593   1.100
  249WN      WN  255   1.110   0.613   1.545
  250WN      WN  256   0.879   2.106   1.635
  251WN      WN  257   1.192   3.517   2.385
  252WN      WN  258   3.259   3.613   3.417
  253WN      WN  259   2.418   1.801   2.350
  254WN      WN  260   0.267   1.599   0.265
  255WN      WN  261   3.401   3.257   0.962
  256WN      WN  262   3.238   0.581   0.581
  257WN      WN  263   1.377   0.100   2.984
  258WN      WN  264   3.083   2.902   1.442
  259WN      WN  265   3.112   1.458   1.347
  260WN      WN  266   1.229   1.131   1.563
  261WN      WN  267   1.474   1.393   2.887
  262WN      WN  268   2.585   2.546   2.750
  263WN      WN  269   1.235   1.000   2.862
  264WN      WN  270   1.214   3.466   1.478
  265WN      WN  271   0.531   3.425   3.112
  266WN      WN  272   0.643   2.786   0.242
  267WN      WN  273   3.160   2.544   1.052
  268WN      WN  274   0.764   1.336   2.938
  269WN      WN  275   3.537   1.266   0.419
  270WN      WN  276   1.282   2.323   0.890
  271WN      WN  277   2.381   1.705   2.971
  272WN      WN  278   2.272   1.333   2.515
  273WN      WN  279   0.832   1.705   2.544
  274WN      WN  280   3.042   3.593   2.373
  275WN      WN  281   2.833   0.227   3.367
  276WN      WN  282   0.497   0.377   2.954
  277WN      WN  283   0.836   1.400   2.007
  278WN      WN  284   1.205   1.214   0.129
  279WN      WN  285   0.008   2.973   2.674
  280WN      WN  286   1.593   1.682   2.117
  281WN      WN  287   1.416   0.707   0.222
  282WN      WN  288   0.551   1.523   1.003
  283WN      WN  289   0.322   3.375   2.440
  284WN      WN  290   3.117   1.601   0.548
  285WN      WN  291   3.212   0.517   3.234
  286WN      WN  292   2.648   2.726   1.197
  287WN      WN  293   0.246   1.650   3.374
  288WN      WN  294   3.212   0.114   0.670
  289WN      WN  295   2.732   2.589   0.681
  290WN      WN  296   1.634   1.647   0.766
  291WN      WN  297   2.821   0.451   0.289
  292WN      WN  298   2.886   1.058   2.475
  293WN      WN  299   0.595   1.651   1.682
  294WN      WN  300   0.889   2.590   1.331
  295WN      WN  301   2.652   1.210   1.296
  296WN      WN  302   1.675   0.589   1.992
  297WN      WN  303   3.637   2.500   2.503
  298WN      WN  304   3.555   0.487   2.064
  299WN      WN  305   0.094   3.317   1.440
  300WN      WN  306   0.603   2.504   0.976
  301WN      WN  307   0.518   0.121   3.529
  302WN      WN  308   3.392   1.942   1.421
  303WN      WN  309   2.746   2.119   0.301
  304WN      WN  310   2.041   3.640   2.513
  305WN      WN  311   2.898   2.362   3.550
  306WN      WN  312   1.713   0.072   0.830
  307WN      WN  313   2.426   0.941   1.689
  308WN      WN  314   0.112   2.528   2.021
  309WN      WN  315   1.365   0.490   0.662
  310WN      WN  316   1.169   1.974   3.511
  311WN      WN  317   2.163   0.955   1.225
  312WN      WN  318   2.368   2.365   2.347
  313WN      WN  319   0.522   2.970   2.782
  314WN      WN  320   1.113   2.953   3.505
  315WN      WN  321   0.964   0.750   0.519
  316WN      WN  322   2.481   0.892   0.844
  317WN      WN  323   2.439   3.000   3.081
  318WN      WN  324   1.124   1.592   1.680
  319WN      WN  325   0.779   3.290   2.545
  320WN      WN  326   3.524   3.407   0.146
  321WN      WN  327   0.387   2.079   3.142
  322WN      WN  328   2.382   2.341   1.830
  323WN      WN  329   0.818   1.990   1.072
  324WN      WN  330   1.189   2.997   2.467
  325WN      WN  331   1.567   0.416   1.508
  326WN      WN  332   0.178   2.400   0.438
  327WN      WN  333   1.697   1.351   0.308
  328WN      WN  334   0.343   1.900   1.327
  329WN      WN  335   1.633   0.542   2.791
  330WN      WN  336   3.305   0.251   0.218
  331WN      WN  337   3.398   1.997   3.317
  332WN      WN  338   3.610   2.348   2.991
  333WN      WN  339   3.018   3.146   3.602
  334WN      WN  340   0.757   3.602   2.080
  335WN      WN  341   3.616   2.224   0.954
  336WN      WN  342   2.146   1.491   1.467
  337WN      WN  343   1.913   0.103   1.357
  338WN      WN  344   0.972   3.087   1.194
  339WN      WN  345   1.471   0.828   2.419
  340WN      WN  346   1.171   0.197   1.888
  341WN      WN  347   0.234   3.019   0.436
  342WN      WN  348   2.050   2.383   1.154
  343WN      WN  349   0.925   3.178   3.033
  344WN      WN  350   0.402   2.001   0.729
  345WN      WN  351   0.287   0.544   1.728
  346WN      WN  352   1.835   2.509   1.785
  347WN      WN  353   0.087   0.363   0.805
  348WN      WN  354   2.751   1.569   2.732
  349WN      WN  355   2.628   0.955   0.304
  350WN      WN  356   3.145   2.627   1.952
  351WN      WN  357   1.806   3.111   1.783
  352WN      WN  358   1.218   3.215   0.694
  353WN      WN  359   2.500   0.118   0.124
  354WN      WN  360   0.300   3.378   1.865
  355WN      WN  361   2.497   1.136   3.500
  356WN      WN  362   0.480   0.666   3.499
  357WN      WN  363   0.211   1.266   0.832
  358WN      WN  364   0.902   1.255   0.557
  359WN      WN  365   2.665   1.582   3.374
  360WN      WN  366   1.008   1.863   2.083
  361WN      WN  367   2.482   0.149   1.203
  362WN      WN  368   1.613   3.580   1.706
  363WN      WN  369   2.827   3.042   2.643
  364WN      WN  370   2.411   3.191   1.754
  365WN      WN  371   2.430   2.171   1.348
  366WN      WN  372   1.892   0.396   0.419
  367WN      WN  373   3.573   0.024   1.141
  368WN      WN  374   1.261   1.659   0.304
  369WN      WN  375   3.427   0.996   1.294
  370WN      WN  376   2.119   2.166   0.171
  371WN      WN  377   3.055   2.366   2.919
  372WN      WN  378   2.709   3.067   0.386
  373WN      WN  379   1.324   0.742   3.292
  374WN      WN  380   1.144   1.326   2.533
  375WN      WN  381   3.236   2.821   2.810
  376WN      WN  382   2.336   0.771   3.187
  377WN      WN  383   0.180   1.242   2.964
  378WN      WN  384   1.940   1.719   2.690
  379WN      WN  385   0.297   2.477   1.347
  380WN      WN  386   0.444   1.774   2.237
  381WN      WN  387   2.761   2.060   2.587
  382WN      WN  388   2.533   3.440   3.398
  383WN      WN  389   2.429   1.179   2.951
  384WN      WN  390   2.706   3.233   1.356
  385WN      WN  391   1.708   2.953   2.679
  386WN      WN  392   1.193   3.308   1.948
  387WN      WN  393   2.998   2.479   2.367
  388WN      WN  394   2.048   2.551   3.504
  389WN      WN  395   0.653   2.504   1.843
  390WN      WN  396   2.999   2.263   1.488
  391WN      WN  397   2.640   3.329   2.239
  392WN      WN  398   0.618   3.058   2.109
  393WN      WN  399   1.639   1.110   3.319
  394WN      WN  400   2.090   3.276   0.830
  395WN      WN  401   1.398   2.531   3.468
  396WN      WN  402   1.524   2.769   0.845
  397WN      WN  403   0.745   1.509   0.104
  398WN      WN  404   3.165   2.218   4.296
  399WN      WN  405   1.213   3.294   3.849
  400WN      WN  406   1.802   2.109   4.430
  401WN      WN  407   2.231   1.301   4.007
  402WN      WN  408   1.788   2.536   3.976
  403WN      WN  409   0.484   0.375   4.811
  404WN      WN  410   3.172   0.769   3.762
  405WN      WN  411   3.378   2.743   4.259
  406WN      WN  412   0.507   3.529   4.013
  407WN      WN  413   0.900   3.575   4.689
  408WN      WN  414   2.725   1.769   4.849
  409WN      WN  415   2.691   1.457   3.876
  410WN      WN  416   3.176   1.809   4.631
  411WN      WN  417   2.078   0.467   4.647
  412WN      WN  418   0.735   3.161   4.330
  413WN      WN  419   1.691   3.234   4.188
  414WN      WN  420   3.083   1.260   3.652
  415WN      WN  421   1.270   1.950   4.915
  416WN      WN  422   0.740   1.989   3.773
  417WN      WN  423   0.395   1.022   3.952
  418WN      WN  424   0.457   2.978   4.746
  419WN      WN  425   1.846   0.962   4.392
  420WN      WN  426   0.012   1.712   4.586
  421WN      WN  427   2.327   1.391   4.537
  422WN      WN  428   2.204   1.881   4.641
  423WN      WN  429   2.193   0.775   4.098
  424WN      WN  430   1.383   1.082   4.255
  425WN      WN  431   3.004   0.850   4.600
  426WN      WN  432   3.371   1.332   4.545
  427WN      WN  433   1.040   0.085   4.251
  428WN      WN  434   3.511   2.868   3.731
  429WN      WN  435   2.335   0.658   3.663
  430WN      WN  436   2.046   2.735   4.390
  431WN      WN  437   2.145   3.302   4.982
  432WN      WN  438   3.319   2.305   3.826
  433WN      WN  439   1.754   1.788   4.887
  434WN      WN  440   2.824   1.318   4.505
  435WN      WN  441   3.111   1.051   4.147
  436WN      WN  442   2.920   3.091   4.536
  437WN      WN  443   2.650   1.773   4.310
  438WN      WN  444   3.303   0.425   4.777
  439WN      WN  445   1.489   3.301   4.742
  440WN      WN  446   0.604   0.481   4.000
  441WN      WN  447   0.736   3.255   3.658
  442WN      WN  448   1.110   1.721   4.409
  443WN      WN  449   1.594   0.708   4.712
  444WN      WN  450   0.942   0.498   4.664
  445WN      WN  451   0.947   0.726   3.689
  446WN      WN  452   1.720   1.862   3.996
  447WN      WN  453   0.988   0.177   3.766
  448WN      WN  454   1.726   1.258   4.817
  449WN      WN  455   0.423   3.482   4.707
  450WN      WN  456   0.790   2.297   4.191
  451WN      WN  457   2.425   2.529   3.877
  452WN      WN  458   3.576   0.828   4.473
  453WN      WN  459   0.054   3.489   4.268
  454WN      WN  460   1.316   2.782   3.923
  455WN      WN  461   3.221   3.164   4.109
  456WN      WN  462   2.196   1.817   4.123
  457WN      WN  463   1.039   1.008   4.640
  458WN      WN  464   1.871   0.918   3.692
  459WN      WN  465   2.808   0.389   4.487
  460WN      WN  466   0.138   0.237   3.935
  461WN      WN  467   0.965   2.424   3.715
  462WN      WN  468   0.206   2.665   4.483
  463WN      WN  469   1.318   0.205   4.748
  464WN      WN  470   2.377   0.282   4.253
  465WN      WN  471   0.481   0.783   4.420
  466WN      WN  472   3.448   1.674   3.721
  467WN      WN  473   0.002   0.694   3.958
  468WN      WN  474   2.013   3.560   3.994
  469WN      WN  475   0.159   2.067   3.691
  470WN      WN  476   3.560   1.919   4.181
  471WN      WN  477   2.423   2.251   4.280
  472WN      WN  478   2.897   3.551   3.975
  473WN      WN  479   1.491   0.117   3.934
  474WN      WN  480   3.030   2.716   3.877
  475WN      WN  481   2.570   3.453   4.391
  476WN      WN  482   1.031   2.736   4.376
  477WN      WN  483   2.786   2.234   4.640
  478WN      WN  484   1.883   2.922   4.828
  479WN      WN  485   2.157   2.966   3.943
  480WN      WN  486   1.299   2.211   4.025
  481WN      WN  487   3.011   3.593   4.744
  482WN      WN  488   0.267   1.599   3.909
  483WN      WN  489   3.401   3.257   4.606
  484WN      WN  490   3.238   0.581   4.225
  485WN      WN  491   0.643   2.786   3.886
  486WN      WN  492   3.160   2.544   4.696
  487WN      WN  493   3.537   1.266   4.063
  488WN      WN  494   1.282   2.323   4.534
  489WN      WN  495   1.205   1.214   3.773
  490WN      WN  496   1.416   0.707   3.866
  491WN      WN  497   0.551   1.523   4.647
  492WN      WN  498   3.117   1.601   4.192
  493WN      WN  499   2.648   2.726   4.841
  494WN      WN  500   3.212   0.114   4.314
  495WN      WN  501   2.732   2.589   4.325
  496WN      WN  502   1.634   1.647   4.410
  497WN      WN  503   2.821   0.451   3.933
  498WN      WN  504   0.094   3.317   5.084
  499WN      WN  505   0.603   2.504   4.620
  500WN      WN  506   2.746   2.119   3.945
  501WN      WN  507   1.713   0.072   4.474
  502WN      WN  508   1.365   0.490   4.306
  503WN      WN  509   0.964   0.750   4.163
  504WN      WN  510   2.481   0.892   4.488
  505WN      WN  511   3.524   3.407   3.790
  506WN      WN  512   0.818   1.990   4.716
  507WN      WN  513   0.178   2.400   4.082
  508WN      WN  514   1.697   1.351   3.952
  509WN      WN  515   3.305   0.251   3.862
  510WN      WN  516   3.616   2.224   4.598
  511WN      WN  517   1.913   0.103   5.001
  512WN      WN  518   0.234   3.019   4.080
  513WN      WN  519   2.050   2.383   4.798
  514WN      WN  520   0.402   2.001   4.373
  515WN      WN  521   0.087   0.363   4.449
  516WN      WN  522   2.628   0.955   3.948
  517WN      WN  523   1.218   3.215   4.338
  518WN      WN  524   2.500   0.118   3.768
  519WN      WN  525   0.211   1.266   4.476
  520WN      WN  526   0.902   1.255   4.201
  521WN      WN  527   1.892   0.396   4.063
  522WN      WN  528   3.573   0.024   4.785
  523WN      WN  529   1.261   1.659   3.948
  524WN      WN  530   2.119   2.166   3.815
  525WN      WN  531   2.709   3.067   4.030
  526WN      WN  532   0.297   2.477   4.991
  527WN      WN  533   2.090   3.276   4.474
  528WN      WN  534   1.524   2.769   4.489
  529WN      WN  535   0.745   1.509   3.748
  530WN      WN  536   0.126   4.406   3.104
  531WN      WN  537   0.888   3.686   2.906
  532WN      WN  538   2.582   4.074   1.793
  533WN      WN  539   2.801   4.379   3.454
  534WN      WN  540   0.167   4.171   2.579
  535WN      WN  541   1.113   4.854   3.262
  536WN      WN  542   0.071   4.902   3.570
  537WN      WN  543   0.484   4.019   1.167
  538WN      WN  544   2.887   4.460   2.023
  539WN      WN  545   3.172   4.413   0.118
  540WN      WN  546   0.697   3.973   2.471
  541WN      WN  547   1.705   4.575   1.571
  542WN      WN  548   2.078   4.111   1.003
  543WN      WN  549   0.106   4.304   1.285
  544WN      WN  550   2.892   4.911   1.759
  545WN      WN  551   3.083   4.904   0.008
  546WN      WN  552   1.292   3.999   2.364
  547WN      WN  553   3.521   3.761   1.661
  548WN      WN  554   0.395   4.666   0.308
  549WN      WN  555   1.846   4.606   0.748
  550WN      WN  556   2.906   4.857   3.118
  551WN      WN  557   0.422   3.738   1.552
  552WN      WN  558   2.190   4.085   2.113
  553WN      WN  559   1.838   4.270   3.276
  554WN      WN  560   2.193   4.419   0.454
  555WN      WN  561   2.343   3.893   3.247
  556WN      WN  562   2.792   4.361   2.965
  557WN      WN  563   2.592   4.299   1.235
  558WN      WN  564   1.383   4.726   0.611
  559WN      WN  565   0.952   4.010   3.275
  560WN      WN  566   3.004   4.494   0.956
  561WN      WN  567   1.040   3.729   0.607
  562WN      WN  568   3.361   4.263   1.642
  563WN      WN  569   2.335   4.302   0.019
  564WN      WN  570   3.508   3.828   2.489
  565WN      WN  571   2.120   3.650   1.795
  566WN      WN  572   0.732   4.553   1.858
  567WN      WN  573   3.339   4.543   2.210
  568WN      WN  574   3.606   3.943   2.984
  569WN      WN  575   1.972   4.664   2.023
  570WN      WN  576   2.824   4.962   0.861
  571WN      WN  577   3.111   4.695   0.503
  572WN      WN  578   0.339   4.430   2.143
  573WN      WN  579   2.399   4.407   2.606
  574WN      WN  580   3.303   4.069   1.133
  575WN      WN  581   0.077   4.709   2.472
  576WN      WN  582   2.937   4.504   1.490
  577WN      WN  583   3.348   4.655   3.267
  578WN      WN  584   0.604   4.125   0.356
  579WN      WN  585   1.708   3.779   2.166
  580WN      WN  586   1.594   4.352   1.068
  581WN      WN  587   2.950   3.949   1.496
  582WN      WN  588   0.942   4.142   1.020
  583WN      WN  589   0.947   4.370   0.045
  584WN      WN  590   2.596   3.845   2.309
  585WN      WN  591   0.988   3.821   0.122
  586WN      WN  592   2.696   3.878   2.872
  587WN      WN  593   1.989   3.842   3.596
  588WN      WN  594   1.211   4.458   1.989
  589WN      WN  595   0.637   4.414   1.387
  590WN      WN  596   2.097   4.194   1.561
  591WN      WN  597   3.576   4.472   0.829
  592WN      WN  598   1.953   4.403   2.430
  593WN      WN  599   1.039   4.652   0.996
  594WN      WN  600   1.871   4.562   0.048
  595WN      WN  601   2.808   4.033   0.843
  596WN      WN  602   0.138   3.881   0.291
  597WN      WN  603   1.414   3.939   3.467
  598WN      WN  604   2.123   4.081   2.823
  599WN      WN  605   1.318   3.849   1.104
  600WN      WN  606   2.377   3.926   0.609
  601WN      WN  607   0.322   3.858   2.186
  602WN      WN  608   3.059   3.929   1.962
  603WN      WN  609   0.481   4.427   0.776
  604WN      WN  610   3.052   4.115   2.392
  605WN      WN  611   0.740   4.076   1.896
  606WN      WN  612   1.854   4.648   2.836
  607WN      WN  613   0.002   4.338   0.314
  608WN      WN  614   3.174   3.753   2.860
  609WN      WN  615   3.610   4.074   3.465
  610WN      WN  616   1.491   3.761   0.290
  611WN      WN  617   0.799   4.453   3.119
  612WN      WN  618   3.359   4.438   2.779
  613WN      WN  619   1.059   4.132   2.781
  614WN      WN  620   0.554   4.504   2.720
  615WN      WN  621   1.855   3.759   3.084
  616WN      WN  622   0.910   4.494   2.379
  617WN      WN  623   0.880   3.842   1.489
  618WN      WN  624   2.501   4.684   2.181
  619WN      WN  625   1.110   4.257   1.545
  620WN      WN  626   3.238   4.225   0.581
  621WN      WN  627   1.377   3.744   2.984
  622WN      WN  628   1.229   4.775   1.563
  623WN      WN  629   1.235   4.644   2.862
  624WN      WN  630   3.537   4.910   0.419
  625WN      WN  631   2.272   4.977   2.515
  626WN      WN  632   2.833   3.871   3.367
  627WN      WN  633   0.497   4.021   2.954
  628WN      WN  634   1.416   4.351   0.222
  629WN      WN  635   3.212   4.161   3.234
  630WN      WN  636   3.212   3.758   0.670
  631WN      WN  637   2.821   4.095   0.289
  632WN      WN  638   2.886   4.702   2.475
  633WN      WN  639   1.675   4.233   1.992
  634WN      WN  640   3.555   4.131   2.064
  635WN      WN  641   0.518   3.765   3.529
  636WN      WN  642   1.713   3.716   0.830
  637WN      WN  643   2.426   4.585   1.689
  638WN      WN  644   1.365   4.134   0.662
  639WN      WN  645   2.163   4.599   1.225
  640WN      WN  646   0.964   4.394   0.519
  641WN      WN  647   2.481   4.536   0.844
  642WN      WN  648   1.567   4.060   1.508
  643WN      WN  649   1.633   4.186   2.791
  644WN      WN  650   3.305   3.895   0.218
  645WN      WN  651   1.913   3.747   1.357
  646WN      WN  652   1.471   4.472   2.419
  647WN      WN  653   1.171   3.841   1.888
  648WN      WN  654   0.287   4.188   1.728
  649WN      WN  655   0.087   4.007   0.805
  650WN      WN  656   2.628   4.599   0.304
  651WN      WN  657   2.500   3.762   0.124
  652WN      WN  658   2.497   4.780   3.500
  653WN      WN  659   0.480   4.310   3.499
  654WN      WN  660   0.211   4.910   0.832
  655WN      WN  661   2.482   3.793   1.203
  656WN      WN  662   1.892   4.040   0.419
  657WN      WN  663   3.573   3.668   1.141
  658WN      WN  664   3.427   4.640   1.294
  659WN      WN  665   1.324   4.386   3.292
  660WN      WN  666   1.144   4.970   2.533
  661WN      WN  667   2.336   4.415   3.187
  662WN      WN  668   0.180   4.886   2.964
  663WN      WN  669   2.429   4.823   2.951
  664WN      WN  670   1.639   4.754   3.319
  665WN      WN  671   0.484   4.019   4.811
  666WN      WN  672   3.172   4.413   3.762
  667WN      WN  673   2.078   4.111   4.647
  668WN      WN  674   3.083   4.904   3.652
  669WN      WN  675   0.395   4.666   3.952
  670WN      WN  676   1.846   4.606   4.392
  671WN      WN  677   2.193   4.419   4.098
  672WN      WN  678   1.383   4.726   4.255
  673WN      WN  679   3.004   4.494   4.600
  674WN      WN  680   1.040   3.729   4.251
  675WN      WN  681   2.335   4.302   3.663
  676WN      WN  682   2.824   4.962   4.505
  677WN      WN  683   3.111   4.695   4.147
  678WN      WN  684   3.303   4.069   4.777
  679WN      WN  685   0.604   4.125   4.000
  680WN      WN  686   1.594   4.352   4.712
  681WN      WN  687   0.942   4.142   4.664
  682WN      WN  688   0.947   4.370   3.689
  683WN      WN  689   0.988   3.821   3.766
  684WN      WN  690   3.576   4.472   4.473
  685WN      WN  691   1.039   4.652   4.640
  686WN      WN  692   1.871   4.562   3.692
  687WN      WN  693   2.808   4.033   4.487
  688WN      WN  694   0.138   3.881   3.935
  689WN      WN  695   1.318   3.849   4.748
  690WN      WN  696   2.377   3.926   4.253
  691WN      WN  697   0.481   4.427   4.420
  692WN      WN  698   0.002   4.338   3.958
  693WN      WN  699   1.491   3.761   3.934
  694WN      WN  700   3.238   4.225   4.225
  695WN      WN  701   1.229   4.775   5.207
  696WN      WN  702   3.537   4.910   4.063
  697WN      WN  703   1.416   4.351   3.866
  698WN      WN  704   3.212   3.758   4.314
  699WN      WN  705   2.821   4.095   3.933
  700WN      WN  706   1.713   3.716   4.474
  701WN      WN  707   1.365   4.134   4.306
  702WN      WN  708   0.964   4.394   4.163
  703WN      WN  709   2.481   4.536   4.488
  704WN      WN  710   3.305   3.895   3.862
  705WN      WN  711   0.087   4.007   4.449
  706WN      WN  712   2.628   4.599   3.948
  707WN      WN  713   2.500   3.762   3.768
  708WN      WN  714   0.211   4.910   4.476
  709WN      WN  715   1.892   4.040   4.063
  710WN      WN  716   3.573   3.668   4.785
  711WN      WN  717   3.728   3.595   3.359
  712WN      WN  718   4.104   2.488   2.882
  713WN      WN  719   4.455   1.294   1.352
  714WN      WN  720   3.770   0.762   3.104
  715WN      WN  721   4.532   0.042   2.906
  716WN      WN  722   3.811   0.527   2.579
  717WN      WN  723   3.910   3.146   3.600
  718WN      WN  724   3.864   1.319   2.025
  719WN      WN  725   4.757   1.210   3.262
  720WN      WN  726   4.334   2.218   2.248
  721WN      WN  727   3.693   1.746   1.819
  722WN      WN  728   4.729   1.718   3.011
  723WN      WN  729   4.616   2.945   1.710
  724WN      WN  730   3.715   1.258   3.570
  725WN      WN  731   4.128   0.375   1.167
  726WN      WN  732   4.655   2.633   2.166
  727WN      WN  733   4.151   3.529   0.369
  728WN      WN  734   4.544   3.575   1.045
  729WN      WN  735   4.341   0.329   2.471
  730WN      WN  736   4.379   3.161   0.686
  731WN      WN  737   3.750   0.660   1.285
  732WN      WN  738   3.994   2.884   1.674
  733WN      WN  739   3.750   3.018   2.172
  734WN      WN  740   4.541   2.590   2.652
  735WN      WN  741   4.384   1.989   0.129
  736WN      WN  742   4.039   1.022   0.308
  737WN      WN  743   4.101   2.978   1.102
  738WN      WN  744   3.656   1.712   0.942
  739WN      WN  745   4.191   1.301   2.471
  740WN      WN  746   4.176   1.177   3.393
  741WN      WN  747   4.066   0.094   1.552
  742WN      WN  748   4.369   3.365   1.625
  743WN      WN  749   4.596   0.366   3.275
  744WN      WN  750   4.684   0.085   0.607
  745WN      WN  751   4.062   2.071   1.789
  746WN      WN  752   4.376   0.909   1.858
  747WN      WN  753   3.930   2.109   2.632
  748WN      WN  754   3.983   0.786   2.143
  749WN      WN  755   3.721   1.065   2.472
  750WN      WN  756   4.248   0.481   0.356
  751WN      WN  757   4.380   3.255   0.014
  752WN      WN  758   4.586   0.498   1.020
  753WN      WN  759   4.591   0.726   0.045
  754WN      WN  760   3.660   2.044   2.194
  755WN      WN  761   4.632   0.177   0.122
  756WN      WN  762   4.928   2.246   2.981
  757WN      WN  763   4.855   0.814   1.989
  758WN      WN  764   4.281   0.770   1.387
  759WN      WN  765   4.067   3.482   1.063
  760WN      WN  766   4.434   2.297   0.547
  761WN      WN  767   3.714   3.417   2.860
  762WN      WN  768   4.131   2.643   2.392
  763WN      WN  769   3.698   3.489   0.624
  764WN      WN  770   4.683   1.008   0.996
  765WN      WN  771   3.782   0.237   0.291
  766WN      WN  772   5.068   2.556   2.581
  767WN      WN  773   4.867   2.472   1.673
  768WN      WN  774   4.609   2.424   0.071
  769WN      WN  775   3.850   2.665   0.839
  770WN      WN  776   4.354   1.735   3.281
  771WN      WN  777   3.966   0.214   2.186
  772WN      WN  778   4.014   1.177   1.556
  773WN      WN  779   4.125   0.783   0.776
  774WN      WN  780   4.384   0.432   1.896
  775WN      WN  781   3.646   0.694   0.314
  776WN      WN  782   4.432   2.083   2.875
  777WN      WN  783   3.803   2.067   0.047
  778WN      WN  784   4.538   2.478   3.173
  779WN      WN  785   4.059   1.645   2.804
  780WN      WN  786   5.050   1.750   2.598
  781WN      WN  787   4.048   2.508   3.513
  782WN      WN  788   4.443   0.809   3.119
  783WN      WN  789   4.703   0.488   2.781
  784WN      WN  790   4.675   2.736   0.732
  785WN      WN  791   4.198   0.860   2.720
  786WN      WN  792   3.811   2.858   3.141
  787WN      WN  793   4.554   0.850   2.379
  788WN      WN  794   4.524   0.198   1.489
  789WN      WN  795   4.268   2.911   3.303
  790WN      WN  796   4.754   0.613   1.545
  791WN      WN  797   4.523   2.106   1.635
  792WN      WN  798   4.836   3.517   2.385
  793WN      WN  799   3.911   1.599   0.265
  794WN      WN  800   4.873   1.131   1.563
  795WN      WN  801   4.175   3.425   3.112
  796WN      WN  802   4.287   2.786   0.242
  797WN      WN  803   4.408   1.336   2.938
  798WN      WN  804   4.926   2.323   0.890
  799WN      WN  805   4.476   1.705   2.544
  800WN      WN  806   4.141   0.377   2.954
  801WN      WN  807   4.480   1.400   2.007
  802WN      WN  808   4.849   1.214   0.129
  803WN      WN  809   3.652   2.973   2.674
  804WN      WN  810   4.195   1.523   1.003
  805WN      WN  811   3.966   3.375   2.440
  806WN      WN  812   3.890   1.650   3.374
  807WN      WN  813   4.239   1.651   1.682
  808WN      WN  814   4.533   2.590   1.331
  809WN      WN  815   3.738   3.317   1.440
  810WN      WN  816   4.247   2.504   0.976
  811WN      WN  817   4.162   0.121   3.529
  812WN      WN  818   3.756   2.528   2.021
  813WN      WN  819   4.166   2.970   2.782
  814WN      WN  820   4.757   2.953   3.505
  815WN      WN  821   4.608   0.750   0.519
  816WN      WN  822   4.423   3.290   2.545
  817WN      WN  823   4.031   2.079   3.142
  818WN      WN  824   4.462   1.990   1.072
  819WN      WN  825   3.822   2.400   0.438
  820WN      WN  826   3.987   1.900   1.327
  821WN      WN  827   4.401   3.602   2.080
  822WN      WN  828   4.616   3.087   1.194
  823WN      WN  829   4.815   0.197   1.888
  824WN      WN  830   3.878   3.019   0.436
  825WN      WN  831   4.569   3.178   3.033
  826WN      WN  832   4.046   2.001   0.729
  827WN      WN  833   3.931   0.544   1.728
  828WN      WN  834   3.731   0.363   0.805
  829WN      WN  835   3.944   3.378   1.865
  830WN      WN  836   4.124   0.666   3.499
  831WN      WN  837   3.855   1.266   0.832
  832WN      WN  838   4.546   1.255   0.557
  833WN      WN  839   4.652   1.863   2.083
  834WN      WN  840   3.824   1.242   2.964
  835WN      WN  841   3.941   2.477   1.347
  836WN      WN  842   4.088   1.774   2.237
  837WN      WN  843   4.837   3.308   1.948
  838WN      WN  844   4.297   2.504   1.843
  839WN      WN  845   4.262   3.058   2.109
  840WN      WN  846   4.389   1.509   0.104
  841WN      WN  847   4.857   3.294   3.849
  842WN      WN  848   4.128   0.375   4.811
  843WN      WN  849   4.151   3.529   4.013
  844WN      WN  850   4.544   3.575   4.689
  845WN      WN  851   4.379   3.161   4.330
  846WN      WN  852   4.384   1.989   3.773
  847WN      WN  853   4.039   1.022   3.952
  848WN      WN  854   4.101   2.978   4.746
  849WN      WN  855   3.656   1.712   4.586
  850WN      WN  856   4.684   0.085   4.251
  851WN      WN  857   4.248   0.481   4.000
  852WN      WN  858   4.380   3.255   3.658
  853WN      WN  859   4.586   0.498   4.664
  854WN      WN  860   4.591   0.726   3.689
  855WN      WN  861   4.632   0.177   3.766
  856WN      WN  862   4.067   3.482   4.707
  857WN      WN  863   4.434   2.297   4.191
  858WN      WN  864   3.698   3.489   4.268
  859WN      WN  865   4.683   1.008   4.640
  860WN      WN  866   3.782   0.237   3.935
  861WN      WN  867   4.609   2.424   3.715
  862WN      WN  868   3.850   2.665   4.483
  863WN      WN  869   4.125   0.783   4.420
  864WN      WN  870   3.646   0.694   3.958
  865WN      WN  871   3.803   2.067   3.691
  866WN      WN  872   4.675   2.736   4.376
  867WN      WN  873   3.911   1.599   3.909
  868WN      WN  874   4.287   2.786   3.886
  869WN      WN  875   4.926   2.323   4.534
  870WN      WN  876   4.195   1.523   4.647
  871WN      WN  877   4.247   2.504   4.620
  872WN      WN  878   4.608   0.750   4.163
  873WN      WN  879   4.768   1.592   5.324
  874WN      WN  880   4.462   1.990   4.716
  875WN      WN  881   3.822   2.400   4.082
  876WN      WN  882   3.878   3.019   4.080
  877WN      WN  883   4.046   2.001   4.373
  878WN      WN  884   3.731   0.363   4.449
  879WN      WN  885   3.855   1.266   4.476
  880WN      WN  886   4.546   1.255   4.201
  881WN      WN  887   3.941   2.477   4.991
  882WN      WN  888   4.389   1.509   3.748
  883WN      WN  889   4.940   5.090   1.188
  884WN      WN  890   3.770   4.406   3.104
  885WN      WN  891   4.532   3.686   2.906
  886WN      WN  892   3.811   4.171   2.579
  887WN      WN  893   4.757   4.854   3.262
  888WN      WN  894   3.715   4.902   3.570
  889WN      WN  895   4.128   4.019   1.167
  890WN      WN  896   4.341   3.973   2.471
  891WN      WN  897   3.750   4.304   1.285
  892WN      WN  898   4.039   4.666   0.308
  893WN      WN  899   4.066   3.738   1.552
  894WN      WN  900   4.596   4.010   3.275
  895WN      WN  901   4.684   3.729   0.607
  896WN      WN  902   4.376   4.553   1.858
  897WN      WN  903   3.983   4.430   2.143
  898WN      WN  904   3.721   4.709   2.472
  899WN      WN  905   4.248   4.125   0.356
  900WN      WN  906   4.586   4.142   1.020
  901WN      WN  907   4.591   4.370   0.045
  902WN      WN  908   4.632   3.821   0.122
  903WN      WN  909   4.855   4.458   1.989
  904WN      WN  910   4.281   4.414   1.387
  905WN      WN  911   4.683   4.652   0.996
  906WN      WN  912   3.782   3.881   0.291
  907WN      WN  913   3.966   3.858   2.186
  908WN      WN  914   4.125   4.427   0.776
  909WN      WN  915   4.384   4.076   1.896
  910WN      WN  916   3.646   4.338   0.314
  911WN      WN  917   4.443   4.453   3.119
  912WN      WN  918   4.703   4.132   2.781
  913WN      WN  919   4.198   4.504   2.720
  914WN      WN  920   4.554   4.494   2.379
  915WN      WN  921   4.524   3.842   1.489
  916WN      WN  922   4.754   4.257   1.545
  917WN      WN  923   4.873   4.775   1.563
  918WN      WN  924   4.141   4.021   2.954
  919WN      WN  925   4.162   3.765   3.529
  920WN      WN  926   4.608   4.394   0.519
  921WN      WN  927   4.815   3.841   1.888
  922WN      WN  928   3.931   4.188   1.728
  923WN      WN  929   3.731   4.007   0.805
  924WN      WN  930   4.124   4.310   3.499
  925WN      WN  931   3.855   4.910   0.832
  926WN      WN  932   3.824   4.886   2.964
  927WN      WN  933   4.940   5.090   4.832
  928WN      WN  934   4.128   4.019   4.811
  929WN      WN  935   4.039   4.666   3.952
  930WN      WN  936   4.684   3.729   4.251
  931WN      WN  937   4.248   4.125   4.000
  932WN      WN  938   4.586   4.142   4.664
  933WN      WN  939   4.591   4.370   3.689
  934WN      WN  940   4.632   3.821   3.766
  935WN      WN  941   4.683   4.652   4.640
  936WN      WN  942   3.782   3.881   3.935
  937WN      WN  943   4.125   4.427   4.420
  938WN      WN  944   3.646   4.338   3.958
  939WN      WN  945   4.873   4.775   5.207
  940WN      WN  946   4.608   4.394   4.163
  941WN      WN  947   3.731   4.007   4.449
  942WN      WN  948   3.855   4.910   4.476
   5.00000   5.00000   5.00000
