OST in water
 2540
    1OST    PA1    1   4.203   0.674   1.471  0.3231 -0.2285 -0.1119
    1OST    PA2    2   4.137   0.458   1.192  0.0268 -0.0004 -0.1542
    1OST    PA3    3   3.915   0.355   1.399 -0.3292  0.1163 -0.1674
    1OST    PA4    4   4.052   0.396   1.014  0.2669  0.4067 -0.4629
    1OST    PA5    5   4.318   0.444   0.844  0.5672 -0.6262 -0.0782
    1OST    PA6    6   4.433   0.478   1.054  0.3314 -0.1025 -0.1590
    2OST    PA1    7   4.645   1.256   0.876 -0.1171 -0.0652 -0.1327
    2OST    PA2    8   4.778   1.060   0.610  0.1565  0.2964 -0.1785
    2OST    PA3    9   4.980   1.252   0.642  0.0262  0.1600  0.3014
    2OST    PA4   10   4.905   0.901   0.579 -0.2450  0.2617  0.2893
    2OST    PA5   11   4.656   0.705   0.620 -0.1867  0.0008  0.0155
    2OST    PA6   12   4.552   0.805   0.790 -0.0889  0.3866  0.3315
    3OST    PA1   13   2.738   3.170   2.820  0.0165  0.1887 -0.0873
    3OST    PA2   14   2.823   3.492   2.807  0.2140  0.1725 -0.3027
    3OST    PA3   15   2.550   3.586   2.752 -0.0346  0.0169 -0.4039
    3OST    PA4   16   2.906   3.586   2.647  0.1609 -0.1577  0.6250
    3OST    PA5   17   3.186   3.455   2.714 -0.0712 -0.3564 -0.1585
    3OST    PA6   18   3.120   3.372   2.929  0.0212  0.5070  0.1568
    4OST    PA1   19   4.291   6.509   0.887 -0.1798  0.0362  0.0818
    4OST    PA2   20   4.165   6.498   1.200 -0.3758  0.0930 -0.1867
    4OST    PA3   21   4.377   6.701   1.263  0.2405  0.5286 -0.1400
    4OST    PA4   22   4.058   6.555   1.320  0.3830 -0.0063  0.0349
    4OST    PA5   23   3.825   6.373   1.201  0.7408 -0.2163  0.5529
    4OST    PA6   24   3.947   6.214   1.073  0.2573 -0.2475  0.0925
    5OST    PA1   25   3.640   0.326   6.186  0.0747 -0.2242 -0.0200
    5OST    PA2   26   3.682   0.274   5.838  0.1497 -0.3706  0.6475
    5OST    PA3   27   3.953   0.232   5.890 -0.3414  0.1386 -0.0950
    5OST    PA4   28   3.731   0.438   5.658  0.5328  0.0845 -0.2162
    5OST    PA5   29   3.420   0.491   5.640  0.1342 -0.1551 -0.3240
    5OST    PA6   30   3.339   0.339   5.828  0.0674 -0.3968  0.2935
    6OST    PA1   31   5.209   0.678   0.253  0.3270  0.0259  0.0869
    6OST    PA2   32   4.983   0.911   0.135 -0.1681 -0.0475  0.4987
    6OST    PA3   33   4.859   0.722  -0.033 -0.7190 -0.1092  0.2487
    6OST    PA4   34   4.810   1.018   0.166  0.3782  0.5972 -0.0756
    6OST    PA5   35   4.963   1.259   0.226 -0.4421 -0.0517 -0.2750
    6OST    PA6   36   5.204   1.196   0.275 -0.4775  0.0353 -0.5690
    7OST    PA1   37   4.366   0.909   0.357  0.1603 -0.0044 -0.0382
    7OST    PA2   38   4.435   0.756   0.060 -0.1694 -0.1631  0.3128
    7OST    PA3   39   4.272   1.002  -0.033  0.0488  0.1652 -0.3136
    7OST    PA4   40   4.440   0.665  -0.112 -0.2328 -0.2520 -0.3972
    7OST    PA5   41   4.649   0.480   0.045  0.3731  0.1081 -0.1083
    7OST    PA6   42   4.668   0.611   0.240 -0.2952 -0.0181  0.0717
    8OST    PA1   43   3.779   6.400   5.710  0.0282 -0.2983 -0.0200
    8OST    PA2   44   3.745   6.376   6.044 -0.1127 -0.2215 -0.0064
    8OST    PA3   45   3.565   6.131   6.087 -0.0107 -0.4498 -0.1785
    8OST    PA4   46   3.725   6.435   6.217  0.0518  0.1966 -0.3391
    8OST    PA5   47   4.047   6.522   6.263  0.0844 -0.1110 -0.1068
    8OST    PA6   48   4.095   6.489   6.059 -0.0997 -0.1126  0.1382
    9OST    PA1   49   3.514   6.198   0.236 -0.2548  0.2559  0.1416
    9OST    PA2   50   3.379   6.514   0.159  0.1271  0.4171  0.2198
    9OST    PA3   51   3.558   6.529   0.412  0.7739 -0.1721  0.3053
    9OST    PA4   52   3.434   6.704   0.088  0.1619  0.4650 -0.0174
    9OST    PA5   53   3.380   6.569  -0.206 -0.1789  0.6007 -0.1800
    9OST    PA6   54   3.295   6.340  -0.142  0.0147  0.2185 -0.4092
   10OST    PA1   55   4.364   1.790   0.294 -0.1023 -0.2697  0.1168
   10OST    PA2   56   4.655   1.614   0.455  0.3671  0.0291  0.0219
   10OST    PA3   57   4.556   1.338   0.448 -0.1010  0.0724  0.2596
   10OST    PA4   58   4.824   1.574   0.441 -0.6523  0.2282  0.2679
   10OST    PA5   59   4.915   1.869   0.492  0.4646  0.1360  0.4209
   10OST    PA6   60   4.739   1.944   0.581  0.1757  0.0958 -0.2054
   11OST    PA1   61   3.858   0.125   0.709 -0.1027 -0.3888 -0.2090
   11OST    PA2   62   3.776  -0.207   0.617  0.0315  0.3480 -0.0198
   11OST    PA3   63   3.605  -0.174   0.846  0.1656  0.4542 -0.6356
   11OST    PA4   64   3.773  -0.412   0.604  0.2217 -0.2974 -0.2697
   11OST    PA5   65   4.077  -0.404   0.502 -0.2182 -0.0004 -0.3358
   11OST    PA6   66   4.127  -0.191   0.453  0.1283 -0.7058  0.1613
   12OST    PA1   67   4.568   0.046   6.321  0.1450  0.2268 -0.0601
   12OST    PA2   68   4.481   0.360   6.130 -0.0842  0.2628 -0.0059
   12OST    PA3   69   4.194   0.374   6.110  0.0463  0.0419  0.0184
   12OST    PA4   70   4.504   0.500   5.986 -0.0002 -0.1224  0.0673
   12OST    PA5   71   4.830   0.600   6.061  0.3916  0.3738 -0.0948
   12OST    PA6   72   4.833   0.440   6.227  0.0517  0.2370 -0.1727
   13OST    PA1   73   3.865   0.002   0.107 -0.0815 -0.0905 -0.0738
   13OST    PA2   74   3.968  -0.337   0.088  0.2719 -0.0227  0.2953
   13OST    PA3   75   3.771  -0.464  -0.094  0.1729 -0.0349 -0.3207
   13OST    PA4   76   4.049  -0.501   0.141  0.1825 -0.0338 -0.1257
   13OST    PA5   77   4.341  -0.401   0.195 -0.2729 -0.1425  0.0675
   13OST    PA6   78   4.312  -0.202   0.061  0.3066  0.2791 -0.0123
   14OST    PA1   79   3.951   0.518   0.162  0.0606  0.5153 -0.0114
   14OST    PA2   80   4.242   0.336   0.147 -0.3487 -0.0829 -0.0312
   14OST    PA3   81   4.119   0.243  -0.116 -0.5747  0.0258 -0.0156
   14OST    PA4   82   4.331   0.148   0.211  0.1493 -0.4425  0.2247
   14OST    PA5   83   4.421   0.264   0.486  0.3623  0.2392 -0.2974
   14OST    PA6   84   4.325   0.474   0.470  0.5699 -0.1593  0.0656
   15OST    PA1   85   3.540   1.069   0.718  0.2281  0.4419 -0.3425
   15OST    PA2   86   3.560   0.831   0.982 -0.2555 -0.3094  0.0712
   15OST    PA3   87   3.318   0.734   0.860  0.1375  0.1649  0.3604
   15OST    PA4   88   3.644   0.647   1.036  0.2239 -0.0290  0.3222
   15OST    PA5   89   3.892   0.775   1.143 -0.2756 -0.3902 -0.0117
   15OST    PA6   90   3.826   0.980   1.040 -0.3074  0.0481  0.2245
   16OST    PA1   91   3.877   0.927   0.374 -0.1901 -0.0324 -0.4829
   16OST    PA2   92   4.016   1.053   0.681 -0.2848 -0.2741 -0.0862
   16OST    PA3   93   4.104   1.234   0.450 -0.4019  0.2024  0.1049
   16OST    PA4   94   4.185   1.101   0.814 -0.2361  0.2475  0.0373
   16OST    PA5   95   4.197   0.818   0.887 -0.1323  0.0692 -0.0028
   16OST    PA6   96   4.024   0.714   0.764  0.0227  0.0384  0.1533
   17OST    PA1   97   4.021   1.169   1.458 -0.0023 -0.1884  0.3055
   17OST    PA2   98   3.673   1.130   1.391  0.2858  0.2132 -0.3649
   17OST    PA3   99   3.705   1.364   1.279 -0.1341 -0.2141 -0.2712
   17OST    PA4  100   3.475   1.136   1.393 -0.0426 -0.0047 -0.3732
   17OST    PA5  101   3.499   0.812   1.448 -0.1367  0.2524 -0.0503
   17OST    PA6  102   3.727   0.771   1.461  0.1785 -0.0174  0.0391
   18OST    PA1  103   4.703   1.295   1.413  0.0354  0.3365 -0.1596
   18OST    PA2  104   4.537   0.994   1.283 -0.3498 -0.0747  0.0652
   18OST    PA3  105   4.337   1.212   1.236 -0.0753  0.4091  0.0150
   18OST    PA4  106   4.477   0.877   1.179  0.1421 -0.0458 -0.0529
   18OST    PA5  107   4.615   0.618   1.341  0.4624  0.3035  0.0236
   18OST    PA6  108   4.720   0.778   1.512  0.0855  0.2946 -0.3389
   19OST    PA1  109   3.702   1.485   0.863  0.0609 -0.3197  0.0114
   19OST    PA2  110   3.703   1.539   0.488  0.0890  0.2203 -0.3345
   19OST    PA3  111   3.592   1.305   0.332  0.1276 -0.3057 -0.2356
   19OST    PA4  112   3.849   1.570   0.347  0.2441 -0.1895 -0.2879
   19OST    PA5  113   3.967   1.823   0.485  0.4228  0.2371  0.1563
   19OST    PA6  114   3.775   1.862   0.642  0.0705 -0.6908 -0.5325
   20OST    PA1  115   4.235   1.543   0.704 -0.0615  0.1910 -0.1598
   20OST    PA2  116   4.394   1.784   0.917 -0.2304 -0.0059  0.0815
   20OST    PA3  117   4.293   1.968   0.691  0.1431  0.0245 -0.5844
   20OST    PA4  118   4.574   1.876   0.934 -0.0469 -0.2686 -0.5330
   20OST    PA5  119   4.613   1.694   1.197 -0.3165  0.0889  0.2235
   20OST    PA6  120   4.452   1.545   1.159 -0.2576  0.1381 -0.2049
   21bCD     C4  121   2.034   4.940   3.750  0.1919 -0.1891  0.0520
   21bCD     O2  122   1.853   5.069   3.661  0.0629 -0.1171  0.1575
   21bCD     C6  123   2.282   5.040   3.846  0.1850 -0.0861 -0.0643
   21bCD     C4  124   1.921   4.470   3.691  0.0458 -0.1451 -0.2244
   21bCD     O2  125   1.727   4.581   3.622 -0.2112  0.8569 -0.2033
   21bCD     C6  126   2.115   4.520   3.901 -0.0657 -0.2354 -0.1139
   21bCD     C4  127   2.115   4.222   3.313  0.0214 -0.0831  0.0826
   21bCD     O2  128   1.915   4.274   3.198 -0.1481 -0.1460 -0.0714
   21bCD     C6  129   2.196   4.145   3.584 -0.3819  0.1360 -0.0670
   21bCD     C4  130   2.428   4.419   3.011  0.0870  0.2092  0.2170
   21bCD     O2  131   2.254   4.420   2.872  0.3552  0.7627 -0.3053
   21bCD     C6  132   2.557   4.227   3.210 -0.0197 -0.5148 -0.4704
   21bCD     C4  133   2.665   4.845   2.949 -0.2083 -0.0222 -0.1434
   21bCD     O2  134   2.516   4.843   2.781  0.4406 -0.8795  0.1317
   21bCD     C6  135   2.824   4.660   3.121  0.0074  0.3437  0.2887
   21bCD     C4  136   2.547   5.260   3.159 -0.0717 -0.1985 -0.4094
   21bCD     O2  137   2.423   5.290   2.944  0.1907 -0.2133 -0.0558
   21bCD     C6  138   2.808   5.124   3.229 -0.0819 -0.0113  0.3473
   21bCD     C4  139   2.248   5.301   3.542 -0.1333  0.0301  0.1552
   21bCD     O2  140   2.104   5.385   3.391 -0.0407 -0.2289  0.3049
   21bCD     C6  141   2.539   5.318   3.614  0.2297  0.5796 -0.0204
   22bCD     C4  142   2.604   3.639   4.178  0.1139 -0.1448 -0.0173
   22bCD     O2  143   2.397   3.520   4.161  0.3208 -0.1700 -0.3827
   22bCD     C6  144   2.844   3.600   4.021 -0.4055  0.0347  0.3448
   22bCD     C4  145   2.675   3.813   4.623  0.2201  0.2012  0.0920
   22bCD     O2  146   2.443   3.906   4.617 -0.5134  0.0318 -0.0490
   22bCD     C6  147   2.876   3.893   4.441 -0.2326 -0.1658  0.0928
   22bCD     C4  148   2.809   3.582   5.030 -0.1164 -0.0895  0.2170
   22bCD     O2  149   2.583   3.648   5.059  0.0041 -0.2730  0.1977
   22bCD     C6  150   3.067   3.653   4.909 -0.2625  0.4441  0.1350
   22bCD     C4  151   2.805   3.123   5.153 -0.0374  0.2501 -0.0082
   22bCD     O2  152   2.568   3.142   5.205 -0.1180  0.5924 -0.0294
   22bCD     C6  153   3.037   3.267   5.226 -0.3156 -0.1965  0.3313
   22bCD     C4  154   2.856   2.758   4.834 -0.0584  0.1733 -0.2474
   22bCD     O2  155   2.644   2.710   4.889  0.3345  0.1767  0.1386
   22bCD     C6  156   3.110   2.828   5.011  0.0925 -0.4290 -0.3393
   22bCD     C4  157   2.867   2.807   4.356 -0.0346  0.0717  0.0370
   22bCD     O2  158   2.668   2.674   4.386  0.1322 -0.0086 -0.1428
   22bCD     C6  159   3.127   2.832   4.512  0.3918 -0.3552  0.6273
   22bCD     C4  160   2.770   3.188   4.072 -0.1446  0.2696 -0.1344
   22bCD     O2  161   2.590   3.044   4.058  0.2642 -0.3285 -0.0987
   22bCD     C6  162   3.067   3.149   3.996  0.1310  0.1508 -0.5159
   23bCD     C4  163   2.878   3.030   3.552 -0.1446 -0.1416  0.0398
   23bCD     O2  164   2.836   2.967   3.328 -0.3036  0.3708 -0.0298
   23bCD     C6  165   2.913   2.895   3.798 -0.1039  0.3709  0.0642
   23bCD     C4  166   2.901   3.533   3.523  0.0172  0.2134 -0.0215
   23bCD     O2  167   2.856   3.489   3.298 -0.2751 -0.3081  0.5791
   23bCD     C6  168   3.031   3.411   3.750 -0.3031  0.6618 -0.3771
   23bCD     C4  169   2.542   3.846   3.588  0.1417 -0.0961 -0.1483
   23bCD     O2  170   2.555   3.854   3.367 -0.1792 -0.2814  0.3431
   23bCD     C6  171   2.749   3.826   3.785 -0.3513 -0.3959  0.2566
   23bCD     C4  172   2.073   3.707   3.705  0.1504  0.3906  0.1472
   23bCD     O2  173   2.079   3.715   3.487  0.4931 -0.1020 -0.2659
   23bCD     C6  174   2.205   3.839   3.913  0.1069  0.0021  0.0777
   23bCD     C4  175   1.904   3.260   3.828 -0.3741 -0.0129  0.2205
   23bCD     O2  176   1.824   3.280   3.611  0.2737 -0.0531  0.1386
   23bCD     C6  177   2.017   3.462   4.022  0.2113 -0.0991  0.2239
   23bCD     C4  178   2.133   2.809   3.836 -0.1125 -0.3253  0.1336
   23bCD     O2  179   1.965   2.782   3.674 -0.2297 -0.1101 -0.4719
   23bCD     C6  180   2.137   2.976   4.079 -0.2083 -0.1724 -0.4665
   23bCD     C4  181   2.567   2.683   3.663  0.0561  0.1234  0.1352
   23bCD     O2  182   2.492   2.572   3.481 -0.3288  0.0382  0.5480
   23bCD     C6  183   2.502   2.609   3.938  0.2428 -0.0015 -0.0459
   24bCD     C4  184   1.874   4.960   5.187  0.0657  0.3830  0.2453
   24bCD     O2  185   2.033   4.918   5.026 -0.1955  0.6004 -0.1925
   24bCD     C6  186   1.740   4.797   5.393 -0.1601  0.0738  0.0859
   24bCD     C4  187   1.711   5.424   5.120  0.0729  0.0778 -0.0065
   24bCD     O2  188   1.904   5.414   4.994  0.1069 -0.2483 -0.3142
   24bCD     C6  189   1.662   5.332   5.399 -0.3666  0.0685 -0.5603
   24bCD     C4  190   1.330   5.514   4.843  0.1270  0.0064  0.1553
   24bCD     O2  191   1.491   5.627   4.699  0.0199  0.3813 -0.0795
   24bCD     C6  192   1.316   5.592   5.143  0.3231 -0.6136  0.4466
   24bCD     C4  193   1.002   5.203   4.607 -0.3928 -0.0222 -0.3713
   24bCD     O2  194   1.106   5.299   4.419  0.0463 -0.0863 -0.2641
   24bCD     C6  195   0.907   5.299   4.859  0.0115  0.2543  0.0533
   24bCD     C4  196   1.073   4.725   4.580 -0.4050 -0.1432 -0.1777
   24bCD     O2  197   1.115   4.779   4.373 -0.0670  0.1771  0.7772
   24bCD     C6  198   0.850   4.794   4.748  0.6962  0.0724 -0.1728
   24bCD     C4  199   1.420   4.424   4.740 -0.0914  0.2949 -0.0695
   24bCD     O2  200   1.486   4.466   4.537 -0.1384 -0.1020  0.1223
   24bCD     C6  201   1.168   4.442   4.880 -0.3358  0.4102 -0.0347
   24bCD     C4  202   1.774   4.504   5.036 -0.1130 -0.3327  0.1359
   24bCD     O2  203   1.900   4.462   4.854  0.1768  0.2572  0.4419
   24bCD     C6  204   1.546   4.370   5.133 -0.0824 -0.5427  0.0568
   25bCD     C4  205   3.884   4.444   3.419  0.0500  0.4797  0.0419
   25bCD     O2  206   3.935   4.242   3.296 -0.0137 -0.0149  0.5278
   25bCD     C6  207   4.018   4.638   3.571  0.2672  0.2235 -0.2063
   25bCD     C4  208   3.408   4.360   3.474  0.2084 -0.2298  0.1694
   25bCD     O2  209   3.439   4.211   3.302 -0.0415  0.0995 -0.0396
   25bCD     C6  210   3.526   4.622   3.558  0.2695 -0.1547  0.1069
   25bCD     C4  211   3.198   4.067   3.799 -0.0241 -0.2406 -0.0946
   25bCD     O2  212   3.198   3.927   3.622  0.0153  0.0865  0.0149
   25bCD     C6  213   3.203   4.354   3.897 -0.3179 -0.0080  0.2936
   25bCD     C4  214   3.319   3.765   4.143 -0.1920  0.0254  0.0127
   25bCD     O2  215   3.299   3.593   4.002 -0.0041 -0.3169  0.6698
   25bCD     C6  216   3.193   3.990   4.238  0.4583  0.1622  0.1688
   25bCD     C4  217   3.775   3.723   4.300 -0.1469  0.0639  0.1454
   25bCD     O2  218   3.740   3.513   4.184 -0.0880  0.2615 -0.4069
   25bCD     C6  219   3.620   3.873   4.491 -0.0062  0.1254 -0.3094
   25bCD     C4  220   4.164   3.951   4.109 -0.0262 -0.1542 -0.2139
   25bCD     O2  221   4.183   3.734   4.020 -0.1169 -0.5489  0.0391
   25bCD     C6  222   4.106   4.068   4.372 -0.1556  0.3055  0.3247
   25bCD     C4  223   4.222   4.284   3.755  0.2291  0.0816  0.3993
   25bCD     O2  224   4.257   4.078   3.633  0.2462  0.3361  0.1660
   25bCD     C6  225   4.239   4.419   4.011 -0.1263 -0.0144  0.3178
   26bCD     C4  226   1.586   5.028   4.296 -0.0945 -0.2958  0.4378
   26bCD     O2  227   1.518   4.993   4.070  0.1530 -0.0590 -0.1428
   26bCD     C6  228   1.583   5.275   4.448  0.4563 -0.2900  0.1651
   26bCD     C4  229   1.932   4.720   4.421 -0.2095  0.1501  0.0443
   26bCD     O2  230   1.877   4.597   4.231  0.2705  0.0227 -0.0983
   26bCD     C6  231   1.786   4.832   4.674  0.2034 -0.2185 -0.0419
   26bCD     C4  232   2.404   4.856   4.372  0.4434 -0.2118  0.0996
   26bCD     O2  233   2.379   4.708   4.196  0.1138 -0.0399  0.2318
   26bCD     C6  234   2.310   4.829   4.640 -0.1369 -0.0112 -0.0199
   26bCD     C4  235   2.560   5.310   4.278 -0.1075  0.0408  0.2731
   26bCD     O2  236   2.615   5.185   4.099  0.4081 -0.1831  0.0328
   26bCD     C6  237   2.560   5.261   4.554  0.2572  0.3704  0.0359
   26bCD     C4  238   2.340   5.713   4.091 -0.0056 -0.1941 -0.0465
   26bCD     O2  239   2.406   5.609   3.909 -0.2757 -0.1828 -0.0574
   26bCD     C6  240   2.418   5.737   4.369  0.0340 -0.4603  0.2214
   26bCD     C4  241   1.870   5.780   4.000  0.1071 -0.1229  0.0219
   26bCD     O2  242   1.950   5.735   3.789  0.1361 -0.6833 -0.3970
   26bCD     C6  243   1.978   5.959   4.200  0.1944 -0.3480  0.3512
   26bCD     C4  244   1.519   5.483   4.108  0.0271  0.1045 -0.0629
   26bCD     O2  245   1.515   5.458   3.880 -0.0523  0.5122 -0.4144
   26bCD     C6  246   1.590   5.718   4.283 -0.2353 -0.0791 -0.4203
   27bCD     C4  247   4.350   4.448   4.664 -0.3968  0.1083 -0.2616
   27bCD     O2  248   4.124   4.428   4.562  0.2587 -0.2812 -0.3480
   27bCD     C6  249   4.547   4.661   4.728  0.0390  0.1521  0.3938
   27bCD     C4  250   4.474   3.989   4.783  0.1891 -0.1037 -0.0811
   27bCD     O2  251   4.242   3.960   4.723 -0.2733  0.2485 -0.0170
   27bCD     C6  252   4.620   4.185   4.933 -0.1551  0.1936  0.2395
   27bCD     C4  253   4.710   3.761   4.434  0.0069  0.2632 -0.0995
   27bCD     O2  254   4.505   3.703   4.397  0.2124  0.1314 -0.4453
   27bCD     C6  255   4.851   3.812   4.681  0.2659 -0.4698 -0.3033
   27bCD     C4  256   4.881   3.966   4.016  0.1652  0.0603 -0.2628
   27bCD     O2  257   4.694   3.849   3.938  0.2803  0.0973  0.0684
   27bCD     C6  258   5.068   3.964   4.255  0.2480  0.0821 -0.1717
   27bCD     C4  259   4.849   4.406   3.785 -0.0582 -0.0251 -0.0264
   27bCD     O2  260   4.707   4.319   3.645  0.0766  0.1374  0.1005
   27bCD     C6  261   5.120   4.377   3.898  0.2853  0.2977 -0.2228
   27bCD     C4  262   4.613   4.799   3.930  0.3523 -0.0004  0.0798
   27bCD     O2  263   4.440   4.736   3.764  0.1396 -0.0135  0.0715
   27bCD     C6  264   4.885   4.778   3.963  0.4728  0.2062  0.2514
   27bCD     C4  265   4.375   4.799   4.355 -0.1266 -0.1501  0.0194
   27bCD     O2  266   4.190   4.779   4.210  0.6520 -0.0051  0.0096
   27bCD     C6  267   4.629   4.967   4.345  0.2577 -0.2413  0.1670
   28bCD     C4  268   3.914   5.133   4.716 -0.2523 -0.2531 -0.1474
   28bCD     O2  269   4.107   5.028   4.720 -0.2203 -0.0319  0.4429
   28bCD     C6  270   3.685   5.174   4.917 -0.0302  0.3136 -0.0111
   28bCD     C4  271   3.829   5.320   4.269 -0.2597  0.1351 -0.2273
   28bCD     O2  272   4.069   5.267   4.273  0.5620 -0.3629 -0.0641
   28bCD     C6  273   3.609   5.374   4.456 -0.0970  0.5894  0.0242
   28bCD     C4  274   3.690   5.047   3.907 -0.2866  0.0335 -0.1122
   28bCD     O2  275   3.933   5.041   3.851 -0.3727 -0.2269 -0.5234
   28bCD     C6  276   3.490   5.265   3.965 -0.2221  0.1220 -0.1356
   28bCD     C4  277   3.550   4.586   3.990 -0.1022 -0.0407  0.1892
   28bCD     O2  278   3.778   4.555   3.958  0.4702  0.2290 -0.0624
   28bCD     C6  279   3.302   4.759   3.925  0.1646  0.2372  0.1838
   28bCD     C4  280   3.483   4.304   4.389  0.2712  0.2231  0.2760
   28bCD     O2  281   3.685   4.224   4.301  0.1753  0.2993 -0.3447
   28bCD     C6  282   3.227   4.423   4.297 -0.0733  0.1778  0.6176
   28bCD     C4  283   3.592   4.343   4.843 -0.0158 -0.1484 -0.2249
   28bCD     O2  284   3.751   4.194   4.793 -0.4113  0.2503 -0.3556
   28bCD     C6  285   3.307   4.337   4.774 -0.4607  0.4794  0.0767
   28bCD     C4  286   3.821   4.749   5.000  0.1833 -0.1260 -0.2059
   28bCD     O2  287   4.000   4.601   5.002 -0.0382 -0.4614 -0.0436
   28bCD     C6  288   3.541   4.689   5.061  0.1061 -0.0595 -0.0174
   29bCD     C4  289   4.171   5.179   2.891 -0.0193  0.1996  0.0463
   29bCD     O2  290   4.104   4.992   3.043 -0.3540 -0.4270  0.0829
   29bCD     C6  291   4.413   5.332   2.876  0.3859 -0.0605 -0.2963
   29bCD     C4  292   3.749   5.295   2.676 -0.0045  0.0875  0.2587
   29bCD     O2  293   3.679   5.098   2.814  0.2426  0.0339  0.3711
   29bCD     C6  294   3.975   5.367   2.496  0.5713  0.0191  0.0607
   29bCD     C4  295   3.468   5.649   2.822 -0.1368  0.0120  0.1109
   29bCD     O2  296   3.360   5.458   2.909 -0.0347  0.2296 -0.2769
   29bCD     C6  297   3.665   5.676   2.598 -0.1774  0.2833  0.1211
   29bCD     C4  298   3.551   5.947   3.195 -0.0442 -0.1291 -0.3291
   29bCD     O2  299   3.375   5.823   3.265  0.0518  0.1692  0.0363
   29bCD     C6  300   3.691   6.056   2.942  0.1131  0.0297 -0.2921
   29bCD     C4  301   3.865   5.911   3.577  0.1889  0.0025 -0.3476
   29bCD     O2  302   3.690   5.809   3.671 -0.1580  0.0254  0.1190
   29bCD     C6  303   3.918   6.122   3.390 -0.2249 -0.1596  0.3525
   29bCD     C4  304   4.214   5.603   3.667 -0.4150 -0.1853 -0.0230
   29bCD     O2  305   4.048   5.500   3.789 -0.2716 -0.5517 -0.1069
   29bCD     C6  306   4.308   5.871   3.609 -0.1053 -0.1023  0.1070
   29bCD     C4  307   4.367   5.274   3.332  0.1152 -0.3192  0.1495
   29bCD     O2  308   4.275   5.146   3.498 -0.1372  0.1624 -0.2685
   29bCD     C6  309   4.509   5.518   3.352 -0.1613  0.1197 -0.2785
   30bCD     C4  310   5.435   4.838   4.207 -0.1808  0.1389 -0.1429
   30bCD     O2  311   5.609   4.964   4.125  0.2732 -0.3242  0.3881
   30bCD     C6  312   5.288   4.632   4.074 -0.2798  0.3166  0.2697
   30bCD     C4  313   5.275   5.013   4.619 -0.0997 -0.1221 -0.4992
   30bCD     O2  314   5.440   5.179   4.552 -0.2135  0.2946 -0.1226
   30bCD     C6  315   5.273   4.711   4.583 -0.0619 -0.3245 -0.2493
   30bCD     C4  316   4.837   5.236   4.675  0.4079 -0.2200 -0.1478
   30bCD     O2  317   4.992   5.408   4.730  0.0052  0.5111  0.1872
   30bCD     C6  318   4.854   4.937   4.676  0.2900  0.5247 -0.0254
   30bCD     C4  319   4.516   5.428   4.349  0.0428  0.4187  0.2591
   30bCD     O2  320   4.635   5.625   4.418 -0.0432  0.2320  0.1533
   30bCD     C6  321   4.407   5.204   4.484 -0.2062  0.3183 -0.1218
   30bCD     C4  322   4.582   5.359   3.860 -0.0441 -0.1006 -0.2773
   30bCD     O2  323   4.664   5.581   3.901  0.5625  0.0064  0.0929
   30bCD     C6  324   4.410   5.165   4.017  0.1420 -0.2041  0.2700
   30bCD     C4  325   4.932   5.163   3.586  0.2607 -0.2364  0.1342
   30bCD     O2  326   4.975   5.389   3.538  0.0436 -0.4123 -0.0420
   30bCD     C6  327   4.685   5.030   3.585  0.1771  0.2686  0.0771
   30bCD     C4  328   5.312   4.911   3.743 -0.2039  0.1701 -0.0367
   30bCD     O2  329   5.435   5.093   3.661  0.0342 -0.4381  0.0037
   30bCD     C6  330   5.102   4.757   3.645  0.1360 -0.0843 -0.2452
   31bCD     C4  331   4.186   4.362   6.157  0.0272 -0.2118  0.0483
   31bCD     O2  332   4.115   4.180   6.276 -0.1105  0.4535  0.1061
   31bCD     C6  333   4.043   4.608   6.122  0.2768  0.0601 -0.2226
   31bCD     C4  334   4.658   4.359   6.089 -0.1243 -0.1570 -0.3310
   31bCD     O2  335   4.645   4.187   6.249  0.3122 -0.0902  0.2542
   31bCD     C6  336   4.542   4.611   6.052 -0.0002  0.0550  0.3747
   31bCD     C4  337   4.833   4.121   5.712  0.1679 -0.1904  0.0477
   31bCD     O2  338   4.837   3.946   5.880 -0.3925 -0.4169  0.2279
   31bCD     C6  339   4.904   4.409   5.730  0.0388  0.2245 -0.3767
   31bCD     C4  340   4.592   3.977   5.304 -0.1684 -0.2364 -0.0860
   31bCD     O2  341   4.628   3.768   5.388  0.2202 -0.2770  0.2009
   31bCD     C6  342   4.735   4.226   5.269  0.0162  0.0383 -0.3626
   31bCD     C4  343   4.103   4.008   5.208 -0.0552  0.1298 -0.0583
   31bCD     O2  344   4.113   3.774   5.214  0.1814  0.0762  0.0987
   31bCD     C6  345   4.280   4.227   5.136 -0.1296  0.0342  0.4680
   31bCD     C4  346   3.741   4.144   5.493 -0.1156 -0.1895  0.0332
   31bCD     O2  347   3.698   3.934   5.511  0.0692  0.9854  0.0152
   31bCD     C6  348   3.796   4.332   5.265 -0.0302 -0.2118 -0.2504
   31bCD     C4  349   3.759   4.314   5.937 -0.1368 -0.2291  0.1167
   31bCD     O2  350   3.678   4.118   6.022 -0.1091  0.0776  0.1050
   31bCD     C6  351   3.687   4.517   5.726 -0.1974 -0.0375  0.1378
   32bCD     C4  352   4.630   4.980   5.043 -0.1364  0.1195 -0.0714
   32bCD     O2  353   4.750   5.116   5.198 -0.2099 -0.2234  0.3814
   32bCD     C6  354   4.497   5.000   4.805  0.0463 -0.0443  0.2660
   32bCD     C4  355   4.501   4.616   5.321 -0.1057  0.0633 -0.3722
   32bCD     O2  356   4.697   4.672   5.439  0.4603 -0.3468 -0.0855
   32bCD     C6  357   4.503   4.513   5.054  0.3031 -0.0272 -0.2559
   32bCD     C4  358   4.068   4.578   5.572 -0.1782 -0.2284 -0.0409
   32bCD     O2  359   4.239   4.612   5.749 -0.4002  0.3359  0.0315
   32bCD     C6  360   4.109   4.409   5.351 -0.1086  0.2884  0.2981
   32bCD     C4  361   3.726   4.932   5.581 -0.1632  0.2949 -0.1004
   32bCD     O2  362   3.804   4.923   5.802  0.1788 -0.1256 -0.3141
   32bCD     C6  363   3.615   4.710   5.431  0.0569 -0.1369  0.2679
   32bCD     C4  364   3.745   5.374   5.383  0.1805  0.0108 -0.0993
   32bCD     O2  365   3.821   5.440   5.602 -0.1036  0.1109  0.3323
   32bCD     C6  366   3.611   5.156   5.253 -0.0901  0.0713  0.3815
   32bCD     C4  367   4.057   5.605   5.068 -0.1704 -0.1211 -0.2751
   32bCD     O2  368   4.118   5.709   5.248  0.0894  0.1342  0.0234
   32bCD     C6  369   3.812   5.537   4.964  0.0842 -0.0538  0.0302
   32bCD     C4  370   4.474   5.417   4.886 -0.3917  0.3772 -0.1787
   32bCD     O2  371   4.561   5.546   5.043  0.2866  0.2557  0.2630
   32bCD     C6  372   4.260   5.471   4.674 -0.0761  0.1035 -0.2140
   33bCD     C4  373   3.213   5.273   5.190 -0.0986  0.1461  0.1658
   33bCD     O2  374   3.237   5.379   5.419 -0.0686  0.1922 -0.2000
   33bCD     C6  375   3.335   5.314   4.922 -0.3170 -0.5572 -0.0527
   33bCD     C4  376   2.789   5.056   5.195  0.1304  0.1165  0.3698
   33bCD     O2  377   2.826   5.114   5.416  0.1229 -0.0367 -0.0394
   33bCD     C6  378   2.981   4.928   5.007  0.1378 -0.2567 -0.1659
   33bCD     C4  379   2.399   5.290   5.015 -0.0835 -0.0514  0.2708
   33bCD     O2  380   2.358   5.299   5.234 -0.3218  0.5979  0.0430
   33bCD     C6  381   2.467   5.067   4.864  0.1176 -0.5307  0.2920
   33bCD     C4  382   2.394   5.720   4.803  0.1700 -0.3049  0.2301
   33bCD     O2  383   2.291   5.794   4.986 -0.0444 -0.3075  0.0444
   33bCD     C6  384   2.358   5.504   4.617 -0.1962 -0.1839  0.4850
   33bCD     C4  385   2.744   6.064   4.737  0.3544  0.0515  0.0437
   33bCD     O2  386   2.621   6.161   4.906 -0.0143  0.0083  0.1323
   33bCD     C6  387   2.692   5.850   4.537 -0.2132 -0.1333  0.1143
   33bCD     C4  388   3.194   6.092   4.896 -0.4443 -0.1607  0.0004
   33bCD     O2  389   3.115   6.248   5.021  0.2466 -0.3276  0.5718
   33bCD     C6  390   3.171   6.101   4.606  0.3495 -0.1410 -0.1813
   33bCD     C4  391   3.396   5.720   5.118  0.1513  0.0403  0.0447
   33bCD     O2  392   3.363   5.839   5.306 -0.1695 -0.3784  0.3244
   33bCD     C6  393   3.526   5.775   4.859  0.1668 -0.0332 -0.1365
   34bCD     C4  394   3.743   2.789   3.136  0.0110 -0.4292 -0.1783
   34bCD     O2  395   3.956   2.732   3.178 -0.0407  0.3949 -0.3170
   34bCD     C6  396   3.578   2.961   2.953 -0.2413 -0.0737  0.1193
   34bCD     C4  397   3.571   2.775   3.584 -0.0377 -0.0857 -0.0555
   34bCD     O2  398   3.787   2.743   3.637 -0.2780 -0.1055 -0.2465
   34bCD     C6  399   3.386   2.704   3.355 -0.0567  0.4104 -0.1732
   34bCD     C4  400   3.461   3.200   3.776  0.1933  0.0312  0.2352
   34bCD     O2  401   3.634   3.117   3.909 -0.1562 -0.1833  0.3167
   34bCD     C6  402   3.251   3.037   3.659 -0.4940 -0.1881  0.3240
   34bCD     C4  403   3.582   3.627   3.529 -0.0915  0.0990  0.0463
   34bCD     O2  404   3.737   3.650   3.689  0.2317  0.3232 -0.0924
   34bCD     C6  405   3.320   3.539   3.464 -0.0841  0.1077 -0.0978
   34bCD     C4  406   3.877   3.744   3.151 -0.1334  0.1276 -0.3255
   34bCD     O2  407   4.045   3.756   3.338  0.1748 -0.2666  0.0505
   34bCD     C6  408   3.603   3.822   3.132  0.1857  0.0368  0.4850
   34bCD     C4  409   4.071   3.463   2.808 -0.0553 -0.0457 -0.2532
   34bCD     O2  410   4.271   3.492   2.960  0.1946  0.3053  0.1125
   34bCD     C6  411   3.879   3.650   2.692 -0.1869  0.0953 -0.1918
   34bCD     C4  412   3.950   2.993   2.760 -0.2581 -0.0730 -0.0814
   34bCD     O2  413   4.176   2.995   2.818  0.2530  0.1847  0.1987
   34bCD     C6  414   3.777   3.157   2.594  0.0406 -0.2931 -0.1073
   35bCD     C4  415   2.956   4.708   4.534  0.1322  0.1085 -0.2645
   35bCD     O2  416   2.805   4.876   4.585 -0.1683  0.2103 -0.0395
   35bCD     C6  417   3.226   4.683   4.483  0.2972  0.1279 -0.1401
   35bCD     C4  418   2.744   4.286   4.458 -0.2353 -0.2814  0.0971
   35bCD     O2  419   2.578   4.423   4.538  0.6630  0.1211  0.1871
   35bCD     C6  420   3.028   4.280   4.518 -0.2971  0.5157 -0.3233
   35bCD     C4  421   2.588   4.136   4.026  0.0050 -0.0753 -0.1513
   35bCD     O2  422   2.386   4.231   4.097 -0.1257  0.1371 -0.2501
   35bCD     C6  423   2.805   3.977   4.110 -0.1812  0.0506 -0.5095
   35bCD     C4  424   2.673   4.380   3.614 -0.2198 -0.0355 -0.0068
   35bCD     O2  425   2.460   4.452   3.621 -0.0708 -0.0211 -0.4839
   35bCD     C6  426   2.833   4.140   3.647 -0.1738 -0.0185  0.2042
   35bCD     C4  427   2.910   4.818   3.541 -0.0300 -0.1066  0.0276
   35bCD     O2  428   2.680   4.884   3.541  0.5058 -0.1169  0.3321
   35bCD     C6  429   3.063   4.576   3.466  0.0761 -0.0014  0.0747
   35bCD     C4  430   3.161   5.147   3.827  0.0555  0.2752 -0.0077
   35bCD     O2  431   2.981   5.262   3.749  0.1912 -0.2633 -0.0193
   35bCD     C6  432   3.313   4.964   3.663 -0.1854 -0.2969  0.1756
   35bCD     C4  433   3.160   5.076   4.302 -0.2237  0.1995 -0.3286
   35bCD     O2  434   3.055   5.265   4.331 -0.1497  0.0833 -0.0316
   35bCD     C6  435   3.401   4.998   4.169 -0.3170  0.4737 -0.3883
   36bCD     C4  436   2.028   2.207   3.513 -0.0276  0.1567 -0.3518
   36bCD     O2  437   2.055   1.984   3.428  0.5540 -0.0231 -0.0136
   36bCD     C6  438   2.094   2.458   3.413  0.1016  0.1714  0.2094
   36bCD     C4  439   2.128   2.157   3.984 -0.3361  0.4338  0.2638
   36bCD     O2  440   2.116   1.919   3.930  0.2767 -0.1389 -0.3614
   36bCD     C6  441   1.993   2.403   3.903  0.0762  0.1151  0.1881
   36bCD     C4  442   2.574   2.202   4.132 -0.1287 -0.0523 -0.1050
   36bCD     O2  443   2.568   1.963   4.128  0.1325 -0.2624 -0.0622
   36bCD     C6  444   2.382   2.407   4.192  0.0818  0.0126 -0.1264
   36bCD     C4  445   3.000   2.368   3.936 -0.0541 -0.3766 -0.0524
   36bCD     O2  446   3.065   2.156   3.996  0.2724  0.3094 -0.6510
   36bCD     C6  447   2.834   2.605   4.012  0.4041  0.1518  0.4564
   36bCD     C4  448   3.126   2.412   3.468  0.0657 -0.0736 -0.4539
   36bCD     O2  449   3.208   2.195   3.516 -0.7534 -0.0647  0.3203
   36bCD     C6  450   3.133   2.674   3.602 -0.2996 -0.1736  0.2940
   36bCD     C4  451   2.805   2.348   3.108  0.2986  0.0736  0.1890
   36bCD     O2  452   2.902   2.133   3.140  0.3691  0.2611 -0.1899
   36bCD     C6  453   2.901   2.606   3.170 -0.0824 -0.2533  0.1770
   36bCD     C4  454   2.321   2.248   3.133  0.2636 -0.0241 -0.1745
   36bCD     O2  455   2.401   2.048   3.060 -0.3246  0.7784  0.4596
   36bCD     C6  456   2.388   2.511   3.015 -0.0929  0.3952 -0.0271
   37bCD     C4  457   1.046   4.156   4.546  0.0512  0.0620  0.0742
   37bCD     O2  458   0.940   4.150   4.736  0.0175  0.0336 -0.2699
   37bCD     C6  459   1.112   4.369   4.356 -0.4134  0.5363 -0.1356
   37bCD     C4  460   1.220   3.733   4.460 -0.2612 -0.0245  0.0268
   37bCD     O2  461   1.135   3.699   4.678  0.5599  0.4923 -0.1319
   37bCD     C6  462   1.339   3.955   4.313  0.2209 -0.0806  0.0312
   37bCD     C4  463   0.968   3.425   4.206 -0.0196  0.1841 -0.1153
   37bCD     O2  464   0.890   3.322   4.404 -0.3436  0.1574 -0.1394
   37bCD     C6  465   1.236   3.466   4.094  0.1458  0.1222  0.1314
   37bCD     C4  466   0.558   3.569   3.976 -0.0749 -0.2316  0.3624
   37bCD     O2  467   0.488   3.426   4.145  0.0691  0.0719  0.0334
   37bCD     C6  468   0.806   3.577   3.810 -0.1066 -0.3783  0.3120
   37bCD     C4  469   0.302   3.975   3.943 -0.1898 -0.0705  0.2106
   37bCD     O2  470   0.184   3.842   4.092  0.2214  0.6398  0.5537
   37bCD     C6  471   0.496   3.902   3.744 -0.0730  0.1483 -0.1408
   37bCD     C4  472   0.328   4.433   4.137  0.0662  0.2813 -0.0835
   37bCD     O2  473   0.139   4.355   4.258  0.1356  0.1206 -0.4780
   37bCD     C6  474   0.378   4.433   3.867  0.2215  0.5474 -0.1458
   37bCD     C4  475   0.692   4.491   4.439 -0.2193 -0.0167 -0.1569
   37bCD     O2  476   0.550   4.465   4.602  0.2066  0.2521 -0.3171
   37bCD     C6  477   0.713   4.655   4.190  0.2325  0.0647 -0.0261
   38bCD     C4  478   5.273   4.061   2.872  0.0242  0.0672 -0.1703
   38bCD     O2  479   5.271   4.020   2.620 -0.4784 -0.1712  0.0778
   38bCD     C6  480   5.274   3.895   3.106  0.0248 -0.1221  0.2608
   38bCD     C4  481   5.398   4.514   2.950 -0.1830 -0.2064 -0.0331
   38bCD     O2  482   5.399   4.512   2.688  0.4877 -0.1247 -0.4611
   38bCD     C6  483   5.538   4.351   3.129 -0.0699  0.8061 -0.1425
   38bCD     C4  484   5.102   4.847   3.146  0.0459  0.1213  0.1051
   38bCD     O2  485   5.116   4.944   2.924  0.5828  0.5041 -0.4681
   38bCD     C6  486   5.288   4.730   3.330  0.1128 -0.0013 -0.2886
   38bCD     C4  487   4.622   4.765   3.239  0.0928 -0.0236  0.2497
   38bCD     O2  488   4.619   4.909   3.072  0.2626 -0.5112  0.5783
   38bCD     C6  489   4.771   4.688   3.454 -0.3466 -0.0918  0.2903
   38bCD     C4  490   4.353   4.392   3.083  0.0159  0.1520 -0.1728
   38bCD     O2  491   4.314   4.518   2.920  0.4657 -0.2834  0.2609
   38bCD     C6  492   4.352   4.441   3.393 -0.0934 -0.2231  0.3853
   38bCD     C4  493   4.450   3.937   2.962 -0.0928  0.0297 -0.0188
   38bCD     O2  494   4.359   4.031   2.777  0.2543  0.0537  0.1701
   38bCD     C6  495   4.374   4.011   3.237  0.1017  0.1522  0.1017
   38bCD     C4  496   4.896   3.746   2.872 -0.0220 -0.2474  0.0477
   38bCD     O2  497   4.812   3.755   2.647  0.2319  0.1780 -0.2013
   38bCD     C6  498   4.789   3.670   3.149 -0.5861  0.1691  0.0203
   39bCD     C4  499   1.310   3.275   3.611 -0.1238 -0.3107 -0.1068
   39bCD     O2  500   1.115   3.296   3.724  0.1550 -0.1291 -0.3873
   39bCD     C6  501   1.469   3.056   3.540 -0.1407  0.2481  0.0702
   39bCD     C4  502   1.365   3.702   3.418  0.2759 -0.1370 -0.0974
   39bCD     O2  503   1.142   3.723   3.499 -0.2728 -0.2005 -0.0536
   39bCD     C6  504   1.526   3.514   3.296 -0.1832  0.3494  0.4047
   39bCD     C4  505   1.635   4.053   3.604  0.1731  0.0289  0.0213
   39bCD     O2  506   1.419   4.148   3.648 -0.1867  0.3330 -0.1574
   39bCD     C6  507   1.768   3.895   3.382  0.2863 -0.2622 -0.1795
   39bCD     C4  508   1.839   4.067   4.040  0.3106  0.1308  0.0077
   39bCD     O2  509   1.636   4.171   4.083  0.0629 -0.6965  0.3630
   39bCD     C6  510   2.012   4.090   3.826 -0.1370  0.3345 -0.1306
   39bCD     C4  511   1.869   3.690   4.364  0.2023  0.1108  0.0734
   39bCD     O2  512   1.695   3.814   4.438  0.1338  0.0316 -0.4217
   39bCD     C6  513   2.110   3.774   4.239  0.2913  0.2561  0.0730
   39bCD     C4  514   1.703   3.221   4.339 -0.1802 -0.2643  0.2911
   39bCD     O2  515   1.543   3.341   4.441 -0.2884 -0.3460 -0.2945
   39bCD     C6  516   1.990   3.255   4.284  0.2742  0.1209 -0.1678
   39bCD     C4  517   1.436   3.019   3.991 -0.2061  0.1528 -0.1398
   39bCD     O2  518   1.268   3.044   4.164  0.0087  0.1243 -0.1783
   39bCD     C6  519   1.726   2.931   4.013  0.0661  0.2626 -0.0590
   40bCD     C4  520   2.941   4.467   5.880  0.3000 -0.1557  0.0696
   40bCD     O2  521   2.819   4.303   5.968  0.0709  0.0684  0.5373
   40bCD     C6  522   2.933   4.753   5.860  0.0213 -0.4714 -0.0359
   40bCD     C4  523   3.310   4.268   5.655  0.0683  0.0314 -0.0519
   40bCD     O2  524   3.223   4.076   5.750 -0.0261 -0.2454  0.0587
   40bCD     C6  525   3.360   4.551   5.723  0.1958 -0.0195  0.3644
   40bCD     C4  526   3.271   4.181   5.194  0.1071 -0.1213 -0.1143
   40bCD     O2  527   3.230   3.962   5.277 -0.0016 -0.0157  0.2143
   40bCD     C6  528   3.439   4.409   5.251  0.1004 -0.1416 -0.0193
   40bCD     C4  529   2.868   4.319   4.938 -0.3323 -0.1199  0.2029
   40bCD     O2  530   2.845   4.094   4.954 -0.1563 -0.2839  0.5738
   40bCD     C6  531   3.099   4.509   4.960  0.5856  0.2069  0.2321
   40bCD     C4  532   2.427   4.512   5.030  0.2036 -0.2742 -0.0111
   40bCD     O2  533   2.363   4.284   4.978  0.1162 -0.2135  0.2036
   40bCD     C6  534   2.628   4.684   4.911  0.1140 -0.2076  0.3037
   40bCD     C4  535   2.257   4.655   5.461 -0.0380  0.2015  0.0092
   40bCD     O2  536   2.124   4.472   5.439  0.3574 -0.2206  0.3443
   40bCD     C6  537   2.338   4.865   5.275 -0.1018 -0.1848 -0.2520
   40bCD     C4  538   2.508   4.688   5.869  0.1772  0.3989  0.0053
   40bCD     O2  539   2.351   4.526   5.928  0.3111  0.0745  0.3932
   40bCD     C6  540   2.476   4.944   5.740  0.0871 -0.0905  0.3175
   41WN      WN  541   0.008   5.213   5.977  0.2359 -0.0803 -0.1786
   42WN      WN  542   5.893   5.188   1.080  0.3130  0.3197 -0.3692
   43WN      WN  543   5.426   5.734   0.157  0.3149  0.2132 -0.3011
   44WN      WN  544   0.898   3.111   2.153  0.0267 -0.1132 -0.1537
   45WN      WN  545   5.758   3.675   1.967 -0.1830  0.1444 -0.0034
   46WN      WN  546   0.829   6.115   3.913 -0.2634  0.0592  0.1358
   47WN      WN  547   4.132   1.383   2.075  0.1101 -0.2172 -0.1100
   48WN      WN  548   2.949   3.862   1.776  0.2042 -0.1341 -0.1357
   49WN      WN  549   4.563   4.228   4.293  0.1461  0.1134  0.0692
   50WN      WN  550   5.737   3.297   3.046 -0.1150 -0.1831 -0.0371
   51WN      WN  551   2.557   3.493   5.533  0.0869 -0.1769  0.0129
   52WN      WN  552   4.178   5.956   1.373 -0.1797  0.0329  0.0199
   53WN      WN  553   2.899   5.410   2.785  0.0511 -0.1206 -0.1565
   54WN      WN  554   1.131   0.100   0.825  0.0599  0.3685  0.0247
   55WN      WN  555   3.486   1.863   1.123 -0.0304  0.2157 -0.1298
   56WN      WN  556   1.118   3.226   2.582 -0.1882 -0.0943  0.5735
   57WN      WN  557   1.523   6.541   0.538 -0.1270  0.2222 -0.1908
   58WN      WN  558   5.364   4.294   4.312  0.0460  0.2730 -0.0517
   59WN      WN  559   2.287   4.587   0.724  0.0091 -0.0285  0.2237
   60WN      WN  560   6.013   4.468   6.476  0.2204 -0.1414  0.1620
   61WN      WN  561   5.767   5.111   5.015  0.0959  0.0097 -0.2010
   62WN      WN  562   2.494   1.756   2.117 -0.0702 -0.1986  0.2246
   63WN      WN  563   5.901   3.440   4.487 -0.0111 -0.1891 -0.0589
   64WN      WN  564   6.223   2.932   5.787 -0.1365 -0.0010 -0.2797
   65WN      WN  565   2.837   2.266   4.560  0.2588 -0.0790 -0.1448
   66WN      WN  566   2.212   0.937   0.091 -0.0228  0.0957 -0.2237
   67WN      WN  567   2.815   2.100   0.445  0.0012 -0.3619 -0.1644
   68WN      WN  568   1.237   1.997   5.650  0.0412 -0.1660 -0.0687
   69WN      WN  569   4.497   1.044   6.156  0.3792 -0.3202 -0.0422
   70WN      WN  570   6.352   6.485   0.440 -0.1172 -0.2249 -0.0140
   71WN      WN  571   0.295   1.816   1.426 -0.4780  0.0340  0.0344
   72WN      WN  572   6.042   6.237   5.067  0.1924  0.0351 -0.1069
   73WN      WN  573   5.927   3.670   3.939  0.0123 -0.1052 -0.2159
   74WN      WN  574   1.205   4.064   2.271 -0.1482 -0.1114 -0.2655
   75WN      WN  575   4.835   1.858   4.550  0.1147  0.0314  0.1426
   76WN      WN  576   5.787   2.641   0.593  0.0248  0.2679 -0.1138
   77WN      WN  577   1.725   4.386   2.170  0.1202  0.1900 -0.0125
   78WN      WN  578   3.817   6.036   2.437  0.0201 -0.0250 -0.3607
   79WN      WN  579   2.183   0.552   4.592  0.3542  0.0859  0.0329
   80WN      WN  580   2.706   4.568   1.065 -0.1817 -0.3433  0.1773
   81WN      WN  581   6.117   3.401   1.601  0.2567 -0.1968 -0.0031
   82WN      WN  582   5.512   0.230   2.168 -0.4200 -0.2637  0.0046
   83WN      WN  583   4.035   2.869   5.397 -0.1606 -0.0733  0.5318
   84WN      WN  584   5.298   1.628   3.431  0.2251  0.0081  0.2634
   85WN      WN  585   4.514   2.058   1.358 -0.2528 -0.1355 -0.2068
   86WN      WN  586   4.700   1.978   4.974 -0.2471 -0.2218  0.0011
   87WN      WN  587   0.016   3.275   5.998  0.0570 -0.2439 -0.3781
   88WN      WN  588   2.436   1.074   4.582  0.2346  0.0912  0.0891
   89WN      WN  589   4.497   2.542   4.939 -0.3347  0.1312 -0.2423
   90WN      WN  590   4.165   2.285   3.544  0.2995  0.1331 -0.0419
   91WN      WN  591   5.835   0.581   1.558  0.1395  0.0980 -0.0416
   92WN      WN  592   1.537   3.083   2.120 -0.2188  0.0063 -0.2512
   93WN      WN  593   4.696   5.059   0.232 -0.1704 -0.0628  0.0948
   94WN      WN  594   3.925   3.230   3.251 -0.3610  0.0454  0.1460
   95WN      WN  595   1.721   1.359   0.740  0.0586  0.1404 -0.1081
   96WN      WN  596   2.964   5.539   3.278 -0.0463 -0.1497 -0.1382
   97WN      WN  597   6.251   5.711   1.600  0.1404  0.1262  0.1750
   98WN      WN  598   6.155   3.712   2.805  0.0485 -0.1288 -0.3323
   99WN      WN  599   5.682   3.783   3.057  0.3445  0.2505  0.1407
  100WN      WN  600   5.145   0.402   5.863  0.0343  0.1012  0.5122
  101WN      WN  601   2.260   5.475   1.952  0.1596 -0.0623  0.0211
  102WN      WN  602   5.533   5.607   3.589  0.1197 -0.2662  0.0033
  103WN      WN  603   6.294   4.649   4.429 -0.0800 -0.1240 -0.1784
  104WN      WN  604   0.775   0.825   3.128  0.0159  0.0072  0.1540
  105WN      WN  605   0.703   5.699   1.736 -0.3205  0.0309 -0.6321
  106WN      WN  606   0.665   4.512   6.396  0.2623  0.2471 -0.4647
  107WN      WN  607   5.195   6.459   5.612 -0.1453 -0.1494  0.0612
  108WN      WN  608   2.770   2.926   6.283  0.3316  0.3753 -0.0673
  109WN      WN  609   5.194   0.915   1.452 -0.5033 -0.1503 -0.0591
  110WN      WN  610   4.222   6.266   3.718  0.1693 -0.4056  0.0708
  111WN      WN  611   2.230   4.251   0.328  0.2726 -0.0132  0.1529
  112WN      WN  612   5.725   1.257   5.014  0.1169  0.2227  0.1515
  113WN      WN  613   1.411   2.426   1.446 -0.0090 -0.0911  0.1704
  114WN      WN  614   1.255   2.009   1.805  0.2538  0.0573 -0.2423
  115WN      WN  615   1.495   2.076   6.189 -0.0549 -0.0665 -0.0843
  116WN      WN  616   2.467   5.974   1.529 -0.2727  0.1146  0.0017
  117WN      WN  617   6.082   4.241   0.864 -0.3404 -0.0393 -0.0675
  118WN      WN  618   5.253   1.083   4.756 -0.0549 -0.0567  0.2288
  119WN      WN  619   4.683   5.251   1.136 -0.0682 -0.0491  0.1722
  120WN      WN  620   5.928   2.402   2.475  0.2924  0.0128 -0.2220
  121WN      WN  621   5.896   2.357   1.454 -0.1520 -0.2665 -0.0312
  122WN      WN  622   3.792   0.138   3.730 -0.2369  0.0061 -0.1196
  123WN      WN  623   4.468   4.056   0.128 -0.0274  0.1667  0.1435
  124WN      WN  624   0.883   2.755   6.251  0.0516  0.0346 -0.3161
  125WN      WN  625   0.284   2.305   4.080 -0.0171 -0.0472  0.1482
  126WN      WN  626   5.937   2.186   4.497 -0.1549 -0.2810 -0.2427
  127WN      WN  627   6.365   2.878   2.458  0.0043 -0.3401  0.0318
  128WN      WN  628   3.281   4.375   6.184 -0.2988 -0.1567  0.1336
  129WN      WN  629   3.317   4.649   3.083  0.1552  0.0416  0.1191
  130WN      WN  630   5.262   6.266   2.934  0.2494  0.1283  0.2124
  131WN      WN  631   5.249   4.310   3.497  0.3218 -0.0979  0.2750
  132WN      WN  632   0.354   3.699   6.201 -0.2274  0.0729  0.2297
  133WN      WN  633   5.478   0.243   0.300 -0.4066  0.4347 -0.0818
  134WN      WN  634   1.506   5.119   2.694 -0.1110  0.0245  0.4464
  135WN      WN  635   1.210   5.979   4.388  0.2503  0.0809  0.1415
  136WN      WN  636   4.992   4.188   0.864 -0.4540  0.0069  0.2269
  137WN      WN  637   1.813   1.471   5.017  0.0152  0.1739  0.1417
  138WN      WN  638   6.331   5.729   6.390 -0.1481 -0.0380 -0.0274
  139WN      WN  639   5.153   5.692   4.359 -0.6202  0.2348 -0.0848
  140WN      WN  640   4.568   2.623   2.157  0.0793 -0.0948 -0.0980
  141WN      WN  641   3.901   5.736   4.566 -0.1591  0.0215  0.1299
  142WN      WN  642   4.045   2.045   1.023 -0.0318 -0.2924 -0.0194
  143WN      WN  643   1.058   5.107   3.956 -0.2807  0.0199 -0.1060
  144WN      WN  644   0.359   2.899   2.225  0.0438 -0.0211  0.0559
  145WN      WN  645   1.189   0.546   1.181 -0.1614  0.0879  0.2554
  146WN      WN  646   6.540   1.155   3.380  0.0305  0.0278  0.3223
  147WN      WN  647   4.119   1.179   5.769 -0.1263 -0.5261 -0.3646
  148WN      WN  648   4.458   4.639   2.448 -0.1629 -0.0487 -0.0867
  149WN      WN  649   2.908   6.031   1.938 -0.1085  0.0758 -0.1224
  150WN      WN  650   2.843   2.233   5.548 -0.0157 -0.0084 -0.0129
  151WN      WN  651   4.720   2.243   1.728 -0.3442  0.1924  0.0792
  152WN      WN  652   5.832   5.361   3.824 -0.0642  0.0445  0.0412
  153WN      WN  653   4.242   3.161   5.946  0.0105  0.0535  0.1504
  154WN      WN  654   1.017   6.352   2.686  0.2401  0.3525  0.0977
  155WN      WN  655   5.845   5.879   1.806 -0.0067 -0.1743 -0.2670
  156WN      WN  656   0.955   2.687   5.658 -0.2764  0.0253  0.2104
  157WN      WN  657   6.412   1.078   3.880 -0.1173 -0.1592 -0.2550
  158WN      WN  658   5.512   5.990   1.481  0.2021 -0.1959  0.0066
  159WN      WN  659   1.742   4.239   0.137  0.3671 -0.2640  0.0380
  160WN      WN  660   5.055   2.035   6.177 -0.2251 -0.3761  0.2415
  161WN      WN  661   5.851   1.609   3.229 -0.0719 -0.3455 -0.4321
  162WN      WN  662   6.297   5.549   1.161 -0.0887 -0.1933  0.0123
  163WN      WN  663   5.283   2.640   4.996  0.1642 -0.3085 -0.1873
  164WN      WN  664   3.653   1.936   0.189  0.1389 -0.4219  0.3008
  165WN      WN  665   2.867   0.142   5.654  0.1522 -0.0581 -0.0618
  166WN      WN  666   0.827   3.251   5.550 -0.2195  0.1796  0.0314
  167WN      WN  667   6.120   1.911   2.928  0.0112 -0.0533 -0.1269
  168WN      WN  668   2.198   3.068   5.529  0.0456  0.0204  0.0952
  169WN      WN  669   5.352   3.121   0.483 -0.1633  0.2436 -0.0692
  170WN      WN  670   5.931   2.890   2.808  0.3511  0.1795  0.3726
  171WN      WN  671   1.500   4.358   5.552 -0.1878 -0.3469  0.3680
  172WN      WN  672   6.393   2.495   1.438  0.3666  0.1329  0.3861
  173WN      WN  673   4.646   5.772   2.292  0.0768 -0.1745  0.2354
  174WN      WN  674   1.943   1.945   2.945  0.1142 -0.0240 -0.0821
  175WN      WN  675   3.827   5.767   1.964  0.0492 -0.2451  0.2019
  176WN      WN  676   3.152   1.095   0.356 -0.0674 -0.2994  0.1558
  177WN      WN  677   6.511   2.605   6.027 -0.1675  0.5920 -0.1900
  178WN      WN  678   2.797   4.612   5.405 -0.2891 -0.0068 -0.1155
  179WN      WN  679   6.328   1.890   1.993 -0.1485  0.0206  0.1159
  180WN      WN  680   3.307   4.845   1.559  0.1763  0.1704  0.1717
  181WN      WN  681   5.277   0.469   0.705 -0.2816 -0.2250 -0.2531
  182WN      WN  682   2.410   6.462   5.430  0.1921 -0.3271  0.1168
  183WN      WN  683   6.373   1.670   3.281 -0.1119 -0.1623  0.1605
  184WN      WN  684   0.514   4.145   6.042  0.0005  0.2002 -0.4778
  185WN      WN  685   0.937   3.134   3.294  0.2394  0.0177 -0.1738
  186WN      WN  686   5.044   1.819   1.532  0.1522  0.0947 -0.0684
  187WN      WN  687   1.356   3.920   5.678 -0.0382 -0.3013 -0.0306
  188WN      WN  688   1.278   3.297   1.660  0.1126  0.1242 -0.2339
  189WN      WN  689   0.254   1.456   6.222 -0.0049  0.1369  0.2140
  190WN      WN  690   0.336   5.760   5.188  0.1268 -0.1191  0.1260
  191WN      WN  691   4.631   5.356   0.671  0.1075  0.1315  0.1058
  192WN      WN  692   1.059   3.706   2.963 -0.0643  0.0105 -0.4173
  193WN      WN  693   3.110   5.801   3.695  0.3144  0.2578 -0.0853
  194WN      WN  694   3.096   1.090   6.331 -0.0538  0.1724 -0.1570
  195WN      WN  695   6.253   4.852   5.518  0.1067 -0.0072 -0.3311
  196WN      WN  696   5.042   0.503   5.278  0.1768  0.0334  0.1906
  197WN      WN  697   4.842   2.341   5.253 -0.2525 -0.1317 -0.1346
  198WN      WN  698   3.417   0.175   0.994  0.0387 -0.1357 -0.1002
  199WN      WN  699   1.958   0.614   3.615  0.0256  0.0077 -0.0550
  200WN      WN  700   5.505   2.411   6.196 -0.0925 -0.1619 -0.2388
  201WN      WN  701   6.001   4.303   3.721 -0.2620 -0.1560  0.0798
  202WN      WN  702   4.859   2.284   0.305  0.1729 -0.3223 -0.0889
  203WN      WN  703   0.932   1.524   5.497  0.3428  0.1190  0.1143
  204WN      WN  704   0.217   2.405   3.554  0.2653 -0.3033  0.0690
  205WN      WN  705   3.832   1.749   1.899  0.0172 -0.0202  0.0051
  206WN      WN  706   6.231   4.284   0.327 -0.1873  0.2223 -0.3499
  207WN      WN  707   6.253   6.021   3.147 -0.2914  0.5014 -0.2615
  208WN      WN  708   1.906   1.756   6.371  0.1034  0.3376  0.0257
  209WN      WN  709   2.955   0.008   4.032  0.0215 -0.2121 -0.0102
  210WN      WN  710   3.320   1.952   5.305  0.1972 -0.1565  0.0237
  211WN      WN  711   0.630   0.522   4.797 -0.3790  0.0224  0.3264
  212WN      WN  712   0.094   1.097   5.931  0.0667  0.0973 -0.1575
  213WN      WN  713   5.163   1.078   3.506 -0.3983  0.1662  0.3147
  214WN      WN  714   4.790   2.458   5.909 -0.0010 -0.3649  0.1930
  215WN      WN  715   3.836   0.135   1.736 -0.2234 -0.0263 -0.4344
  216WN      WN  716   2.821   1.097   5.009  0.4195 -0.0317 -0.3622
  217WN      WN  717   0.493   6.100   1.452 -0.2350 -0.1561  0.0927
  218WN      WN  718   0.395   2.509   4.766  0.0423 -0.2779  0.0839
  219WN      WN  719   0.732   3.304   1.648 -0.0484  0.2182 -0.5122
  220WN      WN  720   6.221   1.773   4.203 -0.1371 -0.2324 -0.0070
  221WN      WN  721   6.509   1.122   1.378 -0.0326 -0.2036 -0.0107
  222WN      WN  722   3.152   3.421   1.318  0.1646  0.2030 -0.3024
  223WN      WN  723   5.927   5.772   4.915 -0.1687  0.1032 -0.2974
  224WN      WN  724   3.930   1.305   5.282 -0.1852  0.2050  0.0654
  225WN      WN  725   2.806   4.051   0.118 -0.0412  0.4080 -0.1707
  226WN      WN  726   6.038   0.892   4.850  0.2053  0.1130  0.3469
  227WN      WN  727   5.406   0.772   2.934  0.1827  0.0947  0.2607
  228WN      WN  728   2.963   4.236   3.206 -0.3959 -0.3925 -0.1419
  229WN      WN  729   2.676   1.430   5.433  0.2761  0.3555 -0.0877
  230WN      WN  730   0.562   4.671   3.191 -0.2620  0.0276 -0.0473
  231WN      WN  731   3.566   2.447   5.277 -0.3335  0.3893 -0.0687
  232WN      WN  732   1.610   5.834   3.246  0.3377 -0.2556 -0.0194
  233WN      WN  733   0.069   0.570   0.139  0.1459 -0.2544 -0.2032
  234WN      WN  734   5.988   1.175   3.484 -0.2308 -0.2127 -0.1778
  235WN      WN  735   6.012   2.022   0.175 -0.2371 -0.2312 -0.1103
  236WN      WN  736   5.147   3.770   1.725  0.1373 -0.1991  0.1131
  237WN      WN  737   3.476   1.139   5.039  0.0096  0.0342 -0.1745
  238WN      WN  738   5.998   2.646   6.176 -0.0713  0.1307 -0.1842
  239WN      WN  739   5.918   4.796   3.784 -0.0170 -0.5499  0.0055
  240WN      WN  740   3.558   5.692   4.119  0.1029 -0.1167  0.0966
  241WN      WN  741   5.139   6.001   0.448 -0.0297  0.2199 -0.0015
  242WN      WN  742   4.126   1.462   3.428 -0.0819  0.2018  0.1002
  243WN      WN  743   1.951   1.475   1.588  0.3421 -0.1687  0.3189
  244WN      WN  744   3.976   2.739   6.003  0.0460  0.1113  0.1692
  245WN      WN  745   2.125   1.835   4.883  0.1790 -0.0238  0.1853
  246WN      WN  746   6.369   1.010   2.696  0.0399 -0.1671  0.2534
  247WN      WN  747   2.977   6.086   6.003 -0.2828 -0.0828 -0.0971
  248WN      WN  748   5.806   4.042   2.281 -0.0517  0.1664  0.1357
  249WN      WN  749   2.165   3.420   4.649  0.2283 -0.2585  0.0191
  250WN      WN  750   0.542   4.962   5.001  0.2029  0.1667 -0.0335
  251WN      WN  751   1.435   1.246   3.013  0.0774  0.6549  0.1095
  252WN      WN  752   0.577   0.833   1.495 -0.0482  0.0958 -0.1141
  253WN      WN  753   4.681   0.323   5.598 -0.1677 -0.0402  0.2160
  254WN      WN  754   5.768   6.379   0.349 -0.1525 -0.1318 -0.2866
  255WN      WN  755   4.955   2.980   0.215  0.0747  0.2696  0.1181
  256WN      WN  756   1.550   2.964   0.237 -0.3541 -0.0463  0.0242
  257WN      WN  757   1.728   5.454   1.819  0.2325 -0.1120 -0.1302
  258WN      WN  758   1.114   1.926   1.162  0.0999  0.1330  0.2690
  259WN      WN  759   1.808   1.081   3.972 -0.0325 -0.0036  0.0107
  260WN      WN  760   1.754   0.685   4.345  0.1488  0.4706 -0.3002
  261WN      WN  761   5.370   3.987   3.924  0.0386  0.1180  0.2486
  262WN      WN  762   6.186   3.072   4.088 -0.2061 -0.1400 -0.4653
  263WN      WN  763   3.934   1.352   4.791  0.3483 -0.1212  0.1298
  264WN      WN  764   0.709   3.731   5.425 -0.0812  0.1394 -0.0321
  265WN      WN  765   4.774   2.856   5.128  0.3244 -0.0547  0.0504
  266WN      WN  766   6.521   1.203   1.909 -0.1910  0.2749 -0.2805
  267WN      WN  767   4.173   0.238   5.482  0.0617  0.4860 -0.0399
  268WN      WN  768   5.710   3.678   5.421  0.1366  0.0150 -0.5034
  269WN      WN  769   6.060   6.248   6.494 -0.0148 -0.2108  0.1827
  270WN      WN  770   0.068   1.369   4.260 -0.2977  0.0020 -0.0074
  271WN      WN  771   2.545   1.591   4.673 -0.1261 -0.0426 -0.2518
  272WN      WN  772   3.912   2.156   4.187  0.1986 -0.2721 -0.2637
  273WN      WN  773   1.736   3.810   5.319  0.0568 -0.0076  0.1978
  274WN      WN  774   4.656   1.269   5.698  0.0126 -0.0189 -0.0652
  275WN      WN  775   1.054   3.549   0.260 -0.1492 -0.2229  0.2120
  276WN      WN  776   4.789   0.498   3.575 -0.2331  0.1958 -0.3317
  277WN      WN  777   1.843   2.539   1.505 -0.1483 -0.0771 -0.3402
  278WN      WN  778   1.631   0.037   4.047  0.0930 -0.2153 -0.0094
  279WN      WN  779   0.171   2.805   3.941 -0.0889 -0.0661  0.0404
  280WN      WN  780   4.669   3.319   0.076 -0.3424  0.0853 -0.0991
  281WN      WN  781   1.872   2.211   5.925 -0.2392  0.1524 -0.0070
  282WN      WN  782   0.666   5.853   0.675 -0.0112  0.1833 -0.3645
  283WN      WN  783   1.288   1.274   5.182  0.0229 -0.0781 -0.0044
  284WN      WN  784   4.125   2.762   0.354  0.0319  0.1163 -0.1024
  285WN      WN  785   1.914   0.934   1.371  0.1919 -0.3586  0.5408
  286WN      WN  786   3.432   2.852   6.375 -0.0143  0.1582 -0.1355
  287WN      WN  787   4.094   4.408   0.332 -0.1677 -0.0276 -0.1911
  288WN      WN  788   4.236   5.850   3.204  0.0109  0.3375  0.3446
  289WN      WN  789   1.446   2.293   0.176 -0.1015  0.0427 -0.0503
  290WN      WN  790   1.014   0.385   5.433  0.0638  0.0068 -0.1914
  291WN      WN  791   0.829   2.517   5.191  0.0833  0.4299 -0.0676
  292WN      WN  792   1.394   3.656   2.587  0.0293 -0.2011  0.1374
  293WN      WN  793   1.349   4.608   1.254 -0.4377 -0.2797 -0.1052
  294WN      WN  794   5.522   6.015   5.411 -0.3245 -0.3007 -0.0991
  295WN      WN  795   4.542   2.662   1.359 -0.0470  0.0811  0.2211
  296WN      WN  796   4.889   2.680   4.667 -0.0678 -0.0790  0.0029
  297WN      WN  797   2.657   1.138   4.018  0.0965  0.0566  0.0539
  298WN      WN  798   6.377   4.687   2.258 -0.2470  0.2249  0.1187
  299WN      WN  799   4.987   1.610   5.449  0.1308  0.0259  0.1001
  300WN      WN  800   4.901   0.181   0.123 -0.1903  0.2016 -0.3136
  301WN      WN  801   5.413   1.293   5.533 -0.2727  0.2579 -0.2811
  302WN      WN  802   0.665   0.716   2.312  0.3228 -0.1173 -0.0342
  303WN      WN  803   3.947   0.697   5.204 -0.0663 -0.0257  0.2636
  304WN      WN  804   1.444   0.870   6.228  0.3033 -0.2158 -0.0485
  305WN      WN  805   3.668   0.369   2.273  0.0950 -0.1360  0.0617
  306WN      WN  806   4.552   5.966   1.768 -0.0540  0.1480  0.1077
  307WN      WN  807   6.474   3.803   5.816 -0.3312 -0.0836  0.1973
  308WN      WN  808   3.711   5.758   0.256 -0.3282 -0.1671 -0.0217
  309WN      WN  809   0.868   5.038   6.320  0.0480 -0.2118 -0.1938
  310WN      WN  810   1.553   1.419   2.414 -0.2718  0.0497  0.0879
  311WN      WN  811   2.301   3.959   5.385 -0.2349 -0.2464 -0.2911
  312WN      WN  812   5.276   3.787   2.204  0.2516 -0.1107 -0.2863
  313WN      WN  813   1.777   0.537   1.169 -0.1020  0.1486  0.0253
  314WN      WN  814   2.922   1.001   2.476 -0.3151  0.1667 -0.5585
  315WN      WN  815   4.844   0.848   4.966 -0.4500  0.0750  0.0279
  316WN      WN  816   6.523   4.253   3.668 -0.2058 -0.2049 -0.1981
  317WN      WN  817   4.276   3.717   1.815  0.1795 -0.1287  0.0359
  318WN      WN  818   5.162   0.149   3.789  0.0266 -0.0951  0.3381
  319WN      WN  819   5.845   5.484   4.452  0.1685 -0.4646  0.1625
  320WN      WN  820   5.422   0.073   3.266  0.0108  0.2823 -0.1677
  321WN      WN  821   6.226   4.989   4.797  0.4304  0.4937 -0.1051
  322WN      WN  822   4.417   5.038   5.677 -0.0603 -0.2034 -0.0905
  323WN      WN  823   5.180   3.758   5.480 -0.2314  0.0191  0.1483
  324WN      WN  824   0.212   0.447   5.099 -0.0588  0.1185 -0.2976
  325WN      WN  825   4.034   3.779   0.961  0.3788  0.3343 -0.0716
  326WN      WN  826   3.895   2.693   6.497 -0.2266 -0.0912 -0.0165
  327WN      WN  827   0.588   6.138   2.470  0.3030  0.3002 -0.3328
  328WN      WN  828   5.831   2.876   2.342 -0.3761 -0.0785  0.1156
  329WN      WN  829   5.048   6.412   6.219 -0.2250  0.2298 -0.1232
  330WN      WN  830   1.435   5.735   2.177  0.2388 -0.2271  0.1112
  331WN      WN  831   5.823   2.477   0.071 -0.2395  0.0245 -0.1636
  332WN      WN  832   1.136   6.451   4.217  0.4004  0.0926 -0.3446
  333WN      WN  833   5.841   4.510   4.207 -0.1145  0.2681  0.1496
  334WN      WN  834   1.934   0.996   4.842 -0.4033 -0.0553 -0.2054
  335WN      WN  835   5.079   1.205   3.993  0.4609 -0.0765 -0.0591
  336WN      WN  836   6.229   0.688   5.827 -0.2380 -0.1741  0.2694
  337WN      WN  837   2.736   0.738   3.184  0.2146  0.1061  0.0855
  338WN      WN  838   5.137   4.384   5.386  0.2033 -0.0350 -0.0710
  339WN      WN  839   5.996   0.070   5.438  0.1035 -0.1518 -0.2105
  340WN      WN  840   0.260   4.901   4.055  0.0524 -0.3604 -0.2085
  341WN      WN  841   1.974   1.775   4.415 -0.2587  0.3646  0.1657
  342WN      WN  842   3.675   1.879   2.744  0.3332  0.2825 -0.0469
  343WN      WN  843   0.535   1.266   3.151  0.1466 -0.0847 -0.2610
  344WN      WN  844   0.241   1.754   2.395 -0.0461  0.2836 -0.0577
  345WN      WN  845   0.098   5.901   1.270  0.0984  0.0197  0.0609
  346WN      WN  846   2.800   5.869   0.754  0.2223 -0.1292 -0.0532
  347WN      WN  847   3.114   5.164   6.267 -0.1432  0.0182  0.1000
  348WN      WN  848   3.990   4.926   6.393  0.0034 -0.1509  0.0697
  349WN      WN  849   3.285   2.387   4.378 -0.0584 -0.1472 -0.1583
  350WN      WN  850   0.715   2.799   0.426 -0.3145  0.2720 -0.0169
  351WN      WN  851   6.333   5.673   0.383  0.1282 -0.0569 -0.1355
  352WN      WN  852   0.492   3.453   2.072  0.2032 -0.3484  0.3333
  353WN      WN  853   2.037   4.177   4.476 -0.1681  0.1645  0.2059
  354WN      WN  854   1.326   0.066   2.364  0.0707 -0.1305 -0.5173
  355WN      WN  855   2.228   2.909   4.472 -0.2339  0.1495 -0.1946
  356WN      WN  856   1.900   0.044   5.859 -0.0379 -0.0404 -0.0693
  357WN      WN  857   6.097   1.467   1.188  0.0657  0.2588  0.0904
  358WN      WN  858   3.226   3.122   5.720  0.1704 -0.2629 -0.2103
  359WN      WN  859   3.906   0.174   4.376 -0.0349  0.1530 -0.0529
  360WN      WN  860   5.413   5.263   3.211 -0.1913  0.3326  0.0951
  361WN      WN  861   4.428   2.533   3.119 -0.2821  0.4881  0.1580
  362WN      WN  862   6.463   1.102   0.800  0.2137  0.0794  0.1402
  363WN      WN  863   1.213   1.743   3.238  0.2400 -0.1210 -0.0158
  364WN      WN  864   5.192   3.071   3.858 -0.3086 -0.0134 -0.0086
  365WN      WN  865   1.917   5.315   2.317  0.0235 -0.0404  0.1623
  366WN      WN  866   0.543   2.569   0.890  0.3115  0.0431  0.0432
  367WN      WN  867   0.323   4.679   0.934  0.1457 -0.0818  0.3359
  368WN      WN  868   3.661   3.460   2.296 -0.0822 -0.2827  0.1817
  369WN      WN  869   0.646   5.888   4.330 -0.0113 -0.2801  0.1173
  370WN      WN  870   4.281   4.138   5.742 -0.0886  0.3393  0.1148
  371WN      WN  871   2.313   0.448   1.383  0.4242 -0.2275 -0.0926
  372WN      WN  872   1.100   0.658   0.713  0.0859  0.0650  0.0114
  373WN      WN  873   4.618   6.335   4.682  0.1600 -0.0325 -0.0537
  374WN      WN  874   2.013   5.329   1.024 -0.1317 -0.2120 -0.1071
  375WN      WN  875   4.439   3.112   0.452 -0.0273 -0.0545  0.1375
  376WN      WN  876   1.997   5.647   2.984  0.0800  0.0230 -0.1341
  377WN      WN  877   6.040   5.571   3.465  0.2172  0.0829  0.0279
  378WN      WN  878   5.383   4.656   6.285 -0.1642  0.0163  0.3284
  379WN      WN  879   0.417   0.977   1.929  0.0677  0.1124  0.0653
  380WN      WN  880   6.278   1.647   5.526  0.0810 -0.3255 -0.2102
  381WN      WN  881   1.446   1.856   2.825 -0.3367 -0.5165 -0.0107
  382WN      WN  882   4.361   4.871   0.992 -0.2886 -0.1328 -0.2071
  383WN      WN  883   1.951   1.761   2.493 -0.2461  0.1862 -0.1011
  384WN      WN  884   4.168   2.593   2.559  0.1223  0.3369 -0.0203
  385WN      WN  885   2.216   5.411   0.224  0.0766 -0.2321 -0.3592
  386WN      WN  886   1.041   3.292   1.167 -0.1351  0.1972 -0.2370
  387WN      WN  887   1.716   3.347   5.432  0.1050 -0.0084  0.0189
  388WN      WN  888   6.226   5.773   5.916  0.2193  0.2916  0.1218
  389WN      WN  889   1.104   0.237   3.064 -0.2433 -0.1653 -0.0305
  390WN      WN  890   1.465   4.678   1.774  0.1484  0.0167 -0.3581
  391WN      WN  891   4.814   0.693   2.642  0.0571 -0.0945  0.1550
  392WN      WN  892   2.346   2.882   2.344  0.0462  0.1006 -0.0588
  393WN      WN  893   5.859   4.540   5.576 -0.0496  0.0888  0.3128
  394WN      WN  894   2.968   3.829   6.181  0.2371  0.1119  0.3455
  395WN      WN  895   3.537   4.668   1.134 -0.2185 -0.1761 -0.0596
  396WN      WN  896   6.105   0.606   0.801 -0.1706 -0.1790 -0.0849
  397WN      WN  897   1.822   0.666   6.500  0.2557 -0.1670  0.0124
  398WN      WN  898   5.484   1.222   6.409 -0.3244  0.0896 -0.0225
  399WN      WN  899   2.550   6.358   0.992  0.2081 -0.5506 -0.0831
  400WN      WN  900   1.818   5.930   4.916  0.4337 -0.1296  0.2735
  401WN      WN  901   3.392   1.739   3.728 -0.0938 -0.3304 -0.0290
  402WN      WN  902   1.667   5.203   1.384 -0.1530  0.2894 -0.0676
  403WN      WN  903   2.363   6.471   1.451 -0.0778  0.0120  0.3727
  404WN      WN  904   2.797   1.222   5.884  0.0781 -0.0006 -0.1454
  405WN      WN  905   1.808   1.113   1.960  0.1608 -0.1221  0.1446
  406WN      WN  906   2.751   0.534   1.623  0.1715 -0.0585 -0.1727
  407WN      WN  907   0.158   4.394   6.284 -0.1434  0.1455  0.0115
  408WN      WN  908   3.822   4.226   1.863 -0.2190  0.2856  0.1875
  409WN      WN  909   5.880   6.421   2.043 -0.0427  0.2112  0.2797
  410WN      WN  910   4.788   6.512   5.237  0.3145  0.1637  0.1196
  411WN      WN  911   0.068   2.130   1.044 -0.0723  0.2565 -0.2304
  412WN      WN  912   0.248   5.812   4.616  0.4623  0.0019 -0.1001
  413WN      WN  913   5.506   4.082   5.185  0.1739 -0.1296  0.2336
  414WN      WN  914   1.977   0.883   0.839  0.2606  0.0668  0.1104
  415WN      WN  915   0.273   0.113   0.274 -0.2783  0.1159 -0.0328
  416WN      WN  916   0.825   0.236   4.444  0.1957 -0.2433  0.2431
  417WN      WN  917   3.218   0.219   4.844  0.0533 -0.1165 -0.0443
  418WN      WN  918   1.998   0.337   4.115  0.2706 -0.1929  0.1458
  419WN      WN  919   3.394   5.832   0.661  0.3080 -0.0070  0.1224
  420WN      WN  920   5.500   1.985   2.733 -0.2920  0.1799 -0.1169
  421WN      WN  921   0.592   1.996   3.869  0.2817 -0.1484 -0.3006
  422WN      WN  922   4.209   0.947   4.852 -0.0386  0.1024  0.1664
  423WN      WN  923   6.475   2.979   3.486  0.0947  0.0786  0.3139
  424WN      WN  924   1.427   1.346   1.336 -0.0881  0.2054  0.0075
  425WN      WN  925   2.027   6.125   3.258 -0.2471  0.1124 -0.3405
  426WN      WN  926   3.042   3.486   4.444 -0.0812  0.0837 -0.1112
  427WN      WN  927   2.623   3.326   2.396 -0.1486  0.2466  0.2296
  428WN      WN  928   1.919   1.152   5.370  0.2197  0.0093  0.1668
  429WN      WN  929   1.319   5.119   6.219 -0.1626  0.1996  0.5464
  430WN      WN  930   0.776   3.834   6.431 -0.3965 -0.3912 -0.0048
  431WN      WN  931   0.551   3.910   0.323 -0.2361 -0.4540 -0.1551
  432WN      WN  932   6.204   3.907   4.604  0.1235 -0.2995 -0.1973
  433WN      WN  933   5.305   2.458   5.497  0.4114  0.0413 -0.0427
  434WN      WN  934   3.239   1.402   1.105  0.3526  0.1021 -0.1274
  435WN      WN  935   0.020   6.385   1.659 -0.1755  0.0559  0.0701
  436WN      WN  936   0.907   2.704   2.767 -0.0642  0.0420  0.1294
  437WN      WN  937   3.388   0.143   2.632  0.1547  0.0055 -0.0060
  438WN      WN  938   0.253   1.237   2.352  0.0666 -0.0101  0.0610
  439WN      WN  939   5.120   0.820   6.192 -0.3643  0.0317  0.2104
  440WN      WN  940   3.874   5.462   3.165 -0.1903  0.1834 -0.0761
  441WN      WN  941   0.968   4.097   3.223 -0.1795 -0.1242 -0.1392
  442WN      WN  942   3.836   2.348   4.650  0.0467  0.3289 -0.0040
  443WN      WN  943   0.600   0.056   5.127  0.1138  0.1772  0.1886
  444WN      WN  944   6.244   5.269   0.681  0.1528  0.0552  0.7313
  445WN      WN  945   3.199   2.000   2.768 -0.1380  0.3475  0.1147
  446WN      WN  946   3.733   1.379   2.401 -0.2206 -0.0054 -0.1055
  447WN      WN  947   2.088   1.341   1.088  0.0611  0.2766 -0.0510
  448WN      WN  948   5.262   5.194   5.090 -0.0484 -0.3628 -0.2007
  449WN      WN  949   3.535   3.430   4.694  0.1462 -0.1033 -0.0037
  450WN      WN  950   0.978   2.469   1.220 -0.2619 -0.2173 -0.3122
  451WN      WN  951   4.862   1.823   0.063  0.0337  0.1847 -0.2632
  452WN      WN  952   1.042   1.098   1.675  0.0599 -0.0875  0.1982
  453WN      WN  953   0.821   1.576   6.476 -0.1189 -0.2049 -0.0553
  454WN      WN  954   5.343   1.668   1.901 -0.1261  0.0010  0.3367
  455WN      WN  955   6.452   1.581   1.565 -0.0889  0.1546 -0.2009
  456WN      WN  956   3.492   1.934   4.265 -0.0219 -0.0760 -0.1479
  457WN      WN  957   2.543   5.451   0.708 -0.2047  0.1096  0.2967
  458WN      WN  958   2.104   6.104   5.721 -0.2598  0.2910  0.0517
  459WN      WN  959   2.086   0.047   3.059  0.1498  0.1405 -0.1320
  460WN      WN  960   4.231   2.675   4.473 -0.1872 -0.2706 -0.0957
  461WN      WN  961   4.828   2.874   5.603  0.3108  0.0810 -0.1248
  462WN      WN  962   6.004   5.992   4.496 -0.1167  0.1209  0.1012
  463WN      WN  963   6.221   0.056   5.957  0.0754 -0.1283 -0.3806
  464WN      WN  964   4.743   6.421   5.849 -0.0359 -0.1561 -0.0542
  465WN      WN  965   2.929   0.039   2.634  0.0951  0.0082  0.4056
  466WN      WN  966   2.883   1.122   3.448  0.2127  0.1113 -0.0613
  467WN      WN  967   4.376   5.901   4.712 -0.2432 -0.0901  0.4115
  468WN      WN  968   2.738   3.293   1.026 -0.0979  0.2437  0.5077
  469WN      WN  969   2.850   4.259   1.424  0.1993 -0.0743  0.1303
  470WN      WN  970   0.754   1.770   4.468 -0.1637  0.0547 -0.0819
  471WN      WN  971   4.688   4.430   0.436 -0.1089  0.0930 -0.0812
  472WN      WN  972   1.390   1.087   0.930  0.3372  0.2620 -0.3180
  473WN      WN  973   3.836   1.038   4.247  0.1185  0.1139 -0.1058
  474WN      WN  974   4.944   3.349   6.214  0.0789  0.1432 -0.2438
  475WN      WN  975   5.822   0.842   5.505  0.0054  0.1411  0.1560
  476WN      WN  976   2.815   0.594   5.847 -0.2924 -0.1043  0.3463
  477WN      WN  977   2.349   2.759   0.745  0.0702 -0.2457 -0.0861
  478WN      WN  978   5.699   1.811   4.262  0.2971  0.2606  0.0490
  479WN      WN  979   3.749   4.906   3.304 -0.0619 -0.0319 -0.0269
  480WN      WN  980   4.661   5.307   2.063 -0.0433 -0.0683 -0.1685
  481WN      WN  981   6.320   3.549   4.208 -0.1155 -0.0748  0.0585
  482WN      WN  982   3.564   0.989   6.525  0.1391  0.0413 -0.1028
  483WN      WN  983   6.123   4.165   5.621  0.4625 -0.1627  0.0323
  484WN      WN  984   6.088   3.301   2.581 -0.2621  0.0908  0.1672
  485WN      WN  985   1.457   5.022   0.273 -0.0056  0.2749 -0.1212
  486WN      WN  986   6.538   5.234   3.278 -0.0236  0.0676 -0.3337
  487WN      WN  987   0.393   2.228   5.161 -0.2266 -0.2178 -0.2218
  488WN      WN  988   5.387   1.427   4.330 -0.0268 -0.1988 -0.0932
  489WN      WN  989   0.009   4.850   5.138 -0.1212 -0.0450  0.2354
  490WN      WN  990   6.168   3.023   5.196 -0.1735 -0.1197  0.4669
  491WN      WN  991   4.774   0.329   4.922  0.2223  0.1039  0.1816
  492WN      WN  992   6.493   5.025   1.046  0.0035 -0.4076  0.2073
  493WN      WN  993   3.191   0.591   1.228 -0.1095  0.2042 -0.0086
  494WN      WN  994   4.122   1.035   3.822 -0.1959  0.0032  0.0303
  495WN      WN  995   2.219   0.289   2.448 -0.0043 -0.2110 -0.0548
  496WN      WN  996   1.850   4.954   2.004  0.1675 -0.2526 -0.4201
  497WN      WN  997   6.180   1.417   5.102  0.1311 -0.1976 -0.0280
  498WN      WN  998   2.069   4.747   2.540  0.0370  0.3467  0.3758
  499WN      WN  999   6.420   5.876   5.204 -0.2550  0.1043  0.0117
  500WN      WN 1000   1.123   4.125   1.199  0.1481 -0.0177 -0.0638
  501WN      WN 1001   2.783   0.178   0.578 -0.0864  0.0010 -0.0388
  502WN      WN 1002   5.227   0.909   2.426  0.1694  0.1007  0.2164
  503WN      WN 1003   3.269   2.542   2.097 -0.0834  0.0884  0.6074
  504WN      WN 1004   2.688   2.347   0.036  0.0036 -0.0964 -0.2023
  505WN      WN 1005   5.683   2.475   1.885 -0.0079  0.2641 -0.0106
  506WN      WN 1006   3.524   6.057   4.444  0.1081 -0.0598 -0.3084
  507WN      WN 1007   0.087   4.813   1.792 -0.2128 -0.2740  0.2627
  508WN      WN 1008   4.820   4.195   3.182  0.0059 -0.1406 -0.2744
  509WN      WN 1009   5.318   0.816   4.301 -0.0941 -0.0512  0.1687
  510WN      WN 1010   0.283   3.311   3.135  0.2522 -0.2618  0.2483
  511WN      WN 1011   0.325   3.073   0.306 -0.0884  0.2054 -0.1561
  512WN      WN 1012   2.646   3.178   4.642 -0.0288 -0.0621 -0.0623
  513WN      WN 1013   6.418   6.093   4.776 -0.0206 -0.0501  0.1445
  514WN      WN 1014   2.179   2.992   1.690 -0.1739 -0.1465 -0.1119
  515WN      WN 1015   6.237   3.248   0.970  0.5683 -0.1337  0.1728
  516WN      WN 1016   0.158   5.447   3.990  0.0161 -0.4857 -0.0008
  517WN      WN 1017   6.022   0.254   0.238 -0.2061 -0.3123  0.0650
  518WN      WN 1018   5.028   1.140   5.350  0.3499  0.2018 -0.1010
  519WN      WN 1019   5.347   5.414   3.994  0.0726 -0.5513  0.0905
  520WN      WN 1020   5.379   2.863   1.989 -0.3292  0.3100  0.1133
  521WN      WN 1021   1.115   2.342   3.888 -0.1859  0.2661 -0.2945
  522WN      WN 1022   3.208   2.476   1.510  0.1088  0.1117 -0.0292
  523WN      WN 1023   4.501   1.632   2.365 -0.0165  0.2424 -0.3283
  524WN      WN 1024   0.371   4.507   0.371 -0.0021 -0.0205  0.3013
  525WN      WN 1025   3.587   0.448   4.585  0.0477  0.0380 -0.0488
  526WN      WN 1026   5.712   6.274   4.190  0.0554 -0.0520 -0.1802
  527WN      WN 1027   3.357   2.512   0.774 -0.1960 -0.1130 -0.2096
  528WN      WN 1028   4.260   5.564   5.777 -0.2522 -0.2590 -0.0922
  529WN      WN 1029   6.476   5.965   4.238 -0.1807  0.0566  0.2148
  530WN      WN 1030   5.739   2.834   5.061 -0.0571  0.1687  0.2357
  531WN      WN 1031   1.731   0.966   2.613 -0.0159 -0.2505  0.2649
  532WN      WN 1032   6.088   3.172   2.046  0.2952  0.0281 -0.1544
  533WN      WN 1033   5.891   3.906   6.455  0.2205 -0.3614 -0.1264
  534WN      WN 1034   2.310   3.041   6.038  0.4999 -0.1050  0.0122
  535WN      WN 1035   5.805   6.352   2.991  0.0276  0.5369  0.0454
  536WN      WN 1036   5.443   4.151   5.688  0.0250  0.1669 -0.1157
  537WN      WN 1037   0.579   5.179   3.127  0.0672 -0.0389  0.0853
  538WN      WN 1038   3.174   0.623   6.540  0.2322 -0.0433  0.1241
  539WN      WN 1039   2.326   2.095   4.539  0.0798  0.1197 -0.0508
  540WN      WN 1040   5.564   3.266   4.146 -0.1127  0.2407  0.1368
  541WN      WN 1041   6.415   3.699   0.739 -0.0467  0.1476 -0.0940
  542WN      WN 1042   1.284   0.785   3.140 -0.2379 -0.2277  0.1542
  543WN      WN 1043   4.402   2.623   5.624 -0.1563  0.2201  0.1270
  544WN      WN 1044   2.056   0.022   3.585  0.0643 -0.3127  0.0272
  545WN      WN 1045   4.799   5.594   2.679 -0.0990  0.2448 -0.0462
  546WN      WN 1046   0.097   4.219   0.850  0.0127 -0.3642  0.1953
  547WN      WN 1047   0.194   2.666   0.521  0.1395  0.0216 -0.2285
  548WN      WN 1048   2.903   5.620   6.114  0.1176  0.0747  0.0828
  549WN      WN 1049   2.743   2.307   1.390 -0.1947 -0.0231  0.3650
  550WN      WN 1050   3.866   1.062   3.300  0.1275  0.0154 -0.2397
  551WN      WN 1051   0.660   5.453   2.759  0.1473 -0.3175 -0.0785
  552WN      WN 1052   4.076   2.777   4.925  0.0545  0.0589 -0.2237
  553WN      WN 1053   4.558   1.377   3.213  0.0242  0.0803  0.1206
  554WN      WN 1054   0.930   2.160   3.443  0.1661 -0.1494  0.1892
  555WN      WN 1055   2.928   0.642   5.185 -0.1998  0.0110 -0.1199
  556WN      WN 1056   1.377   0.886   3.625  0.0359 -0.0593 -0.0444
  557WN      WN 1057   2.116   4.129   0.958  0.3408  0.3056 -0.1717
  558WN      WN 1058   4.652   2.874   4.201  0.2825 -0.1145 -0.1381
  559WN      WN 1059   5.911   6.271   1.582  0.1971 -0.1021  0.0423
  560WN      WN 1060   1.127   0.482   4.737  0.0478  0.1164  0.1074
  561WN      WN 1061   2.485   6.293   2.866 -0.2613 -0.0977 -0.2727
  562WN      WN 1062   1.348   5.618   6.053 -0.2251 -0.1365  0.1017
  563WN      WN 1063   1.009   1.183   3.365  0.2011 -0.1632 -0.1368
  564WN      WN 1064   3.185   5.825   1.468 -0.3808  0.2340 -0.0552
  565WN      WN 1065   6.373   5.048   2.642  0.4532  0.0250  0.0475
  566WN      WN 1066   4.371   2.340   0.415  0.1122 -0.2062  0.0759
  567WN      WN 1067   2.584   4.377   6.374  0.0246  0.0239  0.0495
  568WN      WN 1068   2.547   2.251   0.906  0.3289 -0.1792 -0.0306
  569WN      WN 1069   6.517   2.594   5.016 -0.3247 -0.3422 -0.1829
  570WN      WN 1070   5.710   1.891   1.544 -0.0340 -0.0904  0.0133
  571WN      WN 1071   1.022   5.224   5.749  0.2986  0.1860  0.1952
  572WN      WN 1072   3.868   4.079   2.810  0.1494  0.0530 -0.1174
  573WN      WN 1073   2.336   2.441   1.771  0.0322 -0.2059  0.2568
  574WN      WN 1074   3.296   4.555   0.087  0.1988 -0.3194 -0.0705
  575WN      WN 1075   6.537   3.370   3.789 -0.0733 -0.0106  0.0593
  576WN      WN 1076   0.636   6.029   2.971  0.1559 -0.0509  0.0085
  577WN      WN 1077   2.459   1.873   5.374 -0.1165  0.0466  0.2527
  578WN      WN 1078   0.535   4.631   5.851 -0.1490 -0.0691 -0.3481
  579WN      WN 1079   0.185   4.966   0.489 -0.0767  0.2854 -0.2485
  580WN      WN 1080   6.039   1.365   4.138  0.1910  0.0208  0.0842
  581WN      WN 1081   5.099   0.456   3.174  0.0737  0.1046 -0.0408
  582WN      WN 1082   5.922   2.849   3.322 -0.1853 -0.3249  0.0769
  583WN      WN 1083   5.299   3.571   5.034 -0.1201  0.2123  0.2848
  584WN      WN 1084   1.930   3.022   6.430 -0.0949 -0.1689 -0.1945
  585WN      WN 1085   3.785   6.249   3.983  0.1330  0.2489 -0.0339
  586WN      WN 1086   1.669   0.945   5.812  0.2074 -0.0948  0.0670
  587WN      WN 1087   5.702   2.454   3.591 -0.0920  0.0576  0.1247
  588WN      WN 1088   4.256   4.090   0.704 -0.0546 -0.0354 -0.0104
  589WN      WN 1089   3.127   6.333   0.766 -0.1518 -0.2881 -0.0217
  590WN      WN 1090   4.401   2.854   0.945 -0.0911 -0.2362  0.0479
  591WN      WN 1091   4.452   0.062   2.486  0.0382 -0.0399  0.1857
  592WN      WN 1092   2.475   3.893   1.473 -0.0030  0.1626 -0.1113
  593WN      WN 1093   3.103   0.790   3.912  0.1383  0.1683  0.1482
  594WN      WN 1094   1.492   0.596   0.349 -0.2089 -0.0325 -0.0444
  595WN      WN 1095   0.325   0.959   4.862  0.1515 -0.3584 -0.0672
  596WN      WN 1096   1.466   3.623   1.362  0.0432 -0.1631 -0.2726
  597WN      WN 1097   1.869   0.039   2.119  0.2285 -0.0475  0.3112
  598WN      WN 1098   2.872   4.654   4.043 -0.2253 -0.0782 -0.4118
  599WN      WN 1099   2.568   1.427   2.439 -0.0909 -0.1257  0.0444
  600WN      WN 1100   0.636   2.024   2.124  0.2058 -0.2360 -0.1198
  601WN      WN 1101   3.524   2.656   2.660  0.1092 -0.3150  0.0611
  602WN      WN 1102   1.719   3.227   6.022  0.0293  0.0291 -0.0555
  603WN      WN 1103   3.203   5.688   4.585  0.0420  0.0074 -0.2424
  604WN      WN 1104   0.868   5.664   6.004  0.3405  0.1614  0.1262
  605WN      WN 1105   0.614   4.703   1.833  0.1486  0.5876  0.1044
  606WN      WN 1106   0.301   4.909   1.363  0.0234 -0.0221  0.2258
  607WN      WN 1107   4.815   5.685   0.235 -0.0065  0.0746 -0.2899
  608WN      WN 1108   5.940   5.403   6.155 -0.4499  0.2722  0.2026
  609WN      WN 1109   0.456   5.209   1.770  0.1072  0.0182 -0.1703
  610WN      WN 1110   1.252   3.525   5.194 -0.0695  0.2273  0.2504
  611WN      WN 1111   4.770   1.290   2.652  0.1839  0.0847 -0.0204
  612WN      WN 1112   5.138   4.291   6.110  0.1892 -0.1840  0.1367
  613WN      WN 1113   4.795   0.273   1.578 -0.4387  0.5248 -0.0359
  614WN      WN 1114   3.101   2.171   1.092  0.0309  0.0416 -0.0769
  615WN      WN 1115   6.300   5.628   4.619  0.0382 -0.1699  0.1830
  616WN      WN 1116   2.341   2.288   5.711 -0.0236 -0.0548  0.1535
  617WN      WN 1117   0.056   0.523   6.182  0.1823 -0.3911 -0.1650
  618WN      WN 1118   3.798   0.990   2.826  0.2156  0.0608  0.1668
  619WN      WN 1119   5.245   2.061   5.185  0.0431 -0.0211 -0.2255
  620WN      WN 1120   2.341   1.293   5.104 -0.0266 -0.0816  0.1111
  621WN      WN 1121   0.657   3.292   0.695  0.1092 -0.2074  0.1987
  622WN      WN 1122   4.759   6.021   4.123  0.0204 -0.3229  0.4360
  623WN      WN 1123   1.825   4.666   0.398 -0.0690  0.2310  0.0286
  624WN      WN 1124   0.755   6.068   3.438 -0.1075  0.0612  0.0022
  625WN      WN 1125   4.696   1.722   5.973 -0.1677 -0.1891  0.0693
  626WN      WN 1126   3.094   4.269   0.990  0.0545 -0.1091 -0.1723
  627WN      WN 1127   0.063   3.950   5.114  0.2024 -0.3883 -0.2900
  628WN      WN 1128   0.382   5.179   3.640 -0.0948  0.1098 -0.0706
  629WN      WN 1129   0.930   2.820   1.567  0.0396  0.2456 -0.1255
  630WN      WN 1130   5.378   2.692   0.168 -0.0627 -0.0418  0.0104
  631WN      WN 1131   1.584   6.354   6.310  0.0043  0.3246  0.0846
  632WN      WN 1132   3.509   1.594   5.042  0.2811  0.0613 -0.1562
  633WN      WN 1133   0.538   3.136   1.170 -0.1282 -0.1960  0.2350
  634WN      WN 1134   3.020   5.533   0.071  0.2383 -0.2136 -0.0971
  635WN      WN 1135   2.359   4.729   0.198 -0.4120  0.1291  0.1283
  636WN      WN 1136   0.608   4.293   0.864  0.3163 -0.4252  0.1349
  637WN      WN 1137   3.487   4.256   2.273  0.0543  0.1956  0.2918
  638WN      WN 1138   3.162   2.915   2.964  0.2612 -0.2297 -0.1931
  639WN      WN 1139   1.573   6.165   1.384  0.0355  0.0823 -0.0470
  640WN      WN 1140   1.802   2.334   0.528  0.0503 -0.2663  0.0604
  641WN      WN 1141   3.068   6.408   3.525 -0.2553  0.0427  0.1293
  642WN      WN 1142   1.418   1.484   3.579  0.1489  0.1885  0.1995
  643WN      WN 1143   3.870   2.337   2.862  0.0868 -0.1123 -0.1835
  644WN      WN 1144   2.832   5.421   4.814 -0.1756  0.0030  0.0281
  645WN      WN 1145   4.344   1.908   4.202 -0.1397 -0.1973  0.1636
  646WN      WN 1146   2.257   0.176   0.927  0.0953  0.0133  0.1229
  647WN      WN 1147   6.464   4.296   2.001  0.0392  0.1439 -0.0180
  648WN      WN 1148   4.975   0.311   4.421  0.0414  0.0917 -0.1143
  649WN      WN 1149   5.539   2.537   4.060 -0.1712  0.0781 -0.0325
  650WN      WN 1150   0.491   0.020   1.649 -0.4217 -0.0310  0.3160
  651WN      WN 1151   1.978   1.209   2.967  0.1798 -0.2820  0.0498
  652WN      WN 1152   4.940   2.917   2.378  0.1289  0.2730  0.2388
  653WN      WN 1153   6.029   6.184   0.720  0.0381 -0.2508  0.1024
  654WN      WN 1154   3.680   2.458   1.229  0.4147  0.0394  0.1898
  655WN      WN 1155   2.843   1.595   4.015 -0.0133 -0.0731 -0.0164
  656WN      WN 1156   4.798   0.247   0.846 -0.2138 -0.2112 -0.1808
  657WN      WN 1157   4.508   2.049   6.342  0.1232 -0.2025  0.0504
  658WN      WN 1158   0.522   2.443   6.024  0.1075  0.0198  0.2084
  659WN      WN 1159   2.770   0.025   1.821  0.0666  0.0457  0.0398
  660WN      WN 1160   2.140   3.493   5.249 -0.3628 -0.0860 -0.0266
  661WN      WN 1161   3.892   4.981   0.724  0.2270  0.1434 -0.3143
  662WN      WN 1162   6.249   2.831   0.695  0.0588 -0.2392 -0.0565
  663WN      WN 1163   5.676   3.998   3.492 -0.2595 -0.0595 -0.0720
  664WN      WN 1164   3.791   3.234   5.110 -0.1966 -0.0999 -0.0950
  665WN      WN 1165   3.593   6.431   4.772 -0.2835 -0.1127 -0.1913
  666WN      WN 1166   4.659   3.871   0.893 -0.1465  0.1212  0.0477
  667WN      WN 1167   0.874   0.877   3.788 -0.2614  0.0088 -0.0330
  668WN      WN 1168   3.372   6.146   2.584 -0.2924 -0.0300 -0.2554
  669WN      WN 1169   1.774   4.626   5.842  0.1779  0.0137  0.1326
  670WN      WN 1170   1.072   0.661   0.001  0.0829  0.0069  0.0884
  671WN      WN 1171   5.397   5.597   1.756  0.0473 -0.3249 -0.1948
  672WN      WN 1172   1.453   5.031   4.871  0.3479 -0.1251 -0.0634
  673WN      WN 1173   1.200   5.906   1.710  0.0523  0.2960  0.1803
  674WN      WN 1174   6.301   2.710   0.096  0.0060 -0.0529 -0.0869
  675WN      WN 1175   5.904   1.541   6.447  0.1207 -0.4235  0.2855
  676WN      WN 1176   3.135   2.923   1.175 -0.1932 -0.0110  0.0104
  677WN      WN 1177   1.913   2.400   6.496 -0.1562 -0.1580  0.3009
  678WN      WN 1178   5.494   4.336   0.896  0.1041 -0.2912  0.0363
  679WN      WN 1179   5.962   0.095   2.438 -0.2041  0.0198 -0.0573
  680WN      WN 1180   2.887   1.840   5.109  0.0257  0.2948  0.0348
  681WN      WN 1181   5.086   6.134   5.089 -0.0855 -0.3205  0.0815
  682WN      WN 1182   1.066   3.779   1.601  0.2373  0.2754  0.2006
  683WN      WN 1183   3.868   0.014   2.622 -0.0543 -0.1884  0.1412
  684WN      WN 1184   0.601   1.045   2.681  0.0677  0.2824  0.0462
  685WN      WN 1185   3.226   3.906   4.649  0.1097 -0.0523  0.0372
  686WN      WN 1186   1.723   3.060   1.579  0.1564  0.0304 -0.0885
  687WN      WN 1187   5.729   4.773   4.596  0.1298 -0.0622  0.1338
  688WN      WN 1188   5.450   1.192   1.808  0.0203 -0.0695 -0.0926
  689WN      WN 1189   6.480   2.869   1.927  0.1605 -0.0200  0.3181
  690WN      WN 1190   4.019   6.348   5.296  0.0082 -0.2145 -0.0251
  691WN      WN 1191   0.296   5.815   6.162  0.1884  0.2245 -0.2708
  692WN      WN 1192   5.984   0.275   3.224 -0.0891 -0.0937 -0.1575
  693WN      WN 1193   5.439   3.024   3.391 -0.5258  0.0283  0.0384
  694WN      WN 1194   5.327   6.183   3.474  0.1920 -0.3362 -0.2565
  695WN      WN 1195   5.045   2.440   2.101  0.1456  0.0140 -0.0332
  696WN      WN 1196   1.225   5.972   0.057  0.6119  0.0764 -0.2443
  697WN      WN 1197   4.467   3.650   3.478 -0.3386 -0.0796 -0.0601
  698WN      WN 1198   2.500   5.753   3.475 -0.0914 -0.1677 -0.1372
  699WN      WN 1199   2.123   1.760   0.727  0.0691  0.1596 -0.1870
  700WN      WN 1200   0.446   4.530   5.415  0.0796 -0.0490  0.1066
  701WN      WN 1201   3.534   4.865   6.224 -0.1795 -0.1312  0.0276
  702WN      WN 1202   0.119   3.085   4.937  0.1940  0.0734 -0.0924
  703WN      WN 1203   0.245   0.085   1.236  0.1702  0.0371  0.0959
  704WN      WN 1204   0.466   3.799   0.843  0.4188 -0.1223 -0.1406
  705WN      WN 1205   0.644   0.561   1.055  0.1752 -0.2086 -0.1717
  706WN      WN 1206   0.694   6.198   1.949  0.2911  0.1513  0.3889
  707WN      WN 1207   3.902   3.706   6.086 -0.2125  0.0184  0.1465
  708WN      WN 1208   6.182   4.923   1.921  0.2506 -0.3573 -0.0144
  709WN      WN 1209   3.232   4.083   0.403  0.0434 -0.0729 -0.1750
  710WN      WN 1210   3.369   5.914   5.809 -0.2663 -0.2729  0.0040
  711WN      WN 1211   3.085   3.016   1.709  0.0291 -0.0770  0.0964
  712WN      WN 1212   4.617   6.403   1.985  0.0966 -0.1440  0.0323
  713WN      WN 1213   5.632   5.162   5.524  0.0487 -0.3129  0.2073
  714WN      WN 1214   2.397   5.869   6.096 -0.1241  0.0132 -0.1757
  715WN      WN 1215   1.097   1.664   2.219 -0.0615 -0.1664  0.3045
  716WN      WN 1216   5.674   1.867   3.695 -0.1565  0.4239 -0.2109
  717WN      WN 1217   4.845   1.967   4.040  0.0078  0.1458  0.2193
  718WN      WN 1218   2.057   4.640   6.301  0.1441  0.2229  0.0667
  719WN      WN 1219   5.661   0.135   1.716  0.0380  0.2532  0.0145
  720WN      WN 1220   1.096   4.697   2.999 -0.1095  0.1400  0.0249
  721WN      WN 1221   4.332   0.878   3.339 -0.1013 -0.2680  0.0975
  722WN      WN 1222   6.254   4.601   6.011 -0.1883  0.0236  0.0661
  723WN      WN 1223   5.726   2.692   5.742 -0.2637  0.0723 -0.1583
  724WN      WN 1224   2.174   1.237   0.537 -0.1313 -0.0788 -0.2196
  725WN      WN 1225   3.369   6.299   1.265 -0.0800  0.1251  0.1780
  726WN      WN 1226   5.656   1.084   5.929  0.0587  0.1184  0.1621
  727WN      WN 1227   4.306   5.711   0.319 -0.2199  0.2718  0.1165
  728WN      WN 1228   1.659   6.210   3.576  0.0006  0.1119  0.0162
  729WN      WN 1229   3.895   3.920   2.377 -0.0178  0.1650  0.1160
  730WN      WN 1230   2.894   0.394   3.584 -0.2148  0.2599  0.2904
  731WN      WN 1231   0.686   1.615   1.116  0.0947 -0.1596 -0.0904
  732WN      WN 1232   6.347   2.388   4.203  0.0510  0.2453  0.1158
  733WN      WN 1233   4.761   4.209   2.466  0.2999 -0.0964  0.0628
  734WN      WN 1234   2.483   0.118   3.892 -0.3349  0.3163  0.2714
  735WN      WN 1235   4.394   4.446   1.673 -0.1194  0.0649  0.1323
  736WN      WN 1236   4.574   6.343   1.418 -0.0924 -0.1213 -0.0262
  737WN      WN 1237   4.654   1.026   3.732  0.1023  0.1028 -0.0669
  738WN      WN 1238   3.754   4.162   0.858 -0.0426 -0.2204  0.0227
  739WN      WN 1239   0.007   5.645   2.351  0.1073  0.0988  0.2054
  740WN      WN 1240   3.375   2.039   0.541  0.0474  0.0863 -0.0305
  741WN      WN 1241   3.148   5.006   0.272  0.1729 -0.2053 -0.2062
  742WN      WN 1242   1.835   5.799   0.921  0.0376  0.3862  0.0677
  743WN      WN 1243   2.121   4.067   1.803  0.2193  0.0407  0.1946
  744WN      WN 1244   0.113   3.522   1.123  0.2856  0.3229 -0.1047
  745WN      WN 1245   6.204   0.773   0.314 -0.1725  0.0133 -0.1439
  746WN      WN 1246   5.915   1.529   1.913  0.1582 -0.2580  0.6438
  747WN      WN 1247   6.118   4.809   2.997 -0.2087  0.1974  0.2077
  748WN      WN 1248   5.971   1.808   2.457 -0.0647 -0.1691  0.0550
  749WN      WN 1249   0.858   4.217   1.693  0.1629  0.1775 -0.2869
  750WN      WN 1250   5.284   0.630   3.776 -0.0629  0.0278 -0.3742
  751WN      WN 1251   0.441   2.337   2.935  0.0437 -0.0457 -0.0219
  752WN      WN 1252   4.121   0.635   4.308 -0.0322  0.1059 -0.0575
  753WN      WN 1253   0.089   3.344   1.692 -0.1076  0.2446  0.2569
  754WN      WN 1254   2.883   3.811   1.198 -0.1171 -0.4548  0.1601
  755WN      WN 1255   3.394   0.605   5.126 -0.1596  0.0382  0.1395
  756WN      WN 1256   3.546   4.627   1.930  0.0693  0.4153  0.2466
  757WN      WN 1257   1.944   3.597   0.858  0.1553  0.1110  0.4068
  758WN      WN 1258   1.608   6.204   4.419 -0.1594  0.3324  0.0861
  759WN      WN 1259   0.036   5.778   3.677  0.0438 -0.2786  0.1773
  760WN      WN 1260   5.584   1.521   2.311  0.0213 -0.2697 -0.1693
  761WN      WN 1261   2.509   3.741   6.375 -0.3118  0.0937 -0.1508
  762WN      WN 1262   1.318   6.008   5.060 -0.5868 -0.1016 -0.0840
  763WN      WN 1263   3.166   3.780   3.087  0.0978 -0.2088 -0.0246
  764WN      WN 1264   0.203   0.097   4.730 -0.1519 -0.3599  0.3316
  765WN      WN 1265   0.901   5.756   4.738 -0.1800 -0.2571  0.1941
  766WN      WN 1266   0.692   4.786   3.768 -0.2867  0.0797  0.1642
  767WN      WN 1267   3.622   2.851   0.464  0.1547 -0.0052 -0.0510
  768WN      WN 1268   2.123   1.265   2.455  0.0484 -0.0483 -0.1091
  769WN      WN 1269   4.048   4.667   2.027  0.3036  0.0948 -0.0288
  770WN      WN 1270   5.023   2.085   5.655 -0.1752 -0.0375 -0.1428
  771WN      WN 1271   6.477   4.624   0.075 -0.1461  0.2518  0.0518
  772WN      WN 1272   3.643   2.019   5.750 -0.1593  0.4538 -0.1479
  773WN      WN 1273   2.407   0.940   2.713 -0.2546  0.0555 -0.3796
  774WN      WN 1274   4.127   5.734   2.688 -0.1733 -0.1821  0.3242
  775WN      WN 1275   1.030   2.011   0.073 -0.0966  0.0913  0.2025
  776WN      WN 1276   0.072   5.442   2.795 -0.1632  0.0653  0.0814
  777WN      WN 1277   4.312   4.121   2.112  0.2318  0.0308 -0.0222
  778WN      WN 1278   1.836   1.320   0.196  0.0033 -0.1969  0.1587
  779WN      WN 1279   5.119   1.357   1.218 -0.0116 -0.5734 -0.1781
  780WN      WN 1280   5.786   5.836   6.348 -0.4078  0.0089  0.2579
  781WN      WN 1281   1.113   2.217   2.327  0.0607 -0.0185  0.3272
  782WN      WN 1282   3.313   1.441   2.839 -0.1499  0.1711  0.2597
  783WN      WN 1283   6.223   2.403   1.883 -0.1586 -0.0292  0.2871
  784WN      WN 1284   1.596   1.925   3.533  0.0867 -0.0394 -0.3040
  785WN      WN 1285   5.238   2.836   5.859 -0.0292 -0.1886  0.0665
  786WN      WN 1286   5.827   4.625   0.709  0.1590  0.3219 -0.1346
  787WN      WN 1287   4.262   3.667   0.439  0.1438  0.3028 -0.2832
  788WN      WN 1288   1.019   0.305   0.358 -0.0917 -0.3257 -0.0866
  789WN      WN 1289   5.309   2.184   1.721  0.1146  0.1351  0.3649
  790WN      WN 1290   5.397   5.020   2.522  0.0584  0.1061 -0.1414
  791WN      WN 1291   0.100   2.182   5.593  0.1739  0.0599  0.1259
  792WN      WN 1292   0.580   4.961   4.438 -0.1202 -0.3458 -0.2269
  793WN      WN 1293   2.913   2.906   2.278 -0.0627  0.1992  0.1352
  794WN      WN 1294   4.523   4.837   1.482  0.0862 -0.3114 -0.0804
  795WN      WN 1295   6.192   1.149   5.662  0.0102 -0.1252  0.2777
  796WN      WN 1296   4.135   4.013   1.376  0.2639 -0.2209 -0.0561
  797WN      WN 1297   3.265   4.317   1.712 -0.0571  0.0155  0.1809
  798WN      WN 1298   2.949   1.632   3.525 -0.1036 -0.0420 -0.2771
  799WN      WN 1299   1.507   6.117   2.607  0.0030  0.3346 -0.0291
  800WN      WN 1300   6.050   4.678   5.102 -0.1308  0.2290  0.1692
  801WN      WN 1301   5.146   5.599   1.246 -0.0718  0.0417  0.1278
  802WN      WN 1302   0.033   3.976   0.025 -0.0958  0.1294 -0.0243
  803WN      WN 1303   0.774   4.449   5.084 -0.1119  0.1667 -0.2557
  804WN      WN 1304   6.499   1.917   5.154 -0.2560  0.1707 -0.1598
  805WN      WN 1305   2.242   5.060   1.668 -0.1254  0.1485  0.2320
  806WN      WN 1306   2.733   5.657   1.235  0.0235  0.0559 -0.1610
  807WN      WN 1307   2.506   5.978   5.477 -0.0327  0.0226  0.3323
  808WN      WN 1308   5.705   3.060   6.094 -0.0573 -0.4319  0.2425
  809WN      WN 1309   2.740   6.106   3.833  0.1890  0.1544  0.2327
  810WN      WN 1310   2.480   0.866   2.243  0.1962  0.0531 -0.0359
  811WN      WN 1311   3.365   3.182   3.298 -0.0691 -0.1366  0.0960
  812WN      WN 1312   5.616   3.243   1.703 -0.3407 -0.1930  0.1276
  813WN      WN 1313   0.335   4.045   5.584 -0.1402  0.2802 -0.0639
  814WN      WN 1314   2.548   6.511   3.447 -0.1881  0.1062 -0.2598
  815WN      WN 1315   0.580   6.397   4.263  0.1708 -0.0919 -0.3010
  816WN      WN 1316   5.979   4.676   2.542 -0.1933  0.0586 -0.1723
  817WN      WN 1317   0.203   1.825   2.894  0.1878 -0.2410  0.0856
  818WN      WN 1318   5.936   3.610   0.737 -0.0872  0.2635  0.1279
  819WN      WN 1319   1.703   2.154   5.471  0.2805 -0.1761  0.1256
  820WN      WN 1320   3.363   1.961   6.260  0.1334 -0.2620 -0.2135
  821WN      WN 1321   0.958   0.991   6.098  0.0092 -0.1704 -0.3468
  822WN      WN 1322   1.409   3.862   6.489  0.3211  0.0494 -0.1188
  823WN      WN 1323   5.135   6.490   1.814  0.1776  0.2511  0.0024
  824WN      WN 1324   4.919   4.592   4.963  0.0449 -0.2643  0.1269
  825WN      WN 1325   6.099   0.945   2.091 -0.4863 -0.0869  0.1878
  826WN      WN 1326   1.517   3.972   4.875 -0.4348  0.1581  0.0349
  827WN      WN 1327   3.625   3.813   5.039  0.1913  0.2994 -0.3052
  828WN      WN 1328   2.020   5.823   1.703  0.1430  0.1513  0.0227
  829WN      WN 1329   2.903   5.770   5.122  0.0304 -0.3778 -0.0663
  830WN      WN 1330   3.432   5.216   0.606 -0.2317  0.1458  0.3021
  831WN      WN 1331   3.605   3.436   1.224  0.1702  0.1190 -0.0423
  832WN      WN 1332   4.392   2.391   3.997 -0.3264 -0.5301 -0.2250
  833WN      WN 1333   4.279   2.814   3.808 -0.0769 -0.4018  0.1348
  834WN      WN 1334   5.097   5.825   3.822 -0.1245 -0.2709  0.2071
  835WN      WN 1335   1.825   5.838   6.056 -0.0556  0.1631 -0.1309
  836WN      WN 1336   0.348   1.797   0.675 -0.1526  0.0259  0.0228
  837WN      WN 1337   4.987   5.035   1.564  0.1201 -0.3457 -0.0721
  838WN      WN 1338   1.135   5.832   2.644 -0.0936 -0.1797  0.0833
  839WN      WN 1339   0.046   2.469   2.235  0.1162 -0.3776  0.0080
  840WN      WN 1340   6.528   2.726   4.542  0.1432  0.1156 -0.0675
  841WN      WN 1341   5.828   1.942   1.069  0.1052  0.1932  0.2251
  842WN      WN 1342   1.686   3.551   1.881 -0.5432  0.0051  0.2367
  843WN      WN 1343   3.763   5.015   1.583 -0.6105 -0.1559 -0.0153
  844WN      WN 1344   4.752   0.052   4.026  0.0358  0.1561 -0.0618
  845WN      WN 1345   6.105   4.905   0.256 -0.1152 -0.0782 -0.0999
  846WN      WN 1346   2.012   2.622   2.116  0.0463 -0.3250 -0.0039
  847WN      WN 1347   1.505   4.708   6.432  0.0149 -0.1135  0.0552
  848WN      WN 1348   5.534   0.364   5.493  0.2622  0.1156  0.2650
  849WN      WN 1349   1.211   3.086   4.705 -0.2474  0.0369  0.2330
  850WN      WN 1350   3.961   4.400   2.429 -0.0726  0.2925  0.1088
  851WN      WN 1351   5.764   4.250   0.380 -0.0446 -0.0002  0.1243
  852WN      WN 1352   2.246   5.502   1.401  0.1944  0.1064  0.2115
  853WN      WN 1353   0.842   6.123   5.175 -0.0593  0.0108  0.0264
  854WN      WN 1354   2.625   3.091   1.945  0.1621 -0.0180  0.2523
  855WN      WN 1355   1.992   6.126   2.755 -0.3959  0.0012 -0.1859
  856WN      WN 1356   1.683   4.269   6.120 -0.3192  0.0133  0.0293
  857WN      WN 1357   2.313   1.308   5.744 -0.2456 -0.0824 -0.0198
  858WN      WN 1358   1.614   2.761   4.609 -0.0605  0.1035  0.2232
  859WN      WN 1359   0.147   0.365   1.621  0.0927  0.5051  0.1347
  860WN      WN 1360   3.041   1.850   4.438  0.2440  0.1026 -0.1603
  861WN      WN 1361   6.505   2.236   4.673 -0.1459 -0.2451  0.1905
  862WN      WN 1362   2.402   0.790   4.979  0.0935  0.0343  0.6089
  863WN      WN 1363   3.769   4.091   3.811 -0.3471  0.0600  0.1031
  864WN      WN 1364   3.450   3.611   5.890  0.3338  0.0499 -0.0319
  865WN      WN 1365   1.643   0.380   5.598 -0.4513 -0.0035 -0.1661
  866WN      WN 1366   1.415   3.521   0.873 -0.0611  0.3400  0.3996
  867WN      WN 1367   4.247   3.276   4.269 -0.2641  0.2482  0.0855
  868WN      WN 1368   0.874   5.722   2.212  0.0470 -0.2215 -0.2228
  869WN      WN 1369   5.902   4.301   4.640  0.0374  0.0631  0.3330
  870WN      WN 1370   0.436   2.543   5.571  0.0970 -0.4714 -0.2082
  871WN      WN 1371   4.078   2.247   0.068 -0.0338 -0.4392  0.1642
  872WN      WN 1372   1.348   2.910   1.284  0.0429  0.1342  0.1952
  873WN      WN 1373   6.189   2.072   5.872 -0.1097 -0.0099 -0.1037
  874WN      WN 1374   1.989   5.277   4.112  0.0723 -0.1914 -0.0188
  875WN      WN 1375   1.124   1.326   3.960 -0.1539  0.0445  0.1063
  876WN      WN 1376   1.460   0.540   2.138 -0.0739 -0.2696  0.4444
  877WN      WN 1377   2.524   5.771   2.980  0.0087  0.0573  0.0049
  878WN      WN 1378   2.680   3.429   1.543  0.3284  0.1763  0.0666
  879WN      WN 1379   0.169   3.630   0.344 -0.3258  0.0490 -0.2186
  880WN      WN 1380   6.268   1.991   1.450 -0.5152 -0.0452 -0.0049
  881WN      WN 1381   6.085   5.071   4.255  0.1454 -0.1274  0.1137
  882WN      WN 1382   0.391   1.478   4.652  0.1545  0.0346 -0.0737
  883WN      WN 1383   6.328   1.552   6.057 -0.1940 -0.2073 -0.3489
  884WN      WN 1384   5.265   3.787   6.013  0.3987 -0.0340  0.0072
  885WN      WN 1385   1.606   0.441   4.908 -0.2230 -0.0463  0.2016
  886WN      WN 1386   5.554   3.824   0.460 -0.1376 -0.2060  0.0214
  887WN      WN 1387   0.459   0.710   4.022  0.1029  0.0056  0.1691
  888WN      WN 1388   1.583   3.428   6.464  0.0444 -0.1071 -0.0903
  889WN      WN 1389   5.999   2.691   4.322 -0.2223 -0.0741  0.1886
  890WN      WN 1390   1.810   2.892   2.549 -0.0288 -0.3374 -0.0981
  891WN      WN 1391   1.628   1.697   5.807  0.1293  0.0963 -0.2400
  892WN      WN 1392   6.341   4.638   0.716 -0.2712  0.1622 -0.2252
  893WN      WN 1393   4.306   5.272   0.011 -0.0034 -0.1427  0.1235
  894WN      WN 1394   0.788   5.545   5.230  0.0234 -0.0174  0.2775
  895WN      WN 1395   5.509   4.120   1.908  0.3254 -0.1763 -0.2908
  896WN      WN 1396   3.953   1.727   1.397  0.1925 -0.2622  0.0479
  897WN      WN 1397   4.976   4.318   0.052 -0.0064 -0.2370  0.5097
  898WN      WN 1398   2.647   1.069   0.648  0.1542  0.1238 -0.1383
  899WN      WN 1399   0.283   2.721   3.190  0.0845  0.1660  0.0943
  900WN      WN 1400   0.867   3.710   2.513 -0.0057 -0.0538  0.1311
  901WN      WN 1401   3.181   0.461   2.947  0.1299  0.1094  0.1311
  902WN      WN 1402   5.655   5.788   4.057  0.2445 -0.1838 -0.1853
  903WN      WN 1403   4.311   0.308   1.758  0.1074  0.1166 -0.2008
  904WN      WN 1404   4.548   3.306   2.585 -0.1392  0.0639  0.1163
  905WN      WN 1405   5.289   4.353   0.466  0.0866  0.2028 -0.3114
  906WN      WN 1406   6.226   4.506   1.630 -0.0734  0.0426  0.1479
  907WN      WN 1407   3.760   3.154   6.138  0.1246 -0.1708 -0.1834
  908WN      WN 1408   5.085   3.101   4.844 -0.2183 -0.1117 -0.5169
  909WN      WN 1409   1.013   0.328   1.601  0.1597 -0.0414  0.1599
  910WN      WN 1410   2.834   4.587   0.262 -0.0484 -0.0179 -0.2049
  911WN      WN 1411   4.545   4.399   1.053 -0.2728  0.2193 -0.1004
  912WN      WN 1412   0.420   1.502   0.243  0.1602 -0.2474 -0.0265
  913WN      WN 1413   1.290   0.043   5.355 -0.3825 -0.0202  0.2130
  914WN      WN 1414   2.977   3.669   5.676 -0.1487 -0.2482  0.1092
  915WN      WN 1415   3.138   3.173   4.786 -0.0178 -0.0875 -0.2091
  916WN      WN 1416   5.906   5.099   3.327  0.0284 -0.4453  0.1431
  917WN      WN 1417   4.466   4.572   0.003  0.1990 -0.0608 -0.0289
  918WN      WN 1418   0.752   2.678   3.253  0.0008 -0.0336 -0.0566
  919WN      WN 1419   2.638   5.137   0.214  0.1397  0.0168 -0.4920
  920WN      WN 1420   0.080   3.193   4.368  0.0374  0.1861 -0.1805
  921WN      WN 1421   4.935   4.531   1.667  0.1839 -0.0728  0.0186
  922WN      WN 1422   6.121   0.508   6.291  0.1305 -0.0038  0.0800
  923WN      WN 1423   6.475   0.045   2.563 -0.0231  0.0404 -0.2157
  924WN      WN 1424   2.697   6.133   6.406 -0.0961  0.2609 -0.5100
  925WN      WN 1425   2.399   4.830   2.180 -0.0042  0.1183  0.2478
  926WN      WN 1426   1.825   2.484   3.092 -0.0076 -0.2426  0.0618
  927WN      WN 1427   1.107   2.767   3.654 -0.0589 -0.1323 -0.2261
  928WN      WN 1428   0.289   0.588   0.582  0.2511  0.1525 -0.0979
  929WN      WN 1429   6.459   6.151   6.095  0.0936  0.3229 -0.1495
  930WN      WN 1430   0.211   2.110   1.794  0.2721  0.1077 -0.1723
  931WN      WN 1431   3.537   2.718   5.774 -0.0646 -0.3529 -0.2190
  932WN      WN 1432   0.800   2.207   5.645  0.1926 -0.1742  0.2203
  933WN      WN 1433   3.387   0.768   3.436  0.1948  0.2450 -0.1592
  934WN      WN 1434   4.697   2.866   6.167  0.0577 -0.1388  0.1347
  935WN      WN 1435   5.068   1.183   5.889 -0.0338  0.1690 -0.0696
  936WN      WN 1436   0.589   0.479   1.857 -0.1770 -0.2585  0.0977
  937WN      WN 1437   5.575   6.355   2.511 -0.0407 -0.3064  0.0894
  938WN      WN 1438   1.026   5.657   4.046  0.3612 -0.3628  0.5369
  939WN      WN 1439   3.102   0.920   1.703  0.3195  0.4155 -0.2514
  940WN      WN 1440   1.621   2.069   4.047 -0.0593  0.0966 -0.4536
  941WN      WN 1441   6.504   1.696   0.078  0.0688 -0.2055  0.1673
  942WN      WN 1442   4.146   6.326   1.736 -0.3184 -0.1257  0.2452
  943WN      WN 1443   2.273   2.983   3.319 -0.2031  0.3321 -0.0621
  944WN      WN 1444   5.145   3.394   2.569  0.1042  0.1706 -0.1523
  945WN      WN 1445   3.672   4.887   0.198 -0.1129  0.0304  0.2428
  946WN      WN 1446   0.389   3.473   5.708  0.1568  0.1272  0.0356
  947WN      WN 1447   1.631   5.667   1.391  0.1900  0.0669  0.2237
  948WN      WN 1448   2.353   0.467   6.353 -0.2445 -0.2439  0.0334
  949WN      WN 1449   4.301   2.146   2.797  0.0278  0.0801  0.1673
  950WN      WN 1450   6.290   4.073   2.419  0.1065 -0.1160  0.2994
  951WN      WN 1451   4.876   5.310   3.080  0.2414 -0.0908  0.1685
  952WN      WN 1452   3.103   1.496   4.828 -0.0593  0.0524 -0.1286
  953WN      WN 1453   4.396   3.130   1.517 -0.1640 -0.1842  0.0225
  954WN      WN 1454   5.800   2.914   3.848 -0.1180  0.0440  0.2431
  955WN      WN 1455   4.458   1.388   6.498 -0.1876  0.1258  0.2620
  956WN      WN 1456   1.400   2.711   0.671  0.4625 -0.2848  0.2067
  957WN      WN 1457   1.055   5.718   3.106  0.0657 -0.0558  0.2733
  958WN      WN 1458   6.077   2.082   3.452  0.0498  0.0067 -0.1785
  959WN      WN 1459   4.377   1.109   1.744  0.0199 -0.1198  0.1332
  960WN      WN 1460   1.182   4.343   6.467 -0.0591  0.0633  0.1095
  961WN      WN 1461   0.126   1.857   4.266  0.2680 -0.1375  0.1477
  962WN      WN 1462   2.668   2.910   1.395 -0.4242  0.2613  0.0100
  963WN      WN 1463   3.794   6.057   4.960 -0.2608 -0.3582 -0.3214
  964WN      WN 1464   5.989   2.159   3.950 -0.3305  0.1983  0.0085
  965WN      WN 1465   3.755   0.215   5.175 -0.1235  0.1905 -0.1164
  966WN      WN 1466   2.632   2.850   0.367 -0.0787  0.3572 -0.1583
  967WN      WN 1467   2.670   1.374   1.115  0.2476 -0.5278 -0.1450
  968WN      WN 1468   4.517   1.914   5.445 -0.1205  0.2195 -0.0135
  969WN      WN 1469   5.560   4.476   3.819  0.0842  0.1711  0.3904
  970WN      WN 1470   6.252   3.591   6.344 -0.2619 -0.0421 -0.2629
  971WN      WN 1471   5.132   2.231   4.713 -0.1661  0.0444 -0.2780
  972WN      WN 1472   6.268   0.405   1.294  0.0275  0.1089  0.0047
  973WN      WN 1473   4.419   1.809   3.734  0.1149  0.2293 -0.0258
  974WN      WN 1474   5.362   1.993   1.192 -0.0516  0.0213  0.1193
  975WN      WN 1475   2.166   0.789   1.775 -0.1921  0.2144  0.0267
  976WN      WN 1476   0.522   1.963   6.416  0.0501 -0.3052 -0.1221
  977WN      WN 1477   1.102   3.859   3.960 -0.3397 -0.1153  0.1061
  978WN      WN 1478   2.558   2.439   2.256 -0.3529  0.0479  0.1018
  979WN      WN 1479   4.254   1.703   5.086 -0.0263 -0.1604 -0.0750
  980WN      WN 1480   1.881   0.084   5.211  0.0723 -0.1217 -0.0722
  981WN      WN 1481   2.288   6.124   3.704  0.0420  0.0071  0.3376
  982WN      WN 1482   5.778   4.635   3.324  0.1015  0.1226  0.0294
  983WN      WN 1483   2.596   1.595   0.666  0.1833 -0.1670  0.1412
  984WN      WN 1484   4.326   5.546   1.691  0.2245 -0.0004 -0.2305
  985WN      WN 1485   0.110   4.030   1.287  0.1243  0.0724 -0.1376
  986WN      WN 1486   1.150   6.158   5.525  0.1878  0.2448  0.0755
  987WN      WN 1487   3.718   2.103   1.601 -0.2670  0.0698  0.0385
  988WN      WN 1488   1.949   5.021   0.097 -0.0853  0.1247 -0.2840
  989WN      WN 1489   3.410   6.502   4.301  0.0623  0.0947  0.2761
  990WN      WN 1490   0.270   4.713   3.586 -0.0251  0.4281  0.0622
  991WN      WN 1491   0.300   6.465   2.937 -0.0025 -0.2393 -0.2286
  992WN      WN 1492   1.655   4.178   1.406  0.0102 -0.0072  0.2372
  993WN      WN 1493   2.681   4.842   1.476 -0.0489  0.4886  0.0422
  994WN      WN 1494   3.056   2.679   5.898 -0.0248 -0.0019  0.1570
  995WN      WN 1495   5.603   5.499   2.207 -0.2379 -0.3953 -0.1479
  996WN      WN 1496   5.878   4.964   5.906 -0.1542  0.1278  0.2779
  997WN      WN 1497   4.401   5.003   6.149 -0.0243 -0.2708 -0.0847
  998WN      WN 1498   6.222   3.729   1.236 -0.1748  0.2356  0.1238
  999WN      WN 1499   0.208   5.399   1.358  0.0243 -0.4073  0.0793
 1000WN      WN 1500   1.021   0.690   1.920 -0.0561  0.1784  0.0614
 1001WN      WN 1501   4.079   6.368   4.666 -0.0546  0.2198 -0.2096
 1002WN      WN 1502   4.597   6.451   0.535  0.0108 -0.0363 -0.1612
 1003WN      WN 1503   2.963   6.458   4.554  0.0756 -0.2246 -0.1040
 1004WN      WN 1504   2.546   2.580   6.016 -0.1242  0.1334  0.2671
 1005WN      WN 1505   5.501   5.090   6.515  0.1853  0.0043  0.1220
 1006WN      WN 1506   5.177   2.916   4.366  0.2045  0.0557  0.4445
 1007WN      WN 1507   4.928   0.272   2.125  0.1968  0.1481  0.2402
 1008WN      WN 1508   3.848   3.056   4.497  0.0604  0.0663  0.3136
 1009WN      WN 1509   0.267   0.359   4.346  0.1155  0.2514  0.1053
 1010WN      WN 1510   5.476   4.185   6.490  0.0023  0.3095 -0.1117
 1011WN      WN 1511   5.598   3.717   1.487  0.0173 -0.1678  0.0295
 1012WN      WN 1512   4.024   1.821   2.341  0.0051 -0.0220  0.3367
 1013WN      WN 1513   2.818   2.637   0.901 -0.2415  0.2079 -0.0300
 1014WN      WN 1514   1.412   2.526   2.693 -0.0964  0.0276  0.0693
 1015WN      WN 1515   0.462   1.058   6.535  0.3585 -0.1747  0.2190
 1016WN      WN 1516   3.430   1.564   1.649  0.2450  0.1749 -0.2459
 1017WN      WN 1517   0.337   3.414   5.214  0.0303  0.3913 -0.1238
 1018WN      WN 1518   4.987   6.069   1.530  0.3008  0.4762  0.0253
 1019WN      WN 1519   5.403   4.637   5.740  0.3958  0.0262  0.1322
 1020WN      WN 1520   5.072   3.658   1.248  0.4181  0.2837 -0.3195
 1021WN      WN 1521   6.281   0.721   5.289 -0.0368 -0.0208 -0.0650
 1022WN      WN 1522   1.716   1.556   3.968 -0.0307 -0.2200 -0.0620
 1023WN      WN 1523   3.524   0.806   2.425 -0.0265  0.2256 -0.1680
 1024WN      WN 1524   5.924   1.154   0.722 -0.0970 -0.2488 -0.2288
 1025WN      WN 1525   6.033   1.983   4.991 -0.0654  0.2904 -0.1653
 1026WN      WN 1526   5.012   3.825   3.490  0.0991  0.1969  0.0925
 1027WN      WN 1527   3.353   5.773   2.175  0.0691  0.0937 -0.1565
 1028WN      WN 1528   1.851   0.543   6.050  0.0599 -0.1223 -0.1838
 1029WN      WN 1529   2.386   5.437   5.835  0.1367 -0.2909 -0.0673
 1030WN      WN 1530   2.011   3.901   4.902 -0.1043  0.1077 -0.0946
 1031WN      WN 1531   2.649   1.868   6.488 -0.0652  0.0348  0.3080
 1032WN      WN 1532   3.527   2.299   3.872 -0.0503  0.2787 -0.0688
 1033WN      WN 1533   2.291   4.845   1.136 -0.2507 -0.0301  0.0145
 1034WN      WN 1534   4.238   5.596   2.187 -0.1648 -0.0535 -0.1350
 1035WN      WN 1535   3.752   6.493   3.078  0.2558 -0.2835  0.2212
 1036WN      WN 1536   2.119   5.836   0.464 -0.1411 -0.1069 -0.0346
 1037WN      WN 1537   5.781   0.554   5.065  0.2582  0.2671  0.1601
 1038WN      WN 1538   1.201   2.154   4.379 -0.1472 -0.1518  0.1216
 1039WN      WN 1539   4.303   6.138   2.256  0.0991 -0.2820 -0.0059
 1040WN      WN 1540   5.072   5.535   2.207 -0.0708 -0.1878  0.3692
 1041WN      WN 1541   0.020   6.448   5.136 -0.1767  0.3704  0.1942
 1042WN      WN 1542   2.143   5.655   5.485 -0.1349 -0.0825  0.4483
 1043WN      WN 1543   2.206   2.107   1.415  0.4326  0.0620 -0.3039
 1044WN      WN 1544   2.586   0.923   5.445 -0.3565  0.2249  0.2220
 1045WN      WN 1545   6.537   5.203   4.405 -0.0241 -0.3385 -0.0570
 1046WN      WN 1546   3.982   2.371   5.604  0.0592  0.2354 -0.0784
 1047WN      WN 1547   4.592   0.496   3.133  0.1872  0.1077  0.1256
 1048WN      WN 1548   1.492   0.234   1.387 -0.2479 -0.0326 -0.0701
 1049WN      WN 1549   3.036   2.588   0.402 -0.1006  0.1762  0.1913
 1050WN      WN 1550   2.311   1.299   1.980 -0.1258 -0.1221  0.1259
 1051WN      WN 1551   2.751   4.644   1.900 -0.2949 -0.1823  0.2790
 1052WN      WN 1552   1.599   3.663   3.871  0.0898  0.1389 -0.0365
 1053WN      WN 1553   1.641   5.385   6.535 -0.1398  0.1777 -0.0782
 1054WN      WN 1554   2.078   6.370   4.108 -0.0105 -0.0686  0.0557
 1055WN      WN 1555   6.480   0.068   6.435 -0.1142 -0.0871 -0.0406
 1056WN      WN 1556   0.273   1.571   3.792 -0.1384  0.2012 -0.0922
 1057WN      WN 1557   3.220   0.184   5.353  0.3793  0.0502 -0.0521
 1058WN      WN 1558   2.936   1.441   1.530  0.1532 -0.0634 -0.0658
 1059WN      WN 1559   3.945   1.267   6.502  0.0387  0.0459  0.3712
 1060WN      WN 1560   2.235   0.885   3.243 -0.0099  0.1022  0.0040
 1061WN      WN 1561   4.215   5.798   4.147 -0.2885  0.0750 -0.1137
 1062WN      WN 1562   3.709   1.527   3.227  0.1234  0.0471  0.3839
 1063WN      WN 1563   6.069   4.724   1.178 -0.0541  0.2787  0.4493
 1064WN      WN 1564   0.627   5.354   4.135 -0.1422  0.2232  0.0750
 1065WN      WN 1565   5.037   4.025   5.033  0.2709 -0.1169  0.0073
 1066WN      WN 1566   0.650   1.927   2.580 -0.0843  0.0842 -0.1156
 1067WN      WN 1567   4.960   3.857   6.419  0.1068  0.2240  0.1221
 1068WN      WN 1568   5.055   2.432   1.359  0.0239  0.0637 -0.0539
 1069WN      WN 1569   1.831   5.450   5.837  0.0182 -0.0091  0.0433
 1070WN      WN 1570   1.617   6.283   5.538  0.0712  0.0977 -0.1839
 1071WN      WN 1571   0.509   5.435   4.699  0.0308 -0.0908 -0.0704
 1072WN      WN 1572   2.385   4.340   1.330  0.1004 -0.4066 -0.2483
 1073WN      WN 1573   3.383   3.118   4.342  0.3413 -0.1027  0.1394
 1074WN      WN 1574   4.965   1.936   2.016  0.1643  0.0316 -0.5457
 1075WN      WN 1575   2.305   1.114   3.675  0.1005  0.0258 -0.4284
 1076WN      WN 1576   3.984   3.244   0.603 -0.0725 -0.2302  0.0002
 1077WN      WN 1577   4.328   0.083   5.009  0.2677 -0.1685  0.0710
 1078WN      WN 1578   5.393   3.359   4.584 -0.0199 -0.4217  0.1690
 1079WN      WN 1579   5.635   0.653   6.520 -0.0621  0.0867  0.2472
 1080WN      WN 1580   5.698   0.074   6.303 -0.5953 -0.1830  0.1310
 1081WN      WN 1581   0.936   0.236   6.311  0.0197 -0.0579 -0.4316
 1082WN      WN 1582   2.324   0.111   4.924 -0.0849 -0.1066 -0.0681
 1083WN      WN 1583   0.357   5.238   5.353  0.1043  0.0259  0.0932
 1084WN      WN 1584   2.716   4.893   0.676  0.1639  0.1232 -0.0633
 1085WN      WN 1585   1.542   1.928   2.287  0.0660 -0.0217  0.3259
 1086WN      WN 1586   1.025   5.487   6.537  0.3881 -0.0839 -0.1140
 1087WN      WN 1587   4.385   3.284   5.391 -0.0147  0.1355  0.3189
 1088WN      WN 1588   1.017   4.521   2.091 -0.2021 -0.1858  0.0213
 1089WN      WN 1589   2.036   2.833   0.348 -0.0738 -0.1873 -0.0873
 1090WN      WN 1590   0.518   2.495   1.884  0.1522  0.0688 -0.3465
 1091WN      WN 1591   1.116   1.495   0.926 -0.3552 -0.0415 -0.2430
 1092WN      WN 1592   2.577   2.006   2.559  0.1428  0.1938  0.1004
 1093WN      WN 1593   0.705   2.392   0.070  0.2810  0.2295 -0.2841
 1094WN      WN 1594   1.111   3.158   6.490 -0.0074  0.1238 -0.1314
 1095WN      WN 1595   5.369   0.497   1.705 -0.0654 -0.2499 -0.0584
 1096WN      WN 1596   5.632   0.759   1.999  0.1271 -0.1035 -0.2000
 1097WN      WN 1597   1.334   0.967   4.183  0.0173 -0.1584  0.0830
 1098WN      WN 1598   5.951   1.062   6.375 -0.3127  0.3146 -0.0906
 1099WN      WN 1599   3.007   1.131   4.409 -0.0672 -0.0011  0.3124
 1100WN      WN 1600   6.210   2.272   5.347  0.0959 -0.3527  0.4567
 1101WN      WN 1601   3.990   5.328   0.336  0.1470 -0.3170 -0.3282
 1102WN      WN 1602   0.656   3.305   0.071 -0.2772 -0.3407  0.0322
 1103WN      WN 1603   0.556   5.693   3.798 -0.1140  0.0365  0.4762
 1104WN      WN 1604   1.724   1.228   4.445  0.1767  0.0819 -0.1925
 1105WN      WN 1605   3.979   5.652   6.412 -0.5458  0.3687  0.2580
 1106WN      WN 1606   2.279   1.539   2.827 -0.1289 -0.2083 -0.0849
 1107WN      WN 1607   6.508   5.380   1.892 -0.2431 -0.0373 -0.0951
 1108WN      WN 1608   0.808   3.438   4.948  0.0576  0.0323 -0.2083
 1109WN      WN 1609   5.945   5.395   1.885 -0.4144 -0.0452  0.1975
 1110WN      WN 1610   6.464   0.231   5.555 -0.3269 -0.1098 -0.0143
 1111WN      WN 1611   0.504   5.372   6.327  0.1911  0.3397  0.1797
 1112WN      WN 1612   1.009   4.490   3.506  0.0706 -0.1929 -0.2970
 1113WN      WN 1613   0.119   3.164   0.783 -0.1813  0.0159 -0.0258
 1114WN      WN 1614   4.742   3.230   3.044  0.0100 -0.2359  0.2033
 1115WN      WN 1615   3.048   2.049   2.312  0.0903 -0.1969  0.0010
 1116WN      WN 1616   1.957   5.127   2.826  0.5238  0.0832  0.0571
 1117WN      WN 1617   3.760   4.437   6.427  0.2448 -0.0705  0.0111
 1118WN      WN 1618   3.424   3.782   2.565 -0.0118  0.1689 -0.0096
 1119WN      WN 1619   0.587   1.232   5.279  0.1273 -0.0007  0.4024
 1120WN      WN 1620   0.622   4.545   1.318  0.0091  0.1213 -0.2430
 1121WN      WN 1621   3.145   4.992   2.778  0.1860 -0.5223 -0.0629
 1122WN      WN 1622   6.059   1.547   4.622  0.3970 -0.2898  0.1715
 1123WN      WN 1623   5.778   2.117   0.610 -0.0995 -0.2475  0.1708
 1124WN      WN 1624   6.160   5.736   2.737  0.2688  0.2088 -0.2739
 1125WN      WN 1625   1.200   5.082   1.183  0.1353  0.1304  0.0739
 1126WN      WN 1626   3.690   1.173   1.839  0.0383  0.0380 -0.1499
 1127WN      WN 1627   0.184   2.005   6.057 -0.2096  0.2148 -0.0908
 1128WN      WN 1628   3.369   2.057   4.765  0.0473  0.2103 -0.1310
 1129WN      WN 1629   1.750   3.489   4.883  0.0549 -0.0190 -0.0162
 1130WN      WN 1630   6.265   2.400   0.436  0.2905  0.0450  0.1522
 1131WN      WN 1631   3.175   0.147   2.165  0.2376  0.1078 -0.1339
 1132WN      WN 1632   4.781   0.772   5.636  0.1141  0.0131  0.1320
 1133WN      WN 1633   2.584   6.274   5.879  0.3169 -0.0543  0.0388
 1134WN      WN 1634   1.957   2.283   1.038 -0.1548 -0.0280  0.1052
 1135WN      WN 1635   6.508   0.765   2.248 -0.1146 -0.0150 -0.3201
 1136WN      WN 1636   6.450   2.062   3.824  0.0886  0.3575  0.1169
 1137WN      WN 1637   4.079   4.515   0.844  0.0392  0.0886 -0.0717
 1138WN      WN 1638   6.274   4.135   4.125  0.0023  0.0385 -0.1203
 1139WN      WN 1639   6.127   2.321   0.951 -0.1255  0.0888 -0.1462
 1140WN      WN 1640   2.273   5.054   6.129 -0.0885  0.1623  0.1218
 1141WN      WN 1641   2.649   5.730   0.279 -0.3499 -0.0237 -0.2723
 1142WN      WN 1642   1.489   2.529   4.213  0.1878 -0.0387 -0.0139
 1143WN      WN 1643   4.339   2.489   6.192 -0.2014 -0.1511  0.1589
 1144WN      WN 1644   4.787   2.855   3.717  0.2186  0.2340  0.0108
 1145WN      WN 1645   0.162   2.410   6.502  0.1930  0.0852 -0.2160
 1146WN      WN 1646   4.911   3.929   0.429  0.0103  0.2546 -0.0721
 1147WN      WN 1647   2.450   3.994   5.958 -0.1859  0.2996  0.0759
 1148WN      WN 1648   1.166   1.854   3.870  0.2470  0.0601  0.0526
 1149WN      WN 1649   0.380   6.182   0.983 -0.2216 -0.1224  0.2512
 1150WN      WN 1650   3.335   4.929   4.791  0.0277 -0.1528  0.1998
 1151WN      WN 1651   0.309   4.239   1.683  0.2177 -0.5008 -0.1212
 1152WN      WN 1652   1.783   2.254   2.509  0.1057 -0.1967 -0.2108
 1153WN      WN 1653   5.020   5.682   5.214  0.1522  0.1166  0.1216
 1154WN      WN 1654   1.930   0.168   4.585  0.1405 -0.1017  0.0493
 1155WN      WN 1655   0.913   5.371   3.529 -0.1756 -0.2269  0.0035
 1156WN      WN 1656   4.845   0.994   3.065  0.1002  0.0415  0.1038
 1157WN      WN 1657   2.858   2.619   1.837  0.1736  0.5037  0.2024
 1158WN      WN 1658   0.058   2.588   1.012 -0.2462 -0.1779  0.1503
 1159WN      WN 1659   0.728   2.911   4.835  0.0096  0.0600 -0.0769
 1160WN      WN 1660   1.250   5.810   3.580 -0.0285 -0.4537  0.2423
 1161WN      WN 1661   1.908   4.164   2.634  0.2424 -0.0117 -0.0021
 1162WN      WN 1662   0.171   0.194   2.149  0.0637  0.0487  0.1778
 1163WN      WN 1663   5.930   2.395   3.053  0.6856  0.0066 -0.3408
 1164WN      WN 1664   5.105   3.368   2.000 -0.2028 -0.0905  0.0452
 1165WN      WN 1665   3.480   4.797   2.421 -0.4611  0.0820  0.2051
 1166WN      WN 1666   5.933   5.297   2.507  0.0943  0.2075  0.1135
 1167WN      WN 1667   4.499   6.253   3.267  0.1158 -0.2287  0.0223
 1168WN      WN 1668   1.106   4.031   5.241 -0.1991  0.0540  0.0051
 1169WN      WN 1669   6.317   6.476   1.185 -0.2790 -0.0645 -0.0843
 1170WN      WN 1670   4.030   2.306   2.114 -0.1402  0.3263 -0.0960
 1171WN      WN 1671   5.682   5.161   0.522  0.2979 -0.0755  0.1091
 1172WN      WN 1672   5.165   0.311   2.601 -0.2187  0.0588  0.2808
 1173WN      WN 1673   6.189   5.578   4.048 -0.1177 -0.6078 -0.2985
 1174WN      WN 1674   3.137   1.842   0.164 -0.0058 -0.0736 -0.0889
 1175WN      WN 1675   1.142   0.401   4.087 -0.1355  0.1977 -0.4243
 1176WN      WN 1676   3.040   1.548   2.475  0.0415 -0.1833 -0.3396
 1177WN      WN 1677   6.404   6.312   3.580  0.2192  0.0064 -0.0517
 1178WN      WN 1678   0.531   3.223   3.619 -0.0557 -0.1350  0.3702
 1179WN      WN 1679   5.420   2.155   0.210  0.2142 -0.1929 -0.0627
 1180WN      WN 1680   2.421   0.094   4.402  0.1328  0.1590  0.4020
 1181WN      WN 1681   5.920   2.840   1.052  0.1248  0.4922  0.1347
 1182WN      WN 1682   3.927   3.220   1.829 -0.0028  0.1052 -0.1972
 1183WN      WN 1683   0.734   5.963   6.458  0.2254 -0.0756  0.0451
 1184WN      WN 1684   5.996   5.832   5.445  0.1312  0.1338 -0.0189
 1185WN      WN 1685   1.667   3.684   6.008  0.1098  0.2135  0.0523
 1186WN      WN 1686   6.177   3.120   6.309 -0.3029  0.0395 -0.3445
 1187WN      WN 1687   3.968   0.601   1.996 -0.2160 -0.1653  0.0573
 1188WN      WN 1688   5.277   1.677   3.924 -0.0962 -0.1064  0.0220
 1189WN      WN 1689   1.453   1.712   5.290 -0.1415  0.0159  0.1497
 1190WN      WN 1690   5.163   1.579   4.839  0.0015  0.0342 -0.3255
 1191WN      WN 1691   6.309   2.176   6.329  0.0930 -0.0690  0.3260
 1192WN      WN 1692   5.258   4.131   1.366 -0.0871  0.2016 -0.1530
 1193WN      WN 1693   1.766   5.335   0.470 -0.3414  0.1483  0.1275
 1194WN      WN 1694   2.712   5.618   1.773  0.1788 -0.0718  0.0805
 1195WN      WN 1695   5.351   1.591   0.424 -0.1305 -0.2741 -0.0236
 1196WN      WN 1696   0.973   4.456   5.565 -0.3483 -0.0769 -0.1546
 1197WN      WN 1697   5.281   5.441   2.713 -0.1502 -0.1951 -0.2069
 1198WN      WN 1698   5.048   1.697   0.858  0.0003 -0.1261 -0.1154
 1199WN      WN 1699   4.449   6.128   5.205  0.1330  0.1375 -0.3267
 1200WN      WN 1700   6.120   1.277   0.298 -0.0769  0.2058  0.0378
 1201WN      WN 1701   1.948   2.539   5.535 -0.2024 -0.0910  0.1109
 1202WN      WN 1702   5.814   3.174   0.670 -0.2081  0.4187  0.3418
 1203WN      WN 1703   1.093   6.179   0.549  0.0740 -0.0317 -0.3356
 1204WN      WN 1704   2.159   3.253   2.108 -0.2106 -0.1174  0.1469
 1205WN      WN 1705   3.344   1.261   3.409  0.3161 -0.2008 -0.0011
 1206WN      WN 1706   5.792   4.803   1.610 -0.2623 -0.0277 -0.3169
 1207WN      WN 1707   3.091   0.993   5.570  0.0047 -0.2317 -0.1244
 1208WN      WN 1708   5.413   5.617   4.833  0.0025 -0.1611  0.1951
 1209WN      WN 1709   1.679   4.585   2.825 -0.1751  0.1616  0.1659
 1210WN      WN 1710   0.759   5.252   1.340 -0.2606 -0.0575 -0.2804
 1211WN      WN 1711   6.422   4.312   4.854  0.1364 -0.0864  0.2183
 1212WN      WN 1712   3.163   6.101   4.085  0.1028 -0.1204 -0.0234
 1213WN      WN 1713   5.614   1.370   3.789 -0.0040  0.0896 -0.0208
 1214WN      WN 1714   3.832   3.359   5.648  0.0196 -0.0082 -0.0409
 1215WN      WN 1715   2.916   0.137   6.189  0.1800  0.0163 -0.1508
 1216WN      WN 1716   3.516   6.269   3.555 -0.0261  0.4157 -0.1707
 1217WN      WN 1717   0.082   2.070   0.391 -0.0665 -0.0086 -0.0860
 1218WN      WN 1718   2.655   0.541   4.267 -0.1014 -0.0111  0.2112
 1219WN      WN 1719   1.136   1.754   6.148 -0.0655  0.1029 -0.1854
 1220WN      WN 1720   3.249   5.327   2.435 -0.2910 -0.0432  0.3329
 1221WN      WN 1721   3.197   3.023   0.224 -0.1011 -0.2350 -0.0428
 1222WN      WN 1722   2.768   5.161   1.986 -0.0493  0.0031  0.0335
 1223WN      WN 1723   0.491   0.742   6.158  0.0724 -0.1352 -0.6510
 1224WN      WN 1724   4.335   6.009   0.867 -0.1066  0.0635 -0.0710
 1225WN      WN 1725   6.070   2.879   1.586 -0.0236  0.0842  0.0530
 1226WN      WN 1726   2.580   2.186   4.997  0.2107 -0.0665 -0.0341
 1227WN      WN 1727   0.162   4.771   4.671  0.1156  0.1233  0.4326
 1228WN      WN 1728   0.973   0.991   5.522 -0.3108 -0.0492  0.1390
 1229WN      WN 1729   5.056   4.227   2.068 -0.1870 -0.0935 -0.1632
 1230WN      WN 1730   4.111   2.354   1.378 -0.1193 -0.4511 -0.0023
 1231WN      WN 1731   5.730   4.343   6.021 -0.1101  0.2095 -0.0235
 1232WN      WN 1732   2.255   3.225   1.190 -0.1901 -0.0466 -0.1777
 1233WN      WN 1733   1.972   2.594   4.269  0.2175  0.2673 -0.0104
 1234WN      WN 1734   3.022   1.712   1.965  0.3748 -0.1453  0.2372
 1235WN      WN 1735   1.557   0.387   0.765 -0.1016 -0.3670  0.0677
 1236WN      WN 1736   1.520   4.048   1.841 -0.2158  0.0286  0.1766
 1237WN      WN 1737   2.815   1.218   2.052 -0.4617 -0.0119  0.1268
 1238WN      WN 1738   0.557   0.430   2.957  0.0741 -0.3424  0.1961
 1239WN      WN 1739   2.904   2.122   6.074 -0.2195 -0.2353 -0.1327
 1240WN      WN 1740   0.976   2.674   4.527 -0.0308 -0.4474  0.0252
 1241WN      WN 1741   1.782   6.524   2.607 -0.2297 -0.5436 -0.1923
 1242WN      WN 1742   1.436   4.389   3.178  0.0832 -0.3446  0.1702
 1243WN      WN 1743   1.219   5.037   0.679  0.1157  0.1677 -0.2232
 1244WN      WN 1744   5.961   6.193   5.896  0.1654  0.3865 -0.4219
 1245WN      WN 1745   2.304   1.479   4.169  0.1674 -0.1656  0.1658
 1246WN      WN 1746   1.383   2.763   1.780  0.2348 -0.2001 -0.1319
 1247WN      WN 1747   4.795   1.129   4.604  0.2948  0.0838 -0.0461
 1248WN      WN 1748   6.498   3.527   4.767  0.2563 -0.2862  0.0557
 1249WN      WN 1749   1.241   5.218   1.669  0.0957 -0.0455  0.2532
 1250WN      WN 1750   3.905   2.339   0.545  0.0167 -0.2102  0.1907
 1251WN      WN 1751   2.054   0.664   5.323  0.1249  0.0317 -0.0769
 1252WN      WN 1752   0.196   3.877   3.347 -0.3053  0.0046 -0.0302
 1253WN      WN 1753   6.374   6.282   5.590  0.0875  0.1311 -0.0996
 1254WN      WN 1754   2.382   3.242   0.657 -0.0597 -0.0718  0.0144
 1255WN      WN 1755   3.063   2.460   2.605  0.1262  0.2494 -0.0823
 1256WN      WN 1756   5.912   0.773   2.964 -0.1918 -0.2419  0.0656
 1257WN      WN 1757   0.852   0.495   5.912  0.0712 -0.0452 -0.1205
 1258WN      WN 1758   2.731   3.026   5.704  0.1871  0.0715  0.2656
 1259WN      WN 1759   3.402   3.888   1.960 -0.3462 -0.0112  0.0786
 1260WN      WN 1760   1.712   4.949   0.785  0.2663 -0.1139 -0.1282
 1261WN      WN 1761   0.340   0.601   5.733 -0.1337 -0.1357 -0.1723
 1262WN      WN 1762   1.468   5.392   0.917  0.1983 -0.2221 -0.2691
 1263WN      WN 1763   1.393   3.201   3.001  0.0095 -0.0071  0.2553
 1264WN      WN 1764   0.143   0.599   1.090  0.4102 -0.1874  0.4211
 1265WN      WN 1765   0.210   6.473   5.846 -0.2161  0.1469 -0.1544
 1266WN      WN 1766   5.690   1.151   2.656 -0.3271  0.2584  0.1463
 1267WN      WN 1767   3.695   5.255   2.184 -0.1136 -0.1653  0.5848
 1268WN      WN 1768   5.491   4.505   2.221 -0.2384 -0.2832  0.2267
 1269WN      WN 1769   5.745   3.878   4.361 -0.0816  0.1788 -0.0136
 1270WN      WN 1770   5.418   4.722   5.137  0.0090 -0.2213  0.3281
 1271WN      WN 1771   0.700   2.303   4.299 -0.1322  0.4438 -0.2836
 1272WN      WN 1772   1.985   0.535   0.421  0.1760 -0.0947 -0.0778
 1273WN      WN 1773   1.373   0.119   1.871  0.0708 -0.1643  0.2811
 1274WN      WN 1774   0.783   4.206   4.004  0.1793  0.1349 -0.0514
 1275WN      WN 1775   3.882   1.920   3.710  0.1855 -0.0732  0.0081
 1276WN      WN 1776   2.774   5.154   5.925 -0.4586  0.0499 -0.2233
 1277WN      WN 1777   5.546   1.959   4.705  0.2168  0.1767  0.5129
 1278WN      WN 1778   5.173   5.077   2.012  0.0552  0.2072 -0.2607
 1279WN      WN 1779   4.984   6.025   2.064  0.2613 -0.3957 -0.0815
 1280WN      WN 1780   5.660   4.967   2.074 -0.1947  0.1193  0.2273
 1281WN      WN 1781   6.251   4.674   3.465  0.0876  0.1591 -0.1091
 1282WN      WN 1782   5.295   2.107   4.248 -0.1165 -0.1327 -0.0529
 1283WN      WN 1783   3.456   3.413   0.432  0.0127  0.2249  0.1383
 1284WN      WN 1784   1.851   4.776   1.383  0.3503  0.1003  0.2158
 1285WN      WN 1785   1.940   1.580   2.087 -0.2157 -0.1769 -0.2151
 1286WN      WN 1786   0.802   4.859   1.018 -0.2666 -0.2322 -0.0580
 1287WN      WN 1787   6.158   6.534   4.505 -0.0884 -0.0836  0.0037
 1288WN      WN 1788   4.852   2.237   3.085 -0.1189  0.1904 -0.0778
 1289WN      WN 1789   1.466   2.311   0.944  0.5329 -0.2434 -0.3079
 1290WN      WN 1790   3.093   3.620   0.123 -0.1387 -0.1189 -0.0164
 1291WN      WN 1791   0.240   0.909   3.014  0.0845  0.1761  0.0002
 1292WN      WN 1792   4.305   2.133   4.673 -0.1440  0.0144  0.2996
 1293WN      WN 1793   4.430   0.601   5.119 -0.1961  0.0098 -0.1777
 1294WN      WN 1794   1.759   1.062   3.375 -0.0012 -0.1914 -0.1110
 1295WN      WN 1795   0.690   0.183   3.902  0.1508  0.0543  0.2228
 1296WN      WN 1796   0.205   4.345   2.451  0.0613  0.1539  0.3130
 1297WN      WN 1797   2.226   3.112   2.795 -0.1313  0.0451 -0.1280
 1298WN      WN 1798   5.474   6.050   2.135 -0.2125 -0.1024 -0.1293
 1299WN      WN 1799   0.430   3.741   1.616 -0.2834  0.1309  0.0545
 1300WN      WN 1800   6.502   0.997   6.433  0.0432 -0.0017  0.0406
 1301WN      WN 1801   4.207   5.369   1.180 -0.0862 -0.0815 -0.2994
 1302WN      WN 1802   2.824   1.112   2.952 -0.3353  0.1125 -0.1220
 1303WN      WN 1803   0.450   3.480   4.645  0.1999  0.0044  0.6415
 1304WN      WN 1804   1.985   1.095   6.234  0.0459 -0.2628 -0.1706
 1305WN      WN 1805   3.832   2.746   2.241 -0.0169  0.1875  0.1617
 1306WN      WN 1806   0.778   0.133   1.208  0.0097  0.0132 -0.0454
 1307WN      WN 1807   4.795   6.234   0.144 -0.2730  0.0397  0.1437
 1308WN      WN 1808   1.403   1.106   0.437 -0.2129 -0.1471  0.1543
 1309WN      WN 1809   3.189   1.580   0.607  0.4702 -0.2030 -0.0061
 1310WN      WN 1810   1.172   5.786   0.837  0.2875  0.2928 -0.0071
 1311WN      WN 1811   3.131   5.063   1.064  0.1910  0.2399 -0.1136
 1312WN      WN 1812   4.869   1.488   3.611  0.2376  0.0151  0.1470
 1313WN      WN 1813   0.019   0.202   0.751 -0.0939 -0.0382  0.0886
 1314WN      WN 1814   6.208   1.903   0.643  0.2121  0.0024  0.0014
 1315WN      WN 1815   2.473   5.236   2.416  0.0219  0.0098 -0.0600
 1316WN      WN 1816   3.239   6.288   3.058 -0.2130  0.1009 -0.0187
 1317WN      WN 1817   3.226   5.105   3.245  0.1275 -0.1956  0.1980
 1318WN      WN 1818   1.726   1.567   3.208 -0.2105 -0.0228  0.1756
 1319WN      WN 1819   5.227   6.021   5.945  0.1045 -0.2054 -0.1281
 1320WN      WN 1820   0.987   2.011   5.202 -0.0760 -0.0017  0.0552
 1321WN      WN 1821   0.673   6.495   3.251 -0.1964  0.0942 -0.3991
 1322WN      WN 1822   6.077   2.540   4.794  0.2600  0.3355 -0.2147
 1323WN      WN 1823   5.148   5.148   0.985  0.0401 -0.2029 -0.0016
 1324WN      WN 1824   5.762   2.372   5.196  0.1955  0.0983  0.0788
 1325WN      WN 1825   3.205   5.423   1.876  0.0088 -0.0134 -0.1597
 1326WN      WN 1826   6.139   5.301   2.991  0.0869 -0.1757 -0.1583
 1327WN      WN 1827   3.516   5.349   3.530 -0.1957  0.2168 -0.3567
 1328WN      WN 1828   2.186   5.076   0.622  0.0024  0.0214 -0.1787
 1329WN      WN 1829   4.042   0.942   2.356  0.4222 -0.1179  0.1747
 1330WN      WN 1830   3.198   1.782   5.765  0.1567  0.1133 -0.0691
 1331WN      WN 1831   1.462   2.622   6.315 -0.2308 -0.1559 -0.2176
 1332WN      WN 1832   5.235   6.486   0.666  0.0440  0.2821 -0.1183
 1333WN      WN 1833   4.117   3.497   6.521  0.1457 -0.0575 -0.0663
 1334WN      WN 1834   1.599   1.757   1.058  0.0612 -0.1595  0.1992
 1335WN      WN 1835   3.718   4.747   4.469 -0.1376 -0.2906  0.0443
 1336WN      WN 1836   3.303   3.772   0.824 -0.0047 -0.1359  0.0245
 1337WN      WN 1837   1.701   5.821   5.417  0.2473 -0.0945 -0.1750
 1338WN      WN 1838   1.578   6.450   3.076 -0.0478  0.1259 -0.1296
 1339WN      WN 1839   0.860   1.145   1.060 -0.0746 -0.0430 -0.1103
 1340WN      WN 1840   1.809   3.133   0.673 -0.6243 -0.0197  0.2837
 1341WN      WN 1841   6.070   5.687   2.227 -0.1676  0.0091 -0.1657
 1342WN      WN 1842   0.527   3.984   4.965 -0.3246 -0.4036 -0.2602
 1343WN      WN 1843   4.321   3.707   2.387  0.1622  0.3153  0.1097
 1344WN      WN 1844   4.696   2.362   3.641  0.0556 -0.1557  0.1027
 1345WN      WN 1845   6.206   0.196   1.751  0.2979 -0.0110 -0.1957
 1346WN      WN 1846   2.052   5.185   4.620  0.0884 -0.1884 -0.2279
 1347WN      WN 1847   0.218   5.847   1.826  0.0880  0.0249 -0.0422
 1348WN      WN 1848   4.173   1.281   2.678  0.2356 -0.0266 -0.2077
 1349WN      WN 1849   0.848   2.213   4.778  0.1946 -0.0581 -0.2040
 1350WN      WN 1850   6.135   6.492   3.985  0.1079 -0.0369  0.1533
 1351WN      WN 1851   2.843   3.476   0.537 -0.1526  0.1860  0.0119
 1352WN      WN 1852   1.107   6.453   3.634 -0.3710 -0.4633 -0.1187
 1353WN      WN 1853   1.821   2.189   4.555  0.1474 -0.0878  0.1437
 1354WN      WN 1854   2.349   2.669   5.240  0.0834 -0.3254  0.1764
 1355WN      WN 1855   0.484   3.701   2.899 -0.8348 -0.3615  0.0915
 1356WN      WN 1856   2.398   5.940   2.075 -0.1171 -0.0071 -0.0894
 1357WN      WN 1857   2.411   1.378   3.261 -0.2016  0.1316  0.1476
 1358WN      WN 1858   0.635   5.413   0.361  0.0618 -0.0398  0.2191
 1359WN      WN 1859   3.942   0.717   6.234 -0.1286  0.0593  0.1323
 1360WN      WN 1860   1.658   4.924   3.183 -0.0525 -0.0859 -0.2665
 1361WN      WN 1861   6.502   3.273   5.528  0.3636  0.0118  0.0738
 1362WN      WN 1862   2.926   0.603   2.155 -0.4589 -0.0704 -0.3932
 1363WN      WN 1863   5.524   6.517   5.201  0.1246  0.1756 -0.2495
 1364WN      WN 1864   1.955   5.657   4.509  0.2342  0.0094  0.2045
 1365WN      WN 1865   1.299   5.001   3.539  0.0331 -0.1884 -0.4595
 1366WN      WN 1866   6.362   0.015   3.092 -0.0702  0.0444  0.0251
 1367WN      WN 1867   5.117   6.353   2.387 -0.3895 -0.0772  0.0628
 1368WN      WN 1868   5.624   1.431   1.347 -0.0120 -0.0003 -0.0852
 1369WN      WN 1869   6.342   0.291   3.626  0.1002  0.6163 -0.0358
 1370WN      WN 1870   1.430   6.242   0.929  0.1360  0.1035 -0.1503
 1371WN      WN 1871   5.974   1.115   1.633 -0.0532  0.2827 -0.0476
 1372WN      WN 1872   6.280   6.084   1.930  0.0376  0.2431  0.2464
 1373WN      WN 1873   4.184   0.199   2.984 -0.0087 -0.1930 -0.0829
 1374WN      WN 1874   3.595   5.807   1.106 -0.1202 -0.1367 -0.0096
 1375WN      WN 1875   4.442   3.075   4.700  0.0851 -0.1976 -0.1598
 1376WN      WN 1876   0.299   4.895   6.228  0.1454  0.2214 -0.1214
 1377WN      WN 1877   1.843   5.987   2.293  0.2854  0.1776  0.0275
 1378WN      WN 1878   6.242   4.093   6.174 -0.1749  0.1081  0.1269
 1379WN      WN 1879   3.201   3.328   6.227 -0.3132  0.1607  0.2633
 1380WN      WN 1880   3.729   6.117   1.567  0.0225  0.0257  0.1190
 1381WN      WN 1881   1.806   0.447   1.745 -0.2683 -0.0933 -0.1116
 1382WN      WN 1882   0.017   3.954   2.893 -0.2718 -0.0106  0.0743
 1383WN      WN 1883   3.389   3.451   5.390 -0.1108  0.2621 -0.1067
 1384WN      WN 1884   2.228   4.572   1.764  0.1354 -0.0746  0.0193
 1385WN      WN 1885   0.106   1.358   2.896  0.1845 -0.2221 -0.4751
 1386WN      WN 1886   5.731   3.930   1.077 -0.0080 -0.3469  0.1697
 1387WN      WN 1887   4.719   2.337   4.392  0.0155  0.1784  0.3017
 1388WN      WN 1888   4.917   2.736   3.195 -0.0270 -0.1341 -0.0376
 1389WN      WN 1889   2.780   2.127   1.828  0.4854 -0.1147  0.3651
 1390WN      WN 1890   2.094   6.246   6.231  0.1302 -0.1449 -0.2136
 1391WN      WN 1891   0.568   0.071   0.744  0.1714 -0.2150 -0.1817
 1392WN      WN 1892   4.951   0.757   2.018 -0.1660 -0.1954 -0.0342
 1393WN      WN 1893   1.979   3.805   1.306 -0.0296  0.1179  0.0450
 1394WN      WN 1894   5.095   6.365   4.422 -0.3247  0.0402 -0.4021
 1395WN      WN 1895   0.188   5.906   5.680 -0.1443  0.0324 -0.2461
 1396WN      WN 1896   2.810   1.458   0.187  0.1355  0.1427 -0.0978
 1397WN      WN 1897   0.555   1.195   5.782 -0.0276 -0.0691 -0.0586
 1398WN      WN 1898   0.932   1.423   0.334 -0.3056 -0.0883 -0.0507
 1399WN      WN 1899   6.140   0.905   4.356 -0.1677  0.0043 -0.2298
 1400WN      WN 1900   2.438   3.319   3.652  0.3031 -0.0125 -0.0900
 1401WN      WN 1901   1.393   0.547   2.713  0.0756  0.1888  0.4263
 1402WN      WN 1902   1.424   5.212   2.130  0.1638  0.2402  0.1544
 1403WN      WN 1903   4.598   3.278   3.887  0.1248 -0.0502  0.0031
 1404WN      WN 1904   1.126   4.701   6.023 -0.0560 -0.0729 -0.2958
 1405WN      WN 1905   1.154   5.190   3.084 -0.1789  0.1380  0.0434
 1406WN      WN 1906   6.437   0.544   4.050 -0.2241 -0.1584 -0.0510
 1407WN      WN 1907   2.977   1.605   6.198 -0.4119 -0.0691  0.0603
 1408WN      WN 1908   2.092   2.059   2.065  0.0488  0.2269 -0.0477
 1409WN      WN 1909   4.479   2.015   3.253  0.0614  0.2721  0.0544
 1410WN      WN 1910   4.815   4.841   5.852 -0.0739  0.4249 -0.0248
 1411WN      WN 1911   0.531   4.307   2.102  0.0438 -0.0005 -0.0451
 1412WN      WN 1912   4.786   6.194   3.671 -0.1456 -0.2100  0.2665
 1413WN      WN 1913   4.058   0.422   4.802 -0.0769 -0.0866  0.1828
 1414WN      WN 1914   0.102   0.854   4.350  0.1000 -0.1116  0.0980
 1415WN      WN 1915   2.118   6.229   0.741  0.1747  0.0307 -0.1009
 1416WN      WN 1916   6.211   3.090   4.691 -0.0024 -0.0179  0.4164
 1417WN      WN 1917   0.840   0.833   4.310 -0.3189 -0.0106  0.1964
 1418WN      WN 1918   5.732   0.632   0.476  0.0099 -0.3089 -0.1710
 1419WN      WN 1919   3.785   3.705   1.668  0.3074  0.3270 -0.1000
 1420WN      WN 1920   2.412   0.248   5.875  0.0731  0.1582 -0.3997
 1421WN      WN 1921   5.402   3.477   0.874  0.0133 -0.0988 -0.1848
 1422WN      WN 1922   3.994   5.268   6.082 -0.0552 -0.0475  0.0580
 1423WN      WN 1923   5.131   5.350   0.409 -0.2454 -0.1445 -0.0263
 1424WN      WN 1924   0.572   0.484   3.462 -0.0181 -0.0662 -0.0731
 1425WN      WN 1925   4.258   1.622   6.075  0.1176 -0.1999 -0.1227
 1426WN      WN 1926   3.491   2.424   0.234 -0.0955  0.1891 -0.3152
 1427WN      WN 1927   6.334   0.726   3.173  0.0017  0.1863  0.1755
 1428WN      WN 1928   0.780   1.546   3.632 -0.1993 -0.0981  0.1346
 1429WN      WN 1929   5.681   0.647   2.497 -0.0043 -0.0224 -0.0723
 1430WN      WN 1930   3.779   1.985   5.208  0.2306  0.1111 -0.0984
 1431WN      WN 1931   0.534   4.945   0.103  0.1688  0.1008 -0.0249
 1432WN      WN 1932   0.203   4.913   2.923 -0.2311 -0.1233 -0.2816
 1433WN      WN 1933   0.019   3.459   2.729 -0.0783  0.1801  0.0349
 1434WN      WN 1934   2.077   3.597   5.707 -0.1962 -0.1379 -0.3238
 1435WN      WN 1935   2.443   1.751   3.642 -0.0790  0.1600 -0.0077
 1436WN      WN 1936   2.334   0.921   1.200 -0.3232  0.2716  0.1366
 1437WN      WN 1937   4.777   3.825   2.110 -0.1824  0.4448  0.0553
 1438WN      WN 1938   1.385   0.190   4.509  0.3542 -0.3779  0.1780
 1439WN      WN 1939   6.494   2.130   3.195 -0.2462  0.0204 -0.1913
 1440WN      WN 1940   5.550   1.155   3.219 -0.1593  0.1329  0.2428
 1441WN      WN 1941   5.368   2.094   2.276 -0.0043 -0.0247 -0.0322
 1442WN      WN 1942   2.562   4.218   1.965  0.0682  0.2139  0.0317
 1443WN      WN 1943   1.455   2.219   3.142  0.0596 -0.1616 -0.1462
 1444WN      WN 1944   5.703   2.990   4.597  0.0525 -0.0188 -0.2197
 1445WN      WN 1945   3.333   5.794   6.347 -0.0186  0.1390 -0.0768
 1446WN      WN 1946   1.583   3.961   0.977  0.0426 -0.1473 -0.1327
 1447WN      WN 1947   0.964   1.615   1.541  0.1260 -0.1833  0.2371
 1448WN      WN 1948   4.380   0.585   3.794 -0.0956 -0.1649 -0.1717
 1449WN      WN 1949   5.909   5.933   0.265  0.0095  0.1328 -0.0107
 1450WN      WN 1950   2.688   0.794   0.111  0.0198 -0.3702  0.1867
 1451WN      WN 1951   3.498   0.795   5.985  0.1248  0.1315 -0.0794
 1452WN      WN 1952   2.432   3.227   0.114 -0.1283  0.1443 -0.3100
 1453WN      WN 1953   1.626   2.379   2.003 -0.0700 -0.1336  0.1808
 1454WN      WN 1954   5.810   2.034   6.194 -0.0260  0.0982  0.0734
 1455WN      WN 1955   4.045   6.531   2.186 -0.6031 -0.0482  0.1359
 1456WN      WN 1956   4.379   0.960   5.457 -0.0281 -0.2500 -0.0188
 1457WN      WN 1957   2.996   5.886   2.907 -0.4023  0.4563 -0.2473
 1458WN      WN 1958   1.036   4.199   6.017 -0.3604  0.3038 -0.2323
 1459WN      WN 1959   0.621   4.001   1.263 -0.1209 -0.1106  0.0393
 1460WN      WN 1960   0.476   1.806   5.362 -0.2402 -0.0741 -0.1854
 1461WN      WN 1961   1.701   3.220   1.153 -0.1356  0.0002 -0.2567
 1462WN      WN 1962   0.423   5.174   0.916  0.0355  0.1031 -0.1882
 1463WN      WN 1963   3.253   4.970   5.774 -0.2285 -0.0184  0.1200
 1464WN      WN 1964   5.446   3.541   3.490  0.0551  0.3059 -0.1699
 1465WN      WN 1965   1.958   4.107   5.757 -0.0920  0.3050  0.2407
 1466WN      WN 1966   5.125   5.612   5.657 -0.1095  0.0562 -0.0107
 1467WN      WN 1967   5.039   1.426   2.265 -0.1580 -0.0998  0.0125
 1468WN      WN 1968   4.664   5.804   1.249 -0.0266  0.1042 -0.0573
 1469WN      WN 1969   0.722   0.002   5.675 -0.0102 -0.1016 -0.1436
 1470WN      WN 1970   6.199   2.650   3.776  0.1293  0.1322  0.0820
 1471WN      WN 1971   5.244   1.663   5.875  0.1012  0.3534  0.0944
 1472WN      WN 1972   1.762   2.747   1.034  0.0589  0.0573  0.1560
 1473WN      WN 1973   2.290   1.596   0.277 -0.1681 -0.0582  0.3043
 1474WN      WN 1974   3.732   1.372   3.696 -0.2390 -0.0434 -0.4271
 1475WN      WN 1975   4.530   1.308   5.121 -0.0658  0.0918  0.2848
 1476WN      WN 1976   1.353   1.291   5.715 -0.2986  0.1624 -0.0297
 1477WN      WN 1977   0.984   2.150   2.877 -0.1327  0.1530  0.1827
 1478WN      WN 1978   2.637   1.857   1.194  0.3064  0.0368  0.1994
 1479WN      WN 1979   5.179   2.618   3.605  0.0561 -0.2788  0.3426
 1480WN      WN 1980   2.903   6.170   1.253  0.1282  0.1660 -0.3690
 1481WN      WN 1981   4.707   6.146   2.689  0.5394  0.2756  0.1105
 1482WN      WN 1982   1.518   3.891   2.994 -0.0445 -0.0984  0.3752
 1483WN      WN 1983   3.375   1.457   0.006  0.2418  0.0995 -0.0796
 1484WN      WN 1984   2.254   5.760   2.507 -0.0222  0.1921 -0.0828
 1485WN      WN 1985   2.073   6.105   1.259 -0.1781  0.1785  0.5460
 1486WN      WN 1986   2.904   0.121   1.162 -0.3091 -0.0814 -0.1351
 1487WN      WN 1987   1.908   6.340   0.216  0.1022 -0.1396  0.0762
 1488WN      WN 1988   6.056   4.065   1.853 -0.0197  0.1088 -0.2210
 1489WN      WN 1989   4.888   5.568   1.668  0.0904 -0.1262 -0.1866
 1490WN      WN 1990   2.302   2.204   6.269 -0.0720  0.0213  0.2389
 1491WN      WN 1991   0.298   6.175   3.859 -0.0709 -0.0540 -0.2487
 1492WN      WN 1992   6.089   0.683   3.609  0.0735 -0.1998 -0.0442
 1493WN      WN 1993   0.397   2.950   1.653  0.3772 -0.3238 -0.3197
 1494WN      WN 1994   6.329   0.506   4.601 -0.0419 -0.0536  0.0116
 1495WN      WN 1995   3.340   2.405   3.055  0.0172 -0.1474 -0.0613
 1496WN      WN 1996   1.779   5.040   6.136  0.1387 -0.0535  0.1884
 1497WN      WN 1997   3.601   1.541   5.622 -0.0643 -0.3440  0.0139
 1498WN      WN 1998   5.404   2.977   1.013  0.1688 -0.0750  0.0987
 1499WN      WN 1999   0.012   3.010   1.336  0.1300  0.0586  0.2755
 1500WN      WN 2000   3.327   0.288   3.820 -0.0691 -0.2780  0.1588
 1501WN      WN 2001   0.181   0.971   5.442  0.1875  0.2027  0.0251
 1502WN      WN 2002   4.909   5.700   0.806 -0.0795  0.3122 -0.1420
 1503WN      WN 2003   1.437   6.066   3.968  0.1423 -0.0436  0.2034
 1504WN      WN 2004   6.212   3.643   2.168 -0.0144  0.0534 -0.1127
 1505WN      WN 2005   1.305   1.044   2.183  0.0262 -0.0556 -0.0741
 1506WN      WN 2006   2.243   2.751   1.292 -0.1550  0.4733  0.0080
 1507WN      WN 2007   3.080   4.482   2.227 -0.0608 -0.4703  0.2127
 1508WN      WN 2008   2.474   0.603   0.537 -0.2068 -0.3395 -0.0634
 1509WN      WN 2009   4.220   3.017   6.424  0.0502 -0.1859  0.0467
 1510WN      WN 2010   4.993   5.154   4.241 -0.1870  0.2235  0.2789
 1511WN      WN 2011   4.127   3.206   2.348 -0.2390 -0.0869 -0.3119
 1512WN      WN 2012   4.214   0.175   4.016  0.1614  0.0811 -0.2586
 1513WN      WN 2013   2.542   0.683   3.647  0.1236 -0.3399  0.1054
 1514WN      WN 2014   5.218   6.269   3.988  0.1109 -0.1587  0.0929
 1515WN      WN 2015   5.788   3.860   4.830  0.0110 -0.0215 -0.0061
 1516WN      WN 2016   1.150   5.645   5.552  0.1086 -0.3434  0.0394
 1517WN      WN 2017   4.421   0.206   4.532 -0.3491 -0.3236  0.1379
 1518WN      WN 2018   4.582   3.160   2.006  0.0057  0.1234  0.1320
 1519WN      WN 2019   6.236   0.473   2.667  0.0705  0.0849 -0.3963
 1520WN      WN 2020   4.542   2.755   0.089  0.0310  0.1472  0.3423
 1521WN      WN 2021   5.315   3.051   5.359 -0.0989  0.1360  0.0837
 1522WN      WN 2022   5.600   0.288   2.865  0.1037  0.0048  0.0028
 1523WN      WN 2023   0.191   3.977   4.545  0.2463 -0.1234 -0.1482
 1524WN      WN 2024   4.402   5.157   2.431 -0.2890 -0.4211 -0.0379
 1525WN      WN 2025   5.016   2.471   4.001  0.1264  0.5204 -0.1678
 1526WN      WN 2026   1.167   3.549   6.190  0.1010 -0.3656 -0.0615
 1527WN      WN 2027   4.893   2.882   1.044 -0.0177  0.2217  0.0964
 1528WN      WN 2028   6.299   0.726   1.671  0.2398  0.0934  0.0345
 1529WN      WN 2029   5.142   2.585   0.633  0.2784 -0.2854 -0.0303
 1530WN      WN 2030   5.863   2.978   0.240  0.1934  0.1166 -0.2542
 1531WN      WN 2031   4.986   1.813   2.565 -0.1557  0.1352  0.1574
 1532WN      WN 2032   3.430   3.010   2.082  0.1335 -0.1549 -0.0532
 1533WN      WN 2033   1.481   1.763   4.403  0.0589  0.1577 -0.0433
 1534WN      WN 2034   5.390   5.537   0.782  0.0928  0.0624 -0.0559
 1535WN      WN 2035   3.711   2.324   3.343  0.1910 -0.3102 -0.0381
 1536WN      WN 2036   3.298   0.927   2.930 -0.1614  0.0796 -0.0236
 1537WN      WN 2037   0.908   0.155   2.065 -0.0142  0.1105  0.0806
 1538WN      WN 2038   2.806   5.628   5.622 -0.2289  0.1325 -0.2669
 1539WN      WN 2039   4.947   4.589   4.326 -0.2289 -0.1182  0.4460
 1540WN      WN 2040   6.114   6.158   2.442  0.1507  0.1762 -0.0724
 1541WN      WN 2041   5.442   1.722   6.429 -0.0335 -0.2517  0.1041
 1542WN      WN 2042   5.054   3.487   3.990 -0.1912 -0.2547  0.1589
 1543WN      WN 2043   3.566   5.328   6.481  0.4359 -0.0001 -0.1415
 1544WN      WN 2044   3.439   1.739   2.234  0.6373 -0.1539 -0.1963
 1545WN      WN 2045   3.455   0.696   1.961 -0.3444  0.1770 -0.3417
 1546WN      WN 2046   0.496   5.391   5.768  0.2667  0.0681  0.0398
 1547WN      WN 2047   0.891   5.041   2.086 -0.1633 -0.2918  0.0199
 1548WN      WN 2048   2.571   1.064   1.595  0.0864  0.1421  0.0705
 1549WN      WN 2049   2.982   4.013   2.283  0.1047  0.0110 -0.5038
 1550WN      WN 2050   0.453   2.590   1.356 -0.0027 -0.1930  0.1201
 1551WN      WN 2051   0.738   6.458   0.157 -0.2701  0.2824  0.3255
 1552WN      WN 2052   4.894   2.207   0.900  0.1408 -0.1587  0.0263
 1553WN      WN 2053   4.003   2.148   6.110  0.2596 -0.0697  0.0482
 1554WN      WN 2054   0.418   6.256   5.434 -0.0438  0.2114 -0.2500
 1555WN      WN 2055   0.599   0.712   5.250 -0.0334 -0.1174  0.0135
 1556WN      WN 2056   5.608   0.766   1.079 -0.5504 -0.2020 -0.0214
 1557WN      WN 2057   3.988   1.954   3.191  0.0469 -0.0631 -0.2537
 1558WN      WN 2058   1.042   0.407   3.571  0.1208 -0.4438 -0.0315
 1559WN      WN 2059   5.368   1.099   0.720  0.1462  0.2324  0.2158
 1560WN      WN 2060   3.924   0.567   3.500 -0.0024 -0.1944  0.1265
 1561WN      WN 2061   3.464   1.441   4.477  0.0354  0.1850  0.1080
 1562WN      WN 2062   2.046   5.466   6.295 -0.1575 -0.0435 -0.1717
 1563WN      WN 2063   2.161   4.080   6.305 -0.2081  0.1239 -0.0921
 1564WN      WN 2064   3.300   4.698   0.660  0.1849  0.0690  0.1137
 1565WN      WN 2065   4.906   4.815   6.339  0.2456  0.1330  0.1533
 1566WN      WN 2066   3.053   2.968   0.687  0.2340  0.1601 -0.3778
 1567WN      WN 2067   1.028   6.378   4.734  0.1002 -0.0903  0.3542
 1568WN      WN 2068   5.244   1.410   2.841  0.0181 -0.2999 -0.1341
 1569WN      WN 2069   3.367   0.187   3.353  0.2404  0.2204 -0.1243
 1570WN      WN 2070   2.025   3.506   2.583  0.0879  0.0204 -0.1924
 1571WN      WN 2071   4.719   3.485   4.886  0.0409 -0.1344  0.2278
 1572WN      WN 2072   3.122   2.438   6.384 -0.0239 -0.0112 -0.0128
 1573WN      WN 2073   1.612   2.877   5.611 -0.2645 -0.0047  0.0244
 1574WN      WN 2074   0.738   1.724   3.026  0.1301  0.0953 -0.0876
 1575WN      WN 2075   0.129   4.819   5.742  0.1385 -0.0006 -0.0134
 1576WN      WN 2076   6.083   6.036   3.835  0.2110  0.3125  0.0107
 1577WN      WN 2077   1.021   4.794   1.588  0.0516 -0.3587  0.3906
 1578WN      WN 2078   2.939   0.992   1.214  0.1194 -0.2845 -0.0443
 1579WN      WN 2079   0.781   1.622   4.994  0.2361 -0.0963 -0.0275
 1580WN      WN 2080   1.405   2.472   5.829 -0.0774  0.1540 -0.1598
 1581WN      WN 2081   2.521   5.447   6.389  0.1545  0.1724 -0.4868
 1582WN      WN 2082   2.690   3.389   6.070  0.2039 -0.0033 -0.1534
 1583WN      WN 2083   0.566   2.241   0.528  0.0108  0.1781 -0.0821
 1584WN      WN 2084   2.434   1.665   1.631 -0.2515  0.0130  0.0204
 1585WN      WN 2085   4.803   3.250   4.421  0.3654 -0.2222 -0.1214
 1586WN      WN 2086   6.109   1.241   3.022  0.1985 -0.0009  0.0647
 1587WN      WN 2087   5.374   2.561   2.513  0.1178  0.0515 -0.1869
 1588WN      WN 2088   5.422   0.209   4.264  0.4055 -0.1564 -0.0018
 1589WN      WN 2089   5.593   3.548   6.330 -0.2662 -0.1758 -0.0440
 1590WN      WN 2090   0.153   0.678   3.584 -0.0740  0.5131  0.0812
 1591WN      WN 2091   0.084   6.133   2.287  0.3907 -0.3414 -0.0106
 1592WN      WN 2092   4.273   6.089   6.199  0.1170 -0.1125 -0.1709
 1593WN      WN 2093   1.465   5.014   5.690  0.1221 -0.1704 -0.0714
 1594WN      WN 2094   1.948   0.701   2.249  0.1768 -0.0193 -0.0723
 1595WN      WN 2095   5.237   3.489   3.067  0.2936  0.0287 -0.1482
 1596WN      WN 2096   1.097   0.945   2.682  0.0454  0.0832  0.0591
 1597WN      WN 2097   4.995   1.254   1.806  0.1204 -0.0254  0.0857
 1598WN      WN 2098   2.687   2.163   3.602 -0.3899 -0.2023 -0.0555
 1599WN      WN 2099   3.382   0.854   4.299 -0.1787  0.4257 -0.0611
 1600WN      WN 2100   1.459   1.500   1.918 -0.1470 -0.0747  0.1435
 1601WN      WN 2101   1.081   4.530   0.842  0.0058  0.0455  0.3037
 1602WN      WN 2102   2.135   3.444   1.630 -0.0125  0.0477 -0.0160
 1603WN      WN 2103   6.219   3.769   0.263  0.3231 -0.0756  0.2110
 1604WN      WN 2104   5.394   4.641   1.748  0.4108 -0.0161  0.0716
 1605WN      WN 2105   2.270   0.320   1.918 -0.3293  0.2261  0.1050
 1606WN      WN 2106   0.763   4.233   2.556  0.0452 -0.0881  0.0685
 1607WN      WN 2107   0.670   4.897   2.660  0.3165  0.0374  0.1952
 1608WN      WN 2108   4.603   1.593   1.850 -0.4099 -0.4920 -0.0996
 1609WN      WN 2109   5.503   2.521   4.554 -0.1650  0.3113 -0.0206
 1610WN      WN 2110   5.011   5.358   6.399  0.1183 -0.0154 -0.2301
 1611WN      WN 2111   2.429   3.700   1.025  0.0276  0.1015 -0.0048
 1612WN      WN 2112   5.017   2.520   6.425 -0.1396  0.0043 -0.1260
 1613WN      WN 2113   5.487   2.650   3.021 -0.0740 -0.0695 -0.4106
 1614WN      WN 2114   4.060   1.764   6.507 -0.0452  0.3055  0.0663
 1615WN      WN 2115   1.125   5.587   1.288 -0.2155  0.0389  0.1726
 1616WN      WN 2116   2.953   5.301   1.492 -0.0205 -0.1044 -0.0899
 1617WN      WN 2117   1.182   5.205   5.243  0.3264  0.3510  0.0701
 1618WN      WN 2118   2.263   5.898   0.022 -0.0627  0.1725  0.1635
 1619WN      WN 2119   1.988   3.364   0.267  0.3985  0.1917 -0.0516
 1620WN      WN 2120   2.484   0.428   5.335 -0.0753 -0.3596  0.0116
 1621WN      WN 2121   2.733   0.365   4.775 -0.2395 -0.2495 -0.0163
 1622WN      WN 2122   3.852   2.727   0.911 -0.0172  0.4414  0.2837
 1623WN      WN 2123   1.304   5.552   0.429 -0.3829  0.3323  0.5373
 1624WN      WN 2124   0.873   5.369   0.828  0.0493  0.0424 -0.4090
 1625WN      WN 2125   1.183   1.356   4.485  0.0968  0.2838 -0.0589
 1626WN      WN 2126   3.600   6.413   2.171  0.0536  0.0691 -0.1975
 1627WN      WN 2127   4.998   4.676   2.374  0.1256  0.1369  0.1541
 1628WN      WN 2128   6.501   6.141   0.780 -0.1432 -0.3167 -0.0722
 1629WN      WN 2129   3.337   3.875   1.370  0.1767  0.1543  0.1412
 1630WN      WN 2130   6.318   3.538   3.300  0.2714 -0.1133  0.0268
 1631WN      WN 2131   0.808   3.697   5.910 -0.0976 -0.1679  0.1677
 1632WN      WN 2132   6.515   4.362   5.461 -0.1460 -0.0286 -0.1394
 1633WN      WN 2133   5.651   5.695   5.777 -0.0335  0.1213 -0.0244
 1634WN      WN 2134   1.584   5.390   3.380 -0.1223 -0.3885  0.0790
 1635WN      WN 2135   5.980   4.149   5.141  0.1957  0.2437 -0.2462
 1636WN      WN 2136   5.920   0.144   0.690 -0.0057 -0.0324 -0.0370
 1637WN      WN 2137   5.800   3.149   5.449  0.3145 -0.0031  0.2002
 1638WN      WN 2138   0.829   2.240   1.603  0.0610  0.0356  0.1143
 1639WN      WN 2139   4.057   1.709   5.551 -0.1775 -0.2964  0.1651
 1640WN      WN 2140   0.694   6.136   6.009  0.1216  0.5323  0.0961
 1641WN      WN 2141   3.298   1.224   2.110  0.3607  0.0910 -0.2023
 1642WN      WN 2142   5.708   6.459   3.669 -0.0282  0.2764  0.0506
 1643WN      WN 2143   5.340   6.315   0.106  0.2973  0.1224  0.1641
 1644WN      WN 2144   0.797   3.865   2.026 -0.0261 -0.0805  0.1197
 1645WN      WN 2145   4.697   0.066   2.901  0.0168  0.0675 -0.1575
 1646WN      WN 2146   0.936   3.756   0.897 -0.0272  0.0309 -0.0715
 1647WN      WN 2147   3.039   0.665   0.492  0.0720  0.2707 -0.1417
 1648WN      WN 2148   0.695   3.850   4.365 -0.0718 -0.3579 -0.0272
 1649WN      WN 2149   5.681   0.069   4.729 -0.2289  0.0241 -0.0012
 1650WN      WN 2150   1.168   3.159   0.593 -0.1405  0.1141 -0.4497
 1651WN      WN 2151   0.651   2.509   3.720  0.0621  0.1398  0.2000
 1652WN      WN 2152   3.466   0.441   0.519 -0.0410 -0.1388  0.1187
 1653WN      WN 2153   2.113   3.562   6.234 -0.2356  0.1843 -0.0163
 1654WN      WN 2154   3.576   3.575   6.456 -0.1954 -0.1201 -0.1619
 1655WN      WN 2155   3.016   5.445   0.546  0.2945  0.1765  0.0580
 1656WN      WN 2156   1.249   6.460   0.131 -0.3553  0.2260 -0.3673
 1657WN      WN 2157   5.542   1.532   0.896 -0.1029  0.1978  0.1572
 1658WN      WN 2158   5.274   5.799   3.114  0.0322  0.0219  0.0403
 1659WN      WN 2159   5.768   0.252   1.169 -0.0169 -0.1125  0.1837
 1660WN      WN 2160   5.405   4.349   4.797 -0.1597 -0.1747 -0.1178
 1661WN      WN 2161   1.016   4.815   0.197 -0.1822 -0.1060 -0.0165
 1662WN      WN 2162   1.293   4.738   5.283 -0.1282 -0.1550 -0.0838
 1663WN      WN 2163   2.216   4.367   2.313 -0.0943  0.3470  0.2583
 1664WN      WN 2164   4.794   5.840   3.136  0.3040  0.0185 -0.1052
 1665WN      WN 2165   2.189   2.511   4.708  0.1027  0.1760  0.3460
 1666WN      WN 2166   1.034   5.210   2.582 -0.1020  0.1458 -0.0317
 1667WN      WN 2167   1.975   0.605   2.801  0.1142  0.2159  0.2369
 1668WN      WN 2168   6.185   5.413   5.140  0.2217 -0.3562 -0.0070
 1669WN      WN 2169   0.708   5.881   5.584 -0.1386  0.0287  0.2680
 1670WN      WN 2170   6.267   1.323   2.297  0.1671 -0.2165  0.3473
 1671WN      WN 2171   4.516   5.725   6.392  0.1393  0.4093 -0.2592
 1672WN      WN 2172   5.770   0.885   3.958  0.2608  0.1872 -0.0591
 1673WN      WN 2173   4.238   2.705   1.809  0.1592  0.3223  0.1823
 1674WN      WN 2174   1.544   1.359   6.205 -0.3506  0.2133 -0.0647
 1675WN      WN 2175   1.780   3.841   2.269 -0.1364 -0.0755  0.1367
 1676WN      WN 2176   5.953   4.480   2.052  0.2650  0.1021 -0.0332
 1677WN      WN 2177   0.515   1.362   1.523 -0.2194  0.0665 -0.0526
 1678WN      WN 2178   2.165   6.198   4.594 -0.0430 -0.1721  0.2212
 1679WN      WN 2179   2.725   1.669   2.954  0.0050  0.0614 -0.2243
 1680WN      WN 2180   0.312   1.589   1.956  0.0399  0.2564  0.3116
 1681WN      WN 2181   6.190   0.259   4.997 -0.0809  0.1836 -0.0572
 1682WN      WN 2182   3.572   3.447   2.886 -0.1207  0.0606 -0.0340
 1683WN      WN 2183   5.866   2.022   2.020 -0.2929 -0.1549  0.1416
 1684WN      WN 2184   4.710   5.376   5.988  0.1644  0.3830 -0.1034
 1685WN      WN 2185   4.729   3.496   1.600 -0.1885  0.0545 -0.2523
 1686WN      WN 2186   5.810   3.845   5.958  0.0563  0.0990  0.1177
 1687WN      WN 2187   5.396   5.597   6.194  0.0374 -0.0278 -0.1327
 1688WN      WN 2188   0.459   2.008   3.376 -0.2447  0.0068  0.0901
 1689WN      WN 2189   0.889   1.825   0.678  0.1714  0.4181 -0.1002
 1690WN      WN 2190   3.182   0.405   4.296 -0.0124  0.4224  0.0398
 1691WN      WN 2191   5.622   4.678   0.259  0.0861 -0.3202 -0.0954
 1692WN      WN 2192   1.606   2.067   4.995  0.0533 -0.0966  0.0516
 1693WN      WN 2193   3.596   0.934   5.526 -0.1789 -0.1429  0.2799
 1694WN      WN 2194   0.238   5.720   0.083 -0.1541  0.0195  0.1789
 1695WN      WN 2195   3.801   5.909   5.509  0.0235 -0.0073  0.1835
 1696WN      WN 2196   3.973   1.543   4.159  0.0220  0.0502  0.1324
 1697WN      WN 2197   5.123   4.802   0.232 -0.0291 -0.0632 -0.3676
 1698WN      WN 2198   1.415   0.780   1.590 -0.2076  0.3647 -0.0633
 1699WN      WN 2199   0.120   1.371   5.169 -0.0902 -0.1765  0.2559
 1700WN      WN 2200   6.506   6.089   0.185  0.0230 -0.0171 -0.1070
 1701WN      WN 2201   2.486   6.202   0.364  0.0508 -0.0802  0.1815
 1702WN      WN 2202   6.283   5.113   3.691  0.5183  0.1824 -0.3556
 1703WN      WN 2203   2.784   0.327   0.129 -0.3211  0.0302 -0.3805
 1704WN      WN 2204   5.312   2.126   0.712  0.0479  0.2229  0.0516
 1705WN      WN 2205   6.185   4.966   6.330  0.0236 -0.0424  0.1278
 1706WN      WN 2206   2.306   0.757   5.752 -0.0797 -0.0638 -0.3913
 1707WN      WN 2207   4.011   4.871   2.493 -0.0125 -0.0739  0.0954
 1708WN      WN 2208   1.140   6.223   2.109 -0.0095 -0.1444  0.1440
 1709WN      WN 2209   5.059   0.545   1.165  0.2686  0.1027 -0.0769
 1710WN      WN 2210   4.899   0.700   4.045 -0.1701 -0.0439  0.1911
 1711WN      WN 2211   0.432   5.638   3.330  0.0760 -0.1233 -0.0939
 1712WN      WN 2212   0.120   0.399   3.091  0.2362 -0.5181  0.2534
 1713WN      WN 2213   0.479   0.232   6.188  0.3944  0.2610 -0.0426
 1714WN      WN 2214   3.744   1.709   6.121 -0.0316 -0.3309 -0.1848
 1715WN      WN 2215   3.511   6.346   5.325  0.1032  0.1382 -0.0837
 1716WN      WN 2216   3.763   2.650   4.251 -0.0988 -0.1337 -0.2363
 1717WN      WN 2217   5.350   0.587   4.817  0.2142  0.3830  0.0159
 1718WN      WN 2218   5.960   5.420   0.199 -0.4224 -0.0139  0.5467
 1719WN      WN 2219   3.176   1.396   5.344 -0.0720 -0.1043 -0.1046
 1720WN      WN 2220   0.607   5.664   1.137 -0.1530 -0.0994  0.2793
 1721WN      WN 2221   5.796   4.245   2.834  0.0549 -0.0689 -0.0137
 1722WN      WN 2222   5.357   5.117   6.007 -0.0548  0.2955 -0.2769
 1723WN      WN 2223   4.525   0.519   2.218  0.2799  0.1188 -0.0173
 1724WN      WN 2224   2.870   5.732   4.154 -0.0880  0.1580 -0.0239
 1725WN      WN 2225   5.177   5.910   2.554 -0.3296 -0.0182  0.0321
 1726WN      WN 2226   5.564   5.995   0.694 -0.1678 -0.0367 -0.2452
 1727WN      WN 2227   1.187   6.138   6.046  0.0388 -0.1800 -0.0667
 1728WN      WN 2228   5.626   1.750   5.273  0.2432  0.1771  0.0559
 1729WN      WN 2229   6.185   4.161   3.278  0.3062  0.0707  0.0051
 1730WN      WN 2230   1.240   4.258   2.718  0.2520  0.0005  0.0656
 1731WN      WN 2231   5.185   3.042   2.882 -0.0310  0.0841  0.0096
 1732WN      WN 2232   3.239   4.782   5.317  0.1694  0.0933  0.2648
 1733WN      WN 2233   0.566   2.431   2.383 -0.0685  0.0057  0.0207
 1734WN      WN 2234   3.097   2.396   5.046 -0.3395  0.2543  0.2754
 1735WN      WN 2235   2.943   2.698   5.386  0.0052 -0.1652  0.1422
 1736WN      WN 2236   5.008   4.644   1.177  0.2663  0.1727  0.2706
 1737WN      WN 2237   1.689   5.619   2.604  0.0970  0.2084 -0.0707
 1738WN      WN 2238   1.615   2.430   3.641  0.0880 -0.1793 -0.2524
 1739WN      WN 2239   0.722   3.210   6.059 -0.3764 -0.0079  0.0790
 1740WN      WN 2240   6.069   0.947   1.193 -0.0783 -0.0845 -0.1225
 1741WN      WN 2241   6.333   2.593   3.235 -0.3667 -0.0040 -0.2046
 1742WN      WN 2242   5.769   5.981   3.355  0.1167 -0.1693  0.0174
 1743WN      WN 2243   2.048   6.160   5.255 -0.0926 -0.2815  0.1433
 1744WN      WN 2244   4.960   1.702   3.089  0.1130  0.0564 -0.0771
 1745WN      WN 2245   4.970   4.206   4.603  0.3673 -0.0919  0.0957
 1746WN      WN 2246   2.159   2.202   5.253  0.0340 -0.0055 -0.1179
 1747WN      WN 2247   2.156   1.777   5.919  0.1786  0.0308  0.0618
 1748WN      WN 2248   0.570   0.491   0.064 -0.1545  0.3095  0.1248
 1749WN      WN 2249   1.169   2.772   2.361 -0.2710  0.2995 -0.2051
 1750WN      WN 2250   2.279   0.747   4.099  0.2364 -0.0307 -0.1191
 1751WN      WN 2251   0.647   1.304   4.101  0.3374 -0.0679 -0.1108
 1752WN      WN 2252   6.443   3.781   1.729  0.1560 -0.1305 -0.2138
 1753WN      WN 2253   4.839   4.571   2.822  0.0795  0.0711 -0.0087
 1754WN      WN 2254   3.638   5.251   1.085  0.0083 -0.1466  0.1552
 1755WN      WN 2255   6.538   2.776   5.426  0.2302  0.2721 -0.1738
 1756WN      WN 2256   0.931   0.393   2.600 -0.0510 -0.2091 -0.2616
 1757WN      WN 2257   4.858   3.287   0.611  0.0738 -0.3635  0.0294
 1758WN      WN 2258   5.390   3.092   6.485 -0.0564 -0.2248  0.4226
 1759WN      WN 2259   1.238   2.517   4.880 -0.1430 -0.0847  0.0961
 1760WN      WN 2260   3.256   0.349   1.687 -0.2777  0.1754 -0.1013
 1761WN      WN 2261   4.169   5.071   5.223 -0.2508 -0.1716  0.1222
 1762WN      WN 2262   2.311   2.701   6.490  0.2949  0.1070 -0.2588
 1763WN      WN 2263   0.511   2.927   5.313  0.5132  0.0841 -0.1812
 1764WN      WN 2264   0.056   6.442   4.229  0.3001  0.2317 -0.3863
 1765WN      WN 2265   2.967   6.142   5.521  0.1195  0.1279 -0.1801
 1766WN      WN 2266   3.734   5.529   1.510 -0.0135 -0.0101 -0.1405
 1767WN      WN 2267   0.893   4.315   0.361 -0.1740 -0.1675 -0.2036
 1768WN      WN 2268   0.522   0.128   2.476  0.3198  0.0230  0.4426
 1769WN      WN 2269   0.298   6.271   6.436 -0.0266  0.2506  0.0555
 1770WN      WN 2270   0.160   3.885   2.214  0.2331  0.1180 -0.1807
 1771WN      WN 2271   4.930   3.369   5.318 -0.1524 -0.1314  0.0996
 1772WN      WN 2272   2.635   4.324   2.551 -0.1177  0.1747 -0.2682
 1773WN      WN 2273   5.639   0.606   5.995  0.3032  0.1135  0.2404
 1774WN      WN 2274   1.140   2.711   0.122 -0.1643  0.1092  0.2149
 1775WN      WN 2275   4.016   2.867   1.404 -0.0217  0.1518 -0.1547
 1776WN      WN 2276   5.554   2.094   3.267 -0.1237 -0.2214 -0.1087
 1777WN      WN 2277   4.757   2.272   2.604 -0.0419 -0.0311 -0.1300
 1778WN      WN 2278   5.324   3.844   4.612 -0.2130 -0.0339  0.2890
 1779WN      WN 2279   5.798   0.488   4.384 -0.1450 -0.1594 -0.1212
 1780WN      WN 2280   0.242   5.030   2.200 -0.0869 -0.0521 -0.2241
 1781WN      WN 2281   1.227   1.737   4.842  0.1587  0.0308  0.1050
 1782WN      WN 2282   5.919   5.664   0.736 -0.3060  0.1053 -0.3450
 1783WN      WN 2283   1.741   4.428   0.907 -0.0147 -0.1654 -0.1679
 1784WN      WN 2284   2.690   6.041   2.532 -0.0255 -0.1343  0.3013
 1785WN      WN 2285   1.595   3.020   5.080  0.0865 -0.1258 -0.0390
 1786WN      WN 2286   3.603   4.378   0.423 -0.1542 -0.1796 -0.1994
 1787WN      WN 2287   2.319   0.177   0.302 -0.0424  0.2506  0.2124
 1788WN      WN 2288   0.079   6.000   2.770 -0.0827 -0.0640 -0.1250
 1789WN      WN 2289   3.346   1.813   3.205 -0.2218 -0.1722 -0.4204
 1790WN      WN 2290   6.509   1.562   1.004  0.2819  0.1815 -0.1419
 1791WN      WN 2291   4.648   4.016   1.489  0.0554 -0.0229  0.2960
 1792WN      WN 2292   5.535   2.073   5.787 -0.1857 -0.3692 -0.1363
 1793WN      WN 2293   1.292   2.650   3.195  0.0788 -0.1491 -0.0780
 1794WN      WN 2294   5.732   3.348   4.977  0.0147 -0.0131  0.1497
 1795WN      WN 2295   5.499   4.716   1.164  0.5267 -0.0260  0.0856
 1796WN      WN 2296   4.425   2.131   5.850  0.2064 -0.1289 -0.2372
 1797WN      WN 2297   6.513   1.712   4.726 -0.2313 -0.2284  0.0784
 1798WN      WN 2298   4.775   6.300   0.995 -0.1240 -0.0322  0.0074
 1799WN      WN 2299   1.260   3.959   0.590  0.2369  0.1258 -0.0126
 1800WN      WN 2300   2.761   6.080   3.298 -0.0946  0.1072 -0.4416
 1801WN      WN 2301   4.113   3.514   4.660  0.0372 -0.1374 -0.2437
 1802WN      WN 2302   3.521   4.077   6.532  0.3354 -0.0844 -0.1629
 1803WN      WN 2303   0.791   2.960   3.995 -0.1286  0.1399  0.2475
 1804WN      WN 2304   0.920   2.876   0.900 -0.0198  0.1415  0.3472
 1805WN      WN 2305   5.885   3.323   3.508 -0.3061 -0.3184  0.1909
 1806WN      WN 2306   2.575   3.612   1.989 -0.0587  0.0329 -0.0183
 1807WN      WN 2307   0.732   3.637   3.346 -0.0689  0.3082 -0.0690
 1808WN      WN 2308   1.459   0.330   6.315  0.1372  0.1935 -0.4923
 1809WN      WN 2309   1.220   3.543   2.109 -0.2863 -0.1278 -0.1738
 1810WN      WN 2310   1.581   0.179   3.527 -0.0760 -0.2469  0.3438
 1811WN      WN 2311   1.320   4.564   3.933  0.2784  0.0775  0.1786
 1812WN      WN 2312   5.506   3.361   5.766 -0.0244 -0.0579 -0.0106
 1813WN      WN 2313   6.330   3.818   3.731  0.3453  0.0581  0.1940
 1814WN      WN 2314   3.055   1.903   1.489 -0.2259 -0.0280 -0.1668
 1815WN      WN 2315   4.827   6.034   5.583  0.2699 -0.1430  0.1766
 1816WN      WN 2316   0.760   1.351   2.010 -0.2168 -0.0105 -0.1624
 1817WN      WN 2317   0.605   2.113   1.128 -0.0279  0.3506 -0.2098
 1818WN      WN 2318   4.053   0.666   5.787  0.1203 -0.1216  0.0999
 1819WN      WN 2319   5.178   3.532   0.209  0.3052 -0.0876  0.4575
 1820WN      WN 2320   6.425   4.516   2.765  0.0844  0.1828 -0.2165
 1821WN      WN 2321   2.798   0.052   5.117  0.1587  0.1562 -0.0443
 1822WN      WN 2322   6.539   1.505   0.516  0.1489  0.1190 -0.2657
 1823WN      WN 2323   5.374   0.877   5.209 -0.0835 -0.2847  0.0917
 1824WN      WN 2324   0.475   1.073   3.624  0.2298 -0.0537  0.2376
 1825WN      WN 2325   5.371   4.778   0.706  0.0232  0.2204  0.0907
 1826WN      WN 2326   1.807   1.842   0.355  0.0354  0.2619 -0.0129
 1827WN      WN 2327   2.164   6.307   1.903  0.0454 -0.3262  0.1107
 1828WN      WN 2328   2.736   0.515   2.674 -0.4248  0.2609  0.1406
 1829WN      WN 2329   3.859   5.787   5.967  0.0602 -0.2517 -0.1934
 1830WN      WN 2330   2.173   2.477   2.618  0.3122 -0.2686  0.0163
 1831WN      WN 2331   1.137   2.953   5.228  0.1641  0.2668 -0.0172
 1832WN      WN 2332   0.380   1.049   1.068  0.1795  0.1292 -0.1955
 1833WN      WN 2333   2.866   0.136   3.137  0.2759 -0.3425  0.0855
 1834WN      WN 2334   1.910   0.171   6.367 -0.2845 -0.0101  0.0030
 1835WN      WN 2335   1.554   5.971   0.524 -0.0468  0.2600  0.3025
 1836WN      WN 2336   5.749   5.586   1.379 -0.1577  0.0208  0.1401
 1837WN      WN 2337   6.127   1.682   3.721  0.1708  0.0401 -0.0519
 1838WN      WN 2338   5.586   2.791   1.506 -0.0776 -0.2383 -0.1724
 1839WN      WN 2339   5.665   5.888   2.641 -0.0342 -0.0445 -0.2138
 1840WN      WN 2340   4.688   2.709   0.556  0.1647  0.2211 -0.0248
 1841WN      WN 2341   2.605   4.085   0.735  0.1268  0.1024  0.0684
 1842WN      WN 2342   1.081   2.332   0.549 -0.1653 -0.1221  0.2569
 1843WN      WN 2343   2.010   1.485   3.591  0.0633  0.0197  0.0482
 1844WN      WN 2344   2.359   3.720   0.453 -0.0572  0.0507  0.1848
 1845WN      WN 2345   0.350   6.179   0.463 -0.1473  0.0483  0.1436
 1846WN      WN 2346   2.094   3.014   4.944 -0.3025 -0.1907  0.2720
 1847WN      WN 2347   3.313   2.103   1.905 -0.0739 -0.0859 -0.2578
 1848WN      WN 2348   4.238   3.674   5.706  0.5445  0.0444 -0.1595
 1849WN      WN 2349   0.024   5.258   0.075  0.1784  0.1425 -0.0517
 1850WN      WN 2350   6.326   3.255   0.376 -0.3135 -0.2831  0.3898
 1851WN      WN 2351   2.767   5.636   2.265 -0.4489  0.0203 -0.2072
 1852WN      WN 2352   0.237   6.097   3.258  0.1215  0.3899  0.3722
 1853WN      WN 2353   2.675   1.773   5.806 -0.1307  0.1426  0.0965
 1854WN      WN 2354   0.498   5.460   2.243  0.1327  0.1903  0.2327
 1855WN      WN 2355   1.241   4.749   2.457 -0.0962  0.0091  0.1154
 1856WN      WN 2356   3.622   0.921   3.833  0.3558  0.0656 -0.0859
 1857WN      WN 2357   5.258   0.334   6.411 -0.0222 -0.0414 -0.3152
 1858WN      WN 2358   6.425   2.031   2.555 -0.0957  0.2382 -0.2397
 1859WN      WN 2359   2.203   3.890   2.960  0.0132  0.2057  0.2011
 1860WN      WN 2360   5.509   6.135   4.618 -0.0856 -0.0432 -0.0575
 1861WN      WN 2361   3.498   2.731   4.813 -0.0661  0.2399  0.1474
 1862WN      WN 2362   1.799   2.493   5.045  0.1025 -0.0550 -0.0626
 1863WN      WN 2363   3.793   3.750   0.543 -0.2418  0.0305  0.0772
 1864WN      WN 2364   0.957   6.196   1.071  0.2108  0.1029  0.0668
 1865WN      WN 2365   0.680   4.905   0.548  0.1520 -0.1089  0.0981
 1866WN      WN 2366   4.342   1.525   4.582 -0.0215  0.0036  0.0645
 1867WN      WN 2367   1.243   2.959   5.960  0.0290  0.2189 -0.4341
 1868WN      WN 2368   2.441   6.528   6.395  0.0980 -0.1169  0.1831
 1869WN      WN 2369   4.512   1.727   2.839 -0.2572  0.3162 -0.3426
 1870WN      WN 2370   3.593   2.378   6.165  0.0942  0.0961  0.3108
 1871WN      WN 2371   3.795   4.605   2.909  0.3001  0.0979 -0.0409
 1872WN      WN 2372   5.768   1.585   5.870 -0.2257  0.0149 -0.0344
 1873WN      WN 2373   4.600   1.448   4.028 -0.0437 -0.1250 -0.3092
 1874WN      WN 2374   6.113   0.488   2.157  0.1120 -0.2743 -0.1510
 1875WN      WN 2375   0.418   2.944   6.333  0.0318  0.2551  0.1413
 1876WN      WN 2376   5.593   0.525   3.370 -0.3900 -0.1316  0.0292
 1877WN      WN 2377   4.433   2.357   0.967  0.3810 -0.1627  0.0111
 1878WN      WN 2378   6.412   3.019   2.990  0.1591 -0.2316  0.0706
 1879WN      WN 2379   3.546   3.005   1.440 -0.1035  0.0528 -0.2472
 1880WN      WN 2380   1.649   0.510   3.132 -0.1277  0.2274  0.0359
 1881WN      WN 2381   0.330   2.863   2.732 -0.1625  0.2475  0.1322
 1882WN      WN 2382   5.304   0.138   1.349  0.0764  0.1175 -0.2895
 1883WN      WN 2383   4.894   2.801   1.792 -0.1120  0.0220  0.2473
 1884WN      WN 2384   4.915   5.142   2.492 -0.2331  0.1977 -0.1514
 1885WN      WN 2385   2.686   2.731   2.769 -0.0713  0.0415 -0.0065
 1886WN      WN 2386   0.302   2.905   5.856 -0.1729  0.3863 -0.1106
 1887WN      WN 2387   5.132   0.035   4.855 -0.0770  0.2431  0.0171
 1888WN      WN 2388   3.300   1.333   5.959 -0.0658  0.1331  0.0478
 1889WN      WN 2389   4.848   4.869   0.682 -0.0689  0.1098 -0.1240
 1890WN      WN 2390   6.456   1.186   4.730  0.0854  0.0444  0.1921
 1891WN      WN 2391   1.157   6.418   1.464  0.0463  0.0529 -0.0485
 1892WN      WN 2392   1.511   0.806   5.336  0.0400 -0.3013  0.2956
 1893WN      WN 2393   3.447   2.915   5.311  0.0497  0.0169  0.1134
 1894WN      WN 2394   2.336   5.831   0.961 -0.1939  0.1171  0.0934
 1895WN      WN 2395   3.277   6.332   1.762  0.0407  0.0625 -0.4195
 1896WN      WN 2396   0.139   5.579   0.795 -0.1842 -0.1804 -0.0053
 1897WN      WN 2397   3.322   6.397   5.820 -0.3518 -0.1394  0.4474
 1898WN      WN 2398   4.515   1.002   2.200 -0.0448 -0.2095 -0.0277
 1899WN      WN 2399   1.972   1.737   5.443 -0.0399  0.1039 -0.1261
 1900WN      WN 2400   0.058   3.389   2.261 -0.1714  0.1297  0.1548
 1901WN      WN 2401   4.858   5.890   4.741 -0.1939 -0.2989  0.3452
 1902WN      WN 2402   1.359   0.947   4.774  0.4277  0.1502 -0.0405
 1903WN      WN 2403   1.796   0.009   0.945 -0.0801 -0.0792  0.2232
 1904WN      WN 2404   0.592   1.332   0.703 -0.2649  0.0249  0.0727
 1905WN      WN 2405   3.330   2.760   4.022  0.0535 -0.2038  0.3124
 1906WN      WN 2406   5.230   6.061   1.046  0.2486 -0.1688  0.0073
 1907WN      WN 2407   0.540   4.222   3.466 -0.4220 -0.0783 -0.3479
 1908WN      WN 2408   1.382   1.740   0.575 -0.1280 -0.1198 -0.0101
 1909WN      WN 2409   0.019   4.520   1.301  0.0317 -0.1291  0.0203
 1910WN      WN 2410   1.268   2.437   5.370  0.0255 -0.1020 -0.1096
 1911WN      WN 2411   0.080   5.375   4.923 -0.2943  0.1512  0.2365
 1912WN      WN 2412   5.572   2.466   1.046 -0.2734  0.1974 -0.1310
 1913WN      WN 2413   2.253   2.143   0.302  0.3390  0.0574 -0.0616
 1914WN      WN 2414   4.093   3.273   1.105  0.0233 -0.0335 -0.0835
 1915WN      WN 2415   2.738   4.109   5.451 -0.2230  0.1513  0.0391
 1916WN      WN 2416   3.316   3.103   2.540  0.1597 -0.1033  0.0233
 1917WN      WN 2417   2.868   4.868   2.416 -0.0815  0.0394 -0.0305
 1918WN      WN 2418   4.420   3.746   6.211  0.1991 -0.4037 -0.1992
 1919WN      WN 2419   2.340   3.859   2.452  0.0899 -0.0882 -0.2403
 1920WN      WN 2420   6.504   2.446   2.775  0.2793  0.2917 -0.0210
 1921WN      WN 2421   4.061   3.294   3.775 -0.0496 -0.1052 -0.2011
 1922WN      WN 2422   1.940   3.788   0.083 -0.0604  0.0606 -0.0911
 1923WN      WN 2423   6.073   6.027   1.224  0.2975  0.2401  0.0318
 1924WN      WN 2424   3.735   2.620   1.687 -0.0663 -0.3092 -0.0862
 1925WN      WN 2425   3.743   3.181   0.097  0.3171  0.2131 -0.1874
 1926WN      WN 2426   1.868   2.685   6.043  0.0378  0.1391 -0.2707
 1927WN      WN 2427   0.585   3.301   2.598  0.0931  0.1594  0.1365
 1928WN      WN 2428   1.826   3.996   0.536  0.1017  0.3711 -0.1353
 1929WN      WN 2429   0.519   6.233   4.739  0.3053  0.1085 -0.3882
 1930WN      WN 2430   4.593   4.780   1.996  0.2275 -0.0970  0.3236
 1931WN      WN 2431   5.602   6.317   1.102 -0.0846  0.2328  0.4005
 1932WN      WN 2432   2.406   3.425   3.151  0.0589 -0.1062 -0.1414
 1933WN      WN 2433   6.409   4.662   3.941 -0.1275  0.1647  0.1553
 1934WN      WN 2434   1.521   3.552   0.382 -0.2732  0.1757 -0.1122
 1935WN      WN 2435   2.644   0.190   2.220 -0.0068 -0.1852  0.0050
 1936WN      WN 2436   4.353   0.850   2.856  0.0802 -0.1289  0.0944
 1937WN      WN 2437   5.777   4.264   1.444 -0.1890 -0.3924 -0.1300
 1938WN      WN 2438   5.101   5.959   6.390  0.0947  0.0729 -0.5487
 1939WN      WN 2439   4.711   3.482   5.774  0.1289 -0.0805 -0.0311
 1940WN      WN 2440   4.725   5.927   6.004  0.0325  0.1670 -0.2513
 1941WN      WN 2441   4.347   6.068   5.692  0.3795 -0.1993  0.0573
 1942WN      WN 2442   3.728   0.509   4.075 -0.1479  0.2495  0.0227
 1943WN      WN 2443   4.378   0.187   3.509 -0.0900  0.1842 -0.0713
 1944WN      WN 2444   3.705   4.250   1.339  0.1593  0.0833  0.0898
 1945WN      WN 2445   5.776   3.298   1.149  0.2486 -0.2280 -0.0423
 1946WN      WN 2446   1.680   6.123   1.859  0.0727 -0.3143 -0.0528
 1947WN      WN 2447   0.297   0.059   3.528 -0.0696  0.4226  0.0586
 1948WN      WN 2448   4.074   4.597   1.353 -0.2365 -0.3607  0.0806
 1949WN      WN 2449   1.902   3.469   3.074 -0.1199  0.2167  0.0062
 1950WN      WN 2450   3.384   4.241   2.838 -0.1156 -0.1333  0.0452
 1951WN      WN 2451   1.257   3.383   5.718 -0.0733  0.1590 -0.0087
 1952WN      WN 2452   1.106   1.462   2.662  0.0440 -0.0216 -0.1046
 1953WN      WN 2453   5.123   4.987   5.495 -0.0756 -0.0117 -0.2702
 1954WN      WN 2454   3.862   1.810   4.631  0.0731  0.0615  0.2165
 1955WN      WN 2455   0.818   0.980   4.787 -0.1795  0.1902 -0.1397
 1956WN      WN 2456   4.981   1.351   6.366 -0.0972  0.0030 -0.3136
 1957WN      WN 2457   2.372   0.404   3.329 -0.1583 -0.3740  0.1969
 1958WN      WN 2458   1.376   1.607   0.074 -0.1290 -0.1778 -0.0904
 1959WN      WN 2459   6.200   3.603   5.211  0.0476 -0.0138 -0.1312
 1960WN      WN 2460   3.702   0.900   4.713 -0.4294 -0.0942  0.1921
 1961WN      WN 2461   3.534   2.227   2.409  0.3845  0.1212  0.1997
 1962WN      WN 2462   3.155   5.561   1.000  0.0433  0.0538 -0.1044
 1963WN      WN 2463   1.748   2.964   3.249 -0.1583  0.0626  0.0356
 1964WN      WN 2464   5.673   3.613   2.581 -0.0683  0.0683  0.0195
 1965WN      WN 2465   5.467   5.180   1.459 -0.0225 -0.1922 -0.1471
 1966WN      WN 2466   5.735   5.590   2.984 -0.2518 -0.0772 -0.1477
 1967WN      WN 2467   5.790   0.406   3.919  0.2093 -0.0882  0.2620
 1968WN      WN 2468   5.549   3.300   2.214 -0.0285  0.1244 -0.1298
 1969WN      WN 2469   3.009   4.522   2.762 -0.0313  0.2483  0.0177
 1970WN      WN 2470   0.838   4.890   5.407 -0.2619 -0.1986  0.2108
 1971WN      WN 2471   5.015   2.039   3.520  0.1250  0.3272 -0.0557
 1972WN      WN 2472   4.203   2.214   5.182  0.3714 -0.2868 -0.1683
 1973WN      WN 2473   3.369   5.388   5.911 -0.1196  0.2250  0.1310
 1974WN      WN 2474   3.411   3.414   1.754  0.2101  0.1083 -0.0903
 1975WN      WN 2475   0.397   1.985   4.711  0.5121 -0.0524  0.3873
 1976WN      WN 2476   6.036   3.410   5.881  0.0352  0.0465  0.0309
 1977WN      WN 2477   1.725   1.956   1.491 -0.4606  0.1517 -0.0161
 1978WN      WN 2478   0.176   1.101   0.396 -0.1051  0.3193 -0.3391
 1979WN      WN 2479   2.707   3.947   2.894 -0.1960 -0.3286  0.0880
 1980WN      WN 2480   1.590   0.536   3.923  0.1310  0.3527  0.0129
 1981WN      WN 2481   2.486   6.159   4.234  0.1815 -0.1322  0.0475
 1982WN      WN 2482   4.012   3.929   0.130  0.1897 -0.2992 -0.3695
 1983WN      WN 2483   4.117   0.461   2.551 -0.0381  0.3387 -0.0025
 1984WN      WN 2484   3.219   4.945   2.057 -0.1871 -0.0797  0.1556
 1985WN      WN 2485   3.867   5.590   0.776  0.1357  0.3896 -0.0869
 1986WN      WN 2486   1.185   1.171   6.534  0.0694  0.1146  0.3118
 1987WN      WN 2487   3.286   1.296   3.981 -0.1596 -0.2355 -0.0268
 1988WN      WN 2488   4.350   4.809   0.475 -0.0848 -0.1336 -0.1163
 1989WN      WN 2489   3.171   0.776   4.734  0.0552  0.2665 -0.1285
 1990WN      WN 2490   4.891   0.004   3.360 -0.0888  0.0214 -0.0914
 1991WN      WN 2491   2.486   1.396   6.351  0.1594  0.0897 -0.0547
 1992WN      WN 2492   3.539   3.093   0.887  0.1442  0.3156 -0.2042
 1993WN      WN 2493   4.376   3.130   3.426 -0.1917 -0.0614  0.4216
 1994WN      WN 2494   0.133   4.377   3.245 -0.0063 -0.2559  0.1304
 1995WN      WN 2495   3.106   6.110   0.261  0.0440  0.1093 -0.3290
 1996WN      WN 2496   2.339   6.350   2.396  0.1639  0.0931 -0.0206
 1997WN      WN 2497   4.594   2.798   2.682  0.0910  0.0454 -0.1694
 1998WN      WN 2498   4.648   5.477   5.503  0.0991 -0.1923  0.2480
 1999WN      WN 2499   1.337   4.516   0.439 -0.1292 -0.1259 -0.0074
 2000WN      WN 2500   4.450   0.986   4.234  0.1503 -0.0319  0.0524
 2001WN      WN 2501   2.723   4.831   6.314 -0.3728  0.2396  0.0144
 2002WN      WN 2502   3.262   2.281   5.759 -0.0048  0.2380 -0.0022
 2003WN      WN 2503   0.079   3.317   6.513  0.0110  0.0839  0.1970
 2004WN      WN 2504   6.240   5.124   1.492  0.1403 -0.1283  0.2104
 2005WN      WN 2505   1.144   0.044   5.913 -0.1447 -0.3391  0.0941
 2006WN      WN 2506   2.049   5.033   5.623  0.0195  0.1057 -0.0650
 2007WN      WN 2507   0.224   0.579   2.649  0.3099  0.0445 -0.0173
 2008WN      WN 2508   4.666   3.374   1.082 -0.1697 -0.0129 -0.0192
 2009WN      WN 2509   5.828   1.630   0.473  0.1988  0.0219  0.2590
 2010WN      WN 2510   1.761   5.847   0.025 -0.0532 -0.1079 -0.2508
 2011WN      WN 2511   0.465   4.255   2.928 -0.1062 -0.1236  0.4061
 2012WN      WN 2512   6.498   5.502   5.548  0.2664  0.5975 -0.2701
 2013WN      WN 2513   2.681   0.585   1.067 -0.4072  0.0455  0.1147
 2014WN      WN 2514   5.822   3.458   0.231 -0.0247 -0.0504 -0.0491
 2015WN      WN 2515   4.916   3.348   3.516  0.0239  0.0794 -0.3123
 2016WN      WN 2516   5.699   1.074   4.544 -0.0008  0.1413 -0.0154
 2017WN      WN 2517   4.185   6.212   2.897 -0.2893 -0.2187 -0.3257
 2018WN      WN 2518   2.623   5.214   1.128  0.1373 -0.0205  0.0379
 2019WN      WN 2519   1.265   0.696   5.778  0.0051  0.1037 -0.0228
 2020WN      WN 2520   0.733   0.840   0.448  0.0204  0.1713  0.0032
 2021WN      WN 2521   3.074   3.400   2.128  0.2318 -0.3004  0.0508
 2022WN      WN 2522   0.605   1.695   5.932  0.2157  0.3189  0.1308
 2023WN      WN 2523   4.277   1.930   1.779 -0.0113  0.3830  0.1887
 2024WN      WN 2524   4.146   5.200   1.957 -0.1090 -0.0622 -0.0298
 2025WN      WN 2525   1.115   6.256   3.151 -0.1974  0.1770  0.3866
 2026WN      WN 2526   0.165   1.650   5.703  0.1286 -0.1145  0.1102
 2027WN      WN 2527   2.197   4.833   3.285  0.1185  0.0130 -0.1791
 2028WN      WN 2528   4.270   6.287   4.255  0.2742  0.1032 -0.1962
 2029WN      WN 2529   6.065   5.343   5.639  0.0297  0.3189 -0.2556
 2030WN      WN 2530   5.702   5.044   2.911  0.1424 -0.1857 -0.0827
 2031WN      WN 2531   3.723   0.502   2.944  0.0007  0.1748 -0.1960
 2032WN      WN 2532   5.666   1.069   0.309 -0.1670 -0.1703 -0.0853
 2033WN      WN 2533   5.122   3.200   1.344 -0.1534 -0.1617  0.0324
 2034WN      WN 2534   4.499   2.108   2.171 -0.0910  0.1796 -0.0796
 2035WN      WN 2535   4.612   0.649   4.563  0.0969 -0.1740  0.1523
 2036WN      WN 2536   1.573   6.433   4.897 -0.1913 -0.3974 -0.0760
 2037WN      WN 2537   1.881   6.519   1.553  0.0571  0.4395  0.1609
 2038WN      WN 2538   0.914   2.158   6.130 -0.0689  0.0695 -0.1027
 2039WN      WN 2539   0.512   2.826   4.387  0.1316  0.4596  0.3411
 2040WN      WN 2540   2.542   0.910   6.188 -0.1999 -0.1289  0.0666
   6.54123   6.54123   6.54123
