Martini system
31159
    1CHOL   ROH    1   0.633   8.241   4.720
    1CHOL    R1    2   0.734   8.257   4.984
    1CHOL    R2    3   0.807   8.496   5.101
    1CHOL    R3    4   0.635   8.416   5.296
    1CHOL    R4    5   0.815   8.605   5.429
    1CHOL    R5    6   0.771   8.402   5.493
    1CHOL    C1    7   0.659   8.595   5.802
    1CHOL    C2    8   0.929   8.703   6.073
    2XCA    COO    9  14.575   8.113   3.911
    2XCA     C1   10  14.381   8.273   4.313
    2XCA     C2   11  14.159   8.058   4.621
    2XCA     C3   12  13.838   7.900   4.839
    2XCA     C4   13  13.677   7.930   5.231
    2XCA     C5   14  13.475   8.166   5.548
    2XCA     C6   15  13.710   8.538   5.622
    3XCA    COO   16   4.073   3.072   8.682
    3XCA     C1   17   3.886   2.835   8.309
    3XCA     C2   18   3.953   2.821   7.874
    3XCA     C3   19   4.213   2.567   7.609
    3XCA     C4   20   4.533   2.294   7.741
    3XCA     C5   21   4.949   2.161   7.742
    3XCA     C6   22   5.321   1.972   7.625
    4XCA    COO   23  14.519  11.340   4.898
    4XCA     C1   24  14.405  11.165   5.294
    4XCA     C2   25  14.379  11.036   5.727
    4XCA     C3   26  14.353  11.085   6.151
    4XCA     C4   27  14.041  11.165   6.441
    4XCA     C5   28  13.745  11.311   6.740
    4XCA     C6   29  13.541  11.664   6.913
    5CHOL   ROH   30   0.173   6.247   4.423
    5CHOL    R1   31   0.411   6.286   4.571
    5CHOL    R2   32   0.515   6.536   4.623
    5CHOL    R3   33   0.506   6.451   4.881
    5CHOL    R4   34   0.714   6.657   4.878
    5CHOL    R5   35   0.735   6.453   4.952
    5CHOL    C1   36   0.822   6.647   5.269
    5CHOL    C2   37   1.034   6.477   5.580
    6CHOL   ROH   38   8.255  15.068   5.797
    6CHOL    R1   39   8.373  15.097   6.053
    6CHOL    R2   40   8.582  15.271   6.101
    6CHOL    R3   41   8.417  15.365   6.295
    6CHOL    R4   42   8.682  15.459   6.373
    6CHOL    R5   43   8.543  15.346   6.497
    6CHOL    C1   44   8.585  15.658   6.713
    6CHOL    C2   45   8.700   0.135   6.960
    7XCA    COO   46   9.167   1.014   5.147
    7XCA     C1   47   9.236   1.038   5.631
    7XCA     C2   48   9.330   1.163   6.077
    7XCA     C3   49   9.392   1.040   6.516
    7XCA     C4   50   9.468   0.908   6.930
    7XCA     C5   51   9.323   0.550   7.139
    7XCA     C6   52   9.209   0.086   7.092
    8CHOL   ROH   53   1.816   9.454   6.535
    8CHOL    R1   54   1.830   9.174   6.575
    8CHOL    R2   55   1.679   9.043   6.765
    8CHOL    R3   56   1.601   8.892   6.553
    8CHOL    R4   57   1.602   8.706   6.780
    8CHOL    R5   58   1.705   8.679   6.589
    8CHOL    C1   59   1.485   8.368   6.589
    8CHOL    C2   60   1.787   8.048   6.629
    9PNCE   AM1   61  14.785   2.207   8.487
    9PNCE   AM2   62  14.587   1.933   8.546
    9PNCE   T1A   63  14.910   2.395   8.066
    9PNCE   C2A   64  14.963   2.559   7.639
    9PNCE   C3A   65  14.742   2.408   7.245
    9PNCE   C1B   66  14.771   1.831   8.125
    9PNCE   C2B   67  15.039   1.947   7.778
    9PNCE   C3B   68  15.170   2.166   7.402
    9PNCE   D4B   69  15.213   2.530   7.135
    9PNCE   C5B   70  15.097   2.941   7.307
    9PNCE   C6B   71  14.865   3.306   7.251
   10PNCE   AM1   72  14.191   0.597   8.167
   10PNCE   AM2   73  14.313   0.287   8.160
   10PNCE   T1A   74  13.789   0.705   7.984
   10PNCE   C2A   75  13.548   0.691   7.611
   10PNCE   C3A   76  13.420   0.694   7.177
   10PNCE   C1B   77  14.590   0.336   7.810
   10PNCE   C2B   78  14.619   0.388   7.339
   10PNCE   C3B   79  14.986   0.245   7.061
   10PNCE   D4B   80  14.989   0.065   6.654
   10PNCE   C5B   81  15.011  15.474   6.543
   10PNCE   C6B   82  14.783  15.313   6.209
   11XCA    COO   83   6.072  15.778   8.528
   11XCA     C1   84   5.963  15.760   8.083
   11XCA     C2   85   5.853   0.165   7.705
   11XCA     C3   86   5.914   0.343   7.292
   11XCA     C4   87   6.022   0.419   6.872
   11XCA     C5   88   5.949   0.732   6.546
   11XCA     C6   89   5.771   0.830   6.170
   12CHOL   ROH   90   2.728   7.050   7.674
   12CHOL    R1   91   2.726   7.117   7.399
   12CHOL    R2   92   2.948   7.088   7.237
   12CHOL    R3   93   2.778   6.941   7.084
   12CHOL    R4   94   3.022   6.965   6.922
   12CHOL    R5   95   2.819   7.017   6.860
   12CHOL    C1   96   2.905   6.756   6.595
   12CHOL    C2   97   3.210   6.637   6.337
   13PNCE   AM1   98  11.506  15.585   9.880
   13PNCE   AM2   99  11.355  15.717   9.558
   13PNCE   T1A  100  11.497  15.124   9.896
   13PNCE   C2A  101  11.362  14.718   9.673
   13PNCE   C3A  102  11.104  14.534   9.319
   13PNCE   C1B  103  11.219  15.573   9.112
   13PNCE   C2B  104  10.984  15.353   8.787
   13PNCE   C3B  105  11.011  15.480   8.346
   13PNCE   D4B  106  10.802  15.627   7.935
   13PNCE   C5B  107  10.416  15.700   7.662
   13PNCE   C6B  108  10.155   0.074   7.323
   14XCA    COO  109  11.507  14.298   4.797
   14XCA     C1  110  11.276  14.076   5.164
   14XCA     C2  111  11.249  14.178   5.635
   14XCA     C3  112  11.141  14.468   6.004
   14XCA     C4  113  10.862  14.514   6.382
   14XCA     C5  114  10.838  14.477   6.849
   14XCA     C6  115  10.765  14.434   7.315
   15CHOL   ROH  116  11.808   1.740   8.134
   15CHOL    R1  117  11.752   1.680   7.863
   15CHOL    R2  118  11.927   1.539   7.703
   15CHOL    R3  119  11.712   1.379   7.662
   15CHOL    R4  120  11.866   1.360   7.414
   15CHOL    R5  121  11.655   1.412   7.432
   15CHOL    C1  122  11.628   1.104   7.207
   15CHOL    C2  123  11.895   1.011   6.900
   16PNCE   AM1  124  15.484  15.592   9.138
   16PNCE   AM2  125  15.737   0.012   9.212
   16PNCE   T1A  126  15.416   0.078   8.794
   16PNCE   C2A  127  15.235   0.158   8.377
   16PNCE   C3A  128  15.014   0.474   8.102
   16PNCE   C1B  129   0.095   0.106   8.786
   16PNCE   C2B  130  15.741   0.219   8.390
   16PNCE   C3B  131  15.753   0.423   7.982
   16PNCE   D4B  132  15.771   0.357   7.539
   16PNCE   C5B  133   0.358   0.486   7.421
   16PNCE   C6B  134   0.624   0.861   7.486
   17XCA    COO  135   7.275  13.503   4.626
   17XCA     C1  136   7.433  13.392   5.044
   17XCA     C2  137   7.417  13.152   5.422
   17XCA     C3  138   7.257  12.784   5.613
   17XCA     C4  139   6.946  12.606   5.885
   17XCA     C5  140   6.711  12.277   6.077
   17XCA     C6  141   6.589  11.879   5.913
   18PNCE   AM1  142   4.374   9.190   8.265
   18PNCE   AM2  143   4.006   9.199   8.293
   18PNCE   T1A  144   4.303   9.163   7.823
   18PNCE   C2A  145   4.118   8.895   7.509
   18PNCE   C3A  146   4.014   8.545   7.211
   18PNCE   C1B  147   3.794   9.095   7.871
   18PNCE   C2B  148   3.558   9.281   7.500
   18PNCE   C3B  149   3.264   9.551   7.234
   18PNCE   D4B  150   3.273   9.840   6.877
   18PNCE   C5B  151   3.323  10.266   7.032
   18PNCE   C6B  152   3.313  10.659   7.257
   19PNCE   AM1  153   4.250   8.041   8.524
   19PNCE   AM2  154   4.061   8.247   8.288
   19PNCE   T1A  155   4.351   7.804   8.158
   19PNCE   C2A  156   4.512   7.517   7.888
   19PNCE   C3A  157   4.636   7.105   7.927
   19PNCE   C1B  158   3.763   8.061   7.991
   19PNCE   C2B  159   3.435   8.082   7.684
   19PNCE   C3B  160   3.379   7.986   7.249
   19PNCE   D4B  161   3.021   7.940   7.015
   19PNCE   C5B  162   2.638   8.002   7.225
   19PNCE   C6B  163   2.189   8.035   7.124
   20PNCE   AM1  164   3.473   2.363   9.068
   20PNCE   AM2  165   3.132   2.300   9.039
   20PNCE   T1A  166   3.464   2.530   8.645
   20PNCE   C2A  167   3.280   2.378   8.273
   20PNCE   C3A  168   3.170   2.508   7.840
   20PNCE   C1B  169   2.923   2.173   8.642
   20PNCE   C2B  170   2.985   1.939   8.251
   20PNCE   C3B  171   3.091   1.634   7.945
   20PNCE   D4B  172   3.099   1.631   7.493
   20PNCE   C5B  173   3.255   1.329   7.195
   20PNCE   C6B  174   3.215   1.201   6.757
   21XCA    COO  175  13.739   5.129   5.211
   21XCA     C1  176  13.474   5.493   5.390
   21XCA     C2  177  13.568   5.807   5.724
   21XCA     C3  178  13.705   5.905   6.136
   21XCA     C4  179  13.863   5.946   6.541
   21XCA     C5  180  14.185   5.666   6.674
   21XCA     C6  181  14.507   5.314   6.813
   22PNCE   AM1  182   9.680   5.321   8.350
   22PNCE   AM2  183   9.492   5.175   8.616
   22PNCE   T1A  184   9.838   4.953   8.090
   22PNCE   C2A  185   9.673   4.491   7.993
   22PNCE   C3A  186   9.373   4.113   7.974
   22PNCE   C1B  187   9.360   4.878   8.246
   22PNCE   C2B  188   9.442   4.870   7.762
   22PNCE   C3B  189   9.484   4.697   7.367
   22PNCE   D4B  190   9.220   4.678   6.985
   22PNCE   C5B  191   9.234   4.844   6.513
   22PNCE   C6B  192   9.283   4.932   6.068
   23PNCE   AM1  193  11.737   5.940   8.541
   23PNCE   AM2  194  11.929   5.653   8.680
   23PNCE   T1A  195  11.854   6.102   8.131
   23PNCE   C2A  196  12.095   5.917   7.771
   23PNCE   C3A  197  12.117   5.926   7.320
   23PNCE   C1B  198  12.127   5.688   8.260
   23PNCE   C2B  199  12.351   5.487   7.931
   23PNCE   C3B  200  12.514   5.633   7.539
   23PNCE   D4B  201  12.505   5.710   7.080
   23PNCE   C5B  202  12.203   5.553   6.786
   23PNCE   C6B  203  11.840   5.430   6.538
   24PNCE   AM1  204   3.944   9.999   8.033
   24PNCE   AM2  205   3.922  10.256   7.764
   24PNCE   T1A  206   3.999   9.606   7.788
   24PNCE   C2A  207   4.117   9.436   7.380
   24PNCE   C3A  208   4.373   9.486   6.993
   24PNCE   C1B  209   3.799  10.284   7.297
   24PNCE   C2B  210   3.757  10.093   6.849
   24PNCE   C3B  211   3.680   9.786   6.517
   24PNCE   D4B  212   3.661   9.857   6.100
   24PNCE   C5B  213   4.077   9.800   5.909
   24PNCE   C6B  214   4.464   9.518   5.959
   25XCA    COO  215   1.091   8.364   4.402
   25XCA     C1  216   1.189   8.518   4.814
   25XCA     C2  217   1.255   8.489   5.250
   25XCA     C3  218   1.189   8.425   5.706
   25XCA     C4  219   1.233   8.256   6.124
   25XCA     C5  220   1.120   7.990   6.470
   25XCA     C6  221   0.830   7.851   6.818
   26CHOL   ROH  222   8.560  13.275   9.421
   26CHOL    R1  223   8.405  13.366   9.203
   26CHOL    R2  224   8.177  13.518   9.236
   26CHOL    R3  225   8.305  13.688   9.067
   26CHOL    R4  226   8.020  13.754   9.037
   26CHOL    R5  227   8.159  13.704   8.877
   26CHOL    C1  228   8.049  14.051   8.762
   26CHOL    C2  229   7.896  14.359   8.525
   27PNCE   AM1  230  14.534   9.180   7.652
   27PNCE   AM2  231  14.454   9.450   7.898
   27PNCE   T1A  232  14.722   8.952   7.283
   27PNCE   C2A  233  14.656   8.643   6.934
   27PNCE   C3A  234  14.586   8.437   6.519
   27PNCE   C1B  235  14.409   9.704   7.500
   27PNCE   C2B  236  14.346   9.963   7.092
   27PNCE   C3B  237  14.490  10.112   6.636
   27PNCE   D4B  238  14.704  10.194   6.207
   27PNCE   C5B  239  15.186  10.270   6.204
   27PNCE   C6B  240  15.614  10.336   6.001
   28CHOL   ROH  241  14.313  14.432   9.369
   28CHOL    R1  242  14.232  14.516   9.111
   28CHOL    R2  243  14.412  14.586   8.914
   28CHOL    R3  244  14.276  14.400   8.769
   28CHOL    R4  245  14.440  14.542   8.572
   28CHOL    R5  246  14.225  14.512   8.563
   28CHOL    C1  247  14.328  14.343   8.237
   28CHOL    C2  248  14.135  14.541   7.952
   29PNCE   AM1  249   9.981   2.639   8.956
   29PNCE   AM2  250  10.115   2.869   8.733
   29PNCE   T1A  251   9.600   2.638   8.675
   29PNCE   C2A  252   9.399   2.535   8.287
   29PNCE   C3A  253   9.306   2.529   7.852
   29PNCE   C1B  254   9.978   2.783   8.298
   29PNCE   C2B  255   9.764   2.774   7.908
   29PNCE   C3B  256   9.610   2.773   7.476
   29PNCE   D4B  257   9.816   2.568   7.092
   29PNCE   C5B  258  10.278   2.613   7.035
   29PNCE   C6B  259  10.619   2.921   6.997
   30XCA    COO  260  15.649  10.608   4.885
   30XCA     C1  261  15.712  10.480   5.334
   30XCA     C2  262   0.100  10.712   5.666
   30XCA     C3  263   0.229  10.582   6.076
   30XCA     C4  264   0.152  10.412   6.483
   30XCA     C5  265   0.373  10.429   6.866
   30XCA     C6  266   0.782  10.442   7.071
   31PNCE   AM1  267   0.097   2.449   8.894
   31PNCE   AM2  268   0.422   2.355   9.016
   31PNCE   T1A  269   0.186   1.965   8.738
   31PNCE   C2A  270   0.195   1.450   8.692
   31PNCE   C3A  271   0.274   1.117   8.334
   31PNCE   C1B  272   0.479   2.459   8.533
   31PNCE   C2B  273   0.840   2.359   8.227
   31PNCE   C3B  274   0.992   2.157   7.840
   31PNCE   D4B  275   1.079   1.962   7.420
   31PNCE   C5B  276   0.774   2.150   7.164
   31PNCE   C6B  277   0.703   2.573   7.104
   32XCA    COO  278   8.165   4.475   8.215
   32XCA     C1  279   7.995   4.254   7.834
   32XCA     C2  280   8.117   3.899   7.602
   32XCA     C3  281   8.390   3.647   7.350
   32XCA     C4  282   8.506   3.715   6.931
   32XCA     C5  283   8.790   3.609   6.630
   32XCA     C6  284   9.008   3.645   6.275
   33CHOL   ROH  285   2.961   6.412   8.060
   33CHOL    R1  286   2.986   6.246   7.832
   33CHOL    R2  287   2.779   6.209   7.653
   33CHOL    R3  288   2.965   6.288   7.471
   33CHOL    R4  289   2.763   6.148   7.313
   33CHOL    R5  290   2.977   6.107   7.315
   33CHOL    C1  291   2.928   6.186   6.945
   33CHOL    C2  292   2.852   6.266   6.591
   34PNCE   AM1  293   9.155   8.537   4.502
   34PNCE   AM2  294   8.878   8.336   4.409
   34PNCE   T1A  295   9.009   8.844   4.813
   34PNCE   C2A  296   8.855   8.982   5.234
   34PNCE   C3A  297   8.417   9.103   5.391
   34PNCE   C1B  298   8.824   8.337   4.861
   34PNCE   C2B  299   8.538   8.151   5.142
   34PNCE   C3B  300   8.130   7.908   5.129
   34PNCE   D4B  301   7.944   7.482   5.210
   34PNCE   C5B  302   7.632   7.329   5.531
   34PNCE   C6B  303   7.644   7.168   5.966
   35PNCE   AM1  304  14.371  10.252   4.422
   35PNCE   AM2  305  14.663  10.090   4.319
   35PNCE   T1A  306  14.418  10.226   4.891
   35PNCE   C2A  307  14.325  10.189   5.338
   35PNCE   C3A  308  14.365  10.138   5.792
   35PNCE   C1B  309  14.454   9.771   4.622
   35PNCE   C2B  310  14.187   9.399   4.713
   35PNCE   C3B  311  14.033   9.203   5.093
   35PNCE   D4B  312  13.961   8.799   5.252
   35PNCE   C5B  313  14.346   8.617   5.419
   35PNCE   C6B  314  14.635   8.248   5.477
   36PNCE   AM1  315   3.528   5.780   8.394
   36PNCE   AM2  316   3.712   6.069   8.242
   36PNCE   T1A  317   3.286   5.485   8.141
   36PNCE   C2A  318   2.897   5.452   7.911
   36PNCE   C3A  319   2.457   5.315   7.810
   36PNCE   C1B  320   3.652   5.837   7.859
   36PNCE   C2B  321   3.673   5.404   7.766
   36PNCE   C3B  322   3.570   5.086   7.495
   36PNCE   D4B  323   3.296   4.760   7.336
   36PNCE   C5B  324   3.413   4.512   6.969
   36PNCE   C6B  325   3.592   4.425   6.524
   37XCA    COO  326   7.669  12.621   8.980
   37XCA     C1  327   7.462  13.002   8.832
   37XCA     C2  328   7.574  13.333   8.552
   37XCA     C3  329   7.676  13.548   8.181
   37XCA     C4  330   7.784  13.810   7.840
   37XCA     C5  331   8.177  13.935   7.743
   37XCA     C6  332   8.522  13.972   7.990
   38CHOL   ROH  333   9.133   2.726   8.899
   38CHOL    R1  334   9.084   2.625   8.638
   38CHOL    R2  335   8.830   2.590   8.538
   38CHOL    R3  336   8.923   2.745   8.335
   38CHOL    R4  337   8.714   2.579   8.212
   38CHOL    R5  338   8.920   2.600   8.144
   38CHOL    C1  339   8.734   2.718   7.832
   38CHOL    C2  340   8.460   2.539   7.597
   39PNCE   AM1  341   0.099  14.587   4.581
   39PNCE   AM2  342   0.242  14.237   4.599
   39PNCE   T1A  343   0.117  14.864   4.963
   39PNCE   C2A  344   0.296  15.221   5.128
   39PNCE   C3A  345   0.539  15.493   4.816
   39PNCE   C1B  346   0.499  14.509   4.880
   39PNCE   C2B  347   0.601  14.611   5.299
   39PNCE   C3B  348   0.469  14.798   5.681
   39PNCE   D4B  349   0.425  14.935   6.093
   39PNCE   C5B  350   0.535  15.355   6.218
   39PNCE   C6B  351   0.442  15.790   6.174
   40PNCE   AM1  352   4.722   0.664   8.951
   40PNCE   AM2  353   4.828   0.388   8.781
   40PNCE   T1A  354   4.631   0.806   8.503
   40PNCE   C2A  355   4.454   0.908   8.079
   40PNCE   C3A  356   4.538   1.301   7.849
   40PNCE   C1B  357   4.513   0.292   8.463
   40PNCE   C2B  358   4.415   0.286   8.045
   40PNCE   C3B  359   4.467   0.440   7.639
   40PNCE   D4B  360   4.658   0.550   7.220
   40PNCE   C5B  361   4.905   0.923   7.075
   40PNCE   C6B  362   5.323   1.093   7.044
   41CHOL   ROH  363   2.555  14.533   5.393
   41CHOL    R1  364   2.693  14.331   5.536
   41CHOL    R2  365   2.921  14.382   5.682
   41CHOL    R3  366   2.780  14.264   5.883
   41CHOL    R4  367   3.061  14.202   5.943
   41CHOL    R5  368   2.897  14.059   5.926
   41CHOL    C1  369   3.009  13.987   6.283
   41CHOL    C2  370   3.066  13.868   6.694
   42PNCE   AM1  371   9.503   1.165   9.628
   42PNCE   AM2  372   9.368   0.995   9.936
   42PNCE   T1A  373   9.179   0.990   9.296
   42PNCE   C2A  374   8.765   0.776   9.186
   42PNCE   C3A  375   8.302   0.731   9.144
   42PNCE   C1B  376   9.366   0.647   9.622
   42PNCE   C2B  377   9.101   0.410   9.282
   42PNCE   C3B  378   8.823   0.361   8.877
   42PNCE   D4B  379   8.354   0.321   8.781
   42PNCE   C5B  380   8.071   0.672   8.677
   42PNCE   C6B  381   8.024   1.137   8.613
   43PNCE   AM1  382  12.690   3.252   8.490
   43PNCE   AM2  383  12.641   3.015   8.759
   43PNCE   T1A  384  12.736   3.178   8.042
   43PNCE   C2A  385  12.777   3.259   7.619
   43PNCE   C3A  386  12.478   3.376   7.344
   43PNCE   C1B  387  12.938   2.790   8.472
   43PNCE   C2B  388  13.060   2.621   8.032
   43PNCE   C3B  389  13.115   2.467   7.567
   43PNCE   D4B  390  13.081   2.364   7.097
   43PNCE   C5B  391  12.736   2.091   6.954
   43PNCE   C6B  392  12.467   1.806   6.719
   44XCA    COO  393  15.137  14.363   5.384
   44XCA     C1  394  15.143  14.137   5.786
   44XCA     C2  395  15.096  13.895   6.166
   44XCA     C3  396  15.289  13.798   6.578
   44XCA     C4  397  15.496  14.129   6.836
   44XCA     C5  398  15.731  14.374   7.118
   44XCA     C6  399   0.019  14.746   7.365
   45CHOL   ROH  400   7.659   0.330   5.504
   45CHOL    R1  401   7.635   0.258   5.777
   45CHOL    R2  402   7.459   0.064   5.865
   45CHOL    R3  403   7.683  15.786   5.976
   45CHOL    R4  404   7.464  15.695   6.148
   45CHOL    R5  405   7.644  15.798   6.212
   45CHOL    C1  406   7.676  15.478   6.417
   45CHOL    C2  407   7.496  15.239   6.676
   46CHOL   ROH  408   8.986  13.236   5.427
   46CHOL    R1  409   9.089  13.299   5.683
   46CHOL    R2  410   8.960  13.469   5.858
   46CHOL    R3  411   8.983  13.259   6.028
   46CHOL    R4  412   8.941  13.491   6.202
   46CHOL    R5  413   9.104  13.347   6.216
   46CHOL    C1  414   8.951  13.307   6.563
   46CHOL    C2  415   8.952  13.132   6.935
   47XCA    COO  416   8.974   9.925   8.634
   47XCA     C1  417   8.764  10.190   8.289
   47XCA     C2  418   8.735  10.133   7.834
   47XCA     C3  419   8.783  10.166   7.377
   47XCA     C4  420   9.009  10.440   7.118
   47XCA     C5  421   9.414  10.527   6.963
   47XCA     C6  422   9.848  10.613   6.896
   48CHOL   ROH  423   0.719  10.722   4.870
   48CHOL    R1  424   0.784  10.537   5.074
   48CHOL    R2  425   1.030  10.414   5.091
   48CHOL    R3  426   1.027  10.514   5.344
   48CHOL    R4  427   1.190  10.272   5.363
   48CHOL    R5  428   1.016  10.321   5.485
   48CHOL    C1  429   1.280  10.283   5.758
   48CHOL    C2  430   1.323   9.937   5.935
   49PNCE   AM1  431  14.616   4.213   8.539
   49PNCE   AM2  432  14.256   4.214   8.427
   49PNCE   T1A  433  14.600   4.051   8.078
   49PNCE   C2A  434  14.713   3.731   7.758
   49PNCE   C3A  435  14.944   3.782   7.366
   49PNCE   C1B  436  13.981   4.257   8.058
   49PNCE   C2B  437  13.775   4.312   7.651
   49PNCE   C3B  438  13.927   3.996   7.390
   49PNCE   D4B  439  14.346   3.879   7.397
   49PNCE   C5B  440  14.530   3.681   7.053
   49PNCE   C6B  441  14.527   3.421   6.687
   50PNCE   AM1  442  15.793   0.536   9.108
   50PNCE   AM2  443  15.438   0.629   9.092
   50PNCE   T1A  444   0.184   0.620   8.719
   50PNCE   C2A  445   0.306   0.534   8.309
   50PNCE   C3A  446   0.356   0.666   7.891
   50PNCE   C1B  447  15.489   0.597   8.630
   50PNCE   C2B  448  15.659   0.839   8.262
   50PNCE   C3B  449  15.753   0.941   7.806
   50PNCE   D4B  450  15.763   0.853   7.348
   50PNCE   C5B  451   0.278   0.866   7.084
   50PNCE   C6B  452   0.587   0.599   6.960
   51CHOL   ROH  453   7.611   0.730   8.713
   51CHOL    R1  454   7.588   0.530   8.514
   51CHOL    R2  455   7.349   0.469   8.390
   51CHOL    R3  456   7.492   0.515   8.163
   51CHOL    R4  457   7.245   0.386   8.071
   51CHOL    R5  458   7.449   0.323   8.026
   51CHOL    C1  459   7.318   0.381   7.673
   51CHOL    C2  460   6.934   0.400   7.432
   52PNCE   AM1  461   3.136  14.522   4.105
   52PNCE   AM2  462   3.361  14.688   4.304
   52PNCE   T1A  463   3.111  14.247   4.477
   52PNCE   C2A  464   3.283  13.954   4.805
   52PNCE   C3A  465   3.480  13.618   5.068
   52PNCE   C1B  466   3.697  14.543   4.572
   52PNCE   C2B  467   4.050  14.452   4.866
   52PNCE   C3B  468   4.379  14.502   5.208
   52PNCE   D4B  469   4.563  14.125   5.431
   52PNCE   C5B  470   4.408  14.084   5.833
   52PNCE   C6B  471   4.005  13.891   5.941
   53PNCE   AM1  472   4.176   5.965   8.447
   53PNCE   AM2  473   4.430   6.200   8.361
   53PNCE   T1A  474   4.141   5.949   7.967
   53PNCE   C2A  475   4.083   5.701   7.538
   53PNCE   C3A  476   3.706   5.566   7.274
   53PNCE   C1B  477   4.679   5.854   8.206
   53PNCE   C2B  478   4.955   5.683   7.857
   53PNCE   C3B  479   5.020   5.864   7.456
   53PNCE   D4B  480   5.071   6.150   7.100
   53PNCE   C5B  481   4.741   6.125   6.777
   53PNCE   C6B  482   4.298   6.158   6.606
   54CHOL   ROH  483   9.461   8.010   8.114
   54CHOL    R1  484   9.313   7.882   7.910
   54CHOL    R2  485   9.163   8.021   7.725
   54CHOL    R3  486   9.311   7.879   7.547
   54CHOL    R4  487   9.094   7.994   7.387
   54CHOL    R5  488   9.149   7.784   7.398
   54CHOL    C1  489   9.192   7.845   7.023
   54CHOL    C2  490   9.032   7.622   6.729
   55XCA    COO  491   3.910   8.716   8.474
   55XCA     C1  492   4.139   8.727   8.066
   55XCA     C2  493   4.110   8.422   7.739
   55XCA     C3  494   3.919   8.105   7.494
   55XCA     C4  495   3.873   8.066   7.058
   55XCA     C5  496   3.867   7.861   6.666
   55XCA     C6  497   4.007   7.872   6.268
   56XCA    COO  498  15.593  15.203   4.706
   56XCA     C1  499  15.610  15.267   5.158
   56XCA     C2  500  15.424  15.281   5.540
   56XCA     C3  501  15.074  15.116   5.795
   56XCA     C4  502  15.024  14.876   6.176
   56XCA     C5  503  14.678  14.819   6.468
   56XCA     C6  504  14.278  14.599   6.592
   57CHOL   ROH  505   8.862   2.287   5.573
   57CHOL    R1  506   9.017   2.404   5.779
   57CHOL    R2  507   8.928   2.618   5.928
   57CHOL    R3  508   8.985   2.455   6.138
   57CHOL    R4  509   9.000   2.726   6.249
   57CHOL    R5  510   9.155   2.572   6.260
   57CHOL    C1  511   9.097   2.635   6.632
   57CHOL    C2  512   9.111   2.955   6.868
   58CHOL   ROH  513  13.411  14.013   5.219
   58CHOL    R1  514  13.419  13.927   5.489
   58CHOL    R2  515  13.640  13.964   5.650
   58CHOL    R3  516  13.461  14.083   5.815
   58CHOL    R4  517  13.658  13.960   5.995
   58CHOL    R5  518  13.441  13.933   6.000
   58CHOL    C1  519  13.499  14.071   6.351
   58CHOL    C2  520  13.264  14.211   6.676
   59CHOL   ROH  521   4.704   1.985   5.728
   59CHOL    R1  522   4.739   2.017   6.007
   59CHOL    R2  523   4.647   2.239   6.144
   59CHOL    R3  524   4.522   2.052   6.298
   59CHOL    R4  525   4.519   2.296   6.460
   59CHOL    R5  526   4.594   2.101   6.521
   59CHOL    C1  527   4.328   2.155   6.789
   59CHOL    C2  528   4.353   2.479   7.015
   60PNCE   AM1  529  14.351   1.086   7.993
   60PNCE   AM2  530  14.225   0.863   7.723
   60PNCE   T1A  531  14.736   0.843   7.837
   60PNCE   C2A  532  15.198   0.891   7.769
   60PNCE   C3A  533  15.381   1.277   7.932
   60PNCE   C1B  534  14.363   1.231   7.479
   60PNCE   C2B  535  14.569   1.623   7.516
   60PNCE   C3B  536  14.923   1.747   7.310
   60PNCE   D4B  537  15.145   1.534   6.994
   60PNCE   C5B  538  15.449   1.670   6.727
   60PNCE   C6B  539  15.475   1.854   6.313
   61PNCE   AM1  540  10.862   5.536   8.527
   61PNCE   AM2  541  10.932   5.890   8.483
   61PNCE   T1A  542  11.123   5.482   8.123
   61PNCE   C2A  543  11.320   5.335   7.729
   61PNCE   C3A  544  11.551   5.210   7.349
   61PNCE   C1B  545  11.316   5.993   8.214
   61PNCE   C2B  546  11.519   5.895   7.800
   61PNCE   C3B  547  11.656   5.719   7.398
   61PNCE   D4B  548  11.765   5.811   6.932
   61PNCE   C5B  549  12.171   6.056   6.812
   61PNCE   C6B  550  12.533   6.219   7.019
   62PNCE   AM1  551  11.052  12.552   8.914
   62PNCE   AM2  552  10.779  12.448   9.105
   62PNCE   T1A  553  10.907  12.392   8.489
   62PNCE   C2A  554  10.936  12.161   8.070
   62PNCE   C3A  555  11.271  12.024   7.736
   62PNCE   C1B  556  10.473  12.554   8.743
   62PNCE   C2B  557  10.199  12.892   8.529
   62PNCE   C3B  558   9.772  13.010   8.441
   62PNCE   D4B  559   9.399  13.123   8.220
   62PNCE   C5B  560   9.341  13.515   8.023
   62PNCE   C6B  561   9.318  13.914   7.816
   63PNCE   AM1  562   1.562   0.444   9.364
   63PNCE   AM2  563   1.257   0.300   9.211
   63PNCE   T1A  564   1.662   0.766   9.012
   63PNCE   C2A  565   1.904   0.897   8.610
   63PNCE   C3A  566   2.040   1.108   8.238
   63PNCE   C1B  567   1.461   0.145   8.818
   63PNCE   C2B  568   1.362   0.134   8.315
   63PNCE   C3B  569   1.239   0.228   7.827
   63PNCE   D4B  570   1.287   0.093   7.365
   63PNCE   C5B  571   1.586   0.127   7.015
   63PNCE   C6B  572   1.773   0.314   6.624
   64PNCE   AM1  573  10.389   2.174   8.838
   64PNCE   AM2  574  10.494   2.507   8.765
   64PNCE   T1A  575  10.346   2.067   8.363
   64PNCE   C2A  576  10.318   1.927   7.899
   64PNCE   C3A  577  10.309   1.559   7.599
   64PNCE   C1B  578  10.446   2.582   8.317
   64PNCE   C2B  579  10.243   2.444   7.937
   64PNCE   C3B  580  10.441   2.300   7.497
   64PNCE   D4B  581  10.488   1.885   7.249
   64PNCE   C5B  582  10.412   1.706   6.809
   64PNCE   C6B  583  10.271   1.822   6.373
   65PNCE   AM1  584   8.194   5.664   7.997
   65PNCE   AM2  585   8.349   5.400   8.076
   65PNCE   T1A  586   7.858   5.678   7.691
   65PNCE   C2A  587   7.656   5.705   7.254
   65PNCE   C3A  588   7.723   5.977   6.862
   65PNCE   C1B  589   8.250   5.272   7.639
   65PNCE   C2B  590   8.047   5.349   7.248
   65PNCE   C3B  591   8.126   5.490   6.819
   65PNCE   D4B  592   7.958   5.383   6.370
   65PNCE   C5B  593   7.855   4.958   6.258
   65PNCE   C6B  594   7.943   4.755   5.878
   66CHOL   ROH  595   8.815   1.833   8.584
   66CHOL    R1  596   8.816   1.809   8.302
   66CHOL    R2  597   8.765   1.571   8.172
   66CHOL    R3  598   8.577   1.718   8.043
   66CHOL    R4  599   8.614   1.480   7.875
   66CHOL    R5  600   8.628   1.688   7.811
   66CHOL    C1  601   8.350   1.566   7.580
   66CHOL    C2  602   8.204   1.316   7.257
   67PNCE   AM1  603   7.749   1.935   8.818
   67PNCE   AM2  604   7.861   1.612   8.769
   67PNCE   T1A  605   7.435   1.887   8.497
   67PNCE   C2A  606   7.203   1.789   8.121
   67PNCE   C3A  607   7.119   1.712   7.714
   67PNCE   C1B  608   7.754   1.498   8.324
   67PNCE   C2B  609   7.697   1.075   8.161
   67PNCE   C3B  610   7.632   0.789   7.799
   67PNCE   D4B  611   7.762   0.443   7.517
   67PNCE   C5B  612   7.510   0.234   7.210
   67PNCE   C6B  613   7.149   0.288   6.973
   68CHOL   ROH  614  12.102  13.219   5.119
   68CHOL    R1  615  12.090  13.111   5.380
   68CHOL    R2  616  12.303  13.120   5.555
   68CHOL    R3  617  12.122  13.238   5.720
   68CHOL    R4  618  12.326  13.130   5.900
   68CHOL    R5  619  12.112  13.093   5.911
   68CHOL    C1  620  12.170  13.246   6.256
   68CHOL    C2  621  12.011  13.300   6.618
   69CHOL   ROH  622   3.465   3.078   8.603
   69CHOL    R1  623   3.371   3.042   8.338
   69CHOL    R2  624   3.487   3.168   8.122
   69CHOL    R3  625   3.506   2.915   8.025
   69CHOL    R4  626   3.560   3.088   7.794
   69CHOL    R5  627   3.412   2.928   7.805
   69CHOL    C1  628   3.621   2.803   7.512
   69CHOL    C2  629   3.917   2.711   7.200
   70PNCE   AM1  630  13.771  15.315   9.055
   70PNCE   AM2  631  13.768  14.977   9.000
   70PNCE   T1A  632  13.566  15.380   8.643
   70PNCE   C2A  633  13.676  15.201   8.291
   70PNCE   C3A  634  13.823  14.744   8.309
   70PNCE   C1B  635  13.821  14.564   8.817
   70PNCE   C2B  636  13.855  14.218   8.502
   70PNCE   C3B  637  13.891  14.089   8.055
   70PNCE   D4B  638  13.821  14.119   7.583
   70PNCE   C5B  639  13.913  13.728   7.356
   70PNCE   C6B  640  14.012  13.309   7.503
   71PNCE   AM1  641   0.681   8.166   8.237
   71PNCE   AM2  642   0.397   8.247   7.984
   71PNCE   T1A  643   0.900   8.193   7.837
   71PNCE   C2A  644   0.995   8.271   7.435
   71PNCE   C3A  645   1.194   8.385   7.038
   71PNCE   C1B  646   0.509   8.504   7.611
   71PNCE   C2B  647   0.751   8.724   7.332
   71PNCE   C3B  648   0.676   8.711   6.900
   71PNCE   D4B  649   0.339   8.744   6.606
   71PNCE   C5B  650   0.173   9.113   6.704
   71PNCE   C6B  651   0.202   9.518   6.791
   72PNCE   AM1  652   3.214   4.024   8.298
   72PNCE   AM2  653   3.534   3.957   8.440
   72PNCE   T1A  654   3.164   4.034   7.828
   72PNCE   C2A  655   3.018   3.816   7.447
   72PNCE   C3A  656   2.822   3.703   7.037
   72PNCE   C1B  657   3.679   4.122   8.023
   72PNCE   C2B  658   4.029   4.176   7.727
   72PNCE   C3B  659   4.076   4.211   7.304
   72PNCE   D4B  660   3.825   4.220   6.954
   72PNCE   C5B  661   3.515   3.993   6.806
   72PNCE   C6B  662   3.141   4.064   6.933
   73CHOL   ROH  663   5.479   4.921   8.012
   73CHOL    R1  664   5.487   4.826   7.746
   73CHOL    R2  665   5.270   4.842   7.576
   73CHOL    R3  666   5.448   4.969   7.413
   73CHOL    R4  667   5.231   4.885   7.235
   73CHOL    R5  668   5.443   4.843   7.210
   73CHOL    C1  669   5.375   5.028   6.884
   73CHOL    C2  670   5.327   4.925   6.487
   74CHOL   ROH  671   1.141   7.922   4.562
   74CHOL    R1  672   1.067   8.049   4.804
   74CHOL    R2  673   0.959   7.910   5.017
   74CHOL    R3  674   1.163   8.025   5.155
   74CHOL    R4  675   1.022   7.862   5.353
   74CHOL    R5  676   1.070   8.074   5.370
   74CHOL    C1  677   1.251   7.942   5.678
   74CHOL    C2  678   1.316   7.758   6.044
   75PNCE   AM1  679   3.433  11.603   7.978
   75PNCE   AM2  680   3.579  11.938   8.071
   75PNCE   T1A  681   3.358  11.957   7.614
   75PNCE   C2A  682   3.453  12.372   7.396
   75PNCE   C3A  683   3.383  12.810   7.237
   75PNCE   C1B  684   3.824  11.736   7.703
   75PNCE   C2B  685   3.812  11.451   7.348
   75PNCE   C3B  686   3.638  11.205   7.041
   75PNCE   D4B  687   3.436  10.995   6.714
   75PNCE   C5B  688   3.008  11.118   6.669
   75PNCE   C6B  689   2.683  11.039   6.373
   76XCA    COO  690   2.620  12.029   4.199
   76XCA     C1  691   2.938  11.986   4.491
   76XCA     C2  692   2.939  12.098   4.908
   76XCA     C3  693   2.933  12.354   5.257
   76XCA     C4  694   2.890  12.553   5.660
   76XCA     C5  695   2.702  12.480   6.062
   76XCA     C6  696   2.540  12.290   6.406
   77CHOL   ROH  697  15.069   6.945   7.862
   77CHOL    R1  698  14.955   7.007   7.611
   77CHOL    R2  699  15.062   7.199   7.442
   77CHOL    R3  700  15.061   6.995   7.262
   77CHOL    R4  701  15.020   7.237   7.102
   77CHOL    R5  702  14.895   7.058   7.102
   77CHOL    C1  703  14.994   7.068   6.734
   77CHOL    C2  704  15.142   6.951   6.388
   78PNCE   AM1  705   6.542  14.278   9.164
   78PNCE   AM2  706   6.632  14.022   9.358
   78PNCE   T1A  707   6.781  14.090   8.833
   78PNCE   C2A  708   6.962  14.171   8.415
   78PNCE   C3A  709   7.306  14.481   8.329
   78PNCE   C1B  710   6.993  13.800   9.208
   78PNCE   C2B  711   7.446  13.704   9.279
   78PNCE   C3B  712   7.700  13.408   9.060
   78PNCE   D4B  713   8.060  13.224   8.862
   78PNCE   C5B  714   8.107  13.437   8.480
   78PNCE   C6B  715   8.420  13.492   8.162
   79XCA    COO  716   0.287   0.194   4.820
   79XCA     C1  717   0.400   0.221   5.265
   79XCA     C2  718   0.179   0.326   5.650
   79XCA     C3  719  15.661   0.594   5.776
   79XCA     C4  720  15.404   0.855   6.079
   79XCA     C5  721  15.115   1.175   6.077
   79XCA     C6  722  14.811   1.331   5.770
   80PNCE   AM1  723  10.365   5.605   8.545
   80PNCE   AM2  724  10.430   5.896   8.387
   80PNCE   T1A  725  10.576   5.473   8.087
   80PNCE   C2A  726  10.784   5.351   7.665
   80PNCE   C3A  727  10.949   5.356   7.209
   80PNCE   C1B  728  10.383   5.948   7.932
   80PNCE   C2B  729  10.568   5.816   7.551
   80PNCE   C3B  730  10.641   5.815   7.126
   80PNCE   D4B  731  10.862   5.902   6.740
   80PNCE   C5B  732  10.855   6.288   6.465
   80PNCE   C6B  733  10.770   6.586   6.093
   81XCA    COO  734  13.685   8.941   8.252
   81XCA     C1  735  13.449   8.888   7.823
   81XCA     C2  736  13.299   8.820   7.392
   81XCA     C3  737  13.398   8.758   6.948
   81XCA     C4  738  13.696   8.473   6.781
   81XCA     C5  739  13.656   8.273   6.399
   81XCA     C6  740  13.310   8.270   6.082
   82CHOL   ROH  741   2.717   2.450   7.090
   82CHOL    R1  742   2.470   2.337   7.170
   82CHOL    R2  743   2.390   2.326   7.434
   82CHOL    R3  744   2.168   2.452   7.338
   82CHOL    R4  745   2.080   2.327   7.588
   82CHOL    R5  746   1.988   2.304   7.393
   82CHOL    C1  747   1.692   2.445   7.588
   82CHOL    C2  748   1.472   2.634   7.890
   83CHOL   ROH  749  12.249  13.693   9.079
   83CHOL    R1  750  12.338  13.790   8.829
   83CHOL    R2  751  12.522  13.655   8.674
   83CHOL    R3  752  12.330  13.678   8.483
   83CHOL    R4  753  12.583  13.674   8.334
   83CHOL    R5  754  12.426  13.825   8.319
   83CHOL    C1  755  12.438  13.706   7.957
   83CHOL    C2  756  12.510  13.643   7.543
   84PNCE   AM1  757  11.232   8.231   8.436
   84PNCE   AM2  758  11.254   7.860   8.327
   84PNCE   T1A  759  10.859   8.432   8.247
   84PNCE   C2A  760  10.519   8.632   8.001
   84PNCE   C3A  761  10.244   8.425   7.711
   84PNCE   C1B  762  11.607   7.972   8.032
   84PNCE   C2B  763  11.764   7.934   7.597
   84PNCE   C3B  764  12.020   8.037   7.261
   84PNCE   D4B  765  12.445   7.949   7.131
   84PNCE   C5B  766  12.580   8.172   6.767
   84PNCE   C6B  767  12.401   8.231   6.372
   85PNCE   AM1  768  12.897   4.650   8.342
   85PNCE   AM2  769  12.982   4.374   8.140
   85PNCE   T1A  770  12.559   4.715   7.970
   85PNCE   C2A  771  12.443   4.574   7.504
   85PNCE   C3A  772  12.618   4.535   7.062
   85PNCE   C1B  773  12.907   4.366   7.672
   85PNCE   C2B  774  12.934   4.150   7.252
   85PNCE   C3B  775  12.786   4.093   6.806
   85PNCE   D4B  776  12.393   3.985   6.551
   85PNCE   C5B  777  11.978   3.982   6.769
   85PNCE   C6B  778  11.603   4.146   6.973
   86CHOL   ROH  779  13.145  13.612   7.149
   86CHOL    R1  780  12.997  13.648   7.387
   86CHOL    R2  781  13.000  13.465   7.593
   86CHOL    R3  782  13.071  13.681   7.742
   86CHOL    R4  783  12.961  13.490   7.936
   86CHOL    R5  784  12.899  13.697   7.908
   86CHOL    C1  785  13.004  13.709   8.275
   86CHOL    C2  786  13.002  13.775   8.621
   87PNCE   AM1  787  10.045   0.868   8.871
   87PNCE   AM2  788  10.351   1.071   8.802
   87PNCE   T1A  789   9.778   0.686   8.541
   87PNCE   C2A  790   9.394   0.521   8.323
   87PNCE   C3A  791   8.987   0.671   8.086
   87PNCE   C1B  792  10.391   0.780   8.434
   87PNCE   C2B  793  10.120   0.545   8.153
   87PNCE   C3B  794   9.726   0.452   7.904
   87PNCE   D4B  795   9.315   0.452   7.671
   87PNCE   C5B  796   9.071   0.850   7.587
   87PNCE   C6B  797   9.020   1.187   7.906
   88XCA    COO  798   3.367   6.000   4.960
   88XCA     C1  799   3.459   6.210   5.382
   88XCA     C2  800   3.382   6.332   5.808
   88XCA     C3  801   3.550   6.289   6.215
   88XCA     C4  802   3.730   6.493   6.573
   88XCA     C5  803   4.081   6.563   6.858
   88XCA     C6  804   4.164   6.551   7.323
   89CHOL   ROH  805   2.537   7.685   4.325
   89CHOL    R1  806   2.635   7.572   4.566
   89CHOL    R2  807   2.863   7.664   4.691
   89CHOL    R3  808   2.698   7.687   4.905
   89CHOL    R4  809   2.967   7.674   5.020
   89CHOL    R5  810   2.798   7.548   5.073
   89CHOL    C1  811   2.873   7.703   5.413
   89CHOL    C2  812   2.805   7.801   5.796
   90CHOL   ROH  813   4.953   7.344   7.655
   90CHOL    R1  814   5.043   7.206   7.425
   90CHOL    R2  815   4.873   7.064   7.260
   90CHOL    R3  816   4.982   7.221   7.067
   90CHOL    R4  817   4.881   6.986   6.924
   90CHOL    R5  818   5.083   7.066   6.915
   90CHOL    C1  819   4.987   7.088   6.546
   90CHOL    C2  820   5.158   7.189   6.163
   91CHOL   ROH  821   9.347  12.892   7.798
   91CHOL    R1  822   9.110  13.031   7.728
   91CHOL    R2  823   9.111  13.259   7.573
   91CHOL    R3  824   8.935  13.119   7.421
   91CHOL    R4  825   8.873  13.400   7.366
   91CHOL    R5  826   8.733  13.246   7.432
   91CHOL    C1  827   8.568  13.350   7.103
   91CHOL    C2  828   8.196  13.480   6.952
   92PNCE   AM1  829  10.993  10.560   8.309
   92PNCE   AM2  830  11.106  10.475   8.655
   92PNCE   T1A  831  10.867  10.355   7.916
   92PNCE   C2A  832  10.935  10.151   7.521
   92PNCE   C3A  833  11.228   9.854   7.337
   92PNCE   C1B  834  11.446  10.722   8.380
   92PNCE   C2B  835  11.329  10.936   7.993
   92PNCE   C3B  836  11.115  11.255   7.824
   92PNCE   D4B  837  10.983  11.670   7.955
   92PNCE   C5B  838  10.781  11.950   7.603
   92PNCE   C6B  839  10.609  12.282   7.288
   93CHOL   ROH  840   9.131   5.755   7.906
   93CHOL    R1  841   9.228   5.630   7.672
   93CHOL    R2  842   9.068   5.584   7.451
   93CHOL    R3  843   9.265   5.718   7.321
   93CHOL    R4  844   9.153   5.537   7.119
   93CHOL    R5  845   9.363   5.555   7.176
   93CHOL    C1  846   9.388   5.636   6.804
   93CHOL    C2  847   9.426   5.432   6.431
   94XCA    COO  848  12.594  10.126   8.367
   94XCA     C1  849  12.758  10.015   7.942
   94XCA     C2  850  12.974   9.971   7.567
   94XCA     C3  851  13.039  10.102   7.156
   94XCA     C4  852  12.949  10.147   6.745
   94XCA     C5  853  13.133  10.026   6.399
   94XCA     C6  854  13.382  10.117   6.053
   95CHOL   ROH  855  11.496   5.906   4.789
   95CHOL    R1  856  11.441   6.020   5.042
   95CHOL    R2  857  11.228   6.191   5.084
   95CHOL    R3  858  11.166   6.014   5.281
   95CHOL    R4  859  10.990   6.243   5.329
   95CHOL    R5  860  11.125   6.150   5.473
   95CHOL    C1  861  10.793   6.107   5.656
   95CHOL    C2  862  10.590   6.129   5.978
   96XCA    COO  863  14.336   3.688   8.299
   96XCA     C1  864  14.139   3.765   7.890
   96XCA     C2  865  13.687   3.857   7.854
   96XCA     C3  866  13.349   4.024   7.592
   96XCA     C4  867  13.437   4.024   7.144
   96XCA     C5  868  13.536   4.001   6.712
   96XCA     C6  869  13.852   3.941   6.404
   97PNCE   AM1  870  13.853  13.277   9.205
   97PNCE   AM2  871  14.130  13.066   9.064
   97PNCE   T1A  872  13.874  13.625   8.883
   97PNCE   C2A  873  13.902  13.672   8.430
   97PNCE   C3A  874  13.893  13.519   7.977
   97PNCE   C1B  875  13.933  13.176   8.647
   97PNCE   C2B  876  13.794  13.029   8.242
   97PNCE   C3B  877  13.405  12.918   8.091
   97PNCE   D4B  878  13.299  12.661   7.753
   97PNCE   C5B  879  12.960  12.556   7.494
   97PNCE   C6B  880  12.922  12.288   7.095
   98PNCE   AM1  881  11.168   6.542   8.153
   98PNCE   AM2  882  11.086   6.810   7.926
   98PNCE   T1A  883  11.152   6.294   7.756
   98PNCE   C2A  884  10.990   6.214   7.326
   98PNCE   C3A  885  10.984   6.478   6.944
   98PNCE   C1B  886  10.640   6.901   7.829
   98PNCE   C2B  887  10.252   6.843   7.595
   98PNCE   C3B  888   9.804   6.741   7.528
   98PNCE   D4B  889   9.636   6.368   7.407
   98PNCE   C5B  890   9.931   6.338   7.090
   98PNCE   C6B  891  10.017   6.470   6.736
   99PNCE   AM1  892   7.799   0.632   9.545
   99PNCE   AM2  893   7.522   0.425   9.404
   99PNCE   T1A  894   7.777   0.896   9.133
   99PNCE   C2A  895   7.534   1.176   8.804
   99PNCE   C3A  896   7.259   1.350   8.452
   99PNCE   C1B  897   7.495   0.310   8.941
   99PNCE   C2B  898   7.330   0.060   8.600
   99PNCE   C3B  899   7.446  15.720   8.212
   99PNCE   D4B  900   7.682  15.539   7.897
   99PNCE   C5B  901   7.498  15.739   7.584
   99PNCE   C6B  902   7.096  15.750   7.342
  100CHOL   ROH  903   1.303   0.424   5.355
  100CHOL    R1  904   1.138   0.459   5.583
  100CHOL    R2  905   1.240   0.504   5.835
  100CHOL    R3  906   1.076   0.720   5.828
  100CHOL    R4  907   1.152   0.695   6.110
  100CHOL    R5  908   0.950   0.706   6.030
  100CHOL    C1  909   0.947   1.009   6.262
  100CHOL    C2  910   1.054   1.014   6.682
  101XCA    COO  911   1.268   6.875   7.801
  101XCA     C1  912   1.257   6.900   7.320
  101XCA     C2  913   1.025   6.912   6.908
  101XCA     C3  914   1.059   6.666   6.504
  101XCA     C4  915   1.277   6.463   6.134
  101XCA     C5  916   1.445   6.057   6.029
  101XCA     C6  917   1.228   5.677   5.976
  102PNCE   AM1  918   6.282  12.183   8.877
  102PNCE   AM2  919   5.967  12.091   8.680
  102PNCE   T1A  920   6.443  12.230   8.466
  102PNCE   C2A  921   6.701  12.384   8.095
  102PNCE   C3A  922   7.196  12.458   8.100
  102PNCE   C1B  923   5.947  11.985   8.224
  102PNCE   C2B  924   6.030  11.994   7.786
  102PNCE   C3B  925   6.242  12.037   7.403
  102PNCE   D4B  926   6.649  12.065   7.235
  102PNCE   C5B  927   6.811  12.459   7.085
  102PNCE   C6B  928   6.881  12.860   6.891
  103PNCE   AM1  929  15.396  10.342   8.664
  103PNCE   AM2  930  15.072  10.508   8.625
  103PNCE   T1A  931  15.696  10.613   8.444
  103PNCE   C2A  932   0.252  10.805   8.332
  103PNCE   C3A  933   0.649  10.618   8.303
  103PNCE   C1B  934  15.280  10.672   8.181
  103PNCE   C2B  935  15.377  10.715   7.692
  103PNCE   C3B  936  15.443  11.049   7.340
  103PNCE   D4B  937  15.321  10.992   6.877
  103PNCE   C5B  938  15.530  11.212   6.536
  103PNCE   C6B  939  15.692  11.644   6.506
  104PNCE   AM1  940  13.812   5.217   8.287
  104PNCE   AM2  941  14.198   5.143   8.305
  104PNCE   T1A  942  13.821   5.320   7.833
  104PNCE   C2A  943  13.954   5.409   7.393
  104PNCE   C3A  944  13.971   5.308   6.953
  104PNCE   C1B  945  14.276   5.095   7.832
  104PNCE   C2B  946  14.467   5.261   7.446
  104PNCE   C3B  947  14.400   5.649   7.200
  104PNCE   D4B  948  14.037   5.930   7.106
  104PNCE   C5B  949  13.943   6.218   7.443
  104PNCE   C6B  950  14.149   6.243   7.836
  105CHOL   ROH  951   7.536  11.462   8.827
  105CHOL    R1  952   7.523  11.700   8.673
  105CHOL    R2  953   7.720  11.772   8.494
  105CHOL    R3  954   7.512  11.786   8.320
  105CHOL    R4  955   7.704  11.985   8.222
  105CHOL    R5  956   7.494  12.019   8.268
  105CHOL    C1  957   7.500  12.122   7.900
  105CHOL    C2  958   7.428  12.428   7.638
  106PNCE   AM1  959   4.113   4.588   8.807
  106PNCE   AM2  960   3.774   4.651   8.922
  106PNCE   T1A  961   4.364   4.712   8.440
  106PNCE   C2A  962   4.510   5.038   8.152
  106PNCE   C3A  963   4.833   5.338   8.196
  106PNCE   C1B  964   3.489   4.811   8.606
  106PNCE   C2B  965   3.142   4.992   8.398
  106PNCE   C3B  966   2.781   4.972   8.097
  106PNCE   D4B  967   2.509   4.756   7.800
  106PNCE   C5B  968   2.275   4.961   7.457
  106PNCE   C6B  969   2.436   4.915   7.028
  107PNCE   AM1  970  14.082   1.303   8.404
  107PNCE   AM2  971  14.404   1.460   8.466
  107PNCE   T1A  972  13.754   1.507   8.172
  107PNCE   C2A  973  13.561   1.671   7.804
  107PNCE   C3A  974  13.493   1.624   7.354
  107PNCE   C1B  975  14.297   1.630   8.032
  107PNCE   C2B  976  14.124   1.843   7.663
  107PNCE   C3B  977  13.921   1.882   7.258
  107PNCE   D4B  978  14.029   2.061   6.861
  107PNCE   C5B  979  14.277   1.867   6.535
  107PNCE   C6B  980  14.553   1.788   6.150
  108PNCE   AM1  981  13.833   7.916   8.151
  108PNCE   AM2  982  13.541   7.922   8.330
  108PNCE   T1A  983  13.929   8.059   7.741
  108PNCE   C2A  984  14.228   8.253   7.491
  108PNCE   C3A  985  14.591   8.514   7.498
  108PNCE   C1B  986  13.410   8.247   7.998
  108PNCE   C2B  987  13.554   8.402   7.612
  108PNCE   C3B  988  13.775   8.628   7.289
  108PNCE   D4B  989  13.847   9.026   7.092
  108PNCE   C5B  990  13.999   9.260   7.416
  108PNCE   C6B  991  13.635   9.373   7.662
  109CHOL   ROH  992  12.018   7.191   4.814
  109CHOL    R1  993  12.091   7.272   5.075
  109CHOL    R2  994  11.925   7.239   5.293
  109CHOL    R3  995  12.141   7.112   5.398
  109CHOL    R4  996  11.983   7.195   5.631
  109CHOL    R5  997  12.194   7.237   5.595
  109CHOL    C1  998  12.220   7.049   5.926
  109CHOL    C2  999  12.413   6.743   6.113
  110CHOL   ROH 1000  13.555   9.492   4.047
  110CHOL    R1 1001  13.634   9.375   4.292
  110CHOL    R2 1002  13.747   9.520   4.498
  110CHOL    R3 1003  13.546   9.410   4.644
  110CHOL    R4 1004  13.742   9.499   4.843
  110CHOL    R5 1005  13.658   9.299   4.824
  110CHOL    C1 1006  13.550   9.383   5.181
  110CHOL    C2 1007  13.751   9.518   5.499
  111PNCE   AM1 1008   4.065   4.246   8.411
  111PNCE   AM2 1009   3.789   4.433   8.446
  111PNCE   T1A 1010   4.387   4.327   8.089
  111PNCE   C2A 1011   4.548   4.284   7.669
  111PNCE   C3A 1012   4.607   4.237   7.235
  111PNCE   C1B 1013   3.545   4.608   8.145
  111PNCE   C2B 1014   3.515   4.569   7.740
  111PNCE   C3B 1015   3.569   4.318   7.418
  111PNCE   D4B 1016   3.526   3.930   7.341
  111PNCE   C5B 1017   3.324   3.599   7.114
  111PNCE   C6B 1018   3.239   3.527   6.686
  112CHOL   ROH 1019   8.427  12.857   9.237
  112CHOL    R1 1020   8.468  13.001   8.997
  112CHOL    R2 1021   8.634  12.911   8.796
  112CHOL    R3 1022   8.412  12.945   8.642
  112CHOL    R4 1023   8.636  12.960   8.454
  112CHOL    R5 1024   8.477  13.107   8.479
  112CHOL    C1 1025   8.429  13.021   8.110
  112CHOL    C2 1026   8.678  13.078   7.863
  113CHOL   ROH 1027   6.954   0.738   7.059
  113CHOL    R1 1028   6.857   0.869   7.290
  113CHOL    R2 1029   6.589   0.922   7.329
  113CHOL    R3 1030   6.630   0.790   7.563
  113CHOL    R4 1031   6.401   0.964   7.616
  113CHOL    R5 1032   6.584   0.952   7.733
  113CHOL    C1 1033   6.330   0.864   8.003
  113CHOL    C2 1034   6.153   1.170   8.244
  114XCA    COO 1035  15.310  15.276   9.529
  114XCA     C1 1036  15.171  15.170   9.094
  114XCA     C2 1037  15.352  15.028   8.707
  114XCA     C3 1038  15.758  15.077   8.516
  114XCA     C4 1039   0.246  15.219   8.226
  114XCA     C5 1040   0.423  14.950   7.887
  114XCA     C6 1041   0.428  15.009   7.470
  115XCA    COO 1042   4.253   0.845   8.829
  115XCA     C1 1043   4.233   1.181   8.469
  115XCA     C2 1044   4.013   1.205   8.055
  115XCA     C3 1045   4.088   1.348   7.627
  115XCA     C4 1046   4.038   1.218   7.187
  115XCA     C5 1047   4.130   1.189   6.725
  115XCA     C6 1048   4.215   1.195   6.290
  116XCA    COO 1049   7.898   9.476   4.398
  116XCA     C1 1050   7.731   9.451   4.858
  116XCA     C2 1051   7.654   9.386   5.305
  116XCA     C3 1052   7.453   9.340   5.722
  116XCA     C4 1053   7.283   9.125   6.096
  116XCA     C5 1054   7.267   9.131   6.563
  116XCA     C6 1055   7.345   8.806   6.871
  117CHOL   ROH 1056  13.305  13.233   9.015
  117CHOL    R1 1057  13.296  13.360   8.763
  117CHOL    R2 1058  13.512  13.364   8.591
  117CHOL    R3 1059  13.334  13.260   8.415
  117CHOL    R4 1060  13.526  13.404   8.248
  117CHOL    R5 1061  13.310  13.429   8.247
  117CHOL    C1 1062  13.367  13.330   7.883
  117CHOL    C2 1063  13.479  13.495   7.524
  118CHOL   ROH 1064   0.779   2.327   5.111
  118CHOL    R1 1065   0.654   2.455   5.330
  118CHOL    R2 1066   0.550   2.316   5.544
  118CHOL    R3 1067   0.711   2.481   5.689
  118CHOL    R4 1068   0.506   2.392   5.878
  118CHOL    R5 1069   0.560   2.598   5.834
  118CHOL    C1 1070   0.630   2.591   6.209
  118CHOL    C2 1071   0.432   2.497   6.600
  119CHOL   ROH 1072   7.266   1.082   7.136
  119CHOL    R1 1073   7.171   1.187   7.381
  119CHOL    R2 1074   6.985   1.390   7.393
  119CHOL    R3 1075   6.851   1.214   7.550
  119CHOL    R4 1076   6.720   1.471   7.599
  119CHOL    R5 1077   6.802   1.337   7.750
  119CHOL    C1 1078   6.439   1.353   7.867
  119CHOL    C2 1079   6.051   1.241   7.749
  120PNCE   AM1 1080   7.809  15.725   9.441
  120PNCE   AM2 1081   8.132  15.582   9.540
  120PNCE   T1A 1082   7.856  15.330   9.157
  120PNCE   C2A 1083   7.843  14.931   8.925
  120PNCE   C3A 1084   8.094  14.523   8.970
  120PNCE   C1B 1085   8.231  15.686   9.066
  120PNCE   C2B 1086   8.249  15.701   8.578
  120PNCE   C3B 1087   8.099  15.690   8.168
  120PNCE   D4B 1088   7.941   0.133   7.870
  120PNCE   C5B 1089   8.147   0.516   7.829
  120PNCE   C6B 1090   8.100   0.839   7.512
  121CHOL   ROH 1091   3.165  13.773   4.367
  121CHOL    R1 1092   3.429  13.671   4.361
  121CHOL    R2 1093   3.594  13.672   4.583
  121CHOL    R3 1094   3.613  13.406   4.530
  121CHOL    R4 1095   3.814  13.455   4.737
  121CHOL    R5 1096   3.847  13.359   4.544
  121CHOL    C1 1097   3.961  13.079   4.777
  121CHOL    C2 1098   3.850  12.698   4.670
  122XCA    COO 1099   4.609  13.726   8.233
  122XCA     C1 1100   4.932  13.678   7.886
  122XCA     C2 1101   5.106  13.731   7.457
  122XCA     C3 1102   5.027  14.034   7.153
  122XCA     C4 1103   4.656  14.192   7.019
  122XCA     C5 1104   4.320  14.448   6.976
  122XCA     C6 1105   4.163  14.561   6.644
  123XCA    COO 1106  13.379   4.610   5.014
  123XCA     C1 1107  13.030   4.539   5.326
  123XCA     C2 1108  12.988   4.214   5.658
  123XCA     C3 1109  13.256   3.839   5.679
  123XCA     C4 1110  13.467   3.493   5.849
  123XCA     C5 1111  13.893   3.523   6.042
  123XCA     C6 1112  14.121   3.354   6.388
  124PNCE   AM1 1113  15.489   3.081   9.155
  124PNCE   AM2 1114  15.806   2.968   9.026
  124PNCE   T1A 1115  15.587   3.353   8.776
  124PNCE   C2A 1116  15.381   3.584   8.446
  124PNCE   C3A 1117  15.064   3.642   8.120
  124PNCE   C1B 1118   0.118   2.954   8.595
  124PNCE   C2B 1119   0.052   2.665   8.276
  124PNCE   C3B 1120   0.066   2.589   7.832
  124PNCE   D4B 1121   0.192   2.695   7.417
  124PNCE   C5B 1122   0.260   2.318   7.202
  124PNCE   C6B 1123   0.231   2.050   6.846
  125CHOL   ROH 1124   8.714   4.669   5.317
  125CHOL    R1 1125   8.791   4.558   5.565
  125CHOL    R2 1126   9.016   4.399   5.594
  125CHOL    R3 1127   9.079   4.580   5.787
  125CHOL    R4 1128   9.255   4.351   5.839
  125CHOL    R5 1129   9.120   4.447   5.982
  125CHOL    C1 1130   9.453   4.492   6.163
  125CHOL    C2 1131   9.797   4.306   6.235
  126CHOL   ROH 1132   4.347   9.663   8.138
  126CHOL    R1 1133   4.532   9.583   7.939
  126CHOL    R2 1134   4.475   9.597   7.669
  126CHOL    R3 1135   4.706   9.740   7.661
  126CHOL    R4 1136   4.663   9.654   7.384
  126CHOL    R5 1137   4.843   9.624   7.502
  126CHOL    C1 1138   4.988   9.822   7.211
  126CHOL    C2 1139   5.126  10.084   6.948
  127CHOL   ROH 1140  14.511   4.694   8.332
  127CHOL    R1 1141  14.386   4.534   8.136
  127CHOL    R2 1142  14.236   4.641   7.930
  127CHOL    R3 1143  14.404   4.495   7.774
  127CHOL    R4 1144  14.173   4.552   7.602
  127CHOL    R5 1145  14.259   4.356   7.644
  127CHOL    C1 1146  14.296   4.364   7.264
  127CHOL    C2 1147  13.918   4.424   7.121
  128PNCE   AM1 1148  11.899   8.897   8.046
  128PNCE   AM2 1149  12.072   9.237   8.086
  128PNCE   T1A 1150  11.502   8.973   7.788
  128PNCE   C2A 1151  11.247   8.836   7.419
  128PNCE   C3A 1152  10.937   8.570   7.246
  128PNCE   C1B 1153  12.190   9.154   7.634
  128PNCE   C2B 1154  12.200   9.004   7.207
  128PNCE   C3B 1155  12.149   8.563   7.078
  128PNCE   D4B 1156  12.049   8.310   6.730
  128PNCE   C5B 1157  12.065   7.848   6.782
  128PNCE   C6B 1158  12.063   7.407   6.615
  129PNCE   AM1 1159  11.822  12.916   8.828
  129PNCE   AM2 1160  11.530  12.729   8.859
  129PNCE   T1A 1161  12.151  12.826   8.474
  129PNCE   C2A 1162  12.152  12.885   8.005
  129PNCE   C3A 1163  12.166  13.018   7.529
  129PNCE   C1B 1164  11.388  12.536   8.461
  129PNCE   C2B 1165  11.412  12.394   8.050
  129PNCE   C3B 1166  11.575  12.468   7.634
  129PNCE   D4B 1167  11.617  12.237   7.239
  129PNCE   C5B 1168  11.685  12.440   6.810
  129PNCE   C6B 1169  11.880  12.296   6.407
  130XCA    COO 1170   9.268   2.570   5.374
  130XCA     C1 1171   9.320   2.831   5.771
  130XCA     C2 1172   9.448   2.972   6.167
  130XCA     C3 1173   9.606   3.103   6.581
  130XCA     C4 1174   9.564   3.044   7.042
  130XCA     C5 1175   9.207   3.138   7.369
  130XCA     C6 1176   8.825   3.367   7.577
  131PNCE   AM1 1177   8.476   9.770   8.584
  131PNCE   AM2 1178   8.294  10.026   8.443
  131PNCE   T1A 1179   8.576   9.723   8.140
  131PNCE   C2A 1180   8.404   9.747   7.754
  131PNCE   C3A 1181   8.421   9.785   7.329
  131PNCE   C1B 1182   8.251  10.172   8.029
  131PNCE   C2B 1183   8.284  10.281   7.594
  131PNCE   C3B 1184   8.342  10.339   7.178
  131PNCE   D4B 1185   8.550  10.453   6.809
  131PNCE   C5B 1186   8.892  10.145   6.694
  131PNCE   C6B 1187   8.857   9.723   6.546
  132PNCE   AM1 1188   4.334  15.683   8.708
  132PNCE   AM2 1189   4.667  15.722   8.830
  132PNCE   T1A 1190   4.542  15.623   8.278
  132PNCE   C2A 1191   4.784  15.728   7.889
  132PNCE   C3A 1192   4.938   0.020   7.465
  132PNCE   C1B 1193   4.965  15.822   8.495
  132PNCE   C2B 1194   5.146   0.177   8.128
  132PNCE   C3B 1195   5.357   0.106   7.754
  132PNCE   D4B 1196   5.460   0.029   7.332
  132PNCE   C5B 1197   5.154  15.740   6.980
  132PNCE   C6B 1198   5.249  15.445   6.605
  133PNCE   AM1 1199  15.129  12.245   9.407
  133PNCE   AM2 1200  14.796  12.333   9.296
  133PNCE   T1A 1201  15.307  12.497   9.067
  133PNCE   C2A 1202  15.578  12.806   8.914
  133PNCE   C3A 1203  15.398  13.125   8.689
  133PNCE   C1B 1204  14.850  12.354   8.838
  133PNCE   C2B 1205  14.696  12.198   8.431
  133PNCE   C3B 1206  14.915  12.128   8.019
  133PNCE   D4B 1207  15.210  12.366   7.754
  133PNCE   C5B 1208  15.128  12.771   7.580
  133PNCE   C6B 1209  14.987  13.201   7.666
  134CHOL   ROH 1210   9.832   2.157   5.219
  134CHOL    R1 1211   9.906   2.013   5.451
  134CHOL    R2 1212  10.012   2.136   5.674
  134CHOL    R3 1213   9.809   2.007   5.801
  134CHOL    R4 1214   9.995   2.083   6.015
  134CHOL    R5 1215   9.917   1.883   5.975
  134CHOL    C1 1216   9.795   1.931   6.333
  134CHOL    C2 1217   9.869   1.787   6.691
  135CHOL   ROH 1218   2.196   6.232   4.630
  135CHOL    R1 1219   2.297   6.458   4.766
  135CHOL    R2 1220   2.160   6.697   4.779
  135CHOL    R3 1221   2.194   6.666   5.047
  135CHOL    R4 1222   2.140   6.951   5.013
  135CHOL    R5 1223   2.310   6.863   5.116
  135CHOL    C1 1224   2.161   7.069   5.401
  135CHOL    C2 1225   2.132   7.391   5.652
  136CHOL   ROH 1226   0.673   9.674   7.953
  136CHOL    R1 1227   0.640   9.471   7.759
  136CHOL    R2 1228   0.526   9.519   7.512
  136CHOL    R3 1229   0.757   9.408   7.420
  136CHOL    R4 1230   0.564   9.369   7.202
  136CHOL    R5 1231   0.686   9.216   7.297
  136CHOL    C1 1232   0.803   9.178   6.936
  136CHOL    C2 1233   0.695   9.127   6.536
  137XCA    COO 1234   5.845  11.575   8.704
  137XCA     C1 1235   6.269  11.681   8.492
  137XCA     C2 1236   6.471  11.853   8.133
  137XCA     C3 1237   6.606  11.995   7.760
  137XCA     C4 1238   6.927  12.280   7.622
  137XCA     C5 1239   7.191  12.178   7.259
  137XCA     C6 1240   7.304  12.409   6.850
  138CHOL   ROH 1241  10.155   7.817   6.556
  138CHOL    R1 1242  10.130   7.625   6.350
  138CHOL    R2 1243  10.348   7.523   6.215
  138CHOL    R3 1244  10.243   7.284   6.291
  138CHOL    R4 1245  10.400   7.222   6.052
  138CHOL    R5 1246  10.191   7.173   6.085
  138CHOL    C1 1247  10.332   6.823   6.029
  138CHOL    C2 1248  10.315   6.524   5.805
  139PNCE   AM1 1249   9.841  15.063   9.659
  139PNCE   AM2 1250   9.904  14.741   9.801
  139PNCE   T1A 1251   9.956  14.861   9.279
  139PNCE   C2A 1252  10.137  14.576   8.993
  139PNCE   C3A 1253  10.324  14.396   8.635
  139PNCE   C1B 1254  10.046  14.404   9.499
  139PNCE   C2B 1255  10.283  14.141   9.218
  139PNCE   C3B 1256  10.558  13.932   8.934
  139PNCE   D4B 1257  10.581  13.925   8.494
  139PNCE   C5B 1258  10.773  13.657   8.237
  139PNCE   C6B 1259  11.059  13.678   7.900
  140PNCE   AM1 1260   4.081  15.281   8.483
  140PNCE   AM2 1261   3.770  15.434   8.575
  140PNCE   T1A 1262   4.228  15.264   8.056
  140PNCE   C2A 1263   4.484  15.349   7.686
  140PNCE   C3A 1264   4.723  15.417   7.271
  140PNCE   C1B 1265   3.696  15.556   8.089
  140PNCE   C2B 1266   3.438  15.806   7.790
  140PNCE   C3B 1267   3.157   0.132   7.493
  140PNCE   D4B 1268   3.217   0.200   7.053
  140PNCE   C5B 1269   3.660   0.351   6.982
  140PNCE   C6B 1270   3.920   0.699   6.796
  141CHOL   ROH 1271   2.886  15.458   6.424
  141CHOL    R1 1272   3.007  15.711   6.387
  141CHOL    R2 1273   3.136   0.016   6.591
  141CHOL    R3 1274   3.343   0.020   6.415
  141CHOL    R4 1275   3.411   0.224   6.614
  141CHOL    R5 1276   3.402   0.251   6.398
  141CHOL    C1 1277   3.765   0.349   6.462
  141CHOL    C2 1278   3.987   0.699   6.298
  142CHOL   ROH 1279  13.530  11.068   7.377
  142CHOL    R1 1280  13.281  11.197   7.335
  142CHOL    R2 1281  13.261  11.447   7.220
  142CHOL    R3 1282  13.092  11.320   7.050
  142CHOL    R4 1283  12.997  11.597   7.054
  142CHOL    R5 1284  12.878  11.419   7.092
  142CHOL    C1 1285  12.685  11.565   6.798
  142CHOL    C2 1286  12.318  11.619   6.626
  143CHOL   ROH 1287  15.351   2.688   8.249
  143CHOL    R1 1288  15.499   2.775   8.024
  143CHOL    R2 1289  15.436   2.697   7.766
  143CHOL    R3 1290  15.431   2.965   7.721
  143CHOL    R4 1291  15.520   2.847   7.467
  143CHOL    R5 1292  15.621   3.004   7.580
  143CHOL    C1 1293  15.564   3.186   7.249
  143CHOL    C2 1294  15.804   3.353   6.967
  144PNCE   AM1 1295   0.698   4.426   8.662
  144PNCE   AM2 1296   0.911   4.167   8.827
  144PNCE   T1A 1297   0.447   4.085   8.457
  144PNCE   C2A 1298   0.359   3.799   8.127
  144PNCE   C3A 1299   0.416   3.726   7.698
  144PNCE   C1B 1300   0.976   3.934   8.416
  144PNCE   C2B 1301   0.806   3.548   8.211
  144PNCE   C3B 1302   0.726   3.323   7.803
  144PNCE   D4B 1303   0.801   3.511   7.387
  144PNCE   C5B 1304   0.755   3.981   7.392
  144PNCE   C6B 1305   0.865   4.423   7.544
  145PNCE   AM1 1306   2.319   2.088   9.168
  145PNCE   AM2 1307   2.534   1.972   8.926
  145PNCE   T1A 1308   1.995   2.150   8.838
  145PNCE   C2A 1309   1.612   2.222   8.595
  145PNCE   C3A 1310   1.354   2.207   8.203
  145PNCE   C1B 1311   2.620   1.712   8.562
  145PNCE   C2B 1312   2.574   1.635   8.112
  145PNCE   C3B 1313   2.608   1.788   7.688
  145PNCE   D4B 1314   2.387   1.879   7.308
  145PNCE   C5B 1315   1.988   1.851   7.294
  145PNCE   C6B 1316   1.575   2.086   7.241
  146CHOL   ROH 1317  14.650   5.063   4.719
  146CHOL    R1 1318  14.757   5.187   4.950
  146CHOL    R2 1319  14.610   5.221   5.181
  146CHOL    R3 1320  14.821   5.092   5.295
  146CHOL    R4 1321  14.642   5.153   5.519
  146CHOL    R5 1322  14.853   5.204   5.505
  146CHOL    C1 1323  14.857   4.992   5.822
  146CHOL    C2 1324  14.863   4.624   6.034
  147XCA    COO 1325   3.399   2.014   8.657
  147XCA     C1 1326   3.490   1.915   8.202
  147XCA     C2 1327   3.411   2.006   7.758
  147XCA     C3 1328   3.381   2.025   7.295
  147XCA     C4 1329   3.492   1.850   6.903
  147XCA     C5 1330   3.476   1.630   6.517
  147XCA     C6 1331   3.387   1.477   6.120
  148PNCE   AM1 1332  14.459  14.909   9.329
  148PNCE   AM2 1333  14.260  15.104   9.108
  148PNCE   T1A 1334  14.724  14.947   8.955
  148PNCE   C2A 1335  14.875  14.813   8.562
  148PNCE   C3A 1336  15.210  14.792   8.245
  148PNCE   C1B 1337  14.198  14.972   8.676
  148PNCE   C2B 1338  14.375  14.879   8.253
  148PNCE   C3B 1339  14.453  14.919   7.777
  148PNCE   D4B 1340  14.260  14.933   7.388
  148PNCE   C5B 1341  14.504  14.766   7.080
  148PNCE   C6B 1342  14.726  14.480   6.854
  149PNCE   AM1 1343  15.588   2.258   8.527
  149PNCE   AM2 1344  15.287   2.220   8.365
  149PNCE   T1A 1345   0.031   2.160   8.183
  149PNCE   C2A 1346   0.420   2.236   7.965
  149PNCE   C3A 1347   0.612   2.453   7.603
  149PNCE   C1B 1348  15.435   2.265   7.910
  149PNCE   C2B 1349  15.616   2.380   7.443
  149PNCE   C3B 1350  15.677   2.669   7.033
  149PNCE   D4B 1351  15.785   2.681   6.572
  149PNCE   C5B 1352  15.588   2.890   6.208
  149PNCE   C6B 1353  15.313   3.032   5.873
  150XCA    COO 1354   2.003   9.684   8.108
  150XCA     C1 1355   2.404   9.589   7.864
  150XCA     C2 1356   2.668   9.605   7.470
  150XCA     C3 1357   2.910   9.957   7.282
  150XCA     C4 1358   2.843  10.135   6.878
  150XCA     C5 1359   2.691   9.938   6.516
  150XCA     C6 1360   2.474   9.630   6.271
  151PNCE   AM1 1361   8.407  11.889   9.035
  151PNCE   AM2 1362   8.197  12.107   8.849
  151PNCE   T1A 1363   8.685  11.965   8.685
  151PNCE   C2A 1364   8.727  11.924   8.256
  151PNCE   C3A 1365   8.747  12.116   7.888
  151PNCE   C1B 1366   8.242  12.024   8.395
  151PNCE   C2B 1367   8.156  12.100   7.967
  151PNCE   C3B 1368   7.912  12.256   7.606
  151PNCE   D4B 1369   7.676  12.301   7.204
  151PNCE   C5B 1370   7.625  12.749   7.041
  151PNCE   C6B 1371   7.576  13.190   7.210
  152PNCE   AM1 1372   3.775   0.125   8.616
  152PNCE   AM2 1373   3.705   0.418   8.800
  152PNCE   T1A 1374   4.075  15.811   8.299
  152PNCE   C2A 1375   4.134  15.737   7.867
  152PNCE   C3A 1376   3.983  15.447   7.565
  152PNCE   C1B 1377   3.528   0.618   8.387
  152PNCE   C2B 1378   3.567   0.919   8.016
  152PNCE   C3B 1379   3.670   1.065   7.577
  152PNCE   D4B 1380   3.658   1.537   7.407
  152PNCE   C5B 1381   4.044   1.743   7.301
  152PNCE   C6B 1382   4.265   2.110   7.355
  153XCA    COO 1383   0.217   5.395   7.867
  153XCA     C1 1384   0.668   5.391   7.935
  153XCA     C2 1385   1.098   5.329   7.823
  153XCA     C3 1386   1.354   4.942   7.753
  153XCA     C4 1387   1.506   4.634   8.072
  153XCA     C5 1388   1.801   4.551   8.388
  153XCA     C6 1389   1.871   4.424   8.817
  154CHOL   ROH 1390   3.101   6.825   7.908
  154CHOL    R1 1391   3.114   6.661   7.677
  154CHOL    R2 1392   2.953   6.701   7.457
  154CHOL    R3 1393   3.190   6.707   7.324
  154CHOL    R4 1394   3.000   6.592   7.132
  154CHOL    R5 1395   3.190   6.505   7.195
  154CHOL    C1 1396   3.250   6.533   6.819
  154CHOL    C2 1397   3.356   6.167   6.698
  155PNCE   AM1 1398  11.193   1.972   8.188
  155PNCE   AM2 1399  11.317   1.635   8.267
  155PNCE   T1A 1400  11.551   2.156   8.017
  155PNCE   C2A 1401  11.805   2.136   7.683
  155PNCE   C3A 1402  11.807   1.849   7.343
  155PNCE   C1B 1403  11.260   1.368   7.870
  155PNCE   C2B 1404  11.220   1.281   7.433
  155PNCE   C3B 1405  11.051   1.060   7.120
  155PNCE   D4B 1406  10.685   0.896   6.935
  155PNCE   C5B 1407  10.796   0.817   6.507
  155PNCE   C6B 1408  10.686   0.574   6.146
  156PNCE   AM1 1409   5.161   8.809   8.311
  156PNCE   AM2 1410   5.399   8.597   8.462
  156PNCE   T1A 1411   5.100   8.751   7.848
  156PNCE   C2A 1412   5.036   8.813   7.391
  156PNCE   C3A 1413   4.944   8.691   6.950
  156PNCE   C1B 1414   5.517   8.469   8.003
  156PNCE   C2B 1415   5.373   8.290   7.592
  156PNCE   C3B 1416   5.535   8.291   7.170
  156PNCE   D4B 1417   5.523   8.267   6.756
  156PNCE   C5B 1418   5.186   8.398   6.456
  156PNCE   C6B 1419   4.745   8.498   6.476
  157CHOL   ROH 1420  10.820  11.433   8.622
  157CHOL    R1 1421  10.978  11.568   8.430
  157CHOL    R2 1422  11.009  11.842   8.428
  157CHOL    R3 1423  11.273  11.781   8.433
  157CHOL    R4 1424  11.265  12.072   8.398
  157CHOL    R5 1425  11.372  11.929   8.273
  157CHOL    C1 1426  11.663  12.148   8.385
  157CHOL    C2 1427  11.893  12.408   8.639
  158XCA    COO 1428   7.085  10.898   8.836
  158XCA     C1 1429   6.873  10.953   8.454
  158XCA     C2 1430   6.975  11.075   8.059
  158XCA     C3 1431   7.176  10.925   7.772
  158XCA     C4 1432   7.392  10.607   7.834
  158XCA     C5 1433   7.143  10.268   7.712
  158XCA     C6 1434   6.935   9.910   7.576
  159PNCE   AM1 1435   9.291  13.708   9.372
  159PNCE   AM2 1436   9.021  13.519   9.522
  159PNCE   T1A 1437   9.418  13.864   8.969
  159PNCE   C2A 1438   9.428  14.006   8.530
  159PNCE   C3A 1439   9.296  14.248   8.185
  159PNCE   C1B 1440   8.772  13.734   9.176
  159PNCE   C2B 1441   8.525  14.072   8.918
  159PNCE   C3B 1442   8.545  14.239   8.518
  159PNCE   D4B 1443   8.327  14.505   8.327
  159PNCE   C5B 1444   8.199  14.843   8.572
  159PNCE   C6B 1445   8.208  15.250   8.786
  160XCA    COO 1446   3.569  13.009   7.899
  160XCA     C1 1447   3.794  12.992   7.489
  160XCA     C2 1448   3.945  13.069   7.057
  160XCA     C3 1449   3.952  13.473   6.850
  160XCA     C4 1450   4.092  13.895   6.942
  160XCA     C5 1451   4.252  14.090   7.335
  160XCA     C6 1452   4.395  14.498   7.482
  161CHOL   ROH 1453  14.178   8.784   7.529
  161CHOL    R1 1454  14.258   8.760   7.259
  161CHOL    R2 1455  14.231   8.526   7.115
  161CHOL    R3 1456  14.099   8.686   6.940
  161CHOL    R4 1457  14.189   8.459   6.779
  161CHOL    R5 1458  14.224   8.669   6.737
  161CHOL    C1 1459  14.040   8.569   6.419
  161CHOL    C2 1460  14.175   8.254   6.233
  162CHOL   ROH 1461  12.956   8.175   4.097
  162CHOL    R1 1462  12.915   8.202   4.376
  162CHOL    R2 1463  12.669   8.160   4.494
  162CHOL    R3 1464  12.810   7.987   4.650
  162CHOL    R4 1465  12.566   8.042   4.803
  162CHOL    R5 1466  12.771   8.063   4.874
  162CHOL    C1 1467  12.638   7.812   5.128
  162CHOL    C2 1468  12.543   7.956   5.483
  163CHOL   ROH 1469   9.245   7.557   4.900
  163CHOL    R1 1470   9.185   7.508   5.172
  163CHOL    R2 1471   9.380   7.470   5.363
  163CHOL    R3 1472   9.249   7.671   5.491
  163CHOL    R4 1473   9.373   7.515   5.705
  163CHOL    R5 1474   9.163   7.569   5.689
  163CHOL    C1 1475   9.246   7.730   6.025
  163CHOL    C2 1476   9.388   7.554   6.363
  164CHOL   ROH 1477  13.057   6.745   4.676
  164CHOL    R1 1478  12.819   6.843   4.793
  164CHOL    R2 1479  12.793   6.885   5.065
  164CHOL    R3 1480  12.720   7.135   4.987
  164CHOL    R4 1481  12.605   7.104   5.255
  164CHOL    R5 1482  12.498   7.162   5.074
  164CHOL    C1 1483  12.427   7.466   5.292
  164CHOL    C2 1484  12.091   7.680   5.462
  165CHOL   ROH 1485   1.331   0.617   6.547
  165CHOL    R1 1486   1.395   0.709   6.807
  165CHOL    R2 1487   1.358   0.554   7.033
  165CHOL    R3 1488   1.620   0.611   7.075
  165CHOL    R4 1489   1.516   0.538   7.339
  165CHOL    R5 1490   1.624   0.720   7.288
  165CHOL    C1 1491   1.855   0.581   7.558
  165CHOL    C2 1492   1.891   0.919   7.772
  166CHOL   ROH 1493   9.627   8.358   7.866
  166CHOL    R1 1494   9.481   8.287   7.634
  166CHOL    R2 1495   9.459   8.455   7.415
  166CHOL    R3 1496   9.553   8.239   7.280
  166CHOL    R4 1497   9.454   8.419   7.072
  166CHOL    R5 1498   9.399   8.210   7.099
  166CHOL    C1 1499   9.539   8.195   6.745
  166CHOL    C2 1500   9.350   8.060   6.396
  167PNCE   AM1 1501   3.972  14.180   8.258
  167PNCE   AM2 1502   4.306  14.136   8.294
  167PNCE   T1A 1503   3.997  14.320   7.805
  167PNCE   C2A 1504   3.850  14.568   7.436
  167PNCE   C3A 1505   3.932  14.805   7.062
  167PNCE   C1B 1506   4.525  14.403   7.999
  167PNCE   C2B 1507   4.620  14.801   7.822
  167PNCE   C3B 1508   4.712  14.944   7.447
  167PNCE   D4B 1509   4.681  14.808   7.044
  167PNCE   C5B 1510   4.393  14.998   6.772
  167PNCE   C6B 1511   4.487  15.098   6.365
  168CHOL   ROH 1512   8.127  12.707   8.895
  168CHOL    R1 1513   8.057  12.736   8.622
  168CHOL    R2 1514   7.873  12.923   8.535
  168CHOL    R3 1515   8.076  12.999   8.371
  168CHOL    R4 1516   7.835  13.105   8.244
  168CHOL    R5 1517   7.985  12.978   8.151
  168CHOL    C1 1518   8.003  13.282   7.920
  168CHOL    C2 1519   7.603  13.301   7.731
  169XCA    COO 1520   3.062   7.843   6.227
  169XCA     C1 1521   3.148   7.448   5.988
  169XCA     C2 1522   3.372   7.014   6.023
  169XCA     C3 1523   3.698   6.754   6.071
  169XCA     C4 1524   4.045   6.454   6.134
  169XCA     C5 1525   4.481   6.580   6.254
  169XCA     C6 1526   4.774   6.611   6.623
  170CHOL   ROH 1527   6.394   4.259   4.630
  170CHOL    R1 1528   6.121   4.333   4.629
  170CHOL    R2 1529   5.929   4.197   4.774
  170CHOL    R3 1530   5.875   4.444   4.874
  170CHOL    R4 1531   5.621   4.299   4.893
  170CHOL    R5 1532   5.654   4.492   4.797
  170CHOL    C1 1533   5.391   4.590   5.056
  170CHOL    C2 1534   5.079   4.790   4.860
  171XCA    COO 1535   9.928   5.790   8.320
  171XCA     C1 1536   9.878   5.948   7.893
  171XCA     C2 1537   9.669   5.865   7.529
  171XCA     C3 1538   9.619   5.944   7.095
  171XCA     C4 1539   9.461   6.309   6.840
  171XCA     C5 1540   9.160   6.682   6.787
  171XCA     C6 1541   9.172   7.095   6.558
  172PNCE   AM1 1542   2.679  14.530   8.263
  172PNCE   AM2 1543   3.017  14.514   8.333
  172PNCE   T1A 1544   2.663  14.838   7.945
  172PNCE   C2A 1545   2.652  15.076   7.576
  172PNCE   C3A 1546   2.439  15.052   7.194
  172PNCE   C1B 1547   2.983  14.437   7.863
  172PNCE   C2B 1548   2.773  14.555   7.473
  172PNCE   C3B 1549   2.750  14.273   7.088
  172PNCE   D4B 1550   2.673  13.830   7.036
  172PNCE   C5B 1551   2.267  13.644   7.022
  172PNCE   C6B 1552   1.849  13.703   7.141
  173PNCE   AM1 1553   7.234   5.982   8.062
  173PNCE   AM2 1554   7.029   5.738   7.969
  173PNCE   T1A 1555   6.925   6.172   7.737
  173PNCE   C2A 1556   6.791   6.536   7.475
  173PNCE   C3A 1557   6.752   6.930   7.245
  173PNCE   C1B 1558   7.139   5.757   7.483
  173PNCE   C2B 1559   7.118   5.612   7.071
  173PNCE   C3B 1560   7.105   5.312   6.715
  173PNCE   D4B 1561   7.005   5.387   6.300
  173PNCE   C5B 1562   6.641   5.242   6.121
  173PNCE   C6B 1563   6.226   5.215   5.989
  174CHOL   ROH 1564  10.130   5.368   8.194
  174CHOL    R1 1565  10.105   5.331   7.915
  174CHOL    R2 1566  10.132   5.539   7.735
  174CHOL    R3 1567  10.317   5.375   7.622
  174CHOL    R4 1568  10.210   5.529   7.398
  174CHOL    R5 1569  10.222   5.313   7.411
  174CHOL    C1 1570  10.429   5.370   7.096
  174CHOL    C2 1571  10.665   5.412   6.765
  175XCA    COO 1572   1.072   5.803   8.459
  175XCA     C1 1573   1.260   5.794   8.036
  175XCA     C2 1574   1.208   5.947   7.652
  175XCA     C3 1575   1.228   5.969   7.210
  175XCA     C4 1576   1.418   5.797   6.866
  175XCA     C5 1577   1.766   5.518   6.807
  175XCA     C6 1578   2.021   5.197   6.962
  176CHOL   ROH 1579   4.765   8.053   4.125
  176CHOL    R1 1580   4.793   8.191   4.371
  176CHOL    R2 1581   4.578   8.245   4.536
  176CHOL    R3 1582   4.731   8.119   4.722
  176CHOL    R4 1583   4.537   8.275   4.878
  176CHOL    R5 1584   4.755   8.280   4.898
  176CHOL    C1 1585   4.657   8.176   5.252
  176CHOL    C2 1586   4.659   8.066   5.648
  177CHOL   ROH 1587   9.199  15.795   9.223
  177CHOL    R1 1588   9.256  15.558   9.079
  177CHOL    R2 1589   9.091  15.337   9.084
  177CHOL    R3 1590   9.098  15.365   8.814
  177CHOL    R4 1591   9.072  15.076   8.858
  177CHOL    R5 1592   9.224  15.176   8.738
  177CHOL    C1 1593   9.067  14.951   8.473
  177CHOL    C2 1594   9.139  14.738   8.164
  178CHOL   ROH 1595   3.585   1.485   7.868
  178CHOL    R1 1596   3.820   1.635   7.917
  178CHOL    R2 1597   3.895   1.850   7.760
  178CHOL    R3 1598   3.901   1.981   7.999
  178CHOL    R4 1599   4.070   2.142   7.822
  178CHOL    R5 1600   4.125   2.062   8.017
  178CHOL    C1 1601   4.177   2.434   8.082
  178CHOL    C2 1602   4.440   2.726   8.064
  179XCA    COO 1603   7.549   6.355   8.225
  179XCA     C1 1604   7.706   6.738   8.039
  179XCA     C2 1605   7.777   6.998   7.691
  179XCA     C3 1606   7.688   7.032   7.282
  179XCA     C4 1607   7.877   7.003   6.899
  179XCA     C5 1608   7.876   6.839   6.436
  179XCA     C6 1609   8.078   6.852   6.009
  180XCA    COO 1610   8.425   8.588   4.607
  180XCA     C1 1611   8.477   8.654   5.094
  180XCA     C2 1612   8.389   8.603   5.552
  180XCA     C3 1613   8.502   8.437   5.995
  180XCA     C4 1614   8.437   8.324   6.423
  180XCA     C5 1615   8.152   8.401   6.753
  180XCA     C6 1616   7.851   8.733   6.825
  181CHOL   ROH 1617   2.205  10.958   8.108
  181CHOL    R1 1618   2.058  10.881   7.879
  181CHOL    R2 1619   1.824  11.006   7.803
  181CHOL    R3 1620   1.954  11.036   7.567
  181CHOL    R4 1621   1.671  11.073   7.501
  181CHOL    R5 1622   1.809  10.934   7.406
  181CHOL    C1 1623   1.704  11.140   7.102
  181CHOL    C2 1624   1.852  11.364   6.768
  182CHOL   ROH 1625   0.490  10.038   7.787
  182CHOL    R1 1626   0.728   9.967   7.652
  182CHOL    R2 1627   0.730   9.886   7.387
  182CHOL    R3 1628   0.913  10.086   7.362
  182CHOL    R4 1629   0.897   9.965   7.095
  182CHOL    R5 1630   1.078   9.996   7.212
  182CHOL    C1 1631   1.165  10.198   6.900
  182CHOL    C2 1632   1.133  10.586   6.706
  183PNCE   AM1 1633   4.446   6.967   8.621
  183PNCE   AM2 1634   4.604   7.237   8.443
  183PNCE   T1A 1635   4.215   6.692   8.281
  183PNCE   C2A 1636   3.968   6.503   7.888
  183PNCE   C3A 1637   3.898   6.180   7.536
  183PNCE   C1B 1638   4.930   7.463   8.200
  183PNCE   C2B 1639   5.136   7.771   7.885
  183PNCE   C3B 1640   4.982   7.860   7.476
  183PNCE   D4B 1641   4.593   7.652   7.374
  183PNCE   C5B 1642   4.481   7.240   7.450
  183PNCE   C6B 1643   4.559   6.795   7.536
  184PNCE   AM1 1644   5.284  13.035   8.422
  184PNCE   AM2 1645   4.892  13.056   8.441
  184PNCE   T1A 1646   5.353  13.489   8.239
  184PNCE   C2A 1647   5.648  13.848   8.144
  184PNCE   C3A 1648   6.056  13.809   7.932
  184PNCE   C1B 1649   5.009  13.183   8.013
  184PNCE   C2B 1650   5.225  13.265   7.617
  184PNCE   C3B 1651   5.219  13.293   7.155
  184PNCE   D4B 1652   5.098  13.255   6.667
  184PNCE   C5B 1653   4.904  13.637   6.484
  184PNCE   C6B 1654   4.985  14.092   6.609
  185PNCE   AM1 1655   2.283   3.686   8.527
  185PNCE   AM2 1656   2.596   3.772   8.723
  185PNCE   T1A 1657   2.266   3.819   8.080
  185PNCE   C2A 1658   2.342   3.679   7.647
  185PNCE   C3A 1659   2.339   3.656   7.146
  185PNCE   C1B 1660   2.740   3.787   8.297
  185PNCE   C2B 1661   2.825   3.636   7.885
  185PNCE   C3B 1662   3.146   3.361   7.720
  185PNCE   D4B 1663   3.120   3.035   7.437
  185PNCE   C5B 1664   2.996   3.221   7.037
  185PNCE   C6B 1665   2.618   3.295   6.781
  186PNCE   AM1 1666   2.478  15.487   9.040
  186PNCE   AM2 1667   2.801  15.638   8.902
  186PNCE   T1A 1668   2.233  15.642   8.677
  186PNCE   C2A 1669   1.870  15.522   8.463
  186PNCE   C3A 1670   1.770  15.240   8.104
  186PNCE   C1B 1671   2.683  15.633   8.459
  186PNCE   C2B 1672   2.357  15.749   8.151
  186PNCE   C3B 1673   2.073  15.699   7.790
  186PNCE   D4B 1674   1.796   0.114   7.511
  186PNCE   C5B 1675   2.023   0.344   7.171
  186PNCE   C6B 1676   2.154   0.598   6.818
  187PNCE   AM1 1677  11.718  14.261   5.290
  187PNCE   AM2 1678  12.025  14.107   5.152
  187PNCE   T1A 1679  11.682  14.506   5.693
  187PNCE   C2A 1680  11.626  14.375   6.137
  187PNCE   C3A 1681  11.725  14.255   6.587
  187PNCE   C1B 1682  12.154  14.287   5.550
  187PNCE   C2B 1683  12.125  14.260   5.986
  187PNCE   C3B 1684  12.204  14.215   6.416
  187PNCE   D4B 1685  12.217  14.333   6.853
  187PNCE   C5B 1686  12.550  14.634   6.862
  187PNCE   C6B 1687  12.997  14.565   6.952
  188XCA    COO 1688  15.668  14.010   9.486
  188XCA     C1 1689  15.591  13.722   9.114
  188XCA     C2 1690  15.323  13.629   8.720
  188XCA     C3 1691  15.188  13.706   8.273
  188XCA     C4 1692  14.849  13.540   8.026
  188XCA     C5 1693  14.886  13.699   7.606
  188XCA     C6 1694  14.995  13.655   7.212
  189PNCE   AM1 1695  11.440   8.710   8.559
  189PNCE   AM2 1696  11.281   8.836   8.237
  189PNCE   T1A 1697  11.630   8.466   8.210
  189PNCE   C2A 1698  11.707   8.442   7.773
  189PNCE   C3A 1699  11.795   8.738   7.429
  189PNCE   C1B 1700  11.177   8.555   7.854
  189PNCE   C2B 1701  10.802   8.320   7.680
  189PNCE   C3B 1702  10.544   8.244   7.302
  189PNCE   D4B 1703  10.437   8.541   6.983
  189PNCE   C5B 1704  10.798   8.683   6.768
  189PNCE   C6B 1705  11.238   8.751   6.841
  190PNCE   AM1 1706  11.786  11.334   8.900
  190PNCE   AM2 1707  12.104  11.499   8.891
  190PNCE   T1A 1708  11.707  11.681   8.584
  190PNCE   C2A 1709  11.834  11.778   8.150
  190PNCE   C3A 1710  11.771  12.035   7.814
  190PNCE   C1B 1711  12.103  11.422   8.405
  190PNCE   C2B 1712  11.974  11.300   7.959
  190PNCE   C3B 1713  11.902  11.271   7.485
  190PNCE   D4B 1714  11.524  11.229   7.194
  190PNCE   C5B 1715  11.065  11.139   7.329
  190PNCE   C6B 1716  10.602  10.957   7.467
  191CHOL   ROH 1717   4.895   0.158   5.517
  191CHOL    R1 1718   5.021   0.164   5.771
  191CHOL    R2 1719   5.045  15.769   5.930
  191CHOL    R3 1720   5.309   0.006   5.927
  191CHOL    R4 1721   5.282  15.646   6.150
  191CHOL    R5 1722   5.370   0.016   6.159
  191CHOL    C1 1723   5.667  15.636   6.276
  191CHOL    C2 1724   6.001  15.483   6.117
  192CHOL   ROH 1725  12.956   6.377   8.080
  192CHOL    R1 1726  12.880   6.358   7.808
  192CHOL    R2 1727  12.988   6.520   7.612
  192CHOL    R3 1728  13.044   6.283   7.492
  192CHOL    R4 1729  13.030   6.476   7.272
  192CHOL    R5 1730  12.920   6.289   7.288
  192CHOL    C1 1731  13.108   6.227   6.962
  192CHOL    C2 1732  13.178   6.442   6.605
  193XCA    COO 1733  11.952   6.510   3.988
  193XCA     C1 1734  12.081   6.574   4.440
  193XCA     C2 1735  12.208   6.360   4.838
  193XCA     C3 1736  12.132   6.270   5.282
  193XCA     C4 1737  12.238   6.315   5.712
  193XCA     C5 1738  12.175   6.034   6.049
  193XCA     C6 1739  12.373   5.806   6.372
  194CHOL   ROH 1740  12.531   4.316   8.377
  194CHOL    R1 1741  12.358   4.270   8.158
  194CHOL    R2 1742  12.446   4.271   7.896
  194CHOL    R3 1743  12.331   4.025   7.890
  194CHOL    R4 1744  12.347   4.107   7.609
  194CHOL    R5 1745  12.169   4.041   7.714
  194CHOL    C1 1746  12.181   3.781   7.435
  194CHOL    C2 1747  11.890   3.756   7.209
  195PNCE   AM1 1748  12.645   5.666   8.338
  195PNCE   AM2 1749  13.016   5.653   8.305
  195PNCE   T1A 1750  12.578   5.971   7.972
  195PNCE   C2A 1751  12.534   6.160   7.548
  195PNCE   C3A 1752  12.555   6.591   7.371
  195PNCE   C1B 1753  12.883   5.484   7.903
  195PNCE   C2B 1754  12.963   5.390   7.475
  195PNCE   C3B 1755  12.850   5.351   7.078
  195PNCE   D4B 1756  12.697   5.439   6.660
  195PNCE   C5B 1757  12.341   5.302   6.349
  195PNCE   C6B 1758  11.959   5.428   6.044
  196XCA    COO 1759  14.904  13.668   4.604
  196XCA     C1 1760  15.260  13.646   4.893
  196XCA     C2 1761  15.304  13.785   5.337
  196XCA     C3 1762  15.484  13.662   5.737
  196XCA     C4 1763  15.460  13.530   6.154
  196XCA     C5 1764  15.432  13.302   6.567
  196XCA     C6 1765  15.192  13.308   6.915
  197CHOL   ROH 1766   2.785  11.995   6.729
  197CHOL    R1 1767   2.977  11.989   6.522
  197CHOL    R2 1768   3.184  12.172   6.506
  197CHOL    R3 1769   3.338  11.948   6.496
  197CHOL    R4 1770   3.504  12.158   6.375
  197CHOL    R5 1771   3.454  11.964   6.288
  197CHOL    C1 1772   3.835  11.940   6.291
  197CHOL    C2 1773   4.103  11.910   6.039
  198CHOL   ROH 1774  10.612   4.636   8.219
  198CHOL    R1 1775  10.724   4.609   7.960
  198CHOL    R2 1776  10.824   4.370   7.865
  198CHOL    R3 1777  10.653   4.417   7.660
  198CHOL    R4 1778  10.848   4.226   7.552
  198CHOL    R5 1779  10.793   4.418   7.465
  198CHOL    C1 1780  10.700   4.186   7.176
  198CHOL    C2 1781  10.642   3.867   6.929
  199PNCE   AM1 1782   5.703  10.483   8.024
  199PNCE   AM2 1783   5.466  10.624   7.775
  199PNCE   T1A 1784   5.870  10.104   7.827
  199PNCE   C2A 1785   5.922   9.842   7.471
  199PNCE   C3A 1786   6.236   9.518   7.424
  199PNCE   C1B 1787   5.520  10.226   7.492
  199PNCE   C2B 1788   5.673  10.199   7.076
  199PNCE   C3B 1789   5.760  10.408   6.670
  199PNCE   D4B 1790   5.555  10.774   6.429
  199PNCE   C5B 1791   5.613  11.157   6.648
  199PNCE   C6B 1792   5.986  11.387   6.672
  200PNCE   AM1 1793  13.114   7.702   8.182
  200PNCE   AM2 1794  13.321   7.425   8.179
  200PNCE   T1A 1795  12.992   7.926   7.810
  200PNCE   C2A 1796  12.917   7.958   7.368
  200PNCE   C3A 1797  12.944   7.843   6.938
  200PNCE   C1B 1798  13.217   7.478   7.695
  200PNCE   C2B 1799  13.174   7.404   7.253
  200PNCE   C3B 1800  13.251   7.283   6.836
  200PNCE   D4B 1801  12.969   7.433   6.527
  200PNCE   C5B 1802  13.081   7.402   6.108
  200PNCE   C6B 1803  13.058   7.733   5.837
  201CHOL   ROH 1804   7.115   8.395   8.160
  201CHOL    R1 1805   7.036   8.644   8.050
  201CHOL    R2 1806   7.146   8.884   8.131
  201CHOL    R3 1807   7.196   8.914   7.866
  201CHOL    R4 1808   7.222   9.184   7.977
  201CHOL    R5 1809   7.096   9.124   7.810
  201CHOL    C1 1810   7.313   9.387   7.638
  201CHOL    C2 1811   7.583   9.589   7.372
  202CHOL   ROH 1812   3.107   0.475   8.196
  202CHOL    R1 1813   3.244   0.398   7.960
  202CHOL    R2 1814   3.230   0.544   7.726
  202CHOL    R3 1815   3.501   0.540   7.746
  202CHOL    R4 1816   3.448   0.596   7.463
  202CHOL    R5 1817   3.574   0.437   7.542
  202CHOL    C1 1818   3.830   0.623   7.328
  202CHOL    C2 1819   4.177   0.421   7.135
  203CHOL   ROH 1820   6.249   6.791   4.692
  203CHOL    R1 1821   6.122   6.708   4.931
  203CHOL    R2 1822   6.250   6.714   5.176
  203CHOL    R3 1823   6.033   6.861   5.249
  203CHOL    R4 1824   6.097   6.701   5.486
  203CHOL    R5 1825   5.904   6.713   5.387
  203CHOL    C1 1826   5.806   6.833   5.735
  203CHOL    C2 1827   5.413   6.755   5.856
  204PNCE   AM1 1828   6.973  13.212   9.127
  204PNCE   AM2 1829   6.740  13.001   8.926
  204PNCE   T1A 1830   7.230  13.498   8.874
  204PNCE   C2A 1831   7.574  13.814   8.773
  204PNCE   C3A 1832   7.493  14.254   8.797
  204PNCE   C1B 1833   7.031  13.159   8.553
  204PNCE   C2B 1834   7.239  13.266   8.139
  204PNCE   C3B 1835   7.066  13.334   7.737
  204PNCE   D4B 1836   7.109  13.702   7.513
  204PNCE   C5B 1837   7.552  13.720   7.405
  204PNCE   C6B 1838   7.992  13.936   7.276
  205CHOL   ROH 1839   6.232  11.203   8.448
  205CHOL    R1 1840   6.354  11.205   8.193
  205CHOL    R2 1841   6.525  11.005   8.108
  205CHOL    R3 1842   6.354  10.992   7.898
  205CHOL    R4 1843   6.619  10.947   7.781
  205CHOL    R5 1844   6.473  11.096   7.718
  205CHOL    C1 1845   6.513  10.901   7.392
  205CHOL    C2 1846   6.641  11.147   7.070
  206XCA    COO 1847   0.314   1.844   9.226
  206XCA     C1 1848   0.617   1.641   8.900
  206XCA     C2 1849   0.653   1.475   8.457
  206XCA     C3 1850   0.906   1.335   8.141
  206XCA     C4 1851   1.065   1.030   7.877
  206XCA     C5 1852   1.378   0.722   7.754
  206XCA     C6 1853   1.690   0.416   7.963
  207CHOL   ROH 1854  13.140   9.557   4.139
  207CHOL    R1 1855  13.227   9.567   4.409
  207CHOL    R2 1856  13.070   9.669   4.612
  207CHOL    R3 1857  13.118   9.427   4.727
  207CHOL    R4 1858  13.056   9.605   4.951
  207CHOL    R5 1859  13.233   9.480   4.930
  207CHOL    C1 1860  13.093   9.341   5.257
  207CHOL    C2 1861  12.839   9.446   5.583
  208CHOL   ROH 1862   9.637  14.514   5.671
  208CHOL    R1 1863   9.795  14.496   5.905
  208CHOL    R2 1864   9.774  14.677   6.113
  208CHOL    R3 1865   9.735  14.453   6.262
  208CHOL    R4 1866   9.832  14.653   6.453
  208CHOL    R5 1867   9.915  14.454   6.420
  208CHOL    C1 1868   9.829  14.429   6.790
  208CHOL    C2 1869   9.721  14.475   7.161
  209PNCE   AM1 1870  12.415   0.025   8.733
  209PNCE   AM2 1871  12.715   0.197   8.611
  209PNCE   T1A 1872  12.383  15.524   8.410
  209PNCE   C2A 1873  12.454  15.079   8.256
  209PNCE   C3A 1874  12.280  14.698   8.351
  209PNCE   C1B 1875  12.804  15.795   8.213
  209PNCE   C2B 1876  12.548  15.457   7.931
  209PNCE   C3B 1877  12.214  15.311   7.605
  209PNCE   D4B 1878  11.892  15.346   7.199
  209PNCE   C5B 1879  11.423  15.360   7.250
  209PNCE   C6B 1880  11.174  15.489   7.623
  210CHOL   ROH 1881   0.665   9.146   4.942
  210CHOL    R1 1882   0.746   9.014   5.179
  210CHOL    R2 1883   1.002   8.919   5.216
  210CHOL    R3 1884   0.992   9.070   5.442
  210CHOL    R4 1885   1.193   8.865   5.500
  210CHOL    R5 1886   1.018   8.913   5.621
  210CHOL    C1 1887   1.294   8.975   5.876
  210CHOL    C2 1888   1.436   8.715   6.160
  211PNCE   AM1 1889  11.118  10.964   8.693
  211PNCE   AM2 1890  11.337  11.155   8.758
  211PNCE   T1A 1891  11.009  11.109   8.331
  211PNCE   C2A 1892  10.670  11.306   8.146
  211PNCE   C3A 1893  10.285  11.150   7.913
  211PNCE   C1B 1894  11.621  11.194   8.417
  211PNCE   C2B 1895  11.461  11.447   8.138
  211PNCE   C3B 1896  11.543  11.564   7.744
  211PNCE   D4B 1897  11.251  11.599   7.431
  211PNCE   C5B 1898  11.170  11.959   7.219
  211PNCE   C6B 1899  10.858  12.075   6.903
  212CHOL   ROH 1900   3.772  12.813   5.100
  212CHOL    R1 1901   4.028  12.784   5.218
  212CHOL    R2 1902   4.134  12.971   5.390
  212CHOL    R3 1903   4.162  12.756   5.555
  212CHOL    R4 1904   4.365  12.947   5.646
  212CHOL    R5 1905   4.398  12.739   5.590
  212CHOL    C1 1906   4.525  12.731   5.950
  212CHOL    C2 1907   4.861  12.576   6.062
  213PNCE   AM1 1908  15.629   5.240   8.124
  213PNCE   AM2 1909  15.304   5.267   8.157
  213PNCE   T1A 1910  15.661   5.051   7.736
  213PNCE   C2A 1911   0.094   4.917   7.385
  213PNCE   C3A 1912   0.532   4.788   7.341
  213PNCE   C1B 1913  15.148   5.138   7.735
  213PNCE   C2B 1914  14.960   5.087   7.315
  213PNCE   C3B 1915  14.970   5.020   6.857
  213PNCE   D4B 1916  14.949   4.990   6.400
  213PNCE   C5B 1917  15.271   4.922   6.068
  213PNCE   C6B 1918  15.327   4.870   5.675
  214CHOL   ROH 1919   5.868   2.625   8.632
  214CHOL    R1 1920   5.893   2.699   8.360
  214CHOL    R2 1921   6.038   2.551   8.178
  214CHOL    R3 1922   5.805   2.555   8.037
  214CHOL    R4 1923   6.012   2.504   7.836
  214CHOL    R5 1924   5.862   2.661   7.831
  214CHOL    C1 1925   5.778   2.480   7.506
  214CHOL    C2 1926   5.725   2.159   7.258
  215CHOL   ROH 1927   2.434   2.905   8.724
  215CHOL    R1 1928   2.619   2.737   8.590
  215CHOL    R2 1929   2.561   2.477   8.520
  215CHOL    R3 1930   2.634   2.561   8.272
  215CHOL    R4 1931   2.661   2.270   8.262
  215CHOL    R5 1932   2.814   2.415   8.210
  215CHOL    C1 1933   2.788   2.227   7.880
  215CHOL    C2 1934   2.910   2.157   7.506
  216PNCE   AM1 1935   5.472   5.883   8.365
  216PNCE   AM2 1936   5.162   5.945   8.288
  216PNCE   T1A 1937   5.431   5.886   7.844
  216PNCE   C2A 1938   5.501   5.876   7.356
  216PNCE   C3A 1939   5.341   5.753   6.905
  216PNCE   C1B 1940   4.989   6.196   7.921
  216PNCE   C2B 1941   4.850   6.347   7.510
  216PNCE   C3B 1942   4.678   6.523   7.121
  216PNCE   D4B 1943   4.437   6.887   7.010
  216PNCE   C5B 1944   4.494   7.023   6.572
  216PNCE   C6B 1945   4.597   7.175   6.180
  217PNCE   AM1 1946   7.369   0.730   5.445
  217PNCE   AM2 1947   7.680   0.947   5.450
  217PNCE   T1A 1948   7.210   0.534   5.829
  217PNCE   C2A 1949   7.306   0.332   6.219
  217PNCE   C3A 1950   7.246   0.009   6.542
  217PNCE   C1B 1951   8.013   1.114   5.750
  217PNCE   C2B 1952   8.034   1.498   5.998
  217PNCE   C3B 1953   8.083   1.604   6.411
  217PNCE   D4B 1954   7.999   1.933   6.654
  217PNCE   C5B 1955   8.339   2.253   6.635
  217PNCE   C6B 1956   8.596   2.620   6.479
  218PNCE   AM1 1957  13.496   2.212   8.456
  218PNCE   AM2 1958  13.343   2.013   8.244
  218PNCE   T1A 1959  13.538   2.451   8.025
  218PNCE   C2A 1960  13.685   2.636   7.579
  218PNCE   C3A 1961  13.982   2.814   7.217
  218PNCE   C1B 1962  13.197   2.059   7.851
  218PNCE   C2B 1963  13.032   1.904   7.477
  218PNCE   C3B 1964  13.071   1.716   7.077
  218PNCE   D4B 1965  13.337   1.431   6.857
  218PNCE   C5B 1966  13.191   1.029   6.692
  218PNCE   C6B 1967  12.934   0.865   6.324
  219CHOL   ROH 1968   7.200  15.071   5.528
  219CHOL    R1 1969   7.158  15.056   5.807
  219CHOL    R2 1970   6.937  14.934   5.918
  219CHOL    R3 1971   7.123  14.792   6.056
  219CHOL    R4 1972   6.875  14.750   6.204
  219CHOL    R5 1973   7.063  14.821   6.285
  219CHOL    C1 1974   7.014  14.510   6.500
  219CHOL    C2 1975   6.882  14.295   6.792
  220PNCE   AM1 1976  13.134   1.342   8.635
  220PNCE   AM2 1977  12.821   1.300   8.803
  220PNCE   T1A 1978  12.925   1.074   8.280
  220PNCE   C2A 1979  12.790   1.119   7.836
  220PNCE   C3A 1980  12.963   1.397   7.496
  220PNCE   C1B 1981  12.511   1.289   8.480
  220PNCE   C2B 1982  12.361   1.058   8.125
  220PNCE   C3B 1983  12.219   1.149   7.705
  220PNCE   D4B 1984  11.952   0.904   7.461
  220PNCE   C5B 1985  12.150   0.566   7.333
  220PNCE   C6B 1986  12.366   0.471   6.931
  221CHOL   ROH 1987   2.459   1.417   6.912
  221CHOL    R1 1988   2.205   1.479   6.805
  221CHOL    R2 1989   1.984   1.531   6.963
  221CHOL    R3 1990   1.973   1.760   6.818
  221CHOL    R4 1991   1.705   1.732   6.932
  221CHOL    R5 1992   1.754   1.760   6.722
  221CHOL    C1 1993   1.532   2.065   6.778
  221CHOL    C2 1994   1.191   1.907   6.903
  222CHOL   ROH 1995   0.098  10.236   7.688
  222CHOL    R1 1996  15.779  10.436   7.555
  222CHOL    R2 1997  15.781  10.466   7.281
  222CHOL    R3 1998  15.511  10.447   7.309
  222CHOL    R4 1999  15.551  10.516   7.028
  222CHOL    R5 2000  15.425  10.621   7.169
  222CHOL    C1 2001  15.164  10.528   6.906
  222CHOL    C2 2002  14.910  10.470   6.596
  223PNCE   AM1 2003   6.205  13.945   8.923
  223PNCE   AM2 2004   6.083  14.290   8.914
  223PNCE   T1A 2005   6.413  14.009   8.477
  223PNCE   C2A 2006   6.432  14.143   8.023
  223PNCE   C3A 2007   6.686  14.013   7.642
  223PNCE   C1B 2008   5.943  14.255   8.473
  223PNCE   C2B 2009   6.045  14.535   8.135
  223PNCE   C3B 2010   6.306  14.810   7.919
  223PNCE   D4B 2011   6.513  14.931   7.538
  223PNCE   C5B 2012   6.360  15.309   7.332
  223PNCE   C6B 2013   6.640  15.628   7.145
  224XCA    COO 2014   6.607  10.742   6.443
  224XCA     C1 2015   6.945  10.502   6.471
  224XCA     C2 2016   7.173  10.180   6.582
  224XCA     C3 2017   7.348   9.809   6.661
  224XCA     C4 2018   7.683   9.692   6.870
  224XCA     C5 2019   8.118   9.690   6.754
  224XCA     C6 2020   8.464   9.931   6.839
  225CHOL   ROH 2021  12.197   9.521   7.294
  225CHOL    R1 2022  12.337   9.494   7.049
  225CHOL    R2 2023  12.541   9.311   7.014
  225CHOL    R3 2024  12.390   9.232   6.802
  225CHOL    R4 2025  12.666   9.208   6.709
  225CHOL    R5 2026  12.505   9.317   6.611
  225CHOL    C1 2027  12.598   9.073   6.333
  225CHOL    C2 2028  12.639   9.064   5.906
  226PNCE   AM1 2029   5.438   7.389   8.058
  226PNCE   AM2 2030   5.766   7.226   8.074
  226PNCE   T1A 2031   5.479   7.355   7.600
  226PNCE   C2A 2032   5.413   7.393   7.145
  226PNCE   C3A 2033   5.340   7.402   6.686
  226PNCE   C1B 2034   5.981   7.215   7.678
  226PNCE   C2B 2035   5.905   7.325   7.256
  226PNCE   C3B 2036   6.088   7.471   6.892
  226PNCE   D4B 2037   6.179   7.772   6.575
  226PNCE   C5B 2038   5.786   7.921   6.437
  226PNCE   C6B 2039   5.307   7.886   6.529
  227XCA    COO 2040   9.298  13.817   5.062
  227XCA     C1 2041   9.090  13.747   5.500
  227XCA     C2 2042   9.068  13.924   5.934
  227XCA     C3 2043   8.903  13.967   6.366
  227XCA     C4 2044   8.986  14.154   6.779
  227XCA     C5 2045   9.191  14.491   7.056
  227XCA     C6 2046   9.219  14.747   7.431
  228PNCE   AM1 2047  12.586  11.291   8.488
  228PNCE   AM2 2048  12.923  11.199   8.517
  228PNCE   T1A 2049  12.371  11.022   8.174
  228PNCE   C2A 2050  12.346  10.808   7.765
  228PNCE   C3A 2051  12.220  10.837   7.325
  228PNCE   C1B 2052  12.885  11.003   8.094
  228PNCE   C2B 2053  12.905  10.957   7.642
  228PNCE   C3B 2054  12.882  10.930   7.203
  228PNCE   D4B 2055  12.868  10.603   6.925
  228PNCE   C5B 2056  12.848  10.642   6.481
  228PNCE   C6B 2057  12.774  10.917   6.102
  229CHOL   ROH 2058   4.263  11.221   7.296
  229CHOL    R1 2059   4.263  11.170   7.017
  229CHOL    R2 2060   4.132  10.954   6.906
  229CHOL    R3 2061   4.013  11.145   6.753
  229CHOL    R4 2062   3.960  10.894   6.612
  229CHOL    R5 2063   4.051  11.074   6.528
  229CHOL    C1 2064   3.749  11.039   6.298
  229CHOL    C2 2065   3.617  10.942   5.906
  230XCA    COO 2066   4.242  14.765   8.616
  230XCA     C1 2067   4.585  14.821   8.331
  230XCA     C2 2068   4.759  15.186   8.114
  230XCA     C3 2069   4.988  15.262   7.746
  230XCA     C4 2070   5.214  15.395   7.399
  230XCA     C5 2071   5.532  15.392   7.083
  230XCA     C6 2072   5.777  15.381   6.681
  231CHOL   ROH 2073  14.429   0.634   5.123
  231CHOL    R1 2074  14.314   0.769   5.344
  231CHOL    R2 2075  14.044   0.821   5.362
  231CHOL    R3 2076  14.068   0.694   5.601
  231CHOL    R4 2077  13.820   0.848   5.624
  231CHOL    R5 2078  13.989   0.853   5.762
  231CHOL    C1 2079  13.713   0.745   6.001
  231CHOL    C2 2080  13.454   0.745   6.309
  232PNCE   AM1 2081  13.329   9.279   8.578
  232PNCE   AM2 2082  13.105   9.496   8.387
  232PNCE   T1A 2083  13.164   8.999   8.243
  232PNCE   C2A 2084  13.027   8.610   8.004
  232PNCE   C3A 2085  13.030   8.424   7.581
  232PNCE   C1B 2086  12.961   9.499   7.934
  232PNCE   C2B 2087  13.105   9.283   7.538
  232PNCE   C3B 2088  13.132   9.189   7.069
  232PNCE   D4B 2089  13.258   9.147   6.623
  232PNCE   C5B 2090  13.226   8.698   6.419
  232PNCE   C6B 2091  12.849   8.443   6.227
  233PNCE   AM1 2092  14.743   5.155   8.075
  233PNCE   AM2 2093  14.867   5.504   7.962
  233PNCE   T1A 2094  14.720   4.849   7.697
  233PNCE   C2A 2095  14.964   4.588   7.352
  233PNCE   C3A 2096  15.109   4.517   6.899
  233PNCE   C1B 2097  14.880   5.577   7.496
  233PNCE   C2B 2098  14.959   5.521   7.068
  233PNCE   C3B 2099  15.345   5.368   6.846
  233PNCE   D4B 2100  15.476   5.077   6.494
  233PNCE   C5B 2101  15.361   4.602   6.451
  233PNCE   C6B 2102  15.099   4.258   6.299
  234CHOL   ROH 2103   1.365   4.206   8.671
  234CHOL    R1 2104   1.427   4.231   8.396
  234CHOL    R2 2105   1.454   4.013   8.229
  234CHOL    R3 2106   1.268   4.144   8.080
  234CHOL    R4 2107   1.434   4.002   7.884
  234CHOL    R5 2108   1.387   4.215   7.885
  234CHOL    C1 2109   1.247   4.119   7.544
  234CHOL    C2 2110   1.534   4.148   7.261
  235PNCE   AM1 2111   8.016   2.827   8.822
  235PNCE   AM2 2112   7.676   2.933   8.847
  235PNCE   T1A 2113   7.853   2.871   8.353
  235PNCE   C2A 2114   7.879   2.935   7.877
  235PNCE   C3A 2115   7.988   2.749   7.469
  235PNCE   C1B 2116   7.499   3.195   8.529
  235PNCE   C2B 2117   7.691   3.419   8.195
  235PNCE   C3B 2118   7.812   3.518   7.778
  235PNCE   D4B 2119   7.668   3.372   7.397
  235PNCE   C5B 2120   7.507   2.960   7.458
  235PNCE   C6B 2121   7.469   2.549   7.582
  236XCA    COO 2122  10.014   3.781   8.415
  236XCA     C1 2123  10.445   3.678   8.535
  236XCA     C2 2124  10.828   3.413   8.605
  236XCA     C3 2125  11.133   3.254   8.319
  236XCA     C4 2126  11.242   3.019   7.934
  236XCA     C5 2127  11.360   2.936   7.523
  236XCA     C6 2128  11.294   2.599   7.228
  237CHOL   ROH 2129   3.591   3.477   8.427
  237CHOL    R1 2130   3.806   3.303   8.366
  237CHOL    R2 2131   3.917   3.286   8.114
  237CHOL    R3 2132   4.148   3.337   8.247
  237CHOL    R4 2133   4.230   3.179   8.014
  237CHOL    R5 2134   4.276   3.136   8.223
  237CHOL    C1 2135   4.630   3.165   8.082
  237CHOL    C2 2136   4.802   3.048   7.739
  238CHOL   ROH 2137   5.705  13.185   8.074
  238CHOL    R1 2138   5.725  13.434   7.939
  238CHOL    R2 2139   5.815  13.455   7.679
  238CHOL    R3 2140   5.579  13.586   7.642
  238CHOL    R4 2141   5.753  13.683   7.427
  238CHOL    R5 2142   5.643  13.805   7.570
  238CHOL    C1 2143   5.495  13.938   7.245
  238CHOL    C2 2144   5.499  14.146   6.919
  239CHOL   ROH 2145   9.946   1.326   8.814
  239CHOL    R1 2146   9.866   1.197   8.576
  239CHOL    R2 2147   9.903   1.310   8.326
  239CHOL    R3 2148  10.029   1.075   8.274
  239CHOL    R4 2149   9.917   1.159   8.016
  239CHOL    R5 2150   9.887   0.966   8.114
  239CHOL    C1 2151  10.043   0.850   7.786
  239CHOL    C2 2152  10.147   0.488   7.624
  240XCA    COO 2153   9.948   6.862   4.448
  240XCA     C1 2154   9.941   7.104   4.842
  240XCA     C2 2155  10.118   7.301   5.223
  240XCA     C3 2156  10.108   7.396   5.669
  240XCA     C4 2157   9.804   7.432   6.012
  240XCA     C5 2158   9.783   7.248   6.430
  240XCA     C6 2159   9.571   7.300   6.821
  241PNCE   AM1 2160   8.552   1.715   8.966
  241PNCE   AM2 2161   8.745   1.593   9.196
  241PNCE   T1A 2162   8.473   1.471   8.573
  241PNCE   C2A 2163   8.248   1.397   8.180
  241PNCE   C3A 2164   8.041   1.262   7.801
  241PNCE   C1B 2165   8.754   1.219   8.939
  241PNCE   C2B 2166   8.518   0.925   8.707
  241PNCE   C3B 2167   8.572   0.607   8.396
  241PNCE   D4B 2168   8.455   0.227   8.234
  241PNCE   C5B 2169   8.447   0.085   7.801
  241PNCE   C6B 2170   8.320  15.496   7.704
  242CHOL   ROH 2171  15.531  13.679   6.997
  242CHOL    R1 2172  15.713  13.851   7.128
  242CHOL    R2 2173  15.718  13.881   7.403
  242CHOL    R3 2174   0.151  13.815   7.373
  242CHOL    R4 2175   0.135  13.939   7.639
  242CHOL    R5 2176   0.269  13.996   7.477
  242CHOL    C1 2177   0.524  13.912   7.748
  242CHOL    C2 2178   0.448  13.880   8.124
  243XCA    COO 2179  13.262  15.011   9.096
  243XCA     C1 2180  13.403  14.888   8.649
  243XCA     C2 2181  13.311  14.873   8.204
  243XCA     C3 2182  13.127  14.621   7.875
  243XCA     C4 2183  12.866  14.486   7.569
  243XCA     C5 2184  12.493  14.548   7.365
  243XCA     C6 2185  12.031  14.454   7.422
  244PNCE   AM1 2186   9.286  13.106   9.360
  244PNCE   AM2 2187   9.254  12.749   9.252
  244PNCE   T1A 2188   9.264  13.370   8.975
  244PNCE   C2A 2189   9.202  13.499   8.552
  244PNCE   C3A 2190   8.910  13.302   8.252
  244PNCE   C1B 2191   8.983  12.571   8.898
  244PNCE   C2B 2192   8.973  12.358   8.470
  244PNCE   C3B 2193   9.226  12.040   8.249
  244PNCE   D4B 2194   9.298  11.979   7.800
  244PNCE   C5B 2195   9.744  11.986   7.589
  244PNCE   C6B 2196  10.198  12.037   7.466
  245PNCE   AM1 2197   1.819  15.264   8.939
  245PNCE   AM2 2198   2.127  15.171   8.780
  245PNCE   T1A 2199   1.426  15.454   8.720
  245PNCE   C2A 2200   1.068  15.545   8.417
  245PNCE   C3A 2201   1.061  15.602   7.954
  245PNCE   C1B 2202   2.316  15.232   8.362
  245PNCE   C2B 2203   2.319  15.264   7.920
  245PNCE   C3B 2204   2.076  15.220   7.534
  245PNCE   D4B 2205   1.931  14.916   7.193
  245PNCE   C5B 2206   1.574  14.999   6.896
  245PNCE   C6B 2207   1.353  15.261   6.585
  246CHOL   ROH 2208   6.399  10.788   4.571
  246CHOL    R1 2209   6.285  10.809   4.829
  246CHOL    R2 2210   6.313  10.612   5.021
  246CHOL    R3 2211   6.406  10.818   5.172
  246CHOL    R4 2212   6.311  10.620   5.366
  246CHOL    R5 2213   6.254  10.830   5.357
  246CHOL    C1 2214   6.398  10.817   5.710
  246CHOL    C2 2215   6.452  11.031   6.056
  247XCA    COO 2216   2.202  12.861   4.525
  247XCA     C1 2217   2.097  12.629   4.889
  247XCA     C2 2218   1.935  12.452   5.243
  247XCA     C3 2219   2.040  12.448   5.614
  247XCA     C4 2220   2.144  12.536   5.999
  247XCA     C5 2221   2.311  12.786   6.299
  247XCA     C6 2222   2.448  12.783   6.696
  248CHOL   ROH 2223   8.453  14.233   5.264
  248CHOL    R1 2224   8.494  14.163   5.535
  248CHOL    R2 2225   8.721  14.234   5.675
  248CHOL    R3 2226   8.541  14.339   5.850
  248CHOL    R4 2227   8.785  14.303   6.007
  248CHOL    R5 2228   8.587  14.227   6.056
  248CHOL    C1 2229   8.654  14.440   6.365
  248CHOL    C2 2230   8.847  14.641   6.683
  249XCA    COO 2231  14.149   8.175   3.567
  249XCA     C1 2232  13.967   8.181   4.008
  249XCA     C2 2233  13.711   7.937   4.325
  249XCA     C3 2234  13.338   7.990   4.558
  249XCA     C4 2235  13.226   7.955   4.980
  249XCA     C5 2236  13.056   7.923   5.368
  249XCA     C6 2237  12.964   8.221   5.700
  250CHOL   ROH 2238  10.594   4.531   6.386
  250CHOL    R1 2239  10.788   4.327   6.413
  250CHOL    R2 2240  10.730   4.080   6.522
  250CHOL    R3 2241  10.834   3.988   6.289
  250CHOL    R4 2242  10.886   3.775   6.483
  250CHOL    R5 2243  11.033   3.872   6.355
  250CHOL    C1 2244  11.076   3.510   6.242
  250CHOL    C2 2245  11.319   3.353   6.494
  251XCA    COO 2246   4.427   1.623   9.344
  251XCA     C1 2247   4.612   1.793   8.947
  251XCA     C2 2248   4.860   1.826   8.549
  251XCA     C3 2249   5.162   2.034   8.241
  251XCA     C4 2250   5.516   1.785   8.054
  251XCA     C5 2251   5.654   1.595   7.656
  251XCA     C6 2252   5.841   1.410   7.283
  252XCA    COO 2253  10.090   8.534   8.702
  252XCA     C1 2254  10.146   8.952   8.462
  252XCA     C2 2255   9.845   9.214   8.218
  252XCA     C3 2256   9.810   9.268   7.772
  252XCA     C4 2257   9.743   9.219   7.324
  252XCA     C5 2258   9.612   9.308   6.886
  252XCA     C6 2259   9.529   9.251   6.463
  253PNCE   AM1 2260   9.619   7.567   8.189
  253PNCE   AM2 2261   9.948   7.470   8.264
  253PNCE   T1A 2262   9.550   7.126   8.018
  253PNCE   C2A 2263   9.331   6.799   7.747
  253PNCE   C3A 2264   8.955   6.596   7.628
  253PNCE   C1B 2265  10.087   7.420   7.829
  253PNCE   C2B 2266  10.465   7.329   7.575
  253PNCE   C3B 2267  10.574   7.598   7.265
  253PNCE   D4B 2268  10.425   7.722   6.920
  253PNCE   C5B 2269  10.697   7.566   6.582
  253PNCE   C6B 2270  10.828   7.466   6.150
  254XCA    COO 2271   2.647   0.240   4.619
  254XCA     C1 2272   2.463   0.476   4.989
  254XCA     C2 2273   2.465   0.574   5.431
  254XCA     C3 2274   2.526   0.742   5.823
  254XCA     C4 2275   2.871   0.938   6.002
  254XCA     C5 2276   3.236   1.021   6.264
  254XCA     C6 2277   3.659   1.077   6.508
  255CHOL   ROH 2278  13.870   6.705   7.751
  255CHOL    R1 2279  13.897   6.780   7.479
  255CHOL    R2 2280  14.086   6.667   7.312
  255CHOL    R3 2281  13.869   6.616   7.155
  255CHOL    R4 2282  14.096   6.620   6.970
  255CHOL    R5 2283  13.913   6.737   6.953
  255CHOL    C1 2284  13.900   6.545   6.623
  255CHOL    C2 2285  13.614   6.384   6.342
  256PNCE   AM1 2286   2.016  12.660   8.373
  256PNCE   AM2 2287   2.270  12.940   8.339
  256PNCE   T1A 2288   1.946  12.528   7.908
  256PNCE   C2A 2289   1.679  12.437   7.551
  256PNCE   C3A 2290   1.664  12.351   7.103
  256PNCE   C1B 2291   2.287  13.034   7.857
  256PNCE   C2B 2292   2.379  12.961   7.399
  256PNCE   C3B 2293   2.523  12.620   7.154
  256PNCE   D4B 2294   2.388  12.242   6.901
  256PNCE   C5B 2295   2.481  11.802   7.009
  256PNCE   C6B 2296   2.798  11.499   7.198
  257PNCE   AM1 2297  12.347  14.324   9.562
  257PNCE   AM2 2298  12.195  14.551   9.805
  257PNCE   T1A 2299  11.929  14.284   9.407
  257PNCE   C2A 2300  11.641  14.549   9.190
  257PNCE   C3A 2301  11.427  14.925   9.067
  257PNCE   C1B 2302  12.159  14.759   9.391
  257PNCE   C2B 2303  12.067  15.028   9.061
  257PNCE   C3B 2304  12.067  15.146   8.639
  257PNCE   D4B 2305  11.846  15.476   8.416
  257PNCE   C5B 2306  11.457  15.697   8.566
  257PNCE   C6B 2307  11.041   0.069   8.662
  258PNCE   AM1 2308   5.037  15.341   8.809
  258PNCE   AM2 2309   5.361  15.313   8.951
  258PNCE   T1A 2310   5.108  15.049   8.451
  258PNCE   C2A 2311   5.344  15.047   8.074
  258PNCE   C3A 2312   5.797  15.012   7.972
  258PNCE   C1B 2313   5.522  15.358   8.500
  258PNCE   C2B 2314   5.533  15.779   8.376
  258PNCE   C3B 2315   5.639   0.322   8.163
  258PNCE   D4B 2316   5.971   0.577   8.090
  258PNCE   C5B 2317   5.980   0.715   7.663
  258PNCE   C6B 2318   6.062   0.948   7.293
  259CHOL   ROH 2319  13.053   5.982   7.902
  259CHOL    R1 2320  13.068   5.830   7.664
  259CHOL    R2 2321  12.909   5.883   7.444
  259CHOL    R3 2322  13.148   5.894   7.314
  259CHOL    R4 2323  12.955   5.822   7.107
  259CHOL    R5 2324  13.138   5.715   7.156
  259CHOL    C1 2325  13.205   5.796   6.789
  259CHOL    C2 2326  13.318   5.949   6.462
  260XCA    COO 2327  10.085   8.607   4.237
  260XCA     C1 2328  10.137   8.655   4.713
  260XCA     C2 2329  10.119   8.787   5.162
  260XCA     C3 2330  10.019   8.845   5.596
  260XCA     C4 2331   9.715   8.975   5.933
  260XCA     C5 2332   9.412   8.831   6.212
  260XCA     C6 2333   9.231   8.542   6.546
  261PNCE   AM1 2334   5.145  10.523   7.355
  261PNCE   AM2 2335   5.025  10.836   7.334
  261PNCE   T1A 2336   5.317  10.569   6.936
  261PNCE   C2A 2337   5.264  10.382   6.558
  261PNCE   C3A 2338   5.448  10.306   6.209
  261PNCE   C1B 2339   5.239  11.083   7.037
  261PNCE   C2B 2340   5.185  11.507   6.897
  261PNCE   C3B 2341   5.341  11.827   6.628
  261PNCE   D4B 2342   5.479  11.961   6.229
  261PNCE   C5B 2343   5.335  11.693   5.877
  261PNCE   C6B 2344   5.349  11.778   5.435
  262CHOL   ROH 2345   5.489   4.466   7.490
  262CHOL    R1 2346   5.386   4.398   7.235
  262CHOL    R2 2347   5.246   4.164   7.189
  262CHOL    R3 2348   5.058   4.334   7.091
  262CHOL    R4 2349   4.996   4.076   6.967
  262CHOL    R5 2350   5.028   4.265   6.864
  262CHOL    C1 2351   4.674   4.185   6.746
  262CHOL    C2 2352   4.300   4.182   6.840
  263PNCE   AM1 2353  13.975   0.727   7.294
  263PNCE   AM2 2354  13.908   0.695   6.944
  263PNCE   T1A 2355  14.441   0.816   7.160
  263PNCE   C2A 2356  14.924   0.774   7.205
  263PNCE   C3A 2357  15.344   0.559   7.272
  263PNCE   C1B 2358  14.223   0.352   6.987
  263PNCE   C2B 2359  14.435  15.783   7.112
  263PNCE   C3B 2360  14.852  15.582   7.051
  263PNCE   D4B 2361  15.278  15.463   7.019
  263PNCE   C5B 2362  15.550  15.453   6.632
  263PNCE   C6B 2363  15.809  15.466   6.230
  264CHOL   ROH 2364   7.700  12.079   8.858
  264CHOL    R1 2365   7.681  12.189   8.598
  264CHOL    R2 2366   7.742  12.452   8.543
  264CHOL    R3 2367   7.908  12.341   8.358
  264CHOL    R4 2368   7.849  12.608   8.253
  264CHOL    R5 2369   7.824  12.419   8.148
  264CHOL    C1 2370   8.066  12.595   7.911
  264CHOL    C2 2371   8.236  12.928   7.673
  265XCA    COO 2372   0.906   3.183   9.087
  265XCA     C1 2373   0.963   3.197   8.603
  265XCA     C2 2374   1.005   3.062   8.154
  265XCA     C3 2375   0.978   2.710   7.859
  265XCA     C4 2376   1.191   2.463   7.477
  265XCA     C5 2377   1.199   2.398   7.013
  265XCA     C6 2378   0.930   2.373   6.643
  266PNCE   AM1 2379  14.070   3.212   8.260
  266PNCE   AM2 2380  13.910   2.927   8.384
  266PNCE   T1A 2381  13.666   3.430   8.120
  266PNCE   C2A 2382  13.279   3.498   7.829
  266PNCE   C3A 2383  13.058   3.638   7.412
  266PNCE   C1B 2384  13.660   2.948   7.982
  266PNCE   C2B 2385  13.268   2.961   7.717
  266PNCE   C3B 2386  13.070   2.903   7.310
  266PNCE   D4B 2387  12.903   3.228   7.068
  266PNCE   C5B 2388  12.653   3.196   6.666
  266PNCE   C6B 2389  12.389   3.310   6.300
  267PNCE   AM1 2390   7.575   7.612   8.194
  267PNCE   AM2 2391   7.340   7.504   8.469
  267PNCE   T1A 2392   7.831   7.860   7.925
  267PNCE   C2A 2393   7.767   8.068   7.522
  267PNCE   C3A 2394   7.661   8.053   7.087
  267PNCE   C1B 2395   7.057   7.513   8.104
  267PNCE   C2B 2396   6.931   7.741   7.718
  267PNCE   C3B 2397   6.674   7.852   7.371
  267PNCE   D4B 2398   6.535   7.806   6.948
  267PNCE   C5B 2399   6.774   7.936   6.562
  267PNCE   C6B 2400   6.482   7.944   6.183
  268CHOL   ROH 2401   4.604  11.735   5.027
  268CHOL    R1 2402   4.675  11.989   5.130
  268CHOL    R2 2403   4.667  12.048   5.399
  268CHOL    R3 2404   4.925  12.121   5.358
  268CHOL    R4 2405   4.839  12.279   5.590
  268CHOL    R5 2406   4.929  12.356   5.407
  268CHOL    C1 2407   5.182  12.482   5.664
  268CHOL    C2 2408   5.371  12.530   6.042
  269XCA    COO 2409   8.416   3.469   8.831
  269XCA     C1 2410   8.684   3.428   8.457
  269XCA     C2 2411   8.742   3.129   8.117
  269XCA     C3 2412   9.099   3.010   7.882
  269XCA     C4 2413   9.491   3.207   7.832
  269XCA     C5 2414   9.891   3.274   7.660
  269XCA     C6 2415  10.062   3.513   7.297
  270CHOL   ROH 2416   1.033   0.264   8.701
  270CHOL    R1 2417   0.884   0.142   8.494
  270CHOL    R2 2418   0.700   0.280   8.341
  270CHOL    R3 2419   0.847   0.184   8.134
  270CHOL    R4 2420   0.588   0.252   8.015
  270CHOL    R5 2421   0.691   0.060   8.002
  270CHOL    C1 2422   0.661   0.144   7.631
  270CHOL    C2 2423   0.799  15.811   7.267
  271XCA    COO 2424   4.057  11.015   7.777
  271XCA     C1 2425   3.993  10.833   7.342
  271XCA     C2 2426   3.737  10.701   6.994
  271XCA     C3 2427   3.638  10.522   6.610
  271XCA     C4 2428   3.327  10.192   6.482
  271XCA     C5 2429   3.175   9.775   6.298
  271XCA     C6 2430   3.268   9.549   5.904
  272PNCE   AM1 2431   5.780   3.213   8.963
  272PNCE   AM2 2432   5.805   2.884   9.057
  272PNCE   T1A 2433   5.670   3.123   8.495
  272PNCE   C2A 2434   5.842   3.076   8.041
  272PNCE   C3A 2435   6.024   3.013   7.575
  272PNCE   C1B 2436   6.150   2.982   8.697
  272PNCE   C2B 2437   6.401   2.715   8.423
  272PNCE   C3B 2438   6.507   2.378   8.139
  272PNCE   D4B 2439   6.273   2.132   7.913
  272PNCE   C5B 2440   6.216   2.264   7.468
  272PNCE   C6B 2441   6.199   2.655   7.195
  273CHOL   ROH 2442  10.724  12.416   5.585
  273CHOL    R1 2443  10.805  12.328   5.841
  273CHOL    R2 2444  10.958  12.484   6.011
  273CHOL    R3 2445  10.755  12.436   6.186
  273CHOL    R4 2446  10.977  12.530   6.353
  273CHOL    R5 2447  10.864  12.346   6.379
  273CHOL    C1 2448  10.797  12.512   6.716
  273CHOL    C2 2449  10.794  12.762   7.028
  274CHOL   ROH 2450   4.926  10.125   3.973
  274CHOL    R1 2451   4.928  10.144   4.255
  274CHOL    R2 2452   4.745  10.296   4.395
  274CHOL    R3 2453   4.700  10.063   4.527
  274CHOL    R4 2454   4.615  10.271   4.715
  274CHOL    R5 2455   4.757  10.111   4.754
  274CHOL    C1 2456   4.498  10.038   5.024
  274CHOL    C2 2457   4.330  10.231   5.350
  275CHOL   ROH 2458   5.519   8.468   5.795
  275CHOL    R1 2459   5.758   8.619   5.788
  275CHOL    R2 2460   5.882   8.714   6.015
  275CHOL    R3 2461   6.098   8.585   5.913
  275CHOL    R4 2462   6.211   8.799   6.077
  275CHOL    R5 2463   6.256   8.758   5.868
  275CHOL    C1 2464   6.606   8.727   6.017
  275CHOL    C2 2465   6.954   8.837   5.830
  276PNCE   AM1 2466   9.099   3.739   8.550
  276PNCE   AM2 2467   9.449   3.823   8.453
  276PNCE   T1A 2468   8.797   3.931   8.227
  276PNCE   C2A 2469   8.379   4.000   8.101
  276PNCE   C3A 2470   7.988   3.830   8.151
  276PNCE   C1B 2471   9.659   3.684   8.038
  276PNCE   C2B 2472   9.781   3.791   7.605
  276PNCE   C3B 2473   9.802   3.955   7.168
  276PNCE   D4B 2474   9.708   4.380   7.056
  276PNCE   C5B 2475   9.963   4.786   7.197
  276PNCE   C6B 2476   9.938   4.988   7.593
  277PNCE   AM1 2477  10.361   1.594   8.876
  277PNCE   AM2 2478  10.086   1.769   8.888
  277PNCE   T1A 2479  10.358   1.539   8.477
  277PNCE   C2A 2480  10.326   1.434   8.092
  277PNCE   C3A 2481  10.431   1.059   7.961
  277PNCE   C1B 2482   9.908   1.783   8.459
  277PNCE   C2B 2483   9.868   1.687   8.034
  277PNCE   C3B 2484   9.858   1.844   7.630
  277PNCE   D4B 2485   9.561   1.755   7.347
  277PNCE   C5B 2486   9.149   1.953   7.255
  277PNCE   C6B 2487   8.732   1.786   7.312
  278PNCE   AM1 2488   2.558  11.170   8.367
  278PNCE   AM2 2489   2.229  11.236   8.504
  278PNCE   T1A 2490   2.514  11.345   7.899
  278PNCE   C2A 2491   2.446  11.184   7.486
  278PNCE   C3A 2492   2.185  11.139   7.135
  278PNCE   C1B 2493   2.163  11.552   8.193
  278PNCE   C2B 2494   2.011  11.465   7.793
  278PNCE   C3B 2495   1.893  11.490   7.374
  278PNCE   D4B 2496   1.548  11.602   7.129
  278PNCE   C5B 2497   1.235  11.305   7.267
  278PNCE   C6B 2498   1.203  11.082   7.658
  279CHOL   ROH 2499   0.537   7.341   7.646
  279CHOL    R1 2500   0.539   7.554   7.461
  279CHOL    R2 2501   0.548   7.514   7.188
  279CHOL    R3 2502   0.327   7.672   7.190
  279CHOL    R4 2503   0.406   7.658   6.908
  279CHOL    R5 2504   0.371   7.839   7.024
  279CHOL    C1 2505   0.115   7.890   6.746
  279CHOL    C2 2506  15.798   7.654   6.413
  280PNCE   AM1 2507   3.871   2.117   8.837
  280PNCE   AM2 2508   4.104   1.953   9.031
  280PNCE   T1A 2509   3.840   2.265   8.393
  280PNCE   C2A 2510   3.688   2.407   7.975
  280PNCE   C3A 2511   3.747   2.332   7.526
  280PNCE   C1B 2512   4.295   2.031   8.562
  280PNCE   C2B 2513   4.576   2.042   8.175
  280PNCE   C3B 2514   4.834   1.707   8.023
  280PNCE   D4B 2515   5.177   1.481   8.240
  280PNCE   C5B 2516   5.408   1.718   8.570
  280PNCE   C6B 2517   5.580   1.515   8.942
  281XCA    COO 2518   4.863   2.863   5.402
  281XCA     C1 2519   4.914   3.067   5.824
  281XCA     C2 2520   4.983   3.276   6.256
  281XCA     C3 2521   5.265   3.550   6.511
  281XCA     C4 2522   5.593   3.878   6.361
  281XCA     C5 2523   5.812   4.263   6.344
  281XCA     C6 2524   6.048   4.543   6.550
  282CHOL   ROH 2525   9.970   5.584   5.715
  282CHOL    R1 2526  10.136   5.369   5.793
  282CHOL    R2 2527  10.183   5.306   6.057
  282CHOL    R3 2528  10.099   5.059   5.980
  282CHOL    R4 2529  10.235   5.014   6.236
  282CHOL    R5 2530  10.275   4.912   6.048
  282CHOL    C1 2531  10.185   4.613   6.268
  282CHOL    C2 2532  10.304   4.197   6.320
  283CHOL   ROH 2533   6.790   7.943   4.585
  283CHOL    R1 2534   6.631   7.926   4.819
  283CHOL    R2 2535   6.436   7.734   4.852
  283CHOL    R3 2536   6.573   7.680   5.081
  283CHOL    R4 2537   6.303   7.577   5.130
  283CHOL    R5 2538   6.414   7.717   5.256
  283CHOL    C1 2539   6.355   7.435   5.507
  283CHOL    C2 2540   6.105   7.180   5.601
  284CHOL   ROH 2541   6.317   0.370   8.394
  284CHOL    R1 2542   6.428   0.342   8.135
  284CHOL    R2 2543   6.284   0.243   7.922
  284CHOL    R3 2544   6.361   0.475   7.803
  284CHOL    R4 2545   6.297   0.296   7.580
  284CHOL    R5 2546   6.483   0.405   7.609
  284CHOL    C1 2547   6.376   0.545   7.270
  284CHOL    C2 2548   6.598   0.321   6.989
  285PNCE   AM1 2549   1.737  13.904   8.781
  285PNCE   AM2 2550   1.353  13.916   8.733
  285PNCE   T1A 2551   1.690  13.903   8.311
  285PNCE   C2A 2552   1.464  13.626   8.029
  285PNCE   C3A 2553   1.250  13.228   8.049
  285PNCE   C1B 2554   1.196  14.150   8.348
  285PNCE   C2B 2555   1.416  14.278   7.967
  285PNCE   C3B 2556   1.377  14.098   7.555
  285PNCE   D4B 2557   1.479  14.051   7.126
  285PNCE   C5B 2558   1.099  13.945   6.890
  285PNCE   C6B 2559   0.664  13.903   6.731
  286CHOL   ROH 2560  15.674   3.302   4.371
  286CHOL    R1 2561  15.703   3.329   4.651
  286CHOL    R2 2562  15.670   3.571   4.781
  286CHOL    R3 2563  15.492   3.430   4.930
  286CHOL    R4 2564  15.561   3.662   5.096
  286CHOL    R5 2565  15.572   3.452   5.155
  286CHOL    C1 2566  15.330   3.582   5.419
  286CHOL    C2 2567  15.628   3.608   5.617
  287PNCE   AM1 2568   4.532  12.861   8.132
  287PNCE   AM2 2569   4.186  12.800   8.101
  287PNCE   T1A 2570   4.801  12.825   7.738
  287PNCE   C2A 2571   5.107  12.791   7.407
  287PNCE   C3A 2572   5.435  12.530   7.231
  287PNCE   C1B 2573   4.381  12.526   7.753
  287PNCE   C2B 2574   4.784  12.339   7.546
  287PNCE   C3B 2575   5.225  12.340   7.659
  287PNCE   D4B 2576   5.544  12.030   7.581
  287PNCE   C5B 2577   5.757  12.128   7.225
  287PNCE   C6B 2578   6.082  12.146   6.934
  288XCA    COO 2579  10.130  12.231   8.947
  288XCA     C1 2580   9.885  12.502   8.658
  288XCA     C2 2581   9.956  12.564   8.210
  288XCA     C3 2582   9.860  12.896   7.959
  288XCA     C4 2583   9.685  13.220   7.757
  288XCA     C5 2584   9.528  13.549   7.530
  288XCA     C6 2585   9.421  13.630   7.124
  289CHOL   ROH 2586   4.879   9.338   5.753
  289CHOL    R1 2587   5.125   9.420   5.639
  289CHOL    R2 2588   5.141   9.602   5.433
  289CHOL    R3 2589   5.310   9.731   5.602
  289CHOL    R4 2590   5.377   9.835   5.337
  289CHOL    R5 2591   5.515   9.748   5.481
  289CHOL    C1 2592   5.673  10.093   5.440
  289CHOL    C2 2593   5.791  10.506   5.331
  290PNCE   AM1 2594  10.571   6.530   8.167
  290PNCE   AM2 2595  10.754   6.245   8.168
  290PNCE   T1A 2596  10.630   6.396   7.698
  290PNCE   C2A 2597  10.525   6.380   7.248
  290PNCE   C3A 2598  10.436   6.200   6.837
  290PNCE   C1B 2599  10.899   5.885   7.924
  290PNCE   C2B 2600  11.098   5.753   7.527
  290PNCE   C3B 2601  11.244   5.819   7.097
  290PNCE   D4B 2602  11.350   6.125   6.772
  290PNCE   C5B 2603  11.255   5.927   6.403
  290PNCE   C6B 2604  10.858   5.773   6.231
  291XCA    COO 2605  10.261   4.708   8.532
  291XCA     C1 2606  10.162   4.531   8.167
  291XCA     C2 2607  10.202   4.568   7.760
  291XCA     C3 2608   9.877   4.367   7.530
  291XCA     C4 2609   9.452   4.191   7.473
  291XCA     C5 2610   9.226   4.163   7.099
  291XCA     C6 2611   8.910   4.060   6.797
  292CHOL   ROH 2612  10.122  13.754   8.825
  292CHOL    R1 2613  10.248  13.594   8.628
  292CHOL    R2 2614  10.121  13.379   8.509
  292CHOL    R3 2615  10.188  13.508   8.280
  292CHOL    R4 2616  10.127  13.234   8.195
  292CHOL    R5 2617  10.310  13.345   8.153
  292CHOL    C1 2618  10.194  13.271   7.797
  292CHOL    C2 2619  10.157  13.000   7.568
  293CHOL   ROH 2620   8.582   8.462   8.343
  293CHOL    R1 2621   8.467   8.543   8.097
  293CHOL    R2 2622   8.573   8.746   7.943
  293CHOL    R3 2623   8.571   8.556   7.748
  293CHOL    R4 2624   8.566   8.811   7.604
  293CHOL    R5 2625   8.426   8.645   7.580
  293CHOL    C1 2626   8.559   8.670   7.223
  293CHOL    C2 2627   8.637   8.477   6.876
  294PNCE   AM1 2628   8.761   2.226   8.855
  294PNCE   AM2 2629   9.003   1.994   9.002
  294PNCE   T1A 2630   8.537   2.194   8.442
  294PNCE   C2A 2631   8.489   2.184   8.008
  294PNCE   C3A 2632   8.384   2.036   7.595
  294PNCE   C1B 2633   9.110   1.576   8.841
  294PNCE   C2B 2634   9.008   1.308   8.482
  294PNCE   C3B 2635   8.668   1.101   8.252
  294PNCE   D4B 2636   8.518   1.015   7.831
  294PNCE   C5B 2637   8.612   0.608   7.691
  294PNCE   C6B 2638   8.380   0.384   7.328
  295CHOL   ROH 2639   2.208   3.082   8.367
  295CHOL    R1 2640   2.391   2.902   8.248
  295CHOL    R2 2641   2.320   2.730   8.044
  295CHOL    R3 2642   2.529   2.846   7.916
  295CHOL    R4 2643   2.492   2.590   7.779
  295CHOL    R5 2644   2.677   2.665   7.866
  295CHOL    C1 2645   2.789   2.617   7.504
  295CHOL    C2 2646   3.197   2.540   7.318
  296PNCE   AM1 2647   2.063   7.073   4.250
  296PNCE   AM2 2648   2.309   7.276   4.274
  296PNCE   T1A 2649   1.850   7.004   4.622
  296PNCE   C2A 2650   1.701   6.813   5.007
  296PNCE   C3A 2651   1.894   6.666   5.398
  296PNCE   C1B 2652   2.384   7.212   4.729
  296PNCE   C2B 2653   2.326   7.435   5.135
  296PNCE   C3B 2654   2.416   7.763   5.457
  296PNCE   D4B 2655   2.169   7.948   5.820
  296PNCE   C5B 2656   1.886   7.786   6.174
  296PNCE   C6B 2657   1.554   7.595   6.477
  297XCA    COO 2658   2.670   5.969   8.041
  297XCA     C1 2659   2.649   5.763   7.597
  297XCA     C2 2660   2.703   5.723   7.143
  297XCA     C3 2661   2.766   5.435   6.859
  297XCA     C4 2662   3.121   5.302   6.664
  297XCA     C5 2663   3.129   5.171   6.270
  297XCA     C6 2664   3.430   5.318   5.961
  298CHOL   ROH 2665   2.285   1.398   5.012
  298CHOL    R1 2666   2.266   1.375   5.293
  298CHOL    R2 2667   2.196   1.588   5.455
  298CHOL    R3 2668   2.006   1.416   5.545
  298CHOL    R4 2669   1.969   1.658   5.706
  298CHOL    R5 2670   1.997   1.456   5.781
  298CHOL    C1 2671   1.658   1.538   5.936
  298CHOL    C2 2672   1.262   1.474   6.014
  299PNCE   AM1 2673   0.599  15.722   9.263
  299PNCE   AM2 2674   0.337   0.007   9.495
  299PNCE   T1A 2675   0.589   0.198   8.878
  299PNCE   C2A 2676   0.700   0.606   8.672
  299PNCE   C3A 2677   0.614   1.051   8.743
  299PNCE   C1B 2678   0.604   0.385   9.365
  299PNCE   C2B 2679   0.886   0.653   9.146
  299PNCE   C3B 2680   1.190   0.707   8.828
  299PNCE   D4B 2681   1.514   0.580   8.541
  299PNCE   C5B 2682   1.602   0.855   8.191
  299PNCE   C6B 2683   1.522   1.273   7.963
  300XCA    COO 2684   6.101   8.019   8.489
  300XCA     C1 2685   6.210   8.134   8.093
  300XCA     C2 2686   6.380   8.047   7.740
  300XCA     C3 2687   6.425   8.292   7.379
  300XCA     C4 2688   6.808   8.337   7.133
  300XCA     C5 2689   6.999   8.447   6.714
  300XCA     C6 2690   6.971   8.787   6.365
  301CHOL   ROH 2691   1.140  15.013   6.076
  301CHOL    R1 2692   0.955  15.146   6.245
  301CHOL    R2 2693   0.791  15.011   6.421
  301CHOL    R3 2694   0.901  15.181   6.603
  301CHOL    R4 2695   0.640  15.111   6.716
  301CHOL    R5 2696   0.717  15.312   6.681
  301CHOL    C1 2697   0.655  15.330   7.057
  301CHOL    C2 2698   0.409  15.501   7.339
  302CHOL   ROH 2699   8.429  11.841   5.078
  302CHOL    R1 2700   8.525  11.864   5.343
  302CHOL    R2 2701   8.386  11.767   5.561
  302CHOL    R3 2702   8.619  11.637   5.611
  302CHOL    R4 2703   8.490  11.660   5.873
  302CHOL    R5 2704   8.692  11.724   5.822
  302CHOL    C1 2705   8.769  11.477   6.102
  302CHOL    C2 2706   9.040  11.359   6.340
  303XCA    COO 2707   5.458   4.499   8.394
  303XCA     C1 2708   5.328   4.406   7.950
  303XCA     C2 2709   5.048   4.376   7.589
  303XCA     C3 2710   4.846   4.657   7.375
  303XCA     C4 2711   4.733   5.008   7.208
  303XCA     C5 2712   4.502   5.153   6.857
  303XCA     C6 2713   4.359   5.279   6.421
  304PNCE   AM1 2714   5.435   3.589   8.892
  304PNCE   AM2 2715   5.761   3.724   8.998
  304PNCE   T1A 2716   5.263   3.557   8.437
  304PNCE   C2A 2717   5.020   3.477   8.027
  304PNCE   C3A 2718   5.111   3.419   7.560
  304PNCE   C1B 2719   5.791   3.637   8.517
  304PNCE   C2B 2720   5.629   3.561   8.063
  304PNCE   C3B 2721   5.642   3.382   7.642
  304PNCE   D4B 2722   5.819   3.310   7.216
  304PNCE   C5B 2723   6.286   3.227   7.180
  304PNCE   C6B 2724   6.698   3.068   7.041
  305CHOL   ROH 2725   7.296  14.970   8.932
  305CHOL    R1 2726   7.390  14.822   8.710
  305CHOL    R2 2727   7.436  14.936   8.463
  305CHOL    R3 2728   7.683  14.826   8.493
  305CHOL    R4 2729   7.676  14.918   8.215
  305CHOL    R5 2730   7.726  14.718   8.284
  305CHOL    C1 2731   8.048  14.805   8.100
  305CHOL    C2 2732   8.294  14.979   7.813
  306CHOL   ROH 2733   9.131  10.781   5.020
  306CHOL    R1 2734   9.212  10.780   5.291
  306CHOL    R2 2735   9.039  10.837   5.498
  306CHOL    R3 2736   9.125  10.597   5.593
  306CHOL    R4 2737   8.984  10.720   5.819
  306CHOL    R5 2738   9.187  10.642   5.820
  306CHOL    C1 2739   9.033  10.426   6.094
  306CHOL    C2 2740   8.862  10.571   6.427
  307CHOL   ROH 2741  12.255   5.261   8.411
  307CHOL    R1 2742  12.211   5.063   8.213
  307CHOL    R2 2743  11.996   5.071   8.041
  307CHOL    R3 2744  12.189   5.054   7.850
  307CHOL    R4 2745  11.944   4.961   7.717
  307CHOL    R5 2746  12.134   4.855   7.728
  307CHOL    C1 2747  12.095   4.881   7.350
  307CHOL    C2 2748  12.101   4.606   7.011
  308XCA    COO 2749   1.439   6.734   8.315
  308XCA     C1 2750   1.491   6.449   7.964
  308XCA     C2 2751   1.350   6.420   7.513
  308XCA     C3 2752   1.498   6.467   7.077
  308XCA     C4 2753   1.511   6.798   6.735
  308XCA     C5 2754   1.278   7.140   6.499
  308XCA     C6 2755   1.001   7.500   6.401
  309CHOL   ROH 2756  14.801  13.652   6.731
  309CHOL    R1 2757  14.565  13.503   6.683
  309CHOL    R2 2758  14.508  13.389   6.437
  309CHOL    R3 2759  14.483  13.162   6.584
  309CHOL    R4 2760  14.307  13.121   6.354
  309CHOL    R5 2761  14.252  13.103   6.563
  309CHOL    C1 2762  14.166  12.751   6.442
  309CHOL    C2 2763  13.915  12.630   6.740
  310CHOL   ROH 2764   2.315   2.014   5.309
  310CHOL    R1 2765   2.151   2.006   5.540
  310CHOL    R2 2766   2.187   2.177   5.753
  310CHOL    R3 2767   1.925   2.234   5.711
  310CHOL    R4 2768   1.964   2.278   5.998
  310CHOL    R5 2769   1.813   2.151   5.906
  310CHOL    C1 2770   1.589   2.390   6.100
  310CHOL    C2 2771   1.419   2.394   6.467
  311XCA    COO 2772   0.839  13.861   8.911
  311XCA     C1 2773   0.730  14.046   8.517
  311XCA     C2 2774   0.677  14.347   8.202
  311XCA     C3 2775   0.465  14.412   7.815
  311XCA     C4 2776   0.467  14.495   7.375
  311XCA     C5 2777   0.329  14.650   6.950
  311XCA     C6 2778   0.507  14.653   6.532
  312PNCE   AM1 2779   6.882   2.129   8.754
  312PNCE   AM2 2780   6.689   2.332   8.617
  312PNCE   T1A 2781   6.925   1.741   8.555
  312PNCE   C2A 2782   6.721   1.436   8.278
  312PNCE   C3A 2783   6.743   1.021   8.164
  312PNCE   C1B 2784   7.009   2.302   8.289
  312PNCE   C2B 2785   7.082   2.253   7.862
  312PNCE   C3B 2786   7.086   2.251   7.415
  312PNCE   D4B 2787   7.377   2.333   7.101
  312PNCE   C5B 2788   7.624   2.700   7.032
  312PNCE   C6B 2789   7.763   3.122   6.959
  313PNCE   AM1 2790   8.574  10.878   8.780
  313PNCE   AM2 2791   8.304  11.057   8.668
  313PNCE   T1A 2792   8.881  10.654   8.525
  313PNCE   C2A 2793   9.156  10.550   8.178
  313PNCE   C3A 2794   9.552  10.617   7.971
  313PNCE   C1B 2795   8.222  11.019   8.223
  313PNCE   C2B 2796   8.313  10.684   7.939
  313PNCE   C3B 2797   8.704  10.652   7.722
  313PNCE   D4B 2798   9.088  10.474   7.663
  313PNCE   C5B 2799   9.422  10.657   7.475
  313PNCE   C6B 2800   9.506  11.010   7.172
  314PNCE   AM1 2801   8.224  15.053   9.359
  314PNCE   AM2 2802   8.501  14.901   9.481
  314PNCE   T1A 2803   7.872  14.776   9.414
  314PNCE   C2A 2804   7.507  14.629   9.149
  314PNCE   C3A 2805   7.073  14.523   8.883
  314PNCE   C1B 2806   8.630  15.071   9.028
  314PNCE   C2B 2807   8.683  15.230   8.581
  314PNCE   C3B 2808   8.625  15.566   8.195
  314PNCE   D4B 2809   8.834  15.499   7.814
  314PNCE   C5B 2810   8.802  15.765   7.452
  314PNCE   C6B 2811   8.904   0.373   7.369
  315XCA    COO 2812  11.487  13.621   9.369
  315XCA     C1 2813  11.485  14.050   9.193
  315XCA     C2 2814  11.291  14.323   8.876
  315XCA     C3 2815  11.420  14.639   8.602
  315XCA     C4 2816  11.431  14.890   8.206
  315XCA     C5 2817  11.445  15.336   8.120
  315XCA     C6 2818  11.456  15.799   8.029
  316PNCE   AM1 2819   3.286   0.604   9.311
  316PNCE   AM2 2820   3.576   0.754   9.195
  316PNCE   T1A 2821   3.202   0.555   8.838
  316PNCE   C2A 2822   2.838   0.649   8.568
  316PNCE   C3A 2823   2.420   0.788   8.686
  316PNCE   C1B 2824   3.356   1.046   8.889
  316PNCE   C2B 2825   3.191   1.005   8.478
  316PNCE   C3B 2826   3.046   0.932   8.047
  316PNCE   D4B 2827   3.162   0.986   7.592
  316PNCE   C5B 2828   2.842   1.047   7.272
  316PNCE   C6B 2829   2.517   0.947   6.997
  317XCA    COO 2830   9.141   3.595   8.043
  317XCA     C1 2831   9.291   3.628   7.608
  317XCA     C2 2832   9.499   3.532   7.225
  317XCA     C3 2833   9.772   3.491   6.894
  317XCA     C4 2834  10.184   3.643   6.803
  317XCA     C5 2835  10.400   3.725   6.435
  317XCA     C6 2836  10.499   3.840   5.967
  318PNCE   AM1 2837  10.247  13.297   9.020
  318PNCE   AM2 2838  10.567  13.425   8.973
  318PNCE   T1A 2839   9.919  12.994   8.961
  318PNCE   C2A 2840   9.499  12.920   8.860
  318PNCE   C3A 2841   9.109  12.979   8.623
  318PNCE   C1B 2842  10.583  13.255   8.539
  318PNCE   C2B 2843  10.676  12.847   8.375
  318PNCE   C3B 2844  10.885  12.669   8.048
  318PNCE   D4B 2845  11.202  12.802   7.810
  318PNCE   C5B 2846  11.212  13.235   7.720
  318PNCE   C6B 2847  11.193  13.598   7.394
  319PNCE   AM1 2848  11.257   2.352   8.548
  319PNCE   AM2 2849  10.907   2.338   8.432
  319PNCE   T1A 2850  11.359   2.795   8.461
  319PNCE   C2A 2851  11.635   3.098   8.240
  319PNCE   C3A 2852  11.717   3.198   7.818
  319PNCE   C1B 2853  11.155   2.515   8.064
  319PNCE   C2B 2854  11.217   2.342   7.649
  319PNCE   C3B 2855  10.977   2.038   7.363
  319PNCE   D4B 2856  10.917   1.599   7.163
  319PNCE   C5B 2857  10.538   1.344   7.156
  319PNCE   C6B 2858  10.349   1.007   7.432
  320CHOL   ROH 2859   8.224   2.551   8.490
  320CHOL    R1 2860   8.125   2.399   8.273
  320CHOL    R2 2861   7.931   2.493   8.101
  320CHOL    R3 2862   8.114   2.430   7.910
  320CHOL    R4 2863   7.855   2.386   7.781
  320CHOL    R5 2864   8.019   2.244   7.795
  320CHOL    C1 2865   7.983   2.266   7.416
  320CHOL    C2 2866   7.898   2.258   7.029
  321CHOL   ROH 2867   9.403  11.317   4.666
  321CHOL    R1 2868   9.445  11.347   4.944
  321CHOL    R2 2869   9.385  11.148   5.126
  321CHOL    R3 2870   9.644  11.183   5.201
  321CHOL    R4 2871   9.512  11.075   5.439
  321CHOL    R5 2872   9.631  11.257   5.428
  321CHOL    C1 2873   9.828  11.064   5.692
  321CHOL    C2 2874   9.755  10.960   6.082
  322CHOL   ROH 2875   3.677   1.530   5.063
  322CHOL    R1 2876   3.704   1.556   5.344
  322CHOL    R2 2877   3.807   1.783   5.463
  322CHOL    R3 2878   3.574   1.777   5.603
  322CHOL    R4 2879   3.765   1.906   5.783
  322CHOL    R5 2880   3.641   1.733   5.828
  322CHOL    C1 2881   3.522   1.971   6.101
  322CHOL    C2 2882   3.483   2.147   6.401
  323XCA    COO 2883   2.060   3.552   5.006
  323XCA     C1 2884   2.268   3.558   5.388
  323XCA     C2 2885   2.147   3.601   5.792
  323XCA     C3 2886   1.838   3.625   6.115
  323XCA     C4 2887   1.573   3.635   6.453
  323XCA     C5 2888   1.536   3.437   6.841
  323XCA     C6 2889   1.468   3.263   7.239
  324XCA    COO 2890  12.556   5.396   5.134
  324XCA     C1 2891  12.788   5.535   5.536
  324XCA     C2 2892  13.087   5.728   5.833
  324XCA     C3 2893  13.350   5.539   6.130
  324XCA     C4 2894  13.381   5.110   6.302
  324XCA     C5 2895  13.435   4.694   6.516
  324XCA     C6 2896  13.801   4.443   6.626
  325CHOL   ROH 2897   0.269   3.331   4.740
  325CHOL    R1 2898   0.176   3.113   4.893
  325CHOL    R2 2899   0.344   2.913   4.984
  325CHOL    R3 2900   0.238   2.978   5.226
  325CHOL    R4 2901   0.302   2.692   5.247
  325CHOL    R5 2902   0.109   2.785   5.288
  325CHOL    C1 2903   0.179   2.625   5.627
  325CHOL    C2 2904  15.595   2.625   5.736
  326PNCE   AM1 2905   5.628  10.930   8.276
  326PNCE   AM2 2906   5.528  11.283   8.386
  326PNCE   T1A 2907   6.083  10.788   8.240
  326PNCE   C2A 2908   6.446  10.670   8.479
  326PNCE   C3A 2909   6.630  10.726   8.916
  326PNCE   C1B 2910   5.918  11.443   8.167
  326PNCE   C2B 2911   6.237  11.517   7.817
  326PNCE   C3B 2912   6.501  11.575   7.427
  326PNCE   D4B 2913   6.839  11.623   7.067
  326PNCE   C5B 2914   6.717  11.503   6.694
  326PNCE   C6B 2915   6.436  11.182   6.574
  327PNCE   AM1 2916  11.689   1.155   8.585
  327PNCE   AM2 2917  11.336   1.101   8.582
  327PNCE   T1A 2918  12.020   1.379   8.420
  327PNCE   C2A 2919  12.235   1.546   8.060
  327PNCE   C3A 2920  12.245   1.944   7.830
  327PNCE   C1B 2921  11.432   0.893   8.153
  327PNCE   C2B 2922  11.496   0.937   7.695
  327PNCE   C3B 2923  11.306   0.687   7.354
  327PNCE   D4B 2924  11.278   0.226   7.262
  327PNCE   C5B 2925  11.581  15.784   7.505
  327PNCE   C6B 2926  11.713  15.379   7.694
  328CHOL   ROH 2927   7.099  15.339   8.848
  328CHOL    R1 2928   7.339  15.431   8.728
  328CHOL    R2 2929   7.569  15.279   8.722
  328CHOL    R3 2930   7.554  15.325   8.454
  328CHOL    R4 2931   7.825  15.221   8.496
  328CHOL    R5 2932   7.772  15.406   8.396
  328CHOL    C1 2933   7.959  15.230   8.114
  328CHOL    C2 2934   8.280  15.222   8.262
  329CHOL   ROH 2935  12.691   4.470   6.573
  329CHOL    R1 2936  12.417   4.536   6.607
  329CHOL    R2 2937  12.240   4.545   6.396
  329CHOL    R3 2938  12.097   4.372   6.549
  329CHOL    R4 2939  11.896   4.508   6.385
  329CHOL    R5 2940  11.896   4.491   6.602
  329CHOL    C1 2941  11.563   4.324   6.523
  329CHOL    C2 2942  11.190   4.234   6.637
  330PNCE   AM1 2943  10.057  11.715   8.680
  330PNCE   AM2 2944   9.780  11.486   8.715
  330PNCE   T1A 2945  10.143  12.097   8.423
  330PNCE   C2A 2946  10.445  12.378   8.235
  330PNCE   C3A 2947  10.543  12.361   7.795
  330PNCE   C1B 2948   9.550  11.612   8.314
  330PNCE   C2B 2949   9.573  11.541   7.897
  330PNCE   C3B 2950   9.476  11.504   7.495
  330PNCE   D4B 2951   9.731  11.480   7.154
  330PNCE   C5B 2952   9.973  11.830   7.076
  330PNCE   C6B 2953  10.402  11.874   6.986
  331PNCE   AM1 2954  14.814   1.209   8.692
  331PNCE   AM2 2955  14.821   1.196   8.304
  331PNCE   T1A 2956  15.284   1.207   8.592
  331PNCE   C2A 2957  15.656   1.357   8.340
  331PNCE   C3A 2958   0.142   1.677   8.244
  331PNCE   C1B 2959  14.865   1.357   7.851
  331PNCE   C2B 2960  15.039   1.248   7.420
  331PNCE   C3B 2961  15.326   1.058   7.051
  331PNCE   D4B 2962  15.740   1.169   6.883
  331PNCE   C5B 2963   0.152   0.941   6.596
  331PNCE   C6B 2964   0.357   1.215   6.381
  332PNCE   AM1 2965  13.243   5.139   8.113
  332PNCE   AM2 2966  13.027   4.913   7.927
  332PNCE   T1A 2967  13.376   5.159   7.652
  332PNCE   C2A 2968  13.419   5.223   7.203
  332PNCE   C3A 2969  13.241   5.281   6.781
  332PNCE   C1B 2970  12.907   4.858   7.474
  332PNCE   C2B 2971  13.001   4.880   7.026
  332PNCE   C3B 2972  12.969   4.897   6.566
  332PNCE   D4B 2973  13.041   4.645   6.166
  332PNCE   C5B 2974  13.435   4.711   5.944
  332PNCE   C6B 2975  13.526   4.748   5.486
  333PNCE   AM1 2976  10.756   1.884   8.621
  333PNCE   AM2 2977  11.103   1.868   8.692
  333PNCE   T1A 2978  10.731   1.767   8.186
  333PNCE   C2A 2979  10.806   1.673   7.742
  333PNCE   C3A 2980  10.748   1.278   7.607
  333PNCE   C1B 2981  10.928   1.420   8.732
  333PNCE   C2B 2982  10.863   0.959   8.811
  333PNCE   C3B 2983  10.707   0.530   8.809
  333PNCE   D4B 2984  10.569   0.253   8.481
  333PNCE   C5B 2985  10.897   0.242   8.180
  333PNCE   C6B 2986  11.207   0.435   7.890
  334PNCE   AM1 2987   8.722   9.285   8.616
  334PNCE   AM2 2988   8.936   9.457   8.414
  334PNCE   T1A 2989   8.894   8.901   8.414
  334PNCE   C2A 2990   9.051   8.758   8.039
  334PNCE   C3A 2991   9.038   8.461   7.729
  334PNCE   C1B 2992   8.693   9.227   8.086
  334PNCE   C2B 2993   8.451   9.254   7.682
  334PNCE   C3B 2994   8.553   9.160   7.261
  334PNCE   D4B 2995   8.821   8.967   6.947
  334PNCE   C5B 2996   9.261   8.856   6.958
  334PNCE   C6B 2997   9.648   8.792   6.782
  335PNCE   AM1 2998   1.663   1.842   9.116
  335PNCE   AM2 2999   1.520   2.177   9.128
  335PNCE   T1A 3000   1.706   1.736   8.681
  335PNCE   C2A 3001   1.729   1.850   8.253
  335PNCE   C3A 3002   1.837   2.274   8.021
  335PNCE   C1B 3003   1.160   2.270   8.873
  335PNCE   C2B 3004   0.790   2.102   8.732
  335PNCE   C3B 3005   0.558   1.962   8.382
  335PNCE   D4B 3006   0.699   1.774   8.002
  335PNCE   C5B 3007   0.595   1.917   7.585
  335PNCE   C6B 3008   0.270   1.790   7.301
  336CHOL   ROH 3009   4.415  15.342   5.003
  336CHOL    R1 3010   4.301  15.241   5.242
  336CHOL    R2 3011   4.169  14.999   5.252
  336CHOL    R3 3012   4.345  14.948   5.452
  336CHOL    R4 3013   4.118  14.772   5.508
  336CHOL    R5 3014   4.208  14.913   5.646
  336CHOL    C1 3015   4.254  14.591   5.844
  336CHOL    C2 3016   4.324  14.446   6.186
  337XCA    COO 3017   8.840   7.803   4.417
  337XCA     C1 3018   8.847   7.806   4.901
  337XCA     C2 3019   8.799   7.748   5.364
  337XCA     C3 3020   8.683   7.561   5.765
  337XCA     C4 3021   8.402   7.743   6.067
  337XCA     C5 3022   8.097   8.093   6.100
  337XCA     C6 3023   7.886   8.389   6.330
  338PNCE   AM1 3024  11.812  13.504   8.998
  338PNCE   AM2 3025  11.489  13.647   8.841
  338PNCE   T1A 3026  11.983  13.344   8.623
  338PNCE   C2A 3027  11.871  13.276   8.210
  338PNCE   C3A 3028  12.064  13.405   7.836
  338PNCE   C1B 3029  11.779  13.783   8.483
  338PNCE   C2B 3030  11.936  13.850   8.092
  338PNCE   C3B 3031  12.037  13.880   7.651
  338PNCE   D4B 3032  12.006  13.988   7.206
  338PNCE   C5B 3033  11.663  14.270   7.101
  338PNCE   C6B 3034  11.322  14.563   7.011
  339CHOL   ROH 3035   6.549   9.551   6.109
  339CHOL    R1 3036   6.363   9.500   6.317
  339CHOL    R2 3037   6.301   9.245   6.402
  339CHOL    R3 3038   6.370   9.344   6.645
  339CHOL    R4 3039   6.201   9.113   6.705
  339CHOL    R5 3040   6.174   9.315   6.779
  339CHOL    C1 3041   6.207   9.129   7.110
  339CHOL    C2 3042   5.907   8.906   7.050
  340PNCE   AM1 3043   6.246   9.044   8.668
  340PNCE   AM2 3044   6.213   8.693   8.725
  340PNCE   T1A 3045   6.196   8.853   8.239
  340PNCE   C2A 3046   6.067   8.585   7.859
  340PNCE   C3A 3047   5.905   8.261   7.591
  340PNCE   C1B 3048   6.464   8.467   8.391
  340PNCE   C2B 3049   6.552   8.541   7.947
  340PNCE   C3B 3050   6.651   8.731   7.571
  340PNCE   D4B 3051   6.773   9.039   7.263
  340PNCE   C5B 3052   6.697   8.998   6.785
  340PNCE   C6B 3053   6.456   8.773   6.482
  341PNCE   AM1 3054   5.491   6.357   8.050
  341PNCE   AM2 3055   5.816   6.289   7.955
  341PNCE   T1A 3056   5.387   6.354   7.593
  341PNCE   C2A 3057   5.542   6.365   7.177
  341PNCE   C3A 3058   5.733   6.099   6.871
  341PNCE   C1B 3059   5.882   6.165   7.541
  341PNCE   C2B 3060   6.056   6.379   7.225
  341PNCE   C3B 3061   6.464   6.435   7.084
  341PNCE   D4B 3062   6.898   6.513   6.965
  341PNCE   C5B 3063   6.970   6.579   6.531
  341PNCE   C6B 3064   7.133   6.427   6.121
  342PNCE   AM1 3065   0.026   8.550   7.759
  342PNCE   AM2 3066   0.191   8.793   7.958
  342PNCE   T1A 3067  15.651   8.706   7.388
  342PNCE   C2A 3068  15.650   8.986   7.049
  342PNCE   C3A 3069  15.365   9.163   6.777
  342PNCE   C1B 3070   0.514   9.019   7.716
  342PNCE   C2B 3071   0.963   9.097   7.695
  342PNCE   C3B 3072   1.394   9.221   7.562
  342PNCE   D4B 3073   1.797   9.204   7.347
  342PNCE   C5B 3074   1.891   9.457   6.984
  342PNCE   C6B 3075   2.274   9.361   6.697
  343CHOL   ROH 3076  14.455  15.145   6.801
  343CHOL    R1 3077  14.529  15.415   6.763
  343CHOL    R2 3078  14.515  15.540   6.517
  343CHOL    R3 3079  14.365  15.721   6.653
  343CHOL    R4 3080  14.483   0.044   6.432
  343CHOL    R5 3081  14.494   0.094   6.643
  343CHOL    C1 3082  14.324   0.408   6.509
  343CHOL    C2 3083  14.312   0.837   6.645
  344CHOL   ROH 3084  15.441   9.190   5.324
  344CHOL    R1 3085  15.510   8.948   5.454
  344CHOL    R2 3086  15.768   8.890   5.533
  344CHOL    R3 3087  15.651   8.851   5.775
  344CHOL    R4 3088   0.079   8.712   5.794
  344CHOL    R5 3089  15.712   8.628   5.836
  344CHOL    C1 3090   0.051   8.573   6.173
  344CHOL    C2 3091   0.005   8.346   6.542
  345PNCE   AM1 3092   8.866  15.266   9.592
  345PNCE   AM2 3093   8.597  15.409   9.399
  345PNCE   T1A 3094   9.027  14.934   9.338
  345PNCE   C2A 3095   9.168  14.651   9.049
  345PNCE   C3A 3096   9.289  14.524   8.629
  345PNCE   C1B 3097   8.757  15.679   9.076
  345PNCE   C2B 3098   8.769  15.711   8.659
  345PNCE   C3B 3099   9.092  15.491   8.358
  345PNCE   D4B 3100   9.349  15.440   7.981
  345PNCE   C5B 3101   9.466  15.040   7.803
  345PNCE   C6B 3102   9.690  14.966   7.398
  346PNCE   AM1 3103   2.438  11.092   4.243
  346PNCE   AM2 3104   2.692  11.085   4.452
  346PNCE   T1A 3105   2.165  11.134   4.644
  346PNCE   C2A 3106   2.061  11.138   5.122
  346PNCE   C3A 3107   1.795  11.079   5.515
  346PNCE   C1B 3108   2.851  10.989   4.858
  346PNCE   C2B 3109   3.083  10.938   5.197
  346PNCE   C3B 3110   3.084  11.109   5.577
  346PNCE   D4B 3111   2.994  11.238   5.975
  346PNCE   C5B 3112   3.327  11.273   6.261
  346PNCE   C6B 3113   3.629  11.440   6.562
  347PNCE   AM1 3114   6.387   1.972   8.846
  347PNCE   AM2 3115   6.461   1.645   8.749
  347PNCE   T1A 3116   6.169   2.188   8.495
  347PNCE   C2A 3117   5.849   2.119   8.214
  347PNCE   C3A 3118   5.795   2.090   7.765
  347PNCE   C1B 3119   6.447   1.184   8.673
  347PNCE   C2B 3120   6.577   0.748   8.622
  347PNCE   C3B 3121   6.838   0.530   8.335
  347PNCE   D4B 3122   6.825   0.534   7.915
  347PNCE   C5B 3123   7.098   0.814   7.700
  347PNCE   C6B 3124   7.355   0.700   7.332
  348XCA    COO 3125  14.000   9.707   7.892
  348XCA     C1 3126  13.899   9.775   7.433
  348XCA     C2 3127  13.809   9.967   7.043
  348XCA     C3 3128  13.465  10.200   6.865
  348XCA     C4 3129  13.338  10.499   6.551
  348XCA     C5 3130  13.241  10.669   6.125
  348XCA     C6 3131  13.244  11.048   5.833
  349XCA    COO 3132   8.250   5.641   4.416
  349XCA     C1 3133   7.862   5.824   4.617
  349XCA     C2 3134   7.759   6.125   4.956
  349XCA     C3 3135   7.688   6.423   5.309
  349XCA     C4 3136   7.970   6.463   5.661
  349XCA     C5 3137   8.366   6.378   5.860
  349XCA     C6 3138   8.729   6.531   5.924
  350XCA    COO 3139   4.075  15.659   5.135
  350XCA     C1 3140   4.050  15.678   5.634
  350XCA     C2 3141   4.166   0.187   5.924
  350XCA     C3 3142   4.282   0.292   6.331
  350XCA     C4 3143   4.597   0.244   6.636
  350XCA     C5 3144   4.645   0.065   7.038
  350XCA     C6 3145   4.406  15.797   7.426
  351CHOL   ROH 3146   6.850  10.219   6.046
  351CHOL    R1 3147   6.603  10.315   6.146
  351CHOL    R2 3148   6.489  10.550   6.058
  351CHOL    R3 3149   6.274  10.390   6.010
  351CHOL    R4 3150   6.162  10.660   6.035
  351CHOL    R5 3151   6.100  10.483   6.145
  351CHOL    C1 3152   5.770  10.574   5.976
  351CHOL    C2 3153   5.489  10.714   5.687
  352PNCE   AM1 3154   2.887  13.308   8.184
  352PNCE   AM2 3155   3.201  13.372   8.011
  352PNCE   T1A 3156   2.509  13.504   8.000
  352PNCE   C2A 3157   2.170  13.767   7.825
  352PNCE   C3A 3158   1.756  13.748   7.635
  352PNCE   C1B 3159   2.909  13.389   7.640
  352PNCE   C2B 3160   2.520  13.539   7.473
  352PNCE   C3B 3161   2.103  13.389   7.459
  352PNCE   D4B 3162   2.005  13.199   7.066
  352PNCE   C5B 3163   2.007  12.763   7.020
  352PNCE   C6B 3164   2.001  12.483   6.685
  353PNCE   AM1 3165  12.332   8.884   8.359
  353PNCE   AM2 3166  12.106   8.579   8.434
  353PNCE   T1A 3167  12.493   8.651   7.996
  353PNCE   C2A 3168  12.617   8.261   7.855
  353PNCE   C3A 3169  12.419   7.919   7.634
  353PNCE   C1B 3170  12.113   8.289   8.045
  353PNCE   C2B 3171  12.197   8.401   7.591
  353PNCE   C3B 3172  12.578   8.424   7.328
  353PNCE   D4B 3173  12.945   8.453   7.052
  353PNCE   C5B 3174  13.357   8.293   7.167
  353PNCE   C6B 3175  13.818   8.133   7.188
  354PNCE   AM1 3176   9.338  14.213   9.491
  354PNCE   AM2 3177   8.989  14.221   9.511
  354PNCE   T1A 3178   9.647  14.306   9.156
  354PNCE   C2A 3179   9.867  14.154   8.778
  354PNCE   C3A 3180  10.079  14.028   8.394
  354PNCE   C1B 3181   9.016  14.171   9.046
  354PNCE   C2B 3182   8.946  13.944   8.655
  354PNCE   C3B 3183   8.957  13.824   8.212
  354PNCE   D4B 3184   8.838  13.579   7.814
  354PNCE   C5B 3185   8.383  13.447   7.668
  354PNCE   C6B 3186   7.997  13.447   7.442
  355XCA    COO 3187   0.642   0.101   4.460
  355XCA     C1 3188   0.800   0.103   4.926
  355XCA     C2 3189   1.051   0.031   5.315
  355XCA     C3 3190   1.284   0.002   5.710
  355XCA     C4 3191   1.312   0.157   6.140
  355XCA     C5 3192   1.274   0.160   6.588
  355XCA     C6 3193   0.990   0.295   6.898
  356CHOL   ROH 3194  14.383   0.026   8.724
  356CHOL    R1 3195  14.489  15.799   8.468
  356CHOL    R2 3196  14.699   0.113   8.359
  356CHOL    R3 3197  14.811  15.696   8.332
  356CHOL    R4 3198  14.888   0.011   8.089
  356CHOL    R5 3199  14.789  15.647   8.099
  356CHOL    C1 3200  15.103  15.550   7.905
  356CHOL    C2 3201  15.108  15.411   7.510
  357PNCE   AM1 3202  14.416  13.957   9.462
  357PNCE   AM2 3203  14.708  13.940   9.258
  357PNCE   T1A 3204  14.222  14.030   9.053
  357PNCE   C2A 3205  14.311  13.943   8.612
  357PNCE   C3A 3206  14.699  13.880   8.400
  357PNCE   C1B 3207  14.814  13.676   8.857
  357PNCE   C2B 3208  14.957  13.341   8.524
  357PNCE   C3B 3209  14.758  13.074   8.279
  357PNCE   D4B 3210  14.666  12.867   7.870
  357PNCE   C5B 3211  14.238  12.832   7.706
  357PNCE   C6B 3212  13.771  12.911   7.719
  358CHOL   ROH 3213   2.724  14.023   4.639
  358CHOL    R1 3214   2.743  13.890   4.888
  358CHOL    R2 3215   2.789  13.618   4.909
  358CHOL    R3 3216   2.995  13.698   5.067
  358CHOL    R4 3217   2.954  13.415   5.135
  358CHOL    R5 3218   2.959  13.582   5.274
  358CHOL    C1 3219   3.244  13.371   5.415
  358CHOL    C2 3220   3.209  13.000   5.595
  359XCA    COO 3221   6.785  11.545   9.201
  359XCA     C1 3222   7.012  11.507   8.765
  359XCA     C2 3223   7.225  11.377   8.440
  359XCA     C3 3224   7.255  11.481   8.035
  359XCA     C4 3225   7.363  11.401   7.568
  359XCA     C5 3226   7.237  11.248   7.137
  359XCA     C6 3227   7.221  11.428   6.711
  360PNCE   AM1 3228   3.561  13.801   8.165
  360PNCE   AM2 3229   3.684  13.533   7.947
  360PNCE   T1A 3230   3.560  14.025   7.755
  360PNCE   C2A 3231   3.731  14.083   7.327
  360PNCE   C3A 3232   3.802  14.314   6.926
  360PNCE   C1B 3233   4.025  13.799   7.823
  360PNCE   C2B 3234   4.448  13.924   7.794
  360PNCE   C3B 3235   4.782  14.126   7.597
  360PNCE   D4B 3236   4.921  14.488   7.354
  360PNCE   C5B 3237   5.104  14.501   6.900
  360PNCE   C6B 3238   5.148  14.609   6.421
  361XCA    COO 3239   0.091   2.305   4.473
  361XCA     C1 3240   0.022   2.516   4.886
  361XCA     C2 3241  15.531   2.517   5.208
  361XCA     C3 3242  15.161   2.671   5.404
  361XCA     C4 3243  15.069   2.581   5.816
  361XCA     C5 3244  15.108   2.717   6.229
  361XCA     C6 3245  15.273   2.581   6.619
  362CHOL   ROH 3246   0.647   2.822   8.890
  362CHOL    R1 3247   0.849   2.677   8.756
  362CHOL    R2 3248   0.922   2.731   8.495
  362CHOL    R3 3249   1.171   2.752   8.602
  362CHOL    R4 3250   1.215   2.645   8.333
  362CHOL    R5 3251   1.288   2.561   8.520
  362CHOL    C1 3252   1.620   2.616   8.340
  362CHOL    C2 3253   1.873   2.859   8.121
  363CHOL   ROH 3254   8.768  11.069   8.308
  363CHOL    R1 3255   8.774  11.048   8.026
  363CHOL    R2 3256   8.548  11.073   7.870
  363CHOL    R3 3257   8.695  11.262   7.743
  363CHOL    R4 3258   8.478  11.199   7.556
  363CHOL    R5 3259   8.692  11.195   7.513
  363CHOL    C1 3260   8.577  11.450   7.253
  363CHOL    C2 3261   8.535  11.790   7.020
  364CHOL   ROH 3262   9.865  15.794   5.485
  364CHOL    R1 3263   9.797   0.136   5.700
  364CHOL    R2 3264   9.797   0.052   5.963
  364CHOL    R3 3265   9.961   0.266   5.997
  364CHOL    R4 3266   9.864   0.203   6.266
  364CHOL    R5 3267   9.855   0.396   6.167
  364CHOL    C1 3268  10.058   0.491   6.475
  364CHOL    C2 3269  10.395   0.546   6.667
  365CHOL   ROH 3270   8.826   6.784   5.257
  365CHOL    R1 3271   8.939   6.665   5.487
  365CHOL    R2 3272   9.206   6.691   5.553
  365CHOL    R3 3273   9.107   6.779   5.790
  365CHOL    R4 3274   9.371   6.674   5.856
  365CHOL    R5 3275   9.183   6.619   5.950
  365CHOL    C1 3276   9.374   6.747   6.255
  365CHOL    C2 3277   9.615   6.709   6.538
  366PNCE   AM1 3278  12.242   3.961   8.546
  366PNCE   AM2 3279  12.488   3.733   8.541
  366PNCE   T1A 3280  11.953   4.030   8.178
  366PNCE   C2A 3281  11.565   4.112   7.995
  366PNCE   C3A 3282  11.158   4.068   8.028
  366PNCE   C1B 3283  12.404   3.617   8.146
  366PNCE   C2B 3284  12.231   3.495   7.784
  366PNCE   C3B 3285  11.992   3.308   7.419
  366PNCE   D4B 3286  11.551   3.370   7.334
  366PNCE   C5B 3287  11.269   3.461   7.666
  366PNCE   C6B 3288  11.392   3.603   8.050
  367CHOL   ROH 3289   3.269   6.068   8.064
  367CHOL    R1 3290   3.172   5.854   7.906
  367CHOL    R2 3291   3.111   5.882   7.638
  367CHOL    R3 3292   3.281   5.671   7.611
  367CHOL    R4 3293   3.110   5.659   7.374
  367CHOL    R5 3294   3.147   5.498   7.516
  367CHOL    C1 3295   3.268   5.332   7.194
  367CHOL    C2 3296   3.497   5.046   6.961
  368CHOL   ROH 3297   8.717   1.085   5.702
  368CHOL    R1 3298   8.881   1.166   5.917
  368CHOL    R2 3299   8.832   1.395   6.063
  368CHOL    R3 3300   8.840   1.224   6.274
  368CHOL    R4 3301   8.892   1.487   6.391
  368CHOL    R5 3302   9.015   1.309   6.413
  368CHOL    C1 3303   8.935   1.380   6.779
  368CHOL    C2 3304   8.925   1.741   6.834
  369PNCE   AM1 3305   9.407  10.223   8.697
  369PNCE   AM2 3306   9.471   9.928   8.832
  369PNCE   T1A 3307   9.502  10.164   8.250
  369PNCE   C2A 3308   9.392  10.106   7.810
  369PNCE   C3A 3309   9.379  10.131   7.346
  369PNCE   C1B 3310   9.408   9.690   8.425
  369PNCE   C2B 3311   9.576   9.670   7.998
  369PNCE   C3B 3312   9.684   9.736   7.543
  369PNCE   D4B 3313   9.739   9.754   7.089
  369PNCE   C5B 3314   9.692  10.106   6.813
  369PNCE   C6B 3315   9.903  10.269   6.445
  370PNCE   AM1 3316  13.667   4.837   7.942
  370PNCE   AM2 3317  13.419   4.651   7.743
  370PNCE   T1A 3318  13.841   4.897   7.507
  370PNCE   C2A 3319  14.178   4.885   7.192
  370PNCE   C3A 3320  14.223   4.889   6.720
  370PNCE   C1B 3321  13.305   4.523   7.314
  370PNCE   C2B 3322  13.179   4.423   6.882
  370PNCE   C3B 3323  13.131   4.267   6.475
  370PNCE   D4B 3324  13.301   4.157   6.099
  370PNCE   C5B 3325  13.380   3.750   6.264
  370PNCE   C6B 3326  13.625   3.499   6.567
  371CHOL   ROH 3327  15.193   1.192   6.579
  371CHOL    R1 3328  14.946   1.330   6.597
  371CHOL    R2 3329  14.765   1.339   6.389
  371CHOL    R3 3330  14.593   1.244   6.577
  371CHOL    R4 3331  14.430   1.420   6.410
  371CHOL    R5 3332  14.450   1.429   6.626
  371CHOL    C1 3333  14.073   1.378   6.598
  371CHOL    C2 3334  13.821   1.592   6.823
  372CHOL   ROH 3335  10.994   9.351   8.220
  372CHOL    R1 3336  10.941   9.249   7.961
  372CHOL    R2 3337  10.941   8.979   7.904
  372CHOL    R3 3338  10.692   9.032   7.808
  372CHOL    R4 3339  10.795   8.818   7.636
  372CHOL    R5 3340  10.714   9.009   7.570
  372CHOL    C1 3341  10.476   8.773   7.389
  372CHOL    C2 3342  10.107   8.883   7.122
  373CHOL   ROH 3343   6.272  12.489   4.488
  373CHOL    R1 3344   6.186  12.297   4.678
  373CHOL    R2 3345   6.276  12.295   4.939
  373CHOL    R3 3346   6.010  12.300   4.996
  373CHOL    R4 3347   6.137  12.199   5.240
  373CHOL    R5 3348   5.974  12.105   5.130
  373CHOL    C1 3349   5.807  12.149   5.470
  373CHOL    C2 3350   5.560  12.148   5.762
  374XCA    COO 3351   2.246   3.079   4.953
  374XCA     C1 3352   2.063   3.085   5.412
  374XCA     C2 3353   1.883   3.148   5.845
  374XCA     C3 3354   1.710   3.162   6.246
  374XCA     C4 3355   1.291   3.201   6.372
  374XCA     C5 3356   0.858   3.274   6.516
  374XCA     C6 3357   0.529   3.341   6.854
  375CHOL   ROH 3358   3.750  15.095   8.200
  375CHOL    R1 3359   3.794  15.107   7.921
  375CHOL    R2 3360   3.672  14.935   7.743
  375CHOL    R3 3361   3.593  15.165   7.624
  375CHOL    R4 3362   3.552  14.959   7.420
  375CHOL    R5 3363   3.666  15.143   7.397
  375CHOL    C1 3364   3.408  15.189   7.119
  375CHOL    C2 3365   3.251  15.528   6.910
  376PNCE   AM1 3366   2.687   1.758   5.491
  376PNCE   AM2 3367   2.723   1.453   5.304
  376PNCE   T1A 3368   2.423   1.733   5.867
  376PNCE   C2A 3369   2.061   1.804   6.138
  376PNCE   C3A 3370   1.942   2.088   6.440
  376PNCE   C1B 3371   2.501   1.253   5.687
  376PNCE   C2B 3372   2.402   1.141   6.132
  376PNCE   C3B 3373   2.284   1.037   6.546
  376PNCE   D4B 3374   2.002   1.066   6.915
  376PNCE   C5B 3375   2.109   0.867   7.293
  376PNCE   C6B 3376   2.456   0.886   7.583
  377XCA    COO 3377   8.605  13.777   5.770
  377XCA     C1 3378   8.453  13.806   6.190
  377XCA     C2 3379   8.224  13.878   6.531
  377XCA     C3 3380   7.924  14.037   6.777
  377XCA     C4 3381   7.719  13.686   6.941
  377XCA     C5 3382   7.337  13.508   6.899
  377XCA     C6 3383   7.056  13.285   7.180
  378PNCE   AM1 3384   8.319  11.583   8.616
  378PNCE   AM2 3385   8.642  11.456   8.619
  378PNCE   T1A 3386   8.041  11.563   8.208
  378PNCE   C2A 3387   7.721  11.647   7.882
  378PNCE   C3A 3388   7.582  11.878   7.509
  378PNCE   C1B 3389   8.543  11.457   8.162
  378PNCE   C2B 3390   8.409  11.650   7.777
  378PNCE   C3B 3391   8.126  11.766   7.437
  378PNCE   D4B 3392   8.120  12.071   7.111
  378PNCE   C5B 3393   7.849  12.048   6.739
  378PNCE   C6B 3394   7.631  11.694   6.552
  379CHOL   ROH 3395   7.607   6.475   7.638
  379CHOL    R1 3396   7.626   6.560   7.369
  379CHOL    R2 3397   7.867   6.588   7.238
  379CHOL    R3 3398   7.752   6.422   7.056
  379CHOL    R4 3399   7.988   6.529   6.920
  379CHOL    R5 3400   7.783   6.532   6.846
  379CHOL    C1 3401   7.951   6.338   6.564
  379CHOL    C2 3402   7.991   6.257   6.152
  380CHOL   ROH 3403   4.909   8.879   5.764
  380CHOL    R1 3404   4.820   8.961   6.020
  380CHOL    R2 3405   4.578   9.087   6.061
  380CHOL    R3 3406   4.540   8.886   6.239
  380CHOL    R4 3407   4.348   9.093   6.318
  380CHOL    R5 3408   4.496   8.998   6.446
  380CHOL    C1 3409   4.177   8.907   6.636
  380CHOL    C2 3410   4.071   9.045   7.017
  381CHOL   ROH 3411   2.610   6.025   5.551
  381CHOL    R1 3412   2.664   6.287   5.642
  381CHOL    R2 3413   2.916   6.368   5.722
  381CHOL    R3 3414   2.876   6.565   5.540
  381CHOL    R4 3415   3.056   6.683   5.738
  381CHOL    R5 3416   2.867   6.766   5.669
  381CHOL    C1 3417   3.101   7.052   5.576
  381CHOL    C2 3418   3.176   7.348   5.296
  382PNCE   AM1 3419   4.765  14.072   8.586
  382PNCE   AM2 3420   4.582  14.375   8.661
  382PNCE   T1A 3421   4.952  14.110   8.165
  382PNCE   C2A 3422   5.284  14.077   7.834
  382PNCE   C3A 3423   5.403  14.342   7.480
  382PNCE   C1B 3424   4.985  14.530   8.490
  382PNCE   C2B 3425   5.045  14.613   8.056
  382PNCE   C3B 3426   5.170  14.788   7.667
  382PNCE   D4B 3427   5.536  14.951   7.519
  382PNCE   C5B 3428   5.923  14.700   7.564
  382PNCE   C6B 3429   6.290  14.408   7.597
  383PNCE   AM1 3430   1.057   9.479   8.462
  383PNCE   AM2 3431   1.272   9.741   8.623
  383PNCE   T1A 3432   1.119   9.484   7.999
  383PNCE   C2A 3433   1.107   9.652   7.579
  383PNCE   C3A 3434   1.105   9.519   7.142
  383PNCE   C1B 3435   1.447   9.809   8.211
  383PNCE   C2B 3436   1.567   9.785   7.774
  383PNCE   C3B 3437   1.542   9.755   7.305
  383PNCE   D4B 3438   1.487   9.753   6.845
  383PNCE   C5B 3439   1.086   9.772   6.684
  383PNCE   C6B 3440   0.693   9.637   6.824
  384PNCE   AM1 3441   0.196   4.510   8.802
  384PNCE   AM2 3442   0.051   4.771   8.621
  384PNCE   T1A 3443  15.789   4.284   8.481
  384PNCE   C2A 3444  15.708   3.949   8.213
  384PNCE   C3A 3445  15.563   3.657   7.959
  384PNCE   C1B 3446   0.341   4.620   8.318
  384PNCE   C2B 3447   0.657   4.891   8.146
  384PNCE   C3B 3448   0.832   4.894   7.747
  384PNCE   D4B 3449   0.973   5.100   7.353
  384PNCE   C5B 3450   0.583   5.263   7.134
  384PNCE   C6B 3451   0.317   4.944   6.898
  385CHOL   ROH 3452  13.134  11.702   6.674
  385CHOL    R1 3453  13.296  11.684   6.443
  385CHOL    R2 3454  13.230  11.805   6.205
  385CHOL    R3 3455  13.477  11.915   6.228
  385CHOL    R4 3456  13.422  11.919   5.941
  385CHOL    R5 3457  13.597  11.834   6.038
  385CHOL    C1 3458  13.766  12.089   5.809
  385CHOL    C2 3459  13.951  11.920   5.486
  386PNCE   AM1 3460   4.213  12.415   8.482
  386PNCE   AM2 3461   4.466  12.301   8.245
  386PNCE   T1A 3462   3.985  12.325   8.063
  386PNCE   C2A 3463   3.887  12.238   7.630
  386PNCE   C3A 3464   3.783  11.986   7.246
  386PNCE   C1B 3465   4.869  12.427   8.070
  386PNCE   C2B 3466   5.237  12.696   8.031
  386PNCE   C3B 3467   5.511  12.867   7.723
  386PNCE   D4B 3468   5.679  13.077   7.343
  386PNCE   C5B 3469   5.689  13.438   7.025
  386PNCE   C6B 3470   5.912  13.831   6.980
  387CHOL   ROH 3471  10.298  14.085   5.788
  387CHOL    R1 3472  10.262  14.231   6.027
  387CHOL    R2 3473  10.139  14.124   6.250
  387CHOL    R3 3474  10.368  14.202   6.374
  387CHOL    R4 3475  10.183  14.138   6.592
  387CHOL    R5 3476  10.293  14.324   6.566
  387CHOL    C1 3477  10.424  14.219   6.908
  387CHOL    C2 3478  10.228  14.409   7.212
  388CHOL   ROH 3479   5.102   0.781   8.682
  388CHOL    R1 3480   5.153   0.833   8.409
  388CHOL    R2 3481   5.408   0.837   8.303
  388CHOL    R3 3482   5.305   0.655   8.129
  388CHOL    R4 3483   5.536   0.769   7.989
  388CHOL    R5 3484   5.332   0.757   7.914
  388CHOL    C1 3485   5.513   0.558   7.643
  388CHOL    C2 3486   5.604   0.738   7.270
  389PNCE   AM1 3487  13.678   0.245   7.081
  389PNCE   AM2 3488  13.894   0.032   7.309
  389PNCE   T1A 3489  13.922  15.820   6.781
  389PNCE   C2A 3490  14.010  15.409   6.592
  389PNCE   C3A 3491  14.268  15.133   6.358
  389PNCE   C1B 3492  14.024  15.437   7.126
  389PNCE   C2B 3493  14.028  15.010   6.939
  389PNCE   C3B 3494  14.022  14.575   7.049
  389PNCE   D4B 3495  14.132  14.156   7.142
  389PNCE   C5B 3496  14.442  14.030   6.841
  389PNCE   C6B 3497  14.619  13.980   6.435
  390CHOL   ROH 3498   4.181   7.012   7.909
  390CHOL    R1 3499   4.061   6.936   7.664
  390CHOL    R2 3500   3.930   7.115   7.500
  390CHOL    R3 3501   4.101   7.021   7.312
  390CHOL    R4 3502   3.885   7.146   7.159
  390CHOL    R5 3503   3.960   6.942   7.136
  390CHOL    C1 3504   4.020   7.075   6.783
  390CHOL    C2 3505   4.039   6.877   6.429
  391XCA    COO 3506   7.260   0.755   9.077
  391XCA     C1 3507   7.139   0.841   8.631
  391XCA     C2 3508   7.220   0.888   8.194
  391XCA     C3 3509   7.236   1.258   7.941
  391XCA     C4 3510   7.575   1.518   7.817
  391XCA     C5 3511   7.697   1.382   7.433
  391XCA     C6 3512   7.736   1.019   7.180
  392CHOL   ROH 3513   4.185   1.911   5.572
  392CHOL    R1 3514   4.210   1.904   5.854
  392CHOL    R2 3515   4.231   2.132   6.008
  392CHOL    R3 3516   4.019   2.024   6.140
  392CHOL    R4 3517   4.132   2.220   6.327
  392CHOL    R5 3518   4.093   2.009   6.367
  392CHOL    C1 3519   3.875   2.170   6.637
  392CHOL    C2 3520   3.871   2.198   7.039
  393XCA    COO 3521   2.709  15.038   8.939
  393XCA     C1 3522   2.798  15.021   8.471
  393XCA     C2 3523   2.816  15.297   8.103
  393XCA     C3 3524   2.991  15.440   7.743
  393XCA     C4 3525   3.266  15.460   7.451
  393XCA     C5 3526   3.595  15.688   7.270
  393XCA     C6 3527   3.910   0.125   7.449
  394PNCE   AM1 3528   2.568   7.480   8.152
  394PNCE   AM2 3529   2.843   7.300   8.082
  394PNCE   T1A 3530   2.572   7.496   7.688
  394PNCE   C2A 3531   2.442   7.504   7.278
  394PNCE   C3A 3532   2.735   7.475   6.967
  394PNCE   C1B 3533   3.172   7.257   7.783
  394PNCE   C2B 3534   3.394   7.124   7.418
  394PNCE   C3B 3535   3.488   6.933   7.014
  394PNCE   D4B 3536   3.523   6.964   6.566
  394PNCE   C5B 3537   3.140   7.158   6.445
  394PNCE   C6B 3538   2.878   7.018   6.072
  395CHOL   ROH 3539   8.204  12.591   7.322
  395CHOL    R1 3540   8.201  12.568   7.040
  395CHOL    R2 3541   7.986  12.464   6.902
  395CHOL    R3 3542   8.000  12.699   6.766
  395CHOL    R4 3543   7.797  12.542   6.622
  395CHOL    R5 3544   7.974  12.636   6.536
  395CHOL    C1 3545   7.701  12.808   6.333
  395CHOL    C2 3546   7.419  12.656   6.077
  396CHOL   ROH 3547   9.481  12.425   8.946
  396CHOL    R1 3548   9.383  12.417   8.680
  396CHOL    R2 3549   9.415  12.627   8.504
  396CHOL    R3 3550   9.525  12.436   8.346
  396CHOL    R4 3551   9.485  12.665   8.168
  396CHOL    R5 3552   9.414  12.461   8.135
  396CHOL    C1 3553   9.629  12.507   7.823
  396CHOL    C2 3554   9.666  12.788   7.496
  397PNCE   AM1 3555  15.312   4.554   8.454
  397PNCE   AM2 3556  14.977   4.566   8.365
  397PNCE   T1A 3557  15.319   4.242   8.120
  397PNCE   C2A 3558  15.300   4.042   7.690
  397PNCE   C3A 3559  15.257   4.171   7.248
  397PNCE   C1B 3560  14.892   4.436   7.921
  397PNCE   C2B 3561  14.721   4.204   7.567
  397PNCE   C3B 3562  14.700   4.165   7.115
  397PNCE   D4B 3563  14.811   4.107   6.697
  397PNCE   C5B 3564  15.270   4.030   6.720
  397PNCE   C6B 3565  15.485   3.639   6.688
  398CHOL   ROH 3566  15.331   5.373   7.397
  398CHOL    R1 3567  15.478   5.146   7.314
  398CHOL    R2 3568  15.382   4.969   7.124
  398CHOL    R3 3569  15.619   5.022   7.002
  398CHOL    R4 3570  15.514   4.789   6.861
  398CHOL    R5 3571  15.711   4.807   6.952
  398CHOL    C1 3572  15.813   4.734   6.593
  398CHOL    C2 3573   0.312   4.515   6.563
  399CHOL   ROH 3574   9.356  12.531   5.572
  399CHOL    R1 3575   9.336  12.275   5.690
  399CHOL    R2 3576   9.549  12.151   5.814
  399CHOL    R3 3577   9.376  12.133   6.023
  399CHOL    R4 3578   9.546  11.897   6.048
  399CHOL    R5 3579   9.329  11.900   6.042
  399CHOL    C1 3580   9.383  11.732   6.381
  399CHOL    C2 3581   9.531  11.325   6.349
  400XCA    COO 3582  13.696   6.512   4.063
  400XCA     C1 3583  13.617   6.533   4.523
  400XCA     C2 3584  13.535   6.614   4.976
  400XCA     C3 3585  13.143   6.554   5.213
  400XCA     C4 3586  12.935   6.850   5.501
  400XCA     C5 3587  12.778   7.060   5.863
  400XCA     C6 3588  12.561   7.249   6.224
  401CHOL   ROH 3589   5.887   9.169   4.922
  401CHOL    R1 3590   5.928   9.051   5.175
  401CHOL    R2 3591   6.111   9.148   5.357
  401CHOL    R3 3592   5.897   9.153   5.523
  401CHOL    R4 3593   6.128   9.141   5.702
  401CHOL    R5 3594   5.956   9.007   5.703
  401CHOL    C1 3595   5.936   9.142   6.059
  401CHOL    C2 3596   5.808   9.304   6.401
  402CHOL   ROH 3597   1.694   2.832   9.052
  402CHOL    R1 3598   1.557   2.847   8.805
  402CHOL    R2 3599   1.461   3.085   8.703
  402CHOL    R3 3600   1.607   3.013   8.485
  402CHOL    R4 3601   1.401   3.192   8.380
  402CHOL    R5 3602   1.446   2.992   8.309
  402CHOL    C1 3603   1.504   3.187   7.987
  402CHOL    C2 3604   1.224   3.219   7.697
  403XCA    COO 3605  12.509   8.316   3.953
  403XCA     C1 3606  12.319   8.467   4.338
  403XCA     C2 3607  12.276   8.837   4.596
  403XCA     C3 3608  12.288   8.888   5.072
  403XCA     C4 3609  12.237   8.907   5.540
  403XCA     C5 3610  11.953   8.724   5.859
  403XCA     C6 3611  11.868   8.689   6.331
  404XCA    COO 3612  14.257  11.512   5.625
  404XCA     C1 3613  13.957  11.580   5.932
  404XCA     C2 3614  13.901  11.683   6.398
  404XCA     C3 3615  13.800  12.093   6.601
  404XCA     C4 3616  13.756  12.218   7.041
  404XCA     C5 3617  13.685  11.927   7.348
  404XCA     C6 3618  13.446  11.676   7.582
  405PNCE   AM1 3619   5.698  14.936   8.789
  405PNCE   AM2 3620   5.985  14.862   8.996
  405PNCE   T1A 3621   5.578  14.737   8.395
  405PNCE   C2A 3622   5.555  14.553   7.959
  405PNCE   C3A 3623   5.808  14.219   7.781
  405PNCE   C1B 3624   6.182  14.860   8.563
  405PNCE   C2B 3625   6.510  15.059   8.310
  405PNCE   C3B 3626   6.713  15.274   7.981
  405PNCE   D4B 3627   6.989  15.389   7.695
  405PNCE   C5B 3628   6.921  15.207   7.305
  405PNCE   C6B 3629   6.636  15.080   6.987
  406PNCE   AM1 3630   3.287   6.761   8.353
  406PNCE   AM2 3631   3.207   7.101   8.390
  406PNCE   T1A 3632   3.452   6.496   8.011
  406PNCE   C2A 3633   3.408   6.272   7.619
  406PNCE   C3A 3634   3.437   6.013   7.270
  406PNCE   C1B 3635   3.576   7.167   8.153
  406PNCE   C2B 3636   3.625   6.942   7.826
  406PNCE   C3B 3637   3.677   6.690   7.467
  406PNCE   D4B 3638   3.645   6.455   7.097
  406PNCE   C5B 3639   3.882   6.089   7.010
  406PNCE   C6B 3640   4.113   5.708   6.886
  407PNCE   AM1 3641  15.382   8.698   7.928
  407PNCE   AM2 3642  15.340   9.008   7.783
  407PNCE   T1A 3643  15.177   8.552   7.520
  407PNCE   C2A 3644  14.949   8.320   7.216
  407PNCE   C3A 3645  14.955   8.211   6.810
  407PNCE   C1B 3646  15.228   9.053   7.328
  407PNCE   C2B 3647  15.165   8.746   7.006
  407PNCE   C3B 3648  15.055   8.671   6.582
  407PNCE   D4B 3649  14.888   8.676   6.156
  407PNCE   C5B 3650  14.623   8.335   5.994
  407PNCE   C6B 3651  14.500   7.894   5.897
  408XCA    COO 3652   8.916   2.888   5.209
  408XCA     C1 3653   8.843   2.982   5.638
  408XCA     C2 3654   8.787   3.108   6.059
  408XCA     C3 3655   9.047   3.170   6.421
  408XCA     C4 3656   9.250   3.435   6.748
  408XCA     C5 3657   9.424   3.827   6.769
  408XCA     C6 3658   9.823   3.949   6.599
  409XCA    COO 3659   7.724   2.388   8.549
  409XCA     C1 3660   7.547   2.220   8.121
  409XCA     C2 3661   7.528   2.055   7.680
  409XCA     C3 3662   7.439   1.835   7.344
  409XCA     C4 3663   7.054   1.791   7.134
  409XCA     C5 3664   6.629   1.667   7.112
  409XCA     C6 3665   6.357   1.364   7.344
  410CHOL   ROH 3666   7.266  14.498   6.990
  410CHOL    R1 3667   7.545  14.505   6.946
  410CHOL    R2 3668   7.722  14.615   7.128
  410CHOL    R3 3669   7.842  14.372   7.109
  410CHOL    R4 3670   8.047  14.547   7.223
  410CHOL    R5 3671   8.068  14.422   7.046
  410CHOL    C1 3672   8.350  14.279   7.260
  410CHOL    C2 3673   8.769  14.283   7.244
  411PNCE   AM1 3674   3.033   1.800   8.999
  411PNCE   AM2 3675   2.806   1.629   9.206
  411PNCE   T1A 3676   3.118   1.575   8.596
  411PNCE   C2A 3677   3.420   1.421   8.307
  411PNCE   C3A 3678   3.712   1.134   8.473
  411PNCE   C1B 3679   2.768   1.311   8.882
  411PNCE   C2B 3680   2.709   1.180   8.451
  411PNCE   C3B 3681   2.512   1.019   8.081
  411PNCE   D4B 3682   2.242   1.312   7.790
  411PNCE   C5B 3683   2.110   1.769   7.882
  411PNCE   C6B 3684   2.334   2.174   7.936
  412CHOL   ROH 3685  13.058  13.241   5.091
  412CHOL    R1 3686  12.968  13.214   5.358
  412CHOL    R2 3687  13.128  13.115   5.560
  412CHOL    R3 3688  13.062  13.347   5.684
  412CHOL    R4 3689  13.132  13.165   5.902
  412CHOL    R5 3690  12.948  13.278   5.882
  412CHOL    C1 3691  13.073  13.412   6.217
  412CHOL    C2 3692  13.348  13.242   6.387
  413CHOL   ROH 3693  13.453  13.810   8.642
  413CHOL    R1 3694  13.480  13.936   8.391
  413CHOL    R2 3695  13.542  13.797   8.160
  413CHOL    R3 3696  13.317  13.917   8.066
  413CHOL    R4 3697  13.485  13.876   7.829
  413CHOL    R5 3698  13.397  14.064   7.894
  413CHOL    C1 3699  13.241  14.035   7.547
  413CHOL    C2 3700  13.352  14.421   7.382
  414CHOL   ROH 3701   4.564   0.747   5.881
  414CHOL    R1 3702   4.455   0.684   6.134
  414CHOL    R2 3703   4.611   0.643   6.358
  414CHOL    R3 3704   4.450   0.834   6.465
  414CHOL    R4 3705   4.604   0.731   6.692
  414CHOL    R5 3706   4.387   0.746   6.679
  414CHOL    C1 3707   4.449   0.962   6.987
  414CHOL    C2 3708   4.528   1.276   7.314
  415XCA    COO 3709   9.329   8.616   8.596
  415XCA     C1 3710   9.544   8.784   8.206
  415XCA     C2 3711   9.510   8.841   7.758
  415XCA     C3 3712   9.846   8.708   7.512
  415XCA     C4 3713  10.014   8.369   7.256
  415XCA     C5 3714   9.929   7.993   7.028
  415XCA     C6 3715   9.715   7.759   6.702
  416PNCE   AM1 3716   4.874   9.222   8.193
  416PNCE   AM2 3717   4.852   9.541   8.328
  416PNCE   T1A 3718   4.807   9.207   7.740
  416PNCE   C2A 3719   4.562   9.167   7.362
  416PNCE   C3A 3720   4.577   9.035   6.901
  416PNCE   C1B 3721   5.085   9.637   7.937
  416PNCE   C2B 3722   5.394   9.706   7.597
  416PNCE   C3B 3723   5.483   9.735   7.165
  416PNCE   D4B 3724   5.569   9.855   6.719
  416PNCE   C5B 3725   5.988   9.778   6.495
  416PNCE   C6B 3726   6.015   9.652   6.059
  417CHOL   ROH 3727   3.432   1.858   4.876
  417CHOL    R1 3728   3.424   2.068   5.064
  417CHOL    R2 3729   3.196   2.132   5.207
  417CHOL    R3 3730   3.361   2.102   5.421
  417CHOL    R4 3731   3.139   2.265   5.521
  417CHOL    R5 3732   3.351   2.312   5.534
  417CHOL    C1 3733   3.259   2.314   5.905
  417CHOL    C2 3734   2.945   2.311   6.113
  418CHOL   ROH 3735   4.864   7.525   5.982
  418CHOL    R1 3736   4.597   7.558   5.895
  418CHOL    R2 3737   4.506   7.457   5.655
  418CHOL    R3 3738   4.318   7.340   5.812
  418CHOL    R4 3739   4.208   7.324   5.541
  418CHOL    R5 3740   4.109   7.408   5.716
  418CHOL    C1 3741   3.858   7.137   5.622
  418CHOL    C2 3742   3.512   7.310   5.666
  419XCA    COO 3743   5.640  12.641   3.957
  419XCA     C1 3744   5.839  12.412   4.295
  419XCA     C2 3745   5.760  12.107   4.630
  419XCA     C3 3746   5.494  11.884   4.902
  419XCA     C4 3747   5.072  11.711   5.008
  419XCA     C5 3748   4.884  11.555   5.393
  419XCA     C6 3749   4.790  11.773   5.776
  420PNCE   AM1 3750  15.399   7.912   7.993
  420PNCE   AM2 3751  15.473   8.217   7.834
  420PNCE   T1A 3752  15.418   7.652   7.578
  420PNCE   C2A 3753  15.477   7.377   7.191
  420PNCE   C3A 3754   0.003   7.403   6.866
  420PNCE   C1B 3755   0.004   8.010   7.674
  420PNCE   C2B 3756   0.094   7.579   7.615
  420PNCE   C3B 3757   0.164   7.245   7.336
  420PNCE   D4B 3758   0.549   7.041   7.238
  420PNCE   C5B 3759   0.917   7.274   7.368
  420PNCE   C6B 3760   0.962   7.740   7.317
  421CHOL   ROH 3761   4.064   5.407   4.648
  421CHOL    R1 3762   4.153   5.425   4.916
  421CHOL    R2 3763   4.038   5.597   5.099
  421CHOL    R3 3764   4.009   5.370   5.246
  421CHOL    R4 3765   3.958   5.588   5.435
  421CHOL    R5 3766   4.102   5.426   5.460
  421CHOL    C1 3767   3.886   5.370   5.769
  421CHOL    C2 3768   3.897   5.442   6.197
  422PNCE   AM1 3769  15.508  14.619   4.898
  422PNCE   AM2 3770  15.768  14.369   5.021
  422PNCE   T1A 3771  15.437  14.795   5.327
  422PNCE   C2A 3772  15.367  14.691   5.769
  422PNCE   C3A 3773  15.370  14.508   6.182
  422PNCE   C1B 3774   0.083  14.560   5.404
  422PNCE   C2B 3775   0.045  14.559   5.856
  422PNCE   C3B 3776   0.061  14.585   6.282
  422PNCE   D4B 3777  15.635  14.575   6.625
  422PNCE   C5B 3778  15.671  14.904   6.898
  422PNCE   C6B 3779   0.196  15.150   7.033
  423PNCE   AM1 3780  12.330   0.013   9.433
  423PNCE   AM2 3781  12.642  15.626   9.474
  423PNCE   T1A 3782  11.990  15.741   9.094
  423PNCE   C2A 3783  11.695  15.401   8.950
  423PNCE   C3A 3784  11.452  15.175   8.623
  423PNCE   C1B 3785  12.412  15.445   9.096
  423PNCE   C2B 3786  12.610  15.215   8.753
  423PNCE   C3B 3787  12.896  14.875   8.720
  423PNCE   D4B 3788  12.918  14.607   8.362
  423PNCE   C5B 3789  12.641  14.604   8.020
  423PNCE   C6B 3790  12.294  14.724   7.839
  424CHOL   ROH 3791  15.548   4.517   4.503
  424CHOL    R1 3792  15.493   4.616   4.762
  424CHOL    R2 3793  15.377   4.461   4.959
  424CHOL    R3 3794  15.594   4.537   5.103
  424CHOL    R4 3795  15.402   4.443   5.303
  424CHOL    R5 3796  15.503   4.636   5.300
  424CHOL    C1 3797  15.621   4.505   5.639
  424CHOL    C2 3798  15.519   4.307   6.010
  425PNCE   AM1 3799   2.900  12.481   8.112
  425PNCE   AM2 3800   2.721  12.801   8.098
  425PNCE   T1A 3801   2.964  12.338   7.662
  425PNCE   C2A 3802   2.997  12.481   7.213
  425PNCE   C3A 3803   2.856  12.457   6.777
  425PNCE   C1B 3804   2.957  12.856   7.697
  425PNCE   C2B 3805   2.886  12.986   7.268
  425PNCE   C3B 3806   2.988  12.980   6.832
  425PNCE   D4B 3807   3.143  13.330   6.589
  425PNCE   C5B 3808   2.807  13.547   6.383
  425PNCE   C6B 3809   2.530  13.770   6.148
  426PNCE   AM1 3810  15.250  11.731   9.295
  426PNCE   AM2 3811  14.890  11.814   9.240
  426PNCE   T1A 3812  15.562  12.073   9.221
  426PNCE   C2A 3813  15.805  12.340   8.926
  426PNCE   C3A 3814   0.266  12.637   8.729
  426PNCE   C1B 3815  14.801  11.820   8.806
  426PNCE   C2B 3816  14.962  11.774   8.385
  426PNCE   C3B 3817  14.889  11.613   7.970
  426PNCE   D4B 3818  15.077  11.447   7.601
  426PNCE   C5B 3819  14.929  11.654   7.251
  426PNCE   C6B 3820  14.845  11.957   6.931
  427PNCE   AM1 3821  11.626   5.251   8.767
  427PNCE   AM2 3822  11.775   5.095   8.524
  427PNCE   T1A 3823  11.649   5.479   8.264
  427PNCE   C2A 3824  11.817   5.464   7.847
  427PNCE   C3A 3825  12.058   5.383   7.494
  427PNCE   C1B 3826  11.547   4.976   8.126
  427PNCE   C2B 3827  11.482   4.843   7.711
  427PNCE   C3B 3828  11.643   4.655   7.341
  427PNCE   D4B 3829  11.585   4.716   6.889
  427PNCE   C5B 3830  11.484   5.148   6.769
  427PNCE   C6B 3831  11.175   5.480   6.665
  428PNCE   AM1 3832   2.264  12.061   8.439
  428PNCE   AM2 3833   1.913  12.163   8.477
  428PNCE   T1A 3834   2.383  12.406   8.139
  428PNCE   C2A 3835   2.444  12.537   7.713
  428PNCE   C3A 3836   2.139  12.427   7.394
  428PNCE   C1B 3837   1.575  12.305   8.184
  428PNCE   C2B 3838   1.284  12.343   7.829
  428PNCE   C3B 3839   1.044  12.298   7.462
  428PNCE   D4B 3840   0.721  12.118   7.196
  428PNCE   C5B 3841   0.818  11.962   6.774
  428PNCE   C6B 3842   0.783  11.610   6.477
  429CHOL   ROH 3843   1.523   8.852   4.399
  429CHOL    R1 3844   1.650   8.965   4.625
  429CHOL    R2 3845   1.839   8.829   4.773
  429CHOL    R3 3846   1.991   9.049   4.722
  429CHOL    R4 3847   2.153   8.888   4.905
  429CHOL    R5 3848   2.098   9.098   4.931
  429CHOL    C1 3849   2.478   9.129   4.935
  429CHOL    C2 3850   2.802   9.058   4.747
  430PNCE   AM1 3851   5.669  12.396   8.346
  430PNCE   AM2 3852   5.700  12.753   8.269
  430PNCE   T1A 3853   5.718  12.412   7.882
  430PNCE   C2A 3854   5.880  12.561   7.485
  430PNCE   C3A 3855   5.896  12.620   7.044
  430PNCE   C1B 3856   5.994  12.879   7.868
  430PNCE   C2B 3857   6.168  13.063   7.460
  430PNCE   C3B 3858   6.157  13.478   7.304
  430PNCE   D4B 3859   6.177  13.919   7.450
  430PNCE   C5B 3860   5.892  14.248   7.276
  430PNCE   C6B 3861   5.638  14.603   7.101
  431PNCE   AM1 3862  10.792   7.729   8.060
  431PNCE   AM2 3863  10.531   7.982   7.980
  431PNCE   T1A 3864  10.903   7.794   7.599
  431PNCE   C2A 3865  10.947   7.919   7.144
  431PNCE   C3A 3866  11.011   8.236   6.847
  431PNCE   C1B 3867  10.301   7.889   7.591
  431PNCE   C2B 3868  10.074   7.586   7.322
  431PNCE   C3B 3869  10.080   7.163   7.219
  431PNCE   D4B 3870  10.249   6.761   7.085
  431PNCE   C5B 3871  10.542   6.728   6.726
  431PNCE   C6B 3872  10.674   7.018   6.379
  432XCA    COO 3873   7.677  15.182   5.447
  432XCA     C1 3874   7.600  15.309   5.877
  432XCA     C2 3875   7.436  15.111   6.199
  432XCA     C3 3876   7.492  14.749   6.469
  432XCA     C4 3877   7.570  14.313   6.509
  432XCA     C5 3878   7.325  14.020   6.758
  432XCA     C6 3879   6.920  13.759   6.794
  433XCA    COO 3880   4.961   9.443   3.559
  433XCA     C1 3881   4.778   9.522   3.962
  433XCA     C2 3882   4.845   9.653   4.374
  433XCA     C3 3883   4.634   9.627   4.746
  433XCA     C4 3884   4.804   9.315   4.926
  433XCA     C5 3885   5.105   9.228   5.156
  433XCA     C6 3886   5.481   9.256   5.372
  434CHOL   ROH 3887  15.420   5.719   7.156
  434CHOL    R1 3888  15.649   5.852   7.057
  434CHOL    R2 3889  15.768   5.785   6.817
  434CHOL    R3 3890  15.734   6.048   6.762
  434CHOL    R4 3891   0.142   5.971   6.609
  434CHOL    R5 3892   0.127   6.136   6.750
  434CHOL    C1 3893   0.228   6.327   6.435
  434CHOL    C2 3894   0.236   6.652   6.159
  435CHOL   ROH 3895  12.559  14.258   9.142
  435CHOL    R1 3896  12.326  14.269   8.982
  435CHOL    R2 3897  12.129  14.460   9.018
  435CHOL    R3 3898  12.172  14.507   8.754
  435CHOL    R4 3899  11.916  14.637   8.811
  435CHOL    R5 3900  11.955  14.492   8.654
  435CHOL    C1 3901  11.833  14.785   8.443
  435CHOL    C2 3902  11.917  15.042   8.116
  436XCA    COO 3903  14.945   2.689   8.530
  436XCA     C1 3904  14.961   2.912   8.142
  436XCA     C2 3905  14.982   3.203   7.810
  436XCA     C3 3906  15.291   3.427   7.579
  436XCA     C4 3907  15.431   3.658   7.214
  436XCA     C5 3908  15.709   3.989   7.075
  436XCA     C6 3909  15.685   4.324   6.775
  437CHOL   ROH 3910  10.505   9.987   4.262
  437CHOL    R1 3911  10.488   9.938   4.540
  437CHOL    R2 3912  10.668  10.044   4.721
  437CHOL    R3 3913  10.443  10.137   4.842
  437CHOL    R4 3914  10.611  10.042   5.062
  437CHOL    R5 3915  10.405   9.985   5.022
  437CHOL    C1 3916  10.366  10.127   5.374
  437CHOL    C2 3917  10.395  10.220   5.787
  438PNCE   AM1 3918   8.856   7.404   8.505
  438PNCE   AM2 3919   8.535   7.556   8.505
  438PNCE   T1A 3920   9.095   7.526   8.141
  438PNCE   C2A 3921   9.244   7.420   7.709
  438PNCE   C3A 3922   9.565   7.187   7.475
  438PNCE   C1B 3923   8.684   7.873   8.191
  438PNCE   C2B 3924   8.697   8.068   7.785
  438PNCE   C3B 3925   8.658   8.246   7.389
  438PNCE   D4B 3926   9.000   8.437   7.212
  438PNCE   C5B 3927   9.016   8.828   7.393
  438PNCE   C6B 3928   8.936   9.092   7.675
  439XCA    COO 3929  14.124  11.358   8.461
  439XCA     C1 3930  14.217  11.384   7.998
  439XCA     C2 3931  14.431  11.605   7.667
  439XCA     C3 3932  14.650  11.994   7.544
  439XCA     C4 3933  14.535  12.424   7.342
  439XCA     C5 3934  14.653  12.877   7.343
  439XCA     C6 3935  14.677  13.240   7.062
  440CHOL   ROH 3936   6.343   1.834   5.517
  440CHOL    R1 3937   6.344   2.039   5.712
  440CHOL    R2 3938   6.116   2.114   5.849
  440CHOL    R3 3939   6.270   2.066   6.067
  440CHOL    R4 3940   6.062   2.250   6.162
  440CHOL    R5 3941   6.278   2.276   6.182
  440CHOL    C1 3942   6.176   2.284   6.549
  440CHOL    C2 3943   5.895   2.443   6.833
  441CHOL   ROH 3944  12.643   6.525   8.356
  441CHOL    R1 3945  12.426   6.560   8.178
  441CHOL    R2 3946  12.444   6.504   7.908
  441CHOL    R3 3947  12.227   6.349   7.958
  441CHOL    R4 3948  12.188   6.444   7.684
  441CHOL    R5 3949  12.047   6.462   7.848
  441CHOL    C1 3950  11.835   6.263   7.600
  441CHOL    C2 3951  11.507   6.222   7.347
  442CHOL   ROH 3952  12.041   0.513   4.946
  442CHOL    R1 3953  12.113   0.629   5.194
  442CHOL    R2 3954  11.925   0.704   5.383
  442CHOL    R3 3955  12.073   0.545   5.546
  442CHOL    R4 3956  11.936   0.730   5.727
  442CHOL    R5 3957  12.150   0.692   5.719
  442CHOL    C1 3958  12.081   0.596   6.081
  442CHOL    C2 3959  12.055   0.359   6.451
  443CHOL   ROH 3960  11.350  12.942   5.521
  443CHOL    R1 3961  11.367  12.946   5.803
  443CHOL    R2 3962  11.225  13.124   5.958
  443CHOL    R3 3963  11.139  12.898   6.083
  443CHOL    R4 3964  11.051  13.117   6.257
  443CHOL    R5 3965  11.169  12.943   6.316
  443CHOL    C1 3966  10.870  12.900   6.548
  443CHOL    C2 3967  10.637  13.138   6.680
  444CHOL   ROH 3968   1.948   9.677   7.556
  444CHOL    R1 3969   2.185   9.587   7.431
  444CHOL    R2 3970   2.282   9.330   7.464
  444CHOL    R3 3971   2.276   9.327   7.193
  444CHOL    R4 3972   2.464   9.115   7.265
  444CHOL    R5 3973   2.502   9.280   7.128
  444CHOL    C1 3974   2.565   8.986   6.894
  444CHOL    C2 3975   2.817   8.944   6.633
  445CHOL   ROH 3976  12.780  11.944   5.145
  445CHOL    R1 3977  13.030  11.970   5.276
  445CHOL    R2 3978  13.169  12.208   5.285
  445CHOL    R3 3979  13.166  12.163   5.553
  445CHOL    R4 3980  13.380  12.359   5.513
  445CHOL    R5 3981  13.396  12.168   5.617
  445CHOL    C1 3982  13.499  12.405   5.898
  445CHOL    C2 3983  13.772  12.482   6.223
  446XCA    COO 3984   7.814   4.799   8.412
  446XCA     C1 3985   7.758   4.694   7.967
  446XCA     C2 3986   7.708   4.842   7.571
  446XCA     C3 3987   7.789   4.762   7.182
  446XCA     C4 3988   7.720   4.461   6.905
  446XCA     C5 3989   7.868   4.500   6.510
  446XCA     C6 3990   8.258   4.595   6.348
  447PNCE   AM1 3991   5.452  11.243   7.881
  447PNCE   AM2 3992   5.447  11.104   7.531
  447PNCE   T1A 3993   5.739  11.559   7.699
  447PNCE   C2A 3994   5.904  11.659   7.348
  447PNCE   C3A 3995   5.685  11.673   6.969
  447PNCE   C1B 3996   5.736  11.162   7.141
  447PNCE   C2B 3997   6.164  11.288   7.142
  447PNCE   C3B 3998   6.313  11.686   6.968
  447PNCE   D4B 3999   6.529  12.033   6.737
  447PNCE   C5B 4000   6.248  12.236   6.423
  447PNCE   C6B 4001   5.808  12.373   6.279
  448PNCE   AM1 4002   6.403   4.946   8.250
  448PNCE   AM2 4003   6.072   5.064   8.303
  448PNCE   T1A 4004   6.502   4.830   7.793
  448PNCE   C2A 4005   6.860   4.646   7.512
  448PNCE   C3A 4006   7.224   4.817   7.351
  448PNCE   C1B 4007   5.944   5.048   7.855
  448PNCE   C2B 4008   5.817   5.249   7.475
  448PNCE   C3B 4009   5.833   5.088   7.044
  448PNCE   D4B 4010   6.181   4.923   6.838
  448PNCE   C5B 4011   6.406   4.568   7.046
  448PNCE   C6B 4012   6.830   4.377   7.058
  449CHOL   ROH 4013   8.413  14.514   7.885
  449CHOL    R1 4014   8.155  14.408   7.838
  449CHOL    R2 4015   7.962  14.544   7.695
  449CHOL    R3 4016   7.955  14.316   7.547
  449CHOL    R4 4017   7.691  14.436   7.509
  449CHOL    R5 4018   7.733  14.233   7.575
  449CHOL    C1 4019   7.527  14.159   7.263
  449CHOL    C2 4020   7.090  14.130   7.235
  450PNCE   AM1 4021  12.147  12.695   5.139
  450PNCE   AM2 4022  11.781  12.763   5.177
  450PNCE   T1A 4023  12.276  12.647   5.592
  450PNCE   C2A 4024  12.284  12.665   6.057
  450PNCE   C3A 4025  12.100  12.774   6.470
  450PNCE   C1B 4026  11.803  12.837   5.628
  450PNCE   C2B 4027  11.773  12.741   6.046
  450PNCE   C3B 4028  11.594  12.783   6.433
  450PNCE   D4B 4029  11.254  12.679   6.709
  450PNCE   C5B 4030  11.202  12.414   7.011
  450PNCE   C6B 4031  11.064  12.422   7.475
  451PNCE   AM1 4032  11.973   3.533   8.697
  451PNCE   AM2 4033  12.172   3.313   8.513
  451PNCE   T1A 4034  11.551   3.545   8.540
  451PNCE   C2A 4035  11.193   3.796   8.479
  451PNCE   C3A 4036  10.854   3.922   8.736
  451PNCE   C1B 4037  11.903   3.526   8.165
  451PNCE   C2B 4038  11.777   3.726   7.722
  451PNCE   C3B 4039  11.440   3.895   7.417
  451PNCE   D4B 4040  10.998   3.823   7.349
  451PNCE   C5B 4041  10.850   3.799   7.750
  451PNCE   C6B 4042  10.801   3.708   8.177
  452PNCE   AM1 4043   5.547   9.988   8.339
  452PNCE   AM2 4044   5.586   9.713   8.089
  452PNCE   T1A 4045   5.310  10.122   7.960
  452PNCE   C2A 4046   5.030  10.081   7.623
  452PNCE   C3A 4047   4.694  10.202   7.368
  452PNCE   C1B 4048   5.852   9.435   7.809
  452PNCE   C2B 4049   5.777   9.275   7.403
  452PNCE   C3B 4050   5.373   9.202   7.221
  452PNCE   D4B 4051   4.963   9.318   7.086
  452PNCE   C5B 4052   4.832   9.647   6.799
  452PNCE   C6B 4053   4.597   9.991   6.931
  453PNCE   AM1 4054   9.905   1.550   9.315
  453PNCE   AM2 4055  10.125   1.244   9.269
  453PNCE   T1A 4056   9.541   1.336   9.105
  453PNCE   C2A 4057   9.379   1.027   8.805
  453PNCE   C3A 4058   9.024   0.792   8.609
  453PNCE   C1B 4059   9.785   0.927   9.295
  453PNCE   C2B 4060   9.540   0.629   9.122
  453PNCE   C3B 4061   9.469   0.342   8.822
  453PNCE   D4B 4062   9.239   0.032   8.690
  453PNCE   C5B 4063   8.999   0.187   8.328
  453PNCE   C6B 4064   8.935   0.187   7.886
  454CHOL   ROH 4065  10.437  10.498   7.995
  454CHOL    R1 4066  10.454  10.602   7.733
  454CHOL    R2 4067  10.590  10.473   7.530
  454CHOL    R3 4068  10.353  10.498   7.399
  454CHOL    R4 4069  10.545  10.424   7.191
  454CHOL    R5 4070  10.411  10.596   7.189
  454CHOL    C1 4071  10.296  10.419   6.871
  454CHOL    C2 4072  10.406  10.356   6.471
  455PNCE   AM1 4073  14.584   0.128   9.232
  455PNCE   AM2 4074  14.436  15.622   9.177
  455PNCE   T1A 4075  14.946  15.661   9.069
  455PNCE   C2A 4076  15.122  15.512   8.671
  455PNCE   C3A 4077  15.209  15.309   8.293
  455PNCE   C1B 4078  14.545  15.420   8.819
  455PNCE   C2B 4079  14.697  15.267   8.482
  455PNCE   C3B 4080  14.789  15.130   8.086
  455PNCE   D4B 4081  15.080  15.009   7.796
  455PNCE   C5B 4082  15.486  15.259   7.872
  455PNCE   C6B 4083   0.073  15.297   7.717
  456PNCE   AM1 4084  14.849  10.922   8.858
  456PNCE   AM2 4085  14.536  11.078   8.701
  456PNCE   T1A 4086  14.908  10.922   8.388
  456PNCE   C2A 4087  15.134  11.134   8.032
  456PNCE   C3A 4088  15.507  11.262   7.823
  456PNCE   C1B 4089  14.620  11.314   8.302
  456PNCE   C2B 4090  14.656  11.143   7.852
  456PNCE   C3B 4091  14.967  10.966   7.550
  456PNCE   D4B 4092  14.996  10.541   7.383
  456PNCE   C5B 4093  14.692  10.402   7.057
  456PNCE   C6B 4094  14.408  10.606   6.779
  457PNCE   AM1 4095   6.246   5.455   8.001
  457PNCE   AM2 4096   6.542   5.577   8.053
  457PNCE   T1A 4097   6.325   5.305   7.578
  457PNCE   C2A 4098   6.249   4.947   7.353
  457PNCE   C3A 4099   5.856   4.734   7.435
  457PNCE   C1B 4100   6.659   5.678   7.625
  457PNCE   C2B 4101   6.622   5.580   7.193
  457PNCE   C3B 4102   6.294   5.440   6.942
  457PNCE   D4B 4103   6.238   5.305   6.494
  457PNCE   C5B 4104   5.809   5.140   6.460
  457PNCE   C6B 4105   5.422   5.426   6.500
  458PNCE   AM1 4106  12.993  14.086   9.221
  458PNCE   AM2 4107  13.174  14.162   8.975
  458PNCE   T1A 4108  12.773  13.756   9.080
  458PNCE   C2A 4109  12.845  13.381   8.903
  458PNCE   C3A 4110  12.873  13.281   8.461
  458PNCE   C1B 4111  13.293  14.358   8.621
  458PNCE   C2B 4112  13.418  14.379   8.231
  458PNCE   C3B 4113  13.618  14.512   7.864
  458PNCE   D4B 4114  13.873  14.635   7.523
  458PNCE   C5B 4115  14.337  14.439   7.503
  458PNCE   C6B 4116  14.660  14.120   7.348
  459XCA    COO 4117   3.537   1.862   9.150
  459XCA     C1 4118   3.628   1.574   8.789
  459XCA     C2 4119   3.892   1.646   8.410
  459XCA     C3 4120   4.263   1.633   8.155
  459XCA     C4 4121   4.378   1.775   7.735
  459XCA     C5 4122   4.753   1.739   7.516
  459XCA     C6 4123   5.141   1.478   7.665
  460CHOL   ROH 4124   8.299   7.619   7.997
  460CHOL    R1 4125   8.355   7.747   7.751
  460CHOL    R2 4126   8.353   7.613   7.509
  460CHOL    R3 4127   8.180   7.809   7.438
  460CHOL    R4 4128   8.294   7.716   7.185
  460CHOL    R5 4129   8.288   7.922   7.257
  460CHOL    C1 4130   8.096   7.961   6.929
  460CHOL    C2 4131   7.950   7.917   6.557
  461CHOL   ROH 4132  12.184   4.722   4.784
  461CHOL    R1 4133  12.058   4.518   4.934
  461CHOL    R2 4134  11.900   4.572   5.154
  461CHOL    R3 4135  11.716   4.424   5.019
  461CHOL    R4 4136  11.618   4.429   5.295
  461CHOL    R5 4137  11.653   4.252   5.173
  461CHOL    C1 4138  11.282   4.207   5.250
  461CHOL    C2 4139  11.021   4.362   5.516
  462CHOL   ROH 4140   3.430  14.769   7.024
  462CHOL    R1 4141   3.547  14.684   6.781
  462CHOL    R2 4142   3.525  14.828   6.546
  462CHOL    R3 4143   3.796  14.812   6.548
  462CHOL    R4 4144   3.729  14.887   6.273
  462CHOL    R5 4145   3.852  14.719   6.335
  462CHOL    C1 4146   4.102  14.906   6.116
  462CHOL    C2 4147   4.235  15.293   5.943
  463CHOL   ROH 4148   8.206   9.453   8.325
  463CHOL    R1 4149   8.231   9.290   8.096
  463CHOL    R2 4150   8.239   9.014   8.109
  463CHOL    R3 4151   8.034   9.032   7.931
  463CHOL    R4 4152   8.148   8.765   7.887
  463CHOL    R5 4153   8.115   8.919   7.736
  463CHOL    C1 4154   7.904   8.637   7.590
  463CHOL    C2 4155   7.643   8.572   7.277
  464CHOL   ROH 4156  13.909  10.920   4.965
  464CHOL    R1 4157  14.054  10.786   5.168
  464CHOL    R2 4158  14.042  10.861   5.433
  464CHOL    R3 4159  13.976  10.599   5.470
  464CHOL    R4 4160  14.041  10.698   5.738
  464CHOL    R5 4161  14.127  10.523   5.640
  464CHOL    C1 4162  13.979  10.357   5.950
  464CHOL    C2 4163  13.756  10.373   6.279
  465XCA    COO 4164  14.332   7.250   3.980
  465XCA     C1 4165  14.234   7.059   4.380
  465XCA     C2 4166  13.959   6.883   4.694
  465XCA     C3 4167  13.803   7.089   5.047
  465XCA     C4 4168  13.990   7.474   5.284
  465XCA     C5 4169  14.034   7.821   5.598
  465XCA     C6 4170  14.166   8.254   5.720
  466PNCE   AM1 4171  11.140  12.952   8.568
  466PNCE   AM2 4172  10.958  13.068   8.849
  466PNCE   T1A 4173  10.988  13.191   8.181
  466PNCE   C2A 4174  10.676  13.130   7.886
  466PNCE   C3A 4175  10.358  12.823   7.986
  466PNCE   C1B 4176  11.061  13.445   8.627
  466PNCE   C2B 4177  11.373  13.534   8.290
  466PNCE   C3B 4178  11.569  13.554   7.869
  466PNCE   D4B 4179  11.632  13.344   7.457
  466PNCE   C5B 4180  12.003  13.478   7.307
  466PNCE   C6B 4181  12.313  13.318   7.072
  467PNCE   AM1 4182  14.540   6.795   8.062
  467PNCE   AM2 4183  14.354   6.692   7.765
  467PNCE   T1A 4184  14.843   6.521   7.811
  467PNCE   C2A 4185  14.980   6.190   7.516
  467PNCE   C3A 4186  14.754   6.029   7.166
  467PNCE   C1B 4187  14.580   6.787   7.383
  467PNCE   C2B 4188  14.864   6.567   7.105
  467PNCE   C3B 4189  15.203   6.658   6.833
  467PNCE   D4B 4190  15.480   6.997   6.809
  467PNCE   C5B 4191  15.346   7.387   6.678
  467PNCE   C6B 4192  15.456   7.794   6.778
  468XCA    COO 4193   2.861   4.224   8.642
  468XCA     C1 4194   3.040   4.506   8.261
  468XCA     C2 4195   2.989   4.532   7.784
  468XCA     C3 4196   3.028   4.332   7.358
  468XCA     C4 4197   2.872   4.491   6.941
  468XCA     C5 4198   2.506   4.475   6.682
  468XCA     C6 4199   2.246   4.325   6.327
  469PNCE   AM1 4200   1.818  10.630   8.630
  469PNCE   AM2 4201   1.729  10.990   8.663
  469PNCE   T1A 4202   1.701  10.683   8.168
  469PNCE   C2A 4203   1.484  10.661   7.748
  469PNCE   C3A 4204   1.366  10.768   7.284
  469PNCE   C1B 4205   1.787  11.196   8.265
  469PNCE   C2B 4206   1.535  11.339   7.957
  469PNCE   C3B 4207   1.450  11.577   7.644
  469PNCE   D4B 4208   1.091  11.789   7.516
  469PNCE   C5B 4209   0.822  11.618   7.213
  469PNCE   C6B 4210   0.715  11.356   6.911
  470XCA    COO 4211   8.052  11.657   4.811
  470XCA     C1 4212   8.200  11.450   5.244
  470XCA     C2 4213   8.307  11.263   5.664
  470XCA     C3 4214   8.320  11.309   6.154
  470XCA     C4 4215   8.570  11.529   6.528
  470XCA     C5 4216   8.839  11.385   6.867
  470XCA     C6 4217   9.066  11.347   7.248
  471XCA    COO 4218   0.271   9.091   4.551
  471XCA     C1 4219   0.189   9.134   5.001
  471XCA     C2 4220   0.197   9.278   5.397
  471XCA     C3 4221   0.109   9.223   5.831
  471XCA     C4 4222   0.209   9.338   6.232
  471XCA     C5 4223   0.543   9.585   6.333
  471XCA     C6 4224   0.947   9.686   6.184
  472PNCE   AM1 4225   0.237   9.969   8.404
  472PNCE   AM2 4226   0.149   9.848   8.081
  472PNCE   T1A 4227   0.227  10.335   8.151
  472PNCE   C2A 4228   0.344  10.591   7.829
  472PNCE   C3A 4229   0.537  10.946   7.833
  472PNCE   C1B 4230   0.137   9.718   7.658
  472PNCE   C2B 4231   0.122   9.307   7.445
  472PNCE   C3B 4232   0.291   8.949   7.254
  472PNCE   D4B 4233   0.203   8.572   7.053
  472PNCE   C5B 4234   0.095   8.196   7.211
  472PNCE   C6B 4235  15.720   7.822   7.197
  473PNCE   AM1 4236   6.496  14.808   9.102
  473PNCE   AM2 4237   6.781  15.041   9.084
  473PNCE   T1A 4238   6.562  14.551   8.723
  473PNCE   C2A 4239   6.605  14.547   8.282
  473PNCE   C3A 4240   6.886  14.412   7.938
  473PNCE   C1B 4241   6.914  14.948   8.632
  473PNCE   C2B 4242   7.001  14.873   8.193
  473PNCE   C3B 4243   7.044  14.875   7.732
  473PNCE   D4B 4244   7.330  14.729   7.406
  473PNCE   C5B 4245   7.289  14.956   7.054
  473PNCE   C6B 4246   7.062  14.920   6.737
  474PNCE   AM1 4247  11.034   4.420   8.754
  474PNCE   AM2 4248  10.997   4.674   8.490
  474PNCE   T1A 4249  10.806   4.230   8.345
  474PNCE   C2A 4250  10.473   4.099   8.026
  474PNCE   C3A 4251  10.022   4.080   7.945
  474PNCE   C1B 4252  11.215   4.573   8.069
  474PNCE   C2B 4253  11.288   4.380   7.625
  474PNCE   C3B 4254  11.165   4.313   7.171
  474PNCE   D4B 4255  10.849   4.534   6.882
  474PNCE   C5B 4256  10.445   4.361   6.795
  474PNCE   C6B 4257  10.016   4.418   6.678
  475XCA    COO 4258   9.967   7.970   8.045
  475XCA     C1 4259   9.785   7.926   7.583
  475XCA     C2 4260   9.578   7.656   7.227
  475XCA     C3 4261   9.198   7.366   7.175
  475XCA     C4 4262   8.850   7.189   6.982
  475XCA     C5 4263   8.677   7.299   6.580
  475XCA     C6 4264   8.897   7.437   6.209
  476PNCE   AM1 4265   5.724   8.997   8.593
  476PNCE   AM2 4266   5.836   9.356   8.558
  476PNCE   T1A 4267   5.748   9.033   8.138
  476PNCE   C2A 4268   5.693   8.895   7.748
  476PNCE   C3A 4269   5.568   8.740   7.389
  476PNCE   C1B 4270   6.035   9.686   8.295
  476PNCE   C2B 4271   6.259   9.749   7.910
  476PNCE   C3B 4272   6.421   9.985   7.585
  476PNCE   D4B 4273   6.455   9.954   7.160
  476PNCE   C5B 4274   6.760  10.155   6.906
  476PNCE   C6B 4275   7.084  10.360   7.085
  477CHOL   ROH 4276   4.258   6.317   4.628
  477CHOL    R1 4277   4.248   6.256   4.904
  477CHOL    R2 4278   4.454   6.318   5.078
  477CHOL    R3 4279   4.256   6.442   5.217
  477CHOL    R4 4280   4.474   6.412   5.410
  477CHOL    R5 4281   4.268   6.347   5.436
  477CHOL    C1 4282   4.301   6.584   5.733
  477CHOL    C2 4283   4.185   6.909   5.926
  478CHOL   ROH 4284   9.160  12.961   6.436
  478CHOL    R1 4285   9.096  12.718   6.566
  478CHOL    R2 4286   9.077  12.698   6.841
  478CHOL    R3 4287   8.831  12.597   6.784
  478CHOL    R4 4288   8.883  12.514   7.061
  478CHOL    R5 4289   8.827  12.384   6.895
  478CHOL    C1 4290   8.539  12.313   7.135
  478CHOL    C2 4291   8.417  12.215   7.519
  479XCA    COO 4292   9.301   8.029   4.288
  479XCA     C1 4293   9.282   8.102   4.746
  479XCA     C2 4294   9.269   8.014   5.178
  479XCA     C3 4295   9.285   8.148   5.607
  479XCA     C4 4296   9.405   8.372   5.984
  479XCA     C5 4297   9.717   8.449   6.346
  479XCA     C6 4298   9.988   8.415   6.727
  480CHOL   ROH 4299  15.386   0.044   6.372
  480CHOL    R1 4300  15.381   0.293   6.507
  480CHOL    R2 4301  15.275   0.521   6.395
  480CHOL    R3 4302  15.127   0.526   6.622
  480CHOL    R4 4303  15.087   0.791   6.502
  480CHOL    R5 4304  15.153   0.749   6.705
  480CHOL    C1 4305  14.838   0.953   6.778
  480CHOL    C2 4306  14.698   1.257   7.039
  481CHOL   ROH 4307   1.995   5.963   6.146
  481CHOL    R1 4308   2.190   5.884   6.335
  481CHOL    R2 4309   2.388   5.700   6.276
  481CHOL    R3 4310   2.553   5.898   6.362
  481CHOL    R4 4311   2.705   5.651   6.405
  481CHOL    R5 4312   2.663   5.805   6.554
  481CHOL    C1 4313   3.044   5.808   6.561
  481CHOL    C2 4314   3.174   5.749   6.925
  482PNCE   AM1 4315  12.333   0.817   9.060
  482PNCE   AM2 4316  12.142   1.114   8.978
  482PNCE   T1A 4317  12.070   0.430   8.971
  482PNCE   C2A 4318  11.909   0.148   8.656
  482PNCE   C3A 4319  11.926   0.109   8.214
  482PNCE   C1B 4320  12.152   0.878   8.572
  482PNCE   C2B 4321  12.279   0.472   8.452
  482PNCE   C3B 4322  12.405   0.241   8.102
  482PNCE   D4B 4323  12.559   0.072   7.711
  482PNCE   C5B 4324  12.639   0.264   7.324
  482PNCE   C6B 4325  12.900   0.549   7.098
  483PNCE   AM1 4326  14.121  15.650   8.134
  483PNCE   AM2 4327  14.324  15.385   8.170
  483PNCE   T1A 4328  13.738  15.549   7.900
  483PNCE   C2A 4329  13.411  15.213   7.831
  483PNCE   C3A 4330  13.159  14.999   7.502
  483PNCE   C1B 4331  14.025  15.112   7.936
  483PNCE   C2B 4332  13.851  15.180   7.553
  483PNCE   C3B 4333  13.551  15.468   7.397
  483PNCE   D4B 4334  13.307  15.506   7.055
  483PNCE   C5B 4335  13.452  15.660   6.676
  483PNCE   C6B 4336  13.601  15.541   6.270
  484PNCE   AM1 4337  15.487  14.140  10.133
  484PNCE   AM2 4338  15.370  13.869   9.924
  484PNCE   T1A 4339  15.330  14.388   9.802
  484PNCE   C2A 4340  15.096  14.356   9.438
  484PNCE   C3A 4341  14.747  14.508   9.249
  484PNCE   C1B 4342  15.182  13.844   9.482
  484PNCE   C2B 4343  15.160  14.005   9.030
  484PNCE   C3B 4344  15.130  14.130   8.556
  484PNCE   D4B 4345  14.814  14.377   8.338
  484PNCE   C5B 4346  14.803  14.597   7.953
  484PNCE   C6B 4347  14.837  14.602   7.486
  485PNCE   AM1 4348   9.311   6.498   8.491
  485PNCE   AM2 4349   9.632   6.608   8.303
  485PNCE   T1A 4350   9.153   6.870   8.261
  485PNCE   C2A 4351   8.896   7.051   7.949
  485PNCE   C3A 4352   8.845   7.104   7.515
  485PNCE   C1B 4353   9.482   6.295   7.959
  485PNCE   C2B 4354   9.216   6.129   7.602
  485PNCE   C3B 4355   9.101   6.321   7.204
  485PNCE   D4B 4356   8.761   6.352   6.880
  485PNCE   C5B 4357   8.548   6.732   6.883
  485PNCE   C6B 4358   8.309   6.975   6.654
  486PNCE   AM1 4359  14.704  10.159   7.858
  486PNCE   AM2 4360  14.580   9.935   8.044
  486PNCE   T1A 4361  14.763  10.071   7.418
  486PNCE   C2A 4362  14.831   9.905   6.963
  486PNCE   C3A 4363  15.092   9.594   6.747
  486PNCE   C1B 4364  14.218  10.223   7.846
  486PNCE   C2B 4365  13.847  10.291   7.593
  486PNCE   C3B 4366  13.481  10.117   7.412
  486PNCE   D4B 4367  13.377   9.693   7.307
  486PNCE   C5B 4368  13.647   9.484   7.012
  486PNCE   C6B 4369  14.100   9.518   6.990
  487PNCE   AM1 4370   6.462  15.416   8.902
  487PNCE   AM2 4371   6.290  15.303   9.166
  487PNCE   T1A 4372   6.724  15.433   8.573
  487PNCE   C2A 4373   7.083  15.378   8.327
  487PNCE   C3A 4374   7.356  15.189   8.017
  487PNCE   C1B 4375   5.987  15.344   8.780
  487PNCE   C2B 4376   6.036  15.301   8.327
  487PNCE   C3B 4377   6.211  15.316   7.915
  487PNCE   D4B 4378   6.259  15.661   7.674
  487PNCE   C5B 4379   6.666  15.803   7.662
  487PNCE   C6B 4380   7.063   0.025   7.854
  488PNCE   AM1 4381   0.485  13.140   8.701
  488PNCE   AM2 4382   0.735  13.357   8.835
  488PNCE   T1A 4383   0.066  13.088   8.572
  488PNCE   C2A 4384  15.687  12.734   8.412
  488PNCE   C3A 4385  15.527  12.663   8.018
  488PNCE   C1B 4386   0.429  13.656   8.654
  488PNCE   C2B 4387   0.007  13.657   8.653
  488PNCE   C3B 4388  15.598  14.039   8.694
  488PNCE   D4B 4389  15.515  14.354   8.979
  488PNCE   C5B 4390  15.112  14.512   8.901
  488PNCE   C6B 4391  14.715  14.225   8.827
  489XCA    COO 4392   2.392   0.171   9.018
  489XCA     C1 4393   2.429   0.275   8.569
  489XCA     C2 4394   2.630   0.367   8.189
  489XCA     C3 4395   2.766   0.558   7.823
  489XCA     C4 4396   2.884   0.555   7.396
  489XCA     C5 4397   3.108   0.696   7.018
  489XCA     C6 4398   3.341   0.685   6.631
  490CHOL   ROH 4399  10.040   8.617   8.173
  490CHOL    R1 4400  10.024   8.803   7.960
  490CHOL    R2 4401  10.193   9.020   7.939
  490CHOL    R3 4402  10.243   8.918   7.693
  490CHOL    R4 4403  10.326   9.198   7.674
  490CHOL    R5 4404  10.187   9.095   7.542
  490CHOL    C1 4405  10.450   9.204   7.288
  490CHOL    C2 4406  10.819   9.075   7.130
  491CHOL   ROH 4407  11.364   2.092   7.023
  491CHOL    R1 4408  11.529   2.060   6.795
  491CHOL    R2 4409  11.485   2.198   6.560
  491CHOL    R3 4410  11.745   2.273   6.593
  491CHOL    R4 4411  11.673   2.373   6.328
  491CHOL    R5 4412  11.843   2.246   6.376
  491CHOL    C1 4413  12.025   2.544   6.224
  491CHOL    C2 4414  12.035   2.943   6.100
  492CHOL   ROH 4415   3.563   8.881   5.266
  492CHOL    R1 4416   3.500   8.892   5.541
  492CHOL    R2 4417   3.433   8.668   5.688
  492CHOL    R3 4418   3.635   8.752   5.849
  492CHOL    R4 4419   3.471   8.580   6.020
  492CHOL    R5 4420   3.531   8.785   6.062
  492CHOL    C1 4421   3.682   8.609   6.365
  492CHOL    C2 4422   3.889   8.396   6.656
  493PNCE   AM1 4423   3.366  13.612   7.544
  493PNCE   AM2 4424   3.387  13.286   7.459
  493PNCE   T1A 4425   3.060  13.931   7.405
  493PNCE   C2A 4426   2.616  14.056   7.531
  493PNCE   C3A 4427   2.439  14.273   7.888
  493PNCE   C1B 4428   3.476  13.253   6.986
  493PNCE   C2B 4429   3.493  12.908   6.745
  493PNCE   C3B 4430   3.359  12.502   6.794
  493PNCE   D4B 4431   3.329  12.091   6.965
  493PNCE   C5B 4432   2.951  11.984   7.179
  493PNCE   C6B 4433   2.571  12.156   7.381
  494XCA    COO 4434   2.493   4.839   4.669
  494XCA     C1 4435   2.497   4.694   5.119
  494XCA     C2 4436   2.780   4.487   5.433
  494XCA     C3 4437   2.841   4.544   5.885
  494XCA     C4 4438   2.690   4.766   6.231
  494XCA     C5 4439   2.741   4.947   6.625
  494XCA     C6 4440   2.967   4.982   7.029
  495CHOL   ROH 4441  10.622   1.362   4.900
  495CHOL    R1 4442  10.560   1.464   5.157
  495CHOL    R2 4443  10.605   1.320   5.389
  495CHOL    R3 4444  10.743   1.543   5.461
  495CHOL    R4 4445  10.722   1.386   5.707
  495CHOL    R5 4446  10.663   1.594   5.681
  495CHOL    C1 4447  10.919   1.632   5.961
  495CHOL    C2 4448  10.768   1.677   6.370
  496XCA    COO 4449  14.117   7.098   7.974
  496XCA     C1 4450  14.490   7.190   7.724
  496XCA     C2 4451  14.601   7.341   7.338
  496XCA     C3 4452  14.532   7.421   6.907
  496XCA     C4 4453  14.249   7.527   6.548
  496XCA     C5 4454  14.057   7.758   6.182
  496XCA     C6 4455  13.764   8.054   5.960
  497PNCE   AM1 4456  13.753   0.883   8.709
  497PNCE   AM2 4457  13.655   1.226   8.701
  497PNCE   T1A 4458  13.532   0.556   8.405
  497PNCE   C2A 4459  13.267   0.268   8.158
  497PNCE   C3A 4460  13.027   0.260   7.779
  497PNCE   C1B 4461  13.462   1.053   8.290
  497PNCE   C2B 4462  13.200   0.755   7.987
  497PNCE   C3B 4463  13.035   0.788   7.527
  497PNCE   D4B 4464  12.927   1.058   7.133
  497PNCE   C5B 4465  12.644   0.934   6.782
  497PNCE   C6B 4466  12.270   0.816   6.524
  498CHOL   ROH 4467  14.636  13.140   9.092
  498CHOL    R1 4468  14.629  13.201   8.816
  498CHOL    R2 4469  14.395  13.207   8.670
  498CHOL    R3 4470  14.480  13.457   8.605
  498CHOL    R4 4471  14.291  13.384   8.392
  498CHOL    R5 4472  14.496  13.453   8.366
  498CHOL    C1 4473  14.310  13.722   8.169
  498CHOL    C2 4474  14.262  13.808   7.742
  499PNCE   AM1 4475   2.382   6.989   8.051
  499PNCE   AM2 4476   2.697   6.817   8.186
  499PNCE   T1A 4477   2.230   6.877   7.645
  499PNCE   C2A 4478   2.271   6.948   7.217
  499PNCE   C3A 4479   2.353   7.110   6.835
  499PNCE   C1B 4480   2.627   6.609   7.802
  499PNCE   C2B 4481   2.521   6.535   7.374
  499PNCE   C3B 4482   2.562   6.545   6.940
  499PNCE   D4B 4483   2.413   6.522   6.525
  499PNCE   C5B 4484   2.508   6.937   6.393
  499PNCE   C6B 4485   2.669   7.346   6.489
  500PNCE   AM1 4486   8.957   6.114   8.236
  500PNCE   AM2 4487   8.572   6.059   8.178
  500PNCE   T1A 4488   8.762   6.539   8.110
  500PNCE   C2A 4489   8.479   6.757   7.796
  500PNCE   C3A 4490   8.363   7.187   7.682
  500PNCE   C1B 4491   8.617   6.234   7.734
  500PNCE   C2B 4492   8.479   6.450   7.343
  500PNCE   C3B 4493   8.242   6.860   7.291
  500PNCE   D4B 4494   8.378   7.266   7.154
  500PNCE   C5B 4495   8.205   7.465   6.754
  500PNCE   C6B 4496   8.187   7.322   6.296
  501PNCE   AM1 4497   6.857   8.188   8.541
  501PNCE   AM2 4498   6.613   7.912   8.514
  501PNCE   T1A 4499   6.762   8.116   8.077
  501PNCE   C2A 4500   6.893   8.260   7.662
  501PNCE   C3A 4501   7.254   8.192   7.380
  501PNCE   C1B 4502   6.567   7.660   8.130
  501PNCE   C2B 4503   6.472   7.495   7.721
  501PNCE   C3B 4504   6.418   7.388   7.293
  501PNCE   D4B 4505   6.565   7.272   6.882
  501PNCE   C5B 4506   6.544   6.825   6.774
  501PNCE   C6B 4507   6.428   6.647   6.399
  502PNCE   AM1 4508  14.121  10.296   8.351
  502PNCE   AM2 4509  14.161  10.576   8.563
  502PNCE   T1A 4510  13.738  10.433   8.112
  502PNCE   C2A 4511  13.370  10.225   7.901
  502PNCE   C3A 4512  13.378   9.783   7.831
  502PNCE   C1B 4513  14.311  10.876   8.264
  502PNCE   C2B 4514  14.231  10.813   7.855
  502PNCE   C3B 4515  14.239  11.069   7.520
  502PNCE   D4B 4516  14.587  11.255   7.328
  502PNCE   C5B 4517  14.420  11.626   7.131
  502PNCE   C6B 4518  14.040  11.749   6.929
  503CHOL   ROH 4519   5.651  15.145   4.793
  503CHOL    R1 4520   5.529  14.895   4.848
  503CHOL    R2 4521   5.526  14.783   5.101
  503CHOL    R3 4522   5.258  14.774   5.058
  503CHOL    R4 4523   5.305  14.586   5.278
  503CHOL    R5 4524   5.201  14.544   5.092
  503CHOL    C1 4525   4.924  14.463   5.342
  503CHOL    C2 4526   4.682  14.585   5.647
  504CHOL   ROH 4527  14.473   6.332   7.439
  504CHOL    R1 4528  14.339   6.332   7.190
  504CHOL    R2 4529  14.466   6.397   6.953
  504CHOL    R3 4530  14.370   6.156   6.873
  504CHOL    R4 4531  14.411   6.306   6.624
  504CHOL    R5 4532  14.227   6.207   6.688
  504CHOL    C1 4533  14.289   6.026   6.358
  504CHOL    C2 4534  14.212   5.750   6.074
  505CHOL   ROH 4535  10.542  14.287   8.210
  505CHOL    R1 4536  10.765  14.192   8.065
  505CHOL    R2 4537  10.741  14.021   7.850
  505CHOL    R3 4538  10.886  14.212   7.722
  505CHOL    R4 4539  10.909  13.975   7.551
  505CHOL    R5 4540  11.073  14.093   7.630
  505CHOL    C1 4541  11.142  14.127   7.257
  505CHOL    C2 4542  11.227  14.068   6.895
  506CHOL   ROH 4543  11.605   4.850   6.368
  506CHOL    R1 4544  11.561   5.065   6.189
  506CHOL    R2 4545  11.668   5.070   5.935
  506CHOL    R3 4546  11.409   5.109   5.861
  506CHOL    R4 4547  11.566   5.186   5.625
  506CHOL    R5 4548  11.414   5.306   5.726
  506CHOL    C1 4549  11.263   5.288   5.376
  506CHOL    C2 4550  10.968   5.203   5.063
  507CHOL   ROH 4551   9.594   5.554   7.929
  507CHOL    R1 4552   9.721   5.416   7.717
  507CHOL    R2 4553   9.581   5.284   7.520
  507CHOL    R3 4554   9.731   5.438   7.354
  507CHOL    R4 4555   9.640   5.215   7.186
  507CHOL    R5 4556   9.846   5.282   7.215
  507CHOL    C1 4557   9.815   5.321   6.836
  507CHOL    C2 4558  10.011   5.345   6.493
  508PNCE   AM1 4559   1.901  14.856   8.452
  508PNCE   AM2 4560   1.605  14.939   8.634
  508PNCE   T1A 4561   2.144  14.794   8.066
  508PNCE   C2A 4562   2.248  14.722   7.620
  508PNCE   C3A 4563   2.312  14.539   7.211
  508PNCE   C1B 4564   1.291  15.092   8.329
  508PNCE   C2B 4565   1.236  15.128   7.883
  508PNCE   C3B 4566   0.910  15.113   7.572
  508PNCE   D4B 4567   0.786  14.863   7.162
  508PNCE   C5B 4568   1.077  14.811   6.847
  508PNCE   C6B 4569   1.176  14.746   6.454
  509CHOL   ROH 4570  11.684   2.307   7.276
  509CHOL    R1 4571  11.729   2.382   7.007
  509CHOL    R2 4572  11.539   2.513   6.855
  509CHOL    R3 4573  11.740   2.693   6.817
  509CHOL    R4 4574  11.534   2.767   6.621
  509CHOL    R5 4575  11.745   2.726   6.580
  509CHOL    C1 4576  11.720   3.084   6.449
  509CHOL    C2 4577  11.491   3.002   6.146
  510PNCE   AM1 4578  10.061  10.211   8.469
  510PNCE   AM2 4579   9.880   9.929   8.525
  510PNCE   T1A 4580   9.973  10.189   8.032
  510PNCE   C2A 4581   9.874  10.197   7.619
  510PNCE   C3A 4582  10.044  10.184   7.208
  510PNCE   C1B 4583  10.064   9.685   8.193
  510PNCE   C2B 4584  10.148   9.666   7.769
  510PNCE   C3B 4585  10.157   9.574   7.348
  510PNCE   D4B 4586  10.120   9.369   6.940
  510PNCE   C5B 4587  10.456   9.053   6.785
  510PNCE   C6B 4588  10.930   9.165   6.638
  511PNCE   AM1 4589   7.600   7.088   4.177
  511PNCE   AM2 4590   7.798   6.872   4.390
  511PNCE   T1A 4591   7.245   7.057   4.472
  511PNCE   C2A 4592   7.026   6.878   4.826
  511PNCE   C3A 4593   6.648   6.636   4.911
  511PNCE   C1B 4594   7.558   6.774   4.781
  511PNCE   C2B 4595   7.730   6.950   5.154
  511PNCE   C3B 4596   7.994   6.964   5.505
  511PNCE   D4B 4597   8.404   6.807   5.596
  511PNCE   C5B 4598   8.739   7.061   5.680
  511PNCE   C6B 4599   9.092   7.141   5.472
  512CHOL   ROH 4600  10.224   3.309   5.277
  512CHOL    R1 4601  10.044   3.154   5.431
  512CHOL    R2 4602  10.123   2.929   5.570
  512CHOL    R3 4603  10.010   3.058   5.780
  512CHOL    R4 4604  10.043   2.782   5.872
  512CHOL    R5 4605   9.859   2.898   5.874
  512CHOL    C1 4606   9.890   2.818   6.245
  512CHOL    C2 4607  10.106   2.742   6.554
  513CHOL   ROH 4608   0.546  12.748   8.372
  513CHOL    R1 4609   0.382  12.940   8.244
  513CHOL    R2 4610   0.330  12.934   7.973
  513CHOL    R3 4611   0.071  12.938   8.056
  513CHOL    R4 4612   0.059  13.008   7.771
  513CHOL    R5 4613  15.802  13.122   7.936
  513CHOL    C1 4614  15.488  13.055   7.731
  513CHOL    C2 4615  15.383  13.285   7.381
  514PNCE   AM1 4616  13.419  11.398   8.346
  514PNCE   AM2 4617  13.360  11.075   8.283
  514PNCE   T1A 4618  13.373  11.810   8.087
  514PNCE   C2A 4619  13.658  12.094   7.826
  514PNCE   C3A 4620  13.868  12.418   7.546
  514PNCE   C1B 4621  13.295  11.256   7.842
  514PNCE   C2B 4622  12.967  11.500   7.582
  514PNCE   C3B 4623  12.680  11.815   7.718
  514PNCE   D4B 4624  12.600  12.236   7.695
  514PNCE   C5B 4625  12.487  12.476   7.300
  514PNCE   C6B 4626  12.749  12.768   7.049
  515CHOL   ROH 4627   6.974  12.079   6.834
  515CHOL    R1 4628   7.179  11.884   6.839
  515CHOL    R2 4629   7.435  11.939   6.927
  515CHOL    R3 4630   7.389  11.728   7.092
  515CHOL    R4 4631   7.681  11.755   7.084
  515CHOL    R5 4632   7.567  11.575   7.042
  515CHOL    C1 4633   7.783  11.450   7.331
  515CHOL    C2 4634   8.026  11.295   7.668
  516CHOL   ROH 4635  11.976  12.611   7.397
  516CHOL    R1 4636  11.776  12.795   7.318
  516CHOL    R2 4637  11.533  12.714   7.215
  516CHOL    R3 4638  11.433  12.870   7.413
  516CHOL    R4 4639  11.202  12.811   7.243
  516CHOL    R5 4640  11.271  13.008   7.305
  516CHOL    C1 4641  10.916  13.015   7.445
  516CHOL    C2 4642  10.617  12.770   7.518
  517PNCE   AM1 4643   6.284   4.001   8.687
  517PNCE   AM2 4644   5.940   4.140   8.735
  517PNCE   T1A 4645   6.310   3.543   8.523
  517PNCE   C2A 4646   6.391   3.192   8.214
  517PNCE   C3A 4647   6.327   2.843   7.940
  517PNCE   C1B 4648   5.859   4.112   8.295
  517PNCE   C2B 4649   6.089   3.795   8.102
  517PNCE   C3B 4650   6.147   3.452   7.831
  517PNCE   D4B 4651   6.533   3.289   7.677
  517PNCE   C5B 4652   6.560   2.877   7.497
  517PNCE   C6B 4653   6.653   2.451   7.634
  518PNCE   AM1 4654   0.706  10.119   8.205
  518PNCE   AM2 4655   0.969   9.932   8.227
  518PNCE   T1A 4656   0.822  10.439   7.862
  518PNCE   C2A 4657   0.865  10.727   7.507
  518PNCE   C3A 4658   0.915  10.932   7.100
  518PNCE   C1B 4659   1.170  10.090   7.814
  518PNCE   C2B 4660   1.404  10.252   7.434
  518PNCE   C3B 4661   1.578  10.393   7.015
  518PNCE   D4B 4662   1.801  10.330   6.626
  518PNCE   C5B 4663   1.602  10.015   6.403
  518PNCE   C6B 4664   1.431   9.608   6.345
  519XCA    COO 4665   3.082  11.247   8.167
  519XCA     C1 4666   3.032  11.417   7.728
  519XCA     C2 4667   2.774  11.757   7.634
  519XCA     C3 4668   2.346  11.710   7.488
  519XCA     C4 4669   2.044  11.952   7.225
  519XCA     C5 4670   1.937  11.945   6.807
  519XCA     C6 4671   1.566  12.111   6.620
  520XCA    COO 4672   5.656   6.389   4.338
  520XCA     C1 4673   5.728   6.445   4.808
  520XCA     C2 4674   5.701   6.320   5.233
  520XCA     C3 4675   5.748   6.360   5.684
  520XCA     C4 4676   5.740   6.041   5.999
  520XCA     C5 4677   5.584   5.933   6.408
  520XCA     C6 4678   5.264   6.173   6.619
  521XCA    COO 4679   5.843   1.880   9.243
  521XCA     C1 4680   5.889   1.879   8.795
  521XCA     C2 4681   5.943   1.630   8.449
  521XCA     C3 4682   6.089   1.667   8.044
  521XCA     C4 4683   6.133   1.730   7.624
  521XCA     C5 4684   6.131   1.837   7.209
  521XCA     C6 4685   5.900   1.932   6.809
  522PNCE   AM1 4686   7.665   9.905   8.823
  522PNCE   AM2 4687   7.921   9.728   8.628
  522PNCE   T1A 4688   7.813  10.244   8.502
  522PNCE   C2A 4689   7.763  10.672   8.315
  522PNCE   C3A 4690   7.358  10.859   8.293
  522PNCE   C1B 4691   7.865   9.826   8.156
  522PNCE   C2B 4692   7.931   9.903   7.663
  522PNCE   C3B 4693   7.966   9.972   7.193
  522PNCE   D4B 4694   8.035  10.231   6.796
  522PNCE   C5B 4695   7.719  10.453   6.516
  522PNCE   C6B 4696   7.393  10.711   6.277
  523CHOL   ROH 4697   9.337  10.966   8.421
  523CHOL    R1 4698   9.200  11.036   8.183
  523CHOL    R2 4699   9.331  11.108   7.951
  523CHOL    R3 4700   9.179  10.911   7.842
  523CHOL    R4 4701   9.247  11.085   7.617
  523CHOL    R5 4702   9.047  11.022   7.677
  523CHOL    C1 4703   9.055  10.887   7.320
  523CHOL    C2 4704   9.058  10.913   6.887
  524XCA    COO 4705   8.628  14.548   9.121
  524XCA     C1 4706   8.718  14.702   8.666
  524XCA     C2 4707   8.656  14.874   8.200
  524XCA     C3 4708   8.902  14.976   7.789
  524XCA     C4 4709   9.125  15.265   7.470
  524XCA     C5 4710   9.413  15.420   7.163
  524XCA     C6 4711   9.873  15.477   7.213
  525CHOL   ROH 4712  10.597   4.510   4.378
  525CHOL    R1 4713  10.766   4.399   4.576
  525CHOL    R2 4714  10.896   4.158   4.541
  525CHOL    R3 4715  11.117   4.305   4.601
  525CHOL    R4 4716  11.200   4.027   4.642
  525CHOL    R5 4717  11.217   4.189   4.786
  525CHOL    C1 4718  11.584   4.089   4.756
  525CHOL    C2 4719  11.919   3.914   4.973
  526PNCE   AM1 4720  10.791  15.439   9.678
  526PNCE   AM2 4721  10.819  15.098   9.739
  526PNCE   T1A 4722  10.707  15.534   9.233
  526PNCE   C2A 4723  10.560  15.656   8.811
  526PNCE   C3A 4724  10.519  15.547   8.377
  526PNCE   C1B 4725  10.862  14.999   9.272
  526PNCE   C2B 4726  10.979  14.818   8.860
  526PNCE   C3B 4727  10.993  14.952   8.441
  526PNCE   D4B 4728  11.000  15.095   8.003
  526PNCE   C5B 4729  11.358  15.012   7.701
  526PNCE   C6B 4730  11.606  14.861   7.337
  527XCA    COO 4731  13.052  11.699   8.521
  527XCA     C1 4732  12.854  11.524   8.105
  527XCA     C2 4733  12.529  11.327   7.790
  527XCA     C3 4734  12.438  11.391   7.341
  527XCA     C4 4735  12.369  11.185   6.950
  527XCA     C5 4736  12.392  10.782   6.745
  527XCA     C6 4737  12.363  10.636   6.299
  528CHOL   ROH 4738   7.620   9.089   4.597
  528CHOL    R1 4739   7.589   8.990   4.860
  528CHOL    R2 4740   7.387   8.816   4.931
  528CHOL    R3 4741   7.593   8.664   5.022
  528CHOL    R4 4742   7.359   8.571   5.173
  528CHOL    R5 4743   7.549   8.639   5.257
  528CHOL    C1 4744   7.537   8.285   5.399
  528CHOL    C2 4745   7.839   8.083   5.624
  529XCA    COO 4746  12.005   2.907   4.723
  529XCA     C1 4747  12.344   3.037   5.010
  529XCA     C2 4748  12.602   2.825   5.291
  529XCA     C3 4749  12.792   2.913   5.674
  529XCA     C4 4750  12.794   3.017   6.099
  529XCA     C5 4751  12.979   2.847   6.474
  529XCA     C6 4752  12.827   2.737   6.860
  530PNCE   AM1 4753  13.696   6.261   8.088
  530PNCE   AM2 4754  13.445   6.527   8.003
  530PNCE   T1A 4755  13.468   6.125   7.694
  530PNCE   C2A 4756  13.475   6.198   7.252
  530PNCE   C3A 4757  13.652   6.253   6.883
  530PNCE   C1B 4758  13.444   6.624   7.516
  530PNCE   C2B 4759  13.390   6.687   7.037
  530PNCE   C3B 4760  13.556   6.883   6.630
  530PNCE   D4B 4761  13.826   6.831   6.232
  530PNCE   C5B 4762  14.252   6.632   6.306
  530PNCE   C6B 4763  14.535   6.326   6.095
  531CHOL   ROH 4764   7.409  14.716   5.746
  531CHOL    R1 4765   7.288  14.475   5.834
  531CHOL    R2 4766   7.351  14.357   6.075
  531CHOL    R3 4767   7.083  14.369   6.114
  531CHOL    R4 4768   7.169  14.135   6.267
  531CHOL    R5 4769   7.012  14.141   6.117
  531CHOL    C1 4770   6.811  14.017   6.417
  531CHOL    C2 4771   6.461  14.011   6.679
  532PNCE   AM1 4772   2.254   8.076   8.426
  532PNCE   AM2 4773   2.068   7.876   8.193
  532PNCE   T1A 4774   2.543   8.371   8.161
  532PNCE   C2A 4775   2.686   8.768   7.997
  532PNCE   C3A 4776   2.603   9.124   7.726
  532PNCE   C1B 4777   2.084   8.312   7.970
  532PNCE   C2B 4778   2.202   8.734   7.766
  532PNCE   C3B 4779   2.138   8.793   7.354
  532PNCE   D4B 4780   2.077   8.970   6.978
  532PNCE   C5B 4781   2.197   8.829   6.598
  532PNCE   C6B 4782   2.509   8.660   6.317
  533PNCE   AM1 4783  15.702  11.628   8.998
  533PNCE   AM2 4784  15.563  11.380   8.755
  533PNCE   T1A 4785  15.737  11.929   8.633
  533PNCE   C2A 4786   0.088  12.265   8.394
  533PNCE   C3A 4787   0.299  12.466   8.052
  533PNCE   C1B 4788  15.620  11.102   8.346
  533PNCE   C2B 4789  15.752  10.854   7.975
  533PNCE   C3B 4790   0.079  10.939   7.558
  533PNCE   D4B 4791   0.383  10.704   7.308
  533PNCE   C5B 4792   0.395  10.231   7.341
  533PNCE   C6B 4793   0.322   9.806   7.179
  534PNCE   AM1 4794   3.503   9.806   8.216
  534PNCE   AM2 4795   3.621   9.494   8.130
  534PNCE   T1A 4796   3.507   9.804   7.744
  534PNCE   C2A 4797   3.712   9.772   7.330
  534PNCE   C3A 4798   3.825   9.521   6.936
  534PNCE   C1B 4799   3.172   9.395   8.202
  534PNCE   C2B 4800   2.720   9.304   8.199
  534PNCE   C3B 4801   2.289   9.143   8.144
  534PNCE   D4B 4802   1.996   9.231   7.813
  534PNCE   C5B 4803   1.622   9.323   8.000
  534PNCE   C6B 4804   1.532   9.361   8.417
  535PNCE   AM1 4805  12.835   6.833   8.051
  535PNCE   AM2 4806  13.165   6.958   8.029
  535PNCE   T1A 4807  12.592   6.964   7.696
  535PNCE   C2A 4808  12.342   7.103   7.345
  535PNCE   C3A 4809  11.948   7.069   7.093
  535PNCE   C1B 4810  13.085   6.996   7.566
  535PNCE   C2B 4811  12.907   6.958   7.165
  535PNCE   C3B 4812  12.798   6.634   6.896
  535PNCE   D4B 4813  12.667   6.566   6.503
  535PNCE   C5B 4814  12.624   6.232   6.222
  535PNCE   C6B 4815  12.665   6.007   5.820
  536CHOL   ROH 4816  15.160   8.038   7.542
  536CHOL    R1 4817  15.370   8.120   7.370
  536CHOL    R2 4818  15.347   8.114   7.095
  536CHOL    R3 4819  15.419   8.376   7.116
  536CHOL    R4 4820  15.427   8.319   6.828
  536CHOL    R5 4821  15.587   8.405   6.948
  536CHOL    C1 4822  15.540   8.684   6.693
  536CHOL    C2 4823  15.654   8.964   6.369
  537CHOL   ROH 4824   8.896   6.762   7.203
  537CHOL    R1 4825   9.159   6.853   7.253
  537CHOL    R2 4826   9.382   6.699   7.200
  537CHOL    R3 4827   9.458   6.916   7.056
  537CHOL    R4 4828   9.682   6.729   7.030
  537CHOL    R5 4829   9.693   6.936   7.097
  537CHOL    C1 4830   9.928   6.950   6.797
  537CHOL    C2 4831  10.121   6.855   6.444
  538PNCE   AM1 4832   1.120   1.592   4.692
  538PNCE   AM2 4833   0.866   1.814   4.776
  538PNCE   T1A 4834   1.407   1.646   5.037
  538PNCE   C2A 4835   1.541   1.787   5.498
  538PNCE   C3A 4836   1.366   1.970   5.886
  538PNCE   C1B 4837   0.664   1.844   5.189
  538PNCE   C2B 4838   0.523   1.801   5.603
  538PNCE   C3B 4839   0.459   1.905   6.009
  538PNCE   D4B 4840   0.591   2.066   6.396
  538PNCE   C5B 4841   0.697   1.873   6.753
  538PNCE   C6B 4842   0.814   1.613   7.139
  539XCA    COO 4843   6.757   8.855   4.460
  539XCA     C1 4844   6.928   8.821   4.875
  539XCA     C2 4845   6.869   8.646   5.274
  539XCA     C3 4846   7.086   8.407   5.568
  539XCA     C4 4847   6.902   8.126   5.870
  539XCA     C5 4848   6.920   7.714   6.106
  539XCA     C6 4849   6.603   7.494   6.404
  540CHOL   ROH 4850  13.492   6.724   5.480
  540CHOL    R1 4851  13.328   6.649   5.698
  540CHOL    R2 4852  13.405   6.683   5.961
  540CHOL    R3 4853  13.169   6.817   5.979
  540CHOL    R4 4854  13.253   6.776   6.257
  540CHOL    R5 4855  13.060   6.721   6.170
  540CHOL    C1 4856  12.942   6.956   6.447
  540CHOL    C2 4857  12.613   7.078   6.716
  541PNCE   AM1 4858   2.091   7.352   7.738
  541PNCE   AM2 4859   1.809   7.536   7.856
  541PNCE   T1A 4860   1.918   7.526   7.340
  541PNCE   C2A 4861   1.726   7.667   6.966
  541PNCE   C3A 4862   1.352   7.898   6.906
  541PNCE   C1B 4863   1.713   7.996   7.836
  541PNCE   C2B 4864   1.445   8.351   7.800
  541PNCE   C3B 4865   1.240   8.694   7.574
  541PNCE   D4B 4866   1.167   8.977   7.181
  541PNCE   C5B 4867   1.146   8.807   6.743
  541PNCE   C6B 4868   0.949   8.462   6.533
  542PNCE   AM1 4869   0.315   6.926   7.729
  542PNCE   AM2 4870   0.116   6.746   7.945
  542PNCE   T1A 4871   0.316   6.592   7.436
  542PNCE   C2A 4872   0.382   6.420   7.031
  542PNCE   C3A 4873   0.547   6.622   6.646
  542PNCE   C1B 4874  15.664   6.537   7.653
  542PNCE   C2B 4875  15.301   6.559   7.368
  542PNCE   C3B 4876  15.235   6.208   7.054
  542PNCE   D4B 4877  15.164   5.886   6.799
  542PNCE   C5B 4878  15.448   5.731   6.499
  542PNCE   C6B 4879  15.825   5.644   6.283
  543PNCE   AM1 4880   7.836   8.545   8.791
  543PNCE   AM2 4881   8.191   8.479   8.793
  543PNCE   T1A 4882   7.850   8.970   8.592
  543PNCE   C2A 4883   7.776   9.305   8.269
  543PNCE   C3A 4884   7.790   9.440   7.832
  543PNCE   C1B 4885   8.049   8.568   8.328
  543PNCE   C2B 4886   7.806   8.402   7.977
  543PNCE   C3B 4887   7.424   8.519   7.754
  543PNCE   D4B 4888   7.145   8.683   7.455
  543PNCE   C5B 4889   7.290   9.057   7.313
  543PNCE   C6B 4890   7.262   9.381   7.002
  544CHOL   ROH 4891   5.465  11.536   4.476
  544CHOL    R1 4892   5.358  11.453   4.724
  544CHOL    R2 4893   5.469  11.250   4.875
  544CHOL    R3 4894   5.471  11.439   5.070
  544CHOL    R4 4895   5.467  11.185   5.214
  544CHOL    R5 4896   5.329  11.350   5.241
  544CHOL    C1 4897   5.468  11.324   5.595
  544CHOL    C2 4898   5.435  11.127   5.983
  545PNCE   AM1 4899   9.707  10.617   8.564
  545PNCE   AM2 4900   9.776  10.967   8.618
  545PNCE   T1A 4901  10.025  10.673   8.234
  545PNCE   C2A 4902  10.019  10.698   7.802
  545PNCE   C3A 4903   9.906  10.640   7.391
  545PNCE   C1B 4904   9.765  11.104   8.137
  545PNCE   C2B 4905   9.748  11.091   7.637
  545PNCE   C3B 4906  10.036  11.072   7.209
  545PNCE   D4B 4907  10.274  10.902   6.829
  545PNCE   C5B 4908  10.048  10.762   6.462
  545PNCE   C6B 4909  10.131  10.588   6.060
  546PNCE   AM1 4910   5.955   4.622   8.546
  546PNCE   AM2 4911   6.249   4.462   8.427
  546PNCE   T1A 4912   5.855   4.594   8.084
  546PNCE   C2A 4913   5.812   4.278   7.756
  546PNCE   C3A 4914   5.884   3.861   7.628
  546PNCE   C1B 4915   6.276   4.274   7.993
  546PNCE   C2B 4916   6.470   3.893   7.782
  546PNCE   C3B 4917   6.324   3.701   7.403
  546PNCE   D4B 4918   5.983   3.787   7.137
  546PNCE   C5B 4919   5.996   3.990   6.750
  546PNCE   C6B 4920   6.198   3.816   6.392
  547PNCE   AM1 4921   4.850   3.850   8.636
  547PNCE   AM2 4922   4.965   3.994   8.346
  547PNCE   T1A 4923   4.745   3.420   8.467
  547PNCE   C2A 4924   4.585   2.965   8.527
  547PNCE   C3A 4925   4.274   2.586   8.542
  547PNCE   C1B 4926   4.950   3.974   7.899
  547PNCE   C2B 4927   5.348   3.954   7.648
  547PNCE   C3B 4928   5.488   3.734   7.297
  547PNCE   D4B 4929   5.532   3.789   6.873
  547PNCE   C5B 4930   5.523   4.225   6.791
  547PNCE   C6B 4931   5.749   4.585   6.955
  548PNCE   AM1 4932   6.282   7.245   8.158
  548PNCE   AM2 4933   6.244   6.923   8.061
  548PNCE   T1A 4934   6.068   7.636   8.030
  548PNCE   C2A 4935   5.708   7.829   7.845
  548PNCE   C3A 4936   5.641   7.836   7.406
  548PNCE   C1B 4937   6.436   6.976   7.651
  548PNCE   C2B 4938   6.235   6.868   7.291
  548PNCE   C3B 4939   6.094   6.961   6.911
  548PNCE   D4B 4940   6.216   7.159   6.527
  548PNCE   C5B 4941   5.820   7.402   6.441
  548PNCE   C6B 4942   5.489   7.573   6.164
  549CHOL   ROH 4943  13.231  12.488   8.218
  549CHOL    R1 4944  13.489  12.392   8.154
  549CHOL    R2 4945  13.671  12.540   8.008
  549CHOL    R3 4946  13.833  12.491   8.221
  549CHOL    R4 4947  14.016  12.526   7.995
  549CHOL    R5 4948  14.010  12.356   8.132
  549CHOL    C1 4949  14.369  12.472   8.187
  549CHOL    C2 4950  14.506  12.382   7.853
  550XCA    COO 4951   0.316   7.484   4.291
  550XCA     C1 4952   0.341   7.413   4.770
  550XCA     C2 4953   0.127   7.534   5.137
  550XCA     C3 4954  15.759   7.352   5.484
  550XCA     C4 4955  15.362   7.130   5.472
  550XCA     C5 4956  15.114   7.093   5.120
  550XCA     C6 4957  14.941   7.029   4.708
  551PNCE   AM1 4958  12.625   2.381   8.483
  551PNCE   AM2 4959  12.866   2.220   8.275
  551PNCE   T1A 4960  12.567   2.689   8.148
  551PNCE   C2A 4961  12.669   2.764   7.706
  551PNCE   C3A 4962  12.656   2.578   7.307
  551PNCE   C1B 4963  12.690   2.268   7.852
  551PNCE   C2B 4964  12.573   2.103   7.456
  551PNCE   C3B 4965  12.286   1.928   7.203
  551PNCE   D4B 4966  11.991   2.000   6.884
  551PNCE   C5B 4967  12.005   1.766   6.508
  551PNCE   C6B 4968  12.129   1.499   6.145
  552XCA    COO 4969  10.416  14.776   9.832
  552XCA     C1 4970  10.475  14.669   9.369
  552XCA     C2 4971  10.670  14.441   9.021
  552XCA     C3 4972  10.849  14.370   8.596
  552XCA     C4 4973  11.092  14.490   8.249
  552XCA     C5 4974  11.172  14.561   7.853
  552XCA     C6 4975  11.397  14.441   7.514
  553PNCE   AM1 4976   0.767  12.511   8.783
  553PNCE   AM2 4977   0.842  12.835   8.945
  553PNCE   T1A 4978   0.458  12.131   8.730
  553PNCE   C2A 4979   0.304  11.767   8.388
  553PNCE   C3A 4980   0.348  11.764   7.948
  553PNCE   C1B 4981   0.928  13.009   8.487
  553PNCE   C2B 4982   0.798  13.010   8.025
  553PNCE   C3B 4983   0.970  12.952   7.610
  553PNCE   D4B 4984   1.309  12.738   7.379
  553PNCE   C5B 4985   1.533  13.027   7.112
  553PNCE   C6B 4986   1.402  13.485   6.994
  554CHOL   ROH 4987   6.328   5.065   4.519
  554CHOL    R1 4988   6.298   5.164   4.783
  554CHOL    R2 4989   6.153   5.391   4.840
  554CHOL    R3 4990   6.023   5.226   5.013
  554CHOL    R4 4991   6.026   5.486   5.148
  554CHOL    R5 4992   6.096   5.296   5.230
  554CHOL    C1 4993   5.831   5.385   5.489
  554CHOL    C2 4994   6.056   5.572   5.686
  555CHOL   ROH 4995   5.129   8.834   5.388
  555CHOL    R1 4996   5.280   8.762   5.616
  555CHOL    R2 4997   5.423   8.945   5.764
  555CHOL    R3 4998   5.278   8.843   5.971
  555CHOL    R4 4999   5.529   8.933   6.093
  555CHOL    R5 5000   5.441   8.735   6.109
  555CHOL    C1 5001   5.455   8.830   6.478
  555CHOL    C2 5002   5.442   8.782   6.882
  556CHOL   ROH 5003  15.156   3.128   8.593
  556CHOL    R1 5004  15.385   3.066   8.437
  556CHOL    R2 5005  15.417   3.157   8.178
  556CHOL    R3 5006  15.652   3.253   8.275
  556CHOL    R4 5007  15.700   3.214   7.989
  556CHOL    R5 5008  15.820   3.134   8.152
  556CHOL    C1 5009   0.257   3.338   7.969
  556CHOL    C2 5010   0.288   3.047   7.758
  557PNCE   AM1 5011  11.450  10.216   8.391
  557PNCE   AM2 5012  11.548   9.925   8.233
  557PNCE   T1A 5013  11.388  10.412   7.953
  557PNCE   C2A 5014  11.389  10.368   7.490
  557PNCE   C3A 5015  11.565  10.202   7.101
  557PNCE   C1B 5016  11.582   9.960   7.768
  557PNCE   C2B 5017  11.803   9.827   7.371
  557PNCE   C3B 5018  11.581   9.701   6.978
  557PNCE   D4B 5019  11.193   9.848   6.826
  557PNCE   C5B 5020  11.054  10.279   6.938
  557PNCE   C6B 5021  10.730  10.621   6.779
  558CHOL   ROH 5022  11.399  12.444   6.120
  558CHOL    R1 5023  11.390  12.361   6.390
  558CHOL    R2 5024  11.233  12.152   6.477
  558CHOL    R3 5025  11.468  12.059   6.578
  558CHOL    R4 5026  11.261  11.915   6.728
  558CHOL    R5 5027  11.426  12.031   6.812
  558CHOL    C1 5028  11.498  11.690   6.968
  558CHOL    C2 5029  11.181  11.465   6.919
  559PNCE   AM1 5030   4.840   1.277   9.243
  559PNCE   AM2 5031   5.058   1.006   9.127
  559PNCE   T1A 5032   4.669   1.268   8.805
  559PNCE   C2A 5033   4.717   1.300   8.344
  559PNCE   C3A 5034   4.979   1.067   8.018
  559PNCE   C1B 5035   5.192   1.241   8.734
  559PNCE   C2B 5036   5.587   1.241   8.491
  559PNCE   C3B 5037   5.644   1.264   8.058
  559PNCE   D4B 5038   5.579   1.090   7.633
  559PNCE   C5B 5039   5.166   0.956   7.521
  559PNCE   C6B 5040   4.725   0.893   7.605
  560PNCE   AM1 5041   0.266   5.888   7.998
  560PNCE   AM2 5042   0.153   6.208   7.924
  560PNCE   T1A 5043   0.493   5.729   7.581
  560PNCE   C2A 5044   0.905   5.602   7.430
  560PNCE   C3A 5045   1.386   5.518   7.411
  560PNCE   C1B 5046   0.174   6.100   7.475
  560PNCE   C2B 5047   0.297   5.875   7.107
  560PNCE   C3B 5048   0.424   5.622   6.745
  560PNCE   D4B 5049   0.609   5.243   6.622
  560PNCE   C5B 5050   1.077   5.174   6.700
  560PNCE   C6B 5051   1.437   5.121   7.027
  561PNCE   AM1 5052   7.568   4.383   8.593
  561PNCE   AM2 5053   7.710   4.257   8.304
  561PNCE   T1A 5054   7.226   4.091   8.374
  561PNCE   C2A 5055   7.202   3.615   8.222
  561PNCE   C3A 5056   6.974   3.248   7.998
  561PNCE   C1B 5057   7.537   3.991   7.955
  561PNCE   C2B 5058   7.611   3.942   7.522
  561PNCE   C3B 5059   7.621   3.994   7.113
  561PNCE   D4B 5060   7.746   3.960   6.680
  561PNCE   C5B 5061   8.124   3.696   6.550
  561PNCE   C6B 5062   8.442   3.434   6.329
  562PNCE   AM1 5063  10.563   2.901   4.687
  562PNCE   AM2 5064  10.548   2.563   4.617
  562PNCE   T1A 5065  10.662   3.230   4.978
  562PNCE   C2A 5066  10.700   3.282   5.400
  562PNCE   C3A 5067  10.896   3.406   5.797
  562PNCE   C1B 5068  10.649   2.429   5.067
  562PNCE   C2B 5069  10.737   2.418   5.500
  562PNCE   C3B 5070  10.866   2.456   5.946
  562PNCE   D4B 5071  11.215   2.549   6.272
  562PNCE   C5B 5072  11.103   2.449   6.724
  562PNCE   C6B 5073  10.804   2.455   7.089
  563PNCE   AM1 5074  15.304   5.725   7.748
  563PNCE   AM2 5075  15.615   5.716   7.918
  563PNCE   T1A 5076  15.496   6.067   7.484
  563PNCE   C2A 5077  15.715   6.337   7.144
  563PNCE   C3A 5078  15.711   6.538   6.733
  563PNCE   C1B 5079  15.761   5.607   7.493
  563PNCE   C2B 5080   0.049   5.402   7.126
  563PNCE   C3B 5081   0.021   5.326   6.705
  563PNCE   D4B 5082   0.163   5.127   6.352
  563PNCE   C5B 5083   0.381   5.379   6.057
  563PNCE   C6B 5084   0.725   5.612   5.854
  564PNCE   AM1 5085   2.207  10.121   8.371
  564PNCE   AM2 5086   2.174  10.473   8.225
  564PNCE   T1A 5087   2.403  10.112   7.936
  564PNCE   C2A 5088   2.424  10.077   7.470
  564PNCE   C3A 5089   2.354  10.210   7.033
  564PNCE   C1B 5090   1.982  10.432   7.772
  564PNCE   C2B 5091   1.926  10.229   7.370
  564PNCE   C3B 5092   1.904   9.980   6.997
  564PNCE   D4B 5093   2.126   9.845   6.617
  564PNCE   C5B 5094   1.951   9.726   6.184
  564PNCE   C6B 5095   1.822   9.554   5.771
  565CHOL   ROH 5096  13.644   4.881   4.715
  565CHOL    R1 5097  13.840   4.720   4.840
  565CHOL    R2 5098  13.857   4.692   5.114
  565CHOL    R3 5099  13.843   4.427   5.056
  565CHOL    R4 5100  13.943   4.438   5.331
  565CHOL    R5 5101  14.035   4.332   5.164
  565CHOL    C1 5102  13.980   4.041   5.403
  565CHOL    C2 5103  13.775   3.794   5.605
  566CHOL   ROH 5104   1.865   1.267   4.903
  566CHOL    R1 5105   1.852   1.272   5.186
  566CHOL    R2 5106   1.635   1.372   5.323
  566CHOL    R3 5107   1.640   1.129   5.444
  566CHOL    R4 5108   1.468   1.293   5.616
  566CHOL    R5 5109   1.643   1.179   5.678
  566CHOL    C1 5110   1.376   1.019   5.900
  566CHOL    C2 5111   1.405   1.078   6.305
  567PNCE   AM1 5112  13.550   5.716   8.220
  567PNCE   AM2 5113  13.383   5.608   7.937
  567PNCE   T1A 5114  13.854   5.814   7.892
  567PNCE   C2A 5115  14.245   5.658   7.745
  567PNCE   C3A 5116  14.567   5.935   7.665
  567PNCE   C1B 5117  13.509   5.651   7.493
  567PNCE   C2B 5118  13.600   5.685   7.027
  567PNCE   C3B 5119  13.626   5.515   6.586
  567PNCE   D4B 5120  13.822   5.389   6.220
  567PNCE   C5B 5121  14.172   5.260   6.344
  567PNCE   C6B 5122  14.565   5.393   6.282
  568PNCE   AM1 5123   8.765   5.413   7.802
  568PNCE   AM2 5124   8.667   5.738   7.766
  568PNCE   T1A 5125   9.064   5.165   7.654
  568PNCE   C2A 5126   9.202   5.093   7.289
  568PNCE   C3A 5127   9.306   5.180   6.862
  568PNCE   C1B 5128   8.784   5.947   7.336
  568PNCE   C2B 5129   8.993   5.909   6.921
  568PNCE   C3B 5130   9.176   5.964   6.516
  568PNCE   D4B 5131   9.136   6.370   6.393
  568PNCE   C5B 5132   8.838   6.701   6.395
  568PNCE   C6B 5133   8.574   6.997   6.160
  569PNCE   AM1 5134   4.103  13.268   7.801
  569PNCE   AM2 5135   4.413  13.355   7.922
  569PNCE   T1A 5136   4.301  13.096   7.424
  569PNCE   C2A 5137   4.577  12.743   7.291
  569PNCE   C3A 5138   4.655  12.431   7.003
  569PNCE   C1B 5139   4.714  13.326   7.587
  569PNCE   C2B 5140   4.734  13.203   7.164
  569PNCE   C3B 5141   4.941  12.867   6.941
  569PNCE   D4B 5142   4.916  12.709   6.558
  569PNCE   C5B 5143   4.525  12.532   6.470
  569PNCE   C6B 5144   4.143  12.370   6.279
  570CHOL   ROH 5145   8.048   3.248   8.544
  570CHOL    R1 5146   8.231   3.264   8.329
  570CHOL    R2 5147   8.161   3.364   8.081
  570CHOL    R3 5148   8.375   3.528   8.123
  570CHOL    R4 5149   8.327   3.541   7.835
  570CHOL    R5 5150   8.515   3.493   7.933
  570CHOL    C1 5151   8.623   3.798   7.731
  570CHOL    C2 5152   8.960   4.014   7.609
  571XCA    COO 5153   4.664   8.755   8.158
  571XCA     C1 5154   4.577   8.693   7.704
  571XCA     C2 5155   4.522   8.660   7.255
  571XCA     C3 5156   4.394   8.518   6.840
  571XCA     C4 5157   4.342   8.145   6.556
  571XCA     C5 5158   4.386   7.641   6.533
  571XCA     C6 5159   4.573   7.369   6.908
  572PNCE   AM1 5160   2.981   3.271   8.716
  572PNCE   AM2 5161   3.094   3.634   8.693
  572PNCE   T1A 5162   2.652   3.285   8.445
  572PNCE   C2A 5163   2.458   3.348   8.076
  572PNCE   C3A 5164   2.166   3.179   7.831
  572PNCE   C1B 5165   3.155   3.483   8.256
  572PNCE   C2B 5166   3.503   3.615   7.965
  572PNCE   C3B 5167   3.615   3.484   7.533
  572PNCE   D4B 5168   3.820   3.221   7.220
  572PNCE   C5B 5169   3.714   3.189   6.768
  572PNCE   C6B 5170   3.464   3.059   6.407
  573CHOL   ROH 5171   0.359   0.722   5.288
  573CHOL    R1 5172   0.132   0.767   5.451
  573CHOL    R2 5173   0.085   1.007   5.578
  573CHOL    R3 5174  15.675   0.991   5.450
  573CHOL    R4 5175  15.635   1.197   5.654
  573CHOL    R5 5176  15.512   1.020   5.623
  573CHOL    C1 5177  15.248   1.292   5.579
  573CHOL    C2 5178  15.120   1.695   5.494
  574PNCE   AM1 5179   6.351  12.700   8.687
  574PNCE   AM2 5180   6.046  12.590   8.628
  574PNCE   T1A 5181   6.706  12.731   8.460
  574PNCE   C2A 5182   6.909  12.892   8.137
  574PNCE   C3A 5183   7.142  12.842   7.771
  574PNCE   C1B 5184   6.142  12.482   8.166
  574PNCE   C2B 5185   6.310  12.432   7.734
  574PNCE   C3B 5186   6.385  12.611   7.320
  574PNCE   D4B 5187   6.366  12.557   6.848
  574PNCE   C5B 5188   6.711  12.496   6.562
  574PNCE   C6B 5189   7.039  12.760   6.402
  575PNCE   AM1 5190  14.288   2.355   8.510
  575PNCE   AM2 5191  13.957   2.421   8.459
  575PNCE   T1A 5192  14.380   2.173   8.088
  575PNCE   C2A 5193  14.571   2.140   7.668
  575PNCE   C3A 5194  14.411   2.031   7.236
  575PNCE   C1B 5195  14.045   2.564   8.002
  575PNCE   C2B 5196  14.103   2.936   7.709
  575PNCE   C3B 5197  13.933   3.351   7.604
  575PNCE   D4B 5198  13.601   3.595   7.417
  575PNCE   C5B 5199  13.382   3.482   7.036
  575PNCE   C6B 5200  13.123   3.695   6.743
  576XCA    COO 5201  11.876   4.957   4.458
  576XCA     C1 5202  11.706   4.877   4.841
  576XCA     C2 5203  11.552   4.934   5.222
  576XCA     C3 5204  11.408   4.733   5.577
  576XCA     C4 5205  11.113   4.724   5.902
  576XCA     C5 5206  10.762   4.862   6.127
  576XCA     C6 5207  10.666   4.946   6.565
  577XCA    COO 5208   1.631   3.878   9.003
  577XCA     C1 5209   1.825   3.966   8.552
  577XCA     C2 5210   1.871   4.143   8.099
  577XCA     C3 5211   1.907   4.082   7.668
  577XCA     C4 5212   1.955   3.873   7.362
  577XCA     C5 5213   1.936   3.427   7.437
  577XCA     C6 5214   1.723   3.010   7.602
  578PNCE   AM1 5215   4.547  11.468   7.649
  578PNCE   AM2 5216   4.256  11.498   7.744
  578PNCE   T1A 5217   4.732  11.379   7.213
  578PNCE   C2A 5218   4.764  11.089   6.841
  578PNCE   C3A 5219   4.473  10.832   6.582
  578PNCE   C1B 5220   4.253  11.676   7.275
  578PNCE   C2B 5221   4.024  11.604   6.898
  578PNCE   C3B 5222   3.750  11.894   6.743
  578PNCE   D4B 5223   3.823  12.313   6.674
  578PNCE   C5B 5224   3.804  12.552   7.031
  578PNCE   C6B 5225   4.092  12.623   7.325
  579CHOL   ROH 5226   4.759   1.151   5.791
  579CHOL    R1 5227   4.638   1.132   6.046
  579CHOL    R2 5228   4.770   1.033   6.266
  579CHOL    R3 5229   4.696   1.269   6.378
  579CHOL    R4 5230   4.796   1.110   6.602
  579CHOL    R5 5231   4.602   1.208   6.590
  579CHOL    C1 5232   4.741   1.377   6.902
  579CHOL    C2 5233   4.996   1.466   7.167
  580PNCE   AM1 5234  11.685   7.484   7.843
  580PNCE   AM2 5235  11.325   7.569   7.811
  580PNCE   T1A 5236  11.517   7.069   7.891
  580PNCE   C2A 5237  11.639   6.673   7.980
  580PNCE   C3A 5238  11.918   6.623   8.278
  580PNCE   C1B 5239  11.486   7.268   7.432
  580PNCE   C2B 5240  11.400   7.009   7.126
  580PNCE   C3B 5241  11.436   6.718   6.825
  580PNCE   D4B 5242  11.697   6.641   6.488
  580PNCE   C5B 5243  11.594   6.301   6.253
  580PNCE   C6B 5244  11.797   5.919   6.400
  581CHOL   ROH 5245   6.881   2.675   5.971
  581CHOL    R1 5246   6.953   2.739   6.237
  581CHOL    R2 5247   7.101   2.963   6.301
  581CHOL    R3 5248   6.893   3.014   6.468
  581CHOL    R4 5249   7.084   3.230   6.519
  581CHOL    R5 5250   6.996   3.097   6.668
  581CHOL    C1 5251   6.879   3.434   6.803
  581CHOL    C2 5252   6.891   3.857   6.862
  582CHOL   ROH 5253  14.352   4.258   6.742
  582CHOL    R1 5254  14.240   4.066   6.918
  582CHOL    R2 5255  13.976   3.987   6.902
  582CHOL    R3 5256  14.085   3.738   6.887
  582CHOL    R4 5257  13.815   3.695   6.993
  582CHOL    R5 5258  14.002   3.625   7.081
  582CHOL    C1 5259  13.824   3.291   7.032
  582CHOL    C2 5260  13.566   3.086   7.315
  583CHOL   ROH 5261   5.036   1.529   5.709
  583CHOL    R1 5262   4.911   1.583   5.957
  583CHOL    R2 5263   5.007   1.485   6.196
  583CHOL    R3 5264   5.001   1.747   6.269
  583CHOL    R4 5265   4.941   1.600   6.516
  583CHOL    R5 5266   4.822   1.761   6.428
  583CHOL    C1 5267   4.898   1.913   6.770
  583CHOL    C2 5268   4.568   1.804   7.019
  584XCA    COO 5269  15.062   7.595   8.251
  584XCA     C1 5270  15.328   7.324   7.942
  584XCA     C2 5271  15.486   7.038   7.597
  584XCA     C3 5272  15.701   6.845   7.237
  584XCA     C4 5273   0.173   6.909   6.916
  584XCA     C5 5274   0.303   7.044   6.512
  584XCA     C6 5275   0.727   7.056   6.328
  585PNCE   AM1 5276   1.585  12.523   8.706
  585PNCE   AM2 5277   1.261  12.430   8.597
  585PNCE   T1A 5278   1.519  12.816   8.327
  585PNCE   C2A 5279   1.527  12.835   7.854
  585PNCE   C3A 5280   1.865  12.910   7.512
  585PNCE   C1B 5281   1.069  12.601   8.213
  585PNCE   C2B 5282   0.808  12.534   7.855
  585PNCE   C3B 5283   0.482  12.669   7.611
  585PNCE   D4B 5284   0.279  12.892   7.301
  585PNCE   C5B 5285   0.560  13.052   6.999
  585PNCE   C6B 5286   1.028  13.080   7.105
  586PNCE   AM1 5287   4.931   6.793   8.154
  586PNCE   AM2 5288   4.692   6.591   8.125
  586PNCE   T1A 5289   5.096   6.787   7.716
  586PNCE   C2A 5290   5.138   6.689   7.271
  586PNCE   C3A 5291   5.226   6.615   6.857
  586PNCE   C1B 5292   4.459   6.352   7.825
  586PNCE   C2B 5293   4.550   5.938   7.664
  586PNCE   C3B 5294   4.449   5.544   7.885
  586PNCE   D4B 5295   4.174   5.240   7.791
  586PNCE   C5B 5296   4.076   5.173   7.314
  586PNCE   C6B 5297   3.991   5.197   6.829
  587CHOL   ROH 5298   2.275  12.133   5.054
  587CHOL    R1 5299   2.170  12.001   5.282
  587CHOL    R2 5300   2.054  11.751   5.268
  587CHOL    R3 5301   2.236  11.692   5.461
  587CHOL    R4 5302   2.035  11.480   5.481
  587CHOL    R5 5303   2.105  11.608   5.643
  587CHOL    C1 5304   2.194  11.265   5.786
  587CHOL    C2 5305   2.273  10.959   6.090
  588PNCE   AM1 5306   1.434   1.296   9.776
  588PNCE   AM2 5307   1.104   1.375   9.602
  588PNCE   T1A 5308   1.641   1.361   9.367
  588PNCE   C2A 5309   1.732   1.286   8.918
  588PNCE   C3A 5310   1.581   1.291   8.475
  588PNCE   C1B 5311   0.959   1.317   9.150
  588PNCE   C2B 5312   1.083   1.289   8.699
  588PNCE   C3B 5313   1.165   0.979   8.397
  588PNCE   D4B 5314   1.108   0.569   8.220
  588PNCE   C5B 5315   0.868   0.568   7.824
  588PNCE   C6B 5316   0.966   0.492   7.382
  589CHOL   ROH 5317  11.103  11.709   5.773
  589CHOL    R1 5318  11.052  11.495   5.950
  589CHOL    R2 5319  11.138  11.495   6.213
  589CHOL    R3 5320  10.876  11.448   6.266
  589CHOL    R4 5321  11.021  11.295   6.469
  589CHOL    R5 5322  10.869  11.218   6.333
  589CHOL    C1 5323  10.707  11.134   6.668
  589CHOL    C2 5324  10.655  11.165   7.026
  590XCA    COO 5325  14.321  12.509   4.569
  590XCA     C1 5326  14.287  12.565   5.055
  590XCA     C2 5327  14.340  12.297   5.454
  590XCA     C3 5328  14.430  11.960   5.779
  590XCA     C4 5329  14.400  11.635   6.144
  590XCA     C5 5330  14.406  11.485   6.588
  590XCA     C6 5331  14.773  11.405   6.839
  591CHOL   ROH 5332   6.542   9.132   5.993
  591CHOL    R1 5333   6.679   9.153   6.240
  591CHOL    R2 5334   6.891   9.325   6.279
  591CHOL    R3 5335   6.741   9.413   6.487
  591CHOL    R4 5336   7.006   9.525   6.536
  591CHOL    R5 5337   6.888   9.406   6.675
  591CHOL    C1 5338   6.932   9.723   6.882
  591CHOL    C2 5339   7.195   9.863   7.146
  592CHOL   ROH 5340   8.526  12.502   9.016
  592CHOL    R1 5341   8.543  12.409   8.750
  592CHOL    R2 5342   8.343  12.453   8.564
  592CHOL    R3 5343   8.547  12.558   8.417
  592CHOL    R4 5344   8.343  12.484   8.220
  592CHOL    R5 5345   8.553  12.423   8.219
  592CHOL    C1 5346   8.535  12.600   7.882
  592CHOL    C2 5347   8.703  12.677   7.517
  593CHOL   ROH 5348   7.666   6.081   7.845
  593CHOL    R1 5349   7.518   6.018   7.612
  593CHOL    R2 5350   7.341   6.195   7.496
  593CHOL    R3 5351   7.490   6.148   7.273
  593CHOL    R4 5352   7.246   6.276   7.174
  593CHOL    R5 5353   7.330   6.087   7.106
  593CHOL    C1 5354   7.330   6.279   6.777
  593CHOL    C2 5355   7.473   6.535   6.481
  594CHOL   ROH 5356   6.727  11.576   4.614
  594CHOL    R1 5357   6.684  11.672   4.877
  594CHOL    R2 5358   6.690  11.507   5.099
  594CHOL    R3 5359   6.874  11.687   5.188
  594CHOL    R4 5360   6.777  11.553   5.430
  594CHOL    R5 5361   6.783  11.768   5.394
  594CHOL    C1 5362   7.000  11.749   5.706
  594CHOL    C2 5363   7.062  11.782   6.152
  595CHOL   ROH 5364  15.133  12.507   6.559
  595CHOL    R1 5365  15.093  12.688   6.345
  595CHOL    R2 5366  15.219  12.933   6.331
  595CHOL    R3 5367  15.297  12.843   6.087
  595CHOL    R4 5368  15.269  13.133   6.054
  595CHOL    R5 5369  15.176  12.979   5.932
  595CHOL    C1 5370  15.372  13.165   5.663
  595CHOL    C2 5371  15.554  13.323   5.338
  596CHOL   ROH 5372   4.906   8.318   7.688
  596CHOL    R1 5373   4.852   8.356   7.412
  596CHOL    R2 5374   5.042   8.311   7.216
  596CHOL    R3 5375   4.849   8.150   7.113
  596CHOL    R4 5376   5.022   8.214   6.885
  596CHOL    R5 5377   4.806   8.240   6.895
  596CHOL    C1 5378   4.830   8.006   6.595
  596CHOL    C2 5379   4.887   7.580   6.450
  597PNCE   AM1 5380   8.073   1.949   5.013
  597PNCE   AM2 5381   8.375   2.129   5.140
  597PNCE   T1A 5382   8.090   1.802   5.452
  597PNCE   C2A 5383   7.984   1.981   5.844
  597PNCE   C3A 5384   8.050   2.190   6.215
  597PNCE   C1B 5385   8.396   2.207   5.631
  597PNCE   C2B 5386   8.550   2.288   6.068
  597PNCE   C3B 5387   8.805   2.132   6.439
  597PNCE   D4B 5388   8.921   2.246   6.857
  597PNCE   C5B 5389   8.743   2.636   6.990
  597PNCE   C6B 5390   8.645   2.933   7.316
  598XCA    COO 5391  14.622  14.368   5.257
  598XCA     C1 5392  14.465  14.252   5.677
  598XCA     C2 5393  14.349  14.367   6.099
  598XCA     C3 5394  13.982  14.234   6.317
  598XCA     C4 5395  13.776  14.322   6.670
  598XCA     C5 5396  13.529  14.603   6.917
  598XCA     C6 5397  13.577  14.941   7.201
  599CHOL   ROH 5398   2.145  13.161   4.928
  599CHOL    R1 5399   2.128  13.057   5.190
  599CHOL    R2 5400   2.299  12.861   5.284
  599CHOL    R3 5401   2.344  13.041   5.483
  599CHOL    R4 5402   2.466  12.792   5.579
  599CHOL    R5 5403   2.320  12.914   5.685
  599CHOL    C1 5404   2.606  12.921   5.937
  599CHOL    C2 5405   2.789  12.990   6.314
  600PNCE   AM1 5406  13.569   7.090   7.694
  600PNCE   AM2 5407  13.697   7.392   7.836
  600PNCE   T1A 5408  13.620   7.110   7.219
  600PNCE   C2A 5409  13.807   7.331   6.850
  600PNCE   C3A 5410  13.792   7.780   6.628
  600PNCE   C1B 5411  14.013   7.274   7.499
  600PNCE   C2B 5412  14.187   7.093   7.129
  600PNCE   C3B 5413  14.511   6.878   6.884
  600PNCE   D4B 5414  14.739   6.656   6.571
  600PNCE   C5B 5415  14.711   6.797   6.146
  600PNCE   C6B 5416  14.847   7.000   5.820
  601XCA    COO 5417   4.433  12.001   7.805
  601XCA     C1 5418   4.327  12.180   7.372
  601XCA     C2 5419   4.207  12.112   6.961
  601XCA     C3 5420   4.262  11.963   6.554
  601XCA     C4 5421   4.545  11.760   6.264
  601XCA     C5 5422   4.988  11.683   6.254
  601XCA     C6 5423   5.201  11.323   6.405
  602CHOL   ROH 5424   3.776   7.426   4.175
  602CHOL    R1 5425   3.580   7.452   4.377
  602CHOL    R2 5426   3.625   7.380   4.639
  602CHOL    R3 5427   3.545   7.634   4.690
  602CHOL    R4 5428   3.506   7.492   4.943
  602CHOL    R5 5429   3.357   7.609   4.836
  602CHOL    C1 5430   3.362   7.797   5.168
  602CHOL    C2 5431   3.308   7.798   5.559
  603PNCE   AM1 5432  10.841   2.810   9.005
  603PNCE   AM2 5433  10.571   3.060   8.888
  603PNCE   T1A 5434  10.857   2.834   8.537
  603PNCE   C2A 5435  10.782   2.925   8.103
  603PNCE   C3A 5436  10.786   3.304   7.857
  603PNCE   C1B 5437  10.415   3.133   8.407
  603PNCE   C2B 5438  10.307   3.030   7.938
  603PNCE   C3B 5439  10.439   3.167   7.501
  603PNCE   D4B 5440  10.515   3.397   7.107
  603PNCE   C5B 5441  10.886   3.412   6.829
  603PNCE   C6B 5442  11.168   3.780   6.874
  604XCA    COO 5443  12.788   7.339   8.021
  604XCA     C1 5444  12.709   7.481   7.590
  604XCA     C2 5445  12.666   7.450   7.155
  604XCA     C3 5446  12.503   7.575   6.789
  604XCA     C4 5447  12.558   7.737   6.422
  604XCA     C5 5448  12.955   7.959   6.390
  604XCA     C6 5449  13.216   8.230   6.661
  605PNCE   AM1 5450   2.744   7.938   8.326
  605PNCE   AM2 5451   3.088   7.972   8.234
  605PNCE   T1A 5452   2.503   7.930   7.926
  605PNCE   C2A 5453   2.167   7.904   7.618
  605PNCE   C3A 5454   1.945   8.319   7.467
  605PNCE   C1B 5455   3.020   7.767   7.815
  605PNCE   C2B 5456   3.019   7.557   7.405
  605PNCE   C3B 5457   3.239   7.428   7.044
  605PNCE   D4B 5458   3.221   7.636   6.657
  605PNCE   C5B 5459   3.527   7.607   6.325
  605PNCE   C6B 5460   3.658   7.756   5.924
  606CHOL   ROH 5461  12.353  10.410   4.671
  606CHOL    R1 5462  12.352  10.302   4.933
  606CHOL    R2 5463  12.291  10.452   5.156
  606CHOL    R3 5464  12.109  10.255   5.200
  606CHOL    R4 5465  12.161  10.368   5.465
  606CHOL    R5 5466  12.175  10.158   5.408
  606CHOL    C1 5467  11.915  10.133   5.686
  606CHOL    C2 5468  11.653  10.137   5.993
  607XCA    COO 5469  14.700   2.862   4.783
  607XCA     C1 5470  14.679   2.808   5.229
  607XCA     C2 5471  14.616   2.770   5.675
  607XCA     C3 5472  14.622   2.649   6.099
  607XCA     C4 5473  14.397   2.294   6.225
  607XCA     C5 5474  14.092   2.014   6.056
  607XCA     C6 5475  14.007   1.595   6.198
  608XCA    COO 5476  10.956  10.015   8.502
  608XCA     C1 5477  11.040   9.915   8.078
  608XCA     C2 5478  11.185   9.627   7.804
  608XCA     C3 5479  11.130   9.323   7.508
  608XCA     C4 5480  11.287   9.261   7.097
  608XCA     C5 5481  11.457   9.250   6.704
  608XCA     C6 5482  11.397   9.405   6.308
  609XCA    COO 5483  11.653  13.245   5.322
  609XCA     C1 5484  11.655  13.337   5.767
  609XCA     C2 5485  11.688  13.248   6.178
  609XCA     C3 5486  11.446  13.268   6.537
  609XCA     C4 5487  11.194  13.143   6.841
  609XCA     C5 5488  10.909  13.292   7.075
  609XCA     C6 5489  10.500  13.164   7.195
  610CHOL   ROH 5490  11.904  13.635   5.225
  610CHOL    R1 5491  12.047  13.576   5.462
  610CHOL    R2 5492  12.160  13.772   5.620
  610CHOL    R3 5493  12.015  13.653   5.816
  610CHOL    R4 5494  12.235  13.785   5.957
  610CHOL    R5 5495  12.179  13.575   5.973
  610CHOL    C1 5496  12.143  13.681   6.338
  610CHOL    C2 5497  12.157  13.804   6.743
  611CHOL   ROH 5498   6.218  15.285   6.831
  611CHOL    R1 5499   6.238  15.030   6.709
  611CHOL    R2 5500   6.019  14.894   6.611
  611CHOL    R3 5501   6.165  14.888   6.382
  611CHOL    R4 5502   5.979  14.662   6.358
  611CHOL    R5 5503   6.196  14.655   6.338
  611CHOL    C1 5504   6.093  14.521   5.995
  611CHOL    C2 5505   6.262  14.514   5.598
  612CHOL   ROH 5506   9.916  10.488   4.359
  612CHOL    R1 5507   9.855  10.331   4.587
  612CHOL    R2 5508  10.047  10.255   4.770
  612CHOL    R3 5509   9.877  10.370   4.948
  612CHOL    R4 5510  10.024  10.171   5.104
  612CHOL    R5 5511   9.808  10.190   5.089
  612CHOL    C1 5512   9.851  10.230   5.466
  612CHOL    C2 5513   9.882  10.198   5.848
  613CHOL   ROH 5514  14.929  12.850   8.785
  613CHOL    R1 5515  15.054  12.725   8.564
  613CHOL    R2 5516  15.290  12.584   8.586
  613CHOL    R3 5517  15.146  12.386   8.469
  613CHOL    R4 5518  15.426  12.308   8.429
  613CHOL    R5 5519  15.273  12.327   8.275
  613CHOL    C1 5520  15.370  11.961   8.227
  613CHOL    C2 5521  15.379  11.534   8.267
  614CHOL   ROH 5522   0.679  13.720   5.646
  614CHOL    R1 5523   0.660  13.565   5.882
  614CHOL    R2 5524   0.485  13.353   5.907
  614CHOL    R3 5525   0.710  13.216   5.975
  614CHOL    R4 5526   0.491  13.055   6.084
  614CHOL    R5 5527   0.664  13.129   6.193
  614CHOL    C1 5528   0.707  12.754   6.249
  614CHOL    C2 5529   0.677  12.488   6.603
  615PNCE   AM1 5530  15.108   9.766   8.023
  615PNCE   AM2 5531  14.988   9.745   7.732
  615PNCE   T1A 5532  15.499   9.880   7.763
  615PNCE   C2A 5533  15.698  10.009   7.335
  615PNCE   C3A 5534  15.808  10.117   6.920
  615PNCE   C1B 5535  14.926   9.568   7.337
  615PNCE   C2B 5536  14.603   9.436   7.095
  615PNCE   C3B 5537  14.361   9.087   6.940
  615PNCE   D4B 5538  14.073   9.121   6.622
  615PNCE   C5B 5539  13.708   8.906   6.488
  615PNCE   C6B 5540  13.602   8.721   6.080
  616CHOL   ROH 5541   6.142   6.319   5.312
  616CHOL    R1 5542   6.209   6.279   5.584
  616CHOL    R2 5543   6.125   6.059   5.727
  616CHOL    R3 5544   6.390   6.030   5.778
  616CHOL    R4 5545   6.258   5.865   5.980
  616CHOL    R5 5546   6.405   6.022   6.016
  616CHOL    C1 5547   6.585   5.725   6.175
  616CHOL    C2 5548   6.649   5.634   6.594
  617CHOL   ROH 5549   8.627   4.453   8.096
  617CHOL    R1 5550   8.682   4.335   7.845
  617CHOL    R2 5551   8.491   4.197   7.701
  617CHOL    R3 5552   8.560   4.371   7.504
  617CHOL    R4 5553   8.467   4.131   7.363
  617CHOL    R5 5554   8.658   4.233   7.334
  617CHOL    C1 5555   8.518   4.256   6.980
  617CHOL    C2 5556   8.385   4.146   6.620
  618CHOL   ROH 5557  10.832  13.333   5.874
  618CHOL    R1 5558  10.881  13.515   6.085
  618CHOL    R2 5559  10.801  13.468   6.344
  618CHOL    R3 5560  11.063  13.512   6.400
  618CHOL    R4 5561  10.929  13.527   6.660
  618CHOL    R5 5562  11.060  13.677   6.573
  618CHOL    C1 5563  11.249  13.602   6.896
  618CHOL    C2 5564  11.588  13.730   7.075
  619CHOL   ROH 5565   3.007   2.636   8.688
  619CHOL    R1 5566   3.020   2.839   8.491
  619CHOL    R2 5567   3.070   2.785   8.225
  619CHOL    R3 5568   2.840   2.924   8.187
  619CHOL    R4 5569   2.982   2.945   7.932
  619CHOL    R5 5570   2.904   3.110   8.051
  619CHOL    C1 5571   2.715   3.168   7.725
  619CHOL    C2 5572   2.689   3.384   7.415
  620PNCE   AM1 5573   3.240  10.778   7.985
  620PNCE   AM2 5574   3.032  10.557   8.180
  620PNCE   T1A 5575   2.971  10.594   7.639
  620PNCE   C2A 5576   2.763  10.503   7.255
  620PNCE   C3A 5577   2.526  10.668   6.915
  620PNCE   C1B 5578   2.931  10.179   7.931
  620PNCE   C2B 5579   2.966   9.735   7.874
  620PNCE   C3B 5580   3.063   9.337   7.672
  620PNCE   D4B 5581   2.945   9.159   7.248
  620PNCE   C5B 5582   3.302   9.061   6.965
  620PNCE   C6B 5583   3.306   8.751   6.616
  621XCA    COO 5584   4.538  10.946   7.572
  621XCA     C1 5585   4.517  10.778   7.165
  621XCA     C2 5586   4.813  10.542   6.924
  621XCA     C3 5587   4.786  10.274   6.572
  621XCA     C4 5588   5.007   9.934   6.359
  621XCA     C5 5589   4.909   9.792   5.922
  621XCA     C6 5590   4.536   9.929   5.687
  622PNCE   AM1 5591   0.705  15.271   9.035
  622PNCE   AM2 5592   0.426  15.078   8.948
  622PNCE   T1A 5593   0.791  15.111   8.587
  622PNCE   C2A 5594   0.781  15.207   8.135
  622PNCE   C3A 5595   0.574  15.455   7.808
  622PNCE   C1B 5596   0.176  14.713   8.831
  622PNCE   C2B 5597  15.673  14.569   8.558
  622PNCE   C3B 5598  15.472  14.362   8.211
  622PNCE   D4B 5599  15.246  14.357   7.836
  622PNCE   C5B 5600  15.363  13.939   7.763
  622PNCE   C6B 5601  15.487  13.529   7.808
  623CHOL   ROH 5602   7.015  14.865   5.196
  623CHOL    R1 5603   7.003  14.630   5.354
  623CHOL    R2 5604   6.950  14.636   5.625
  623CHOL    R3 5605   6.754  14.461   5.557
  623CHOL    R4 5606   6.764  14.451   5.849
  623CHOL    R5 5607   6.777  14.281   5.713
  623CHOL    C1 5608   6.471  14.179   5.916
  623CHOL    C2 5609   6.355  13.901   6.179
  624XCA    COO 5610   3.896  11.748   3.753
  624XCA     C1 5611   3.942  11.808   4.215
  624XCA     C2 5612   3.862  11.803   4.679
  624XCA     C3 5613   3.804  12.136   4.966
  624XCA     C4 5614   3.829  12.299   5.370
  624XCA     C5 5615   4.156  12.307   5.678
  624XCA     C6 5616   4.511  12.216   5.923
  625XCA    COO 5617   6.628  12.099   4.577
  625XCA     C1 5618   6.702  12.129   5.055
  625XCA     C2 5619   6.543  12.263   5.483
  625XCA     C3 5620   6.458  12.626   5.774
  625XCA     C4 5621   6.227  12.681   6.181
  625XCA     C5 5622   5.994  12.790   6.569
  625XCA     C6 5623   6.062  13.090   6.932
  626CHOL   ROH 5624   6.498   5.841   4.633
  626CHOL    R1 5625   6.540   5.596   4.769
  626CHOL    R2 5626   6.696   5.577   4.997
  626CHOL    R3 5627   6.472   5.462   5.101
  626CHOL    R4 5628   6.689   5.375   5.277
  626CHOL    R5 5629   6.545   5.247   5.175
  626CHOL    C1 5630   6.476   5.150   5.538
  626CHOL    C2 5631   6.552   4.834   5.816
  627CHOL   ROH 5632   0.197   4.948   8.021
  627CHOL    R1 5633   0.313   4.803   7.808
  627CHOL    R2 5634   0.416   4.549   7.839
  627CHOL    R3 5635   0.248   4.490   7.633
  627CHOL    R4 5636   0.423   4.256   7.655
  627CHOL    R5 5637   0.385   4.374   7.476
  627CHOL    C1 5638   0.269   4.031   7.355
  627CHOL    C2 5639   0.317   3.653   7.207
  628CHOL   ROH 5640   2.443   1.299   7.330
  628CHOL    R1 5641   2.649   1.491   7.302
  628CHOL    R2 5642   2.830   1.485   7.093
  628CHOL    R3 5643   2.746   1.741   7.056
  628CHOL    R4 5644   3.032   1.747   6.993
  628CHOL    R5 5645   2.927   1.876   7.134
  628CHOL    C1 5646   3.070   2.140   6.899
  628CHOL    C2 5647   3.397   2.342   6.867
  629XCA    COO 5648  11.450   5.560   3.871
  629XCA     C1 5649  11.444   5.187   4.193
  629XCA     C2 5650  11.325   5.214   4.653
  629XCA     C3 5651  11.639   5.384   4.937
  629XCA     C4 5652  11.848   5.358   5.301
  629XCA     C5 5653  12.189   5.364   5.543
  629XCA     C6 5654  12.409   5.572   5.880
  630PNCE   AM1 5655   3.305   8.563   8.386
  630PNCE   AM2 5656   3.544   8.317   8.385
  630PNCE   T1A 5657   3.148   8.434   7.984
  630PNCE   C2A 5658   2.844   8.265   7.728
  630PNCE   C3A 5659   2.439   8.327   7.578
  630PNCE   C1B 5660   3.649   8.560   7.969
  630PNCE   C2B 5661   3.569   8.566   7.500
  630PNCE   C3B 5662   3.511   8.467   7.031
  630PNCE   D4B 5663   3.427   8.117   6.735
  630PNCE   C5B 5664   3.553   8.140   6.307
  630PNCE   C6B 5665   3.840   8.300   5.983
  631PNCE   AM1 5666  14.343   7.736   8.328
  631PNCE   AM2 5667  14.575   7.506   8.142
  631PNCE   T1A 5668  14.477   7.994   7.938
  631PNCE   C2A 5669  14.685   8.004   7.538
  631PNCE   C3A 5670  14.569   7.983   7.093
  631PNCE   C1B 5671  14.877   7.549   7.744
  631PNCE   C2B 5672  14.997   7.673   7.294
  631PNCE   C3B 5673  14.958   7.703   6.858
  631PNCE   D4B 5674  14.971   7.603   6.422
  631PNCE   C5B 5675  15.025   7.805   6.002
  631PNCE   C6B 5676  15.066   8.177   5.792
  632CHOL   ROH 5677   3.836  13.498   7.472
  632CHOL    R1 5678   4.051  13.636   7.349
  632CHOL    R2 5679   4.308  13.628   7.448
  632CHOL    R3 5680   4.369  13.548   7.196
  632CHOL    R4 5681   4.613  13.677   7.293
  632CHOL    R5 5682   4.506  13.723   7.109
  632CHOL    C1 5683   4.848  13.629   6.966
  632CHOL    C2 5684   5.256  13.703   6.856
  633CHOL   ROH 5685   0.853  13.407   5.399
  633CHOL    R1 5686   0.854  13.178   5.564
  633CHOL    R2 5687   1.063  12.998   5.569
  633CHOL    R3 5688   1.059  13.048   5.836
  633CHOL    R4 5689   1.136  12.766   5.815
  633CHOL    R5 5690   0.972  12.847   5.933
  633CHOL    C1 5691   1.175  12.679   6.209
  633CHOL    C2 5692   1.140  12.326   6.416
  634CHOL   ROH 5693  10.379   6.106   4.238
  634CHOL    R1 5694  10.232   6.163   4.473
  634CHOL    R2 5695  10.353   6.237   4.710
  634CHOL    R3 5696  10.185   6.449   4.693
  634CHOL    R4 5697  10.245   6.426   4.979
  634CHOL    R5 5698  10.047   6.432   4.888
  634CHOL    C1 5699  10.024   6.735   5.119
  634CHOL    C2 5700  10.045   6.879   5.498
  635PNCE   AM1 5701   8.729   4.909   7.951
  635PNCE   AM2 5702   8.372   4.897   8.021
  635PNCE   T1A 5703   8.632   4.968   7.489
  635PNCE   C2A 5704   8.362   4.917   7.144
  635PNCE   C3A 5705   8.219   4.612   6.865
  635PNCE   C1B 5706   8.210   4.694   7.626
  635PNCE   C2B 5707   8.070   4.371   7.323
  635PNCE   C3B 5708   8.115   4.013   7.057
  635PNCE   D4B 5709   7.968   3.584   7.032
  635PNCE   C5B 5710   8.202   3.186   7.201
  635PNCE   C6B 5711   8.217   2.744   7.000
  636XCA    COO 5712   6.161   6.312   4.565
  636XCA     C1 5713   6.390   6.198   4.948
  636XCA     C2 5714   6.620   6.301   5.351
  636XCA     C3 5715   6.654   6.477   5.768
  636XCA     C4 5716   6.792   6.788   6.059
  636XCA     C5 5717   6.803   7.046   6.408
  636XCA     C6 5718   7.009   7.028   6.810
  637PNCE   AM1 5719   9.882  14.096   5.553
  637PNCE   AM2 5720   9.537  14.003   5.581
  637PNCE   T1A 5721   9.954  13.749   5.885
  637PNCE   C2A 5722   9.926  13.598   6.328
  637PNCE   C3A 5723   9.789  13.589   6.766
  637PNCE   C1B 5724   9.598  14.076   6.024
  637PNCE   C2B 5725   9.701  14.042   6.498
  637PNCE   C3B 5726   9.490  14.093   6.888
  637PNCE   D4B 5727   9.390  14.105   7.332
  637PNCE   C5B 5728   9.031  13.852   7.401
  637PNCE   C6B 5729   8.578  13.835   7.428
  638CHOL   ROH 5730   3.583  11.211   7.671
  638CHOL    R1 5731   3.422  11.081   7.478
  638CHOL    R2 5732   3.160  11.009   7.528
  638CHOL    R3 5733   3.112  11.151   7.301
  638CHOL    R4 5734   2.874  10.982   7.335
  638CHOL    R5 5735   2.999  10.997   7.157
  638CHOL    C1 5736   2.663  11.101   7.010
  638CHOL    C2 5737   2.544  11.374   6.754
  639XCA    COO 5738   0.751   3.939   4.719
  639XCA     C1 5739   1.087   3.899   5.047
  639XCA     C2 5740   1.283   3.756   5.469
  639XCA     C3 5741   1.380   3.926   5.905
  639XCA     C4 5742   1.250   4.198   6.287
  639XCA     C5 5743   0.983   4.323   6.641
  639XCA     C6 5744   1.040   4.261   7.083
  640XCA    COO 5745   6.543  13.539   9.021
  640XCA     C1 5746   6.795  13.621   8.637
  640XCA     C2 5747   7.200  13.710   8.400
  640XCA     C3 5748   7.527  14.014   8.298
  640XCA     C4 5749   7.713  14.303   8.039
  640XCA     C5 5750   7.507  14.659   7.872
  640XCA     C6 5751   7.776  14.993   7.732
  641XCA    COO 5752   1.923   0.909   9.473
  641XCA     C1 5753   2.121   0.975   9.063
  641XCA     C2 5754   2.250   1.275   8.725
  641XCA     C3 5755   2.140   1.576   8.409
  641XCA     C4 5756   2.215   2.013   8.389
  641XCA     C5 5757   2.118   2.457   8.388
  641XCA     C6 5758   1.990   2.782   8.641
  642PNCE   AM1 5759  15.139  14.984   4.845
  642PNCE   AM2 5760  14.985  14.728   5.048
  642PNCE   T1A 5761  15.028  15.205   5.228
  642PNCE   C2A 5762  14.986  15.559   5.525
  642PNCE   C3A 5763  15.055   0.167   5.580
  642PNCE   C1B 5764  14.799  14.800   5.454
  642PNCE   C2B 5765  14.850  14.570   5.804
  642PNCE   C3B 5766  14.850  14.377   6.195
  642PNCE   D4B 5767  15.095  14.274   6.540
  642PNCE   C5B 5768  14.996  14.068   6.926
  642PNCE   C6B 5769  15.273  14.110   7.299
  643CHOL   ROH 5770  15.472   1.806   8.201
  643CHOL    R1 5771  15.581   1.775   7.942
  643CHOL    R2 5772  15.429   1.695   7.725
  643CHOL    R3 5773  15.528   1.922   7.613
  643CHOL    R4 5774  15.428   1.765   7.387
  643CHOL    R5 5775  15.627   1.849   7.408
  643CHOL    C1 5776  15.519   2.020   7.085
  643CHOL    C2 5777  15.576   2.190   6.714
  644PNCE   AM1 5778   5.104   7.761   3.960
  644PNCE   AM2 5779   5.424   7.770   3.880
  644PNCE   T1A 5780   5.010   7.718   4.400
  644PNCE   C2A 5781   4.901   7.551   4.801
  644PNCE   C3A 5782   4.885   7.097   4.957
  644PNCE   C1B 5783   5.511   7.704   4.327
  644PNCE   C2B 5784   5.355   7.942   4.684
  644PNCE   C3B 5785   5.218   7.933   5.067
  644PNCE   D4B 5786   5.431   7.619   5.284
  644PNCE   C5B 5787   5.344   7.184   5.195
  644PNCE   C6B 5788   5.428   6.740   5.319
  645CHOL   ROH 5789   4.597   0.315   5.809
  645CHOL    R1 5790   4.702   0.325   6.072
  645CHOL    R2 5791   4.768   0.098   6.215
  645CHOL    R3 5792   5.008   0.222   6.239
  645CHOL    R4 5793   5.015   0.008   6.439
  645CHOL    R5 5794   5.054   0.220   6.474
  645CHOL    C1 5795   5.385   0.072   6.592
  645CHOL    C2 5796   5.683   0.030   6.862
  646PNCE   AM1 5797   8.090  10.275   4.414
  646PNCE   AM2 5798   7.782  10.261   4.605
  646PNCE   T1A 5799   8.208   9.876   4.660
  646PNCE   C2A 5800   8.227   9.431   4.800
  646PNCE   C3A 5801   8.516   9.093   4.847
  646PNCE   C1B 5802   7.807   9.960   4.953
  646PNCE   C2B 5803   8.097   9.743   5.190
  646PNCE   C3B 5804   8.109   9.497   5.561
  646PNCE   D4B 5805   8.262   9.266   5.915
  646PNCE   C5B 5806   8.564   8.939   5.962
  646PNCE   C6B 5807   8.951   8.657   6.079
  647XCA    COO 5808  13.096   7.771   3.880
  647XCA     C1 5809  12.993   7.696   4.312
  647XCA     C2 5810  13.000   7.463   4.677
  647XCA     C3 5811  12.984   7.498   5.089
  647XCA     C4 5812  12.865   7.430   5.473
  647XCA     C5 5813  12.553   7.510   5.763
  647XCA     C6 5814  12.201   7.651   5.978
  648CHOL   ROH 5815   1.433  15.543   5.164
  648CHOL    R1 5816   1.614  15.435   5.353
  648CHOL    R2 5817   1.834  15.575   5.445
  648CHOL    R3 5818   1.727  15.520   5.689
  648CHOL    R4 5819   2.013  15.557   5.740
  648CHOL    R5 5820   1.893  15.385   5.797
  648CHOL    C1 5821   2.018  15.495   6.140
  648CHOL    C2 5822   2.256  15.149   6.227
  649PNCE   AM1 5823   3.344  15.578   5.213
  649PNCE   AM2 5824   3.635  15.371   5.109
  649PNCE   T1A 5825   3.543  15.529   5.648
  649PNCE   C2A 5826   3.729  15.298   6.020
  649PNCE   C3A 5827   4.007  15.254   6.415
  649PNCE   C1B 5828   3.769  15.109   5.491
  649PNCE   C2B 5829   3.751  14.794   5.821
  649PNCE   C3B 5830   3.835  14.383   5.995
  649PNCE   D4B 5831   3.918  14.189   6.396
  649PNCE   C5B 5832   4.020  13.750   6.430
  649PNCE   C6B 5833   4.289  13.415   6.313
  650CHOL   ROH 5834   7.599  15.671   8.992
  650CHOL    R1 5835   7.807  15.763   8.824
  650CHOL    R2 5836   7.774  15.795   8.551
  650CHOL    R3 5837   7.863   0.218   8.603
  650CHOL    R4 5838   7.809   0.216   8.315
  650CHOL    R5 5839   7.995   0.275   8.412
  650CHOL    C1 5840   7.913   0.598   8.226
  650CHOL    C2 5841   8.183   0.888   8.189
  651PNCE   AM1 5842   2.050  13.646   4.938
  651PNCE   AM2 5843   2.326  13.744   4.847
  651PNCE   T1A 5844   2.065  13.853   5.326
  651PNCE   C2A 5845   2.229  13.996   5.735
  651PNCE   C3A 5846   2.217  14.168   6.168
  651PNCE   C1B 5847   2.448  13.448   5.231
  651PNCE   C2B 5848   2.755  13.245   5.537
  651PNCE   C3B 5849   2.923  13.306   5.932
  651PNCE   D4B 5850   3.276  13.130   6.136
  651PNCE   C5B 5851   3.645  13.138   5.879
  651PNCE   C6B 5852   4.067  13.247   5.861
  652PNCE   AM1 5853   7.392   4.797   4.674
  652PNCE   AM2 5854   7.117   4.583   4.786
  652PNCE   T1A 5855   7.773   4.728   4.949
  652PNCE   C2A 5856   7.887   4.601   5.379
  652PNCE   C3A 5857   8.298   4.536   5.576
  652PNCE   C1B 5858   6.825   4.822   5.061
  652PNCE   C2B 5859   6.915   4.983   5.453
  652PNCE   C3B 5860   7.089   5.184   5.804
  652PNCE   D4B 5861   6.970   5.552   5.831
  652PNCE   C5B 5862   6.554   5.595   5.694
  652PNCE   C6B 5863   6.334   5.841   5.338
  653PNCE   AM1 5864   8.714   6.368   4.541
  653PNCE   AM2 5865   8.576   6.513   4.859
  653PNCE   T1A 5866   9.070   6.539   4.715
  653PNCE   C2A 5867   9.178   6.487   5.105
  653PNCE   C3A 5868   9.185   6.208   5.439
  653PNCE   C1B 5869   8.800   6.098   5.004
  653PNCE   C2B 5870   9.229   5.890   5.019
  653PNCE   C3B 5871   9.571   5.856   5.312
  653PNCE   D4B 5872   9.629   6.105   5.653
  653PNCE   C5B 5873  10.002   6.067   5.847
  653PNCE   C6B 5874  10.312   5.958   5.589
  654PNCE   AM1 5875   7.480   5.483   4.583
  654PNCE   AM2 5876   7.681   5.196   4.524
  654PNCE   T1A 5877   7.441   5.710   4.990
  654PNCE   C2A 5878   7.337   6.039   5.309
  654PNCE   C3A 5879   7.208   6.354   5.623
  654PNCE   C1B 5880   7.979   5.350   4.835
  654PNCE   C2B 5881   7.978   5.681   5.150
  654PNCE   C3B 5882   7.845   5.953   5.472
  654PNCE   D4B 5883   7.623   6.120   5.830
  654PNCE   C5B 5884   7.245   5.939   6.015
  654PNCE   C6B 5885   6.854   6.031   5.851
  655CHOL   ROH 5886   0.648  15.597   8.700
  655CHOL    R1 5887   0.427  15.615   8.525
  655CHOL    R2 5888   0.370   0.013   8.379
  655CHOL    R3 5889   0.374  15.670   8.169
  655CHOL    R4 5890   0.212   0.066   8.076
  655CHOL    R5 5891   0.155  15.685   8.075
  655CHOL    C1 5892   0.125  15.764   7.703
  655CHOL    C2 5893  15.528  15.660   7.567
  656PNCE   AM1 5894   7.111   9.576   4.646
  656PNCE   AM2 5895   6.840   9.347   4.762
  656PNCE   T1A 5896   7.334   9.743   5.016
  656PNCE   C2A 5897   7.264   9.751   5.454
  656PNCE   C3A 5898   6.878   9.901   5.643
  656PNCE   C1B 5899   7.211   9.244   5.030
  656PNCE   C2B 5900   7.246   8.993   5.394
  656PNCE   C3B 5901   7.480   8.778   5.711
  656PNCE   D4B 5902   7.561   8.407   5.943
  656PNCE   C5B 5903   7.209   8.276   6.249
  656PNCE   C6B 5904   6.728   8.362   6.283
  657CHOL   ROH 5905   4.356   3.878   7.501
  657CHOL    R1 5906   4.223   3.720   7.308
  657CHOL    R2 5907   3.950   3.730   7.270
  657CHOL    R3 5908   4.019   3.780   7.012
  657CHOL    R4 5909   3.764   3.637   6.994
  657CHOL    R5 5910   3.950   3.585   6.893
  657CHOL    C1 5911   3.721   3.630   6.591
  657CHOL    C2 5912   3.758   3.468   6.245
  658CHOL   ROH 5913   7.918   7.384   7.931
  658CHOL    R1 5914   7.966   7.504   7.680
  658CHOL    R2 5915   7.989   7.358   7.447
  658CHOL    R3 5916   7.794   7.526   7.360
  658CHOL    R4 5917   7.923   7.430   7.115
  658CHOL    R5 5918   7.891   7.638   7.172
  658CHOL    C1 5919   7.701   7.630   6.841
  658CHOL    C2 5920   7.727   7.341   6.538
  659PNCE   AM1 5921  14.320   3.738   4.635
  659PNCE   AM2 5922  14.062   3.584   4.460
  659PNCE   T1A 5923  14.262   3.805   5.099
  659PNCE   C2A 5924  14.266   3.684   5.579
  659PNCE   C3A 5925  14.459   3.571   5.993
  659PNCE   C1B 5926  13.892   3.452   4.844
  659PNCE   C2B 5927  13.935   3.413   5.272
  659PNCE   C3B 5928  13.798   3.200   5.627
  659PNCE   D4B 5929  13.843   3.007   6.030
  659PNCE   C5B 5930  14.276   3.090   5.918
  659PNCE   C6B 5931  14.461   3.226   5.492
  660CHOL   ROH 5932   3.782   2.261   5.193
  660CHOL    R1 5933   3.757   2.210   5.470
  660CHOL    R2 5934   3.941   2.300   5.655
  660CHOL    R3 5935   3.722   2.407   5.774
  660CHOL    R4 5936   3.928   2.411   5.982
  660CHOL    R5 5937   3.729   2.324   5.998
  660CHOL    C1 5938   3.714   2.577   6.284
  660CHOL    C2 5939   3.722   2.677   6.691
  661PNCE   AM1 5940   7.807   8.096   8.387
  661PNCE   AM2 5941   7.459   8.035   8.542
  661PNCE   T1A 5942   8.212   8.118   8.117
  661PNCE   C2A 5943   8.225   8.227   7.686
  661PNCE   C3A 5944   8.146   8.369   7.260
  661PNCE   C1B 5945   7.494   8.510   8.409
  661PNCE   C2B 5946   7.616   8.848   8.132
  661PNCE   C3B 5947   7.615   8.988   7.722
  661PNCE   D4B 5948   7.797   9.105   7.397
  661PNCE   C5B 5949   8.126   8.883   7.245
  661PNCE   C6B 5950   8.339   8.884   6.852
  662PNCE   AM1 5951   6.057   9.045   4.331
  662PNCE   AM2 5952   5.771   8.910   4.473
  662PNCE   T1A 5953   6.304   8.967   4.722
  662PNCE   C2A 5954   6.526   9.037   5.107
  662PNCE   C3A 5955   6.538   8.955   5.543
  662PNCE   C1B 5956   5.909   8.668   4.852
  662PNCE   C2B 5957   5.690   8.331   4.982
  662PNCE   C3B 5958   5.563   8.190   5.353
  662PNCE   D4B 5959   5.566   7.937   5.692
  662PNCE   C5B 5960   5.490   8.103   6.071
  662PNCE   C6B 5961   5.692   8.408   6.313
  663CHOL   ROH 5962   9.344  11.916   7.333
  663CHOL    R1 5963   9.214  11.793   7.114
  663CHOL    R2 5964   8.991  11.903   6.993
  663CHOL    R3 5965   9.141  11.879   6.767
  663CHOL    R4 5966   8.864  11.881   6.672
  663CHOL    R5 5967   9.015  11.730   6.628
  663CHOL    C1 5968   8.931  11.845   6.274
  663CHOL    C2 5969   8.911  12.102   6.002
  664XCA    COO 5970   6.234  13.529   8.603
  664XCA     C1 5971   6.119  13.392   8.209
  664XCA     C2 5972   6.351  13.393   7.832
  664XCA     C3 5973   6.632  13.465   7.506
  664XCA     C4 5974   6.597  13.782   7.180
  664XCA     C5 5975   6.536  14.242   7.164
  664XCA     C6 5976   6.817  14.643   7.183
  665XCA    COO 5977  10.058   6.940   8.138
  665XCA     C1 5978  10.017   6.524   7.945
  665XCA     C2 5979  10.127   6.313   7.584
  665XCA     C3 5980  10.142   5.972   7.334
  665XCA     C4 5981  10.109   5.709   6.974
  665XCA     C5 5982  10.332   5.753   6.576
  665XCA     C6 5983  10.297   5.753   6.132
  666XCA    COO 5984   1.653   5.648   8.285
  666XCA     C1 5985   1.600   5.394   7.887
  666XCA     C2 5986   1.748   5.142   7.476
  666XCA     C3 5987   1.837   4.780   7.195
  666XCA     C4 5988   2.013   4.676   6.801
  666XCA     C5 5989   2.193   4.825   6.431
  666XCA     C6 5990   2.228   5.081   6.080
  667CHOL   ROH 5991   2.845   1.493   6.660
  667CHOL    R1 5992   2.739   1.231   6.666
  667CHOL    R2 5993   2.771   1.053   6.457
  667CHOL    R3 5994   2.870   0.892   6.652
  667CHOL    R4 5995   2.786   0.708   6.440
  667CHOL    R5 5996   2.727   0.700   6.650
  667CHOL    C1 5997   2.888   0.356   6.614
  667CHOL    C2 5998   2.710  15.789   6.778
  668PNCE   AM1 5999   9.607   8.756   4.357
  668PNCE   AM2 6000   9.667   8.420   4.523
  668PNCE   T1A 6001   9.465   9.062   4.670
  668PNCE   C2A 6002   9.419   9.108   5.137
  668PNCE   C3A 6003   9.459   9.258   5.582
  668PNCE   C1B 6004   9.519   8.591   4.933
  668PNCE   C2B 6005   9.157   8.536   5.206
  668PNCE   C3B 6006   8.846   8.390   5.509
  668PNCE   D4B 6007   8.818   8.039   5.803
  668PNCE   C5B 6008   8.856   8.052   6.259
  668PNCE   C6B 6009   8.969   8.133   6.725
  669CHOL   ROH 6010  13.778  11.439   5.243
  669CHOL    R1 6011  13.816  11.400   5.520
  669CHOL    R2 6012  13.665  11.223   5.669
  669CHOL    R3 6013  13.907  11.123   5.738
  669CHOL    R4 6014  13.719  10.999   5.926
  669CHOL    R5 6015  13.900  11.109   5.977
  669CHOL    C1 6016  13.979  10.774   6.141
  669CHOL    C2 6017  14.296  10.529   6.273
  670XCA    COO 6018   0.655   2.977   4.594
  670XCA     C1 6019   0.812   2.846   5.018
  670XCA     C2 6020   0.722   2.905   5.424
  670XCA     C3 6021   0.430   3.026   5.661
  670XCA     C4 6022   0.255   2.993   6.061
  670XCA     C5 6023   0.379   2.995   6.486
  670XCA     C6 6024   0.309   2.876   6.939
  671PNCE   AM1 6025  12.082   3.735   4.068
  671PNCE   AM2 6026  11.869   3.446   4.126
  671PNCE   T1A 6027  11.922   4.073   4.368
  671PNCE   C2A 6028  11.697   4.464   4.515
  671PNCE   C3A 6029  11.357   4.725   4.469
  671PNCE   C1B 6030  11.548   3.746   4.255
  671PNCE   C2B 6031  11.297   4.130   4.189
  671PNCE   C3B 6032  11.010   4.503   4.151
  671PNCE   D4B 6033  10.885   4.912   4.344
  671PNCE   C5B 6034  10.947   4.814   4.755
  671PNCE   C6B 6035  11.241   4.605   5.007
  672PNCE   AM1 6036   0.158   5.727   4.473
  672PNCE   AM2 6037   0.469   5.872   4.354
  672PNCE   T1A 6038  15.686   5.999   4.638
  672PNCE   C2A 6039  15.437   6.334   4.734
  672PNCE   C3A 6040  15.362   6.755   4.819
  672PNCE   C1B 6041   0.349   5.917   4.867
  672PNCE   C2B 6042   0.288   5.934   5.293
  672PNCE   C3B 6043   0.636   6.029   5.568
  672PNCE   D4B 6044   0.925   6.112   5.931
  672PNCE   C5B 6045   0.771   6.266   6.343
  672PNCE   C6B 6046   0.628   6.096   6.722
  673CHOL   ROH 6047   2.056   2.707   7.728
  673CHOL    R1 6048   2.173   2.837   7.505
  673CHOL    R2 6049   2.440   2.907   7.497
  673CHOL    R3 6050   2.437   2.765   7.266
  673CHOL    R4 6051   2.671   2.939   7.242
  673CHOL    R5 6052   2.508   2.921   7.099
  673CHOL    C1 6053   2.803   2.825   6.877
  673CHOL    C2 6054   3.226   2.818   6.852
  674CHOL   ROH 6055  10.808   0.218   7.704
  674CHOL    R1 6056  10.816   0.109   7.443
  674CHOL    R2 6057  10.614   0.149   7.258
  674CHOL    R3 6058  10.818   0.238   7.102
  674CHOL    R4 6059  10.602   0.178   6.914
  674CHOL    R5 6060  10.806   0.102   6.905
  674CHOL    C1 6061  10.787   0.278   6.567
  674CHOL    C2 6062  10.855   0.064   6.181
  675CHOL   ROH 6063   9.957  11.486   6.260
  675CHOL    R1 6064  10.086  11.248   6.343
  675CHOL    R2 6065  10.222  11.084   6.167
  675CHOL    R3 6066  10.426  11.118   6.343
  675CHOL    R4 6067  10.503  10.884   6.185
  675CHOL    R5 6068  10.492  10.896   6.402
  675CHOL    C1 6069  10.859  10.800   6.360
  675CHOL    C2 6070  11.222  10.737   6.396
  676PNCE   AM1 6071   6.665   4.639   4.534
  676PNCE   AM2 6072   6.811   4.909   4.393
  676PNCE   T1A 6073   6.342   4.692   4.842
  676PNCE   C2A 6074   6.248   4.854   5.205
  676PNCE   C3A 6075   6.082   4.898   5.600
  676PNCE   C1B 6076   6.771   5.186   4.721
  676PNCE   C2B 6077   7.082   5.285   5.000
  676PNCE   C3B 6078   7.214   5.424   5.372
  676PNCE   D4B 6079   7.451   5.651   5.650
  676PNCE   C5B 6080   7.844   5.518   5.783
  676PNCE   C6B 6081   8.183   5.256   5.723
  677PNCE   AM1 6082  13.037  12.467   4.829
  677PNCE   AM2 6083  12.923  12.805   4.847
  677PNCE   T1A 6084  13.469  12.470   5.031
  677PNCE   C2A 6085  13.823  12.429   5.333
  677PNCE   C3A 6086  13.922  12.568   5.742
  677PNCE   C1B 6087  13.082  12.715   5.289
  677PNCE   C2B 6088  13.144  12.680   5.746
  677PNCE   C3B 6089  13.202  12.782   6.169
  677PNCE   D4B 6090  13.474  12.781   6.522
  677PNCE   C5B 6091  13.261  12.612   6.857
  677PNCE   C6B 6092  13.420  12.554   7.268
  678XCA    COO 6093   0.139   4.736   4.592
  678XCA     C1 6094   0.091   4.923   5.008
  678XCA     C2 6095  15.797   4.965   5.434
  678XCA     C3 6096   0.194   4.987   5.779
  678XCA     C4 6097   0.459   4.793   6.113
  678XCA     C5 6098   0.745   4.771   6.497
  678XCA     C6 6099   0.878   4.753   6.950
  679CHOL   ROH 6100   3.937   3.747   7.821
  679CHOL    R1 6101   4.098   3.518   7.783
  679CHOL    R2 6102   3.998   3.281   7.682
  679CHOL    R3 6103   4.199   3.309   7.502
  679CHOL    R4 6104   4.144   3.021   7.507
  679CHOL    R5 6105   4.338   3.117   7.536
  679CHOL    C1 6106   4.418   2.897   7.235
  679CHOL    C2 6107   4.690   2.678   7.417
  680XCA    COO 6108   9.838  15.589   9.657
  680XCA     C1 6109   9.969  15.382   9.220
  680XCA     C2 6110  10.147  15.304   8.757
  680XCA     C3 6111  10.229  15.152   8.316
  680XCA     C4 6112  10.481  15.216   7.931
  680XCA     C5 6113  10.779  15.148   7.553
  680XCA     C6 6114  11.084  14.937   7.269
  681CHOL   ROH 6115  14.189  15.617   7.647
  681CHOL    R1 6116  14.322  15.379   7.570
  681CHOL    R2 6117  14.453  15.353   7.329
  681CHOL    R3 6118  14.662  15.281   7.487
  681CHOL    R4 6119  14.727  15.171   7.223
  681CHOL    R5 6120  14.721  15.061   7.411
  681CHOL    C1 6121  15.083  14.998   7.309
  681CHOL    C2 6122  15.509  15.128   7.346
  682PNCE   AM1 6123   4.535   5.431   4.555
  682PNCE   AM2 6124   4.659   5.126   4.410
  682PNCE   T1A 6125   4.682   5.514   4.978
  682PNCE   C2A 6126   4.697   5.561   5.417
  682PNCE   C3A 6127   4.848   5.321   5.681
  682PNCE   C1B 6128   4.495   5.032   4.839
  682PNCE   C2B 6129   4.453   5.133   5.267
  682PNCE   C3B 6130   4.566   4.866   5.621
  682PNCE   D4B 6131   4.439   4.562   5.981
  682PNCE   C5B 6132   4.832   4.353   6.195
  682PNCE   C6B 6133   5.187   4.433   6.459
  683CHOL   ROH 6134  15.140   9.034   5.047
  683CHOL    R1 6135  15.061   8.886   5.275
  683CHOL    R2 6136  15.004   9.006   5.517
  683CHOL    R3 6137  14.769   8.870   5.492
  683CHOL    R4 6138  14.786   8.937   5.777
  683CHOL    R5 6139  14.755   8.739   5.692
  683CHOL    C1 6140  14.439   8.770   5.904
  683CHOL    C2 6141  14.104   8.931   6.114
  684PNCE   AM1 6142  11.141  11.873   4.908
  684PNCE   AM2 6143  10.800  11.926   4.855
  684PNCE   T1A 6144  11.241  11.477   5.075
  684PNCE   C2A 6145  11.450  11.077   5.105
  684PNCE   C3A 6146  11.432  10.618   5.019
  684PNCE   C1B 6147  10.755  11.438   4.882
  684PNCE   C2B 6148  10.962  11.031   4.962
  684PNCE   C3B 6149  11.079  10.811   5.341
  684PNCE   D4B 6150  11.441  10.870   5.600
  684PNCE   C5B 6151  11.468  10.618   5.964
  684PNCE   C6B 6152  11.690  10.532   6.352
  685CHOL   ROH 6153  13.470   7.842   7.801
  685CHOL    R1 6154  13.527   7.897   7.530
  685CHOL    R2 6155  13.583   7.698   7.347
  685CHOL    R3 6156  13.381   7.815   7.207
  685CHOL    R4 6157  13.531   7.661   7.007
  685CHOL    R5 6158  13.480   7.872   6.996
  685CHOL    C1 6159  13.311   7.748   6.678
  685CHOL    C2 6160  13.427   7.781   6.258
  686XCA    COO 6161   2.929   9.858   4.114
  686XCA     C1 6162   2.837  10.152   4.460
  686XCA     C2 6163   2.815  10.462   4.773
  686XCA     C3 6164   2.848  10.478   5.198
  686XCA     C4 6165   2.476  10.397   5.428
  686XCA     C5 6166   2.295  10.312   5.817
  686XCA     C6 6167   2.300  10.151   6.238
  687PNCE   AM1 6168   0.756   7.236   4.233
  687PNCE   AM2 6169   0.623   6.919   4.131
  687PNCE   T1A 6170   0.855   7.098   4.659
  687PNCE   C2A 6171   0.737   7.083   5.091
  687PNCE   C3A 6172   0.832   7.068   5.528
  687PNCE   C1B 6173   0.395   6.969   4.533
  687PNCE   C2B 6174   0.284   6.874   4.972
  687PNCE   C3B 6175   0.329   6.953   5.401
  687PNCE   D4B 6176   0.442   7.004   5.849
  687PNCE   C5B 6177   0.160   7.273   6.070
  687PNCE   C6B 6178  15.648   7.143   6.346
  688CHOL   ROH 6179  13.575  12.041   5.195
  688CHOL    R1 6180  13.460  11.806   5.304
  688CHOL    R2 6181  13.518  11.716   5.559
  688CHOL    R3 6182  13.248  11.723   5.589
  688CHOL    R4 6183  13.341  11.538   5.796
  688CHOL    R5 6184  13.188  11.499   5.646
  688CHOL    C1 6185  12.984  11.441   5.963
  688CHOL    C2 6186  13.084  11.267   6.316
  689CHOL   ROH 6187   2.328  13.858   6.598
  689CHOL    R1 6188   2.586  13.975   6.590
  689CHOL    R2 6189   2.659  14.160   6.398
  689CHOL    R3 6190   2.725  14.310   6.614
  689CHOL    R4 6191   2.914  14.393   6.405
  689CHOL    R5 6192   2.964  14.324   6.606
  689CHOL    C1 6193   3.124  14.671   6.613
  689CHOL    C2 6194   3.175  15.061   6.734
  690PNCE   AM1 6195   6.966  10.095   4.760
  690PNCE   AM2 6196   6.698  10.341   4.756
  690PNCE   T1A 6197   6.827   9.782   5.086
  690PNCE   C2A 6198   6.865   9.407   5.364
  690PNCE   C3A 6199   6.926   9.369   5.809
  690PNCE   C1B 6200   6.579  10.249   5.225
  690PNCE   C2B 6201   6.692  10.430   5.642
  690PNCE   C3B 6202   6.927  10.697   5.975
  690PNCE   D4B 6203   7.000  11.070   6.268
  690PNCE   C5B 6204   6.973  10.977   6.716
  690PNCE   C6B 6205   6.699  10.664   6.925
  691PNCE   AM1 6206  12.543  11.823   8.494
  691PNCE   AM2 6207  12.190  11.910   8.557
  691PNCE   T1A 6208  12.343  11.736   8.081
  691PNCE   C2A 6209  12.143  11.700   7.663
  691PNCE   C3A 6210  11.795  11.762   7.336
  691PNCE   C1B 6211  12.108  12.219   8.213
  691PNCE   C2B 6212  12.130  12.405   7.806
  691PNCE   C3B 6213  12.111  12.166   7.443
  691PNCE   D4B 6214  12.083  12.247   7.027
  691PNCE   C5B 6215  11.904  11.901   6.794
  691PNCE   C6B 6216  11.913  11.441   6.925
  692PNCE   AM1 6217   4.493  11.827   4.121
  692PNCE   AM2 6218   4.389  11.638   4.452
  692PNCE   T1A 6219   4.322  12.244   4.000
  692PNCE   C2A 6220   4.025  12.522   4.161
  692PNCE   C3A 6221   3.843  12.254   4.454
  692PNCE   C1B 6222   4.222  11.516   4.888
  692PNCE   C2B 6223   4.402  11.404   5.307
  692PNCE   C3B 6224   4.554  11.069   5.628
  692PNCE   D4B 6225   4.507  10.729   5.963
  692PNCE   C5B 6226   4.045  10.674   6.197
  692PNCE   C6B 6227   3.614  10.469   6.108
  693CHOL   ROH 6228  10.482   4.868   4.699
  693CHOL    R1 6229  10.524   5.026   4.930
  693CHOL    R2 6230  10.319   5.094   5.103
  693CHOL    R3 6231  10.484   4.985   5.290
  693CHOL    R4 6232  10.338   5.195   5.433
  693CHOL    R5 6233  10.554   5.171   5.423
  693CHOL    C1 6234  10.503   5.152   5.801
  693CHOL    C2 6235  10.605   5.331   6.222
  694PNCE   AM1 6236  11.762  11.257   4.333
  694PNCE   AM2 6237  11.873  10.941   4.491
  694PNCE   T1A 6238  11.346  11.078   4.477
  694PNCE   C2A 6239  11.122  10.679   4.588
  694PNCE   C3A 6240  10.886  10.494   4.905
  694PNCE   C1B 6241  11.879  10.526   4.733
  694PNCE   C2B 6242  11.547  10.201   4.722
  694PNCE   C3B 6243  11.211  10.108   5.023
  694PNCE   D4B 6244  11.015   9.782   5.253
  694PNCE   C5B 6245  10.796   9.941   5.583
  694PNCE   C6B 6246  10.748   9.918   6.022
  695PNCE   AM1 6247   2.555   2.315   4.798
  695PNCE   AM2 6248   2.538   2.653   4.949
  695PNCE   T1A 6249   2.724   2.232   5.234
  695PNCE   C2A 6250   2.649   2.235   5.704
  695PNCE   C3A 6251   2.442   2.178   6.160
  695PNCE   C1B 6252   2.349   2.576   5.368
  695PNCE   C2B 6253   2.189   2.672   5.764
  695PNCE   C3B 6254   2.007   2.738   6.156
  695PNCE   D4B 6255   1.901   2.571   6.558
  695PNCE   C5B 6256   2.096   2.712   6.931
  695PNCE   C6B 6257   1.959   3.035   7.139
  696PNCE   AM1 6258   6.394  10.018   4.411
  696PNCE   AM2 6259   6.621   9.779   4.549
  696PNCE   T1A 6260   6.184  10.347   4.633
  696PNCE   C2A 6261   5.854  10.556   4.826
  696PNCE   C3A 6262   5.496  10.771   4.987
  696PNCE   C1B 6263   6.357   9.933   4.895
  696PNCE   C2B 6264   6.077  10.110   5.166
  696PNCE   C3B 6265   6.115  10.229   5.598
  696PNCE   D4B 6266   5.801  10.105   5.897
  696PNCE   C5B 6267   5.322  10.192   5.739
  696PNCE   C6B 6268   4.970  10.070   5.459
  697PNCE   AM1 6269  10.899   3.147   4.119
  697PNCE   AM2 6270  10.646   3.402   4.035
  697PNCE   T1A 6271  11.041   3.132   4.563
  697PNCE   C2A 6272  11.161   3.228   5.012
  697PNCE   C3A 6273  11.153   3.486   5.369
  697PNCE   C1B 6274  10.651   3.463   4.538
  697PNCE   C2B 6275  10.840   3.753   4.869
  697PNCE   C3B 6276  10.812   4.178   5.036
  697PNCE   D4B 6277  10.671   4.593   5.119
  697PNCE   C5B 6278  10.954   4.851   5.395
  697PNCE   C6B 6279  10.953   5.183   5.715
  698PNCE   AM1 6280  15.138   4.913   4.590
  698PNCE   AM2 6281  15.456   5.048   4.514
  698PNCE   T1A 6282  15.010   4.783   4.999
  698PNCE   C2A 6283  14.931   4.647   5.423
  698PNCE   C3A 6284  15.126   4.394   5.685
  698PNCE   C1B 6285  15.443   5.035   4.997
  698PNCE   C2B 6286  15.323   5.246   5.367
  698PNCE   C3B 6287  15.187   5.403   5.770
  698PNCE   D4B 6288  15.196   5.405   6.208
  698PNCE   C5B 6289  14.955   5.513   6.548
  698PNCE   C6B 6290  14.657   5.796   6.731
  699XCA    COO 6291   1.286   6.364   4.069
  699XCA     C1 6292   1.226   6.217   4.476
  699XCA     C2 6293   1.367   6.030   4.845
  699XCA     C3 6294   1.622   5.896   5.168
  699XCA     C4 6295   1.751   5.761   5.584
  699XCA     C5 6296   1.719   5.540   5.971
  699XCA     C6 6297   1.959   5.439   6.326
  700XCA    COO 6298  14.553  12.984   5.203
  700XCA     C1 6299  14.160  12.911   5.422
  700XCA     C2 6300  13.961  13.197   5.670
  700XCA     C3 6301  14.112  13.411   6.041
  700XCA     C4 6302  14.114  13.658   6.422
  700XCA     C5 6303  13.942  13.816   6.819
  700XCA     C6 6304  13.605  14.060   7.081
  701PNCE   AM1 6305   3.259  14.053   3.984
  701PNCE   AM2 6306   3.498  13.820   3.899
  701PNCE   T1A 6307   3.591  14.114   4.317
  701PNCE   C2A 6308   4.050  14.180   4.363
  701PNCE   C3A 6309   4.466  14.130   4.125
  701PNCE   C1B 6310   3.858  13.667   4.143
  701PNCE   C2B 6311   4.263  13.564   4.303
  701PNCE   C3B 6312   4.383  13.366   4.695
  701PNCE   D4B 6313   4.388  13.008   4.984
  701PNCE   C5B 6314   4.759  12.831   5.124
  701PNCE   C6B 6315   5.175  12.741   5.245
  702PNCE   AM1 6316   4.515  15.676   5.394
  702PNCE   AM2 6317   4.407   0.165   5.401
  702PNCE   T1A 6318   4.588  15.657   5.857
  702PNCE   C2A 6319   4.846  15.449   6.207
  702PNCE   C3A 6320   5.162  15.105   6.207
  702PNCE   C1B 6321   4.215   0.545   5.552
  702PNCE   C2B 6322   3.813   0.553   5.764
  702PNCE   C3B 6323   3.542   0.555   6.086
  702PNCE   D4B 6324   3.123   0.534   6.172
  702PNCE   C5B 6325   2.790   0.286   6.129
  702PNCE   C6B 6326   2.447   0.215   5.846
  703CHOL   ROH 6327   8.247   5.981   7.653
  703CHOL    R1 6328   8.269   5.742   7.504
  703CHOL    R2 6329   8.363   5.737   7.244
  703CHOL    R3 6330   8.536   5.553   7.344
  703CHOL    R4 6331   8.565   5.532   7.053
  703CHOL    R5 6332   8.522   5.369   7.192
  703CHOL    C1 6333   8.846   5.240   7.036
  703CHOL    C2 6334   8.831   4.979   6.824
  704PNCE   AM1 6335   9.412   4.027   4.814
  704PNCE   AM2 6336   9.434   3.676   4.688
  704PNCE   T1A 6337   9.836   4.064   4.995
  704PNCE   C2A 6338  10.262   4.159   5.115
  704PNCE   C3A 6339  10.497   4.255   5.468
  704PNCE   C1B 6340   9.387   3.628   5.147
  704PNCE   C2B 6341   9.403   3.707   5.564
  704PNCE   C3B 6342   9.530   3.945   5.909
  704PNCE   D4B 6343   9.361   4.014   6.270
  704PNCE   C5B 6344   8.894   4.136   6.278
  704PNCE   C6B 6345   8.546   3.910   6.192
  705PNCE   AM1 6346   1.477  15.006   5.226
  705PNCE   AM2 6347   1.297  15.064   4.919
  705PNCE   T1A 6348   1.462  15.110   5.700
  705PNCE   C2A 6349   1.525  15.342   6.103
  705PNCE   C3A 6350   1.655  15.706   6.369
  705PNCE   C1B 6351   0.996  15.405   5.035
  705PNCE   C2B 6352   0.632  15.556   5.313
  705PNCE   C3B 6353   0.579  15.783   5.680
  705PNCE   D4B 6354   0.856   0.219   5.920
  705PNCE   C5B 6355   0.836   0.357   6.351
  705PNCE   C6B 6356   0.625   0.755   6.477
  706CHOL   ROH 6357   5.157   2.017   5.753
  706CHOL    R1 6358   5.201   2.055   6.029
  706CHOL    R2 6359   5.182   2.302   6.150
  706CHOL    R3 6360   5.009   2.173   6.315
  706CHOL    R4 6361   5.068   2.424   6.453
  706CHOL    R5 6362   5.086   2.223   6.535
  706CHOL    C1 6363   4.838   2.374   6.783
  706CHOL    C2 6364   4.769   2.771   6.921
  707XCA    COO 6365  11.770   9.119   8.519
  707XCA     C1 6366  11.574   9.386   8.171
  707XCA     C2 6367  11.696   9.456   7.732
  707XCA     C3 6368  11.760   9.283   7.313
  707XCA     C4 6369  11.929   9.351   6.890
  707XCA     C5 6370  12.019   9.186   6.479
  707XCA     C6 6371  12.145   9.183   6.053
  708XCA    COO 6372   6.948  13.572   5.054
  708XCA     C1 6373   6.825  13.670   5.491
  708XCA     C2 6374   6.489  13.472   5.765
  708XCA     C3 6375   6.069  13.567   5.899
  708XCA     C4 6376   5.696  13.395   6.060
  708XCA     C5 6377   5.243  13.461   6.064
  708XCA     C6 6378   4.892  13.754   5.976
  709CHOL   ROH 6379   0.480   6.490   8.128
  709CHOL    R1 6380   0.546   6.466   7.854
  709CHOL    R2 6381   0.780   6.348   7.767
  709CHOL    R3 6382   0.610   6.195   7.619
  709CHOL    R4 6383   0.862   6.190   7.470
  709CHOL    R5 6384   0.666   6.246   7.392
  709CHOL    C1 6385   0.750   5.956   7.159
  709CHOL    C2 6386   0.913   5.648   6.902
  710CHOL   ROH 6387   1.158  14.780   8.671
  710CHOL    R1 6388   1.075  14.651   8.433
  710CHOL    R2 6389   0.897  14.767   8.256
  710CHOL    R3 6390   1.095  14.717   8.076
  710CHOL    R4 6391   0.848  14.717   7.917
  710CHOL    R5 6392   0.999  14.559   7.924
  710CHOL    C1 6393   1.005  14.641   7.551
  710CHOL    C2 6394   1.166  14.456   7.208
  711CHOL   ROH 6395   2.456  12.478   5.275
  711CHOL    R1 6396   2.496  12.258   5.449
  711CHOL    R2 6397   2.459  12.276   5.722
  711CHOL    R3 6398   2.294  12.064   5.680
  711CHOL    R4 6399   2.349  12.059   5.967
  711CHOL    R5 6400   2.376  11.894   5.828
  711CHOL    C1 6401   2.130  11.734   6.071
  711CHOL    C2 6402   1.805  11.695   6.348
  712CHOL   ROH 6403   6.100   5.733   7.604
  712CHOL    R1 6404   6.189   5.731   7.335
  712CHOL    R2 6405   6.081   5.897   7.142
  712CHOL    R3 6406   6.341   5.969   7.106
  712CHOL    R4 6407   6.205   6.054   6.860
  712CHOL    R5 6408   6.382   5.928   6.874
  712CHOL    C1 6409   6.521   6.213   6.662
  712CHOL    C2 6410   6.760   6.139   6.342
  713XCA    COO 6411   3.154   1.484   4.995
  713XCA     C1 6412   3.180   1.673   5.384
  713XCA     C2 6413   3.145   1.867   5.807
  713XCA     C3 6414   3.077   1.856   6.273
  713XCA     C4 6415   2.773   1.948   6.589
  713XCA     C5 6416   2.385   1.979   6.801
  713XCA     C6 6417   2.001   2.214   6.933
  714CHOL   ROH 6418   1.611  14.034   5.445
  714CHOL    R1 6419   1.690  13.821   5.613
  714CHOL    R2 6420   1.749  13.856   5.881
  714CHOL    R3 6421   1.564  13.659   5.914
  714CHOL    R4 6422   1.701  13.677   6.173
  714CHOL    R5 6423   1.673  13.497   6.052
  714CHOL    C1 6424   1.499  13.388   6.374
  714CHOL    C2 6425   1.390  13.127   6.627
  715CHOL   ROH 6426   9.681  13.394   9.212
  715CHOL    R1 6427   9.792  13.460   8.960
  715CHOL    R2 6428   9.679  13.379   8.722
  715CHOL    R3 6429   9.687  13.644   8.664
  715CHOL    R4 6430   9.671  13.513   8.403
  715CHOL    R5 6431   9.820  13.659   8.466
  715CHOL    C1 6432   9.674  13.840   8.164
  715CHOL    C2 6433   9.889  13.642   7.924
  716PNCE   AM1 6434   0.742   0.603   4.749
  716PNCE   AM2 6435   1.101   0.627   4.883
  716PNCE   T1A 6436   0.676   0.979   5.034
  716PNCE   C2A 6437   0.895   1.360   5.171
  716PNCE   C3A 6438   1.065   1.579   5.535
  716PNCE   C1B 6439   0.818   0.533   5.251
  716PNCE   C2B 6440   0.624   0.591   5.661
  716PNCE   C3B 6441   0.411   0.494   6.075
  716PNCE   D4B 6442   0.339   0.336   6.511
  716PNCE   C5B 6443  15.801   0.083   6.594
  716PNCE   C6B 6444  15.485   0.138   6.939
  717CHOL   ROH 6445  10.427  15.149   9.440
  717CHOL    R1 6446  10.370  15.098   9.168
  717CHOL    R2 6447  10.545  15.166   8.965
  717CHOL    R3 6448  10.519  14.904   8.898
  717CHOL    R4 6449  10.575  15.040   8.645
  717CHOL    R5 6450  10.407  14.907   8.686
  717CHOL    C1 6451  10.569  14.720   8.396
  717CHOL    C2 6452  10.678  14.690   7.987
  718PNCE   AM1 6453   0.319  12.388   4.790
  718PNCE   AM2 6454   0.624  12.274   4.907
  718PNCE   T1A 6455   0.017  12.530   5.096
  718PNCE   C2A 6456  15.715  12.567   5.518
  718PNCE   C3A 6457   0.036  12.657   5.932
  718PNCE   C1B 6458   0.445  12.335   5.354
  718PNCE   C2B 6459   0.231  12.173   5.739
  718PNCE   C3B 6460  15.804  11.954   6.053
  718PNCE   D4B 6461  15.384  11.822   6.068
  718PNCE   C5B 6462  15.201  11.580   6.396
  718PNCE   C6B 6463  15.269  11.534   6.857
  719PNCE   AM1 6464  15.072   4.402   4.552
  719PNCE   AM2 6465  14.746   4.508   4.643
  719PNCE   T1A 6466  15.197   3.984   4.742
  719PNCE   C2A 6467  15.080   3.621   4.964
  719PNCE   C3A 6468  14.696   3.376   4.968
  719PNCE   C1B 6469  14.945   4.292   5.046
  719PNCE   C2B 6470  15.200   4.023   5.294
  719PNCE   C3B 6471  15.305   3.945   5.738
  719PNCE   D4B 6472  15.361   3.810   6.175
  719PNCE   C5B 6473  15.750   3.958   6.384
  719PNCE   C6B 6474   0.189   3.748   6.707
  720PNCE   AM1 6475  12.783   2.444   4.618
  720PNCE   AM2 6476  12.986   2.171   4.672
  720PNCE   T1A 6477  12.449   2.560   4.880
  720PNCE   C2A 6478  12.185   2.454   5.222
  720PNCE   C3A 6479  12.137   2.308   5.666
  720PNCE   C1B 6480  13.268   2.044   5.012
  720PNCE   C2B 6481  13.496   2.288   5.357
  720PNCE   C3B 6482  13.925   2.207   5.557
  720PNCE   D4B 6483  14.377   2.175   5.675
  720PNCE   C5B 6484  14.568   1.770   5.595
  720PNCE   C6B 6485  14.706   1.492   5.275
  721XCA    COO 6486   8.381  12.775   5.537
  721XCA     C1 6487   8.181  12.981   5.927
  721XCA     C2 6488   8.099  13.066   6.385
  721XCA     C3 6489   7.801  13.142   6.713
  721XCA     C4 6490   7.356  13.036   6.709
  721XCA     C5 6491   6.959  13.254   6.582
  721XCA     C6 6492   6.618  13.515   6.417
  722PNCE   AM1 6493   4.493   1.774   5.219
  722PNCE   AM2 6494   4.567   2.044   5.023
  722PNCE   T1A 6495   4.170   1.482   5.361
  722PNCE   C2A 6496   3.995   1.436   5.779
  722PNCE   C3A 6497   3.896   1.580   6.216
  722PNCE   C1B 6498   4.276   2.290   5.297
  722PNCE   C2B 6499   4.356   2.502   5.699
  722PNCE   C3B 6500   4.326   2.610   6.121
  722PNCE   D4B 6501   4.195   2.624   6.542
  722PNCE   C5B 6502   4.183   2.953   6.823
  722PNCE   C6B 6503   4.298   3.324   7.031
  723PNCE   AM1 6504  11.905   7.431   4.408
  723PNCE   AM2 6505  12.170   7.522   4.193
  723PNCE   T1A 6506  11.764   6.974   4.447
  723PNCE   C2A 6507  11.582   6.592   4.642
  723PNCE   C3A 6508  11.720   6.368   5.003
  723PNCE   C1B 6509  12.272   7.879   4.446
  723PNCE   C2B 6510  12.071   8.187   4.684
  723PNCE   C3B 6511  11.896   8.563   4.855
  723PNCE   D4B 6512  11.852   8.676   5.287
  723PNCE   C5B 6513  11.482   8.620   5.556
  723PNCE   C6B 6514  11.071   8.442   5.783
  724PNCE   AM1 6515   1.239   7.430   4.547
  724PNCE   AM2 6516   1.372   7.135   4.619
  724PNCE   T1A 6517   1.052   7.480   4.929
  724PNCE   C2A 6518   0.674   7.570   5.182
  724PNCE   C3A 6519   0.447   7.431   5.540
  724PNCE   C1B 6520   1.242   7.032   5.023
  724PNCE   C2B 6521   1.301   6.888   5.420
  724PNCE   C3B 6522   1.503   6.665   5.718
  724PNCE   D4B 6523   1.822   6.360   5.850
  724PNCE   C5B 6524   1.984   6.446   6.235
  724PNCE   C6B 6525   2.012   6.846   6.403
  725PNCE   AM1 6526   8.085  10.984   4.956
  725PNCE   AM2 6527   8.156  10.638   4.802
  725PNCE   T1A 6528   8.041  10.849   5.403
  725PNCE   C2A 6529   8.095  10.824   5.866
  725PNCE   C3A 6530   7.875  10.929   6.246
  725PNCE   C1B 6531   8.315  10.262   5.083
  725PNCE   C2B 6532   8.517   9.950   5.400
  725PNCE   C3B 6533   8.633   9.537   5.640
  725PNCE   D4B 6534   8.958   9.197   5.751
  725PNCE   C5B 6535   9.161   8.816   5.640
  725PNCE   C6B 6536   9.554   8.648   5.531
  726PNCE   AM1 6537  14.898   0.724   4.533
  726PNCE   AM2 6538  14.720   0.451   4.402
  726PNCE   T1A 6539  14.870   0.859   4.979
  726PNCE   C2A 6540  14.733   0.990   5.386
  726PNCE   C3A 6541  14.490   0.902   5.783
  726PNCE   C1B 6542  14.582   0.091   4.691
  726PNCE   C2B 6543  14.614  15.751   5.158
  726PNCE   C3B 6544  14.566   0.010   5.622
  726PNCE   D4B 6545  14.802   0.013   6.039
  726PNCE   C5B 6546  14.783   0.392   6.328
  726PNCE   C6B 6547  14.684   0.516   6.783
  727CHOL   ROH 6548   3.587   9.206   5.819
  727CHOL    R1 6549   3.747   9.394   5.957
  727CHOL    R2 6550   3.785   9.385   6.230
  727CHOL    R3 6551   4.048   9.385   6.162
  727CHOL    R4 6552   4.047   9.432   6.451
  727CHOL    R5 6553   4.146   9.554   6.300
  727CHOL    C1 6554   4.446   9.458   6.515
  727CHOL    C2 6555   4.803   9.410   6.348
  728XCA    COO 6556   6.712   8.628   8.809
  728XCA     C1 6557   7.069   8.810   8.587
  728XCA     C2 6558   7.299   9.202   8.451
  728XCA     C3 6559   7.357   9.591   8.172
  728XCA     C4 6560   7.429   9.849   7.799
  728XCA     C5 6561   7.535  10.128   7.423
  728XCA     C6 6562   7.546  10.190   6.945
  729PNCE   AM1 6563   0.196   0.700   4.838
  729PNCE   AM2 6564   0.261   1.007   4.683
  729PNCE   T1A 6565  15.760   0.446   5.147
  729PNCE   C2A 6566  15.359   0.224   5.181
  729PNCE   C3A 6567  15.180  15.658   5.040
  729PNCE   C1B 6568   0.180   1.159   5.108
  729PNCE   C2B 6569   0.412   1.327   5.437
  729PNCE   C3B 6570   0.286   1.386   5.862
  729PNCE   D4B 6571   0.061   1.599   6.145
  729PNCE   C5B 6572   0.107   1.614   6.583
  729PNCE   C6B 6573   0.380   1.481   6.890
  730XCA    COO 6574   3.595   5.302   8.620
  730XCA     C1 6575   3.603   5.113   8.190
  730XCA     C2 6576   3.281   4.997   7.906
  730XCA     C3 6577   2.985   5.054   7.605
  730XCA     C4 6578   2.703   5.267   7.356
  730XCA     C5 6579   2.294   5.467   7.316
  730XCA     C6 6580   2.009   5.571   7.644
  731PNCE   AM1 6581   6.861   6.647   4.318
  731PNCE   AM2 6582   6.520   6.642   4.340
  731PNCE   T1A 6583   6.845   6.253   4.593
  731PNCE   C2A 6584   6.864   6.018   4.995
  731PNCE   C3A 6585   6.876   5.821   5.382
  731PNCE   C1B 6586   6.622   7.050   4.569
  731PNCE   C2B 6587   6.843   7.391   4.790
  731PNCE   C3B 6588   7.047   7.706   5.047
  731PNCE   D4B 6589   7.091   7.902   5.402
  731PNCE   C5B 6590   6.734   7.741   5.611
  731PNCE   C6B 6591   6.340   7.872   5.705
  732PNCE   AM1 6592  14.895  10.341   4.691
  732PNCE   AM2 6593  14.736  10.635   4.526
  732PNCE   T1A 6594  14.864  10.422   5.140
  732PNCE   C2A 6595  14.918  10.296   5.566
  732PNCE   C3A 6596  15.250  10.018   5.757
  732PNCE   C1B 6597  14.546  10.779   4.943
  732PNCE   C2B 6598  14.495  10.669   5.387
  732PNCE   C3B 6599  14.586  10.588   5.828
  732PNCE   D4B 6600  14.800  10.827   6.120
  732PNCE   C5B 6601  15.207  10.816   6.334
  732PNCE   C6B 6602  15.507  10.581   6.561
  733PNCE   AM1 6603   5.645   8.400   4.198
  733PNCE   AM2 6604   5.337   8.199   4.176
  733PNCE   T1A 6605   5.803   8.104   4.513
  733PNCE   C2A 6606   6.019   7.685   4.554
  733PNCE   C3A 6607   6.448   7.521   4.421
  733PNCE   C1B 6608   5.245   8.419   4.577
  733PNCE   C2B 6609   5.176   8.495   5.011
  733PNCE   C3B 6610   5.082   8.360   5.421
  733PNCE   D4B 6611   5.039   8.418   5.872
  733PNCE   C5B 6612   4.601   8.482   5.994
  733PNCE   C6B 6613   4.194   8.566   6.267
  734CHOL   ROH 6614  15.777   4.081   8.970
  734CHOL    R1 6615  15.822   3.819   8.873
  734CHOL    R2 6616  15.807   3.755   8.605
  734CHOL    R3 6617   0.228   3.657   8.647
  734CHOL    R4 6618   0.125   3.502   8.420
  734CHOL    R5 6619   0.208   3.422   8.605
  734CHOL    C1 6620   0.446   3.264   8.352
  734CHOL    C2 6621   0.525   2.873   8.192
  735CHOL   ROH 6622   8.711   7.478   7.863
  735CHOL    R1 6623   8.819   7.620   7.643
  735CHOL    R2 6624   8.785   7.538   7.381
  735CHOL    R3 6625   8.688   7.790   7.348
  735CHOL    R4 6626   8.687   7.674   7.079
  735CHOL    R5 6627   8.780   7.862   7.139
  735CHOL    C1 6628   8.539   7.990   6.872
  735CHOL    C2 6629   8.498   7.821   6.552
  736XCA    COO 6630   5.010  10.024   8.468
  736XCA     C1 6631   4.761   9.999   8.087
  736XCA     C2 6632   4.440  10.117   7.826
  736XCA     C3 6633   4.233   9.959   7.487
  736XCA     C4 6634   4.137   9.913   7.100
  736XCA     C5 6635   4.184   9.845   6.667
  736XCA     C6 6636   4.471   9.920   6.300
  737PNCE   AM1 6637  14.478   1.834   4.095
  737PNCE   AM2 6638  14.131   1.747   4.202
  737PNCE   T1A 6639  14.313   2.172   4.385
  737PNCE   C2A 6640  14.256   2.291   4.806
  737PNCE   C3A 6641  14.379   2.399   5.228
  737PNCE   C1B 6642  13.897   1.873   4.593
  737PNCE   C2B 6643  13.851   2.057   5.021
  737PNCE   C3B 6644  13.876   2.518   5.117
  737PNCE   D4B 6645  13.610   2.849   5.328
  737PNCE   C5B 6646  13.336   2.984   5.744
  737PNCE   C6B 6647  13.295   3.159   6.186
  738PNCE   AM1 6648   9.332  14.904   5.552
  738PNCE   AM2 6649   9.062  14.696   5.402
  738PNCE   T1A 6650   9.340  14.832   6.010
  738PNCE   C2A 6651   9.518  15.019   6.380
  738PNCE   C3A 6652   9.607  15.356   6.680
  738PNCE   C1B 6653   9.176  14.402   5.749
  738PNCE   C2B 6654   9.218  14.360   6.219
  738PNCE   C3B 6655   9.383  14.557   6.591
  738PNCE   D4B 6656   9.270  14.960   6.833
  738PNCE   C5B 6657   8.902  14.964   7.098
  738PNCE   C6B 6658   8.620  15.164   7.412
  739CHOL   ROH 6659   5.496   7.443   5.707
  739CHOL    R1 6660   5.605   7.204   5.811
  739CHOL    R2 6661   5.835   7.199   5.964
  739CHOL    R3 6662   5.677   7.067   6.141
  739CHOL    R4 6663   5.949   6.986   6.211
  739CHOL    R5 6664   5.782   6.854   6.167
  739CHOL    C1 6665   5.868   6.738   6.521
  739CHOL    C2 6666   6.065   6.481   6.731
  740PNCE   AM1 6667  11.848   1.333   4.570
  740PNCE   AM2 6668  11.940   0.989   4.692
  740PNCE   T1A 6669  11.648   1.436   4.954
  740PNCE   C2A 6670  11.700   1.520   5.391
  740PNCE   C3A 6671  11.732   1.556   5.817
  740PNCE   C1B 6672  12.010   1.109   5.136
  740PNCE   C2B 6673  12.076   1.170   5.590
  740PNCE   C3B 6674  12.418   1.099   5.875
  740PNCE   D4B 6675  12.579   1.256   6.281
  740PNCE   C5B 6676  12.267   1.322   6.627
  740PNCE   C6B 6677  12.041   1.498   6.984
  741PNCE   AM1 6678  14.808  12.446   4.832
  741PNCE   AM2 6679  15.108  12.224   4.769
  741PNCE   T1A 6680  14.789  12.519   5.302
  741PNCE   C2A 6681  14.608  12.719   5.696
  741PNCE   C3A 6682  14.257  12.885   5.951
  741PNCE   C1B 6683  15.318  12.284   5.222
  741PNCE   C2B 6684  15.450  12.157   5.675
  741PNCE   C3B 6685  15.454  12.352   6.119
  741PNCE   D4B 6686  15.575  12.634   6.459
  741PNCE   C5B 6687  15.484  12.437   6.873
  741PNCE   C6B 6688  15.533  12.262   7.317
  742CHOL   ROH 6689   9.329  15.514   9.572
  742CHOL    R1 6690   9.508  15.385   9.395
  742CHOL    R2 6691   9.486  15.118   9.329
  742CHOL    R3 6692   9.488  15.213   9.075
  742CHOL    R4 6693   9.546  14.928   9.047
  742CHOL    R5 6694   9.664  15.093   8.967
  742CHOL    C1 6695   9.583  14.907   8.644
  742CHOL    C2 6696   9.949  14.828   8.598
  743CHOL   ROH 6697   2.698   3.077   5.184
  743CHOL    R1 6698   2.562   3.018   5.425
  743CHOL    R2 6699   2.666   3.078   5.673
  743CHOL    R3 6700   2.429   3.206   5.706
  743CHOL    R4 6701   2.527   3.161   5.979
  743CHOL    R5 6702   2.332   3.103   5.900
  743CHOL    C1 6703   2.223   3.329   6.188
  743CHOL    C2 6704   2.097   3.500   6.570
  744XCA    COO 6705  11.547  11.562   4.687
  744XCA     C1 6706  11.769  11.495   5.096
  744XCA     C2 6707  11.990  11.759   5.372
  744XCA     C3 6708  12.151  11.662   5.757
  744XCA     C4 6709  12.508  11.611   6.020
  744XCA     C5 6710  12.782  11.712   6.332
  744XCA     C6 6711  12.888  12.094   6.531
  745PNCE   AM1 6712  12.393   7.001   4.376
  745PNCE   AM2 6713  12.682   7.166   4.445
  745PNCE   T1A 6714  12.361   6.843   4.773
  745PNCE   C2A 6715  12.361   6.706   5.189
  745PNCE   C3A 6716  12.428   6.786   5.597
  745PNCE   C1B 6717  12.497   7.499   4.736
  745PNCE   C2B 6718  12.193   7.743   4.954
  745PNCE   C3B 6719  12.143   8.134   5.186
  745PNCE   D4B 6720  12.003   8.286   5.586
  745PNCE   C5B 6721  12.302   8.214   5.874
  745PNCE   C6B 6722  12.636   7.974   5.990
  746PNCE   AM1 6723   5.585  10.987   4.434
  746PNCE   AM2 6724   5.941  10.978   4.510
  746PNCE   T1A 6725   5.393  10.581   4.537
  746PNCE   C2A 6726   5.063  10.463   4.805
  746PNCE   C3A 6727   4.737  10.470   5.131
  746PNCE   C1B 6728   5.900  11.062   4.969
  746PNCE   C2B 6729   5.838  11.015   5.414
  746PNCE   C3B 6730   5.967  11.036   5.803
  746PNCE   D4B 6731   5.944  11.065   6.238
  746PNCE   C5B 6732   6.113  10.763   6.537
  746PNCE   C6B 6733   6.206  10.805   6.989
  747XCA    COO 6734   7.206  11.823   9.084
  747XCA     C1 6735   7.226  12.071   8.701
  747XCA     C2 6736   7.263  12.523   8.610
  747XCA     C3 6737   7.439  12.839   8.337
  747XCA     C4 6738   7.613  12.823   7.917
  747XCA     C5 6739   7.781  12.802   7.511
  747XCA     C6 6740   8.055  13.011   7.170
  748CHOL   ROH 6741  15.604   7.844   4.932
  748CHOL    R1 6742  15.669   7.976   5.174
  748CHOL    R2 6743  15.548   8.211   5.252
  748CHOL    R3 6744  15.494   8.071   5.479
  748CHOL    R4 6745  15.533   8.347   5.570
  748CHOL    R5 6746  15.635   8.169   5.645
  748CHOL    C1 6747  15.474   8.294   5.967
  748CHOL    C2 6748  15.400   8.547   6.233
  749PNCE   AM1 6749   2.363  15.791   4.970
  749PNCE   AM2 6750   2.256  15.441   4.935
  749PNCE   T1A 6751   2.165   0.155   5.362
  749PNCE   C2A 6752   2.057   0.484   5.711
  749PNCE   C3A 6753   2.169   0.621   6.171
  749PNCE   C1B 6754   2.305  15.471   5.377
  749PNCE   C2B 6755   2.378  15.236   5.732
  749PNCE   C3B 6756   2.726  15.160   6.007
  749PNCE   D4B 6757   2.779  14.988   6.424
  749PNCE   C5B 6758   2.697  15.251   6.792
  749PNCE   C6B 6759   2.828  15.412   7.193
  750XCA    COO 6760   2.063   9.656   4.128
  750XCA     C1 6761   2.050   9.580   4.611
  750XCA     C2 6762   2.349   9.584   4.947
  750XCA     C3 6763   2.470   9.458   5.343
  750XCA     C4 6764   2.262   9.306   5.690
  750XCA     C5 6765   1.922   9.028   5.725
  750XCA     C6 6766   1.628   8.673   5.684
  751XCA    COO 6767   6.287   6.031   7.926
  751XCA     C1 6768   6.446   6.132   7.521
  751XCA     C2 6769   6.801   6.067   7.236
  751XCA     C3 6770   6.928   6.016   6.821
  751XCA     C4 6771   7.262   5.781   6.608
  751XCA     C5 6772   7.598   5.464   6.774
  751XCA     C6 6773   7.843   5.050   6.767
  752PNCE   AM1 6774   4.927   7.037   4.399
  752PNCE   AM2 6775   4.616   6.980   4.232
  752PNCE   T1A 6776   5.278   7.248   4.620
  752PNCE   C2A 6777   5.597   7.487   4.793
  752PNCE   C3A 6778   5.797   7.833   4.991
  752PNCE   C1B 6779   4.516   7.254   4.599
  752PNCE   C2B 6780   4.311   7.272   4.984
  752PNCE   C3B 6781   3.948   7.403   5.136
  752PNCE   D4B 6782   3.787   7.639   5.447
  752PNCE   C5B 6783   3.866   8.056   5.536
  752PNCE   C6B 6784   4.241   8.345   5.661
  753PNCE   AM1 6785  12.073   2.182   4.673
  753PNCE   AM2 6786  12.405   2.091   4.543
  753PNCE   T1A 6787  12.128   1.728   4.846
  753PNCE   C2A 6788  12.400   1.337   4.851
  753PNCE   C3A 6789  12.783   1.180   5.074
  753PNCE   C1B 6790  12.526   2.077   4.970
  753PNCE   C2B 6791  12.357   1.907   5.326
  753PNCE   C3B 6792  12.199   1.743   5.692
  753PNCE   D4B 6793  12.019   1.979   6.038
  753PNCE   C5B 6794  11.601   1.850   6.227
  753PNCE   C6B 6795  11.279   1.539   6.278
  754XCA    COO 6796   6.728   3.309   8.948
  754XCA     C1 6797   6.813   3.321   8.487
  754XCA     C2 6798   6.677   3.631   8.174
  754XCA     C3 6799   6.655   4.067   8.265
  754XCA     C4 6800   6.766   4.453   8.062
  754XCA     C5 6801   6.975   4.828   7.993
  754XCA     C6 6802   7.318   5.007   7.835
  755PNCE   AM1 6803  12.766   1.583   8.052
  755PNCE   AM2 6804  13.126   1.552   8.160
  755PNCE   T1A 6805  12.522   1.584   7.616
  755PNCE   C2A 6806  12.592   1.521   7.140
  755PNCE   C3A 6807  12.816   1.416   6.727
  755PNCE   C1B 6808  13.287   1.241   7.851
  755PNCE   C2B 6809  13.390   1.140   7.422
  755PNCE   C3B 6810  13.700   1.159   7.122
  755PNCE   D4B 6811  14.118   1.174   7.014
  755PNCE   C5B 6812  14.290   1.574   7.048
  755PNCE   C6B 6813  14.663   1.761   6.877
  756CHOL   ROH 6814   5.283   6.287   4.905
  756CHOL    R1 6815   5.185   6.241   5.167
  756CHOL    R2 6816   5.325   6.095   5.355
  756CHOL    R3 6817   5.292   6.318   5.506
  756CHOL    R4 6818   5.355   6.107   5.699
  756CHOL    R5 6819   5.183   6.240   5.705
  756CHOL    C1 6820   5.341   6.323   6.042
  756CHOL    C2 6821   5.588   6.436   6.307
  757CHOL   ROH 6822   8.457   0.176   6.043
  757CHOL    R1 6823   8.437   0.377   6.241
  757CHOL    R2 6824   8.347   0.325   6.497
  757CHOL    R3 6825   8.582   0.440   6.569
  757CHOL    R4 6826   8.410   0.472   6.803
  757CHOL    R5 6827   8.518   0.630   6.700
  757CHOL    C1 6828   8.668   0.665   7.049
  757CHOL    C2 6829   8.542   0.911   7.286
  758CHOL   ROH 6830  12.617   5.132   7.754
  758CHOL    R1 6831  12.469   5.062   7.523
  758CHOL    R2 6832  12.449   5.227   7.303
  758CHOL    R3 6833  12.540   5.008   7.170
  758CHOL    R4 6834  12.427   5.180   6.961
  758CHOL    R5 6835  12.377   4.971   6.998
  758CHOL    C1 6836  12.500   4.948   6.637
  758CHOL    C2 6837  12.573   4.838   6.258
  759CHOL   ROH 6838   5.131  15.482   8.229
  759CHOL    R1 6839   5.274  15.538   7.991
  759CHOL    R2 6840   5.550  15.540   7.981
  759CHOL    R3 6841   5.511  15.363   7.778
  759CHOL    R4 6842   5.791  15.447   7.751
  759CHOL    R5 6843   5.638  15.452   7.596
  759CHOL    C1 6844   5.895  15.226   7.427
  759CHOL    C2 6845   5.895  15.037   7.067
  760CHOL   ROH 6846  11.384   1.695   7.203
  760CHOL    R1 6847  11.567   1.565   7.029
  760CHOL    R2 6848  11.499   1.340   6.884
  760CHOL    R3 6849  11.585   1.490   6.673
  760CHOL    R4 6850  11.573   1.216   6.570
  760CHOL    R5 6851  11.745   1.350   6.562
  760CHOL    C1 6852  11.697   1.283   6.190
  760CHOL    C2 6853  11.979   1.038   6.110
  761CHOL   ROH 6854  11.017  13.948   8.768
  761CHOL    R1 6855  11.145  13.889   8.523
  761CHOL    R2 6856  11.090  14.026   8.289
  761CHOL    R3 6857  11.359  14.066   8.287
  761CHOL    R4 6858  11.277  14.089   8.006
  761CHOL    R5 6859  11.433  13.959   8.086
  761CHOL    C1 6860  11.639  14.163   7.839
  761CHOL    C2 6861  11.538  13.952   7.526
  762PNCE   AM1 6862   5.271   0.496   5.491
  762PNCE   AM2 6863   4.931   0.626   5.582
  762PNCE   T1A 6864   5.442   0.475   5.905
  762PNCE   C2A 6865   5.480   0.458   6.348
  762PNCE   C3A 6866   5.510   0.531   6.803
  762PNCE   C1B 6867   5.000   0.674   6.048
  762PNCE   C2B 6868   5.057   0.703   6.503
  762PNCE   C3B 6869   5.008   0.450   6.876
  762PNCE   D4B 6870   5.183   0.459   7.288
  762PNCE   C5B 6871   5.000   0.476   7.702
  762PNCE   C6B 6872   4.836   0.573   8.104
  763PNCE   AM1 6873  10.562  10.637   4.009
  763PNCE   AM2 6874  10.563  11.006   3.986
  763PNCE   T1A 6875  10.852  10.324   4.248
  763PNCE   C2A 6876  11.093  10.025   4.510
  763PNCE   C3A 6877  11.201   9.653   4.781
  763PNCE   C1B 6878  10.695  11.081   4.441
  763PNCE   C2B 6879  10.494  10.908   4.828
  763PNCE   C3B 6880  10.323  10.551   5.078
  763PNCE   D4B 6881  10.167  10.575   5.507
  763PNCE   C5B 6882  10.349  10.922   5.740
  763PNCE   C6B 6883  10.632  11.259   5.912
  764CHOL   ROH 6884   7.243   2.523   8.659
  764CHOL    R1 6885   7.375   2.681   8.465
  764CHOL    R2 6886   7.335   2.648   8.194
  764CHOL    R3 6887   7.279   2.913   8.202
  764CHOL    R4 6888   7.407   2.873   7.942
  764CHOL    R5 6889   7.465   3.018   8.094
  764CHOL    C1 6890   7.396   3.254   7.803
  764CHOL    C2 6891   7.271   3.597   7.669
  765PNCE   AM1 6892   1.535   3.639   4.976
  765PNCE   AM2 6893   1.710   3.915   4.864
  765PNCE   T1A 6894   1.584   3.222   5.189
  765PNCE   C2A 6895   1.235   2.951   5.396
  765PNCE   C3A 6896   1.123   2.554   5.317
  765PNCE   C1B 6897   1.525   4.148   5.221
  765PNCE   C2B 6898   1.115   4.251   5.460
  765PNCE   C3B 6899   0.948   4.213   5.879
  765PNCE   D4B 6900   0.697   4.344   6.211
  765PNCE   C5B 6901   0.567   4.040   6.520
  765PNCE   C6B 6902   0.740   3.824   6.898
  766PNCE   AM1 6903   6.921   4.149   4.588
  766PNCE   AM2 6904   7.296   4.050   4.570
  766PNCE   T1A 6905   6.692   4.331   4.986
  766PNCE   C2A 6906   6.573   4.534   5.398
  766PNCE   C3A 6907   6.304   4.375   5.705
  766PNCE   C1B 6908   7.504   3.811   4.927
  766PNCE   C2B 6909   7.281   3.541   5.258
  766PNCE   C3B 6910   7.477   3.481   5.670
  766PNCE   D4B 6911   7.946   3.521   5.661
  766PNCE   C5B 6912   8.118   3.717   6.002
  766PNCE   C6B 6913   8.044   4.105   6.232
  767CHOL   ROH 6914  11.931   6.764   4.918
  767CHOL    R1 6915  11.899   6.829   5.192
  767CHOL    R2 6916  11.740   6.681   5.362
  767CHOL    R3 6917  11.967   6.668   5.511
  767CHOL    R4 6918  11.749   6.625   5.703
  767CHOL    R5 6919  11.908   6.774   5.718
  767CHOL    C1 6920  11.967   6.581   6.042
  767CHOL    C2 6921  12.127   6.381   6.408
  768XCA    COO 6922   6.265  14.337   4.227
  768XCA     C1 6923   6.077  14.015   4.508
  768XCA     C2 6924   5.808  13.735   4.727
  768XCA     C3 6925   5.553  13.375   4.803
  768XCA     C4 6926   5.575  12.993   5.028
  768XCA     C5 6927   5.648  12.569   5.208
  768XCA     C6 6928   5.375  12.244   5.250
  769XCA    COO 6929  10.500  15.715   5.068
  769XCA     C1 6930  10.327   0.041   5.466
  769XCA     C2 6931  10.422   0.234   5.853
  769XCA     C3 6932  10.357   0.160   6.298
  769XCA     C4 6933  10.548  15.672   6.573
  769XCA     C5 6934  10.668  15.285   6.737
  769XCA     C6 6935  10.596  14.987   7.080
  770PNCE   AM1 6936  14.306   9.763   4.091
  770PNCE   AM2 6937  13.996   9.896   4.225
  770PNCE   T1A 6938  14.150   9.331   4.202
  770PNCE   C2A 6939  13.898   9.041   4.470
  770PNCE   C3A 6940  13.734   8.807   4.793
  770PNCE   C1B 6941  13.966   9.938   4.696
  770PNCE   C2B 6942  14.045   9.775   5.116
  770PNCE   C3B 6943  14.211   9.711   5.540
  770PNCE   D4B 6944  14.174   9.494   5.934
  770PNCE   C5B 6945  14.528   9.230   6.087
  770PNCE   C6B 6946  14.522   8.925   6.434
  771PNCE   AM1 6947   1.007  14.696   5.646
  771PNCE   AM2 6948   0.994  14.957   5.375
  771PNCE   T1A 6949   0.859  14.572   6.076
  771PNCE   C2A 6950   0.901  14.311   6.463
  771PNCE   C3A 6951   0.772  14.384   6.892
  771PNCE   C1B 6952   1.067  15.384   5.548
  771PNCE   C2B 6953   0.983  15.534   5.972
  771PNCE   C3B 6954   0.934  15.656   6.385
  771PNCE   D4B 6955   0.625  15.785   6.694
  771PNCE   C5B 6956   0.293  15.499   6.621
  771PNCE   C6B 6957   0.177  15.063   6.520
  772CHOL   ROH 6958   7.600   2.254   5.801
  772CHOL    R1 6959   7.527   2.086   6.017
  772CHOL    R2 6960   7.580   1.815   6.020
  772CHOL    R3 6961   7.699   1.874   6.257
  772CHOL    R4 6962   7.586   1.606   6.295
  772CHOL    R5 6963   7.553   1.780   6.422
  772CHOL    C1 6964   7.702   1.540   6.678
  772CHOL    C2 6965   7.459   1.447   6.973
  773PNCE   AM1 6966   1.695  13.304   4.805
  773PNCE   AM2 6967   1.704  12.964   4.659
  773PNCE   T1A 6968   1.795  13.386   5.279
  773PNCE   C2A 6969   2.027  13.427   5.639
  773PNCE   C3A 6970   2.401  13.349   5.871
  773PNCE   C1B 6971   1.701  12.906   5.128
  773PNCE   C2B 6972   1.862  12.918   5.570
  773PNCE   C3B 6973   1.983  13.067   6.012
  773PNCE   D4B 6974   1.919  13.075   6.493
  773PNCE   C5B 6975   1.849  13.498   6.672
  773PNCE   C6B 6976   1.774  13.961   6.689
  774CHOL   ROH 6977   9.218   1.619   6.178
  774CHOL    R1 6978   9.397   1.565   6.391
  774CHOL    R2 6979   9.378   1.692   6.636
  774CHOL    R3 6980   9.372   1.437   6.731
  774CHOL    R4 6981   9.531   1.586   6.927
  774CHOL    R5 6982   9.590   1.403   6.824
  774CHOL    C1 6983   9.614   1.285   7.186
  774CHOL    C2 6984   9.902   1.277   7.513
  775CHOL   ROH 6985   2.218   0.625   8.302
  775CHOL    R1 6986   2.164   0.459   8.079
  775CHOL    R2 6987   2.190   0.548   7.819
  775CHOL    R3 6988   2.351   0.330   7.795
  775CHOL    R4 6989   2.331   0.439   7.523
  775CHOL    R5 6990   2.289   0.234   7.584
  775CHOL    C1 6991   2.564   0.171   7.328
  775CHOL    C2 6992   2.592   0.413   7.003
  776CHOL   ROH 6993  11.673   8.149   4.979
  776CHOL    R1 6994  11.668   8.193   5.258
  776CHOL    R2 6995  11.438   8.168   5.409
  776CHOL    R3 6996  11.591   7.997   5.555
  776CHOL    R4 6997  11.388   8.093   5.742
  776CHOL    R5 6998  11.603   8.099   5.772
  776CHOL    C1 6999  11.501   7.890   6.074
  776CHOL    C2 7000  11.603   7.668   6.483
  777CHOL   ROH 7001   4.645  11.856   7.400
  777CHOL    R1 7002   4.755  11.969   7.165
  777CHOL    R2 7003   4.830  11.816   6.948
  777CHOL    R3 7004   4.666  11.984   6.812
  777CHOL    R4 7005   4.887  11.932   6.627
  777CHOL    R5 7006   4.814  12.127   6.690
  777CHOL    C1 7007   4.765  12.157   6.313
  777CHOL    C2 7008   5.061  12.126   5.988
  778PNCE   AM1 7009   2.005   5.868   8.572
  778PNCE   AM2 7010   2.186   6.163   8.533
  778PNCE   T1A 7011   2.099   5.428   8.467
  778PNCE   C2A 7012   2.235   5.064   8.208
  778PNCE   C3A 7013   1.899   4.972   7.934
  778PNCE   C1B 7014   2.282   6.314   8.102
  778PNCE   C2B 7015   2.306   6.168   7.689
  778PNCE   C3B 7016   2.291   6.004   7.300
  778PNCE   D4B 7017   2.436   6.057   6.892
  778PNCE   C5B 7018   2.267   5.667   6.760
  778PNCE   C6B 7019   2.380   5.289   6.555
  779XCA    COO 7020   1.377   7.245   8.176
  779XCA     C1 7021   1.358   7.361   7.711
  779XCA     C2 7022   1.402   7.407   7.261
  779XCA     C3 7023   1.122   7.422   6.913
  779XCA     C4 7024   0.694   7.296   6.786
  779XCA     C5 7025   0.466   7.524   6.467
  779XCA     C6 7026   0.611   7.917   6.324
  780PNCE   AM1 7027   5.769   1.872   5.369
  780PNCE   AM2 7028   5.483   1.666   5.493
  780PNCE   T1A 7029   5.637   2.088   5.764
  780PNCE   C2A 7030   5.642   2.453   6.044
  780PNCE   C3A 7031   5.526   2.572   6.472
  780PNCE   C1B 7032   5.411   1.624   5.949
  780PNCE   C2B 7033   5.448   1.588   6.381
  780PNCE   C3B 7034   5.346   1.518   6.770
  780PNCE   D4B 7035   5.445   1.719   7.158
  780PNCE   C5B 7036   5.097   1.987   7.188
  780PNCE   C6B 7037   4.754   2.222   7.240
  781PNCE   AM1 7038   0.526   9.624   4.581
  781PNCE   AM2 7039   0.192   9.609   4.656
  781PNCE   T1A 7040   0.899   9.554   4.866
  781PNCE   C2A 7041   1.204   9.382   5.158
  781PNCE   C3A 7042   1.506   9.215   5.472
  781PNCE   C1B 7043   0.407   9.653   5.077
  781PNCE   C2B 7044   0.697   9.468   5.347
  781PNCE   C3B 7045   1.005   9.547   5.635
  781PNCE   D4B 7046   1.330   9.435   5.893
  781PNCE   C5B 7047   1.661   9.196   6.127
  781PNCE   C6B 7048   2.135   9.233   6.194
  782PNCE   AM1 7049   5.682   0.141   4.831
  782PNCE   AM2 7050   5.565   0.188   5.176
  782PNCE   T1A 7051   5.475  15.564   4.969
  782PNCE   C2A 7052   5.162  15.215   4.927
  782PNCE   C3A 7053   4.821  15.075   4.650
  782PNCE   C1B 7054   5.285  15.724   5.437
  782PNCE   C2B 7055   5.255  15.393   5.742
  782PNCE   C3B 7056   5.570  15.236   5.936
  782PNCE   D4B 7057   5.689  15.039   6.312
  782PNCE   C5B 7058   5.464  14.941   6.713
  782PNCE   C6B 7059   5.210  14.953   7.121
  783PNCE   AM1 7060   5.270   3.072   9.035
  783PNCE   AM2 7061   5.106   3.203   8.772
  783PNCE   T1A 7062   5.395   2.749   8.728
  783PNCE   C2A 7063   5.400   2.627   8.292
  783PNCE   C3A 7064   5.390   2.383   7.918
  783PNCE   C1B 7065   5.103   3.061   8.350
  783PNCE   C2B 7066   5.316   3.062   7.940
  783PNCE   C3B 7067   5.520   2.881   7.595
  783PNCE   D4B 7068   5.675   2.794   7.162
  783PNCE   C5B 7069   5.830   2.959   6.751
  783PNCE   C6B 7070   6.006   2.703   6.390
  784CHOL   ROH 7071  10.424   8.107   4.630
  784CHOL    R1 7072  10.429   8.272   4.860
  784CHOL    R2 7073  10.214   8.292   5.032
  784CHOL    R3 7074  10.399   8.224   5.220
  784CHOL    R4 7075  10.192   8.369   5.369
  784CHOL    R5 7076  10.406   8.412   5.368
  784CHOL    C1 7077  10.353   8.350   5.740
  784CHOL    C2 7078  10.620   8.409   6.040
  785PNCE   AM1 7079  11.177   2.266   4.791
  785PNCE   AM2 7080  11.032   2.419   4.534
  785PNCE   T1A 7081  11.195   2.378   5.207
  785PNCE   C2A 7082  11.280   2.364   5.615
  785PNCE   C3A 7083  11.630   2.071   5.727
  785PNCE   C1B 7084  11.005   2.744   4.895
  785PNCE   C2B 7085  10.989   2.848   5.351
  785PNCE   C3B 7086  11.137   2.858   5.785
  785PNCE   D4B 7087  10.960   3.005   6.166
  785PNCE   C5B 7088  11.038   2.945   6.607
  785PNCE   C6B 7089  11.295   3.041   6.970
  786XCA    COO 7090  11.383  11.206   9.270
  786XCA     C1 7091  10.927  11.167   9.101
  786XCA     C2 7092  10.613  11.007   8.765
  786XCA     C3 7093  10.536  10.847   8.324
  786XCA     C4 7094  10.788  10.864   7.939
  786XCA     C5 7095  11.055  10.726   7.626
  786XCA     C6 7096  10.950  10.654   7.236
  787CHOL   ROH 7097   7.391   6.068   4.585
  787CHOL    R1 7098   7.284   6.149   4.834
  787CHOL    R2 7099   7.364   6.381   4.962
  787CHOL    R3 7100   7.098   6.435   4.962
  787CHOL    R4 7101   7.206   6.592   5.185
  787CHOL    R5 7102   7.040   6.451   5.194
  787CHOL    C1 7103   6.863   6.766   5.314
  787CHOL    C2 7104   6.532   6.910   5.541
  788CHOL   ROH 7105   1.278  14.222   5.680
  788CHOL    R1 7106   1.392  14.111   5.914
  788CHOL    R2 7107   1.273  14.133   6.162
  788CHOL    R3 7108   1.296  13.862   6.162
  788CHOL    R4 7109   1.176  13.925   6.421
  788CHOL    R5 7110   1.355  13.807   6.387
  788CHOL    C1 7111   1.142  13.550   6.571
  788CHOL    C2 7112   0.861  13.450   6.817
  789XCA    COO 7113   3.876   6.587   4.563
  789XCA     C1 7114   4.197   6.755   4.861
  789XCA     C2 7115   4.153   6.892   5.315
  789XCA     C3 7116   4.537   6.979   5.533
  789XCA     C4 7117   4.877   6.933   5.824
  789XCA     C5 7118   5.020   6.671   6.182
  789XCA     C6 7119   4.890   6.223   6.272
  790XCA    COO 7120  10.455   9.835   8.482
  790XCA     C1 7121  10.468  10.016   8.033
  790XCA     C2 7122  10.424  10.033   7.560
  790XCA     C3 7123  10.622   9.967   7.149
  790XCA     C4 7124  10.705  10.015   6.703
  790XCA     C5 7125  10.467   9.800   6.410
  790XCA     C6 7126  10.140   9.894   6.156
  791CHOL   ROH 7127   0.252   3.788   4.776
  791CHOL    R1 7128   0.189   3.795   5.052
  791CHOL    R2 7129   0.145   3.566   5.200
  791CHOL    R3 7130   0.338   3.672   5.360
  791CHOL    R4 7131   0.237   3.440   5.508
  791CHOL    R5 7132   0.252   3.645   5.582
  791CHOL    C1 7133   0.470   3.466   5.839
  791CHOL    C2 7134   0.441   3.477   6.274
  792PNCE   AM1 7135  14.437  13.714   4.807
  792PNCE   AM2 7136  14.441  13.391   4.824
  792PNCE   T1A 7137  14.743  13.691   5.161
  792PNCE   C2A 7138  14.693  13.775   5.615
  792PNCE   C3A 7139  14.578  13.651   6.050
  792PNCE   C1B 7140  14.292  13.413   5.274
  792PNCE   C2B 7141  14.487  13.285   5.686
  792PNCE   C3B 7142  14.707  13.105   6.061
  792PNCE   D4B 7143  14.625  12.754   6.310
  792PNCE   C5B 7144  14.381  12.408   6.126
  792PNCE   C6B 7145  14.080  12.073   6.143
  793XCA    COO 7146  13.340   2.815   4.523
  793XCA     C1 7147  13.324   2.555   4.912
  793XCA     C2 7148  12.924   2.405   5.129
  793XCA     C3 7149  12.633   2.332   5.444
  793XCA     C4 7150  12.599   2.070   5.779
  793XCA     C5 7151  12.888   2.120   6.111
  793XCA     C6 7152  12.841   2.343   6.505
  794CHOL   ROH 7153  12.721   0.542   4.533
  794CHOL    R1 7154  12.900   0.570   4.750
  794CHOL    R2 7155  12.844   0.729   4.969
  794CHOL    R3 7156  12.895   0.501   5.108
  794CHOL    R4 7157  12.945   0.717   5.299
  794CHOL    R5 7158  13.082   0.556   5.246
  794CHOL    C1 7159  13.052   0.496   5.622
  794CHOL    C2 7160  13.096   0.463   6.026
  795PNCE   AM1 7161  14.189   0.439   4.454
  795PNCE   AM2 7162  13.843   0.300   4.450
  795PNCE   T1A 7163  14.155   0.258   4.910
  795PNCE   C2A 7164  14.205   0.290   5.369
  795PNCE   C3A 7165  14.041   0.089   5.747
  795PNCE   C1B 7166  13.689   0.044   4.815
  795PNCE   C2B 7167  13.821  15.783   5.255
  795PNCE   C3B 7168  13.959  15.426   5.525
  795PNCE   D4B 7169  13.924  15.246   5.969
  795PNCE   C5B 7170  13.504  15.024   6.133
  795PNCE   C6B 7171  13.292  14.780   6.505
  796XCA    COO 7172   4.877   2.325   5.392
  796XCA     C1 7173   4.863   2.505   5.833
  796XCA     C2 7174   4.802   2.729   6.223
  796XCA     C3 7175   4.598   2.998   6.510
  796XCA     C4 7176   4.720   3.366   6.722
  796XCA     C5 7177   4.832   3.784   6.566
  796XCA     C6 7178   5.070   3.903   6.216
  797XCA    COO 7179   5.771   5.566   7.098
  797XCA     C1 7180   5.889   5.629   6.692
  797XCA     C2 7181   6.155   5.871   6.434
  797XCA     C3 7182   6.097   6.286   6.251
  797XCA     C4 7183   6.174   6.614   5.952
  797XCA     C5 7184   6.361   7.029   6.014
  797XCA     C6 7185   6.694   7.298   5.897
  798PNCE   AM1 7186   4.831  11.452   4.175
  798PNCE   AM2 7187   4.935  11.482   4.506
  798PNCE   T1A 7188   4.557  11.157   4.342
  798PNCE   C2A 7189   4.276  10.797   4.278
  798PNCE   C3A 7190   4.165  10.364   4.365
  798PNCE   C1B 7191   4.711  11.301   4.862
  798PNCE   C2B 7192   4.562  10.959   5.124
  798PNCE   C3B 7193   4.274  10.742   5.334
  798PNCE   D4B 7194   4.053  10.682   5.683
  798PNCE   C5B 7195   4.210  10.296   5.906
  798PNCE   C6B 7196   4.002  10.163   6.312
  799CHOL   ROH 7197   0.600   1.090   6.808
  799CHOL    R1 7198   0.724   1.084   7.063
  799CHOL    R2 7199   0.922   0.904   7.128
  799CHOL    R3 7200   1.060   1.128   7.195
  799CHOL    R4 7201   1.203   0.910   7.329
  799CHOL    R5 7202   1.126   1.092   7.422
  799CHOL    C1 7203   1.496   1.125   7.509
  799CHOL    C2 7204   1.863   1.328   7.410
  800PNCE   AM1 7205   8.996   7.031   4.530
  800PNCE   AM2 7206   8.851   7.331   4.651
  800PNCE   T1A 7207   9.172   7.017   4.954
  800PNCE   C2A 7208   9.549   7.049   5.184
  800PNCE   C3A 7209   9.593   7.084   5.613
  800PNCE   C1B 7210   8.744   7.299   5.106
  800PNCE   C2B 7211   8.390   7.341   5.417
  800PNCE   C3B 7212   8.092   7.394   5.785
  800PNCE   D4B 7213   7.832   7.652   6.101
  800PNCE   C5B 7214   7.383   7.579   6.255
  800PNCE   C6B 7215   7.063   7.503   6.619
  801CHOL   ROH 7216   1.919   9.215   8.610
  801CHOL    R1 7217   1.887   8.982   8.453
  801CHOL    R2 7218   1.663   8.936   8.298
  801CHOL    R3 7219   1.846   8.905   8.099
  801CHOL    R4 7220   1.593   8.816   7.981
  801CHOL    R5 7221   1.780   8.703   7.988
  801CHOL    C1 7222   1.724   8.716   7.611
  801CHOL    C2 7223   1.625   8.701   7.238
  802CHOL   ROH 7224   2.032   0.408   9.247
  802CHOL    R1 7225   1.897   0.365   9.002
  802CHOL    R2 7226   1.989   0.465   8.762
  802CHOL    R3 7227   1.971   0.205   8.684
  802CHOL    R4 7228   1.936   0.359   8.437
  802CHOL    R5 7229   1.802   0.205   8.514
  802CHOL    C1 7230   1.888   0.054   8.175
  802CHOL    C2 7231   1.584  15.694   7.931
  803PNCE   AM1 7232  10.156   0.353   5.078
  803PNCE   AM2 7233   9.921   0.653   5.027
  803PNCE   T1A 7234  10.075   0.510   5.515
  803PNCE   C2A 7235  10.146   0.711   5.911
  803PNCE   C3A 7236  10.267   0.887   6.300
  803PNCE   C1B 7237   9.664   0.823   5.377
  803PNCE   C2B 7238   9.735   1.065   5.764
  803PNCE   C3B 7239   9.846   1.341   6.128
  803PNCE   D4B 7240  10.062   1.367   6.504
  803PNCE   C5B 7241  10.495   1.256   6.573
  803PNCE   C6B 7242  10.925   1.305   6.692
  804PNCE   AM1 7243   1.490   6.650   4.470
  804PNCE   AM2 7244   1.103   6.691   4.491
  804PNCE   T1A 7245   1.753   6.383   4.757
  804PNCE   C2A 7246   2.000   6.242   5.111
  804PNCE   C3A 7247   2.180   6.213   5.521
  804PNCE   C1B 7248   1.209   6.535   4.907
  804PNCE   C2B 7249   1.479   6.416   5.226
  804PNCE   C3B 7250   1.454   6.177   5.551
  804PNCE   D4B 7251   1.163   5.874   5.502
  804PNCE   C5B 7252   0.975   6.116   5.173
  804PNCE   C6B 7253   0.823   6.057   4.733
  805XCA    COO 7254   3.393  11.183   4.502
  805XCA     C1 7255   3.618  11.375   4.882
  805XCA     C2 7256   3.723  11.672   5.228
  805XCA     C3 7257   3.711  11.883   5.669
  805XCA     C4 7258   3.731  12.273   5.951
  805XCA     C5 7259   3.966  12.718   5.972
  805XCA     C6 7260   4.244  12.919   6.268
  806PNCE   AM1 7261  15.070   8.025   4.081
  806PNCE   AM2 7262  15.376   7.838   4.187
  806PNCE   T1A 7263  14.888   8.335   4.401
  806PNCE   C2A 7264  14.865   8.746   4.631
  806PNCE   C3A 7265  14.740   9.203   4.702
  806PNCE   C1B 7266  15.003   7.652   4.409
  806PNCE   C2B 7267  14.683   7.897   4.611
  806PNCE   C3B 7268  14.579   8.258   4.852
  806PNCE   D4B 7269  14.734   8.599   5.098
  806PNCE   C5B 7270  14.517   9.024   5.127
  806PNCE   C6B 7271  14.487   9.499   5.105
  807PNCE   AM1 7272  10.913   8.248   4.347
  807PNCE   AM2 7273  11.133   8.532   4.255
  807PNCE   T1A 7274  10.862   8.042   4.765
  807PNCE   C2A 7275  10.690   7.808   5.160
  807PNCE   C3A 7276  10.623   7.577   5.593
  807PNCE   C1B 7277  11.004   8.933   4.460
  807PNCE   C2B 7278  10.957   9.188   4.830
  807PNCE   C3B 7279  10.865   9.292   5.278
  807PNCE   D4B 7280  10.772   9.438   5.701
  807PNCE   C5B 7281  10.892   9.350   6.121
  807PNCE   C6B 7282  10.960   9.650   6.435
  808PNCE   AM1 7283  11.165   0.911   9.585
  808PNCE   AM2 7284  11.476   0.775   9.443
  808PNCE   T1A 7285  10.902   0.601   9.358
  808PNCE   C2A 7286  11.050   0.238   9.144
  808PNCE   C3A 7287  11.498   0.176   8.989
  808PNCE   C1B 7288  11.274   0.693   9.015
  808PNCE   C2B 7289  11.173   0.589   8.568
  808PNCE   C3B 7290  10.922   0.767   8.230
  808PNCE   D4B 7291  10.994   0.881   7.772
  808PNCE   C5B 7292  10.767   0.648   7.404
  808PNCE   C6B 7293  10.363   0.544   7.167
  809CHOL   ROH 7294   6.080   5.866   4.799
  809CHOL    R1 7295   5.953   5.957   5.035
  809CHOL    R2 7296   5.709   5.859   5.120
  809CHOL    R3 7297   5.845   5.812   5.351
  809CHOL    R4 7298   5.566   5.750   5.415
  809CHOL    R5 7299   5.697   5.887   5.523
  809CHOL    C1 7300   5.610   5.643   5.804
  809CHOL    C2 7301   5.833   5.558   6.160
  810PNCE   AM1 7302  10.166  12.104   5.097
  810PNCE   AM2 7303  10.514  12.199   5.200
  810PNCE   T1A 7304  10.316  11.722   4.943
  810PNCE   C2A 7305  10.264  11.310   5.027
  810PNCE   C3A 7306  10.086  11.040   5.301
  810PNCE   C1B 7307  10.478  11.986   5.642
  810PNCE   C2B 7308  10.522  11.737   6.046
  810PNCE   C3B 7309  10.337  11.683   6.461
  810PNCE   D4B 7310  10.233  11.412   6.815
  810PNCE   C5B 7311  10.300  11.486   7.284
  810PNCE   C6B 7312  10.022  11.544   7.631
  811PNCE   AM1 7313   8.773   4.528   4.487
  811PNCE   AM2 7314   8.680   4.778   4.724
  811PNCE   T1A 7315   8.880   4.260   4.886
  811PNCE   C2A 7316   9.122   4.086   5.258
  811PNCE   C3A 7317   9.499   4.213   5.453
  811PNCE   C1B 7318   8.948   4.984   5.050
  811PNCE   C2B 7319   9.251   4.766   5.309
  811PNCE   C3B 7320   9.517   4.717   5.644
  811PNCE   D4B 7321   9.815   4.711   5.939
  811PNCE   C5B 7322   9.762   4.875   6.347
  811PNCE   C6B 7323   9.671   4.832   6.791
  812CHOL   ROH 7324  12.917  12.479   8.764
  812CHOL    R1 7325  12.876  12.560   8.496
  812CHOL    R2 7326  12.768  12.806   8.430
  812CHOL    R3 7327  12.994  12.828   8.280
  812CHOL    R4 7328  12.786  12.957   8.120
  812CHOL    R5 7329  12.919  12.798   8.054
  812CHOL    C1 7330  13.007  13.066   7.798
  812CHOL    C2 7331  13.190  13.054   7.412
  813PNCE   AM1 7332   7.632  10.718   4.887
  813PNCE   AM2 7333   7.544  11.063   4.972
  813PNCE   T1A 7334   7.821  10.411   5.201
  813PNCE   C2A 7335   7.729  10.029   5.498
  813PNCE   C3A 7336   7.756   9.773   5.907
  813PNCE   C1B 7337   7.720  11.264   5.367
  813PNCE   C2B 7338   7.833  11.300   5.803
  813PNCE   C3B 7339   7.903  11.597   6.038
  813PNCE   D4B 7340   7.961  12.034   6.019
  813PNCE   C5B 7341   7.618  12.217   6.272
  813PNCE   C6B 7342   7.157  12.253   6.382
  814CHOL   ROH 7343   4.435   3.931   8.412
  814CHOL    R1 7344   4.572   3.796   8.203
  814CHOL    R2 7345   4.472   3.569   8.083
  814CHOL    R3 7346   4.507   3.714   7.855
  814CHOL    R4 7347   4.522   3.434   7.769
  814CHOL    R5 7348   4.670   3.590   7.731
  814CHOL    C1 7349   4.585   3.491   7.372
  814CHOL    C2 7350   4.760   3.212   7.223
  815XCA    COO 7351   7.432  14.678   5.029
  815XCA     C1 7352   7.460  14.384   5.369
  815XCA     C2 7353   7.688  14.257   5.716
  815XCA     C3 7354   7.777  14.549   6.070
  815XCA     C4 7355   7.921  14.976   6.181
  815XCA     C5 7356   8.039  15.186   6.539
  815XCA     C6 7357   7.974  15.419   6.919
  816PNCE   AM1 7358  11.375  12.422   5.269
  816PNCE   AM2 7359  11.244  12.496   5.597
  816PNCE   T1A 7360  11.006  12.103   5.350
  816PNCE   C2A 7361  10.863  11.638   5.381
  816PNCE   C3A 7362  11.177  11.295   5.540
  816PNCE   C1B 7363  11.295  12.131   5.795
  816PNCE   C2B 7364  11.004  11.985   6.105
  816PNCE   C3B 7365  10.832  11.875   6.451
  816PNCE   D4B 7366  10.737  11.587   6.740
  816PNCE   C5B 7367  10.788  11.628   7.196
  816PNCE   C6B 7368  10.710  11.431   7.587
  817PNCE   AM1 7369   9.176   9.488   4.403
  817PNCE   AM2 7370   9.297   9.793   4.562
  817PNCE   T1A 7371   9.068   9.382   4.843
  817PNCE   C2A 7372   9.047   9.456   5.303
  817PNCE   C3A 7373   9.127   9.676   5.712
  817PNCE   C1B 7374   9.452   9.894   4.963
  817PNCE   C2B 7375   9.496   9.729   5.352
  817PNCE   C3B 7376   9.633   9.760   5.774
  817PNCE   D4B 7377   9.614   9.930   6.198
  817PNCE   C5B 7378   9.376   9.749   6.548
  817PNCE   C6B 7379   9.203   9.812   6.976
  818CHOL   ROH 7380   4.898  15.425   5.279
  818CHOL    R1 7381   4.837  15.364   5.548
  818CHOL    R2 7382   4.627  15.201   5.620
  818CHOL    R3 7383   4.820  15.065   5.755
  818CHOL    R4 7384   4.569  14.979   5.879
  818CHOL    R5 7385   4.743  15.061   5.981
  818CHOL    C1 7386   4.717  14.723   6.156
  818CHOL    C2 7387   4.668  14.566   6.569
  819CHOL   ROH 7388   9.796   3.415   5.025
  819CHOL    R1 7389   9.861   3.534   5.273
  819CHOL    R2 7390  10.026   3.755   5.293
  819CHOL    R3 7391   9.816   3.860   5.430
  819CHOL    R4 7392  10.046   4.021   5.513
  819CHOL    R5 7393   9.906   3.917   5.644
  819CHOL    C1 7394   9.859   4.275   5.768
  819CHOL    C2 7395  10.205   4.365   5.865
  820CHOL   ROH 7396  11.151   8.078   7.901
  820CHOL    R1 7397  11.304   8.106   7.665
  820CHOL    R2 7398  11.195   8.198   7.428
  820CHOL    R3 7399  11.398   8.378   7.442
  820CHOL    R4 7400  11.361   8.330   7.155
  820CHOL    R5 7401  11.547   8.314   7.267
  820CHOL    C1 7402  11.647   8.577   7.010
  820CHOL    C2 7403  11.801   8.868   6.829
  821CHOL   ROH 7404  13.077   3.552   8.387
  821CHOL    R1 7405  12.868   3.617   8.207
  821CHOL    R2 7406  12.865   3.851   8.062
  821CHOL    R3 7407  12.838   3.683   7.850
  821CHOL    R4 7408  12.726   3.937   7.757
  821CHOL    R5 7409  12.627   3.743   7.753
  821CHOL    C1 7410  12.619   3.828   7.382
  821CHOL    C2 7411  12.388   4.061   7.109
  822CHOL   ROH 7412   9.395   2.271   8.956
  822CHOL    R1 7413   9.304   2.197   8.699
  822CHOL    R2 7414   9.474   2.099   8.504
  822CHOL    R3 7415   9.296   1.893   8.498
  822CHOL    R4 7416   9.461   1.855   8.259
  822CHOL    R5 7417   9.243   1.866   8.267
  822CHOL    C1 7418   9.287   1.521   8.111
  822CHOL    C2 7419   9.511   1.369   7.816
  823PNCE   AM1 7420   3.265   3.088   5.114
  823PNCE   AM2 7421   3.046   3.188   4.854
  823PNCE   T1A 7422   3.117   3.167   5.549
  823PNCE   C2A 7423   2.999   3.104   6.002
  823PNCE   C3A 7424   2.927   3.005   6.443
  823PNCE   C1B 7425   3.125   3.598   5.011
  823PNCE   C2B 7426   3.090   3.954   5.266
  823PNCE   C3B 7427   3.439   4.130   5.509
  823PNCE   D4B 7428   3.486   4.287   5.924
  823PNCE   C5B 7429   3.842   4.564   6.082
  823PNCE   C6B 7430   4.106   4.954   6.089
  824PNCE   AM1 7431   9.704   1.253   4.473
  824PNCE   AM2 7432   9.780   1.585   4.580
  824PNCE   T1A 7433   9.597   1.212   4.933
  824PNCE   C2A 7434   9.514   1.358   5.363
  824PNCE   C3A 7435   9.634   1.572   5.729
  824PNCE   C1B 7436   9.799   1.691   5.041
  824PNCE   C2B 7437  10.137   1.615   5.342
  824PNCE   C3B 7438  10.198   1.577   5.761
  824PNCE   D4B 7439  10.385   1.319   6.061
  824PNCE   C5B 7440  10.831   1.206   6.159
  824PNCE   C6B 7441  11.235   1.028   6.299
  825XCA    COO 7442   2.454  13.409   8.530
  825XCA     C1 7443   2.055  13.425   8.256
  825XCA     C2 7444   1.825  13.271   7.892
  825XCA     C3 7445   1.501  13.299   7.572
  825XCA     C4 7446   1.143  13.584   7.597
  825XCA     C5 7447   0.743  13.479   7.779
  825XCA     C6 7448   0.495  13.195   7.624
  826XCA    COO 7449   1.215   3.312   4.691
  826XCA     C1 7450   1.112   3.374   5.147
  826XCA     C2 7451   0.803   3.619   5.360
  826XCA     C3 7452   0.667   3.872   5.650
  826XCA     C4 7453   0.434   3.939   6.017
  826XCA     C5 7454   0.189   4.333   6.110
  826XCA     C6 7455  15.753   4.737   6.119
  827XCA    COO 7456   9.260  11.569   8.710
  827XCA     C1 7457   9.049  11.485   8.306
  827XCA     C2 7458   9.063  11.503   7.857
  827XCA     C3 7459   8.878  11.748   7.504
  827XCA     C4 7460   8.934  12.198   7.419
  827XCA     C5 7461   9.073  12.501   7.802
  827XCA     C6 7462   8.984  12.775   8.161
  828PNCE   AM1 7463   9.673  12.777   5.277
  828PNCE   AM2 7464   9.430  12.993   5.456
  828PNCE   T1A 7465   9.792  12.659   5.720
  828PNCE   C2A 7466   9.860  12.379   6.083
  828PNCE   C3A 7467   9.963  12.422   6.535
  828PNCE   C1B 7468   9.424  13.035   5.930
  828PNCE   C2B 7469   9.543  13.234   6.337
  828PNCE   C3B 7470   9.418  13.219   6.761
  828PNCE   D4B 7471   9.383  13.126   7.218
  828PNCE   C5B 7472   9.198  12.733   7.323
  828PNCE   C6B 7473   9.407  12.355   7.453
  829PNCE   AM1 7474   3.994   9.512   3.215
  829PNCE   AM2 7475   3.998   9.839   3.390
  829PNCE   T1A 7476   4.000   9.154   3.543
  829PNCE   C2A 7477   3.696   8.985   3.880
  829PNCE   C3A 7478   3.334   8.748   4.058
  829PNCE   C1B 7479   4.111   9.630   3.771
  829PNCE   C2B 7480   3.871   9.437   4.092
  829PNCE   C3B 7481   3.743   9.429   4.537
  829PNCE   D4B 7482   3.678   9.219   4.930
  829PNCE   C5B 7483   3.722   9.326   5.369
  829PNCE   C6B 7484   4.096   9.357   5.631
  830PNCE   AM1 7485   4.479   4.621   4.499
  830PNCE   AM2 7486   4.610   4.288   4.470
  830PNCE   T1A 7487   4.614   4.534   4.936
  830PNCE   C2A 7488   4.934   4.449   5.243
  830PNCE   C3A 7489   4.886   4.441   5.692
  830PNCE   C1B 7490   4.989   4.289   4.712
  830PNCE   C2B 7491   5.222   4.038   4.974
  830PNCE   C3B 7492   5.440   4.187   5.321
  830PNCE   D4B 7493   5.370   4.492   5.597
  830PNCE   C5B 7494   5.130   4.858   5.492
  830PNCE   C6B 7495   5.024   5.187   5.187
  831PNCE   AM1 7496   2.187  11.989   4.471
  831PNCE   AM2 7497   2.023  12.310   4.386
  831PNCE   T1A 7498   2.487  12.289   4.668
  831PNCE   C2A 7499   2.616  12.659   4.882
  831PNCE   C3A 7500   2.812  12.860   5.236
  831PNCE   C1B 7501   1.832  12.160   4.809
  831PNCE   C2B 7502   1.558  11.802   4.944
  831PNCE   C3B 7503   1.607  11.599   5.364
  831PNCE   D4B 7504   1.673  11.561   5.849
  831PNCE   C5B 7505   1.348  11.482   6.227
  831PNCE   C6B 7506   1.251  11.599   6.697
  832XCA    COO 7507   2.448   9.995   4.001
  832XCA     C1 7508   2.504   9.750   4.412
  832XCA     C2 7509   2.809   9.713   4.761
  832XCA     C3 7510   2.934   9.473   5.129
  832XCA     C4 7511   3.187   9.276   5.474
  832XCA     C5 7512   3.137   9.004   5.837
  832XCA     C6 7513   3.020   8.716   6.168
  833PNCE   AM1 7514   4.990  13.377   4.155
  833PNCE   AM2 7515   4.659  13.224   4.198
  833PNCE   T1A 7516   5.330  13.172   4.367
  833PNCE   C2A 7517   5.718  12.974   4.468
  833PNCE   C3A 7518   5.840  12.646   4.741
  833PNCE   C1B 7519   4.860  13.089   4.615
  833PNCE   C2B 7520   5.079  13.227   5.011
  833PNCE   C3B 7521   5.227  13.225   5.439
  833PNCE   D4B 7522   5.360  12.965   5.772
  833PNCE   C5B 7523   5.143  12.983   6.172
  833PNCE   C6B 7524   4.723  13.098   6.316
  834PNCE   AM1 7525  13.182  10.031   4.330
  834PNCE   AM2 7526  13.523  10.070   4.388
  834PNCE   T1A 7527  12.792   9.850   4.232
  834PNCE   C2A 7528  12.379   9.709   4.347
  834PNCE   C3A 7529  12.166   9.481   4.679
  834PNCE   C1B 7530  13.463   9.869   4.751
  834PNCE   C2B 7531  13.523   9.872   5.149
  834PNCE   C3B 7532  13.285   9.741   5.468
  834PNCE   D4B 7533  13.299   9.466   5.794
  834PNCE   C5B 7534  13.365   9.611   6.215
  834PNCE   C6B 7535  13.648   9.873   6.505
  835CHOL   ROH 7536  12.972  12.120   8.290
  835CHOL    R1 7537  12.961  12.150   8.009
  835CHOL    R2 7538  13.183  12.217   7.858
  835CHOL    R3 7539  13.116  11.993   7.720
  835CHOL    R4 7540  13.254  12.162   7.525
  835CHOL    R5 7541  13.057  12.073   7.502
  835CHOL    C1 7542  13.233  11.920   7.200
  835CHOL    C2 7543  13.315  12.103   6.820
  836CHOL   ROH 7544   8.249   1.902   8.659
  836CHOL    R1 7545   8.131   1.799   8.423
  836CHOL    R2 7546   7.947   1.941   8.275
  836CHOL    R3 7547   8.120   1.892   8.071
  836CHOL    R4 7548   7.855   1.884   7.946
  836CHOL    R5 7549   8.008   1.729   7.936
  836CHOL    C1 7550   7.964   1.804   7.564
  836CHOL    C2 7551   7.891   1.736   7.129
  837PNCE   AM1 7552  10.238   2.181   4.734
  837PNCE   AM2 7553  10.146   2.473   4.935
  837PNCE   T1A 7554  10.329   2.035   5.145
  837PNCE   C2A 7555  10.440   1.990   5.555
  837PNCE   C3A 7556  10.568   1.972   5.988
  837PNCE   C1B 7557  10.200   2.470   5.412
  837PNCE   C2B 7558  10.346   2.418   5.851
  837PNCE   C3B 7559  10.283   2.338   6.298
  837PNCE   D4B 7560  10.422   2.206   6.765
  837PNCE   C5B 7561  10.845   2.001   6.839
  837PNCE   C6B 7562  11.191   1.733   6.744
  838PNCE   AM1 7563   9.885  11.772   4.649
  838PNCE   AM2 7564   9.710  11.588   4.414
  838PNCE   T1A 7565   9.810  11.656   5.083
  838PNCE   C2A 7566  10.059  11.578   5.441
  838PNCE   C3A 7567  10.161  11.399   5.825
  838PNCE   C1B 7568   9.856  11.251   4.729
  838PNCE   C2B 7569   9.842  10.839   4.885
  838PNCE   C3B 7570   9.718  10.677   5.273
  838PNCE   D4B 7571   9.636  10.628   5.697
  838PNCE   C5B 7572   9.541  10.476   6.124
  838PNCE   C6B 7573   9.334  10.299   6.483
  839PNCE   AM1 7574  13.499  14.401   4.928
  839PNCE   AM2 7575  13.753  14.672   4.981
  839PNCE   T1A 7576  13.453  14.450   5.385
  839PNCE   C2A 7577  13.457  14.579   5.800
  839PNCE   C3A 7578  13.553  14.493   6.194
  839PNCE   C1B 7579  13.755  14.860   5.416
  839PNCE   C2B 7580  13.528  15.171   5.635
  839PNCE   C3B 7581  13.542  15.607   5.771
  839PNCE   D4B 7582  13.211  15.788   5.993
  839PNCE   C5B 7583  12.960  15.793   6.409
  839PNCE   C6B 7584  12.586   0.024   6.696
  840XCA    COO 7585  13.027   8.662   4.033
  840XCA     C1 7586  12.798   8.678   4.458
  840XCA     C2 7587  12.595   8.519   4.845
  840XCA     C3 7588  12.523   8.478   5.312
  840XCA     C4 7589  12.611   8.586   5.751
  840XCA     C5 7590  12.376   8.688   6.154
  840XCA     C6 7591  12.289   8.777   6.618
  841CHOL   ROH 7592   2.745   4.734   7.385
  841CHOL    R1 7593   2.578   4.518   7.313
  841CHOL    R2 7594   2.313   4.503   7.388
  841CHOL    R3 7595   2.273   4.472   7.121
  841CHOL    R4 7596   2.034   4.356   7.246
  841CHOL    R5 7597   2.164   4.259   7.102
  841CHOL    C1 7598   1.833   4.242   6.913
  841CHOL    C2 7599   1.836   3.841   6.871
  842PNCE   AM1 7600   4.898  12.761   4.122
  842PNCE   AM2 7601   4.551  12.692   4.146
  842PNCE   T1A 7602   4.894  12.506   4.505
  842PNCE   C2A 7603   4.785  12.382   4.922
  842PNCE   C3A 7604   4.425  12.426   5.234
  842PNCE   C1B 7605   4.364  12.512   4.562
  842PNCE   C2B 7606   4.303  12.111   4.811
  842PNCE   C3B 7607   4.195  11.920   5.215
  842PNCE   D4B 7608   4.318  11.829   5.607
  842PNCE   C5B 7609   4.383  11.473   5.878
  842PNCE   C6B 7610   4.248  11.126   6.107
  843CHOL   ROH 7611  10.898   7.282   7.824
  843CHOL    R1 7612  11.026   7.261   7.573
  843CHOL    R2 7613  10.889   7.276   7.333
  843CHOL    R3 7614  11.069   7.472   7.279
  843CHOL    R4 7615  10.944   7.412   7.021
  843CHOL    R5 7616  11.158   7.413   7.064
  843CHOL    C1 7617  11.146   7.675   6.787
  843CHOL    C2 7618  11.147   7.886   6.455
  844XCA    COO 7619   3.303  14.923   8.208
  844XCA     C1 7620   3.166  14.939   7.749
  844XCA     C2 7621   3.068  14.950   7.312
  844XCA     C3 7622   2.842  14.758   6.986
  844XCA     C4 7623   2.479  14.740   6.755
  844XCA     C5 7624   2.213  15.105   6.735
  844XCA     C6 7625   1.874  15.308   6.579
  845PNCE   AM1 7626   8.378   3.993   5.014
  845PNCE   AM2 7627   8.512   4.233   5.217
  845PNCE   T1A 7628   7.948   4.203   5.065
  845PNCE   C2A 7629   7.496   4.311   5.148
  845PNCE   C3A 7630   7.103   4.067   5.076
  845PNCE   C1B 7631   8.187   4.031   5.491
  845PNCE   C2B 7632   7.881   4.221   5.748
  845PNCE   C3B 7633   7.627   3.915   5.925
  845PNCE   D4B 7634   7.656   3.679   6.257
  845PNCE   C5B 7635   7.378   3.353   6.179
  845PNCE   C6B 7636   7.117   3.136   5.858
  846CHOL   ROH 7637  11.426   6.646   7.571
  846CHOL    R1 7638  11.200   6.633   7.401
  846CHOL    R2 7639  10.947   6.709   7.483
  846CHOL    R3 7640  10.959   6.868   7.263
  846CHOL    R4 7641  10.682   6.892   7.357
  846CHOL    R5 7642  10.747   6.837   7.156
  846CHOL    C1 7643  10.539   7.147   7.076
  846CHOL    C2 7644  10.325   7.229   6.749
  847XCA    COO 7645  12.447   9.669   9.010
  847XCA     C1 7646  12.264   9.776   8.575
  847XCA     C2 7647  12.043   9.789   8.144
  847XCA     C3 7648  12.204   9.669   7.735
  847XCA     C4 7649  12.599   9.473   7.521
  847XCA     C5 7650  12.893   9.603   7.209
  847XCA     C6 7651  13.204   9.678   6.816
  848CHOL   ROH 7652   2.797   8.212   6.039
  848CHOL    R1 7653   2.772   8.249   6.318
  848CHOL    R2 7654   2.988   8.237   6.489
  848CHOL    R3 7655   2.899   8.482   6.567
  848CHOL    R4 7656   3.052   8.383   6.796
  848CHOL    R5 7657   2.847   8.456   6.799
  848CHOL    C1 7658   3.005   8.698   7.048
  848CHOL    C2 7659   3.079   8.398   7.304
  849CHOL   ROH 7660  12.320   7.378   7.860
  849CHOL    R1 7661  12.142   7.516   7.689
  849CHOL    R2 7662  12.189   7.548   7.419
  849CHOL    R3 7663  11.941   7.438   7.396
  849CHOL    R4 7664  12.000   7.544   7.129
  849CHOL    R5 7665  11.823   7.586   7.249
  849CHOL    C1 7666  11.658   7.438   6.939
  849CHOL    C2 7667  11.630   7.146   6.605
  850CHOL   ROH 7668   7.227   4.648   8.350
  850CHOL    R1 7669   7.352   4.532   8.125
  850CHOL    R2 7670   7.223   4.353   7.959
  850CHOL    R3 7671   7.298   4.528   7.765
  850CHOL    R4 7672   7.268   4.271   7.626
  850CHOL    R5 7673   7.443   4.401   7.623
  850CHOL    C1 7674   7.364   4.388   7.250
  850CHOL    C2 7675   7.265   4.230   6.850
  851PNCE   AM1 7676   0.034   4.160   4.387
  851PNCE   AM2 7677   0.358   4.255   4.564
  851PNCE   T1A 7678  15.686   4.088   4.822
  851PNCE   C2A 7679  15.721   4.089   5.282
  851PNCE   C3A 7680   0.078   4.081   5.672
  851PNCE   C1B 7681   0.201   4.420   4.979
  851PNCE   C2B 7682   0.234   4.521   5.423
  851PNCE   C3B 7683   0.633   4.565   5.663
  851PNCE   D4B 7684   0.957   4.728   5.968
  851PNCE   C5B 7685   1.369   4.585   5.950
  851PNCE   C6B 7686   1.608   4.404   5.657
  852XCA    COO 7687  14.744   3.637   8.645
  852XCA     C1 7688  14.674   3.308   8.306
  852XCA     C2 7689  14.455   3.295   7.925
  852XCA     C3 7690  14.439   3.372   7.514
  852XCA     C4 7691  14.281   3.243   7.153
  852XCA     C5 7692  14.221   2.999   6.787
  852XCA     C6 7693  14.229   2.838   6.370
  853PNCE   AM1 7694   2.117  14.661   4.908
  853PNCE   AM2 7695   1.932  15.004   4.956
  853PNCE   T1A 7696   2.340  14.247   5.072
  853PNCE   C2A 7697   2.570  13.934   5.316
  853PNCE   C3A 7698   2.686  13.725   5.667
  853PNCE   C1B 7699   1.932  15.070   5.451
  853PNCE   C2B 7700   1.894  14.914   5.894
  853PNCE   C3B 7701   2.089  14.667   6.210
  853PNCE   D4B 7702   2.520  14.583   6.243
  853PNCE   C5B 7703   2.933  14.697   6.034
  853PNCE   C6B 7704   3.261  14.978   6.188
  854CHOL   ROH 7705  10.855   4.999   8.070
  854CHOL    R1 7706  11.034   4.961   7.853
  854CHOL    R2 7707  10.995   4.767   7.661
  854CHOL    R3 7708  11.016   4.977   7.490
  854CHOL    R4 7709  11.052   4.741   7.321
  854CHOL    R5 7710  11.186   4.911   7.335
  854CHOL    C1 7711  11.104   4.923   6.963
  854CHOL    C2 7712  11.160   4.791   6.535
  855PNCE   AM1 7713   8.691  15.793   5.576
  855PNCE   AM2 7714   8.756   0.306   5.658
  855PNCE   T1A 7715   8.820  15.709   5.993
  855PNCE   C2A 7716   8.832   0.085   6.406
  855PNCE   C3A 7717   9.046   0.406   6.692
  855PNCE   C1B 7718   8.992   0.648   5.869
  855PNCE   C2B 7719   9.219   0.648   6.255
  855PNCE   C3B 7720   9.545   0.503   6.566
  855PNCE   D4B 7721   9.834   0.466   6.924
  855PNCE   C5B 7722   9.703   0.292   7.364
  855PNCE   C6B 7723   9.806  15.788   7.705
  856CHOL   ROH 7724  15.671   4.750   8.189
  856CHOL    R1 7725  15.764   4.595   7.972
  856CHOL    R2 7726   0.061   4.352   8.006
  856CHOL    R3 7727  15.698   4.264   7.835
  856CHOL    R4 7728   0.082   4.065   7.814
  856CHOL    R5 7729  15.819   4.174   7.650
  856CHOL    C1 7730  15.743   3.816   7.542
  856CHOL    C2 7731  15.822   3.440   7.570
  857CHOL   ROH 7732  15.217   5.927   4.708
  857CHOL    R1 7733  15.337   5.802   4.931
  857CHOL    R2 7734  15.533   5.924   5.083
  857CHOL    R3 7735  15.364   5.867   5.288
  857CHOL    R4 7736  15.629   5.875   5.411
  857CHOL    R5 7737  15.485   5.712   5.425
  857CHOL    C1 7738  15.527   5.793   5.795
  857CHOL    C2 7739  15.302   5.903   6.057
  858CHOL   ROH 7740   1.815   2.840   4.978
  858CHOL    R1 7741   1.685   2.750   5.212
  858CHOL    R2 7742   1.823   2.671   5.438
  858CHOL    R3 7743   1.666   2.855   5.561
  858CHOL    R4 7744   1.704   2.645   5.761
  858CHOL    R5 7745   1.514   2.725   5.692
  858CHOL    C1 7746   1.487   2.803   6.065
  858CHOL    C2 7747   1.098   2.732   6.269
  859CHOL   ROH 7748   0.744   1.476   5.882
  859CHOL    R1 7749   0.825   1.570   6.136
  859CHOL    R2 7750   0.733   1.459   6.372
  859CHOL    R3 7751   0.999   1.434   6.425
  859CHOL    R4 7752   0.870   1.447   6.689
  859CHOL    R5 7753   1.034   1.573   6.617
  859CHOL    C1 7754   1.199   1.417   6.924
  859CHOL    C2 7755   1.398   1.559   7.267
  860PNCE   AM1 7756   2.913   8.428   3.993
  860PNCE   AM2 7757   2.904   8.039   3.924
  860PNCE   T1A 7758   3.350   8.226   4.128
  860PNCE   C2A 7759   3.709   7.924   4.313
  860PNCE   C3A 7760   4.012   7.656   4.588
  860PNCE   C1B 7761   2.775   8.081   4.345
  860PNCE   C2B 7762   2.491   8.043   4.668
  860PNCE   C3B 7763   2.486   8.141   5.109
  860PNCE   D4B 7764   2.105   8.315   5.353
  860PNCE   C5B 7765   2.095   8.473   5.802
  860PNCE   C6B 7766   1.960   8.756   6.156
  861PNCE   AM1 7767   5.755   9.441   4.488
  861PNCE   AM2 7768   5.979   9.682   4.295
  861PNCE   T1A 7769   6.172   9.485   4.739
  861PNCE   C2A 7770   6.379   9.513   5.180
  861PNCE   C3A 7771   6.442   9.484   5.643
  861PNCE   C1B 7772   5.835   9.914   4.720
  861PNCE   C2B 7773   5.517  10.170   4.994
  861PNCE   C3B 7774   5.259  10.448   5.290
  861PNCE   D4B 7775   4.925  10.566   5.607
  861PNCE   C5B 7776   5.081  10.712   6.015
  861PNCE   C6B 7777   4.993  10.820   6.455
  862XCA    COO 7778  12.317  10.554   8.388
  862XCA     C1 7779  12.350  10.324   7.964
  862XCA     C2 7780  12.366  10.116   7.517
  862XCA     C3 7781  12.526   9.954   7.128
  862XCA     C4 7782  12.700   9.714   6.777
  862XCA     C5 7783  12.871   9.550   6.406
  862XCA     C6 7784  12.569   9.525   6.091
  863CHOL   ROH 7785   9.638  15.759   9.242
  863CHOL    R1 7786   9.622  15.734   8.960
  863CHOL    R2 7787   9.757  15.538   8.821
  863CHOL    R3 7788   9.510  15.481   8.723
  863CHOL    R4 7789   9.692  15.314   8.566
  863CHOL    R5 7790   9.544  15.453   8.488
  863CHOL    C1 7791   9.422  15.130   8.327
  863CHOL    C2 7792   9.625  14.759   8.208
  864PNCE   AM1 7793   5.396   5.412   8.131
  864PNCE   AM2 7794   5.284   5.362   8.453
  864PNCE   T1A 7795   5.351   5.374   7.677
  864PNCE   C2A 7796   5.264   5.370   7.237
  864PNCE   C3A 7797   4.998   5.325   6.863
  864PNCE   C1B 7798   5.121   4.902   8.306
  864PNCE   C2B 7799   4.831   4.659   7.989
  864PNCE   C3B 7800   4.482   4.803   7.700
  864PNCE   D4B 7801   4.303   4.680   7.303
  864PNCE   C5B 7802   4.550   4.630   6.909
  864PNCE   C6B 7803   4.989   4.745   6.841
  865PNCE   AM1 7804  10.007   2.967   4.993
  865PNCE   AM2 7805  10.157   3.209   4.774
  865PNCE   T1A 7806  10.420   2.870   5.216
  865PNCE   C2A 7807  10.578   2.866   5.678
  865PNCE   C3A 7808  10.460   2.844   6.122
  865PNCE   C1B 7809  10.318   3.623   4.937
  865PNCE   C2B 7810  10.493   3.748   5.341
  865PNCE   C3B 7811  10.840   3.883   5.569
  865PNCE   D4B 7812  11.264   3.887   5.666
  865PNCE   C5B 7813  11.522   4.244   5.711
  865PNCE   C6B 7814  11.716   4.589   5.957
  866PNCE   AM1 7815   3.655  12.236   3.915
  866PNCE   AM2 7816   3.464  12.030   4.114
  866PNCE   T1A 7817   3.503  12.630   4.160
  866PNCE   C2A 7818   3.409  12.991   4.472
  866PNCE   C3A 7819   3.158  13.389   4.673
  866PNCE   C1B 7820   3.343  12.280   4.502
  866PNCE   C2B 7821   3.365  12.371   4.934
  866PNCE   C3B 7822   3.368  12.639   5.259
  866PNCE   D4B 7823   3.658  12.735   5.563
  866PNCE   C5B 7824   3.440  12.682   5.941
  866PNCE   C6B 7825   3.630  12.644   6.341
  867CHOL   ROH 7826  12.134   6.390   7.275
  867CHOL    R1 7827  12.150   6.622   7.113
  867CHOL    R2 7828  12.292   6.628   6.876
  867CHOL    R3 7829  12.055   6.715   6.775
  867CHOL    R4 7830  12.254   6.796   6.576
  867CHOL    R5 7831  12.107   6.925   6.672
  867CHOL    C1 7832  12.010   6.975   6.306
  867CHOL    C2 7833  11.859   7.299   6.130
  868PNCE   AM1 7834  12.663   3.305   4.725
  868PNCE   AM2 7835  12.611   2.994   4.563
  868PNCE   T1A 7836  12.518   3.684   4.951
  868PNCE   C2A 7837  12.340   3.901   5.308
  868PNCE   C3A 7838  12.481   4.054   5.689
  868PNCE   C1B 7839  12.914   2.875   4.874
  868PNCE   C2B 7840  13.112   2.852   5.281
  868PNCE   C3B 7841  13.125   2.526   5.621
  868PNCE   D4B 7842  13.141   2.572   6.079
  868PNCE   C5B 7843  13.490   2.726   6.356
  868PNCE   C6B 7844  13.737   3.009   6.611
  869PNCE   AM1 7845   7.421   2.709   5.869
  869PNCE   AM2 7846   7.567   2.820   5.548
  869PNCE   T1A 7847   7.350   2.490   6.243
  869PNCE   C2A 7848   7.133   2.538   6.652
  869PNCE   C3A 7849   6.911   2.170   6.816
  869PNCE   C1B 7850   7.761   3.099   5.908
  869PNCE   C2B 7851   7.917   3.255   6.333
  869PNCE   C3B 7852   8.190   3.166   6.679
  869PNCE   D4B 7853   8.626   3.087   6.729
  869PNCE   C5B 7854   8.824   3.327   7.055
  869PNCE   C6B 7855   9.003   3.707   7.170
  870XCA    COO 7856   9.361   9.166   8.495
  870XCA     C1 7857   9.280   9.243   8.045
  870XCA     C2 7858   9.321   9.398   7.615
  870XCA     C3 7859   9.197   9.303   7.193
  870XCA     C4 7860   9.110   9.345   6.761
  870XCA     C5 7861   9.049   9.021   6.500
  870XCA     C6 7862   8.658   8.803   6.462
  871CHOL   ROH 7863   0.356  13.937   9.062
  871CHOL    R1 7864   0.206  14.058   8.855
  871CHOL    R2 7865   0.319  14.230   8.671
  871CHOL    R3 7866   0.210  14.059   8.491
  871CHOL    R4 7867   0.233  14.312   8.346
  871CHOL    R5 7868   0.053  14.191   8.368
  871CHOL    C1 7869   0.081  14.198   7.988
  871CHOL    C2 7870  15.721  14.326   7.636
  872CHOL   ROH 7871   8.465   1.467   5.514
  872CHOL    R1 7872   8.565   1.597   5.745
  872CHOL    R2 7873   8.415   1.777   5.891
  872CHOL    R3 7874   8.478   1.612   6.098
  872CHOL    R4 7875   8.421   1.870   6.223
  872CHOL    R5 7876   8.601   1.750   6.249
  872CHOL    C1 7877   8.483   1.770   6.611
  872CHOL    C2 7878   8.368   1.778   6.980
  873XCA    COO 7879   9.116  12.967   5.045
  873XCA     C1 7880   8.891  12.731   5.364
  873XCA     C2 7881   8.917  12.532   5.754
  873XCA     C3 7882   9.208  12.575   6.096
  873XCA     C4 7883   9.557  12.710   6.332
  873XCA     C5 7884   9.942  12.927   6.447
  873XCA     C6 7885  10.146  13.209   6.725
  874CHOL   ROH 7886  10.620  10.485   6.093
  874CHOL    R1 7887  10.884  10.420   6.170
  874CHOL    R2 7888  10.952  10.356   6.430
  874CHOL    R3 7889  11.055  10.133   6.314
  874CHOL    R4 7890  11.252  10.210   6.517
  874CHOL    R5 7891  11.290  10.174   6.305
  874CHOL    C1 7892  11.525   9.915   6.458
  874CHOL    C2 7893  11.825   9.657   6.460
  875PNCE   AM1 7894   0.952  12.642   5.042
  875PNCE   AM2 7895   1.267  12.756   4.940
  875PNCE   T1A 7896   0.930  12.501   5.476
  875PNCE   C2A 7897   1.154  12.286   5.850
  875PNCE   C3A 7898   1.441  12.009   6.111
  875PNCE   C1B 7899   1.413  12.616   5.415
  875PNCE   C2B 7900   1.594  12.554   5.845
  875PNCE   C3B 7901   1.648  12.505   6.282
  875PNCE   D4B 7902   1.524  12.650   6.706
  875PNCE   C5B 7903   1.135  12.525   6.919
  875PNCE   C6B 7904   0.767  12.629   7.181
  876CHOL   ROH 7905   9.737  14.327   8.344
  876CHOL    R1 7906   9.758  14.328   8.062
  876CHOL    R2 7907   9.969  14.212   7.928
  876CHOL    R3 7908   9.772  14.080   7.796
  876CHOL    R4 7909  10.000  14.071   7.613
  876CHOL    R5 7910   9.800  14.143   7.567
  876CHOL    C1 7911   9.833  13.866   7.307
  876CHOL    C2 7912   9.981  14.016   6.994
  877CHOL   ROH 7913  12.952   4.809   5.717
  877CHOL    R1 7914  12.824   4.996   5.887
  877CHOL    R2 7915  12.947   5.101   6.110
  877CHOL    R3 7916  12.884   5.339   5.994
  877CHOL    R4 7917  12.938   5.405   6.275
  877CHOL    R5 7918  12.758   5.455   6.162
  877CHOL    C1 7919  12.873   5.805   6.261
  877CHOL    C2 7920  12.789   5.971   6.648
  878CHOL   ROH 7921  12.179   2.825   8.512
  878CHOL    R1 7922  12.092   2.906   8.255
  878CHOL    R2 7923  12.253   3.048   8.082
  878CHOL    R3 7924  12.193   2.846   7.911
  878CHOL    R4 7925  12.305   3.055   7.740
  878CHOL    R5 7926  12.114   2.956   7.713
  878CHOL    C1 7927  12.280   2.869   7.381
  878CHOL    C2 7928  12.393   2.969   7.045
  879CHOL   ROH 7929   8.034   2.864   5.332
  879CHOL    R1 7930   8.124   3.103   5.453
  879CHOL    R2 7931   8.202   3.116   5.717
  879CHOL    R3 7932   8.429   3.221   5.612
  879CHOL    R4 7933   8.409   3.341   5.878
  879CHOL    R5 7934   8.432   3.447   5.689
  879CHOL    C1 7935   8.742   3.572   5.872
  879CHOL    C2 7936   9.031   3.906   5.841
  880CHOL   ROH 7937   2.444   8.417   4.214
  880CHOL    R1 7938   2.605   8.517   4.424
  880CHOL    R2 7939   2.503   8.671   4.629
  880CHOL    R3 7940   2.619   8.481   4.786
  880CHOL    R4 7941   2.538   8.692   4.973
  880CHOL    R5 7942   2.737   8.606   4.953
  880CHOL    C1 7943   2.667   8.527   5.319
  880CHOL    C2 7944   2.552   8.257   5.627
  881PNCE   AM1 7945   3.036   7.235   4.035
  881PNCE   AM2 7946   3.377   7.166   4.018
  881PNCE   T1A 7947   3.142   7.308   4.490
  881PNCE   C2A 7948   3.230   7.078   4.868
  881PNCE   C3A 7949   3.153   6.719   5.185
  881PNCE   C1B 7950   3.308   7.659   4.055
  881PNCE   C2B 7951   3.213   7.864   4.453
  881PNCE   C3B 7952   2.997   8.106   4.807
  881PNCE   D4B 7953   3.017   8.149   5.247
  881PNCE   C5B 7954   3.461   8.293   5.338
  881PNCE   C6B 7955   3.844   8.566   5.459
  882XCA    COO 7956   6.595  11.246   8.758
  882XCA     C1 7957   6.728  11.448   8.332
  882XCA     C2 7958   6.738  11.470   7.872
  882XCA     C3 7959   6.878  11.242   7.507
  882XCA     C4 7960   6.994  10.822   7.319
  882XCA     C5 7961   7.424  10.625   7.342
  882XCA     C6 7962   7.849  10.497   7.204
  883XCA    COO 7963  13.807  10.963   8.498
  883XCA     C1 7964  13.801  11.064   8.023
  883XCA     C2 7965  13.784  10.799   7.639
  883XCA     C3 7966  13.900  10.799   7.185
  883XCA     C4 7967  13.801  10.774   6.722
  883XCA     C5 7968  13.572  10.969   6.373
  883XCA     C6 7969  13.555  11.378   6.176
  884PNCE   AM1 7970   1.372   2.434   4.352
  884PNCE   AM2 7971   1.652   2.366   4.585
  884PNCE   T1A 7972   1.192   2.178   4.727
  884PNCE   C2A 7973   1.149   2.047   5.178
  884PNCE   C3A 7974   0.961   2.083   5.569
  884PNCE   C1B 7975   1.558   2.335   5.045
  884PNCE   C2B 7976   1.501   2.296   5.506
  884PNCE   C3B 7977   1.181   2.456   5.830
  884PNCE   D4B 7978   0.920   2.240   6.070
  884PNCE   C5B 7979   1.109   1.950   6.350
  884PNCE   C6B 7980   1.527   1.779   6.333
  885CHOL   ROH 7981  12.052   4.725   8.558
  885CHOL    R1 7982  11.958   4.727   8.291
  885CHOL    R2 7983  12.100   4.615   8.082
  885CHOL    R3 7984  11.868   4.479   8.040
  885CHOL    R4 7985  12.023   4.442   7.793
  885CHOL    R5 7986  11.819   4.517   7.809
  885CHOL    C1 7987  11.761   4.213   7.586
  885CHOL    C2 7988  11.975   4.243   7.319
  886XCA    COO 7989   8.595  10.977   5.141
  886XCA     C1 7990   8.542  10.769   5.556
  886XCA     C2 7991   8.255  10.403   5.598
  886XCA     C3 7992   8.263  10.028   5.835
  886XCA     C4 7993   8.247   9.738   6.150
  886XCA     C5 7994   7.971   9.455   6.301
  886XCA     C6 7995   7.542   9.494   6.322
  887PNCE   AM1 7996   5.447   2.949   4.995
  887PNCE   AM2 7997   5.323   2.684   5.218
  887PNCE   T1A 7998   5.238   3.211   5.296
  887PNCE   C2A 7999   4.870   3.439   5.443
  887PNCE   C3A 8000   4.514   3.545   5.175
  887PNCE   C1B 8001   5.317   2.680   5.677
  887PNCE   C2B 8002   5.294   2.849   6.103
  887PNCE   C3B 8003   5.356   3.043   6.521
  887PNCE   D4B 8004   5.405   3.270   6.920
  887PNCE   C5B 8005   5.069   3.593   7.039
  887PNCE   C6B 8006   4.907   3.863   7.393
  888PNCE   AM1 8007   6.288   1.366   5.188
  888PNCE   AM2 8008   5.951   1.399   5.348
  888PNCE   T1A 8009   6.326   1.235   5.657
  888PNCE   C2A 8010   6.392   1.058   6.074
  888PNCE   C3A 8011   6.323   1.130   6.503
  888PNCE   C1B 8012   5.979   1.646   5.766
  888PNCE   C2B 8013   5.856   1.821   6.160
  888PNCE   C3B 8014   5.553   2.076   6.404
  888PNCE   D4B 8015   5.430   2.187   6.841
  888PNCE   C5B 8016   5.258   2.615   6.897
  888PNCE   C6B 8017   5.164   2.923   7.240
  889PNCE   AM1 8018   0.024  13.738   5.259
  889PNCE   AM2 8019   0.214  13.653   5.553
  889PNCE   T1A 8020  15.740  14.078   5.547
  889PNCE   C2A 8021  15.634  14.116   5.961
  889PNCE   C3A 8022  15.642  14.119   6.365
  889PNCE   C1B 8023   0.102  13.666   6.011
  889PNCE   C2B 8024  15.822  13.662   6.458
  889PNCE   C3B 8025   0.189  13.730   6.775
  889PNCE   D4B 8026   0.406  13.523   7.082
  889PNCE   C5B 8027   0.695  13.706   7.302
  889PNCE   C6B 8028   0.805  14.111   7.328
  890CHOL   ROH 8029  14.830  12.568   8.186
  890CHOL    R1 8030  15.084  12.687   8.146
  890CHOL    R2 8031  15.114  12.939   8.038
  890CHOL    R3 8032  15.258  12.984   8.264
  890CHOL    R4 8033  15.312  13.217   8.094
  890CHOL    R5 8034  15.460  13.087   8.187
  890CHOL    C1 8035  15.562  13.421   8.339
  890CHOL    C2 8036  15.700  13.800   8.184
  891PNCE   AM1 8037   8.147  13.924   5.022
  891PNCE   AM2 8038   7.987  14.234   5.194
  891PNCE   T1A 8039   7.731  13.799   5.142
  891PNCE   C2A 8040   7.494  13.677   5.497
  891PNCE   C3A 8041   7.231  13.491   5.795
  891PNCE   C1B 8042   8.069  13.923   5.539
  891PNCE   C2B 8043   8.114  13.602   5.848
  891PNCE   C3B 8044   7.951  13.532   6.250
  891PNCE   D4B 8045   7.592  13.683   6.467
  891PNCE   C5B 8046   7.155  13.656   6.323
  891PNCE   C6B 8047   6.833  13.739   6.006
  892PNCE   AM1 8048  13.799   7.320   3.893
  892PNCE   AM2 8049  13.687   6.997   3.824
  892PNCE   T1A 8050  13.932   7.456   4.284
  892PNCE   C2A 8051  14.089   7.433   4.731
  892PNCE   C3A 8052  14.342   7.723   4.962
  892PNCE   C1B 8053  13.630   7.022   4.295
  892PNCE   C2B 8054  13.413   7.047   4.707
  892PNCE   C3B 8055  13.280   7.047   5.175
  892PNCE   D4B 8056  13.281   7.198   5.627
  892PNCE   C5B 8057  13.512   7.148   5.994
  892PNCE   C6B 8058  13.726   7.346   6.347
  893CHOL   ROH 8059   5.642   4.677   6.196
  893CHOL    R1 8060   5.431   4.767   6.031
  893CHOL    R2 8061   5.178   4.657   6.040
  893CHOL    R3 8062   5.102   4.914   6.079
  893CHOL    R4 8063   4.854   4.775   6.014
  893CHOL    R5 8064   4.931   4.953   5.916
  893CHOL    C1 8065   4.594   5.085   6.035
  893CHOL    C2 8066   4.359   5.372   5.866
  894XCA    COO 8067   5.235   9.344   4.255
  894XCA     C1 8068   5.225   9.462   4.672
  894XCA     C2 8069   5.504   9.568   4.965
  894XCA     C3 8070   5.876   9.600   5.164
  894XCA     C4 8071   5.951   9.616   5.570
  894XCA     C5 8072   5.615   9.398   5.837
  894XCA     C6 8073   5.237   9.305   6.103
  895PNCE   AM1 8074   3.522   5.636   4.615
  895PNCE   AM2 8075   3.245   5.413   4.578
  895PNCE   T1A 8076   3.568   5.528   5.080
  895PNCE   C2A 8077   3.600   5.186   5.405
  895PNCE   C3A 8078   3.631   4.909   5.778
  895PNCE   C1B 8079   3.100   5.313   5.001
  895PNCE   C2B 8080   3.156   5.441   5.434
  895PNCE   C3B 8081   3.511   5.673   5.600
  895PNCE   D4B 8082   3.514   5.840   6.003
  895PNCE   C5B 8083   3.427   5.612   6.375
  895PNCE   C6B 8084   3.604   5.524   6.772
  896XCA    COO 8085   1.048  14.341   8.834
  896XCA     C1 8086   0.665  14.568   8.659
  896XCA     C2 8087   0.390  14.754   8.361
  896XCA     C3 8088  15.827  14.749   8.105
  896XCA     C4 8089  15.531  14.774   7.777
  896XCA     C5 8090  15.351  14.615   7.391
  896XCA     C6 8091  15.233  14.580   6.953
  897CHOL   ROH 8092   6.944   9.522   8.446
  897CHOL    R1 8093   6.875   9.406   8.197
  897CHOL    R2 8094   6.694   9.524   8.024
  897CHOL    R3 8095   6.899   9.500   7.846
  897CHOL    R4 8096   6.661   9.541   7.681
  897CHOL    R5 8097   6.804   9.378   7.663
  897CHOL    C1 8098   6.833   9.529   7.314
  897CHOL    C2 8099   6.569   9.449   7.046
  898CHOL   ROH 8100  11.915  10.738   8.217
  898CHOL    R1 8101  11.776  10.853   7.999
  898CHOL    R2 8102  11.874  10.851   7.741
  898CHOL    R3 8103  11.634  10.737   7.684
  898CHOL    R4 8104  11.727  10.844   7.428
  898CHOL    R5 8105  11.535  10.883   7.523
  898CHOL    C1 8106  11.417  10.733   7.193
  898CHOL    C2 8107  11.462  10.597   6.810
  899CHOL   ROH 8108   9.003   2.231   8.433
  899CHOL    R1 8109   9.072   2.214   8.159
  899CHOL    R2 8110   8.941   2.045   7.984
  899CHOL    R3 8111   8.907   2.274   7.841
  899CHOL    R4 8112   8.855   2.058   7.649
  899CHOL    R5 8113   8.996   2.223   7.624
  899CHOL    C1 8114   8.773   2.280   7.320
  899CHOL    C2 8115   8.410   2.272   7.139
  900CHOL   ROH 8116   2.672   4.235   8.175
  900CHOL    R1 8117   2.642   4.100   7.929
  900CHOL    R2 8118   2.430   4.146   7.758
  900CHOL    R3 8119   2.627   4.191   7.577
  900CHOL    R4 8120   2.398   4.101   7.417
  900CHOL    R5 8121   2.599   4.018   7.414
  900CHOL    C1 8122   2.565   4.118   7.048
  900CHOL    C2 8123   2.299   3.994   6.733
  901CHOL   ROH 8124   0.389  14.111   5.576
  901CHOL    R1 8125   0.379  14.023   5.845
  901CHOL    R2 8126   0.503  14.159   6.051
  901CHOL    R3 8127   0.255  14.154   6.161
  901CHOL    R4 8128   0.436  14.202   6.387
  901CHOL    R5 8129   0.286  14.044   6.372
  901CHOL    C1 8130   0.164  14.222   6.687
  901CHOL    C2 8131   0.341  14.129   7.042
  902PNCE   AM1 8132   2.400  12.419   3.900
  902PNCE   AM2 8133   2.478  12.529   4.233
  902PNCE   T1A 8134   2.757  12.741   3.879
  902PNCE   C2A 8135   3.123  12.990   4.022
  902PNCE   C3A 8136   3.506  13.280   4.053
  902PNCE   C1B 8137   2.905  12.587   4.447
  902PNCE   C2B 8138   3.107  12.798   4.822
  902PNCE   C3B 8139   3.409  13.102   5.011
  902PNCE   D4B 8140   3.711  13.212   5.334
  902PNCE   C5B 8141   4.082  13.405   5.155
  902PNCE   C6B 8142   4.451  13.665   5.130
  903CHOL   ROH 8143   3.445   0.122   8.241
  903CHOL    R1 8144   3.700   0.227   8.175
  903CHOL    R2 8145   3.782   0.265   7.914
  903CHOL    R3 8146   3.828   0.519   8.000
  903CHOL    R4 8147   3.971   0.500   7.745
  903CHOL    R5 8148   4.054   0.563   7.935
  903CHOL    C1 8149   4.124   0.875   7.726
  903CHOL    C2 8150   4.263   0.839   7.404
  904PNCE   AM1 8151   2.376   5.561   4.321
  904PNCE   AM2 8152   2.440   5.753   4.608
  904PNCE   T1A 8153   2.144   5.289   4.666
  904PNCE   C2A 8154   2.059   4.973   5.029
  904PNCE   C3A 8155   2.081   4.776   5.450
  904PNCE   C1B 8156   2.484   6.050   4.970
  904PNCE   C2B 8157   2.555   6.428   5.197
  904PNCE   C3B 8158   2.408   6.681   5.533
  904PNCE   D4B 8159   2.471   6.703   5.952
  904PNCE   C5B 8160   2.773   6.500   6.142
  904PNCE   C6B 8161   3.022   6.109   6.141
  905CHOL   ROH 8162   0.158  13.168   5.494
  905CHOL    R1 8163   0.077  13.253   5.751
  905CHOL    R2 8164  15.716  13.118   5.899
  905CHOL    R3 8165   0.082  13.118   6.089
  905CHOL    R4 8166  15.665  13.057   6.236
  905CHOL    R5 8167  15.807  13.215   6.281
  905CHOL    C1 8168  15.818  13.021   6.609
  905CHOL    C2 8169   0.069  12.732   6.880
  906PNCE   AM1 8170   9.769   2.071   9.219
  906PNCE   AM2 8171   9.455   1.865   9.255
  906PNCE   T1A 8172   9.851   2.195   8.785
  906PNCE   C2A 8173   9.887   2.294   8.359
  906PNCE   C3A 8174   9.706   2.224   7.985
  906PNCE   C1B 8175   9.581   1.768   8.847
  906PNCE   C2B 8176   9.499   1.471   8.535
  906PNCE   C3B 8177   9.466   1.100   8.301
  906PNCE   D4B 8178   9.437   0.870   7.956
  906PNCE   C5B 8179   9.602   0.871   7.562
  906PNCE   C6B 8180   9.903   0.814   7.266
  907PNCE   AM1 8181   8.840   3.131   8.855
  907PNCE   AM2 8182   9.129   3.151   8.624
  907PNCE   T1A 8183   8.507   2.939   8.553
  907PNCE   C2A 8184   8.327   2.833   8.115
  907PNCE   C3A 8185   8.362   3.070   7.720
  907PNCE   C1B 8186   9.506   3.055   8.339
  907PNCE   C2B 8187   9.914   3.272   8.214
  907PNCE   C3B 8188  10.193   3.557   7.993
  907PNCE   D4B 8189  10.393   3.674   7.628
  907PNCE   C5B 8190  10.278   4.041   7.400
  907PNCE   C6B 8191  10.341   4.472   7.281
  908PNCE   AM1 8192   2.939   5.748   4.353
  908PNCE   AM2 8193   3.158   6.026   4.472
  908PNCE   T1A 8194   2.909   5.757   4.822
  908PNCE   C2A 8195   2.737   5.680   5.229
  908PNCE   C3A 8196   2.664   5.529   5.634
  908PNCE   C1B 8197   2.954   6.279   4.838
  908PNCE   C2B 8198   2.970   6.160   5.275
  908PNCE   C3B 8199   3.057   5.910   5.658
  908PNCE   D4B 8200   3.013   5.613   6.031
  908PNCE   C5B 8201   2.679   5.280   6.069
  908PNCE   C6B 8202   2.538   4.928   5.719
  909PNCE   AM1 8203   1.550   8.104   4.872
  909PNCE   AM2 8204   1.572   7.782   4.714
  909PNCE   T1A 8205   1.591   8.137   5.351
  909PNCE   C2A 8206   1.672   8.145   5.794
  909PNCE   C3A 8207   1.747   8.303   6.194
  909PNCE   C1B 8208   1.475   7.669   5.158
  909PNCE   C2B 8209   1.216   7.422   5.400
  909PNCE   C3B 8210   0.956   7.544   5.717
  909PNCE   D4B 8211   0.667   7.458   6.008
  909PNCE   C5B 8212   0.339   7.735   5.929
  909PNCE   C6B 8213   0.102   7.833   5.555
  910XCA    COO 8214  14.542   5.551   4.688
  910XCA     C1 8215  14.254   5.535   5.049
  910XCA     C2 8216  14.194   5.223   5.389
  910XCA     C3 8217  14.284   5.145   5.839
  910XCA     C4 8218  14.465   4.878   6.185
  910XCA     C5 8219  14.630   4.615   6.540
  910XCA     C6 8220  14.602   4.654   6.994
  911PNCE   AM1 8221  11.090   5.965   3.935
  911PNCE   AM2 8222  10.706   5.865   3.904
  911PNCE   T1A 8223  11.234   6.202   4.306
  911PNCE   C2A 8224  11.087   6.394   4.686
  911PNCE   C3A 8225  10.724   6.478   4.932
  911PNCE   C1B 8226  10.778   5.915   4.352
  911PNCE   C2B 8227  10.749   5.976   4.761
  911PNCE   C3B 8228  10.579   6.017   5.154
  911PNCE   D4B 8229  10.536   6.379   5.388
  911PNCE   C5B 8230  10.874   6.654   5.565
  911PNCE   C6B 8231  10.997   7.004   5.900
  912CHOL   ROH 8232  13.227   3.180   6.683
  912CHOL    R1 8233  13.276   2.982   6.879
  912CHOL    R2 8234  13.331   2.720   6.814
  912CHOL    R3 8235  13.550   2.761   6.969
  912CHOL    R4 8236  13.524   2.470   6.955
  912CHOL    R5 8237  13.539   2.591   7.136
  912CHOL    C1 8238  13.843   2.364   7.182
  912CHOL    C2 8239  14.142   2.386   7.499
  913CHOL   ROH 8240   0.794   6.879   7.632
  913CHOL    R1 8241   0.809   6.641   7.479
  913CHOL    R2 8242   0.758   6.635   7.208
  913CHOL    R3 8243   1.004   6.520   7.196
  913CHOL    R4 8244   0.883   6.464   6.935
  913CHOL    R5 8245   0.969   6.318   7.072
  913CHOL    C1 8246   1.187   6.256   6.766
  913CHOL    C2 8247   1.528   6.315   6.548
  914CHOL   ROH 8248  15.252   4.798   8.028
  914CHOL    R1 8249  15.331   4.627   7.817
  914CHOL    R2 8250  15.362   4.716   7.557
  914CHOL    R3 8251  15.610   4.607   7.583
  914CHOL    R4 8252  15.565   4.619   7.295
  914CHOL    R5 8253  15.622   4.443   7.409
  914CHOL    C1 8254   0.086   4.460   7.166
  914CHOL    C2 8255   0.487   4.330   7.014
  915XCA    COO 8256  15.044   0.002   4.430
  915XCA     C1 8257  15.036   0.284   4.795
  915XCA     C2 8258  14.848   0.391   5.168
  915XCA     C3 8259  14.674   0.503   5.549
  915XCA     C4 8260  14.455   0.407   5.919
  915XCA     C5 8261  14.092   0.500   6.110
  915XCA     C6 8262  13.843   0.438   6.504
  916PNCE   AM1 8263  11.857  12.259   5.073
  916PNCE   AM2 8264  11.639  12.038   4.915
  916PNCE   T1A 8265  11.809  12.294   5.536
  916PNCE   C2A 8266  11.860  12.076   5.933
  916PNCE   C3A 8267  12.000  11.745   6.242
  916PNCE   C1B 8268  11.486  11.899   5.318
  916PNCE   C2B 8269  11.576  11.693   5.700
  916PNCE   C3B 8270  11.488  11.793   6.145
  916PNCE   D4B 8271  11.577  11.579   6.522
  916PNCE   C5B 8272  11.469  11.146   6.628
  916PNCE   C6B 8273  11.112  10.962   6.847
  917CHOL   ROH 8274   5.674  13.993   4.261
  917CHOL    R1 8275   5.580  14.118   4.497
  917CHOL    R2 8276   5.317  14.101   4.579
  917CHOL    R3 8277   5.428  14.012   4.810
  917CHOL    R4 8278   5.196  14.170   4.895
  917CHOL    R5 8279   5.402  14.195   4.963
  917CHOL    C1 8280   5.230  14.127   5.297
  917CHOL    C2 8281   5.031  14.145   5.670
  918CHOL   ROH 8282   1.046   7.709   7.800
  918CHOL    R1 8283   1.243   7.883   7.695
  918CHOL    R2 8284   1.445   7.795   7.528
  918CHOL    R3 8285   1.352   7.991   7.364
  918CHOL    R4 8286   1.639   7.979   7.309
  918CHOL    R5 8287   1.525   8.156   7.364
  918CHOL    C1 8288   1.664   8.270   7.028
  918CHOL    C2 8289   1.992   8.468   6.927
  919CHOL   ROH 8290  10.198   0.445   8.728
  919CHOL    R1 8291  10.086   0.261   8.544
  919CHOL    R2 8292   9.836   0.150   8.577
  919CHOL    R3 8293   9.795   0.248   8.327
  919CHOL    R4 8294   9.585   0.047   8.363
  919CHOL    R5 8295   9.727   0.058   8.199
  919CHOL    C1 8296   9.400   0.079   8.003
  919CHOL    C2 8297   9.304  15.771   7.585
  920CHOL   ROH 8298  15.705  11.312   6.985
  920CHOL    R1 8299   0.053  11.255   7.199
  920CHOL    R2 8300   0.304  11.148   7.160
  920CHOL    R3 8301   0.384  11.364   7.304
  920CHOL    R4 8302   0.579  11.155   7.369
  920CHOL    R5 8303   0.462  11.272   7.511
  920CHOL    C1 8304   0.814  11.362   7.627
  920CHOL    C2 8305   1.029  11.466   7.970
  921PNCE   AM1 8306   9.827   4.546   4.244
  921PNCE   AM2 8307   9.692   4.403   4.572
  921PNCE   T1A 8308  10.075   4.878   4.461
  921PNCE   C2A 8309  10.148   5.290   4.697
  921PNCE   C3A 8310  10.279   5.744   4.693
  921PNCE   C1B 8311   9.627   4.515   5.029
  921PNCE   C2B 8312   9.905   4.511   5.377
  921PNCE   C3B 8313  10.177   4.777   5.581
  921PNCE   D4B 8314  10.584   4.704   5.687
  921PNCE   C5B 8315  10.726   4.341   5.941
  921PNCE   C6B 8316  11.170   4.246   6.086
  922CHOL   ROH 8317   9.345   2.101   5.398
  922CHOL    R1 8318   9.243   2.056   5.658
  922CHOL    R2 8319   9.399   1.956   5.863
  922CHOL    R3 8320   9.313   2.178   5.994
  922CHOL    R4 8321   9.396   1.995   6.207
  922CHOL    R5 8322   9.203   2.094   6.189
  922CHOL    C1 8323   9.313   2.226   6.529
  922CHOL    C2 8324   9.498   2.088   6.894
  923PNCE   AM1 8325   0.986   9.530   4.338
  923PNCE   AM2 8326   0.786   9.208   4.439
  923PNCE   T1A 8327   1.360   9.468   4.620
  923PNCE   C2A 8328   1.683   9.373   4.928
  923PNCE   C3A 8329   1.957   9.388   5.282
  923PNCE   C1B 8330   1.099   9.038   4.754
  923PNCE   C2B 8331   1.442   8.925   5.050
  923PNCE   C3B 8332   1.836   8.844   5.254
  923PNCE   D4B 8333   2.283   8.841   5.387
  923PNCE   C5B 8334   2.429   8.863   5.855
  923PNCE   C6B 8335   2.681   9.161   6.154
  924PNCE   AM1 8336   6.782  15.503   4.925
  924PNCE   AM2 8337   6.885  15.720   5.197
  924PNCE   T1A 8338   6.422  15.419   5.219
  924PNCE   C2A 8339   6.189  15.259   5.593
  924PNCE   C3A 8340   6.008  14.980   5.911
  924PNCE   C1B 8341   6.857  15.389   5.496
  924PNCE   C2B 8342   6.604  15.371   5.863
  924PNCE   C3B 8343   6.439  15.282   6.247
  924PNCE   D4B 8344   6.659  15.073   6.491
  924PNCE   C5B 8345   6.565  14.679   6.640
  924PNCE   C6B 8346   6.577  14.391   6.312
  925CHOL   ROH 8347  14.407   1.623   4.585
  925CHOL    R1 8348  14.293   1.738   4.817
  925CHOL    R2 8349  14.091   1.615   4.960
  925CHOL    R3 8350  14.263   1.648   5.169
  925CHOL    R4 8351  13.996   1.646   5.291
  925CHOL    R5 8352  14.149   1.800   5.315
  925CHOL    C1 8353  14.101   1.696   5.679
  925CHOL    C2 8354  13.740   1.737   5.807
  926CHOL   ROH 8355  12.355   6.988   8.087
  926CHOL    R1 8356  12.141   6.877   7.940
  926CHOL    R2 8357  11.988   7.025   7.764
  926CHOL    R3 8358  12.057   6.829   7.589
  926CHOL    R4 8359  11.785   6.906   7.511
  926CHOL    R5 8360  11.856   6.705   7.556
  926CHOL    C1 8361  11.732   6.652   7.199
  926CHOL    C2 8362  11.781   6.351   6.922
  927PNCE   AM1 8363   8.215   0.767   6.079
  927PNCE   AM2 8364   8.470   0.692   5.852
  927PNCE   T1A 8365   8.092   0.725   6.482
  927PNCE   C2A 8366   7.709   0.799   6.715
  927PNCE   C3A 8367   7.272   0.766   6.746
  927PNCE   C1B 8368   8.699   0.781   6.258
  927PNCE   C2B 8369   8.897   0.908   6.654
  927PNCE   C3B 8370   9.001   1.025   7.085
  927PNCE   D4B 8371   9.162   1.438   7.215
  927PNCE   C5B 8372   9.093   1.633   7.654
  927PNCE   C6B 8373   9.351   1.927   7.801
  928CHOL   ROH 8374  12.977   0.540   8.410
  928CHOL    R1 8375  12.812   0.483   8.187
  928CHOL    R2 8376  12.624   0.661   8.091
  928CHOL    R3 8377  12.756   0.625   7.857
  928CHOL    R4 8378  12.505   0.755   7.781
  928CHOL    R5 8379  12.584   0.570   7.699
  928CHOL    C1 8380  12.559   0.776   7.380
  928CHOL    C2 8381  12.338   1.073   7.174
  929CHOL   ROH 8382   0.205   3.149   7.291
  929CHOL    R1 8383   0.483   3.181   7.334
  929CHOL    R2 8384   0.638   2.986   7.451
  929CHOL    R3 8385   0.788   3.015   7.226
  929CHOL    R4 8386   0.963   2.873   7.414
  929CHOL    R5 8387   1.010   3.057   7.307
  929CHOL    C1 8388   1.292   2.834   7.181
  929CHOL    C2 8389   1.653   2.590   7.143
  930CHOL   ROH 8390   2.532  12.009   7.988
  930CHOL    R1 8391   2.280  11.912   7.903
  930CHOL    R2 8392   2.044  12.045   7.957
  930CHOL    R3 8393   2.011  12.027   7.688
  930CHOL    R4 8394   1.739  12.032   7.796
  930CHOL    R5 8395   1.822  11.883   7.660
  930CHOL    C1 8396   1.530  12.008   7.449
  930CHOL    C2 8397   1.256  12.021   7.081
  931CHOL   ROH 8398   5.574   1.162   5.542
  931CHOL    R1 8399   5.652   1.130   5.812
  931CHOL    R2 8400   5.901   1.204   5.904
  931CHOL    R3 8401   5.757   1.347   6.084
  931CHOL    R4 8402   6.026   1.336   6.199
  931CHOL    R5 8403   5.841   1.278   6.297
  931CHOL    C1 8404   5.963   1.547   6.539
  931CHOL    C2 8405   6.199   1.476   6.868
  932XCA    COO 8406  11.761   9.319   3.824
  932XCA     C1 8407  11.800   9.430   4.282
  932XCA     C2 8408  11.688   9.671   4.627
  932XCA     C3 8409  11.727   9.832   5.025
  932XCA     C4 8410  11.662  10.208   5.270
  932XCA     C5 8411  11.349  10.379   5.495
  932XCA     C6 8412  11.148  10.226   5.843
  933XCA    COO 8413   2.738  10.912   7.963
  933XCA     C1 8414   2.463  10.633   7.759
  933XCA     C2 8415   2.250  10.668   7.384
  933XCA     C3 8416   2.018  10.651   7.024
  933XCA     C4 8417   1.755  10.833   6.730
  933XCA     C5 8418   1.499  10.767   6.379
  933XCA     C6 8419   1.193  10.661   6.073
  934CHOL   ROH 8420  11.685   0.955   9.049
  934CHOL    R1 8421  11.782   0.784   8.846
  934CHOL    R2 8422  11.631   0.580   8.737
  934CHOL    R3 8423  11.692   0.703   8.503
  934CHOL    R4 8424  11.612   0.432   8.426
  934CHOL    R5 8425  11.797   0.533   8.372
  934CHOL    C1 8426  11.658   0.461   8.024
  934CHOL    C2 8427  11.689   0.455   7.610
  935PNCE   AM1 8428  13.467   0.368   4.012
  935PNCE   AM2 8429  13.629   0.665   4.142
  935PNCE   T1A 8430  13.120   0.636   4.273
  935PNCE   C2A 8431  13.031   1.005   4.592
  935PNCE   C3A 8432  13.150   1.420   4.818
  935PNCE   C1B 8433  13.511   0.646   4.589
  935PNCE   C2B 8434  13.326   0.406   4.884
  935PNCE   C3B 8435  13.312   0.130   5.225
  935PNCE   D4B 8436  13.376  15.527   5.295
  935PNCE   C5B 8437  13.689  15.273   5.089
  935PNCE   C6B 8438  14.084  15.070   4.954
  936CHOL   ROH 8439  14.706   3.880   4.882
  936CHOL    R1 8440  14.743   3.878   5.163
  936CHOL    R2 8441  14.656   3.670   5.323
  936CHOL    R3 8442  14.915   3.667   5.406
  936CHOL    R4 8443  14.762   3.582   5.640
  936CHOL    R5 8444  14.907   3.745   5.632
  936CHOL    C1 8445  15.067   3.528   5.902
  936CHOL    C2 8446  15.182   3.304   6.286
  937PNCE   AM1 8447   2.471  11.543   4.565
  937PNCE   AM2 8448   2.556  11.801   4.786
  937PNCE   T1A 8449   2.526  11.370   5.033
  937PNCE   C2A 8450   2.598  11.376   5.523
  937PNCE   C3A 8451   2.553  11.483   5.987
  937PNCE   C1B 8452   2.658  11.843   5.261
  937PNCE   C2B 8453   2.845  12.007   5.661
  937PNCE   C3B 8454   2.788  11.921   6.101
  937PNCE   D4B 8455   2.888  11.547   6.394
  937PNCE   C5B 8456   3.160  11.604   6.789
  937PNCE   C6B 8457   3.321  11.602   7.235
  938XCA    COO 8458  14.513  12.745   9.438
  938XCA     C1 8459  14.494  12.691   8.987
  938XCA     C2 8460  14.532  12.721   8.559
  938XCA     C3 8461  14.283  12.934   8.233
  938XCA     C4 8462  14.362  13.281   7.936
  938XCA     C5 8463  14.511  13.367   7.536
  938XCA     C6 8464  14.423  13.677   7.211
  939CHOL   ROH 8465   2.092  13.642   6.046
  939CHOL    R1 8466   2.110  13.474   6.273
  939CHOL    R2 8467   2.332  13.320   6.328
  939CHOL    R3 8468   2.322  13.447   6.567
  939CHOL    R4 8469   2.523  13.237   6.604
  939CHOL    R5 8470   2.348  13.272   6.729
  939CHOL    C1 8471   2.624  13.308   6.990
  939CHOL    C2 8472   3.016  13.460   7.110
  940CHOL   ROH 8473   8.079   9.483   7.451
  940CHOL    R1 8474   8.010   9.470   7.177
  940CHOL    R2 8475   8.132   9.297   7.001
  940CHOL    R3 8476   7.877   9.220   6.949
  940CHOL    R4 8477   8.021   9.174   6.698
  940CHOL    R5 8478   7.838   9.290   6.723
  940CHOL    C1 8479   7.716   9.030   6.472
  940CHOL    C2 8480   7.495   8.725   6.335
  941CHOL   ROH 8481  15.090   3.158   4.760
  941CHOL    R1 8482  15.087   3.085   5.033
  941CHOL    R2 8483  15.155   3.260   5.235
  941CHOL    R3 8484  14.911   3.191   5.333
  941CHOL    R4 8485  15.066   3.269   5.569
  941CHOL    R5 8486  14.959   3.082   5.541
  941CHOL    C1 8487  14.785   3.210   5.855
  941CHOL    C2 8488  14.669   3.173   6.242
  942PNCE   AM1 8489   1.824  10.365   4.442
  942PNCE   AM2 8490   2.058  10.135   4.340
  942PNCE   T1A 8491   1.973  10.419   4.879
  942PNCE   C2A 8492   2.001  10.604   5.282
  942PNCE   C3A 8493   2.175  10.773   5.641
  942PNCE   C1B 8494   2.350  10.155   4.680
  942PNCE   C2B 8495   2.541  10.072   5.031
  942PNCE   C3B 8496   2.819   9.956   5.328
  942PNCE   D4B 8497   3.190   9.798   5.433
  942PNCE   C5B 8498   3.481   9.696   5.098
  942PNCE   C6B 8499   3.908   9.714   4.925
  943PNCE   AM1 8500  10.040  13.504   5.352
  943PNCE   AM2 8501  10.411  13.388   5.396
  943PNCE   T1A 8502   9.881  13.199   5.609
  943PNCE   C2A 8503   9.948  13.176   6.014
  943PNCE   C3A 8504  10.341  13.243   6.258
  943PNCE   C1B 8505  10.425  13.565   5.823
  943PNCE   C2B 8506  10.418  13.745   6.237
  943PNCE   C3B 8507  10.435  13.633   6.669
  943PNCE   D4B 8508  10.303  13.635   7.100
  943PNCE   C5B 8509  10.447  13.995   7.399
  943PNCE   C6B 8510  10.400  14.338   7.713
  944PNCE   AM1 8511   4.645   6.606   4.582
  944PNCE   AM2 8512   5.003   6.532   4.491
  944PNCE   T1A 8513   4.852   6.561   4.991
  944PNCE   C2A 8514   4.920   6.595   5.428
  944PNCE   C3A 8515   4.748   6.427   5.815
  944PNCE   C1B 8516   5.295   6.759   4.806
  944PNCE   C2B 8517   5.710   6.971   4.903
  944PNCE   C3B 8518   5.869   7.313   5.183
  944PNCE   D4B 8519   5.930   7.673   5.450
  944PNCE   C5B 8520   5.915   7.650   5.885
  944PNCE   C6B 8521   6.202   7.500   6.114
  945CHOL   ROH 8522  12.803   3.234   5.186
  945CHOL    R1 8523  12.582   3.353   5.317
  945CHOL    R2 8524  12.502   3.278   5.570
  945CHOL    R3 8525  12.527   3.544   5.622
  945CHOL    R4 8526  12.365   3.440   5.843
  945CHOL    R5 8527  12.315   3.607   5.713
  945CHOL    C1 8528  12.310   3.784   6.051
  945CHOL    C2 8529  12.116   4.165   6.095
  946CHOL   ROH 8530  15.512   9.470   7.981
  946CHOL    R1 8531  15.542   9.401   7.708
  946CHOL    R2 8532  15.353   9.464   7.517
  946CHOL    R3 8533  15.565   9.579   7.391
  946CHOL    R4 8534  15.371   9.527   7.178
  946CHOL    R5 8535  15.579   9.464   7.182
  946CHOL    C1 8536  15.580   9.671   6.862
  946CHOL    C2 8537  15.620   9.491   6.493
  947XCA    COO 8538   8.741   5.800   4.566
  947XCA     C1 8539   8.860   5.556   4.964
  947XCA     C2 8540   8.897   5.648   5.404
  947XCA     C3 8541   9.222   5.714   5.667
  947XCA     C4 8542   9.503   5.753   5.994
  947XCA     C5 8543   9.809   5.767   6.274
  947XCA     C6 8544   9.852   5.998   6.640
  948PNCE   AM1 8545  11.410  15.279   5.180
  948PNCE   AM2 8546  11.107  15.125   5.137
  948PNCE   T1A 8547  11.568  15.355   5.629
  948PNCE   C2A 8548  11.858  15.544   5.938
  948PNCE   C3A 8549  12.129  15.276   6.188
  948PNCE   C1B 8550  11.060  15.345   5.566
  948PNCE   C2B 8551  11.003  15.385   6.037
  948PNCE   C3B 8552  11.049  15.509   6.482
  948PNCE   D4B 8553  11.225  15.757   6.834
  948PNCE   C5B 8554  11.659  15.772   6.982
  948PNCE   C6B 8555  12.017   0.083   7.254
  949XCA    COO 8556   1.573  14.377   8.914
  949XCA     C1 8557   1.560  14.471   8.461
  949XCA     C2 8558   1.582  14.747   8.080
  949XCA     C3 8559   1.663  14.929   7.676
  949XCA     C4 8560   1.341  14.934   7.345
  949XCA     C5 8561   1.129  15.248   7.098
  949XCA     C6 8562   1.075  15.608   6.875
  950CHOL   ROH 8563   1.793   3.722   5.381
  950CHOL    R1 8564   1.732   3.497   5.541
  950CHOL    R2 8565   1.564   3.511   5.759
  950CHOL    R3 8566   1.434   3.310   5.631
  950CHOL    R4 8567   1.336   3.297   5.907
  950CHOL    R5 8568   1.422   3.133   5.792
  950CHOL    C1 8569   1.081   2.984   5.872
  950CHOL    C2 8570   0.752   3.081   6.065
  951CHOL   ROH 8571   0.024  12.555   7.676
  951CHOL    R1 8572  15.630  12.687   7.563
  951CHOL    R2 8573  15.655  12.878   7.365
  951CHOL    R3 8574  15.481  12.718   7.232
  951CHOL    R4 8575  15.504  12.957   7.064
  951CHOL    R5 8576  15.319  12.869   7.140
  951CHOL    C1 8577  15.252  12.851   6.765
  951CHOL    C2 8578  14.896  12.974   6.677
  952XCA    COO 8579   0.902   1.862   9.276
  952XCA     C1 8580   1.174   1.753   8.925
  952XCA     C2 8581   1.208   1.776   8.484
  952XCA     C3 8582   1.225   1.725   8.059
  952XCA     C4 8583   1.106   1.523   7.689
  952XCA     C5 8584   0.741   1.352   7.564
  952XCA     C6 8585   0.361   1.282   7.362
  953CHOL   ROH 8586   9.571   4.873   4.560
  953CHOL    R1 8587   9.739   4.905   4.786
  953CHOL    R2 8588   9.752   5.141   4.929
  953CHOL    R3 8589   9.696   4.979   5.140
  953CHOL    R4 8590   9.824   5.214   5.259
  953CHOL    R5 8591   9.883   5.006   5.287
  953CHOL    C1 8592   9.813   5.104   5.649
  953CHOL    C2 8593   9.680   5.270   6.006
  954PNCE   AM1 8594   2.280   9.227   3.862
  954PNCE   AM2 8595   2.548   9.424   4.012
  954PNCE   T1A 8596   2.228   8.823   4.056
  954PNCE   C2A 8597   2.076   8.633   4.426
  954PNCE   C3A 8598   2.130   8.415   4.831
  954PNCE   C1B 8599   2.897   9.404   4.347
  954PNCE   C2B 8600   3.221   9.384   4.698
  954PNCE   C3B 8601   3.218   9.047   5.019
  954PNCE   D4B 8602   3.125   8.667   5.262
  954PNCE   C5B 8603   3.011   8.492   5.664
  954PNCE   C6B 8604   3.260   8.182   5.886
  955XCA    COO 8605   2.582   4.640   8.475
  955XCA     C1 8606   2.274   4.474   8.166
  955XCA     C2 8607   2.055   4.533   7.776
  955XCA     C3 8608   1.642   4.522   7.595
  955XCA     C4 8609   1.334   4.644   7.283
  955XCA     C5 8610   1.395   4.613   6.825
  955XCA     C6 8611   1.246   4.768   6.411
  956PNCE   AM1 8612   8.275  14.683   5.186
  956PNCE   AM2 8613   7.914  14.737   5.284
  956PNCE   T1A 8614   8.578  14.721   5.567
  956PNCE   C2A 8615   8.773  14.792   6.007
  956PNCE   C3A 8616   8.953  15.049   6.371
  956PNCE   C1B 8617   8.124  14.518   5.671
  956PNCE   C2B 8618   8.284  14.623   6.114
  956PNCE   C3B 8619   8.454  14.887   6.454
  956PNCE   D4B 8620   8.439  15.083   6.865
  956PNCE   C5B 8621   8.466  14.713   7.066
  956PNCE   C6B 8622   8.528  14.666   7.481
  957CHOL   ROH 8623  14.430  11.560   8.754
  957CHOL    R1 8624  14.404  11.773   8.570
  957CHOL    R2 8625  14.517  11.766   8.318
  957CHOL    R3 8626  14.262  11.820   8.238
  957CHOL    R4 8627  14.432  11.923   8.022
  957CHOL    R5 8628  14.278  12.033   8.130
  957CHOL    C1 8629  14.144  12.065   7.774
  957CHOL    C2 8630  14.175  12.022   7.372
  958PNCE   AM1 8631  11.570   2.374   4.488
  958PNCE   AM2 8632  11.586   1.995   4.560
  958PNCE   T1A 8633  11.724   2.470   4.935
  958PNCE   C2A 8634  11.722   2.512   5.425
  958PNCE   C3A 8635  11.661   2.581   5.893
  958PNCE   C1B 8636  11.287   1.793   4.889
  958PNCE   C2B 8637  11.072   1.457   5.109
  958PNCE   C3B 8638  10.985   1.065   5.293
  958PNCE   D4B 8639  11.012   0.688   5.044
  958PNCE   C5B 8640  11.229   0.402   5.280
  958PNCE   C6B 8641  11.528   0.519   5.606
  959CHOL   ROH 8642   9.158   0.087   5.439
  959CHOL    R1 8643   9.283   0.192   5.670
  959CHOL    R2 8644   9.157   0.206   5.915
  959CHOL    R3 8645   9.376   0.070   5.999
  959CHOL    R4 8646   9.254   0.172   6.245
  959CHOL    R5 8647   9.460   0.199   6.182
  959CHOL    C1 8648   9.516   0.024   6.516
  959CHOL    C2 8649   9.663  15.821   6.890
  960CHOL   ROH 8650  12.739   9.374   4.063
  960CHOL    R1 8651  12.765   9.374   4.345
  960CHOL    R2 8652  12.600   9.225   4.509
  960CHOL    R3 8653  12.836   9.128   4.604
  960CHOL    R4 8654  12.638   9.050   4.805
  960CHOL    R5 8655  12.823   9.159   4.841
  960CHOL    C1 8656  12.880   8.856   5.065
  960CHOL    C2 8657  12.738   8.963   5.411
  961PNCE   AM1 8658  15.432  11.822   4.860
  961PNCE   AM2 8659  15.655  12.095   4.848
  961PNCE   T1A 8660  15.321  11.764   5.304
  961PNCE   C2A 8661  15.219  11.531   5.679
  961PNCE   C3A 8662  15.226  11.218   6.012
  961PNCE   C1B 8663  15.791  12.045   5.284
  961PNCE   C2B 8664  15.749  11.721   5.605
  961PNCE   C3B 8665  15.719  11.426   5.955
  961PNCE   D4B 8666  15.684  10.974   6.076
  961PNCE   C5B 8667   0.098  10.906   6.449
  961PNCE   C6B 8668   0.025  10.847   6.914
  962CHOL   ROH 8669   5.740   3.395   5.281
  962CHOL    R1 8670   5.920   3.482   5.482
  962CHOL    R2 8671   5.835   3.558   5.734
  962CHOL    R3 8672   6.017   3.372   5.815
  962CHOL    R4 8673   5.960   3.530   6.055
  962CHOL    R5 8674   6.156   3.489   5.970
  962CHOL    C1 8675   6.203   3.340   6.318
  962CHOL    C2 8676   6.452   3.141   6.574
  963PNCE   AM1 8677   3.767   3.097   4.943
  963PNCE   AM2 8678   3.663   3.435   5.000
  963PNCE   T1A 8679   4.137   3.163   5.236
  963PNCE   C2A 8680   4.401   3.025   5.597
  963PNCE   C3A 8681   4.440   3.101   6.044
  963PNCE   C1B 8682   3.666   3.250   5.446
  963PNCE   C2B 8683   3.514   3.228   5.877
  963PNCE   C3B 8684   3.258   3.480   6.185
  963PNCE   D4B 8685   3.226   3.903   6.277
  963PNCE   C5B 8686   3.657   3.975   6.260
  963PNCE   C6B 8687   3.965   4.017   6.513
  964CHOL   ROH 8688   0.093   2.086   7.639
  964CHOL    R1 8689   0.163   1.863   7.799
  964CHOL    R2 8690   0.090   1.605   7.733
  964CHOL    R3 8691   0.357   1.558   7.757
  964CHOL    R4 8692   0.230   1.305   7.831
  964CHOL    R5 8693   0.375   1.416   7.949
  964CHOL    C1 8694   0.562   1.086   7.911
  964CHOL    C2 8695   0.698   0.863   8.227
  965XCA    COO 8696  11.150   7.723   4.446
  965XCA     C1 8697  11.415   7.334   4.556
  965XCA     C2 8698  11.569   7.081   4.917
  965XCA     C3 8699  11.448   7.045   5.325
  965XCA     C4 8700  11.528   7.075   5.733
  965XCA     C5 8701  11.520   6.909   6.119
  965XCA     C6 8702  11.173   6.734   6.385
  966XCA    COO 8703   4.541   8.266   8.079
  966XCA     C1 8704   4.481   8.078   7.657
  966XCA     C2 8705   4.375   8.157   7.235
  966XCA     C3 8706   4.499   7.881   6.948
  966XCA     C4 8707   4.930   7.707   6.955
  966XCA     C5 8708   5.285   7.869   7.047
  966XCA     C6 8709   5.682   7.783   6.902
  967PNCE   AM1 8710  14.269   6.008   4.747
  967PNCE   AM2 8711  14.457   6.302   4.784
  967PNCE   T1A 8712  14.277   6.019   5.214
  967PNCE   C2A 8713  14.244   6.157   5.644
  967PNCE   C3A 8714  14.015   6.283   6.022
  967PNCE   C1B 8715  14.376   6.530   5.172
  967PNCE   C2B 8716  14.161   6.888   5.335
  967PNCE   C3B 8717  13.820   7.076   5.568
  967PNCE   D4B 8718  13.935   7.384   5.859
  967PNCE   C5B 8719  14.198   7.194   6.171
  967PNCE   C6B 8720  14.122   7.023   6.604
  968PNCE   AM1 8721   7.033   8.398   4.554
  968PNCE   AM2 8722   7.329   8.374   4.449
  968PNCE   T1A 8723   6.994   8.225   4.976
  968PNCE   C2A 8724   6.653   8.148   5.285
  968PNCE   C3A 8725   6.480   8.384   5.655
  968PNCE   C1B 8726   7.528   8.227   4.862
  968PNCE   C2B 8727   7.561   7.854   5.126
  968PNCE   C3B 8728   7.473   7.399   5.034
  968PNCE   D4B 8729   7.240   7.072   5.250
  968PNCE   C5B 8730   7.468   6.807   5.561
  968PNCE   C6B 8731   7.585   6.642   5.983
  969PNCE   AM1 8732   0.065   7.031   4.155
  969PNCE   AM2 8733   0.138   6.684   4.180
  969PNCE   T1A 8734  15.749   7.130   4.589
  969PNCE   C2A 8735  15.653   7.118   5.028
  969PNCE   C3A 8736  15.657   6.727   5.265
  969PNCE   C1B 8737   0.014   6.619   4.631
  969PNCE   C2B 8738   0.053   6.340   4.999
  969PNCE   C3B 8739   0.343   6.439   5.315
  969PNCE   D4B 8740   0.521   6.514   5.674
  969PNCE   C5B 8741   0.406   6.201   5.989
  969PNCE   C6B 8742   0.465   5.856   6.265
  970CHOL   ROH 8743   5.304  11.578   7.542
  970CHOL    R1 8744   5.196  11.734   7.332
  970CHOL    R2 8745   5.108  11.993   7.370
  970CHOL    R3 8746   5.278  12.047   7.165
  970CHOL    R4 8747   5.069  12.251   7.144
  970CHOL    R5 8748   5.135  12.116   6.986
  970CHOL    C1 8749   5.206  12.452   6.820
  970CHOL    C2 8750   5.191  12.307   6.456
  971PNCE   AM1 8751   0.150   5.238   4.577
  971PNCE   AM2 8752   0.488   5.162   4.463
  971PNCE   T1A 8753   0.357   5.369   4.995
  971PNCE   C2A 8754   0.376   5.442   5.484
  971PNCE   C3A 8755   0.191   5.760   5.787
  971PNCE   C1B 8756   0.592   4.932   4.857
  971PNCE   C2B 8757   0.507   4.961   5.322
  971PNCE   C3B 8758   0.678   5.092   5.731
  971PNCE   D4B 8759   0.820   5.169   6.173
  971PNCE   C5B 8760   0.889   5.577   6.362
  971PNCE   C6B 8761   1.146   5.934   6.428
  972CHOL   ROH 8762  10.814   7.133   4.637
  972CHOL    R1 8763  10.903   6.902   4.774
  972CHOL    R2 8764  11.170   6.845   4.812
  972CHOL    R3 8765  11.097   6.831   5.074
  972CHOL    R4 8766  11.329   6.652   5.051
  972CHOL    R5 8767  11.133   6.601   5.133
  972CHOL    C1 8768  11.353   6.526   5.435
  972CHOL    C2 8769  11.615   6.208   5.487
  973PNCE   AM1 8770   3.617   4.773   4.457
  973PNCE   AM2 8771   3.662   5.130   4.485
  973PNCE   T1A 8772   3.485   4.802   4.909
  973PNCE   C2A 8773   3.707   4.682   5.315
  973PNCE   C3A 8774   4.064   4.940   5.539
  973PNCE   C1B 8775   3.930   5.016   4.872
  973PNCE   C2B 8776   4.160   4.712   5.079
  973PNCE   C3B 8777   4.332   4.474   5.396
  973PNCE   D4B 8778   4.475   4.162   5.663
  973PNCE   C5B 8779   4.471   3.749   5.646
  973PNCE   C6B 8780   4.684   3.541   5.947
  974XCA    COO 8781   8.977  11.198   4.840
  974XCA     C1 8782   8.976  11.276   5.321
  974XCA     C2 8783   8.799  11.194   5.713
  974XCA     C3 8784   8.722  10.994   6.086
  974XCA     C4 8785   8.685  11.039   6.503
  974XCA     C5 8786   8.525  10.974   6.888
  974XCA     C6 8787   8.614  10.768   7.245
  975CHOL   ROH 8788   0.885  13.997   6.081
  975CHOL    R1 8789   0.741  13.861   6.283
  975CHOL    R2 8790   0.512  13.716   6.231
  975CHOL    R3 8791   0.648  13.517   6.356
  975CHOL    R4 8792   0.372  13.420   6.342
  975CHOL    R5 8793   0.495  13.435   6.521
  975CHOL    C1 8794   0.418  13.061   6.523
  975CHOL    C2 8795   0.254  12.703   6.382
  976XCA    COO 8796  14.151   7.606   7.875
  976XCA     C1 8797  14.258   7.724   7.458
  976XCA     C2 8798  14.107   7.728   7.037
  976XCA     C3 8799  14.248   8.006   6.686
  976XCA     C4 8800  14.598   7.954   6.397
  976XCA     C5 8801  15.002   8.192   6.315
  976XCA     C6 8802  15.413   8.040   6.353
  977PNCE   AM1 8803   7.105   2.501   5.510
  977PNCE   AM2 8804   6.761   2.642   5.471
  977PNCE   T1A 8805   7.086   2.248   5.898
  977PNCE   C2A 8806   7.154   1.998   6.296
  977PNCE   C3A 8807   7.114   1.682   6.603
  977PNCE   C1B 8808   6.466   2.508   5.816
  977PNCE   C2B 8809   6.476   2.717   6.244
  977PNCE   C3B 8810   6.545   2.631   6.693
  977PNCE   D4B 8811   6.726   2.561   7.113
  977PNCE   C5B 8812   7.106   2.754   7.173
  977PNCE   C6B 8813   7.260   3.135   7.049
  978XCA    COO 8814  14.952   5.378   4.409
  978XCA     C1 8815  15.139   5.403   4.832
  978XCA     C2 8816  14.992   5.577   5.234
  978XCA     C3 8817  15.013   5.841   5.612
  978XCA     C4 8818  14.963   6.219   5.838
  978XCA     C5 8819  15.071   6.435   6.190
  978XCA     C6 8820  15.331   6.251   6.510
  979PNCE   AM1 8821  15.416   2.468   4.548
  979PNCE   AM2 8822  15.153   2.621   4.738
  979PNCE   T1A 8823  15.503   2.119   4.861
  979PNCE   C2A 8824  15.514   1.994   5.305
  979PNCE   C3A 8825  15.350   2.122   5.740
  979PNCE   C1B 8826  15.040   2.308   5.047
  979PNCE   C2B 8827  14.880   2.184   5.455
  979PNCE   C3B 8828  14.833   2.140   5.899
  979PNCE   D4B 8829  15.097   2.209   6.248
  979PNCE   C5B 8830  15.518   2.369   6.187
  979PNCE   C6B 8831   0.120   2.510   6.099
  980PNCE   AM1 8832   6.676  14.352   5.116
  980PNCE   AM2 8833   6.638  14.006   5.014
  980PNCE   T1A 8834   7.019  14.135   5.322
  980PNCE   C2A 8835   7.196  14.027   5.710
  980PNCE   C3A 8836   7.512  13.881   6.009
  980PNCE   C1B 8837   6.446  14.040   5.449
  980PNCE   C2B 8838   6.019  14.049   5.667
  980PNCE   C3B 8839   5.832  14.060   6.095
  980PNCE   D4B 8840   5.951  14.059   6.528
  980PNCE   C5B 8841   6.095  14.428   6.778
  980PNCE   C6B 8842   6.264  14.691   7.127
  981PNCE   AM1 8843   4.983   8.597   4.158
  981PNCE   AM2 8844   5.304   8.805   4.240
  981PNCE   T1A 8845   4.799   8.669   4.597
  981PNCE   C2A 8846   4.734   8.817   5.045
  981PNCE   C3A 8847   4.545   9.170   5.342
  981PNCE   C1B 8848   5.219   8.949   4.654
  981PNCE   C2B 8849   5.476   8.915   4.997
  981PNCE   C3B 8850   5.651   8.715   5.339
  981PNCE   D4B 8851   6.078   8.657   5.432
  981PNCE   C5B 8852   6.359   8.559   5.144
  981PNCE   C6B 8853   6.573   8.465   4.771
  982CHOL   ROH 8854   5.941   4.743   4.519
  982CHOL    R1 8855   5.904   4.892   4.756
  982CHOL    R2 8856   5.658   4.917   4.879
  982CHOL    R3 8857   5.793   4.826   5.096
  982CHOL    R4 8858   5.551   4.949   5.206
  982CHOL    R5 8859   5.757   4.993   5.264
  982CHOL    C1 8860   5.617   4.881   5.601
  982CHOL    C2 8861   5.724   5.123   5.914
  983PNCE   AM1 8862  15.718   8.767   4.719
  983PNCE   AM2 8863  15.384   8.845   4.616
  983PNCE   T1A 8864  15.726   8.643   5.140
  983PNCE   C2A 8865   0.146   8.375   5.390
  983PNCE   C3A 8866   0.312   8.287   5.769
  983PNCE   C1B 8867  15.247   8.507   4.927
  983PNCE   C2B 8868  15.125   8.421   5.358
  983PNCE   C3B 8869  15.217   8.656   5.745
  983PNCE   D4B 8870  15.266   9.011   6.021
  983PNCE   C5B 8871  14.989   9.172   6.353
  983PNCE   C6B 8872  14.858   9.107   6.794
  984XCA    COO 8873  12.214  13.169   9.133
  984XCA     C1 8874  12.438  13.154   8.722
  984XCA     C2 8875  12.397  13.243   8.274
  984XCA     C3 8876  12.551  13.250   7.853
  984XCA     C4 8877  12.670  13.143   7.434
  984XCA     C5 8878  12.837  13.266   7.043
  984XCA     C6 8879  12.993  13.499   6.694
  985CHOL   ROH 8880   4.499   9.208   3.737
  985CHOL    R1 8881   4.303   9.214   3.941
  985CHOL    R2 8882   4.144   8.997   4.001
  985CHOL    R3 8883   4.239   9.038   4.253
  985CHOL    R4 8884   3.972   8.923   4.292
  985CHOL    R5 8885   4.047   9.108   4.378
  985CHOL    C1 8886   3.961   8.919   4.697
  985CHOL    C2 8887   3.793   8.616   4.940
  986CHOL   ROH 8888   3.953   4.938   8.459
  986CHOL    R1 8889   4.029   4.937   8.186
  986CHOL    R2 8890   4.044   4.705   8.037
  986CHOL    R3 8891   3.878   4.841   7.869
  986CHOL    R4 8892   3.996   4.631   7.703
  986CHOL    R5 8893   3.995   4.844   7.660
  986CHOL    C1 8894   3.813   4.715   7.351
  986CHOL    C2 8895   3.919   4.712   6.966
  987XCA    COO 8896   2.073   0.836   4.938
  987XCA     C1 8897   2.069   0.911   5.388
  987XCA     C2 8898   2.057   0.979   5.789
  987XCA     C3 8899   1.884   1.143   6.118
  987XCA     C4 8900   1.908   1.405   6.435
  987XCA     C5 8901   1.600   1.323   6.702
  987XCA     C6 8902   1.519   1.099   7.041
  988PNCE   AM1 8903   4.894   8.930   3.652
  988PNCE   AM2 8904   5.003   9.059   3.912
  988PNCE   T1A 8905   4.562   8.783   3.908
  988PNCE   C2A 8906   4.404   8.590   4.248
  988PNCE   C3A 8907   4.298   8.618   4.667
  988PNCE   C1B 8908   4.732   9.109   4.284
  988PNCE   C2B 8909   4.472   9.093   4.643
  988PNCE   C3B 8910   4.212   9.284   4.917
  988PNCE   D4B 8911   4.060   8.996   5.213
  988PNCE   C5B 8912   4.283   8.617   5.180
  988PNCE   C6B 8913   4.163   8.222   5.165
  989CHOL   ROH 8914   6.138  10.352   9.211
  989CHOL    R1 8915   6.179  10.270   8.943
  989CHOL    R2 8916   6.413  10.321   8.805
  989CHOL    R3 8917   6.410  10.052   8.765
  989CHOL    R4 8918   6.573  10.159   8.545
  989CHOL    R5 8919   6.399  10.028   8.527
  989CHOL    C1 8920   6.664   9.813   8.356
  989CHOL    C2 8921   6.971   9.917   8.091
  990CHOL   ROH 8922   2.935  11.525   4.433
  990CHOL    R1 8923   2.924  11.435   4.701
  990CHOL    R2 8924   3.148  11.424   4.862
  990CHOL    R3 8925   2.994  11.574   5.030
  990CHOL    R4 8926   3.188  11.440   5.205
  990CHOL    R5 8927   2.971  11.438   5.226
  990CHOL    C1 8928   3.067  11.590   5.562
  990CHOL    C2 8929   3.237  11.743   5.927
  991CHOL   ROH 8930   7.709  15.051   7.169
  991CHOL    R1 8931   7.804  14.975   6.913
  991CHOL    R2 8932   8.037  14.832   6.878
  991CHOL    R3 8933   7.875  14.663   6.739
  991CHOL    R4 8934   8.146  14.597   6.649
  991CHOL    R5 8935   7.976  14.648   6.523
  991CHOL    C1 8936   8.057  14.301   6.386
  991CHOL    C2 8937   8.032  14.075   6.055
  992CHOL   ROH 8938   3.258   0.232   5.451
  992CHOL    R1 8939   3.393   0.268   5.697
  992CHOL    R2 8940   3.389   0.079   5.898
  992CHOL    R3 8941   3.659   0.101   5.880
  992CHOL    R4 8942   3.614  15.758   6.113
  992CHOL    R5 8943   3.734   0.111   6.107
  992CHOL    C1 8944   3.999  15.691   6.221
  992CHOL    C2 8945   4.387  15.623   6.374
  993CHOL   ROH 8946   0.800  15.099   5.812
  993CHOL    R1 8947   0.613  15.305   5.758
  993CHOL    R2 8948   0.382  15.262   5.614
  993CHOL    R3 8949   0.263  15.371   5.833
  993CHOL    R4 8950   0.071  15.414   5.615
  993CHOL    R5 8951   0.152  15.566   5.750
  993CHOL    C1 8952  15.609  15.605   5.822
  993CHOL    C2 8953  15.246  15.565   6.004
  994CHOL   ROH 8954  12.410  14.094   7.422
  994CHOL    R1 8955  12.431  14.202   7.683
  994CHOL    R2 8956  12.210  14.274   7.833
  994CHOL    R3 8957  12.322  14.109   8.018
  994CHOL    R4 8958  12.136  14.276   8.170
  994CHOL    R5 8959  12.347  14.247   8.212
  994CHOL    C1 8960  12.197  14.123   8.540
  994CHOL    C2 8961  11.919  14.051   8.891
  995PNCE   AM1 8962  10.510   8.971   4.137
  995PNCE   AM2 8963  10.606   8.659   4.295
  995PNCE   T1A 8964  10.506   9.072   4.607
  995PNCE   C2A 8965  10.402   9.208   5.035
  995PNCE   C3A 8966  10.389   9.172   5.496
  995PNCE   C1B 8967  10.741   8.605   4.749
  995PNCE   C2B 8968  10.638   8.767   5.153
  995PNCE   C3B 8969  10.626   8.737   5.615
  995PNCE   D4B 8970  10.530   8.950   5.980
  995PNCE   C5B 8971  10.827   8.829   6.270
  995PNCE   C6B 8972  11.041   8.449   6.371
  996CHOL   ROH 8973  13.322  14.873   5.049
  996CHOL    R1 8974  13.145  14.919   5.265
  996CHOL    R2 8975  13.064  14.718   5.436
  996CHOL    R3 8976  13.156  14.887   5.628
  996CHOL    R4 8977  12.973  14.708   5.769
  996CHOL    R5 8978  12.967  14.926   5.769
  996CHOL    C1 8979  13.006  14.862   6.143
  996CHOL    C2 8980  12.811  14.952   6.517
  997PNCE   AM1 8981   0.003   1.479   4.688
  997PNCE   AM2 8982   0.093   1.819   4.705
  997PNCE   T1A 8983  15.400   1.595   4.739
  997PNCE   C2A 8984  15.049   1.788   4.967
  997PNCE   C3A 8985  14.625   1.964   5.062
  997PNCE   C1B 8986   0.154   1.721   5.157
  997PNCE   C2B 8987  15.813   1.678   5.591
  997PNCE   C3B 8988  15.466   1.606   5.866
  997PNCE   D4B 8989  15.053   1.696   6.042
  997PNCE   C5B 8990  14.992   1.783   6.494
  997PNCE   C6B 8991  15.075   2.082   6.868
  998PNCE   AM1 8992   2.801   6.912   4.370
  998PNCE   AM2 8993   2.472   6.767   4.406
  998PNCE   T1A 8994   3.128   6.675   4.556
  998PNCE   C2A 8995   3.452   6.504   4.824
  998PNCE   C3A 8996   3.792   6.547   5.123
  998PNCE   C1B 8997   2.687   6.776   4.843
  998PNCE   C2B 8998   2.739   7.024   5.238
  998PNCE   C3B 8999   2.667   7.289   5.594
  998PNCE   D4B 9000   2.479   7.331   6.009
  998PNCE   C5B 9001   2.478   7.742   6.229
  998PNCE   C6B 9002   2.703   7.870   6.622
  999CHOL   ROH 9003  14.518   9.006   4.038
  999CHOL    R1 9004  14.553   8.935   4.310
  999CHOL    R2 9005  14.362   8.984   4.503
  999CHOL    R3 9006  14.388   8.717   4.550
  999CHOL    R4 9007  14.213   8.814   4.765
  999CHOL    R5 9008  14.397   8.700   4.789
  999CHOL    C1 9009  14.151   8.465   4.962
  999CHOL    C2 9010  14.164   8.145   5.205
 1000CHOL   ROH 9011  15.148  10.232   7.770
 1000CHOL    R1 9012  15.276  10.194   7.520
 1000CHOL    R2 9013  15.232   9.971   7.363
 1000CHOL    R3 9014  15.172  10.156   7.173
 1000CHOL    R4 9015  15.291   9.933   7.025
 1000CHOL    R5 9016  15.353  10.142   7.017
 1000CHOL    C1 9017  15.269  10.085   6.649
 1000CHOL    C2 9018  15.616  10.020   6.449
 1001XCA    COO 9019   1.989   7.995   4.483
 1001XCA     C1 9020   2.060   7.901   4.940
 1001XCA     C2 9021   1.937   7.772   5.347
 1001XCA     C3 9022   1.664   7.632   5.681
 1001XCA     C4 9023   1.406   7.289   5.844
 1001XCA     C5 9024   1.110   6.980   5.950
 1001XCA     C6 9025   0.818   6.659   6.032
 1002CHOL   ROH 9026  13.827  11.612   8.189
 1002CHOL    R1 9027  13.766  11.586   7.914
 1002CHOL    R2 9028  13.936  11.674   7.714
 1002CHOL    R3 9029  13.910  11.419   7.624
 1002CHOL    R4 9030  14.016  11.569   7.395
 1002CHOL    R5 9031  13.838  11.443   7.397
 1002CHOL    C1 9032  14.039  11.267   7.125
 1002CHOL    C2 9033  14.323  11.088   6.913
 1003PNCE   AM1 9034   2.656  14.509   4.784
 1003PNCE   AM2 9035   2.809  14.760   5.005
 1003PNCE   T1A 9036   2.915  14.265   5.110
 1003PNCE   C2A 9037   3.070  14.006   5.458
 1003PNCE   C3A 9038   3.199  13.709   5.774
 1003PNCE   C1B 9039   3.165  14.671   5.328
 1003PNCE   C2B 9040   3.381  14.456   5.702
 1003PNCE   C3B 9041   3.374  14.486   6.172
 1003PNCE   D4B 9042   3.437  14.305   6.529
 1003PNCE   C5B 9043   3.580  13.911   6.667
 1003PNCE   C6B 9044   3.463  13.746   7.057
 1004CHOL   ROH 9045   1.157   5.618   4.971
 1004CHOL    R1 9046   1.382   5.487   5.081
 1004CHOL    R2 9047   1.439   5.489   5.351
 1004CHOL    R3 9048   1.442   5.219   5.321
 1004CHOL    R4 9049   1.579   5.267   5.576
 1004CHOL    R5 9050   1.656   5.153   5.407
 1004CHOL    C1 9051   1.664   4.884   5.678
 1004CHOL    C2 9052   1.747   4.972   6.065
 1005PNCE   AM1 9053  10.552   3.860   4.258
 1005PNCE   AM2 9054  10.811   3.965   4.082
 1005PNCE   T1A 9055  10.437   4.039   4.631
 1005PNCE   C2A 9056  10.259   4.434   4.694
 1005PNCE   C3A 9057  10.127   4.705   4.985
 1005PNCE   C1B 9058  11.048   3.673   4.322
 1005PNCE   C2B 9059  11.295   3.576   4.677
 1005PNCE   C3B 9060  11.394   3.785   5.052
 1005PNCE   D4B 9061  11.642   3.644   5.397
 1005PNCE   C5B 9062  11.930   3.905   5.631
 1005PNCE   C6B 9063  12.024   4.352   5.588
 1006PNCE   AM1 9064   5.467   3.573   4.932
 1006PNCE   AM2 9065   5.619   3.838   4.710
 1006PNCE   T1A 9066   5.375   3.694   5.384
 1006PNCE   C2A 9067   5.521   3.928   5.766
 1006PNCE   C3A 9068   5.398   4.246   6.038
 1006PNCE   C1B 9069   5.827   3.883   5.127
 1006PNCE   C2B 9070   5.977   3.979   5.530
 1006PNCE   C3B 9071   6.019   4.009   5.961
 1006PNCE   D4B 9072   6.356   4.280   6.208
 1006PNCE   C5B 9073   6.432   4.235   6.650
 1006PNCE   C6B 9074   6.435   4.040   7.028
 1007PNCE   AM1 9075   4.705  15.243   3.599
 1007PNCE   AM2 9076   4.444  15.216   3.870
 1007PNCE   T1A 9077   4.925  15.039   3.959
 1007PNCE   C2A 9078   4.997  14.718   4.278
 1007PNCE   C3A 9079   5.264  14.568   4.625
 1007PNCE   C1B 9080   4.493  14.985   4.256
 1007PNCE   C2B 9081   4.529  14.573   4.446
 1007PNCE   C3B 9082   4.864  14.246   4.473
 1007PNCE   D4B 9083   4.712  13.824   4.476
 1007PNCE   C5B 9084   4.316  13.894   4.697
 1007PNCE   C6B 9085   3.882  13.922   4.875
 1008CHOL   ROH 9086   7.067   4.750   6.901
 1008CHOL    R1 9087   6.946   4.720   6.647
 1008CHOL    R2 9088   6.976   4.906   6.445
 1008CHOL    R3 9089   7.058   4.690   6.302
 1008CHOL    R4 9090   6.942   4.871   6.103
 1008CHOL    R5 9091   6.890   4.662   6.135
 1008CHOL    C1 9092   6.999   4.648   5.770
 1008CHOL    C2 9093   7.066   4.456   5.407
 1009CHOL   ROH 9094  12.866  15.227   4.914
 1009CHOL    R1 9095  12.984  15.344   5.143
 1009CHOL    R2 9096  12.837  15.420   5.364
 1009CHOL    R3 9097  13.015  15.263   5.496
 1009CHOL    R4 9098  12.894  15.429   5.705
 1009CHOL    R5 9099  13.107  15.405   5.665
 1009CHOL    C1 9100  13.094  15.286   6.027
 1009CHOL    C2 9101  13.155  15.310   6.436
 1010CHOL   ROH 9102   1.284  12.272   5.039
 1010CHOL    R1 9103   1.385  12.128   5.260
 1010CHOL    R2 9104   1.654  12.075   5.294
 1010CHOL    R3 9105   1.614  12.192   5.536
 1010CHOL    R4 9106   1.845  12.016   5.575
 1010CHOL    R5 9107   1.662  12.019   5.694
 1010CHOL    C1 9108   1.919  12.091   5.967
 1010CHOL    C2 9109   2.049  12.140   6.332
 1011XCA    COO 9110   3.291  10.221   4.041
 1011XCA     C1 9111   3.329   9.973   4.462
 1011XCA     C2 9112   3.166  10.063   4.900
 1011XCA     C3 9113   3.343  10.263   5.264
 1011XCA     C4 9114   3.360  10.617   5.542
 1011XCA     C5 9115   3.154  10.724   5.919
 1011XCA     C6 9116   3.193  10.743   6.343
 1012PNCE   AM1 9117   9.348   3.120   5.330
 1012PNCE   AM2 9118   9.490   2.988   5.072
 1012PNCE   T1A 9119   9.614   3.243   5.617
 1012PNCE   C2A 9120   9.864   3.505   5.839
 1012PNCE   C3A 9121   9.999   3.854   6.101
 1012PNCE   C1B 9122   9.728   2.752   5.417
 1012PNCE   C2B 9123   9.666   2.455   5.777
 1012PNCE   C3B 9124   9.657   2.401   6.232
 1012PNCE   D4B 9125   9.565   2.617   6.645
 1012PNCE   C5B 9126   9.307   2.533   7.054
 1012PNCE   C6B 9127   9.059   2.650   7.426
 1013CHOL   ROH 9128  10.871  14.966   5.804
 1013CHOL    R1 9129  10.901  14.887   6.074
 1013CHOL    R2 9130  11.132  14.935   6.218
 1013CHOL    R3 9131  10.960  15.052   6.393
 1013CHOL    R4 9132  11.216  15.046   6.534
 1013CHOL    R5 9133  11.027  14.968   6.607
 1013CHOL    C1 9134  11.104  15.220   6.883
 1013CHOL    C2 9135  10.915  15.496   7.162
 1014PNCE   AM1 9136  12.476  10.909   4.422
 1014PNCE   AM2 9137  12.708  11.173   4.547
 1014PNCE   T1A 9138  12.383  10.815   4.874
 1014PNCE   C2A 9139  12.475  10.830   5.350
 1014PNCE   C3A 9140  12.403  10.670   5.775
 1014PNCE   C1B 9141  12.525  11.267   4.991
 1014PNCE   C2B 9142  12.217  11.278   5.367
 1014PNCE   C3B 9143  11.825  11.229   5.626
 1014PNCE   D4B 9144  11.545  11.276   6.007
 1014PNCE   C5B 9145  11.172  11.051   6.011
 1014PNCE   C6B 9146  10.871  10.825   5.868
 1015XCA    COO 9147   8.183   6.352   5.171
 1015XCA     C1 9148   8.574   6.360   5.386
 1015XCA     C2 9149   8.752   6.083   5.665
 1015XCA     C3 9150   9.127   6.142   5.946
 1015XCA     C4 9151   9.536   6.267   6.122
 1015XCA     C5 9152   9.934   6.366   6.252
 1015XCA     C6 9153  10.361   6.403   6.347
 1016CHOL   ROH 9154   4.567   3.980   6.197
 1016CHOL    R1 9155   4.406   4.122   6.381
 1016CHOL    R2 9156   4.446   4.390   6.438
 1016CHOL    R3 9157   4.183   4.410   6.370
 1016CHOL    R4 9158   4.240   4.654   6.521
 1016CHOL    R5 9159   4.080   4.512   6.561
 1016CHOL    C1 9160   3.874   4.828   6.507
 1016CHOL    C2 9161   3.594   5.100   6.445
 1017XCA    COO 9162  12.739   1.713   4.656
 1017XCA     C1 9163  12.837   1.705   5.121
 1017XCA     C2 9164  13.091   1.446   5.384
 1017XCA     C3 9165  13.290   1.455   5.763
 1017XCA     C4 9166  13.293   1.819   6.025
 1017XCA     C5 9167  13.533   2.196   5.989
 1017XCA     C6 9168  13.637   2.585   5.789
 1018CHOL   ROH 9169   1.568   0.083   5.369
 1018CHOL    R1 9170   1.746   0.138   5.583
 1018CHOL    R2 9171   1.661   0.247   5.822
 1018CHOL    R3 9172   1.786   0.029   5.928
 1018CHOL    R4 9173   1.871   0.253   6.097
 1018CHOL    R5 9174   2.000   0.111   5.996
 1018CHOL    C1 9175   2.109   0.053   6.356
 1018CHOL    C2 9176   2.421   0.289   6.499
 1019PNCE   AM1 9177  15.203   9.542   4.953
 1019PNCE   AM2 9178  15.020   9.800   4.731
 1019PNCE   T1A 9179  14.951   9.419   5.297
 1019PNCE   C2A 9180  14.605   9.331   5.580
 1019PNCE   C3A 9181  14.217   9.095   5.606
 1019PNCE   C1B 9182  14.790   9.918   5.094
 1019PNCE   C2B 9183  14.694   9.840   5.509
 1019PNCE   C3B 9184  14.613   9.730   5.946
 1019PNCE   D4B 9185  14.832   9.686   6.307
 1019PNCE   C5B 9186  15.252   9.725   6.223
 1019PNCE   C6B 9187  15.634   9.619   5.990
 1020XCA    COO 9188   0.523   7.515   8.233
 1020XCA     C1 9189   0.569   7.784   7.872
 1020XCA     C2 9190   0.515   8.016   7.485
 1020XCA     C3 9191   0.611   8.241   7.116
 1020XCA     C4 9192   0.482   8.240   6.699
 1020XCA     C5 9193   0.501   8.420   6.251
 1020XCA     C6 9194   0.428   8.877   6.120
 1021PNCE   AM1 9195   0.047   8.261   4.846
 1021PNCE   AM2 9196  15.686   8.160   4.542
 1021PNCE   T1A 9197   0.349   8.004   5.113
 1021PNCE   C2A 9198   0.592   7.955   5.502
 1021PNCE   C3A 9199   0.813   8.087   5.873
 1021PNCE   C1B 9200  15.260   8.049   4.648
 1021PNCE   C2B 9201  15.025   8.017   5.022
 1021PNCE   C3B 9202  14.971   7.852   5.422
 1021PNCE   D4B 9203  14.900   7.447   5.620
 1021PNCE   C5B 9204  14.672   7.421   6.052
 1021PNCE   C6B 9205  14.631   7.188   6.458
 1022XCA    COO 9206  11.063  15.693   5.069
 1022XCA     C1 9207  11.377  15.765   5.400
 1022XCA     C2 9208  11.352  15.756   5.854
 1022XCA     C3 9209  11.406  15.811   6.280
 1022XCA     C4 9210  11.818  15.727   6.447
 1022XCA     C5 9211  12.125  15.683   6.783
 1022XCA     C6 9212  12.386  15.559   7.166
 1023CHOL   ROH 9213   2.930  10.175   6.186
 1023CHOL    R1 9214   2.782   9.991   6.031
 1023CHOL    R2 9215   2.884   9.874   5.802
 1023CHOL    R3 9216   2.816   9.643   5.928
 1023CHOL    R4 9217   2.830   9.571   5.644
 1023CHOL    R5 9218   2.662   9.537   5.779
 1023CHOL    C1 9219   2.735   9.178   5.671
 1023CHOL    C2 9220   2.760   9.009   5.300
 1024XCA    COO 9221  11.737   2.579   8.225
 1024XCA     C1 9222  11.731   2.651   7.759
 1024XCA     C2 9223  11.808   2.796   7.305
 1024XCA     C3 9224  11.812   3.129   6.963
 1024XCA     C4 9225  11.614   3.531   6.860
 1024XCA     C5 9226  11.532   3.838   6.527
 1024XCA     C6 9227  11.555   3.873   6.086
 1025CHOL   ROH 9228   1.835   6.108   8.149
 1025CHOL    R1 9229   1.780   5.973   7.907
 1025CHOL    R2 9230   1.645   6.091   7.697
 1025CHOL    R3 9231   1.864   6.015   7.555
 1025CHOL    R4 9232   1.661   6.075   7.352
 1025CHOL    R5 9233   1.775   5.890   7.371
 1025CHOL    C1 9234   1.876   5.993   7.018
 1025CHOL    C2 9235   2.001   6.162   6.670
 1026CHOL   ROH 9236   3.245  14.678   4.771
 1026CHOL    R1 9237   3.296  14.422   4.879
 1026CHOL    R2 9238   3.546  14.346   4.969
 1026CHOL    R3 9239   3.411  14.287   5.197
 1026CHOL    R4 9240   3.671  14.157   5.230
 1026CHOL    R5 9241   3.476  14.063   5.250
 1026CHOL    C1 9242   3.617  13.993   5.597
 1026CHOL    C2 9243   3.691  13.601   5.661
 1027PNCE   AM1 9244   4.426   5.913   4.367
 1027PNCE   AM2 9245   4.707   6.080   4.553
 1027PNCE   T1A 9246   4.342   5.829   4.797
 1027PNCE   C2A 9247   4.378   5.890   5.245
 1027PNCE   C3A 9248   4.283   5.853   5.682
 1027PNCE   C1B 9249   4.809   6.020   4.983
 1027PNCE   C2B 9250   4.826   6.072   5.432
 1027PNCE   C3B 9251   4.756   5.915   5.855
 1027PNCE   D4B 9252   4.517   5.821   6.220
 1027PNCE   C5B 9253   4.074   5.929   6.185
 1027PNCE   C6B 9254   3.788   5.953   6.520
 1028CHOL   ROH 9255   3.092  15.681   5.617
 1028CHOL    R1 9256   2.889  15.764   5.797
 1028CHOL    R2 9257   2.650  15.629   5.822
 1028CHOL    R3 9258   2.718  15.622   6.085
 1028CHOL    R4 9259   2.429  15.578   6.083
 1028CHOL    R5 9260   2.536  15.729   6.197
 1028CHOL    C1 9261   2.365  15.542   6.482
 1028CHOL    C2 9262   2.142  15.732   6.792
 1029PNCE   AM1 9263  12.768  10.403   4.402
 1029PNCE   AM2 9264  12.891  10.666   4.628
 1029PNCE   T1A 9265  12.628  10.035   4.664
 1029PNCE   C2A 9266  12.633   9.611   4.788
 1029PNCE   C3A 9267  12.535   9.365   5.159
 1029PNCE   C1B 9268  12.792  10.471   5.051
 1029PNCE   C2B 9269  12.631  10.304   5.467
 1029PNCE   C3B 9270  12.375  10.149   5.845
 1029PNCE   D4B 9271  12.134   9.775   5.989
 1029PNCE   C5B 9272  11.699   9.628   5.948
 1029PNCE   C6B 9273  11.238   9.749   5.978
 1030XCA    COO 9274   1.545  13.407   8.493
 1030XCA     C1 9275   1.091  13.564   8.439
 1030XCA     C2 9276   0.682  13.423   8.294
 1030XCA     C3 9277   0.248  13.407   8.215
 1030XCA     C4 9278   0.166  13.528   7.824
 1030XCA     C5 9279   0.046  13.354   7.430
 1030XCA     C6 9280  15.797  13.302   6.983
 1031CHOL   ROH 9281   0.618  11.280   8.664
 1031CHOL    R1 9282   0.470  11.190   8.440
 1031CHOL    R2 9283   0.230  11.304   8.365
 1031CHOL    R3 9284   0.355  11.331   8.125
 1031CHOL    R4 9285   0.072  11.381   8.067
 1031CHOL    R5 9286   0.201  11.237   7.967
 1031CHOL    C1 9287   0.097  11.451   7.669
 1031CHOL    C2 9288  15.589  11.556   7.420
 1032PNCE   AM1 9289  13.242  11.542   5.010
 1032PNCE   AM2 9290  12.919  11.576   4.863
 1032PNCE   T1A 9291  13.371  11.223   5.304
 1032PNCE   C2A 9292  13.553  10.825   5.442
 1032PNCE   C3A 9293  13.580  10.522   5.768
 1032PNCE   C1B 9294  12.884  11.389   5.310
 1032PNCE   C2B 9295  12.683  11.200   5.666
 1032PNCE   C3B 9296  12.280  11.155   5.882
 1032PNCE   D4B 9297  11.955  10.959   6.131
 1032PNCE   C5B 9298  11.986  11.059   6.570
 1032PNCE   C6B 9299  11.854  10.911   6.972
 1033PNCE   AM1 9300   3.529  14.443   8.245
 1033PNCE   AM2 9301   3.786  14.646   8.381
 1033PNCE   T1A 9302   3.486  14.522   7.817
 1033PNCE   C2A 9303   3.308  14.486   7.403
 1033PNCE   C3A 9304   3.274  14.257   7.003
 1033PNCE   C1B 9305   4.111  14.755   8.062
 1033PNCE   C2B 9306   4.147  14.940   7.634
 1033PNCE   C3B 9307   4.270  15.145   7.254
 1033PNCE   D4B 9308   4.330  15.491   6.943
 1033PNCE   C5B 9309   4.731  15.442   6.729
 1033PNCE   C6B 9310   4.935  15.027   6.656
 1034PNCE   AM1 9311   9.281   7.508   4.426
 1034PNCE   AM2 9312   9.598   7.652   4.563
 1034PNCE   T1A 9313   9.505   7.137   4.579
 1034PNCE   C2A 9314   9.583   6.708   4.755
 1034PNCE   C3A 9315   9.782   6.378   4.466
 1034PNCE   C1B 9316   9.703   7.559   5.007
 1034PNCE   C2B 9317   9.767   7.695   5.432
 1034PNCE   C3B 9318   9.656   7.877   5.823
 1034PNCE   D4B 9319   9.811   7.958   6.238
 1034PNCE   C5B 9320  10.207   8.208   6.295
 1034PNCE   C6B 9321  10.395   8.615   6.463
 1035CHOL   ROH 9322   8.184   9.072   4.473
 1035CHOL    R1 9323   8.014   9.010   4.691
 1035CHOL    R2 9324   8.091   8.842   4.896
 1035CHOL    R3 9325   8.021   9.054   5.052
 1035CHOL    R4 9326   8.025   8.825   5.235
 1035CHOL    R5 9327   7.860   8.964   5.206
 1035CHOL    C1 9328   7.921   9.013   5.579
 1035CHOL    C2 9329   7.795   9.072   6.000
 1036PNCE   AM1 9330  11.570   0.653   4.961
 1036PNCE   AM2 9331  11.431   0.964   4.799
 1036PNCE   T1A 9332  11.740   0.285   5.208
 1036PNCE   C2A 9333  11.855   0.101   5.589
 1036PNCE   C3A 9334  11.759   0.244   6.018
 1036PNCE   C1B 9335  11.503   1.047   5.282
 1036PNCE   C2B 9336  11.585   1.046   5.732
 1036PNCE   C3B 9337  11.583   0.734   6.068
 1036PNCE   D4B 9338  11.735   0.768   6.478
 1036PNCE   C5B 9339  11.415   0.827   6.796
 1036PNCE   C6B 9340  11.075   0.556   6.886
 1037XCA    COO 9341   1.874  11.614   8.597
 1037XCA     C1 9342   1.695  11.770   8.194
 1037XCA     C2 9343   1.287  11.888   8.041
 1037XCA     C3 9344   0.841  11.943   7.921
 1037XCA     C4 9345   0.519  12.153   7.665
 1037XCA     C5 9346   0.074  12.057   7.635
 1037XCA     C6 9347  15.662  12.201   7.958
 1038PNCE   AM1 9348  15.004  11.545   4.930
 1038PNCE   AM2 9349  14.780  11.781   4.826
 1038PNCE   T1A 9350  14.943  11.170   5.201
 1038PNCE   C2A 9351  14.910  10.935   5.604
 1038PNCE   C3A 9352  15.206  10.649   5.836
 1038PNCE   C1B 9353  14.872  12.023   5.178
 1038PNCE   C2B 9354  14.940  12.048   5.612
 1038PNCE   C3B 9355  14.881  11.818   6.001
 1038PNCE   D4B 9356  14.762  11.841   6.438
 1038PNCE   C5B 9357  14.347  11.988   6.571
 1038PNCE   C6B 9358  14.248  12.260   6.917
 1039CHOL   ROH 9359   7.915  11.335   8.623
 1039CHOL    R1 9360   7.808  11.167   8.422
 1039CHOL    R2 9361   7.622  11.256   8.238
 1039CHOL    R3 9362   7.802  11.160   8.059
 1039CHOL    R4 9363   7.545  11.149   7.919
 1039CHOL    R5 9364   7.686  10.985   7.945
 1039CHOL    C1 9365   7.669  10.997   7.564
 1039CHOL    C2 9366   7.708  11.006   7.158
 1040CHOL   ROH 9367  14.681   2.130   6.577
 1040CHOL    R1 9368  14.755   2.398   6.521
 1040CHOL    R2 9369  14.598   2.613   6.592
 1040CHOL    R3 9370  14.826   2.699   6.713
 1040CHOL    R4 9371  14.682   2.944   6.644
 1040CHOL    R5 9372  14.888   2.896   6.592
 1040CHOL    C1 9373  14.945   3.217   6.789
 1040CHOL    C2 9374  14.993   3.622   6.844
 1041CHOL   ROH 9375   5.589  10.727   7.276
 1041CHOL    R1 9376   5.814  10.581   7.366
 1041CHOL    R2 9377   6.052  10.703   7.435
 1041CHOL    R3 9378   6.017  10.568   7.668
 1041CHOL    R4 9379   6.298  10.651   7.672
 1041CHOL    R5 9380   6.222  10.448   7.699
 1041CHOL    C1 9381   6.408  10.493   8.029
 1041CHOL    C2 9382   6.527  10.152   8.052
 1042PNCE   AM1 9383  13.365  10.682   4.929
 1042PNCE   AM2 9384  13.597  10.498   4.723
 1042PNCE   T1A 9385  13.273  10.408   5.295
 1042PNCE   C2A 9386  13.104  10.193   5.641
 1042PNCE   C3A 9387  12.888   9.874   5.879
 1042PNCE   C1B 9388  13.795  10.341   5.112
 1042PNCE   C2B 9389  13.829  10.115   5.516
 1042PNCE   C3B 9390  13.834   9.891   5.910
 1042PNCE   D4B 9391  14.129  10.000   6.237
 1042PNCE   C5B 9392  14.178   9.711   6.533
 1042PNCE   C6B 9393  14.505   9.422   6.586
 1043PNCE   AM1 9394   6.070  15.103   4.493
 1043PNCE   AM2 9395   5.824  14.820   4.453
 1043PNCE   T1A 9396   6.076  15.131   4.967
 1043PNCE   C2A 9397   5.953  14.885   5.330
 1043PNCE   C3A 9398   5.615  14.783   5.618
 1043PNCE   C1B 9399   5.760  14.468   4.794
 1043PNCE   C2B 9400   5.748  14.399   5.265
 1043PNCE   C3B 9401   5.536  14.273   5.656
 1043PNCE   D4B 9402   5.442  13.863   5.824
 1043PNCE   C5B 9403   5.644  13.528   5.573
 1043PNCE   C6B 9404   5.779  13.097   5.497
 1044PNCE   AM1 9405   6.973  13.000   5.044
 1044PNCE   AM2 9406   6.635  13.146   5.052
 1044PNCE   T1A 9407   6.894  12.604   5.281
 1044PNCE   C2A 9408   7.058  12.211   5.463
 1044PNCE   C3A 9409   7.225  12.175   5.876
 1044PNCE   C1B 9410   6.324  13.121   5.408
 1044PNCE   C2B 9411   6.162  13.048   5.831
 1044PNCE   C3B 9412   6.133  13.190   6.250
 1044PNCE   D4B 9413   6.060  13.562   6.448
 1044PNCE   C5B 9414   6.299  13.540   6.814
 1044PNCE   C6B 9415   6.566  13.254   7.038
 1045CHOL   ROH 9416  14.912  10.611   7.889
 1045CHOL    R1 9417  14.648  10.615   7.787
 1045CHOL    R2 9418  14.586  10.723   7.541
 1045CHOL    R3 9419  14.473  10.479   7.498
 1045CHOL    R4 9420  14.355  10.652   7.293
 1045CHOL    R5 9421  14.247  10.527   7.436
 1045CHOL    C1 9422  14.115  10.381   7.109
 1045CHOL    C2 9423  14.007  10.289   6.708
 1046CHOL   ROH 9424  15.745  11.765   8.120
 1046CHOL    R1 9425  15.609  11.737   7.873
 1046CHOL    R2 9426  15.336  11.769   7.848
 1046CHOL    R3 9427  15.408  11.948   7.656
 1046CHOL    R4 9428  15.118  11.918   7.626
 1046CHOL    R5 9429  15.268  11.894   7.470
 1046CHOL    C1 9430  15.057  12.172   7.316
 1046CHOL    C2 9431  14.984  12.525   7.063
 1047PNCE   AM1 9432  14.933  13.255   4.948
 1047PNCE   AM2 9433  15.029  12.913   5.029
 1047PNCE   T1A 9434  14.957  13.283   5.428
 1047PNCE   C2A 9435  15.017  13.467   5.860
 1047PNCE   C3A 9436  14.982  13.416   6.349
 1047PNCE   C1B 9437  15.219  12.771   5.439
 1047PNCE   C2B 9438  15.081  12.514   5.804
 1047PNCE   C3B 9439  14.890  12.299   6.184
 1047PNCE   D4B 9440  14.695  12.358   6.631
 1047PNCE   C5B 9441  14.463  12.735   6.845
 1047PNCE   C6B 9442  14.147  12.832   7.193
 1048CHOL   ROH 9443  11.087   3.364   7.245
 1048CHOL    R1 9444  10.894   3.178   7.336
 1048CHOL    R2 9445  10.938   2.906   7.334
 1048CHOL    R3 9446  10.874   2.926   7.597
 1048CHOL    R4 9447  10.830   2.643   7.532
 1048CHOL    R5 9448  10.686   2.779   7.624
 1048CHOL    C1 9449  10.706   2.509   7.894
 1048CHOL    C2 9450  10.790   2.161   7.876
 1049CHOL   ROH 9451  13.340  13.579   5.161
 1049CHOL    R1 9452  13.360  13.467   5.420
 1049CHOL    R2 9453  13.590  13.481   5.571
 1049CHOL    R3 9454  13.424  13.590   5.757
 1049CHOL    R4 9455  13.665  13.515   5.907
 1049CHOL    R5 9456  13.460  13.457   5.953
 1049CHOL    C1 9457  13.553  13.637   6.276
 1049CHOL    C2 9458  13.466  13.690   6.681
 1050CHOL   ROH 9459   0.742   2.906   6.777
 1050CHOL    R1 9460   1.007   2.880   6.874
 1050CHOL    R2 9461   1.211   2.775   6.722
 1050CHOL    R3 9462   1.335   3.009   6.783
 1050CHOL    R4 9463   1.545   2.843   6.662
 1050CHOL    R5 9464   1.554   2.943   6.856
 1050CHOL    C1 9465   1.855   3.103   6.685
 1050CHOL    C2 9466   2.256   2.995   6.540
 1051CHOL   ROH 9467  11.657  14.226   8.547
 1051CHOL    R1 9468  11.720  14.280   8.276
 1051CHOL    R2 9469  11.572  14.453   8.120
 1051CHOL    R3 9470  11.814  14.570   8.079
 1051CHOL    R4 9471  11.647  14.662   7.856
 1051CHOL    R5 9472  11.842  14.566   7.841
 1051CHOL    C1 9473  11.917  14.895   7.662
 1051CHOL    C2 9474  12.169  14.927   7.283
 1052CHOL   ROH 9475  10.126  14.760   7.487
 1052CHOL    R1 9476   9.947  14.572   7.600
 1052CHOL    R2 9477   9.746  14.645   7.774
 1052CHOL    R3 9478   9.588  14.514   7.596
 1052CHOL    R4 9479   9.420  14.546   7.834
 1052CHOL    R5 9480   9.462  14.360   7.729
 1052CHOL    C1 9481   9.082  14.365   7.701
 1052CHOL    C2 9482   8.822  14.371   8.033
 1053CHOL   ROH 9483  13.271  15.479   8.982
 1053CHOL    R1 9484  13.102  15.340   8.802
 1053CHOL    R2 9485  12.992  15.460   8.579
 1053CHOL    R3 9486  13.107  15.251   8.450
 1053CHOL    R4 9487  12.894  15.342   8.270
 1053CHOL    R5 9488  12.923  15.139   8.343
 1053CHOL    C1 9489  12.944  15.076   7.968
 1053CHOL    C2 9490  12.667  15.019   7.673
 1054PNCE   AM1 9491   2.790  15.561   5.204
 1054PNCE   AM2 9492   2.720  15.276   5.038
 1054PNCE   T1A 9493   2.727   0.136   5.402
 1054PNCE   C2A 9494   2.936   0.480   5.671
 1054PNCE   C3A 9495   3.309   0.785   5.710
 1054PNCE   C1B 9496   2.816  15.063   5.455
 1054PNCE   C2B 9497   3.167  15.157   5.714
 1054PNCE   C3B 9498   3.222  15.467   6.050
 1054PNCE   D4B 9499   3.448  15.392   6.450
 1054PNCE   C5B 9500   3.738  15.719   6.620
 1054PNCE   C6B 9501   4.104   0.086   6.761
 1055CHOL   ROH 9502   0.251  15.522   9.016
 1055CHOL    R1 9503   0.121  15.431   8.782
 1055CHOL    R2 9504  15.699  15.519   8.709
 1055CHOL    R3 9505  15.824  15.581   8.475
 1055CHOL    R4 9506  15.538  15.614   8.418
 1055CHOL    R5 9507  15.680  15.493   8.305
 1055CHOL    C1 9508  15.562  15.728   8.030
 1055CHOL    C2 9509  15.351   0.170   7.885
 1056PNCE   AM1 9510   6.230   2.589   9.159
 1056PNCE   AM2 9511   6.285   2.502   8.876
 1056PNCE   T1A 9512   5.833   2.349   9.008
 1056PNCE   C2A 9513   5.570   2.251   8.635
 1056PNCE   C3A 9514   5.144   2.237   8.714
 1056PNCE   C1B 9515   6.645   2.782   8.865
 1056PNCE   C2B 9516   6.899   2.806   8.479
 1056PNCE   C3B 9517   6.838   2.755   8.051
 1056PNCE   D4B 9518   7.035   2.796   7.676
 1056PNCE   C5B 9519   7.006   3.193   7.477
 1056PNCE   C6B 9520   6.782   3.537   7.268
 1057CHOL   ROH 9521   9.791  15.177   8.185
 1057CHOL    R1 9522   9.843  15.451   8.138
 1057CHOL    R2 9523  10.020  15.597   8.292
 1057CHOL    R3 9524  10.132  15.654   8.051
 1057CHOL    R4 9525  10.225   0.039   8.228
 1057CHOL    R5 9526  10.124   0.064   8.037
 1057CHOL    C1 9527  10.449   0.250   7.965
 1057CHOL    C2 9528  10.581   0.591   7.891
 1058PNCE   AM1 9529  10.251  14.671   5.567
 1058PNCE   AM2 9530   9.949  14.883   5.594
 1058PNCE   T1A 9531  10.404  15.085   5.773
 1058PNCE   C2A 9532  10.598  15.518   5.741
 1058PNCE   C3A 9533  10.896   0.019   5.625
 1058PNCE   C1B 9534   9.958  15.087   6.013
 1058PNCE   C2B 9535  10.029  15.099   6.446
 1058PNCE   C3B 9536  10.164  15.298   6.808
 1058PNCE   D4B 9537  10.404  15.522   7.104
 1058PNCE   C5B 9538  10.290  15.251   7.438
 1058PNCE   C6B 9539   9.975  15.240   7.747
 1059CHOL   ROH 9540  12.481  11.654   5.250
 1059CHOL    R1 9541  12.542  11.754   5.507
 1059CHOL    R2 9542  12.776  11.690   5.640
 1059CHOL    R3 9543  12.803  11.960   5.656
 1059CHOL    R4 9544  12.979  11.855   5.865
 1059CHOL    R5 9545  12.822  12.004   5.890
 1059CHOL    C1 9546  13.122  12.205   6.012
 1059CHOL    C2 9547  13.298  12.326   6.355
 1060PNCE   AM1 9548  10.225   5.699   3.773
 1060PNCE   AM2 9549  10.478   5.415   3.726
 1060PNCE   T1A 9550  10.052   5.769   4.196
 1060PNCE   C2A 9551   9.802   5.868   4.558
 1060PNCE   C3A 9552   9.685   5.605   4.891
 1060PNCE   C1B 9553  10.596   5.426   4.186
 1060PNCE   C2B 9554  10.700   5.405   4.641
 1060PNCE   C3B 9555  10.525   5.493   5.049
 1060PNCE   D4B 9556  10.130   5.570   5.201
 1060PNCE   C5B 9557  10.042   5.992   5.104
 1060PNCE   C6B 9558  10.042   6.333   5.391
 1061PNCE   AM1 9559   1.785   0.502   5.245
 1061PNCE   AM2 9560   1.576   0.746   5.096
 1061PNCE   T1A 9561   1.612   0.690   5.623
 1061PNCE   C2A 9562   1.651   0.673   6.081
 1061PNCE   C3A 9563   1.787   0.821   6.519
 1061PNCE   C1B 9564   1.210   0.916   5.373
 1061PNCE   C2B 9565   0.852   1.080   5.627
 1061PNCE   C3B 9566   0.558   0.985   5.976
 1061PNCE   D4B 9567   0.083   0.943   6.062
 1061PNCE   C5B 9568  15.762   0.553   6.281
 1061PNCE   C6B 9569  15.789   0.141   6.083
 1062CHOL   ROH 9570  10.339  12.760   6.914
 1062CHOL    R1 9571  10.258  12.762   7.185
 1062CHOL    R2 9572  10.038  12.621   7.275
 1062CHOL    R3 9573  10.217  12.517   7.450
 1062CHOL    R4 9574   9.955  12.438   7.556
 1062CHOL    R5 9575  10.113  12.543   7.664
 1062CHOL    C1 9576  10.075  12.233   7.885
 1062CHOL    C2 9577   9.741  12.079   8.095
 1063PNCE   AM1 9578   6.099  11.753   4.397
 1063PNCE   AM2 9579   6.345  11.517   4.313
 1063PNCE   T1A 9580   6.225  11.839   4.803
 1063PNCE   C2A 9581   6.331  11.779   5.208
 1063PNCE   C3A 9582   6.224  11.866   5.582
 1063PNCE   C1B 9583   6.305  11.330   4.755
 1063PNCE   C2B 9584   6.278  11.282   5.214
 1063PNCE   C3B 9585   6.369  11.344   5.620
 1063PNCE   D4B 9586   6.192  11.477   5.998
 1063PNCE   C5B 9587   5.971  11.880   6.029
 1063PNCE   C6B 9588   6.099  12.275   5.858
 1064CHOL   ROH 9589   0.035   6.160   5.626
 1064CHOL    R1 9590   0.038   6.402   5.773
 1064CHOL    R2 9591   0.076   6.648   5.654
 1064CHOL    R3 9592  15.672   6.710   5.779
 1064CHOL    R4 9593  15.802   6.968   5.732
 1064CHOL    R5 9594  15.728   6.893   5.922
 1064CHOL    C1 9595  15.523   7.213   5.895
 1064CHOL    C2 9596  15.207   7.334   6.058
 1065PNCE   AM1 9597  12.434  13.964   4.863
 1065PNCE   AM2 9598  12.279  13.649   4.916
 1065PNCE   T1A 9599  12.502  13.954   5.328
 1065PNCE   C2A 9600  12.581  14.048   5.762
 1065PNCE   C3A 9601  12.603  13.987   6.205
 1065PNCE   C1B 9602  12.485  13.451   5.286
 1065PNCE   C2B 9603  12.568  13.508   5.702
 1065PNCE   C3B 9604  12.603  13.486   6.141
 1065PNCE   D4B 9605  12.509  13.453   6.569
 1065PNCE   C5B 9606  12.470  13.023   6.696
 1065PNCE   C6B 9607  12.179  12.813   7.014
 1066XCA    COO 9608   1.932   3.288   9.182
 1066XCA     C1 9609   1.826   3.395   8.739
 1066XCA     C2 9610   1.844   3.396   8.279
 1066XCA     C3 9611   1.793   3.632   7.897
 1066XCA     C4 9612   1.507   3.693   7.540
 1066XCA     C5 9613   1.224   3.735   7.180
 1066XCA     C6 9614   1.043   3.375   6.959
 1067PNCE   AM1 9615   1.932   6.689   8.096
 1067PNCE   AM2 9616   1.796   7.005   8.004
 1067PNCE   T1A 9617   1.903   6.486   7.672
 1067PNCE   C2A 9618   2.011   6.423   7.244
 1067PNCE   C3A 9619   2.016   6.649   6.861
 1067PNCE   C1B 9620   1.717   6.972   7.569
 1067PNCE   C2B 9621   1.753   7.026   7.135
 1067PNCE   C3B 9622   1.858   7.215   6.740
 1067PNCE   D4B 9623   2.135   7.330   6.387
 1067PNCE   C5B 9624   1.854   7.277   6.083
 1067PNCE   C6B 9625   1.575   6.904   6.154
 1068PNCE   AM1 9626   9.499  15.550   5.747
 1068PNCE   AM2 9627   9.723  15.342   5.614
 1068PNCE   T1A 9628   9.696  15.490   6.181
 1068PNCE   C2A 9629   9.983  15.649   6.494
 1068PNCE   C3A 9630  10.159   0.092   6.800
 1068PNCE   C1B 9631  10.083  15.552   5.821
 1068PNCE   C2B 9632  10.317  15.473   6.161
 1068PNCE   C3B 9633  10.520  15.124   6.272
 1068PNCE   D4B 9634  10.541  14.818   6.592
 1068PNCE   C5B 9635  10.183  14.739   6.805
 1068PNCE   C6B 9636   9.777  14.913   6.879
 1069PNCE   AM1 9637  14.094   1.246   4.604
 1069PNCE   AM2 9638  13.966   0.925   4.452
 1069PNCE   T1A 9639  13.868   1.187   5.047
 1069PNCE   C2A 9640  13.716   1.296   5.480
 1069PNCE   C3A 9641  13.722   1.231   5.947
 1069PNCE   C1B 9642  13.940   0.715   4.880
 1069PNCE   C2B 9643  13.705   0.506   5.229
 1069PNCE   C3B 9644  13.540   0.410   5.646
 1069PNCE   D4B 9645  13.645   0.237   6.050
 1069PNCE   C5B 9646  13.378   0.246   6.401
 1069PNCE   C6B 9647  13.281   0.519   6.731
 1070PNCE   AM1 9648   3.438   6.466   4.210
 1070PNCE   AM2 9649   3.697   6.677   4.073
 1070PNCE   T1A 9650   3.654   6.140   4.451
 1070PNCE   C2A 9651   3.858   5.982   4.816
 1070PNCE   C3A 9652   3.919   6.056   5.249
 1070PNCE   C1B 9653   3.561   6.949   4.435
 1070PNCE   C2B 9654   3.749   6.996   4.851
 1070PNCE   C3B 9655   3.592   7.043   5.234
 1070PNCE   D4B 9656   3.505   6.790   5.568
 1070PNCE   C5B 9657   3.844   6.538   5.631
 1070PNCE   C6B 9658   3.860   6.123   5.753
 1071CHOL   ROH 9659  14.777   6.658   4.944
 1071CHOL    R1 9660  14.893   6.585   5.192
 1071CHOL    R2 9661  15.153   6.648   5.259
 1071CHOL    R3 9662  15.036   6.758   5.479
 1071CHOL    R4 9663  15.305   6.686   5.567
 1071CHOL    R5 9664  15.118   6.628   5.662
 1071CHOL    C1 9665  15.284   6.811   5.952
 1071CHOL    C2 9666  15.543   6.643   6.264
 1072PNCE   AM1 9667   2.626   3.812   4.980
 1072PNCE   AM2 9668   2.598   3.488   4.965
 1072PNCE   T1A 9669   2.570   4.012   5.412
 1072PNCE   C2A 9670   2.390   4.339   5.733
 1072PNCE   C3A 9671   2.046   4.589   5.931
 1072PNCE   C1B 9672   2.775   3.521   5.410
 1072PNCE   C2B 9673   2.701   3.585   5.861
 1072PNCE   C3B 9674   2.771   3.582   6.319
 1072PNCE   D4B 9675   2.784   3.963   6.588
 1072PNCE   C5B 9676   3.004   4.364   6.446
 1072PNCE   C6B 9677   3.207   4.770   6.594
 1073XCA    COO 9678   5.736   5.889   4.425
 1073XCA     C1 9679   5.721   5.567   4.754
 1073XCA     C2 9680   5.546   5.395   5.101
 1073XCA     C3 9681   5.384   5.291   5.539
 1073XCA     C4 9682   5.262   5.346   6.003
 1073XCA     C5 9683   4.921   5.252   6.345
 1073XCA     C6 9684   4.678   4.847   6.445
 1074XCA    COO 9685   0.324  10.480   4.719
 1074XCA     C1 9686   0.333  10.603   5.143
 1074XCA     C2 9687   0.577  10.525   5.510
 1074XCA     C3 9688   0.709  10.631   5.937
 1074XCA     C4 9689   0.659  10.619   6.417
 1074XCA     C5 9690   0.520  10.902   6.770
 1074XCA     C6 9691   0.249  11.296   6.719
 1075XCA    COO 9692  11.286   9.565   3.727
 1075XCA     C1 9693  11.257   9.487   4.194
 1075XCA     C2 9694  11.410   9.228   4.547
 1075XCA     C3 9695  11.434   8.817   4.768
 1075XCA     C4 9696  11.295   8.447   5.031
 1075XCA     C5 9697  10.894   8.284   5.216
 1075XCA     C6 9698  10.715   8.104   5.583
 1076PNCE   AM1 9699   3.026   2.686   4.788
 1076PNCE   AM2 9700   3.375   2.802   4.686
 1076PNCE   T1A 9701   2.962   2.692   5.282
 1076PNCE   C2A 9702   2.926   2.672   5.739
 1076PNCE   C3A 9703   2.603   2.702   6.109
 1076PNCE   C1B 9704   3.431   2.582   5.120
 1076PNCE   C2B 9705   3.443   2.768   5.551
 1076PNCE   C3B 9706   3.388   2.751   5.991
 1076PNCE   D4B 9707   3.259   2.591   6.404
 1076PNCE   C5B 9708   2.864   2.461   6.587
 1076PNCE   C6B 9709   2.408   2.466   6.607
 1077CHOL   ROH 9710   6.756  11.883   8.821
 1077CHOL    R1 9711   6.767  11.871   8.539
 1077CHOL    R2 9712   6.886  12.069   8.386
 1077CHOL    R3 9713   7.028  11.860   8.285
 1077CHOL    R4 9714   7.003  12.049   8.062
 1077CHOL    R5 9715   6.949  11.838   8.060
 1077CHOL    C1 9716   7.205  11.843   7.777
 1077CHOL    C2 9717   7.001  11.762   7.504
 1078CHOL   ROH 9718   5.739  13.221   6.566
 1078CHOL    R1 9719   5.557  13.435   6.534
 1078CHOL    R2 9720   5.626  13.698   6.584
 1078CHOL    R3 9721   5.536  13.736   6.331
 1078CHOL    R4 9722   5.462  13.981   6.473
 1078CHOL    R5 9723   5.329  13.853   6.358
 1078CHOL    C1 9724   5.282  14.182   6.171
 1078CHOL    C2 9725   4.855  14.270   6.136
 1079XCA    COO 9726   4.303   0.866   4.879
 1079XCA     C1 9727   4.016   0.995   5.189
 1079XCA     C2 9728   3.758   1.043   5.513
 1079XCA     C3 9729   3.431   1.303   5.643
 1079XCA     C4 9730   3.009   1.376   5.780
 1079XCA     C5 9731   2.810   1.439   6.174
 1079XCA     C6 9732   2.440   1.582   6.412
 1080PNCE   AM1 9733  14.147  14.353   5.018
 1080PNCE   AM2 9734  13.889  14.233   5.249
 1080PNCE   T1A 9735  14.235  14.704   5.273
 1080PNCE   C2A 9736  14.239  14.922   5.645
 1080PNCE   C3A 9737  14.534  14.931   5.971
 1080PNCE   C1B 9738  13.947  14.409   5.697
 1080PNCE   C2B 9739  13.985  14.729   6.062
 1080PNCE   C3B 9740  13.825  14.837   6.494
 1080PNCE   D4B 9741  13.571  15.158   6.726
 1080PNCE   C5B 9742  13.151  15.046   6.921
 1080PNCE   C6B 9743  12.754  14.991   7.171
 1081CHOL   ROH 9744  14.345   2.833   8.608
 1081CHOL    R1 9745  14.504   2.838   8.374
 1081CHOL    R2 9746  14.503   2.632   8.190
 1081CHOL    R3 9747  14.445   2.832   8.015
 1081CHOL    R4 9748  14.528   2.607   7.846
 1081CHOL    R5 9749  14.609   2.809   7.842
 1081CHOL    C1 9750  14.488   2.780   7.481
 1081CHOL    C2 9751  14.624   2.878   7.104
 1082PNCE   AM1 9752   6.441   3.336   4.723
 1082PNCE   AM2 9753   6.592   3.658   4.615
 1082PNCE   T1A 9754   6.293   3.460   5.153
 1082PNCE   C2A 9755   6.367   3.634   5.571
 1082PNCE   C3A 9756   6.501   3.863   5.948
 1082PNCE   C1B 9757   6.314   3.907   4.913
 1082PNCE   C2B 9758   6.206   4.272   5.159
 1082PNCE   C3B 9759   5.873   4.469   5.380
 1082PNCE   D4B 9760   5.816   4.469   5.823
 1082PNCE   C5B 9761   6.106   4.721   6.080
 1082PNCE   C6B 9762   6.487   4.790   6.362
 1083CHOL   ROH 9763   6.580   2.969   5.791
 1083CHOL    R1 9764   6.547   3.124   6.025
 1083CHOL    R2 9765   6.760   3.235   6.161
 1083CHOL    R3 9766   6.619   3.465   6.128
 1083CHOL    R4 9767   6.805   3.523   6.347
 1083CHOL    R5 9768   6.589   3.549   6.351
 1083CHOL    C1 9769   6.699   3.906   6.425
 1083CHOL    C2 9770   6.896   4.272   6.482
 1084XCA    COO 9771  11.915  10.089   4.223
 1084XCA     C1 9772  12.084  10.012   4.666
 1084XCA     C2 9773  12.254   9.822   5.070
 1084XCA     C3 9774  11.978   9.736   5.452
 1084XCA     C4 9775  11.515   9.688   5.476
 1084XCA     C5 9776  11.265   9.337   5.644
 1084XCA     C6 9777  11.072   8.960   5.833
 1085PNCE   AM1 9778  10.705   0.536   4.577
 1085PNCE   AM2 9779  10.773   0.255   4.804
 1085PNCE   T1A 9780  10.537   0.820   4.901
 1085PNCE   C2A 9781  10.522   0.830   5.336
 1085PNCE   C3A 9782  10.608   0.937   5.770
 1085PNCE   C1B 9783  10.684   0.348   5.252
 1085PNCE   C2B 9784  10.870   0.524   5.633
 1085PNCE   C3B 9785  11.173   0.397   5.957
 1085PNCE   D4B 9786  11.204   0.502   6.383
 1085PNCE   C5B 9787  11.524   0.324   6.645
 1085PNCE   C6B 9788  11.829   0.477   6.938
 1086PNCE   AM1 9789  15.561   9.825   4.724
 1086PNCE   AM2 9790  15.782  10.088   4.885
 1086PNCE   T1A 9791  15.710   9.642   5.143
 1086PNCE   C2A 9792   0.096   9.731   5.569
 1086PNCE   C3A 9793   0.490   9.635   5.814
 1086PNCE   C1B 9794   0.247  10.114   5.248
 1086PNCE   C2B 9795   0.289  10.176   5.721
 1086PNCE   C3B 9796   0.189   9.992   6.137
 1086PNCE   D4B 9797   0.343   9.968   6.590
 1086PNCE   C5B 9798   0.753  10.150   6.636
 1086PNCE   C6B 9799   1.126  10.200   6.359
 1087CHOL   ROH 9800  15.461   5.600   4.497
 1087CHOL    R1 9801  15.599   5.473   4.708
 1087CHOL    R2 9802  15.754   5.611   4.889
 1087CHOL    R3 9803  15.597   5.486   5.072
 1087CHOL    R4 9804   0.006   5.564   5.222
 1087CHOL    R5 9805  15.750   5.365   5.210
 1087CHOL    C1 9806  15.735   5.420   5.587
 1087CHOL    C2 9807  15.646   5.279   5.970
 1088CHOL   ROH 9808   7.093   6.492   8.215
 1088CHOL    R1 9809   7.228   6.625   8.005
 1088CHOL    R2 9810   7.199   6.551   7.740
 1088CHOL    R3 9811   7.135   6.813   7.708
 1088CHOL    R4 9812   7.243   6.731   7.448
 1088CHOL    R5 9813   7.309   6.901   7.568
 1088CHOL    C1 9814   7.208   7.081   7.248
 1088CHOL    C2 9815   7.398   7.321   6.983
 1089XCA    COO 9816   9.469   5.961   4.105
 1089XCA     C1 9817   9.354   6.132   4.561
 1089XCA     C2 9818   9.606   6.243   4.962
 1089XCA     C3 9819   9.610   6.548   5.349
 1089XCA     C4 9820   9.809   6.558   5.788
 1089XCA     C5 9821   9.772   6.902   6.052
 1089XCA     C6 9822   9.339   7.162   6.042
 1090CHOL   ROH 9823   0.789  10.331   4.648
 1090CHOL    R1 9824   0.688  10.169   4.856
 1090CHOL    R2 9825   0.850  10.005   5.009
 1090CHOL    R3 9826   0.736  10.140   5.216
 1090CHOL    R4 9827   0.892   9.926   5.343
 1090CHOL    R5 9828   0.680   9.969   5.375
 1090CHOL    C1 9829   0.809  10.006   5.732
 1090CHOL    C2 9830   0.678  10.130   6.109
 1091XCA    COO 9831   8.833   3.744   5.020
 1091XCA     C1 9832   8.690   3.838   5.457
 1091XCA     C2 9833   8.608   4.146   5.740
 1091XCA     C3 9834   8.592   4.442   6.006
 1091XCA     C4 9835   8.814   4.739   6.214
 1091XCA     C5 9836   8.848   5.160   6.343
 1091XCA     C6 9837   8.935   5.498   6.626
 1092CHOL   ROH 9838   0.482  11.723   7.505
 1092CHOL    R1 9839   0.343  11.826   7.281
 1092CHOL    R2 9840   0.153  11.680   7.144
 1092CHOL    R3 9841  15.826  11.897   7.193
 1092CHOL    R4 9842  15.683  11.749   6.984
 1092CHOL    R5 9843  15.740  11.959   6.978
 1092CHOL    C1 9844  15.363  11.993   6.938
 1092CHOL    C2 9845  15.228  12.062   6.549
 1093XCA    COO 9846  10.326  12.945   5.670
 1093XCA     C1 9847  10.329  12.506   5.842
 1093XCA     C2 9848  10.351  12.200   6.172
 1093XCA     C3 9849  10.443  12.199   6.599
 1093XCA     C4 9850  10.194  12.317   6.973
 1093XCA     C5 9851   9.752  12.300   7.091
 1093XCA     C6 9852   9.293  12.280   6.969
 1094PNCE   AM1 9853   6.296   0.115   5.285
 1094PNCE   AM2 9854   6.041  15.807   5.160
 1094PNCE   T1A 9855   6.264  15.779   5.709
 1094PNCE   C2A 9856   6.404   0.006   6.143
 1094PNCE   C3A 9857   6.710  15.781   6.506
 1094PNCE   C1B 9858   5.792  15.523   5.394
 1094PNCE   C2B 9859   5.501  15.196   5.323
 1094PNCE   C3B 9860   5.159  14.972   5.474
 1094PNCE   D4B 9861   5.145  14.692   5.861
 1094PNCE   C5B 9862   5.558  14.582   6.094
 1094PNCE   C6B 9863   5.613  14.448   6.537
 1095XCA    COO 9864   3.869   2.598   4.838
 1095XCA     C1 9865   3.914   2.690   5.333
 1095XCA     C2 9866   3.917   2.843   5.783
 1095XCA     C3 9867   3.960   2.988   6.225
 1095XCA     C4 9868   4.184   3.321   6.471
 1095XCA     C5 9869   4.334   3.698   6.634
 1095XCA     C6 9870   4.576   3.784   7.004
 1096XCA    COO 9871   9.281  12.459   5.090
 1096XCA     C1 9872   9.579  12.155   5.285
 1096XCA     C2 9873   9.950  12.116   5.558
 1096XCA     C3 9874  10.014  11.888   5.921
 1096XCA     C4 9875   9.912  11.937   6.355
 1096XCA     C5 9876   9.745  11.659   6.668
 1096XCA     C6 9877   9.351  11.422   6.813
 1097PNCE   AM1 9878   3.559   9.981   3.647
 1097PNCE   AM2 9879   3.236   9.877   3.650
 1097PNCE   T1A 9880   3.773   9.979   4.011
 1097PNCE   C2A 9881   3.898   9.899   4.400
 1097PNCE   C3A 9882   4.253   9.947   4.638
 1097PNCE   C1B 9883   3.382   9.641   4.032
 1097PNCE   C2B 9884   3.382   9.236   4.227
 1097PNCE   C3B 9885   3.520   8.923   4.521
 1097PNCE   D4B 9886   3.679   8.483   4.455
 1097PNCE   C5B 9887   3.552   8.126   4.762
 1097PNCE   C6B 9888   3.811   7.882   5.015
 1098PNCE   AM1 9889   8.374   3.526   5.232
 1098PNCE   AM2 9890   8.613   3.288   5.153
 1098PNCE   T1A 9891   7.970   3.685   5.162
 1098PNCE   C2A 9892   7.655   3.900   5.411
 1098PNCE   C3A 9893   7.214   3.942   5.559
 1098PNCE   C1B 9894   8.968   3.427   5.452
 1098PNCE   C2B 9895   9.189   3.363   5.879
 1098PNCE   C3B 9896   9.495   3.501   6.219
 1098PNCE   D4B 9897   9.903   3.466   6.409
 1098PNCE   C5B 9898  10.152   3.243   6.179
 1098PNCE   C6B 9899  10.367   3.355   5.772
 1099PNCE   AM1 9900  14.757   6.307   4.331
 1099PNCE   AM2 9901  14.781   5.987   4.524
 1099PNCE   T1A 9902  14.572   6.711   4.507
 1099PNCE   C2A 9903  14.440   6.983   4.889
 1099PNCE   C3A 9904  14.655   7.015   5.315
 1099PNCE   C1B 9905  14.731   5.923   4.990
 1099PNCE   C2B 9906  14.732   6.183   5.376
 1099PNCE   C3B 9907  14.624   6.555   5.631
 1099PNCE   D4B 9908  14.315   6.838   5.817
 1099PNCE   C5B 9909  14.379   7.276   5.657
 1099PNCE   C6B 9910  14.489   7.673   5.436
 1100CHOL   ROH 9911   4.695   2.294   8.664
 1100CHOL    R1 9912   4.700   2.426   8.414
 1100CHOL    R2 9913   4.890   2.616   8.349
 1100CHOL    R3 9914   4.931   2.455   8.134
 1100CHOL    R4 9915   4.998   2.723   8.039
 1100CHOL    R5 9916   4.858   2.585   7.947
 1100CHOL    C1 9917   5.100   2.635   7.657
 1100CHOL    C2 9918   5.298   2.434   7.375
 1101XCA    COO 9919   9.213   0.570   5.418
 1101XCA     C1 9920   9.526   0.574   5.835
 1101XCA     C2 9921   9.731   0.832   6.213
 1101XCA     C3 9922   9.892   0.909   6.655
 1101XCA     C4 9923  10.076   1.192   6.977
 1101XCA     C5 9924  10.024   1.606   7.145
 1101XCA     C6 9925   9.987   2.062   7.133
 1102PNCE   AM1 9926   7.105  10.681   4.923
 1102PNCE   AM2 9927   6.849  10.668   5.153
 1102PNCE   T1A 9928   7.356  10.675   5.341
 1102PNCE   C2A 9929   7.673  10.516   5.674
 1102PNCE   C3A 9930   7.911  10.346   6.046
 1102PNCE   C1B 9931   6.758  11.019   5.455
 1102PNCE   C2B 9932   6.842  11.293   5.825
 1102PNCE   C3B 9933   6.659  11.471   6.197
 1102PNCE   D4B 9934   6.309  11.703   6.432
 1102PNCE   C5B 9935   5.881  11.891   6.543
 1102PNCE   C6B 9936   5.618  12.243   6.746
 1103CHOL   ROH 9937   1.908  14.367   8.138
 1103CHOL    R1 9938   1.970  14.197   7.920
 1103CHOL    R2 9939   1.831  14.204   7.681
 1103CHOL    R3 9940   2.079  14.238   7.575
 1103CHOL    R4 9941   1.920  14.124   7.357
 1103CHOL    R5 9942   2.109  14.048   7.433
 1103CHOL    C1 9943   2.204  14.108   7.068
 1103CHOL    C2 9944   2.235  14.298   6.677
 1104XCA    COO 9945   8.192   6.395   8.075
 1104XCA     C1 9946   8.061   6.422   7.648
 1104XCA     C2 9947   7.984   6.117   7.308
 1104XCA     C3 9948   8.237   6.101   6.925
 1104XCA     C4 9949   8.526   5.829   6.692
 1104XCA     C5 9950   8.469   5.520   6.350
 1104XCA     C6 9951   8.647   5.397   5.914
 1105CHOL   ROH 9952  12.692  14.097   8.733
 1105CHOL    R1 9953  12.707  14.182   8.463
 1105CHOL    R2 9954  12.931  14.142   8.307
 1105CHOL    R3 9955  12.752  14.025   8.138
 1105CHOL    R4 9956  12.965  14.125   7.963
 1105CHOL    R5 9957  12.752  14.166   7.944
 1105CHOL    C1 9958  12.817  14.005   7.605
 1105CHOL    C2 9959  12.898  14.118   7.209
 1106PNCE   AM1 9960   8.511  12.319   5.289
 1106PNCE   AM2 9961   8.166  12.185   5.352
 1106PNCE   T1A 9962   8.478  12.201   5.762
 1106PNCE   C2A 9963   8.455  12.009   6.205
 1106PNCE   C3A 9964   8.141  11.759   6.436
 1106PNCE   C1B 9965   7.916  11.823   5.535
 1106PNCE   C2B 9966   7.524  11.779   5.751
 1106PNCE   C3B 9967   7.333  11.427   5.910
 1106PNCE   D4B 9968   7.493  11.263   6.268
 1106PNCE   C5B 9969   7.569  11.053   6.661
 1106PNCE   C6B 9970   7.390  10.686   6.838
 1107CHOL   ROH 9971   3.714   7.586   8.327
 1107CHOL    R1 9972   3.920   7.639   8.140
 1107CHOL    R2 9973   3.983   7.464   7.935
 1107CHOL    R3 9974   3.945   7.683   7.779
 1107CHOL    R4 9975   4.098   7.499   7.611
 1107CHOL    R5 9976   4.149   7.706   7.657
 1107CHOL    C1 9977   4.129   7.725   7.276
 1107CHOL    C2 9978   4.114   7.522   6.972
 1108CHOL   ROH 9979   1.658   9.880   4.555
 1108CHOL    R1 9980   1.765   9.994   4.790
 1108CHOL    R2 9981   1.772   9.860   5.031
 1108CHOL    R3 9982   2.037   9.920   5.020
 1108CHOL    R4 9983   1.985   9.864   5.303
 1108CHOL    R5 9984   2.079  10.043   5.221
 1108CHOL    C1 9985   2.358   9.922   5.451
 1108CHOL    C2 9986   2.294   9.810   5.818
 1109CHOL   ROH 9987  11.654   1.320   8.116
 1109CHOL    R1 9988  11.860   1.146   8.032
 1109CHOL    R2 9989  11.919   0.910   8.163
 1109CHOL    R3 9990  11.886   0.802   7.916
 1109CHOL    R4 9991  12.066   0.617   8.053
 1109CHOL    R5 9992  12.100   0.712   7.861
 1109CHOL    C1 9993  12.120   0.345   7.758
 1109CHOL    C2 9994  12.057  15.774   7.755
 1110PNCE   AM1 9995  10.423   9.477   4.139
 1110PNCE   AM2 9996  10.725   9.661   3.977
 1110PNCE   T1A 9997  10.258   9.532   4.579
 1110PNCE   C2A 9998  10.047   9.700   4.950
 1110PNCE   C3A 9999   9.994   9.790   5.384
 1110PNCE   C1B10000  10.804   9.580   4.452
 1110PNCE   C2B10001  10.677   9.606   4.888
 1110PNCE   C3B10002  10.482   9.634   5.308
 1110PNCE   D4B10003  10.350   9.726   5.721
 1110PNCE   C5B10004  10.373   9.433   6.028
 1110PNCE   C6B10005  10.257   9.338   6.435
 1111XCA    COO10006   8.606  10.347   4.359
 1111XCA     C110007   8.697  10.533   4.798
 1111XCA     C210008   8.821  10.446   5.253
 1111XCA     C310009   8.768  10.299   5.699
 1111XCA     C410010   8.527  10.521   6.030
 1111XCA     C510011   8.307  10.706   6.407
 1111XCA     C610012   8.047  10.771   6.808
 1112CHOL   ROH10013   1.190  13.834   5.369
 1112CHOL    R110014   1.249  13.727   5.625
 1112CHOL    R210015   1.067  13.731   5.833
 1112CHOL    R310016   1.116  13.464   5.838
 1112CHOL    R410017   1.036  13.530   6.112
 1112CHOL    R510018   1.218  13.426   6.052
 1112CHOL    C110019   1.064  13.162   6.280
 1112CHOL    C210020   0.901  12.969   6.613
 1113CHOL   ROH10021   5.820   6.769   7.841
 1113CHOL    R110022   5.757   6.704   7.573
 1113CHOL    R210023   5.555   6.830   7.433
 1113CHOL    R310024   5.752   6.878   7.253
 1113CHOL    R410025   5.504   6.935   7.108
 1113CHOL    R510026   5.663   6.800   7.045
 1113CHOL    C110027   5.660   7.042   6.749
 1113CHOL    C210028   5.411   6.890   6.481
 1114XCA    COO10029   8.887  15.665   5.107
 1114XCA     C110030   9.087  15.426   5.467
 1114XCA     C210031   9.081  15.272   5.906
 1114XCA     C310032   9.202  15.510   6.277
 1114XCA     C410033   9.133  15.589   6.698
 1114XCA     C510034   8.870  15.470   7.043
 1114XCA     C610035   8.415  15.548   7.174
 1115CHOL   ROH10036  13.158  10.270   4.738
 1115CHOL    R110037  13.040  10.049   4.869
 1115CHOL    R210038  13.053  10.014   5.143
 1115CHOL    R310039  12.783   9.996   5.121
 1115CHOL    R410040  12.843   9.886   5.386
 1115CHOL    R510041  12.728   9.789   5.229
 1115CHOL    C110042  12.467   9.795   5.507
 1115CHOL    C210043  12.331   9.419   5.636
 1116XCA    COO10044  13.036  11.072   4.926
 1116XCA     C110045  13.002  10.872   5.328
 1116XCA     C210046  12.922  10.666   5.690
 1116XCA     C310047  12.800  10.384   6.033
 1116XCA     C410048  12.627  10.039   6.297
 1116XCA     C510049  12.311   9.782   6.491
 1116XCA     C610050  12.064   9.880   6.881
 1117PNCE   AM110051  11.642   7.926   4.481
 1117PNCE   AM210052  11.365   8.161   4.603
 1117PNCE   T1A10053  11.687   7.653   4.866
 1117PNCE   C2A10054  11.577   7.568   5.305
 1117PNCE   C3A10055  11.671   7.576   5.751
 1117PNCE   C1B10056  11.269   7.921   5.033
 1117PNCE   C2B10057  11.125   7.805   5.453
 1117PNCE   C3B10058  11.152   7.480   5.745
 1117PNCE   D4B10059  11.351   7.394   6.136
 1117PNCE   C5B10060  11.144   7.287   6.522
 1117PNCE   C6B10061  10.988   6.998   6.798
 1118PNCE   AM110062   8.614   1.038   5.241
 1118PNCE   AM210063   8.342   0.778   5.327
 1118PNCE   T1A10064   8.911   1.373   5.372
 1118PNCE   C2A10065   9.095   1.588   5.709
 1118PNCE   C3A10066   8.874   1.926   5.917
 1118PNCE   C1B10067   8.018   0.596   5.634
 1118PNCE   C2B10068   7.702   0.701   5.956
 1118PNCE   C3B10069   7.444   0.826   6.273
 1118PNCE   D4B10070   7.336   1.224   6.467
 1118PNCE   C5B10071   7.018   1.221   6.780
 1118PNCE   C6B10072   6.646   1.192   6.955
 1119PNCE   AM110073   6.822   3.326   5.070
 1119PNCE   AM210074   6.726   3.206   5.396
 1119PNCE   T1A10075   6.726   3.745   5.192
 1119PNCE   C2A10076   6.707   4.060   5.516
 1119PNCE   C3A10077   6.854   4.226   5.937
 1119PNCE   C1B10078   6.870   3.557   5.667
 1119PNCE   C2B10079   7.074   3.737   6.017
 1119PNCE   C3B10080   7.203   3.750   6.471
 1119PNCE   D4B10081   7.450   3.504   6.742
 1119PNCE   C5B10082   7.285   3.622   7.149
 1119PNCE   C6B10083   7.074   3.976   7.328
 1120PNCE   AM110084  13.895   4.122   4.599
 1120PNCE   AM210085  14.222   4.245   4.591
 1120PNCE   T1A10086  13.776   3.938   4.978
 1120PNCE   C2A10087  13.487   3.672   5.183
 1120PNCE   C3A10088  13.293   3.334   5.378
 1120PNCE   C1B10089  14.297   4.636   4.852
 1120PNCE   C2B10090  14.459   4.775   5.249
 1120PNCE   C3B10091  14.474   4.631   5.678
 1120PNCE   D4B10092  14.167   4.330   5.749
 1120PNCE   C5B10093  14.164   3.979   6.001
 1120PNCE   C6B10094  14.347   3.845   6.441
 1121PNCE   AM110095   0.961  13.195   4.966
 1121PNCE   AM210096   0.724  13.004   4.750
 1121PNCE   T1A10097   1.292  13.325   5.283
 1121PNCE   C2A10098   1.493  13.240   5.684
 1121PNCE   C3A10099   1.482  13.014   6.081
 1121PNCE   C1B10100   0.551  12.910   5.207
 1121PNCE   C2B10101   0.543  12.830   5.665
 1121PNCE   C3B10102   0.649  12.465   5.891
 1121PNCE   D4B10103   0.710  12.141   6.182
 1121PNCE   C5B10104   0.330  12.146   6.370
 1121PNCE   C6B10105  15.742  12.151   6.539
 1122CHOL   ROH10106   6.135  10.285   7.332
 1122CHOL    R110107   6.113  10.340   7.055
 1122CHOL    R210108   6.332  10.347   6.887
 1122CHOL    R310109   6.188  10.166   6.744
 1122CHOL    R410110   6.402  10.250   6.562
 1122CHOL    R510111   6.188  10.253   6.521
 1122CHOL    C110112   6.306  10.025   6.239
 1122CHOL    C210113   6.430   9.948   5.877
 1123CHOL   ROH10114   8.043   8.277   4.432
 1123CHOL    R110115   7.992   8.240   4.707
 1123CHOL    R210116   8.169   8.319   4.904
 1123CHOL    R310117   7.953   8.453   5.000
 1123CHOL    R410118   8.111   8.388   5.238
 1123CHOL    R510119   7.901   8.342   5.206
 1123CHOL    C110120   7.875   8.553   5.523
 1123CHOL    C210121   8.023   8.628   5.897
 1124XCA    COO10122  11.580   8.831   3.957
 1124XCA     C110123  11.809   8.906   4.364
 1124XCA     C210124  11.867   9.100   4.783
 1124XCA     C310125  12.026   9.316   5.174
 1124XCA     C410126  11.836   9.253   5.612
 1124XCA     C510127  11.583   9.064   5.966
 1124XCA     C610128  11.343   8.885   6.335
 1125CHOL   ROH10129   0.415   0.183   7.085
 1125CHOL    R110130   0.166   0.252   6.971
 1125CHOL    R210131   0.017   0.468   7.056
 1125CHOL    R310132   0.026   0.537   6.794
 1125CHOL    R410133  15.633   0.693   6.904
 1125CHOL    R510134  15.626   0.562   6.731
 1125CHOL    C110135  15.517   0.889   6.568
 1125CHOL    C210136  15.598   1.252   6.369
 1126PNCE   AM110137   3.955  10.332   3.658
 1126PNCE   AM210138   3.749  10.484   3.900
 1126PNCE   T1A10139   4.261  10.145   3.888
 1126PNCE   C2A10140   4.440   9.876   4.156
 1126PNCE   C3A10141   4.329   9.496   4.350
 1126PNCE   C1B10142   3.644  10.376   4.359
 1126PNCE   C2B10143   3.732  10.210   4.795
 1126PNCE   C3B10144   3.853  10.351   5.224
 1126PNCE   D4B10145   3.756  10.248   5.670
 1126PNCE   C5B10146   3.318  10.143   5.804
 1126PNCE   C6B10147   2.917  10.329   5.690
 1127CHOL   ROH10148   5.116   1.067   5.544
 1127CHOL    R110149   5.231   1.155   5.787
 1127CHOL    R210150   5.102   1.132   6.029
 1127CHOL    R310151   5.329   1.004   6.103
 1127CHOL    R410152   5.224   1.116   6.352
 1127CHOL    R510153   5.425   1.143   6.272
 1127CHOL    C110154   5.510   0.986   6.609
 1127CHOL    C210155   5.781   1.191   6.809
 1128PNCE   AM110156   6.236  14.693   4.755
 1128PNCE   AM210157   6.341  14.370   4.743
 1128PNCE   T1A10158   6.494  14.842   5.121
 1128PNCE   C2A10159   6.598  14.933   5.554
 1128PNCE   C3A10160   6.478  14.822   5.981
 1128PNCE   C1B10161   6.101  14.080   5.039
 1128PNCE   C2B10162   5.711  13.892   5.211
 1128PNCE   C3B10163   5.317  13.677   5.194
 1128PNCE   D4B10164   4.898  13.661   5.443
 1128PNCE   C5B10165   4.687  13.251   5.392
 1128PNCE   C6B10166   4.858  12.868   5.630
 1129CHOL   ROH10167  14.993   6.287   4.875
 1129CHOL    R110168  15.134   6.175   5.093
 1129CHOL    R210169  15.363   6.289   5.197
 1129CHOL    R310170  15.224   6.278   5.431
 1129CHOL    R410171  15.501   6.326   5.512
 1129CHOL    R510172  15.372   6.166   5.582
 1129CHOL    C110173  15.452   6.337   5.914
 1129CHOL    C210174  15.733   6.141   6.159
 1130PNCE   AM110175   6.480  12.898   4.629
 1130PNCE   AM210176   6.640  12.621   4.768
 1130PNCE   T1A10177   6.134  13.041   4.881
 1130PNCE   C2A10178   5.961  13.375   5.103
 1130PNCE   C3A10179   6.143  13.632   5.390
 1130PNCE   C1B10180   6.404  12.681   5.154
 1130PNCE   C2B10181   6.080  12.633   5.444
 1130PNCE   C3B10182   5.786  12.660   5.777
 1130PNCE   D4B10183   5.712  12.899   6.153
 1130PNCE   C5B10184   5.470  12.750   6.508
 1130PNCE   C6B10185   5.469  12.927   6.903
 1131PNCE   AM110186   4.433   7.338   3.897
 1131PNCE   AM210187   4.682   7.487   4.104
 1131PNCE   T1A10188   4.185   7.683   4.100
 1131PNCE   C2A10189   4.196   8.103   4.268
 1131PNCE   C3A10190   4.066   8.177   4.673
 1131PNCE   C1B10191   4.517   7.759   4.482
 1131PNCE   C2B10192   4.386   7.815   4.922
 1131PNCE   C3B10193   4.280   7.771   5.374
 1131PNCE   D4B10194   4.221   7.845   5.825
 1131PNCE   C5B10195   4.557   7.962   6.137
 1131PNCE   C6B10196   5.000   7.977   6.128
 1132PNCE   AM110197   8.262   2.614   4.981
 1132PNCE   AM210198   7.948   2.441   4.896
 1132PNCE   T1A10199   8.470   2.672   5.396
 1132PNCE   C2A10200   8.458   2.733   5.846
 1132PNCE   C3A10201   8.316   2.967   6.192
 1132PNCE   C1B10202   7.953   2.359   5.366
 1132PNCE   C2B10203   7.981   2.559   5.767
 1132PNCE   C3B10204   7.914   2.673   6.174
 1132PNCE   D4B10205   7.901   2.560   6.594
 1132PNCE   C5B10206   7.593   2.249   6.606
 1132PNCE   C6B10207   7.484   1.930   6.851
 1133PNCE   AM110208   9.111   4.998   4.423
 1133PNCE   AM210209   8.976   5.263   4.250
 1133PNCE   T1A10210   9.302   5.238   4.782
 1133PNCE   C2A10211   9.333   5.350   5.231
 1133PNCE   C3A10212   9.136   5.179   5.629
 1133PNCE   C1B10213   8.667   5.278   4.572
 1133PNCE   C2B10214   8.485   5.220   4.970
 1133PNCE   C3B10215   8.613   5.199   5.416
 1133PNCE   D4B10216   8.582   4.915   5.783
 1133PNCE   C5B10217   8.359   5.051   6.164
 1133PNCE   C6B10218   8.363   5.067   6.625
 1134PNCE   AM110219   8.571  13.106   5.154
 1134PNCE   AM210220   8.205  13.182   5.137
 1134PNCE   T1A10221   8.452  13.299   5.582
 1134PNCE   C2A10222   8.516  13.340   6.039
 1134PNCE   C3A10223   8.480  13.402   6.517
 1134PNCE   C1B10224   7.907  13.369   5.429
 1134PNCE   C2B10225   7.721  13.268   5.853
 1134PNCE   C3B10226   7.423  13.202   6.200
 1134PNCE   D4B10227   7.024  13.094   6.016
 1134PNCE   C5B10228   6.626  13.027   6.180
 1134PNCE   C6B10229   6.471  12.999   6.597
 1135CHOL   ROH10230   7.278   0.987   5.842
 1135CHOL    R110231   7.085   1.038   6.043
 1135CHOL    R210232   6.868   0.873   6.086
 1135CHOL    R310233   6.963   0.868   6.341
 1135CHOL    R410234   6.679   0.798   6.365
 1135CHOL    R510235   6.783   0.957   6.473
 1135CHOL    C110236   6.657   0.750   6.767
 1135CHOL    C210237   6.320   0.817   6.892
 1136PNCE   AM110238   6.070   0.886   5.351
 1136PNCE   AM210239   5.864   0.605   5.235
 1136PNCE   T1A10240   6.055   0.764   5.762
 1136PNCE   C2A10241   6.222   0.540   6.128
 1136PNCE   C3A10242   6.405   0.409   6.516
 1136PNCE   C1B10243   5.870   0.298   5.578
 1136PNCE   C2B10244   5.835   0.168   6.000
 1136PNCE   C3B10245   5.936   0.184   6.410
 1136PNCE   D4B10246   6.184  15.703   6.582
 1136PNCE   C5B10247   6.187  15.772   6.994
 1136PNCE   C6B10248   5.928  15.668   7.296
 1137CHOL   ROH10249   2.304   9.737   7.068
 1137CHOL    R110250   2.542   9.720   6.916
 1137CHOL    R210251   2.767   9.588   7.005
 1137CHOL    R310252   2.744   9.456   6.768
 1137CHOL    R410253   3.029   9.438   6.836
 1137CHOL    R510254   2.945   9.512   6.650
 1137CHOL    C110255   3.160   9.228   6.516
 1137CHOL    C210256   3.374   9.179   6.244
 1138PNCE   AM110257  12.570   6.449   4.477
 1138PNCE   AM210258  12.510   6.068   4.514
 1138PNCE   T1A10259  12.728   6.395   4.920
 1138PNCE   C2A10260  12.684   6.332   5.387
 1138PNCE   C3A10261  12.797   6.501   5.821
 1138PNCE   C1B10262  12.499   5.937   4.979
 1138PNCE   C2B10263  12.370   5.840   5.414
 1138PNCE   C3B10264  11.972   5.812   5.653
 1138PNCE   D4B10265  11.612   5.888   5.913
 1138PNCE   C5B10266  11.452   5.531   6.147
 1138PNCE   C6B10267  11.108   5.235   6.210
 1139PNCE   AM110268   7.266   6.976   8.362
 1139PNCE   AM210269   6.926   6.953   8.353
 1139PNCE   T1A10270   7.361   7.132   7.982
 1139PNCE   C2A10271   7.459   7.452   7.704
 1139PNCE   C3A10272   7.360   7.700   7.359
 1139PNCE   C1B10273   6.777   7.122   7.986
 1139PNCE   C2B10274   6.939   7.250   7.599
 1139PNCE   C3B10275   6.933   7.458   7.180
 1139PNCE   D4B10276   7.039   7.870   7.002
 1139PNCE   C5B10277   7.336   7.943   6.678
 1139PNCE   C6B10278   7.535   8.343   6.683
 1140XCA    COO10279  12.128   2.224   8.514
 1140XCA     C110280  12.167   2.388   8.072
 1140XCA     C210281  12.225   2.459   7.623
 1140XCA     C310282  12.173   2.444   7.164
 1140XCA     C410283  12.162   2.456   6.708
 1140XCA     C510284  12.346   2.202   6.365
 1140XCA     C610285  12.509   1.802   6.204
 1141CHOL   ROH10286   3.976  12.810   6.620
 1141CHOL    R110287   3.899  13.079   6.581
 1141CHOL    R210288   3.848  13.185   6.332
 1141CHOL    R310289   3.611  13.256   6.446
 1141CHOL    R410290   3.653  13.453   6.233
 1141CHOL    R510291   3.613  13.495   6.443
 1141CHOL    C110292   3.318  13.676   6.283
 1141CHOL    C210293   3.493  13.990   6.094
 1142PNCE   AM110294  11.015  14.609   5.175
 1142PNCE   AM210295  11.352  14.654   5.148
 1142PNCE   T1A10296  10.858  14.536   5.589
 1142PNCE   C2A10297  10.601  14.544   5.945
 1142PNCE   C3A10298  10.252  14.682   6.193
 1142PNCE   C1B10299  11.272  14.837   5.571
 1142PNCE   C2B10300  11.500  14.944   5.930
 1142PNCE   C3B10301  11.487  15.304   6.212
 1142PNCE   D4B10302  11.518  15.385   6.658
 1142PNCE   C5B10303  11.542  15.021   6.878
 1142PNCE   C6B10304  11.871  14.710   6.900
 1143PNCE   AM110305  12.261   0.730   4.371
 1143PNCE   AM210306  12.254   0.380   4.466
 1143PNCE   T1A10307  12.400   0.810   4.845
 1143PNCE   C2A10308  12.474   0.894   5.342
 1143PNCE   C3A10309  12.849   1.063   5.611
 1143PNCE   C1B10310  12.510   0.294   4.860
 1143PNCE   C2B10311  12.767   0.018   5.132
 1143PNCE   C3B10312  12.916   0.047   5.549
 1143PNCE   D4B10313  12.725   0.043   5.957
 1143PNCE   C5B10314  12.608   0.384   6.233
 1143PNCE   C6B10315  12.786   0.476   6.612
 1144CHOL   ROH10316   6.071   7.678   7.538
 1144CHOL    R110317   6.150   7.886   7.363
 1144CHOL    R210318   6.092   7.884   7.093
 1144CHOL    R310319   5.983   8.127   7.147
 1144CHOL    R410320   6.048   8.136   6.861
 1144CHOL    R510321   6.110   8.280   7.013
 1144CHOL    C110322   5.920   8.512   6.777
 1144CHOL    C210323   5.934   8.813   6.480
 1145CHOL   ROH10324   9.050   4.490   8.207
 1145CHOL    R110325   9.090   4.604   7.951
 1145CHOL    R210326   9.127   4.452   7.724
 1145CHOL    R310327   8.920   4.600   7.630
 1145CHOL    R410328   9.022   4.457   7.395
 1145CHOL    R510329   8.992   4.672   7.413
 1145CHOL    C110330   8.766   4.600   7.115
 1145CHOL    C210331   8.746   4.520   6.666
 1146PNCE   AM110332   1.984  14.357   5.423
 1146PNCE   AM210333   1.792  14.591   5.278
 1146PNCE   T1A10334   1.827  14.335   5.867
 1146PNCE   C2A10335   1.695  14.322   6.325
 1146PNCE   C3A10336   1.401  14.360   6.705
 1146PNCE   C1B10337   1.506  14.616   5.583
 1146PNCE   C2B10338   1.431  14.650   6.016
 1146PNCE   C3B10339   1.650  14.873   6.367
 1146PNCE   D4B10340   1.929  14.699   6.683
 1146PNCE   C5B10341   1.831  14.427   6.999
 1146PNCE   C6B10342   1.644  14.512   7.386
 1147CHOL   ROH10343   8.773  13.003   5.747
 1147CHOL    R110344   8.698  12.873   5.987
 1147CHOL    R210345   8.801  12.944   6.233
 1147CHOL    R310346   8.538  12.966   6.300
 1147CHOL    R410347   8.680  12.964   6.557
 1147CHOL    R510348   8.516  12.834   6.498
 1147CHOL    C110349   8.363  12.997   6.808
 1147CHOL    C210350   8.558  12.867   7.092
 1148CHOL   ROH10351  13.950   6.412   4.851
 1148CHOL    R110352  13.932   6.325   5.119
 1148CHOL    R210353  13.898   6.500   5.330
 1148CHOL    R310354  13.685   6.341   5.386
 1148CHOL    R410355  13.769   6.448   5.646
 1148CHOL    R510356  13.741   6.238   5.595
 1148CHOL    C110357  13.493   6.267   5.883
 1148CHOL    C210358  13.145   6.252   6.093
 1149XCA    COO10359  12.987   4.142   4.563
 1149XCA     C110360  13.259   4.084   4.936
 1149XCA     C210361  13.486   4.195   5.322
 1149XCA     C310362  13.649   4.290   5.712
 1149XCA     C410363  13.791   4.378   6.117
 1149XCA     C510364  14.198   4.392   6.303
 1149XCA     C610365  14.584   4.231   6.205
 1150PNCE   AM110366   1.231   9.979   4.195
 1150PNCE   AM210367   1.551   9.946   4.096
 1150PNCE   T1A10368   1.153   9.958   4.637
 1150PNCE   C2A10369   1.299   9.885   5.063
 1150PNCE   C3A10370   1.470   9.748   5.455
 1150PNCE   C1B10371   1.589   9.475   4.151
 1150PNCE   C2B10372   1.931   9.187   4.286
 1150PNCE   C3B10373   2.371   9.130   4.449
 1150PNCE   D4B10374   2.726   8.928   4.223
 1150PNCE   C5B10375   3.034   8.688   4.474
 1150PNCE   C6B10376   3.279   8.550   4.804
 1151XCA    COO10377  13.190   9.135   3.873
 1151XCA     C110378  13.238   9.087   4.342
 1151XCA     C210379  13.252   8.959   4.766
 1151XCA     C310380  13.404   8.938   5.171
 1151XCA     C410381  13.476   9.013   5.606
 1151XCA     C510382  13.730   9.212   5.915
 1151XCA     C610383  13.826   9.416   6.299
 1152CHOL   ROH10384   4.291  10.478   7.459
 1152CHOL    R110385   4.266  10.356   7.205
 1152CHOL    R210386   4.137  10.478   6.993
 1152CHOL    R310387   4.371  10.429   6.864
 1152CHOL    R410388   4.175  10.468   6.650
 1152CHOL    R510389   4.308  10.297   6.675
 1152CHOL    C110390   4.417  10.416   6.329
 1152CHOL    C210391   4.745  10.285   6.043
 1153PNCE   AM110392   3.299   4.372   4.692
 1153PNCE   AM210393   3.160   4.032   4.694
 1153PNCE   T1A10394   3.237   4.440   5.158
 1153PNCE   C2A10395   3.258   4.616   5.596
 1153PNCE   C3A10396   3.282   4.715   6.091
 1153PNCE   C1B10397   3.537   3.986   4.975
 1153PNCE   C2B10398   3.891   4.172   5.212
 1153PNCE   C3B10399   3.933   4.261   5.643
 1153PNCE   D4B10400   4.103   4.122   6.017
 1153PNCE   C5B10401   4.180   3.699   6.083
 1153PNCE   C6B10402   4.048   3.343   5.815
 1154XCA    COO10403  14.312   3.202   4.715
 1154XCA     C110404  14.191   2.983   5.099
 1154XCA     C210405  14.119   2.789   5.498
 1154XCA     C310406  14.139   2.584   5.889
 1154XCA     C410407  13.900   2.458   6.251
 1154XCA     C510408  13.924   2.536   6.702
 1154XCA     C610409  14.301   2.490   6.973
 1155CHOL   ROH10410  10.347   4.977   8.117
 1155CHOL    R110411  10.441   5.055   7.861
 1155CHOL    R210412  10.597   4.891   7.704
 1155CHOL    R310413  10.404   4.938   7.519
 1155CHOL    R410414  10.630   4.834   7.364
 1155CHOL    R510415  10.523   5.020   7.328
 1155CHOL    C110416  10.468   4.845   6.993
 1155CHOL    C210417  10.177   4.894   6.697
 1156CHOL   ROH10418   0.141  15.600   4.622
 1156CHOL    R110419   0.029  15.562   4.879
 1156CHOL    R210420   0.142  15.666   5.108
 1156CHOL    R310421  15.724  15.773   5.143
 1156CHOL    R410422   0.022  15.793   5.407
 1156CHOL    R510423  15.658  15.702   5.362
 1156CHOL    C110424  15.549   0.138   5.613
 1156CHOL    C210425  15.308   0.297   5.982
 1157CHOL   ROH10426   9.123   5.417   6.068
 1157CHOL    R110427   9.052   5.685   6.120
 1157CHOL    R210428   8.821   5.800   6.021
 1157CHOL    R310429   8.776   5.859   6.283
 1157CHOL    R410430   8.587   6.028   6.135
 1157CHOL    R510431   8.732   6.094   6.284
 1157CHOL    C110432   8.409   6.216   6.447
 1157CHOL    C210433   8.341   6.573   6.352
 1158PNCE   AM110434   3.639  11.212   3.981
 1158PNCE   AM210435   3.524  11.509   4.102
 1158PNCE   T1A10436   3.758  10.879   4.282
 1158PNCE   C2A10437   3.882  10.695   4.686
 1158PNCE   C3A10438   4.240  10.492   4.886
 1158PNCE   C1B10439   3.383  11.690   4.492
 1158PNCE   C2B10440   3.378  11.846   4.887
 1158PNCE   C3B10441   3.264  11.937   5.304
 1158PNCE   D4B10442   3.338  12.260   5.611
 1158PNCE   C5B10443   3.170  12.260   6.031
 1158PNCE   C6B10444   3.118  12.609   6.348
 1159CHOL   ROH10445   7.038  10.207   5.252
 1159CHOL    R110446   7.234  10.232   5.454
 1159CHOL    R210447   7.179  10.340   5.703
 1159CHOL    R310448   7.284  10.106   5.792
 1159CHOL    R410449   7.327  10.295   6.011
 1159CHOL    R510450   7.479  10.171   5.915
 1159CHOL    C110451   7.512  10.049   6.275
 1159CHOL    C210452   7.838   9.944   6.420
 1160XCA    COO10453   6.126  13.311   4.447
 1160XCA     C110454   5.761  13.512   4.258
 1160XCA     C210455   5.388  13.667   4.402
 1160XCA     C310456   5.126  13.635   4.705
 1160XCA     C410457   4.888  13.832   4.966
 1160XCA     C510458   4.702  14.200   4.952
 1160XCA     C610459   4.805  14.608   4.866
 1161CHOL   ROH10460  11.146   0.849   5.855
 1161CHOL    R110461  11.085   1.111   5.767
 1161CHOL    R210462  11.225   1.333   5.853
 1161CHOL    R310463  11.258   1.376   5.587
 1161CHOL    R410464  11.286   1.641   5.709
 1161CHOL    R510465  11.152   1.587   5.547
 1161CHOL    C110466  11.354   1.861   5.375
 1161CHOL    C210467  11.700   2.030   5.202
 1162CHOL   ROH10468   0.370   2.165   4.899
 1162CHOL    R110469   0.347   2.225   5.175
 1162CHOL    R210470   0.105   2.284   5.295
 1162CHOL    R310471   0.177   2.084   5.464
 1162CHOL    R410472  15.804   2.235   5.611
 1162CHOL    R510473   0.174   2.185   5.681
 1162CHOL    C110474  15.795   2.019   5.954
 1162CHOL    C210475   0.094   2.080   6.351
 1163CHOL   ROH10476   9.382   9.451   6.039
 1163CHOL    R110477   9.150   9.438   6.200
 1163CHOL    R210478   8.902   9.522   6.112
 1163CHOL    R310479   8.827   9.272   6.186
 1163CHOL    R410480   8.591   9.438   6.235
 1163CHOL    R510481   8.688   9.306   6.378
 1163CHOL    C110482   8.338   9.154   6.377
 1163CHOL    C210483   8.138   8.821   6.371
 1164CHOL   ROH10484  10.551   9.353   8.234
 1164CHOL    R110485  10.513   9.450   7.971
 1164CHOL    R210486  10.683   9.633   7.854
 1164CHOL    R310487  10.698   9.445   7.658
 1164CHOL    R410488  10.790   9.693   7.530
 1164CHOL    R510489  10.632   9.560   7.459
 1164CHOL    C110490  10.866   9.551   7.158
 1164CHOL    C210491  10.612   9.533   6.844
 1165CHOL   ROH10492   7.475   4.661   6.128
 1165CHOL    R110493   7.387   4.926   6.080
 1165CHOL    R210494   7.388   5.121   6.276
 1165CHOL    R310495   7.533   5.259   6.092
 1165CHOL    R410496   7.486   5.451   6.309
 1165CHOL    R510497   7.441   5.480   6.097
 1165CHOL    C110498   7.678   5.773   6.155
 1165CHOL    C210499   7.586   6.072   6.373
 1166PNCE   AM110500  12.098   5.389   4.314
 1166PNCE   AM210501  12.129   5.687   4.471
 1166PNCE   T1A10502  12.139   5.266   4.793
 1166PNCE   C2A10503  12.148   4.977   5.169
 1166PNCE   C3A10504  11.929   4.867   5.561
 1166PNCE   C1B10505  11.994   5.901   4.806
 1166PNCE   C2B10506  11.846   5.849   5.177
 1166PNCE   C3B10507  11.489   5.700   5.432
 1166PNCE   D4B10508  11.138   5.716   5.730
 1166PNCE   C5B10509  11.144   6.126   5.959
 1166PNCE   C6B10510  11.264   6.542   5.895
 1167XCA    COO10511   1.553  11.344   4.743
 1167XCA     C110512   1.544  11.019   5.061
 1167XCA     C210513   1.457  10.705   5.373
 1167XCA     C310514   1.661  10.593   5.757
 1167XCA     C410515   1.919  10.517   6.129
 1167XCA     C510516   2.205  10.610   6.474
 1167XCA     C610517   2.234  10.987   6.659
 1168PNCE   AM110518   1.317  10.436   4.537
 1168PNCE   AM210519   1.180  10.712   4.729
 1168PNCE   T1A10520   1.481  10.354   4.963
 1168PNCE   C2A10521   1.660  10.220   5.365
 1168PNCE   C3A10522   1.819  10.080   5.783
 1168PNCE   C1B10523   1.040  10.947   5.122
 1168PNCE   C2B10524   0.858  10.963   5.546
 1168PNCE   C3B10525   0.944  11.225   5.932
 1168PNCE   D4B10526   0.920  11.700   6.004
 1168PNCE   C5B10527   0.753  12.005   5.680
 1168PNCE   C6B10528   0.891  12.029   5.263
 1169PNCE   AM110529   4.690   1.011   5.327
 1169PNCE   AM210530   4.741   1.348   5.351
 1169PNCE   T1A10531   4.353   1.058   5.576
 1169PNCE   C2A10532   4.117   0.943   5.875
 1169PNCE   C3A10533   3.704   1.055   6.015
 1169PNCE   C1B10534   4.517   1.546   5.710
 1169PNCE   C2B10535   4.469   1.615   6.136
 1169PNCE   C3B10536   4.374   1.645   6.557
 1169PNCE   D4B10537   3.989   1.724   6.786
 1169PNCE   C5B10538   3.678   1.383   6.908
 1169PNCE   C6B10539   3.569   0.944   7.067
 1170XCA    COO10540   5.454   9.826   4.246
 1170XCA     C110541   5.209   9.980   4.615
 1170XCA     C210542   5.044   9.822   5.003
 1170XCA     C310543   4.718   9.671   5.268
 1170XCA     C410544   4.312   9.655   5.266
 1170XCA     C510545   3.972   9.858   5.406
 1170XCA     C610546   3.641   9.746   5.621
 1171CHOL   ROH10547  14.061   8.952   3.890
 1171CHOL    R110548  14.012   8.706   4.021
 1171CHOL    R210549  14.101   8.654   4.277
 1171CHOL    R310550  13.839   8.596   4.321
 1171CHOL    R410551  13.980   8.485   4.553
 1171CHOL    R510552  13.842   8.379   4.422
 1171CHOL    C110553  13.664   8.333   4.756
 1171CHOL    C210554  13.528   8.433   5.117
 1172CHOL   ROH10555   1.954   7.465   4.572
 1172CHOL    R110556   1.875   7.476   4.843
 1172CHOL    R210557   1.679   7.312   4.948
 1172CHOL    R310558   1.873   7.250   5.128
 1172CHOL    R410559   1.622   7.197   5.269
 1172CHOL    R510560   1.785   7.323   5.338
 1172CHOL    C110561   1.770   7.072   5.625
 1172CHOL    C210562   2.006   6.850   5.864
 1173PNCE   AM110563  12.846  13.668   5.008
 1173PNCE   AM210564  13.088  13.856   4.830
 1173PNCE   T1A10565  12.963  13.740   5.448
 1173PNCE   C2A10566  13.003  13.776   5.901
 1173PNCE   C3A10567  13.079  13.863   6.343
 1173PNCE   C1B10568  12.970  14.178   5.167
 1173PNCE   C2B10569  13.049  14.240   5.619
 1173PNCE   C3B10570  13.062  14.311   6.066
 1173PNCE   D4B10571  12.802  14.426   6.439
 1173PNCE   C5B10572  12.676  14.067   6.718
 1173PNCE   C6B10573  12.613  13.730   7.036
 1174CHOL   ROH10574   8.847  13.030   9.159
 1174CHOL    R110575   8.802  13.275   9.025
 1174CHOL    R210576   8.796  13.295   8.749
 1174CHOL    R310577   8.554  13.410   8.795
 1174CHOL    R410578   8.663  13.556   8.566
 1174CHOL    R510579   8.589  13.643   8.752
 1174CHOL    C110580   8.359  13.817   8.503
 1174CHOL    C210581   8.067  13.953   8.258
 1175CHOL   ROH10582   8.434   1.181   6.012
 1175CHOL    R110583   8.371   1.248   6.280
 1175CHOL    R210584   8.431   1.082   6.492
 1175CHOL    R310585   8.555   1.303   6.589
 1175CHOL    R410586   8.508   1.136   6.825
 1175CHOL    R510587   8.449   1.344   6.800
 1175CHOL    C110588   8.670   1.375   7.109
 1175CHOL    C210589   8.759   1.300   7.480
 1176XCA    COO10590   0.961  11.786   4.819
 1176XCA     C110591   1.174  11.460   5.114
 1176XCA     C210592   1.298  11.221   5.519
 1176XCA     C310593   1.489  11.072   5.934
 1176XCA     C410594   1.823  11.160   6.266
 1176XCA     C510595   2.217  11.388   6.366
 1176XCA     C610596   2.422  11.793   6.459
 1177XCA    COO10597  13.274   5.120   5.001
 1177XCA     C110598  12.957   5.077   5.327
 1177XCA     C210599  12.549   4.993   5.498
 1177XCA     C310600  12.308   5.014   5.875
 1177XCA     C410601  12.039   4.927   6.203
 1177XCA     C510602  12.017   4.957   6.646
 1177XCA     C610603  11.942   5.195   7.026
 1178XCA    COO10604  14.387  12.106   4.917
 1178XCA     C110605  14.421  11.784   5.228
 1178XCA     C210606  14.744  11.578   5.463
 1178XCA     C310607  14.748  11.355   5.854
 1178XCA     C410608  14.791  11.308   6.297
 1178XCA     C510609  14.746  10.967   6.602
 1178XCA     C610610  14.820  10.891   7.044
 1179XCA    COO10611   0.685   8.710   4.571
 1179XCA     C110612   0.398   8.665   4.951
 1179XCA     C210613   0.386   8.808   5.401
 1179XCA     C310614   0.580   9.082   5.679
 1179XCA     C410615   0.854   9.207   6.000
 1179XCA     C510616   1.173   9.138   6.321
 1179XCA     C610617   1.282   9.290   6.728
 1180CHOL   ROH10618  12.941   3.692   4.706
 1180CHOL    R110619  13.134   3.568   4.871
 1180CHOL    R210620  13.141   3.295   4.914
 1180CHOL    R310621  13.398   3.321   4.831
 1180CHOL    R410622  13.382   3.049   4.937
 1180CHOL    R510623  13.526   3.202   4.994
 1180CHOL    C110624  13.764   2.930   4.873
 1180CHOL    C210625  14.061   2.754   4.634
 1181PNCE   AM110626  13.787   0.209   8.111
 1181PNCE   AM210627  13.685  15.805   8.381
 1181PNCE   T1A10628  13.544   0.172   7.704
 1181PNCE   C2A10629  13.238   0.118   7.335
 1181PNCE   C3A10630  13.053   0.094   6.906
 1181PNCE   C1B10631  13.311  15.590   8.194
 1181PNCE   C2B10632  13.036  15.560   7.815
 1181PNCE   C3B10633  12.896  15.481   7.376
 1181PNCE   D4B10634  12.819  15.439   6.898
 1181PNCE   C5B10635  12.439  15.185   6.801
 1181PNCE   C6B10636  11.999  15.188   6.685
 1182CHOL   ROH10637   0.853   3.285   5.649
 1182CHOL    R110638   0.970   3.486   5.810
 1182CHOL    R210639   0.830   3.617   6.009
 1182CHOL    R310640   1.037   3.534   6.165
 1182CHOL    R410641   0.909   3.747   6.320
 1182CHOL    R510642   1.120   3.735   6.266
 1182CHOL    C110643   1.150   3.745   6.646
 1182CHOL    C210644   1.394   4.051   6.769
 1183PNCE   AM110645   6.077   2.699   5.098
 1183PNCE   AM210646   6.021   3.041   5.033
 1183PNCE   T1A10647   5.758   2.863   5.441
 1183PNCE   C2A10648   5.554   3.168   5.717
 1183PNCE   C3A10649   5.449   3.488   6.035
 1183PNCE   C1B10650   6.220   3.072   5.481
 1183PNCE   C2B10651   6.104   2.921   5.912
 1183PNCE   C3B10652   5.777   3.097   6.180
 1183PNCE   D4B10653   5.740   3.407   6.483
 1183PNCE   C5B10654   6.041   3.448   6.763
 1183PNCE   C6B10655   6.439   3.591   6.824
 1184PNCE   AM110656  13.627   1.444   4.626
 1184PNCE   AM210657  13.536   1.131   4.648
 1184PNCE   T1A10658  13.588   1.607   5.036
 1184PNCE   C2A10659  13.464   1.789   5.404
 1184PNCE   C3A10660  13.066   1.991   5.546
 1184PNCE   C1B10661  13.325   0.927   5.017
 1184PNCE   C2B10662  13.370   0.880   5.463
 1184PNCE   C3B10663  13.279   0.948   5.882
 1184PNCE   D4B10664  13.256   1.253   6.237
 1184PNCE   C5B10665  13.538   1.568   6.392
 1184PNCE   C6B10666  13.754   1.978   6.436
 1185PNCE   AM110667  13.939  13.559   4.814
 1185PNCE   AM210668  13.667  13.363   4.778
 1185PNCE   T1A10669  13.826  13.715   5.222
 1185PNCE   C2A10670  14.022  13.701   5.618
 1185PNCE   C3A10671  14.141  13.922   5.953
 1185PNCE   C1B10672  13.710  13.210   5.193
 1185PNCE   C2B10673  13.556  12.889   5.444
 1185PNCE   C3B10674  13.555  12.974   5.862
 1185PNCE   D4B10675  13.826  13.016   6.209
 1185PNCE   C5B10676  13.810  13.255   6.611
 1185PNCE   C6B10677  14.129  13.326   6.965
 1186XCA    COO10678  12.127   3.421   4.696
 1186XCA     C110679  12.113   3.455   5.208
 1186XCA     C210680  11.947   3.327   5.643
 1186XCA     C310681  11.902   3.458   6.070
 1186XCA     C410682  11.967   3.523   6.506
 1186XCA     C510683  12.219   3.489   6.884
 1186XCA     C610684  12.644   3.638   6.946
 1187CHOL   ROH10685   7.005   5.299   8.149
 1187CHOL    R110686   6.873   5.302   7.898
 1187CHOL    R210687   7.009   5.323   7.659
 1187CHOL    R310688   6.871   5.097   7.598
 1187CHOL    R410689   6.932   5.219   7.339
 1187CHOL    R510690   6.735   5.159   7.411
 1187CHOL    C110691   6.757   4.946   7.095
 1187CHOL    C210692   6.648   5.109   6.738
 1188XCA    COO10693  12.598  13.213   4.847
 1188XCA     C110694  12.600  12.935   5.242
 1188XCA     C210695  12.704  12.920   5.702
 1188XCA     C310696  12.721  12.993   6.177
 1188XCA     C410697  12.967  12.976   6.596
 1188XCA     C510698  13.316  13.128   6.894
 1188XCA     C610699  13.676  13.077   7.184
 1189XCA    COO10700   3.505   9.036   8.398
 1189XCA     C110701   3.301   8.949   7.985
 1189XCA     C210702   3.085   8.812   7.618
 1189XCA     C310703   2.693   8.730   7.421
 1189XCA     C410704   2.483   8.521   7.089
 1189XCA     C510705   2.421   8.309   6.688
 1189XCA     C610706   2.243   8.198   6.283
 1190PNCE   AM110707   0.155  11.557   4.700
 1190PNCE   AM210708   0.354  11.827   4.864
 1190PNCE   T1A10709  15.799  11.544   5.115
 1190PNCE   C2A10710  15.548  11.266   5.377
 1190PNCE   C3A10711  15.350  10.842   5.352
 1190PNCE   C1B10712   0.402  11.773   5.355
 1190PNCE   C2B10713   0.397  11.674   5.831
 1190PNCE   C3B10714   0.314  11.613   6.274
 1190PNCE   D4B10715   0.331  11.781   6.725
 1190PNCE   C5B10716   0.317  12.195   6.884
 1190PNCE   C6B10717   0.203  12.382   7.262
 1191PNCE   AM110718  12.632  12.412   9.137
 1191PNCE   AM210719  12.607  12.739   9.361
 1191PNCE   T1A10720  12.449  12.415   8.657
 1191PNCE   C2A10721  12.512  12.524   8.164
 1191PNCE   C3A10722  12.558  12.743   7.745
 1191PNCE   C1B10723  12.807  12.878   8.954
 1191PNCE   C2B10724  13.185  12.892   8.700
 1191PNCE   C3B10725  13.558  12.702   8.551
 1191PNCE   D4B10726  14.018  12.683   8.617
 1191PNCE   C5B10727  14.218  12.283   8.598
 1191PNCE   C6B10728  14.411  12.100   8.961
 1192CHOL   ROH10729   6.370   9.374   8.307
 1192CHOL    R110730   6.235   9.306   8.068
 1192CHOL    R210731   6.364   9.279   7.826
 1192CHOL    R310732   6.246   9.034   7.826
 1192CHOL    R410733   6.329   9.077   7.548
 1192CHOL    R510734   6.129   9.024   7.617
 1192CHOL    C110735   6.198   8.728   7.386
 1192CHOL    C210736   6.387   8.688   7.039
 1193PNCE   AM110737  12.656   4.557   4.524
 1193PNCE   AM210738  12.954   4.630   4.721
 1193PNCE   T1A10739  12.545   4.269   4.857
 1193PNCE   C2A10740  12.791   4.095   5.186
 1193PNCE   C3A10741  12.914   3.693   5.331
 1193PNCE   C1B10742  12.618   4.749   5.023
 1193PNCE   C2B10743  12.456   4.503   5.359
 1193PNCE   C3B10744  12.543   4.539   5.823
 1193PNCE   D4B10745  12.668   4.227   6.156
 1193PNCE   C5B10746  12.831   3.797   5.994
 1193PNCE   C6B10747  12.959   3.395   5.771
 1194CHOL   ROH10748   0.007  14.992   5.594
 1194CHOL    R110749  15.796  15.045   5.869
 1194CHOL    R210750  15.569  15.169   5.965
 1194CHOL    R310751  15.556  14.949   6.125
 1194CHOL    R410752  15.397  15.153   6.265
 1194CHOL    R510753  15.563  15.037   6.348
 1194CHOL    C110754  15.286  14.937   6.590
 1194CHOL    C210755  14.967  15.047   6.838
 1195CHOL   ROH10756  11.956  11.006   4.967
 1195CHOL    R110757  11.880  10.956   5.236
 1195CHOL    R210758  11.798  10.708   5.323
 1195CHOL    R310759  11.995  10.743   5.508
 1195CHOL    R410760  11.814  10.546   5.628
 1195CHOL    R510761  11.881  10.733   5.718
 1195CHOL    C110762  12.008  10.485   5.979
 1195CHOL    C210763  12.081  10.200   6.303
 1196CHOL   ROH10764   3.311   7.551   8.146
 1196CHOL    R110765   3.488   7.628   7.939
 1196CHOL    R210766   3.597   7.446   7.761
 1196CHOL    R310767   3.491   7.614   7.575
 1196CHOL    R410768   3.704   7.470   7.434
 1196CHOL    R510769   3.680   7.687   7.447
 1196CHOL    C110770   3.668   7.642   7.068
 1196CHOL    C210771   3.672   7.392   6.765
 1197CHOL   ROH10772   6.138  12.944   8.311
 1197CHOL    R110773   6.371  12.973   8.152
 1197CHOL    R210774   6.478  12.765   8.006
 1197CHOL    R310775   6.458  12.941   7.800
 1197CHOL    R410776   6.677  12.762   7.723
 1197CHOL    R510777   6.684  12.980   7.732
 1197CHOL    C110778   6.773  12.925   7.365
 1197CHOL    C210779   7.181  12.752   7.284
 1198PNCE   AM110780  14.616   1.245   4.346
 1198PNCE   AM210781  14.471   0.913   4.306
 1198PNCE   T1A10782  14.773   1.333   4.784
 1198PNCE   C2A10783  15.141   1.284   5.087
 1198PNCE   C3A10784  15.557   1.417   5.224
 1198PNCE   C1B10785  14.421   0.885   4.734
 1198PNCE   C2B10786  14.366   1.172   5.066
 1198PNCE   C3B10787  14.251   1.265   5.488
 1198PNCE   D4B10788  14.333   1.347   5.932
 1198PNCE   C5B10789  14.110   1.057   6.233
 1198PNCE   C6B10790  13.747   1.052   6.583
 1199PNCE   AM110791   3.629  15.132   4.314
 1199PNCE   AM210792   3.548  15.059   4.638
 1199PNCE   T1A10793   4.036  14.912   4.481
 1199PNCE   C2A10794   4.368  14.886   4.839
 1199PNCE   C3A10795   4.724  14.987   5.183
 1199PNCE   C1B10796   3.622  14.826   5.019
 1199PNCE   C2B10797   3.723  14.603   5.355
 1199PNCE   C3B10798   4.015  14.299   5.528
 1199PNCE   D4B10799   4.061  13.877   5.400
 1199PNCE   C5B10800   4.362  13.609   5.626
 1199PNCE   C6B10801   4.597  13.309   5.883
 1200CHOL   ROH10802  11.941  10.248   8.311
 1200CHOL    R110803  11.833  10.264   8.050
 1200CHOL    R210804  11.911  10.456   7.868
 1200CHOL    R310805  11.959  10.241   7.710
 1200CHOL    R410806  11.968  10.470   7.528
 1200CHOL    R510807  11.846  10.291   7.505
 1200CHOL    C110808  12.046  10.276   7.180
 1200CHOL    C210809  11.964  10.429   6.796
 1201CHOL   ROH10810  15.302   0.685   4.898
 1201CHOL    R110811  15.330   0.690   5.179
 1201CHOL    R210812  15.213   0.883   5.337
 1201CHOL    R310813  15.110   0.669   5.468
 1201CHOL    R410814  15.098   0.887   5.663
 1201CHOL    R510815  15.190   0.692   5.693
 1201CHOL    C110816  14.935   0.687   5.976
 1201CHOL    C210817  14.677   0.887   6.265
 1202XCA    COO10818   3.070   0.137   8.562
 1202XCA     C110819   3.000   0.011   8.109
 1202XCA     C210820   2.726   0.042   7.782
 1202XCA     C310821   2.508  15.584   7.554
 1202XCA     C410822   2.183  15.666   7.283
 1202XCA     C510823   1.784  15.470   7.159
 1202XCA     C610824   1.449  15.422   7.485
 1203PNCE   AM110825   7.797  12.462   5.109
 1203PNCE   AM210826   7.455  12.528   5.214
 1203PNCE   T1A10827   7.644  12.046   5.150
 1203PNCE   C2A10828   7.318  11.772   5.295
 1203PNCE   C3A10829   7.201  11.352   5.412
 1203PNCE   C1B10830   7.637  12.360   5.622
 1203PNCE   C2B10831   7.908  12.542   5.965
 1203PNCE   C3B10832   8.303  12.528   6.190
 1203PNCE   D4B10833   8.743  12.487   6.281
 1203PNCE   C5B10834   9.056  12.258   6.485
 1203PNCE   C6B10835   9.492  12.199   6.488
 1204CHOL   ROH10836  14.482   4.242   4.980
 1204CHOL    R110837  14.527   4.283   5.257
 1204CHOL    R210838  14.454   4.097   5.448
 1204CHOL    R310839  14.716   4.117   5.521
 1204CHOL    R410840  14.583   3.995   5.752
 1204CHOL    R510841  14.708   4.174   5.753
 1204CHOL    C110842  14.903   3.954   5.997
 1204CHOL    C210843  14.849   3.708   6.327
 1205CHOL   ROH10844  10.133  13.684   7.539
 1205CHOL    R110845  10.004  13.447   7.453
 1205CHOL    R210846   9.877  13.427   7.209
 1205CHOL    R310847  10.039  13.211   7.178
 1205CHOL    R410848   9.800  13.146   7.023
 1205CHOL    R510849   9.891  13.024   7.178
 1205CHOL    C110850   9.908  12.780   6.886
 1205CHOL    C210851   9.541  12.713   6.844
 1206PNCE   AM110852   4.951  10.709   4.299
 1206PNCE   AM210853   5.116  11.018   4.188
 1206PNCE   T1A10854   4.647  10.758   4.649
 1206PNCE   C2A10855   4.260  11.024   4.738
 1206PNCE   C3A10856   3.997  11.093   5.094
 1206PNCE   C1B10857   5.111  11.020   4.664
 1206PNCE   C2B10858   5.055  10.966   5.110
 1206PNCE   C3B10859   5.083  11.051   5.559
 1206PNCE   D4B10860   4.936  11.301   5.921
 1206PNCE   C5B10861   4.684  11.259   6.337
 1206PNCE   C6B10862   4.507  11.511   6.721
 1207CHOL   ROH10863   6.528  13.163   8.517
 1207CHOL    R110864   6.595  13.290   8.273
 1207CHOL    R210865   6.572  13.563   8.236
 1207CHOL    R310866   6.833  13.542   8.162
 1207CHOL    R410867   6.763  13.822   8.109
 1207CHOL    R510868   6.851  13.681   7.968
 1207CHOL    C110869   7.119  13.953   7.965
 1207CHOL    C210870   7.297  14.195   7.715
 1208PNCE   AM110871  14.965   7.195   3.786
 1208PNCE   AM210872  15.278   7.157   3.939
 1208PNCE   T1A10873  14.780   7.182   4.227
 1208PNCE   C2A10874  14.602   7.391   4.616
 1208PNCE   C3A10875  14.815   7.510   5.034
 1208PNCE   C1B10876  15.294   7.220   4.384
 1208PNCE   C2B10877  15.296   7.446   4.786
 1208PNCE   C3B10878  15.358   7.574   5.212
 1208PNCE   D4B10879  15.365   7.630   5.652
 1208PNCE   C5B10880  15.613   7.755   5.950
 1208PNCE   C6B10881   0.040   8.081   6.124
 1209XCA    COO10882   9.521  13.506   5.430
 1209XCA     C110883   9.455  13.551   5.890
 1209XCA     C210884   9.380  13.715   6.288
 1209XCA     C310885   9.241  13.688   6.659
 1209XCA     C410886   8.908  13.647   6.935
 1209XCA     C510887   8.539  13.881   6.932
 1209XCA     C610888   8.455  14.280   6.778
 1210PNCE   AM110889  10.909  12.658   5.217
 1210PNCE   AM210890  10.600  12.842   5.245
 1210PNCE   T1A10891  10.880  12.856   5.679
 1210PNCE   C2A10892  10.666  12.886   6.092
 1210PNCE   C3A10893  10.427  12.697   6.442
 1210PNCE   C1B10894  10.876  13.189   5.267
 1210PNCE   C2B10895  11.200  13.386   5.480
 1210PNCE   C3B10896  11.517  13.735   5.483
 1210PNCE   D4B10897  11.731  14.008   5.746
 1210PNCE   C5B10898  11.763  13.880   6.166
 1210PNCE   C6B10899  11.549  13.764   6.553
 1211PNCE   AM110900  11.480   2.867   4.694
 1211PNCE   AM210901  11.591   3.193   4.518
 1211PNCE   T1A10902  11.453   2.842   5.146
 1211PNCE   C2A10903  11.483   3.113   5.509
 1211PNCE   C3A10904  11.414   3.419   5.853
 1211PNCE   C1B10905  11.686   3.269   4.987
 1211PNCE   C2B10906  11.932   2.965   5.290
 1211PNCE   C3B10907  12.237   2.831   5.637
 1211PNCE   D4B10908  12.511   2.569   5.950
 1211PNCE   C5B10909  12.468   2.728   6.386
 1211PNCE   C6B10910  12.152   2.973   6.609
 1212CHOL   ROH10911   9.053   9.850   8.143
 1212CHOL    R110912   9.068   9.745   7.881
 1212CHOL    R210913   8.882   9.566   7.782
 1212CHOL    R310914   8.860   9.749   7.582
 1212CHOL    R410915   8.826   9.491   7.449
 1212CHOL    R510916   8.967   9.647   7.395
 1212CHOL    C110917   8.772   9.619   7.068
 1212CHOL    C210918   8.544   9.391   6.803
 1213PNCE   AM110919   3.116   4.920   4.474
 1213PNCE   AM210920   2.935   5.144   4.212
 1213PNCE   T1A10921   2.959   4.820   4.901
 1213PNCE   C2A10922   2.920   4.967   5.342
 1213PNCE   C3A10923   3.035   5.051   5.774
 1213PNCE   C1B10924   2.742   5.298   4.595
 1213PNCE   C2B10925   2.585   5.226   4.999
 1213PNCE   C3B10926   2.346   5.232   5.349
 1213PNCE   D4B10927   2.063   5.336   5.650
 1213PNCE   C5B10928   2.225   5.743   5.822
 1213PNCE   C6B10929   2.390   6.171   6.002
 1214PNCE   AM110930  12.508  14.412   5.110
 1214PNCE   AM210931  12.334  14.639   4.959
 1214PNCE   T1A10932  12.609  14.522   5.546
 1214PNCE   C2A10933  12.527  14.632   6.003
 1214PNCE   C3A10934  12.338  14.821   6.415
 1214PNCE   C1B10935  12.212  14.800   5.351
 1214PNCE   C2B10936  12.098  14.909   5.759
 1214PNCE   C3B10937  11.952  14.756   6.107
 1214PNCE   D4B10938  11.674  14.870   6.420
 1214PNCE   C5B10939  11.344  14.594   6.505
 1214PNCE   C6B10940  11.227  14.164   6.417
 1215XCA    COO10941  15.348   2.958   4.396
 1215XCA     C110942  15.530   2.942   4.873
 1215XCA     C210943  15.534   3.017   5.330
 1215XCA     C310944  15.767   3.114   5.669
 1215XCA     C410945  15.770   3.390   6.046
 1215XCA     C510946  15.774   3.282   6.468
 1215XCA     C610947  15.424   3.074   6.729
 1216CHOL   ROH10948   5.818  11.528   4.745
 1216CHOL    R110949   5.919  11.534   5.009
 1216CHOL    R210950   5.822  11.706   5.201
 1216CHOL    R310951   5.788  11.477   5.344
 1216CHOL    R410952   5.797  11.690   5.546
 1216CHOL    R510953   5.919  11.510   5.541
 1216CHOL    C110954   5.750  11.465   5.880
 1216CHOL    C210955   5.676  11.503   6.269
 1217CHOL   ROH10956   8.404   5.719   4.955
 1217CHOL    R110957   8.464   5.746   5.231
 1217CHOL    R210958   8.341   5.934   5.392
 1217CHOL    R310959   8.282   5.717   5.545
 1217CHOL    R410960   8.257   5.946   5.727
 1217CHOL    R510961   8.378   5.767   5.759
 1217CHOL    C110962   8.152   5.749   6.066
 1217CHOL    C210963   8.063   5.868   6.470
 1218CHOL   ROH10964  14.567  15.150   5.021
 1218CHOL    R110965  14.478  15.152   5.290
 1218CHOL    R210966  14.638  15.234   5.499
 1218CHOL    R310967  14.430  15.401   5.551
 1218CHOL    R410968  14.583  15.394   5.800
 1218CHOL    R510969  14.370  15.354   5.778
 1218CHOL    C110970  14.356  15.644   6.025
 1218CHOL    C210971  14.050  15.817   6.266
 1219CHOL   ROH10972   4.242  12.567   6.840
 1219CHOL    R110973   4.329  12.831   6.892
 1219CHOL    R210974   4.521  12.957   6.739
 1219CHOL    R310975   4.330  13.150   6.716
 1219CHOL    R410976   4.583  13.297   6.716
 1219CHOL    R510977   4.413  13.332   6.847
 1219CHOL    C110978   4.441  13.674   6.681
 1219CHOL    C210979   4.425  14.087   6.563
 1220XCA    COO10980   5.218   6.063   4.428
 1220XCA     C110981   5.267   5.814   4.802
 1220XCA     C210982   5.142   5.690   5.200
 1220XCA     C310983   5.152   5.714   5.636
 1220XCA     C410984   5.213   5.849   6.077
 1220XCA     C510985   5.000   5.750   6.486
 1220XCA     C610986   4.605   5.637   6.713
 1221CHOL   ROH10987   4.662   8.581   5.478
 1221CHOL    R110988   4.529   8.788   5.617
 1221CHOL    R210989   4.255   8.821   5.608
 1221CHOL    R310990   4.277   8.813   5.879
 1221CHOL    R410991   4.011   8.924   5.830
 1221CHOL    R510992   4.167   9.011   5.954
 1221CHOL    C110993   3.890   8.975   6.214
 1221CHOL    C210994   3.728   9.077   6.599
 1222PNCE   AM110995   8.136   0.082   5.696
 1222PNCE   AM210996   7.975  15.593   5.615
 1222PNCE   T1A10997   7.993   0.294   6.100
 1222PNCE   C2A10998   7.763   0.329   6.491
 1222PNCE   C3A10999   7.687   0.001   6.792
 1222PNCE   C1B11000   8.037  15.500   6.074
 1222PNCE   C2B11001   8.122  15.718   6.474
 1222PNCE   C3B11002   8.187   0.065   6.891
 1222PNCE   D4B11003   7.999   0.017   7.331
 1222PNCE   C5B11004   7.902  15.411   7.429
 1222PNCE   C6B11005   8.133  15.013   7.323
 1223PNCE   AM111006   0.490  11.123   4.723
 1223PNCE   AM211007   0.163  10.974   4.744
 1223PNCE   T1A11008   0.640  11.337   5.124
 1223PNCE   C2A11009   0.849  11.524   5.507
 1223PNCE   C3A11010   1.231  11.811   5.613
 1223PNCE   C1B11011   0.176  11.078   5.179
 1223PNCE   C2B11012   0.225  11.279   5.557
 1223PNCE   C3B11013   0.351  11.128   5.963
 1223PNCE   D4B11014   0.583  11.152   6.337
 1223PNCE   C5B11015   1.025  11.053   6.438
 1223PNCE   C6B11016   1.319  11.086   6.800
 1224PNCE   AM111017   7.169   2.074   5.202
 1224PNCE   AM211018   7.509   2.044   5.361
 1224PNCE   T1A11019   6.815   2.049   5.520
 1224PNCE   C2A11020   6.727   1.875   5.957
 1224PNCE   C3A11021   6.392   1.601   6.091
 1224PNCE   C1B11022   7.249   1.808   5.675
 1224PNCE   C2B11023   7.169   1.536   6.034
 1224PNCE   C3B11024   6.831   1.369   6.263
 1224PNCE   D4B11025   6.613   1.546   6.583
 1224PNCE   C5B11026   6.534   1.963   6.481
 1224PNCE   C6B11027   6.754   2.308   6.306
 1225XCA    COO11028   3.095  10.757   4.452
 1225XCA     C111029   3.333  10.557   4.787
 1225XCA     C211030   3.573  10.762   5.094
 1225XCA     C311031   3.538  11.125   5.342
 1225XCA     C411032   3.503  11.393   5.682
 1225XCA     C511033   3.760  11.502   6.053
 1225XCA     C611034   4.096  11.520   6.380
 1226CHOL   ROH11035   6.991   6.959   5.676
 1226CHOL    R111036   7.191   7.001   5.872
 1226CHOL    R211037   7.146   7.150   6.100
 1226CHOL    R311038   7.234   6.926   6.226
 1226CHOL    R411039   7.290   7.143   6.414
 1226CHOL    R511040   7.432   6.995   6.340
 1226CHOL    C111041   7.456   6.928   6.715
 1226CHOL    C211042   7.374   6.709   7.000
 1227CHOL   ROH11043   6.916  10.306   8.839
 1227CHOL    R111044   6.873  10.479   8.619
 1227CHOL    R211045   7.043  10.487   8.401
 1227CHOL    R311046   6.814  10.442   8.262
 1227CHOL    R411047   6.998  10.556   8.065
 1227CHOL    R511048   6.798  10.627   8.112
 1227CHOL    C111049   6.757  10.554   7.739
 1227CHOL    C211050   6.607  10.420   7.364
 1228XCA    COO11051  13.423   8.303   3.956
 1228XCA     C111052  13.365   8.491   4.387
 1228XCA     C211053  13.120   8.418   4.757
 1228XCA     C311054  13.004   8.390   5.161
 1228XCA     C411055  13.134   8.634   5.479
 1228XCA     C511056  13.098   8.754   5.897
 1228XCA     C611057  13.099   9.141   6.139
 1229CHOL   ROH11058  13.452   7.560   4.182
 1229CHOL    R111059  13.448   7.455   4.445
 1229CHOL    R211060  13.639   7.520   4.634
 1229CHOL    R311061  13.422   7.588   4.783
 1229CHOL    R411062  13.624   7.508   4.979
 1229CHOL    R511063  13.421   7.431   4.963
 1229CHOL    C111064  13.411   7.566   5.320
 1229CHOL    C211065  13.539   7.658   5.702
 1230CHOL   ROH11066  12.716   9.043   8.109
 1230CHOL    R111067  12.749   9.085   7.831
 1230CHOL    R211068  12.861   8.895   7.665
 1230CHOL    R311069  12.630   8.929   7.525
 1230CHOL    R411070  12.828   8.846   7.324
 1230CHOL    R511071  12.702   9.023   7.316
 1230CHOL    C111072  12.593   8.850   6.994
 1230CHOL    C211073  12.790   8.746   6.656
 1231CHOL   ROH11074   5.756   4.192   7.248
 1231CHOL    R111075   6.032   4.254   7.246
 1231CHOL    R211076   6.154   4.396   7.449
 1231CHOL    R311077   6.320   4.182   7.457
 1231CHOL    R411078   6.472   4.398   7.582
 1231CHOL    R511079   6.537   4.274   7.416
 1231CHOL    C111080   6.815   4.198   7.667
 1231CHOL    C211081   6.998   3.952   7.895
 1232XCA    COO11082   7.200  10.000   8.576
 1232XCA     C111083   7.381  10.209   8.197
 1232XCA     C211084   7.748  10.282   7.957
 1232XCA     C311085   7.880  10.597   7.698
 1232XCA     C411086   8.155  10.840   7.443
 1232XCA     C511087   8.177  11.211   7.175
 1232XCA     C611088   8.074  11.570   6.909
 1233PNCE   AM111089   1.433   4.777   4.559
 1233PNCE   AM211090   1.075   4.897   4.456
 1233PNCE   T1A11091   1.611   5.137   4.837
 1233PNCE   C2A11092   1.872   5.444   5.115
 1233PNCE   C3A11093   2.193   5.741   5.289
 1233PNCE   C1B11094   1.087   5.195   4.790
 1233PNCE   C2B11095   0.966   5.225   5.235
 1233PNCE   C3B11096   1.115   5.306   5.658
 1233PNCE   D4B11097   1.297   5.156   6.045
 1233PNCE   C5B11098   1.419   5.450   6.398
 1233PNCE   C6B11099   1.663   5.839   6.427
 1234PNCE   AM111100  10.360   7.190   4.431
 1234PNCE   AM211101  10.018   7.359   4.385
 1234PNCE   T1A11102  10.401   6.878   4.780
 1234PNCE   C2A11103  10.489   6.845   5.222
 1234PNCE   C3A11104  10.508   7.040   5.636
 1234PNCE   C1B11105  10.170   7.551   4.765
 1234PNCE   C2B11106  10.172   7.816   5.106
 1234PNCE   C3B11107  10.208   7.922   5.525
 1234PNCE   D4B11108  10.176   7.852   5.911
 1234PNCE   C5B11109  10.565   7.889   6.025
 1234PNCE   C6B11110  11.009   7.945   5.974
 1235PNCE   AM111111  12.957   5.867   4.304
 1235PNCE   AM211112  12.954   6.217   4.229
 1235PNCE   T1A11113  13.064   5.767   4.745
 1235PNCE   C2A11114  12.986   5.901   5.196
 1235PNCE   C3A11115  13.195   6.152   5.536
 1235PNCE   C1B11116  13.190   6.263   4.662
 1235PNCE   C2B11117  13.432   6.121   5.052
 1235PNCE   C3B11118  13.791   5.883   5.250
 1235PNCE   D4B11119  14.025   5.644   5.592
 1235PNCE   C5B11120  13.767   5.247   5.727
 1235PNCE   C6B11121  13.289   5.171   5.766
 1236PNCE   AM111122  12.098  15.790   4.716
 1236PNCE   AM211123  12.398  15.576   4.717
 1236PNCE   T1A11124  12.214   0.050   5.181
 1236PNCE   C2A11125  12.495   0.367   5.399
 1236PNCE   C3A11126  12.619   0.614   5.766
 1236PNCE   C1B11127  12.438  15.344   5.133
 1236PNCE   C2B11128  12.518  15.151   5.601
 1236PNCE   C3B11129  12.625  15.148   6.037
 1236PNCE   D4B11130  12.590  15.438   6.374
 1236PNCE   C5B11131  12.300  15.782   6.246
 1236PNCE   C6B11132  12.258   0.241   5.873
 1237CHOL   ROH11133   6.549   1.922   8.338
 1237CHOL    R111134   6.695   1.877   8.100
 1237CHOL    R211135   6.577   1.780   7.869
 1237CHOL    R311136   6.688   2.001   7.758
 1237CHOL    R411137   6.557   1.865   7.535
 1237CHOL    R511138   6.764   1.929   7.543
 1237CHOL    C111139   6.649   2.122   7.236
 1237CHOL    C211140   6.391   2.190   6.952
 1238XCA    COO11141  10.725   2.016   4.779
 1238XCA     C111142  10.870   1.942   5.207
 1238XCA     C211143  10.944   1.986   5.632
 1238XCA     C311144  11.191   2.020   5.975
 1238XCA     C411145  11.110   2.044   6.344
 1238XCA     C511146  10.767   2.243   6.399
 1238XCA     C611147  10.623   2.642   6.567
 1239XCA    COO11148   0.995   3.756   9.176
 1239XCA     C111149   1.255   3.522   8.891
 1239XCA     C211150   1.419   3.638   8.512
 1239XCA     C311151   1.306   3.586   8.088
 1239XCA     C411152   1.052   3.732   7.777
 1239XCA     C511153   0.791   4.038   7.900
 1239XCA     C611154   0.788   4.394   8.143
 1240PNCE   AM111155   8.897  11.707   5.055
 1240PNCE   AM211156   8.934  12.063   5.104
 1240PNCE   T1A11157   9.317  11.654   5.270
 1240PNCE   C2A11158   9.590  11.731   5.585
 1240PNCE   C3A11159   9.666  11.465   5.889
 1240PNCE   C1B11160   9.009  11.944   5.537
 1240PNCE   C2B11161   9.143  11.562   5.778
 1240PNCE   C3B11162   9.281  11.124   5.868
 1240PNCE   D4B11163   9.218  10.873   6.233
 1240PNCE   C5B11164   9.513  10.849   6.561
 1240PNCE   C6B11165   9.808  11.137   6.747
 1241CHOL   ROH11166  11.411   7.698   7.361
 1241CHOL    R111167  11.449   7.923   7.194
 1241CHOL    R211168  11.634   7.926   6.990
 1241CHOL    R311169  11.420   7.997   6.839
 1241CHOL    R411170  11.651   8.088   6.685
 1241CHOL    R511171  11.480   8.209   6.745
 1241CHOL    C111172  11.459   8.249   6.366
 1241CHOL    C211173  11.512   8.478   6.043
 1242PNCE   AM111174   9.455  10.605   4.351
 1242PNCE   AM211175   9.378  10.847   4.599
 1242PNCE   T1A11176   9.142  10.306   4.497
 1242PNCE   C2A11177   9.008  10.130   4.882
 1242PNCE   C3A11178   9.015   9.966   5.308
 1242PNCE   C1B11179   9.430  10.461   4.888
 1242PNCE   C2B11180   9.391  10.297   5.321
 1242PNCE   C3B11181   9.313  10.171   5.761
 1242PNCE   D4B11182   9.116   9.958   6.135
 1242PNCE   C5B11183   8.687  10.052   6.185
 1242PNCE   C6B11184   8.308  10.193   6.378
 1243XCA    COO11185  13.307  10.560   8.426
 1243XCA     C111186  13.308  10.721   7.946
 1243XCA     C211187  13.310  10.620   7.493
 1243XCA     C311188  13.387  10.697   7.060
 1243XCA     C411189  13.223  10.968   6.754
 1243XCA     C511190  12.806  11.108   6.703
 1243XCA     C611191  12.467  11.191   6.395
 1244PNCE   AM111192   7.215   0.229   5.378
 1244PNCE   AM211193   7.447   0.047   5.160
 1244PNCE   T1A11194   6.905   0.143   5.723
 1244PNCE   C2A11195   6.779   0.374   6.125
 1244PNCE   C3A11196   6.924   0.432   6.548
 1244PNCE   C1B11197   7.344  15.586   5.531
 1244PNCE   C2B11198   7.102  15.505   5.935
 1244PNCE   C3B11199   7.054  15.378   6.384
 1244PNCE   D4B11200   7.050  15.460   6.850
 1244PNCE   C5B11201   7.450  15.476   7.114
 1244PNCE   C6B11202   7.418  15.239   7.491
 1245PNCE   AM111203   2.320   4.344   4.733
 1245PNCE   AM211204   2.207   4.018   4.743
 1245PNCE   T1A11205   1.950   4.461   5.013
 1245PNCE   C2A11206   1.598   4.711   5.210
 1245PNCE   C3A11207   1.220   4.807   5.486
 1245PNCE   C1B11208   2.129   4.013   5.163
 1245PNCE   C2B11209   1.990   4.103   5.539
 1245PNCE   C3B11210   1.934   4.085   5.964
 1245PNCE   D4B11211   1.768   4.118   6.383
 1245PNCE   C5B11212   1.718   4.570   6.399
 1245PNCE   C6B11213   1.693   5.024   6.575
 1246PNCE   AM111214   4.166   4.023   4.731
 1246PNCE   AM211215   4.099   3.731   4.956
 1246PNCE   T1A11216   4.458   4.063   5.108
 1246PNCE   C2A11217   4.842   3.955   5.330
 1246PNCE   C3A11218   5.003   3.932   5.722
 1246PNCE   C1B11219   4.014   3.693   5.415
 1246PNCE   C2B11220   3.701   3.730   5.767
 1246PNCE   C3B11221   3.234   3.710   5.737
 1246PNCE   D4B11222   2.959   4.066   5.756
 1246PNCE   C5B11223   2.664   4.080   6.097
 1246PNCE   C6B11224   2.314   3.820   6.232
 1247CHOL   ROH11225   7.417   5.451   7.989
 1247CHOL    R111226   7.428   5.467   7.706
 1247CHOL    R211227   7.607   5.322   7.556
 1247CHOL    R311228   7.383   5.239   7.427
 1247CHOL    R411229   7.602   5.178   7.242
 1247CHOL    R511230   7.423   5.294   7.197
 1247CHOL    C111231   7.389   5.016   6.937
 1247CHOL    C211232   7.430   4.762   6.592
 1248XCA    COO11233   7.114   9.788   6.127
 1248XCA     C111234   6.758   9.910   6.401
 1248XCA     C211235   6.460   9.791   6.690
 1248XCA     C311236   6.052   9.719   6.979
 1248XCA     C411237   5.728   9.382   6.897
 1248XCA     C511238   5.330   9.271   6.657
 1248XCA     C611239   4.991   8.959   6.504
 1249XCA    COO11240  10.764  13.955   5.664
 1249XCA     C111241  10.794  14.064   6.124
 1249XCA     C211242  10.751  14.027   6.601
 1249XCA     C311243  10.800  13.812   7.040
 1249XCA     C411244  10.698  13.557   7.442
 1249XCA     C511245  10.524  13.606   7.796
 1249XCA     C611246  10.320  13.898   7.991
 1250CHOL   ROH11247   5.059   5.050   7.880
 1250CHOL    R111248   4.942   5.123   7.633
 1250CHOL    R211249   4.704   5.261   7.616
 1250CHOL    R311250   4.851   5.433   7.466
 1250CHOL    R411251   4.573   5.513   7.419
 1250CHOL    R511252   4.721   5.465   7.267
 1250CHOL    C111253   4.635   5.822   7.163
 1250CHOL    C211254   4.367   6.105   7.182
 1251XCA    COO11255   6.325   8.040   4.403
 1251XCA     C111256   6.189   8.142   4.844
 1251XCA     C211257   6.128   8.116   5.274
 1251XCA     C311258   5.973   8.214   5.651
 1251XCA     C411259   6.028   8.133   6.046
 1251XCA     C511260   6.188   8.322   6.413
 1251XCA     C611261   6.487   8.302   6.735
 1252CHOL   ROH11262  12.323   1.441   5.299
 1252CHOL    R111263  12.542   1.416   5.476
 1252CHOL    R211264  12.681   1.634   5.573
 1252CHOL    R311265  12.622   1.524   5.815
 1252CHOL    R411266  12.870   1.674   5.859
 1252CHOL    R511267  12.835   1.464   5.906
 1252CHOL    C111268  12.925   1.595   6.253
 1252CHOL    C211269  13.069   1.839   6.554
 1253CHOL   ROH11270  12.910  10.437   8.168
 1253CHOL    R111271  12.844  10.554   7.919
 1253CHOL    R211272  12.918  10.442   7.678
 1253CHOL    R311273  12.652  10.459   7.625
 1253CHOL    R411274  12.778  10.433   7.362
 1253CHOL    R511275  12.639  10.588   7.424
 1253CHOL    C111276  12.448  10.444   7.128
 1253CHOL    C211277  12.446  10.269   6.725
 1254XCA    COO11278   2.316  10.635   4.469
 1254XCA     C111279   2.386  10.738   4.915
 1254XCA     C211280   2.548  10.910   5.289
 1254XCA     C311281   2.686  10.814   5.700
 1254XCA     C411282   2.652  10.577   6.078
 1254XCA     C511283   2.748  10.490   6.495
 1254XCA     C611284   3.040  10.630   6.822
 1255PNCE   AM111285  10.660   7.810   4.274
 1255PNCE   AM211286  10.304   7.771   4.293
 1255PNCE   T1A11287  10.664   7.577   4.668
 1255PNCE   C2A11288  10.619   7.307   5.051
 1255PNCE   C3A11289  10.930   7.157   5.383
 1255PNCE   C1B11290   9.981   7.997   4.590
 1255PNCE   C2B11291   9.757   8.098   4.979
 1255PNCE   C3B11292   9.759   8.203   5.409
 1255PNCE   D4B11293   9.899   8.312   5.841
 1255PNCE   C5B11294  10.102   8.651   6.052
 1255PNCE   C6B11295   9.961   8.922   6.402
 1256CHOL   ROH11296  14.827   6.226   6.735
 1256CHOL    R111297  14.800   6.161   6.460
 1256CHOL    R211298  14.936   5.951   6.343
 1256CHOL    R311299  14.687   5.875   6.266
 1256CHOL    R411300  14.867   5.744   6.075
 1256CHOL    R511301  14.697   5.872   6.026
 1256CHOL    C111302  14.593   5.553   5.846
 1256CHOL    C211303  14.541   5.635   5.464
 1257XCA    COO11304  10.052   9.112   4.366
 1257XCA     C111305   9.951   9.142   4.818
 1257XCA     C211306   9.915   9.283   5.261
 1257XCA     C311307   9.962   9.372   5.705
 1257XCA     C411308   9.853   9.462   6.139
 1257XCA     C511309   9.891   9.676   6.566
 1257XCA     C611310  10.195   9.915   6.818
 1258PNCE   AM111311   7.359   1.084   5.049
 1258PNCE   AM211312   7.591   1.379   5.148
 1258PNCE   T1A11313   7.177   1.223   5.440
 1258PNCE   C2A11314   6.818   1.048   5.645
 1258PNCE   C3A11315   6.570   0.691   5.764
 1258PNCE   C1B11316   7.646   1.478   5.609
 1258PNCE   C2B11317   7.595   1.252   6.002
 1258PNCE   C3B11318   7.852   1.153   6.345
 1258PNCE   D4B11319   8.016   1.207   6.764
 1258PNCE   C5B11320   8.163   0.844   6.971
 1258PNCE   C6B11321   7.939   0.473   7.040
 1259CHOL   ROH11322  14.043   4.802   5.498
 1259CHOL    R111323  13.921   4.760   5.750
 1259CHOL    R211324  14.065   4.742   5.984
 1259CHOL    R311325  13.897   4.940   6.065
 1259CHOL    R411326  13.988   4.815   6.313
 1259CHOL    R511327  13.782   4.847   6.253
 1259CHOL    C111328  13.786   5.042   6.581
 1259CHOL    C211329  13.699   4.862   6.947
 1260XCA    COO11330  10.636   3.370   6.212
 1260XCA     C111331  10.474   3.180   6.577
 1260XCA     C211332  10.130   3.135   6.858
 1260XCA     C311333  10.030   3.016   7.241
 1260XCA     C411334  10.145   2.736   7.530
 1260XCA     C511335   9.924   2.358   7.550
 1260XCA     C611336   9.501   2.263   7.448
 1261XCA    COO11337  14.030   1.610   8.816
 1261XCA     C111338  14.061   1.873   8.444
 1261XCA     C211339  13.862   2.038   8.076
 1261XCA     C311340  13.707   2.138   7.666
 1261XCA     C411341  13.461   2.131   7.328
 1261XCA     C511342  13.476   1.998   6.895
 1261XCA     C611343  13.352   2.273   6.532
 1262PNCE   AM111344  12.368  12.213   5.041
 1262PNCE   AM211345  12.611  12.441   5.097
 1262PNCE   T1A11346  12.305  12.153   5.459
 1262PNCE   C2A11347  12.371  12.139   5.890
 1262PNCE   C3A11348  12.395  12.089   6.347
 1262PNCE   C1B11349  12.749  12.410   5.539
 1262PNCE   C2B11350  12.750  12.481   5.994
 1262PNCE   C3B11351  12.676  12.560   6.423
 1262PNCE   D4B11352  12.450  12.457   6.751
 1262PNCE   C5B11353  12.511  12.032   6.869
 1262PNCE   C6B11354  12.659  11.860   7.230
 1263XCA    COO11355   8.265   4.392   4.709
 1263XCA     C111356   8.299   4.673   5.062
 1263XCA     C211357   8.122   5.039   5.257
 1263XCA     C311358   7.748   5.258   5.321
 1263XCA     C411359   7.555   5.104   5.641
 1263XCA     C511360   7.463   4.696   5.658
 1263XCA     C611361   7.365   4.335   5.816
 1264XCA    COO11362   6.122   6.435   4.052
 1264XCA     C111363   5.900   6.837   4.137
 1264XCA     C211364   5.896   7.178   4.450
 1264XCA     C311365   6.180   7.256   4.788
 1264XCA     C411366   6.471   7.131   5.084
 1264XCA     C511367   6.792   7.314   5.333
 1264XCA     C611368   7.127   7.412   5.633
 1265WN      WN11369   1.854  11.466  11.392
 1266WN      WN11370  14.120   0.377  11.281
 1267WN      WN11371  11.732   4.376   9.906
 1268WN      WN11372   0.739   5.905   9.242
 1269WN      WN11373   6.326  13.317   2.350
 1270WN      WN11374  10.171   6.053   8.821
 1271WN      WN11375  12.424   5.082  12.018
 1272WN      WN11376  12.039   8.639  11.319
 1273WN      WN11377  13.429   6.808   2.413
 1274WN      WN11378  13.889  12.878  11.116
 1275WN      WN11379  11.263   9.055   9.486
 1276WN      WN11380   6.770   9.326  10.306
 1277WN      WN11381   9.284   1.279   2.178
 1278WN      WN11382   8.579   4.645   8.547
 1279WN      WN11383  15.423   5.555  11.652
 1280WN      WN11384   5.580  12.737   8.796
 1281WN      WN11385  12.911   6.960   3.164
 1282WN      WN11386  15.460   6.591  13.576
 1283WN      WN11387   0.034  10.553   3.206
 1284WN      WN11388   2.435   1.075   4.649
 1285WN      WN11389   7.052   4.934  13.312
 1286WN      WN11390   5.731   4.243  13.403
 1287WN      WN11391   6.663   1.415  11.316
 1288WN      WN11392  12.029  14.286   4.678
 1289WN      WN11393   9.967   4.152   3.740
 1290WN      WN11394   3.858  11.196   3.415
 1291WN      WN11395   9.824  10.248  13.507
 1292WN      WN11396   0.917  14.152  12.544
 1293WN      WN11397   9.486   0.039   1.337
 1294WN      WN11398  14.614   1.245   3.051
 1295WN      WN11399   2.572  12.269  10.614
 1296WN      WN11400   3.029  11.380   9.554
 1297WN      WN11401   4.027   9.174   1.227
 1298WN      WN11402  12.476   8.307   1.967
 1299WN      WN11403   7.550   5.594   9.096
 1300WN      WN11404   5.798   1.481   1.833
 1301WN      WN11405   9.272   5.830   2.758
 1302WN      WN11406   4.882   9.915   1.964
 1303WN      WN11407   1.944   8.265  12.402
 1304WN      WN11408  15.712   1.315   2.357
 1305WN      WN11409  10.430  13.099   3.465
 1306WN      WN11410  10.583  12.941   0.802
 1307WN      WN11411  13.435  12.278   3.717
 1308WN      WN11412   5.673   6.165  10.884
 1309WN      WN11413   4.612   5.238  10.044
 1310WN      WN11414  14.821   4.049  13.143
 1311WN      WN11415   6.843  11.650  10.106
 1312WN      WN11416  12.136  11.892  11.667
 1313WN      WN11417   1.033  11.748  11.329
 1314WN      WN11418   2.037   6.963  10.786
 1315WN      WN11419   0.724  10.994  13.249
 1316WN      WN11420   7.271   5.376   3.503
 1317WN      WN11421   5.376  10.976  11.933
 1318WN      WN11422  11.227   9.805   2.268
 1319WN      WN11423   3.649   9.601   2.567
 1320WN      WN11424  10.429   2.001  11.093
 1321WN      WN11425   6.573   2.743   0.456
 1322WN      WN11426   0.503   8.779   0.342
 1323WN      WN11427  15.238   0.312   0.016
 1324WN      WN11428   3.474  12.376   0.032
 1325WN      WN11429   9.583   3.117  12.520
 1326WN      WN11430   9.442   9.766  11.665
 1327WN      WN11431  10.912   9.238  12.995
 1328WN      WN11432  13.776   8.029  12.813
 1329WN      WN11433  11.970   1.677   2.865
 1330WN      WN11434   8.457  11.340   9.092
 1331WN      WN11435   6.602  10.137   9.233
 1332WN      WN11436   6.656   1.831   5.066
 1333WN      WN11437  13.274   6.136   8.346
 1334WN      WN11438   5.483  11.917   8.517
 1335WN      WN11439  13.497   8.377   0.391
 1336WN      WN11440  14.054   4.019   9.228
 1337WN      WN11441   7.447   1.822  11.795
 1338WN      WN11442  12.359  15.164   1.619
 1339WN      WN11443   0.110  14.800  10.113
 1340WN      WN11444   9.425   4.286  10.384
 1341WN      WN11445   5.365   5.911   2.638
 1342WN      WN11446  15.069   0.952   3.085
 1343WN      WN11447   6.441   2.071  13.361
 1344WN      WN11448  14.044   0.901  12.895
 1345WN      WN11449  11.986   1.090   2.862
 1346WN      WN11450  15.682   2.891   1.246
 1347WN      WN11451   3.003   5.291   0.303
 1348WN      WN11452   3.424   2.918  11.603
 1349WN      WN11453  13.166  14.132   1.275
 1350WN      WN11454  11.065  14.512   1.319
 1351WN      WN11455   7.201   5.521   1.301
 1352WN      WN11456  10.925   7.524  11.156
 1353WN      WN11457   2.575  10.460   2.474
 1354WN      WN11458   8.623   3.677   3.665
 1355WN      WN11459  14.981   6.585   0.191
 1356WN      WN11460   2.094  14.690   2.010
 1357WN      WN11461   9.524   5.611  12.815
 1358WN      WN11462  12.880  14.538   0.093
 1359WN      WN11463  13.704  10.779  12.758
 1360WN      WN11464  12.986  12.524   9.899
 1361WN      WN11465   0.151   3.364  10.649
 1362WN      WN11466  15.090  15.473  13.446
 1363WN      WN11467   8.766   7.847   2.334
 1364WN      WN11468   3.680  15.281  12.628
 1365WN      WN11469  15.698  11.205   9.282
 1366WN      WN11470   6.498  14.855   2.349
 1367WN      WN11471   1.741   7.080   0.541
 1368WN      WN11472  13.479  15.664   0.754
 1369WN      WN11473  12.108   5.656   1.349
 1370WN      WN11474  15.504   2.565   9.210
 1371WN      WN11475   9.949  10.768  10.955
 1372WN      WN11476  13.405   9.271   1.130
 1373WN      WN11477   5.655  13.876  12.548
 1374WN      WN11478   2.581  14.385  12.650
 1375WN      WN11479   7.215   1.230  12.005
 1376WN      WN11480   2.664   3.990   4.491
 1377WN      WN11481   2.480  15.313   1.930
 1378WN      WN11482  15.680  10.918   0.183
 1379WN      WN11483   0.199   7.586  12.013
 1380WN      WN11484  15.110   0.994   1.548
 1381WN      WN11485  13.219  15.182  12.271
 1382WN      WN11486   2.618   3.672  11.987
 1383WN      WN11487  12.232   7.397   9.253
 1384WN      WN11488   3.795  15.593   9.539
 1385WN      WN11489  11.758   5.824  12.500
 1386WN      WN11490   0.555   9.389   1.722
 1387WN      WN11491   7.449   4.548  10.798
 1388WN      WN11492   9.888   3.435  10.975
 1389WN      WN11493  12.570   2.845  11.073
 1390WN      WN11494  14.763   0.830  10.555
 1391WN      WN11495  14.370   4.270  13.040
 1392WN      WN11496  13.746  12.414   4.128
 1393WN      WN11497   9.566   4.004   4.265
 1394WN      WN11498   6.513   5.702   9.491
 1395WN      WN11499  15.525  10.505   1.897
 1396WN      WN11500   3.520   0.228   4.878
 1397WN      WN11501   8.979   5.043   9.313
 1398WN      WN11502  14.603   6.346   3.805
 1399WN      WN11503   7.745   3.446   8.917
 1400WN      WN11504   7.831   9.469   3.831
 1401WN      WN11505   9.176  13.216  11.890
 1402WN      WN11506   4.269   9.766   1.318
 1403WN      WN11507   8.424  10.134   9.756
 1404WN      WN11508   9.991  11.771  13.449
 1405WN      WN11509   1.007  12.043   8.866
 1406WN      WN11510   7.412   3.184  10.892
 1407WN      WN11511   3.814  10.754  12.665
 1408WN      WN11512   3.963  14.711   2.641
 1409WN      WN11513  12.233   9.627   1.793
 1410WN      WN11514   8.067  14.264  12.429
 1411WN      WN11515   3.837   3.112   3.225
 1412WN      WN11516   0.974   3.093   1.918
 1413WN      WN11517   3.173  14.414   1.107
 1414WN      WN11518   2.449  10.355   8.968
 1415WN      WN11519   7.068   5.353   0.752
 1416WN      WN11520   7.302   7.414  12.432
 1417WN      WN11521   1.306  10.970   8.982
 1418WN      WN11522   2.154   9.883   0.271
 1419WN      WN11523  15.821  11.945   0.501
 1420WN      WN11524   1.143   3.589   4.045
 1421WN      WN11525   5.614   4.229   3.011
 1422WN      WN11526   3.424  10.432  12.586
 1423WN      WN11527  14.900  11.153   4.586
 1424WN      WN11528   2.646  15.600   3.596
 1425WN      WN11529  15.143   6.837   9.545
 1426WN      WN11530   8.779   0.627   1.895
 1427WN      WN11531  12.677   5.455   0.838
 1428WN      WN11532  14.471   9.233   9.664
 1429WN      WN11533  12.055  13.593  10.165
 1430WN      WN11534  12.450   0.263   3.940
 1431WN      WN11535   0.518  12.832   1.997
 1432WN      WN11536   1.241  15.706   1.346
 1433WN      WN11537  14.882  10.879   9.369
 1434WN      WN11538   4.116   6.830   2.430
 1435WN      WN11539   0.284   3.971   3.676
 1436WN      WN11540  12.513   9.535  11.647
 1437WN      WN11541   6.100   8.480   9.219
 1438WN      WN11542  11.909   3.010   3.805
 1439WN      WN11543  15.700  15.433   4.263
 1440WN      WN11544   2.106   1.577   2.937
 1441WN      WN11545  11.613  11.837  13.137
 1442WN      WN11546  13.823   6.996   3.106
 1443WN      WN11547  11.684  11.297  10.086
 1444WN      WN11548   0.904   1.378  10.099
 1445WN      WN11549  15.217  10.561   9.126
 1446WN      WN11550   4.559  14.348  10.832
 1447WN      WN11551  13.152  11.488   2.504
 1448WN      WN11552   4.783   0.111   3.582
 1449WN      WN11553   5.573   4.208   9.090
 1450WN      WN11554   8.230  11.401   2.603
 1451WN      WN11555   2.860  14.851   3.839
 1452WN      WN11556  10.627   2.151   4.292
 1453WN      WN11557   4.601   6.872   0.164
 1454WN      WN11558  10.445   3.400  11.830
 1455WN      WN11559   0.313   9.423  12.150
 1456WN      WN11560  14.195  11.262   1.473
 1457WN      WN11561   9.501   9.112  12.659
 1458WN      WN11562  15.350   2.757  12.199
 1459WN      WN11563  13.340   1.757  11.528
 1460WN      WN11564   6.485  14.193   1.408
 1461WN      WN11565  10.699   3.673  11.262
 1462WN      WN11566   5.730  12.110  12.898
 1463WN      WN11567  12.079   6.134   3.608
 1464WN      WN11568   8.413   6.188  10.920
 1465WN      WN11569   3.623   9.391  11.390
 1466WN      WN11570   8.306   7.437  12.460
 1467WN      WN11571   1.411  15.096  10.642
 1468WN      WN11572   8.057   9.711   9.159
 1469WN      WN11573  11.233  15.754  13.085
 1470WN      WN11574  13.780   4.470   2.400
 1471WN      WN11575   1.422  10.039   3.151
 1472WN      WN11576  15.690   4.281  10.909
 1473WN      WN11577  11.180  10.772  10.650
 1474WN      WN11578  14.382   5.205   4.328
 1475WN      WN11579   2.461   7.601   2.067
 1476WN      WN11580  13.547  10.512   9.992
 1477WN      WN11581  11.379  13.502   0.933
 1478WN      WN11582   9.661   2.585   2.948
 1479WN      WN11583   2.888  14.831   4.462
 1480WN      WN11584  15.272  14.148  10.589
 1481WN      WN11585  11.049  15.635  13.566
 1482WN      WN11586   5.089   6.514  12.997
 1483WN      WN11587   3.176   0.619  13.164
 1484WN      WN11588   1.742   5.796  12.769
 1485WN      WN11589   8.340   9.315   3.131
 1486WN      WN11590   1.151   5.081   3.564
 1487WN      WN11591  15.154   2.013   3.540
 1488WN      WN11592  12.257  13.383  12.853
 1489WN      WN11593  15.574   1.945   0.772
 1490WN      WN11594  10.289  15.303  12.530
 1491WN      WN11595   3.341   1.126  13.105
 1492WN      WN11596   9.994   0.682  12.004
 1493WN      WN11597   1.894   2.229   2.389
 1494WN      WN11598   4.413   5.882   1.610
 1495WN      WN11599  12.560   3.503   4.262
 1496WN      WN11600   1.105  12.789   9.430
 1497WN      WN11601  10.745  13.422  10.478
 1498WN      WN11602   8.715   5.925   8.708
 1499WN      WN11603   8.601   7.472   1.019
 1500WN      WN11604   6.823   0.350   1.611
 1501WN      WN11605   3.799   3.900   3.561
 1502WN      WN11606   9.438   9.137   0.153
 1503WN      WN11607  13.512  14.666   3.954
 1504WN      WN11608  13.478   9.272  12.953
 1505WN      WN11609   9.389  13.009   9.927
 1506WN      WN11610   6.809  13.015   0.237
 1507WN      WN11611  13.653  12.412  11.080
 1508WN      WN11612   8.837   2.008  12.005
 1509WN      WN11613  12.927   3.887   2.269
 1510WN      WN11614  13.002   3.811   4.155
 1511WN      WN11615   5.168  14.133   0.983
 1512WN      WN11616  12.745   5.793   9.138
 1513WN      WN11617  14.244   0.176  10.041
 1514WN      WN11618   1.669   0.131   3.588
 1515WN      WN11619  10.265  14.795  13.408
 1516WN      WN11620  11.211   3.149  10.379
 1517WN      WN11621   5.183   2.252   1.026
 1518WN      WN11622  13.448   1.419  10.977
 1519WN      WN11623  14.825   4.627  10.364
 1520WN      WN11624   0.659   0.173   3.461
 1521WN      WN11625  11.424   3.699   3.349
 1522WN      WN11626   3.337   9.654   1.447
 1523WN      WN11627  12.227   0.436  13.005
 1524WN      WN11628   1.490   7.236  10.130
 1525WN      WN11629   7.664  12.222   2.306
 1526WN      WN11630   8.796   2.299   4.625
 1527WN      WN11631   7.357   0.645   3.713
 1528WN      WN11632   7.393   9.460   1.681
 1529WN      WN11633   0.403  14.039   5.071
 1530WN      WN11634  13.736   5.388   2.170
 1531WN      WN11635   5.694   5.218  11.891
 1532WN      WN11636  10.258   2.027   2.840
 1533WN      WN11637   6.921  13.178  11.665
 1534WN      WN11638  10.507   7.321   9.292
 1535WN      WN11639  13.519  12.369   1.092
 1536WN      WN11640   4.027   7.384  10.878
 1537WN      WN11641   5.922   5.844   0.688
 1538WN      WN11642   6.547   7.734   8.991
 1539WN      WN11643   5.482  13.639   1.881
 1540WN      WN11644   1.063  14.093   3.428
 1541WN      WN11645   4.565   8.390  11.105
 1542WN      WN11646   3.739  13.248  13.600
 1543WN      WN11647   1.067   9.829   1.001
 1544WN      WN11648   9.107   0.137   3.181
 1545WN      WN11649  10.608   3.235  12.679
 1546WN      WN11650  12.480  11.816  12.928
 1547WN      WN11651   8.176   7.071   9.159
 1548WN      WN11652  14.617   4.330  13.533
 1549WN      WN11653   4.555  15.071  11.287
 1550WN      WN11654   1.978   6.922  13.083
 1551WN      WN11655   5.302   7.979  10.131
 1552WN      WN11656  13.488   3.505   0.214
 1553WN      WN11657   0.718   7.989   1.754
 1554WN      WN11658   4.646  11.442   9.416
 1555WN      WN11659   2.787   8.737  11.645
 1556WN      WN11660   5.757  15.160   1.767
 1557WN      WN11661  15.312   3.120  13.087
 1558WN      WN11662   4.636  14.374   1.660
 1559WN      WN11663   6.110  11.744   3.863
 1560WN      WN11664   5.710  15.069   9.874
 1561WN      WN11665   7.871   5.189   7.988
 1562WN      WN11666   0.070  13.753  11.594
 1563WN      WN11667  10.532  13.055   1.794
 1564WN      WN11668  12.274  14.062   0.960
 1565WN      WN11669   9.801   5.868   2.873
 1566WN      WN11670   1.282   7.612  11.710
 1567WN      WN11671  14.548   9.035   8.200
 1568WN      WN11672  15.309   0.920  13.290
 1569WN      WN11673   3.994   3.745   8.563
 1570WN      WN11674  10.269   1.300   3.815
 1571WN      WN11675  14.869   1.547   3.428
 1572WN      WN11676  15.604   0.444   9.576
 1573WN      WN11677  12.233  11.515   1.937
 1574WN      WN11678  10.628   4.979  12.332
 1575WN      WN11679  14.431   3.190  10.333
 1576WN      WN11680  13.607  10.734   1.474
 1577WN      WN11681  14.688   7.544  11.144
 1578WN      WN11682  10.976   0.834   3.209
 1579WN      WN11683  15.185   8.979   8.306
 1580WN      WN11684   5.009   9.508   0.813
 1581WN      WN11685  10.598  15.088  10.215
 1582WN      WN11686  15.276  10.650   0.404
 1583WN      WN11687   0.399   1.376   3.100
 1584WN      WN11688  15.276   9.204   1.559
 1585WN      WN11689   7.960  11.764   1.831
 1586WN      WN11690  14.927  15.781   9.598
 1587WN      WN11691  15.477   9.003  11.043
 1588WN      WN11692   8.007   4.929   2.371
 1589WN      WN11693  13.231   2.585  12.284
 1590WN      WN11694   9.702  11.095   4.249
 1591WN      WN11695  14.072  13.229   4.426
 1592WN      WN11696   7.393   3.817   9.654
 1593WN      WN11697  14.325  11.858  11.540
 1594WN      WN11698  12.900  12.406   2.934
 1595WN      WN11699  13.510   9.067   2.238
 1596WN      WN11700  11.152   5.632   3.117
 1597WN      WN11701   4.062  12.236   9.443
 1598WN      WN11702   6.218  15.705  13.139
 1599WN      WN11703   4.303  11.151  10.166
 1600WN      WN11704  14.376   9.674   2.459
 1601WN      WN11705   1.911  14.237  10.375
 1602WN      WN11706   8.115   1.672   2.917
 1603WN      WN11707   7.797  14.790  11.409
 1604WN      WN11708   6.839   8.187   9.095
 1605WN      WN11709  10.245   7.525   8.898
 1606WN      WN11710   4.201   0.497   1.777
 1607WN      WN11711   5.002  13.679   1.637
 1608WN      WN11712  12.116   0.414  11.145
 1609WN      WN11713   9.284  14.899   1.656
 1610WN      WN11714   1.805  13.394   1.250
 1611WN      WN11715   6.025  14.918   2.600
 1612WN      WN11716   0.719   6.367  10.552
 1613WN      WN11717   2.861   1.547   2.401
 1614WN      WN11718  13.873   3.602   8.968
 1615WN      WN11719   1.021   2.580   3.993
 1616WN      WN11720   8.188   8.930   0.939
 1617WN      WN11721   0.137   5.989  13.233
 1618WN      WN11722   0.002   2.394   9.930
 1619WN      WN11723   6.845   0.888   9.373
 1620WN      WN11724  14.485  14.931  13.480
 1621WN      WN11725   0.292  12.073  11.250
 1622WN      WN11726  12.243   9.094   0.729
 1623WN      WN11727  15.195  12.718   4.581
 1624WN      WN11728   2.502  12.596   2.982
 1625WN      WN11729   0.318   1.539   2.623
 1626WN      WN11730   5.612   1.259   2.323
 1627WN      WN11731   1.765   5.586  10.713
 1628WN      WN11732   2.029  10.263  13.552
 1629WN      WN11733  13.649   7.111  13.005
 1630WN      WN11734  12.678  10.943   1.129
 1631WN      WN11735   4.662   8.336   0.729
 1632WN      WN11736  11.968  12.717   2.457
 1633WN      WN11737  10.118   7.109   0.536
 1634WN      WN11738  10.136   3.197   0.875
 1635WN      WN11739   0.978   6.693   3.826
 1636WN      WN11740   8.800   1.521   2.139
 1637WN      WN11741   7.821  10.834   3.867
 1638WN      WN11742  12.224  11.164   1.272
 1639WN      WN11743   6.973   5.270   2.833
 1640WN      WN11744   8.631  14.276   2.123
 1641WN      WN11745   2.145   5.009   1.312
 1642WN      WN11746  12.306   8.769  13.113
 1643WN      WN11747  13.080   1.986   1.031
 1644WN      WN11748   3.379   3.227  12.548
 1645WN      WN11749   0.688   5.013   1.325
 1646WN      WN11750  14.051   1.016  13.435
 1647WN      WN11751  12.961   2.039   9.487
 1648WN      WN11752   0.436   3.607  11.129
 1649WN      WN11753   1.946  11.586  12.399
 1650WN      WN11754  11.288   1.960   0.312
 1651WN      WN11755   3.319   8.309   3.138
 1652WN      WN11756   9.298   0.967   2.660
 1653WN      WN11757   5.822  13.573   1.096
 1654WN      WN11758   7.467   6.895  11.228
 1655WN      WN11759  15.736   0.795   2.279
 1656WN      WN11760   1.245  15.509  12.704
 1657WN      WN11761   8.640   1.489  10.377
 1658WN      WN11762  11.557   2.313  11.597
 1659WN      WN11763   3.264  12.378   0.572
 1660WN      WN11764   8.697  13.030   1.793
 1661WN      WN11765   3.250   0.981  10.297
 1662WN      WN11766  14.618  10.454   8.286
 1663WN      WN11767  13.330   9.766  12.911
 1664WN      WN11768  12.018  10.717  11.723
 1665WN      WN11769  13.965   9.980   3.196
 1666WN      WN11770  10.467   5.841  13.004
 1667WN      WN11771   7.576   5.409   0.940
 1668WN      WN11772   8.482   7.901   1.884
 1669WN      WN11773   3.193  12.624  13.217
 1670WN      WN11774  12.035   7.064   4.012
 1671WN      WN11775   1.423   6.319  11.233
 1672WN      WN11776  12.867   6.970   3.676
 1673WN      WN11777   7.763  15.235   3.006
 1674WN      WN11778   0.036   5.533   3.662
 1675WN      WN11779  13.229  14.432   9.976
 1676WN      WN11780   1.839  13.919  12.978
 1677WN      WN11781   8.679  15.142  12.666
 1678WN      WN11782   2.961   9.510  10.144
 1679WN      WN11783   4.512   6.933   3.320
 1680WN      WN11784   5.665   3.456   2.855
 1681WN      WN11785  13.704   6.269  13.340
 1682WN      WN11786  14.392   7.119   0.363
 1683WN      WN11787   7.044  15.341  13.266
 1684WN      WN11788  15.529   1.994  12.407
 1685WN      WN11789   1.076   9.395   1.647
 1686WN      WN11790   4.548   2.539   0.423
 1687WN      WN11791   9.934  13.706  10.012
 1688WN      WN11792   6.146  13.308   0.795
 1689WN      WN11793  12.492   1.429   1.426
 1690WN      WN11794  12.358   9.535   3.446
 1691WN      WN11795   6.587  10.147   1.670
 1692WN      WN11796  11.706   5.718   2.424
 1693WN      WN11797   7.789  10.059   0.339
 1694WN      WN11798  13.348  13.702   9.132
 1695WN      WN11799  12.591   9.188  13.350
 1696WN      WN11800   4.218   0.728  13.091
 1697WN      WN11801   4.037  10.509   0.863
 1698WN      WN11802  15.026   5.244  13.149
 1699WN      WN11803   7.289   8.976   9.538
 1700WN      WN11804   8.049   5.205   4.168
 1701WN      WN11805  13.472  15.067  11.819
 1702WN      WN11806   6.800   2.524   9.600
 1703WN      WN11807  11.333   9.680  12.462
 1704WN      WN11808  13.354   9.755   1.461
 1705WN      WN11809   9.007   5.762   3.202
 1706WN      WN11810   8.499   2.333  10.085
 1707WN      WN11811   1.061  15.498   2.389
 1708WN      WN11812   0.265   9.138  13.411
 1709WN      WN11813   8.456  12.795  12.337
 1710WN      WN11814   0.666  13.454   3.437
 1711WN      WN11815   4.833   7.775  13.497
 1712WN      WN11816  13.429   5.253   9.397
 1713WN      WN11817   7.429   7.642  10.166
 1714WN      WN11818   1.051   0.930   9.891
 1715WN      WN11819  12.642   1.533  11.962
 1716WN      WN11820  14.138   8.865   9.855
 1717WN      WN11821   5.168   5.122  11.825
 1718WN      WN11822   4.905  13.054  10.427
 1719WN      WN11823   7.676  11.878  12.302
 1720WN      WN11824  10.221   6.782   0.120
 1721WN      WN11825   8.149   6.272   2.807
 1722WN      WN11826   2.100   5.313  10.366
 1723WN      WN11827   8.684   1.433   3.813
 1724WN      WN11828   5.394  11.166  10.375
 1725WN      WN11829  14.837   5.411  11.728
 1726WN      WN11830   3.278   4.478   4.188
 1727WN      WN11831   4.880  10.563   1.529
 1728WN      WN11832  13.296   2.814  13.366
 1729WN      WN11833  15.666  11.455  10.770
 1730WN      WN11834  14.609   2.162   9.926
 1731WN      WN11835   3.707  13.907   2.414
 1732WN      WN11836   4.681   2.078   1.183
 1733WN      WN11837   9.355   5.043   3.952
 1734WN      WN11838   9.638   7.847  12.430
 1735WN      WN11839  15.217   9.744  11.586
 1736WN      WN11840   4.999  12.468   2.929
 1737WN      WN11841   9.014  12.032  12.239
 1738WN      WN11842   9.470  11.108   0.980
 1739WN      WN11843   7.400   3.065   9.839
 1740WN      WN11844  12.646   2.758   9.963
 1741WN      WN11845   9.376  10.770   0.570
 1742WN      WN11846   8.686   6.385   3.759
 1743WN      WN11847  12.529  11.049   0.154
 1744WN      WN11848   9.082   6.614   0.208
 1745WN      WN11849  14.394  14.597   1.294
 1746WN      WN11850  12.271  13.109  13.278
 1747WN      WN11851   2.770  12.986   8.581
 1748WN      WN11852  10.209  10.909   0.260
 1749WN      WN11853   5.411  12.272   1.593
 1750WN      WN11854   7.219   6.681   0.529
 1751WN      WN11855   5.138   4.668   8.772
 1752WN      WN11856   8.848  15.344   4.177
 1753WN      WN11857   5.971   7.176   2.346
 1754WN      WN11858   7.472   2.530  11.262
 1755WN      WN11859   7.445  13.595  13.349
 1756WN      WN11860  10.650   3.440   1.387
 1757WN      WN11861   0.729   4.668   2.845
 1758WN      WN11862   6.138   7.770  10.658
 1759WN      WN11863   1.985   0.135   0.628
 1760WN      WN11864  13.551   7.754  13.245
 1761WN      WN11865   2.200  15.214  10.120
 1762WN      WN11866  14.596   7.131   1.662
 1763WN      WN11867   4.301   0.311   8.940
 1764WN      WN11868   2.702   5.831   2.264
 1765WN      WN11869   6.781   2.833   3.587
 1766WN      WN11870   4.588   8.367  10.119
 1767WN      WN11871   6.078   8.556  10.061
 1768WN      WN11872  14.534   1.723  10.843
 1769WN      WN11873  11.951  15.525  12.749
 1770WN      WN11874   6.696   0.475   3.981
 1771WN      WN11875   3.281   2.811  13.504
 1772WN      WN11876  10.376   6.068  12.151
 1773WN      WN11877  11.078   8.289  10.440
 1774WN      WN11878  14.897   2.553   3.651
 1775WN      WN11879  12.686   6.030   2.326
 1776WN      WN11880  15.499  13.138   2.157
 1777WN      WN11881   4.375  13.926  12.468
 1778WN      WN11882   9.413   0.798   4.066
 1779WN      WN11883   2.273  10.819   9.140
 1780WN      WN11884   7.180  12.606   0.305
 1781WN      WN11885   7.262  15.355   5.086
 1782WN      WN11886   3.913   1.522   9.292
 1783WN      WN11887   6.274  10.860   1.446
 1784WN      WN11888  10.864  11.451  11.255
 1785WN      WN11889   3.260  11.646   2.024
 1786WN      WN11890  12.873  14.284  11.927
 1787WN      WN11891  12.772  10.762   9.711
 1788WN      WN11892  14.795   5.579   2.223
 1789WN      WN11893  12.534   9.075   9.126
 1790WN      WN11894   7.193  11.609   9.561
 1791WN      WN11895  12.478   6.096   2.825
 1792WN      WN11896  11.246   3.829  12.791
 1793WN      WN11897  13.981   2.825   9.374
 1794WN      WN11898   1.763  11.885  13.190
 1795WN      WN11899   4.329  14.806  10.854
 1796WN      WN11900   2.148   9.524  11.267
 1797WN      WN11901   0.442   4.817  12.991
 1798WN      WN11902   7.938   4.174  11.779
 1799WN      WN11903   0.799  14.570  12.831
 1800WN      WN11904  13.225   5.367   2.136
 1801WN      WN11905   9.524   2.645   9.201
 1802WN      WN11906  12.589  15.669   0.668
 1803WN      WN11907  13.955  11.584  11.898
 1804WN      WN11908  10.128  10.105   9.372
 1805WN      WN11909   9.369  10.938   9.975
 1806WN      WN11910  14.479   7.323  11.630
 1807WN      WN11911  13.828  10.609  11.177
 1808WN      WN11912   3.154   9.667   0.322
 1809WN      WN11913   8.987  14.813  12.395
 1810WN      WN11914   1.630   3.213   2.394
 1811WN      WN11915   6.969   2.011   4.692
 1812WN      WN11916   2.332   1.377   2.507
 1813WN      WN11917  14.144   2.402   9.932
 1814WN      WN11918   4.967  15.602   1.720
 1815WN      WN11919   2.806   5.661   1.003
 1816WN      WN11920   4.792   4.767   9.871
 1817WN      WN11921  13.159   3.817  13.484
 1818WN      WN11922   0.349  12.415   2.316
 1819WN      WN11923   0.402   3.791   4.271
 1820WN      WN11924   2.151   6.744   0.769
 1821WN      WN11925  10.226   2.944   9.677
 1822WN      WN11926   5.041   7.360   9.434
 1823WN      WN11927   7.731   4.364   4.553
 1824WN      WN11928   6.805   9.925   3.735
 1825WN      WN11929   7.407  12.762  12.454
 1826WN      WN11930   0.267   4.587   2.579
 1827WN      WN11931  15.396   5.549   9.228
 1828WN      WN11932  12.080   6.297  12.443
 1829WN      WN11933   6.016  10.836   2.591
 1830WN      WN11934  13.845  12.210   1.515
 1831WN      WN11935   6.624   9.596  13.413
 1832WN      WN11936   0.306  12.786   0.972
 1833WN      WN11937  12.138   9.961   3.005
 1834WN      WN11938   3.693   7.772  13.010
 1835WN      WN11939   1.608   0.950   3.729
 1836WN      WN11940   5.627  11.521   3.633
 1837WN      WN11941  12.780  13.009   9.831
 1838WN      WN11942  10.540   8.551   0.019
 1839WN      WN11943   6.297  10.466  13.027
 1840WN      WN11944  14.242   2.163   3.255
 1841WN      WN11945  14.349   5.973   4.230
 1842WN      WN11946   7.105  15.422   4.510
 1843WN      WN11947   6.607   1.683  11.794
 1844WN      WN11948  13.887   5.727   2.548
 1845WN      WN11949   8.214   4.051   1.121
 1846WN      WN11950   4.298   9.142  10.337
 1847WN      WN11951  13.520   9.912   0.161
 1848WN      WN11952   8.562   9.180  12.503
 1849WN      WN11953   4.741  10.614   0.102
 1850WN      WN11954   5.954  13.333  13.343
 1851WN      WN11955   2.874  11.185  12.411
 1852WN      WN11956  12.044  13.830  12.756
 1853WN      WN11957   5.336  11.789   1.195
 1854WN      WN11958   4.538  12.303   9.194
 1855WN      WN11959   5.806  13.091   2.227
 1856WN      WN11960   7.527  11.754   2.157
 1857WN      WN11961  11.216  11.126   0.519
 1858WN      WN11962  15.150   6.678  11.639
 1859WN      WN11963   9.740  11.122  11.268
 1860WN      WN11964  14.655   9.422   3.176
 1861WN      WN11965   0.859   3.028  11.330
 1862WN      WN11966   1.234  10.391  12.546
 1863WN      WN11967   6.955   1.259   9.735
 1864WN      WN11968  13.434   0.908  10.838
 1865WN      WN11969  13.924  14.199   9.516
 1866WN      WN11970  14.141  14.470  10.673
 1867WN      WN11971   5.304   0.370   2.495
 1868WN      WN11972  15.384   3.026  11.231
 1869WN      WN11973  13.996  12.997   0.528
 1870WN      WN11974   0.425   9.336  10.336
 1871WN      WN11975   7.773   9.517   1.328
 1872WN      WN11976  12.027  14.298   2.869
 1873WN      WN11977  15.000  12.401  11.953
 1874WN      WN11978  11.795  12.238  11.879
 1875WN      WN11979   5.031  13.334   9.996
 1876WN      WN11980   8.586   9.767  10.095
 1877WN      WN11981  15.554  12.610   2.235
 1878WN      WN11982   4.559   7.613  13.076
 1879WN      WN11983   4.928   5.688  10.755
 1880WN      WN11984   6.494   1.995  10.839
 1881WN      WN11985  12.194  11.500   9.832
 1882WN      WN11986  11.742  12.255   2.372
 1883WN      WN11987   5.226   1.344   5.179
 1884WN      WN11988   9.620  11.259  12.597
 1885WN      WN11989  14.023  13.642   9.526
 1886WN      WN11990   3.788  10.492  12.208
 1887WN      WN11991   0.100   8.111   2.930
 1888WN      WN11992   7.968  10.132   2.752
 1889WN      WN11993   9.926   4.314   9.537
 1890WN      WN11994   4.684   6.555  10.991
 1891WN      WN11995  15.110   4.991   2.905
 1892WN      WN11996  14.287   7.130  13.465
 1893WN      WN11997  11.832   9.693   3.416
 1894WN      WN11998   2.996   4.038  11.889
 1895WN      WN11999   1.045  11.240   0.521
 1896WN      WN12000  10.237   3.137  13.028
 1897WN      WN12001  12.072   6.142  10.386
 1898WN      WN12002   1.432   5.489   0.287
 1899WN      WN12003   4.272   0.462   4.554
 1900WN      WN12004   1.573   6.129  12.165
 1901WN      WN12005   3.253   2.829   9.059
 1902WN      WN12006   8.983   4.789   9.775
 1903WN      WN12007   5.196   1.675  12.684
 1904WN      WN12008  15.199   0.973   9.405
 1905WN      WN12009  13.254   7.913  12.722
 1906WN      WN12010   4.140   9.724  12.575
 1907WN      WN12011  12.482   1.476   1.981
 1908WN      WN12012  10.938   1.001   1.223
 1909WN      WN12013  11.431  12.403  10.277
 1910WN      WN12014   4.541   4.240   3.959
 1911WN      WN12015  11.703   1.732  11.141
 1912WN      WN12016  15.216  11.241   3.656
 1913WN      WN12017   6.300   2.921   3.370
 1914WN      WN12018   1.921   5.981   9.788
 1915WN      WN12019  10.067   0.127   1.761
 1916WN      WN12020  11.664   0.639  11.249
 1917WN      WN12021   8.166  12.459  10.477
 1918WN      WN12022  15.596   4.614   9.707
 1919WN      WN12023   1.917   4.934   0.137
 1920WN      WN12024  15.638   9.898   8.794
 1921WN      WN12025   9.746  13.369   3.328
 1922WN      WN12026   1.717  10.595  13.278
 1923WN      WN12027   2.907   6.636  11.470
 1924WN      WN12028   7.733   2.605   4.398
 1925WN      WN12029   7.741   6.485   9.581
 1926WN      WN12030   2.871   4.031   1.383
 1927WN      WN12031   3.051  13.148  13.026
 1928WN      WN12032   4.766  15.335   2.145
 1929WN      WN12033   2.679  13.568   2.759
 1930WN      WN12034  15.432  15.143  11.774
 1931WN      WN12035   1.063  12.465   3.556
 1932WN      WN12036   5.829   8.211  12.627
 1933WN      WN12037   3.450  12.211  10.550
 1934WN      WN12038  15.416   3.479  13.478
 1935WN      WN12039   5.403   9.665   1.430
 1936WN      WN12040  10.339  14.157   2.467
 1937WN      WN12041   2.645  13.282  12.594
 1938WN      WN12042  12.686   5.382   2.058
 1939WN      WN12043  12.552   7.308   1.651
 1940WN      WN12044   0.321  10.170   3.453
 1941WN      WN12045  15.216  15.168  12.867
 1942WN      WN12046  11.387   0.691  11.824
 1943WN      WN12047   8.416  11.022  13.125
 1944WN      WN12048   6.303   1.704   3.120
 1945WN      WN12049   9.992   5.039   1.766
 1946WN      WN12050  10.023   3.886  12.101
 1947WN      WN12051   2.035   7.725   2.887
 1948WN      WN12052  13.839   4.076   2.034
 1949WN      WN12053  11.954  15.445   1.830
 1950WN      WN12054   4.561   1.404   3.231
 1951WN      WN12055   5.374   2.768   9.444
 1952WN      WN12056   3.990   5.279  10.916
 1953WN      WN12057   2.378  14.568   0.284
 1954WN      WN12058   4.058  12.249   3.564
 1955WN      WN12059  13.931   9.168  10.309
 1956WN      WN12060   9.177  15.393  12.232
 1957WN      WN12061  11.330   8.076   4.060
 1958WN      WN12062   2.380  15.523   4.070
 1959WN      WN12063   7.053   4.425  12.819
 1960WN      WN12064   0.761   3.529   0.712
 1961WN      WN12065   8.416   3.983  12.674
 1962WN      WN12066   2.850   8.447   3.002
 1963WN      WN12067   1.265   1.505  11.929
 1964WN      WN12068   8.025   4.049  13.058
 1965WN      WN12069   0.653   3.081   0.950
 1966WN      WN12070  14.218   8.351   2.386
 1967WN      WN12071   8.398   6.412   3.306
 1968WN      WN12072   4.315   7.834  13.545
 1969WN      WN12073   2.157   8.117  11.362
 1970WN      WN12074   9.600   9.688   9.256
 1971WN      WN12075   9.987  12.165   3.498
 1972WN      WN12076   6.259  11.265   0.806
 1973WN      WN12077   5.151   4.141  12.867
 1974WN      WN12078   0.757  13.107   0.208
 1975WN      WN12079   7.633   0.908   4.083
 1976WN      WN12080   5.182   2.872   0.726
 1977WN      WN12081   2.126  10.258  13.067
 1978WN      WN12082   1.386   1.900   4.364
 1979WN      WN12083   6.634   2.248   9.192
 1980WN      WN12084   9.491  15.612   5.221
 1981WN      WN12085   2.345  13.935   8.993
 1982WN      WN12086   4.716  11.178  10.914
 1983WN      WN12087   9.676  11.333  10.156
 1984WN      WN12088   8.594  15.503   0.347
 1985WN      WN12089  15.525   6.668   1.699
 1986WN      WN12090   6.228   0.192  10.516
 1987WN      WN12091  11.978  11.723  12.693
 1988WN      WN12092   1.922   5.226  11.771
 1989WN      WN12093   6.916  14.114  12.136
 1990WN      WN12094   6.717   6.107   8.199
 1991WN      WN12095   4.030   3.806  12.620
 1992WN      WN12096   4.782   9.026   1.834
 1993WN      WN12097   1.820  11.074   2.750
 1994WN      WN12098   2.726   7.165  11.455
 1995WN      WN12099   7.044   8.518  13.004
 1996WN      WN12100   4.897   5.679  10.010
 1997WN      WN12101  12.791   0.073  11.784
 1998WN      WN12102   9.865   7.147  10.329
 1999WN      WN12103   3.329  14.898  10.709
 2000WN      WN12104   3.129  14.683  13.375
 2001WN      WN12105  15.378   6.902  11.197
 2002WN      WN12106   0.494   7.313   1.045
 2003WN      WN12107  12.642   2.975   4.048
 2004WN      WN12108   9.497   4.834  13.352
 2005WN      WN12109  15.637   5.779   1.777
 2006WN      WN12110  13.487   4.084  12.273
 2007WN      WN12111   4.099   7.053  12.049
 2008WN      WN12112   1.888  12.702  13.067
 2009WN      WN12113   6.065  13.880   3.990
 2010WN      WN12114  12.094  15.516  10.769
 2011WN      WN12115  10.322  10.202  12.123
 2012WN      WN12116  11.423  14.636  11.591
 2013WN      WN12117   1.610  13.491   3.623
 2014WN      WN12118   6.556  14.882  12.342
 2015WN      WN12119  11.535   5.742  12.966
 2016WN      WN12120   5.012  11.301  11.341
 2017WN      WN12121   4.823   7.959  12.530
 2018WN      WN12122   2.606   3.567   4.145
 2019WN      WN12123  15.524   8.128   3.790
 2020WN      WN12124   0.659  15.256   2.104
 2021WN      WN12125   4.147   6.000   2.936
 2022WN      WN12126   9.645   3.196   4.625
 2023WN      WN12127   0.829  12.891   4.127
 2024WN      WN12128   9.195   9.583  13.593
 2025WN      WN12129   0.981  11.681   3.491
 2026WN      WN12130  12.500   8.850   2.954
 2027WN      WN12131   1.978   1.803   3.690
 2028WN      WN12132  11.329   7.049   1.251
 2029WN      WN12133   8.334  15.426   4.316
 2030WN      WN12134  14.408  11.319  10.677
 2031WN      WN12135   9.969   6.336   0.046
 2032WN      WN12136   8.391  12.344   0.635
 2033WN      WN12137   4.875   8.434  12.778
 2034WN      WN12138  13.071   7.107   2.196
 2035WN      WN12139   7.407   3.891   0.548
 2036WN      WN12140   9.844   7.785   1.376
 2037WN      WN12141   8.011   4.476  11.221
 2038WN      WN12142  15.133   9.154   2.068
 2039WN      WN12143   6.497   3.613   0.664
 2040WN      WN12144  14.236  11.042  13.201
 2041WN      WN12145   5.650  10.472   2.570
 2042WN      WN12146   5.317   5.521   3.679
 2043WN      WN12147   5.098  10.396  13.380
 2044WN      WN12148   7.919   4.700   8.907
 2045WN      WN12149  12.542   1.347   0.356
 2046WN      WN12150  12.036   0.885  10.808
 2047WN      WN12151   4.062  14.523  11.682
 2048WN      WN12152   8.444  13.246   3.757
 2049WN      WN12153   9.968   5.349  11.779
 2050WN      WN12154  14.722   7.658   8.659
 2051WN      WN12155   8.025  13.086  10.636
 2052WN      WN12156  10.039   4.735   0.021
 2053WN      WN12157   0.345   1.074  11.919
 2054WN      WN12158   2.064   2.272   5.000
 2055WN      WN12159   7.067   2.680  13.258
 2056WN      WN12160  12.525   2.819   9.317
 2057WN      WN12161   2.211  15.439  10.780
 2058WN      WN12162  10.356   9.934  11.364
 2059WN      WN12163   2.123   9.698  10.745
 2060WN      WN12164   1.911   2.184   9.459
 2061WN      WN12165   3.703  10.367  13.026
 2062WN      WN12166   6.810  12.261  10.092
 2063WN      WN12167   0.820   6.017   0.576
 2064WN      WN12168  13.585  15.310   1.202
 2065WN      WN12169   5.459   8.065   2.893
 2066WN      WN12170   2.088   4.917   9.935
 2067WN      WN12171  11.536  14.691   0.635
 2068WN      WN12172   5.269   6.807   9.452
 2069WN      WN12173   2.318  11.276   1.921
 2070WN      WN12174   6.942  10.568  11.560
 2071WN      WN12175  14.055   1.990  11.679
 2072WN      WN12176   9.534   8.593   0.427
 2073WN      WN12177  13.202   9.273  12.058
 2074WN      WN12178   0.724  13.274  12.903
 2075WN      WN12179   4.219  11.657   8.616
 2076WN      WN12180  10.874   4.469  13.303
 2077WN      WN12181   8.767   7.231   3.101
 2078WN      WN12182   7.200   4.066  12.051
 2079WN      WN12183   0.005   9.043   3.768
 2080WN      WN12184   8.080  12.324   2.633
 2081WN      WN12185   2.498   9.157  11.723
 2082WN      WN12186   8.063  15.520  13.219
 2083WN      WN12187  10.123   3.631   0.596
 2084WN      WN12188  13.898  12.245  12.667
 2085WN      WN12189   0.568   8.442   3.248
 2086WN      WN12190   8.519   5.001   4.171
 2087WN      WN12191   1.519  10.471   4.036
 2088WN      WN12192   5.508   3.106   2.478
 2089WN      WN12193   7.879   6.861   3.476
 2090WN      WN12194   6.047   7.552   0.175
 2091WN      WN12195   0.897   4.413   4.523
 2092WN      WN12196   0.061   1.395  10.624
 2093WN      WN12197  13.367   4.732  13.516
 2094WN      WN12198   2.695  13.131   0.377
 2095WN      WN12199   8.155   8.276   0.139
 2096WN      WN12200  14.285   2.055   8.939
 2097WN      WN12201  13.040   0.682   1.663
 2098WN      WN12202  11.597   0.455  12.259
 2099WN      WN12203   7.543   8.780  13.330
 2100WN      WN12204   3.662   7.946   3.249
 2101WN      WN12205  10.810   8.759  10.880
 2102WN      WN12206  10.847   3.812   1.711
 2103WN      WN12207   5.245  12.943  10.836
 2104WN      WN12208   1.633   7.715   3.703
 2105WN      WN12209  12.807   7.493   3.537
 2106WN      WN12210   9.033  14.099   1.871
 2107WN      WN12211  12.022   2.057  11.449
 2108WN      WN12212   2.946   5.294   8.915
 2109WN      WN12213  13.586   1.584   9.089
 2110WN      WN12214   2.376  13.899   2.408
 2111WN      WN12215   3.002   0.247  11.374
 2112WN      WN12216   4.800   1.308   3.951
 2113WN      WN12217  10.849   4.774   2.926
 2114WN      WN12218   8.696   0.259   2.265
 2115WN      WN12219  12.797   0.564   3.538
 2116WN      WN12220   0.228   0.832  11.473
 2117WN      WN12221   0.984   4.507   3.886
 2118WN      WN12222   6.415  14.719   1.527
 2119WN      WN12223  13.027  11.140   0.535
 2120WN      WN12224  11.934   4.414   9.378
 2121WN      WN12225  12.791   5.458  10.226
 2122WN      WN12226   9.148   4.295   3.792
 2123WN      WN12227  14.529  12.527  12.135
 2124WN      WN12228   9.239  15.190  12.704
 2125WN      WN12229  11.128   6.172   1.273
 2126WN      WN12230   0.260   8.611   2.871
 2127WN      WN12231  14.033  14.978  10.839
 2128WN      WN12232  13.025   6.869   0.012
 2129WN      WN12233   0.292  13.776  11.119
 2130WN      WN12234   3.581   7.684  11.017
 2131WN      WN12235  10.567   3.351   9.564
 2132WN      WN12236   4.066   8.046   0.377
 2133WN      WN12237   0.655  15.360  13.295
 2134WN      WN12238  11.171   1.446  10.816
 2135WN      WN12239   4.007   3.033   0.258
 2136WN      WN12240   4.916   1.836  10.292
 2137WN      WN12241   2.635  14.286  11.022
 2138WN      WN12242   9.992   5.246   3.586
 2139WN      WN12243   5.210  12.462   8.527
 2140WN      WN12244  13.826  10.688  11.717
 2141WN      WN12245  14.454   2.948   9.179
 2142WN      WN12246  11.625   4.439   1.556
 2143WN      WN12247  13.209  14.908  10.799
 2144WN      WN12248  11.697   4.821   3.558
 2145WN      WN12249   9.260  11.804   4.267
 2146WN      WN12250  12.072   9.778   1.260
 2147WN      WN12251   7.430  13.767   3.871
 2148WN      WN12252  11.347   5.630   8.613
 2149WN      WN12253  15.301   2.926  10.006
 2150WN      WN12254   6.142   7.486   1.913
 2151WN      WN12255   3.689   1.761   1.400
 2152WN      WN12256   5.579   7.948   1.905
 2153WN      WN12257   7.736   8.756   0.670
 2154WN      WN12258  11.434   9.526   2.672
 2155WN      WN12259   9.978   7.975   3.939
 2156WN      WN12260   9.223  12.676   0.658
 2157WN      WN12261   2.641   3.438   0.265
 2158WN      WN12262   2.889   8.302   3.487
 2159WN      WN12263  15.758   7.222   2.896
 2160WN      WN12264  11.853  13.368  12.494
 2161WN      WN12265   2.492   3.879   2.815
 2162WN      WN12266   4.061  10.632   9.769
 2163WN      WN12267   6.689  12.382  10.602
 2164WN      WN12268  14.743  10.844   3.068
 2165WN      WN12269   7.631  14.459  12.653
 2166WN      WN12270   0.482  11.589  11.308
 2167WN      WN12271  14.337   7.749   4.240
 2168WN      WN12272   5.119   6.205  10.932
 2169WN      WN12273  10.519   7.420   2.712
 2170WN      WN12274  11.802  13.824   4.752
 2171WN      WN12275  10.453   4.531  11.504
 2172WN      WN12276  11.923   0.699  11.689
 2173WN      WN12277   1.251  10.897   4.230
 2174WN      WN12278   9.039  12.112  10.757
 2175WN      WN12279   3.232   7.242   8.890
 2176WN      WN12280  12.849  15.340   1.618
 2177WN      WN12281   7.042   8.185  10.145
 2178WN      WN12282   8.326   9.882  13.143
 2179WN      WN12283  13.115  11.602   0.256
 2180WN      WN12284  10.824   5.253   0.588
 2181WN      WN12285   1.656   5.511   1.149
 2182WN      WN12286   3.017   4.282   2.641
 2183WN      WN12287  13.422   2.268   1.390
 2184WN      WN12288   6.153  15.337   1.479
 2185WN      WN12289   6.065  12.785  13.300
 2186WN      WN12290   6.240  13.658   0.031
 2187WN      WN12291   8.264  11.803   2.254
 2188WN      WN12292   5.703  13.501   0.590
 2189WN      WN12293   7.110   0.703  12.092
 2190WN      WN12294  14.291   3.270   0.942
 2191WN      WN12295  14.378   9.871  11.950
 2192WN      WN12296   4.775  13.068   3.713
 2193WN      WN12297   0.517   2.006   4.461
 2194WN      WN12298   9.610   8.341   4.011
 2195WN      WN12299  10.908   1.032   2.020
 2196WN      WN12300   4.079   4.316   9.243
 2197WN      WN12301   7.597   5.939   2.256
 2198WN      WN12302  15.614  10.456   1.382
 2199WN      WN12303  14.266   1.461  10.482
 2200WN      WN12304  14.695   4.528   0.396
 2201WN      WN12305  12.642   9.259   9.992
 2202WN      WN12306  12.616   7.171   0.080
 2203WN      WN12307  15.420   0.367  12.016
 2204WN      WN12308  10.871  15.137  11.191
 2205WN      WN12309   4.129   9.996   0.839
 2206WN      WN12310   1.374  11.423  11.729
 2207WN      WN12311   5.384   8.734   2.781
 2208WN      WN12312  10.867  12.091   2.861
 2209WN      WN12313  10.870   4.417  11.107
 2210WN      WN12314  12.013  14.891   0.530
 2211WN      WN12315  13.077   7.911  11.902
 2212WN      WN12316  14.912  10.159  12.254
 2213WN      WN12317  11.041   6.445   0.076
 2214WN      WN12318   4.529  10.900  11.979
 2215WN      WN12319  13.144   3.132   1.610
 2216WN      WN12320  14.750   0.013  10.109
 2217WN      WN12321  12.264   2.655   3.895
 2218WN      WN12322   2.267  10.838   2.282
 2219WN      WN12323  14.977  11.453  10.216
 2220WN      WN12324   6.003   3.492   9.434
 2221WN      WN12325  13.073   5.103  13.275
 2222WN      WN12326   8.824   0.946   2.856
 2223WN      WN12327  13.938  13.025   2.205
 2224WN      WN12328  12.651   1.239   0.900
 2225WN      WN12329   7.702   9.260   0.848
 2226WN      WN12330  12.531  14.853  13.425
 2227WN      WN12331   4.683   3.817   1.409
 2228WN      WN12332  15.025   9.406  12.535
 2229WN      WN12333   5.534  12.789   1.528
 2230WN      WN12334   1.687   3.753   2.414
 2231WN      WN12335   4.086   1.514  13.361
 2232WN      WN12336  15.038  11.015   0.696
 2233WN      WN12337   4.166   2.205   9.994
 2234WN      WN12338  11.902  12.149  10.366
 2235WN      WN12339  13.747   3.374   3.548
 2236WN      WN12340   4.078   6.185   1.868
 2237WN      WN12341   1.903   2.760   0.353
 2238WN      WN12342   4.744   3.244  10.013
 2239WN      WN12343   1.488   9.902  12.879
 2240WN      WN12344   2.055   3.704   0.808
 2241WN      WN12345  10.400   3.753   2.496
 2242WN      WN12346   6.524   3.047  12.208
 2243WN      WN12347  14.592  12.366   3.874
 2244WN      WN12348   1.043   6.499  12.276
 2245WN      WN12349   5.457   0.378  10.834
 2246WN      WN12350  13.491   6.768  10.481
 2247WN      WN12351  14.896  14.916   4.403
 2248WN      WN12352  11.470   9.315   9.072
 2249WN      WN12353   8.680   9.195  11.939
 2250WN      WN12354  11.693  11.154  11.654
 2251WN      WN12355   8.722  15.211   4.661
 2252WN      WN12356   9.585   3.524   1.362
 2253WN      WN12357   4.233   0.680   0.020
 2254WN      WN12358  10.443  12.004   0.742
 2255WN      WN12359  11.900   3.580  11.406
 2256WN      WN12360   1.426  14.724   1.703
 2257WN      WN12361  10.610   6.994   3.044
 2258WN      WN12362   2.581   8.232  10.128
 2259WN      WN12363  14.962  11.385   2.652
 2260WN      WN12364  11.991  11.931   1.131
 2261WN      WN12365  10.234  11.228   1.206
 2262WN      WN12366  13.738   0.790  10.408
 2263WN      WN12367   0.617   4.052  13.054
 2264WN      WN12368  11.175  12.511   2.688
 2265WN      WN12369  10.017  14.794   2.544
 2266WN      WN12370  12.950   9.577  10.285
 2267WN      WN12371   8.519   4.881   3.636
 2268WN      WN12372   1.042  14.600   4.797
 2269WN      WN12373   6.696   1.556   2.046
 2270WN      WN12374   3.985   9.876   0.344
 2271WN      WN12375   6.185  12.546   3.038
 2272WN      WN12376  13.629  15.037  10.524
 2273WN      WN12377   8.692   7.754  10.995
 2274WN      WN12378  14.267   4.579   3.398
 2275WN      WN12379   1.268   5.211   0.717
 2276WN      WN12380  11.086   9.020   3.967
 2277WN      WN12381  14.658   6.601  10.268
 2278WN      WN12382   7.484   5.908   0.255
 2279WN      WN12383  10.825  11.847  10.749
 2280WN      WN12384  10.464   7.951  13.072
 2281WN      WN12385   5.538  12.618   3.097
 2282WN      WN12386   7.815  10.733   4.411
 2283WN      WN12387   3.077  10.510   2.625
 2284WN      WN12388   1.423  14.010  12.600
 2285WN      WN12389   6.713  10.200  12.918
 2286WN      WN12390   8.631   3.144  10.479
 2287WN      WN12391   8.378  11.070   2.989
 2288WN      WN12392   0.389   1.415  10.208
 2289WN      WN12393   2.717   9.688  12.585
 2290WN      WN12394  15.364   7.269   3.430
 2291WN      WN12395  14.833  15.734   0.741
 2292WN      WN12396  12.558  11.641   3.412
 2293WN      WN12397   5.749  11.857   1.538
 2294WN      WN12398   8.625  14.285   1.585
 2295WN      WN12399   3.571   8.354   0.124
 2296WN      WN12400   9.124  12.592  10.534
 2297WN      WN12401   9.187   6.892  12.495
 2298WN      WN12402   5.530  14.072  13.005
 2299WN      WN12403   2.342   4.166   1.344
 2300WN      WN12404   3.872   4.725   4.000
 2301WN      WN12405  10.911   5.874   9.757
 2302WN      WN12406   8.902  14.115  10.594
 2303WN      WN12407   7.722   8.848   1.183
 2304WN      WN12408   9.498   4.362   9.830
 2305WN      WN12409  12.268  14.699   1.401
 2306WN      WN12410   2.336   4.514   4.249
 2307WN      WN12411   3.248   4.318   1.087
 2308WN      WN12412  10.189  12.721  12.475
 2309WN      WN12413   0.486   2.577   2.953
 2310WN      WN12414   6.677  12.556   4.216
 2311WN      WN12415  13.195   3.129   9.477
 2312WN      WN12416   2.992   5.496   2.562
 2313WN      WN12417   7.537   2.374  12.482
 2314WN      WN12418  13.271  11.856   4.023
 2315WN      WN12419  12.909   2.849   0.681
 2316WN      WN12420  13.150   1.444  11.884
 2317WN      WN12421   5.975   7.345   0.646
 2318WN      WN12422   5.326   2.647  11.417
 2319WN      WN12423  13.729  14.557   0.696
 2320WN      WN12424   4.939  14.568  11.159
 2321WN      WN12425   4.040  14.928  11.295
 2322WN      WN12426   2.393   1.198   4.101
 2323WN      WN12427  13.185   5.315   0.759
 2324WN      WN12428   9.057  14.369  12.666
 2325WN      WN12429   3.115   2.457   1.132
 2326WN      WN12430   0.716   2.210  12.727
 2327WN      WN12431   8.419   1.950   1.350
 2328WN      WN12432  12.682  13.946  12.297
 2329WN      WN12433   8.202   7.467  12.969
 2330WN      WN12434   2.755  13.977  10.607
 2331WN      WN12435  12.852  11.966  12.556
 2332WN      WN12436  11.434  14.552  12.378
 2333WN      WN12437   8.152  13.681  13.597
 2334WN      WN12438   5.897  14.388   3.860
 2335WN      WN12439  10.342   9.827  13.556
 2336WN      WN12440  11.308  13.365  11.859
 2337WN      WN12441   1.716  11.430  12.918
 2338WN      WN12442   1.222  10.056  10.670
 2339WN      WN12443   9.968   7.689  11.074
 2340WN      WN12444  10.073   7.961  12.152
 2341WN      WN12445   2.869  14.621   3.348
 2342WN      WN12446  15.000   1.561   1.576
 2343WN      WN12447   3.885   4.613   2.793
 2344WN      WN12448   8.403  12.523   4.547
 2345WN      WN12449   7.559   4.744   9.278
 2346WN      WN12450   8.945  10.350   3.489
 2347WN      WN12451   8.914   9.915  13.047
 2348WN      WN12452   5.902   7.907   3.117
 2349WN      WN12453   2.807  13.358   3.355
 2350WN      WN12454   5.719  14.828  11.113
 2351WN      WN12455   9.688   8.541  11.439
 2352WN      WN12456  11.619   2.461  12.116
 2353WN      WN12457  14.416   6.225  10.008
 2354PP      PP12458   0.447   6.298  10.070
 2355PP      PP12459  10.498  10.521   3.060
 2356PP      PP12460  10.989   4.620  11.579
 2357PP      PP12461   1.674  15.552   0.698
 2358PP      PP12462  13.218  11.606  12.464
 2359PP      PP12463  13.883   7.913  11.012
 2360PP      PP12464   3.151   3.522   0.472
 2361PP      PP12465  15.272  11.453   1.518
 2362PP      PP12466   9.286   6.249   0.963
 2363PP      PP12467  11.912  15.242   3.663
 2364PP      PP12468  12.894  12.684   0.295
 2365PP      PP12469   4.381  12.303  10.752
 2366PP      PP12470  14.558  11.544   4.410
 2367PP      PP12471   8.107   8.297   1.884
 2368PP      PP12472  15.625  13.043   4.462
 2369PP      PP12473   6.617  15.772   9.240
 2370PP      PP12474  11.173   4.266   2.841
 2371PP      PP12475  12.106  10.166  10.065
 2372PP      PP12476   0.701  14.978   0.461
 2373PP      PP12477   4.963  15.422  11.150
 2374PP      PP12478  10.559   1.517  10.933
 2375PP      PP12479  13.939   6.199   1.537
 2376PP      PP12480  11.987   0.252  13.482
 2377PP      PP12481   9.728   5.546  12.325
 2378PP      PP12482   2.444   0.374   1.705
 2379PP      PP12483  13.843  10.681   3.725
 2380PP      PP12484   5.481   6.273   2.254
 2381PP      PP12485  14.754   1.291   2.080
 2382PP      PP12486   5.384   6.280   1.317
 2383PP      PP12487   7.403   4.427   0.540
 2384PP      PP12488   2.190  10.632   3.297
 2385PP      PP12489   2.621  14.800   1.984
 2386PP      PP12490   5.651   1.121  13.479
 2387PP      PP12491   9.583   0.619  10.829
 2388PP      PP12492   0.947   4.611  12.230
 2389PP      PP12493   1.365   0.184  10.594
 2390PP      PP12494   6.841   3.985  11.398
 2391PP      PP12495   3.475   7.735  10.266
 2392PP      PP12496  11.925   8.786   0.401
 2393PP      PP12497  14.783   1.031   2.556
 2394PP      PP12498   2.752   4.589  13.579
 2395PP      PP12499   3.422   1.047   5.106
 2396PP      PP12500   4.316   2.433  10.498
 2397PP      PP12501   1.906  12.735   1.427
 2398PP      PP12502  13.103  10.425   2.117
 2399PP      PP12503   0.592  10.199  11.854
 2400PP      PP12504  11.976  14.914   1.893
 2401PP      PP12505   4.622  14.550   1.155
 2402PP      PP12506   1.208   9.093   4.134
 2403PP      PP12507   0.814   1.599   2.485
 2404PP      PP12508   1.904   2.299  10.660
 2405PP      PP12509   2.954   5.483   9.821
 2406PP      PP12510   2.041   3.224   0.551
 2407PP      PP12511   0.735   3.318   0.218
 2408PP      PP12512   2.504   6.454   1.444
 2409PP      PP12513  14.518   1.959  12.879
 2410PP      PP12514  12.227  14.442   1.861
 2411PP      PP12515   1.137  15.566   2.914
 2412PP      PP12516   8.684   7.252   4.149
 2413PP      PP12517   3.150  14.979   1.058
 2414PP      PP12518  10.711  13.764   1.193
 2415PP      PP12519  13.922   3.053  12.432
 2416PP      PP12520  10.021   4.733   0.990
 2417PP      PP12521  12.929  10.472  13.285
 2418PP      PP12522   0.532   0.131   2.440
 2419PP      PP12523   4.291  13.926  10.662
 2420PP      PP12524   9.565   2.505   3.454
 2421PP      PP12525   7.477   5.109   0.470
 2422PP      PP12526   6.033  14.235  10.190
 2423PP      PP12527   6.162  10.448   1.753
 2424PP      PP12528   2.429   7.657   0.255
 2425PP      PP12529   6.932   9.243   9.249
 2426PP      PP12530  10.345  15.332  10.592
 2427PP      PP12531  13.728   3.197   9.696
 2428PP      PP12532  11.923   1.092  11.288
 2429PP      PP12533  14.185  13.481  10.396
 2430PP      PP12534   7.725   8.980   2.534
 2431PP      PP12535  12.488  14.833   0.332
 2432PP      PP12536   1.260  12.206   2.390
 2433PP      PP12537   5.274  15.626   1.148
 2434PP      PP12538  12.972   8.786   3.176
 2435PP      PP12539  12.243   1.244   4.227
 2436PP      PP12540   3.314   3.520   2.217
 2437PP      PP12541   5.099   0.733   1.666
 2438PP      PP12542   9.934  12.690   1.237
 2439PP      PP12543   5.949  13.698   1.604
 2440PP      PP12544   6.827   6.916   8.859
 2441PP      PP12545   5.052  12.041   8.784
 2442PP      PP12546   2.555   5.552  12.542
 2443PP      PP12547  14.193   5.330  12.571
 2444PP      PP12548  10.382   7.520  12.208
 2445PP      PP12549  11.702  14.996  11.834
 2446PP      PP12550  10.387   2.699   9.241
 2447PP      PP12551   7.367   7.597   4.023
 2448PP      PP12552   3.324  10.443   3.566
 2449PP      PP12553   2.562  13.105  10.379
 2450PP      PP12554   2.878   2.769   3.368
 2451PP      PP12555   8.642   0.196   2.915
 2452PP      PP12556   5.358   6.847  12.718
 2453PP      PP12557   8.395  15.781  11.942
 2454PP      PP12558   7.660   7.092   2.540
 2455PP      PP12559   1.147  10.753   1.717
 2456PP      PP12560   0.639   2.036  11.387
 2457PP      PP12561   4.214   5.594   0.496
 2458PP      PP12562  12.584   7.339   2.402
 2459PP      PP12563  11.208   5.139   8.477
 2460PP      PP12564   8.125   5.490   3.102
 2461PP      PP12565   7.229   2.668   4.664
 2462PP      PP12566   4.874   8.524   3.368
 2463PP      PP12567   9.424   4.846   9.036
 2464PP      PP12568  11.996   7.908  10.878
 2465PP      PP12569   7.564   7.013   1.334
 2466PP      PP12570  10.144  11.428  11.257
 2467PP      PP12571   6.683   6.768   2.543
 2468PP      PP12572  10.108  11.456   9.838
 2469PP      PP12573   1.920  14.536   1.528
 2470PP      PP12574   4.675   4.048   9.826
 2471PP      PP12575   2.595   5.413  10.212
 2472PP      PP12576   1.068   1.375   2.913
 2473PP      PP12577  13.074  12.194   4.356
 2474PP      PP12578   8.631  11.052   1.955
 2475PP      PP12579   9.884   4.434   3.297
 2476PP      PP12580  11.966   3.052  12.637
 2477PP      PP12581   5.841  11.861  11.500
 2478PP      PP12582   1.442   2.578  13.180
 2479PP      PP12583   6.932  15.174   3.126
 2480PP      PP12584   9.021   7.143   0.189
 2481PP      PP12585   7.124   1.586   5.057
 2482PP      PP12586   3.943   2.636   1.581
 2483PP      PP12587   8.411   1.914   4.621
 2484PP      PP12588   4.070  11.548   2.695
 2485PP      PP12589  14.215   1.885   9.736
 2486PP      PP12590  13.019   9.432   8.962
 2487PP      PP12591   1.339   6.945  13.431
 2488PP      PP12592   6.954  13.794   4.084
 2489PP      PP12593   0.183   8.923   0.748
 2490PP      PP12594  14.299   2.412  11.407
 2491PP      PP12595   0.744   6.422   4.225
 2492PP      PP12596   6.395  11.478  11.874
 2493PP      PP12597   9.721   8.323   8.366
 2494PP      PP12598   4.472   0.439  12.725
 2495PP      PP12599  13.445   3.218   3.951
 2496PP      PP12600   1.702   5.010   1.055
 2497PP      PP12601   5.397  13.088   2.941
 2498PP      PP12602  14.045  11.116   9.467
 2499PP      PP12603   9.221   0.836   1.734
 2500PP      PP12604   1.483   5.142   8.405
 2501PP      PP12605   5.772   5.675  11.666
 2502PP      PP12606   7.979  11.641  10.403
 2503PP      PP12607  14.348   8.854  13.038
 2504PP      PP12608  10.479  11.163  13.153
 2505PP      PP12609   7.397  12.473  11.618
 2506PP      PP12610  10.513   3.217  13.514
 2507PP      PP12611   0.408   1.251  13.266
 2508PP      PP12612  14.283   3.370   8.698
 2509PP      PP12613  13.657   5.368  11.441
 2510PP      PP12614   2.298   6.982  11.230
 2511PP      PP12615   7.806  14.425  11.789
 2512PP      PP12616  13.394   4.391   2.865
 2513PP      PP12617  11.995   9.385  10.365
 2514PP      PP12618   3.261   4.276   1.633
 2515PP      PP12619   0.474   5.360  10.556
 2516PP      PP12620  13.133  11.353   4.038
 2517PP      PP12621  13.769   1.206  10.088
 2518PP      PP12622   8.245  11.952  13.267
 2519PP      PP12623   8.905   6.547   9.138
 2520PP      PP12624   5.919   1.355  12.447
 2521PP      PP12625   6.246   9.768   3.580
 2522PP      PP12626  10.818   9.066   1.306
 2523PP      PP12627   8.659  15.378  12.208
 2524PP      PP12628   7.398   9.783   3.893
 2525PP      PP12629  10.774   4.891   1.368
 2526PP      PP12630   7.992   0.929   2.316
 2527PP      PP12631   9.244   1.743   1.933
 2528PP      PP12632   1.807   9.353   3.651
 2529PP      PP12633   9.730   2.153  12.849
 2530PP      PP12634   1.172   7.973  12.040
 2531PP      PP12635   5.156   3.972   9.408
 2532PP      PP12636  10.553   1.042  13.417
 2533PP      PP12637   6.695   1.487  10.783
 2534PP      PP12638   2.439  15.005   4.703
 2535PP      PP12639   7.032   4.226   9.430
 2536PP      PP12640   6.259  14.905  11.905
 2537PP      PP12641  12.891  14.198   0.531
 2538PP      PP12642   2.704  13.764   9.389
 2539PP      PP12643  12.920   8.908  12.325
 2540PP      PP12644   9.597   7.650   4.049
 2541PP      PP12645  15.486   3.225   0.841
 2542PP      PP12646   5.549   2.537   9.915
 2543PP      PP12647  14.457   4.223  10.458
 2544PP      PP12648   8.808  13.586  12.989
 2545PP      PP12649   4.659   9.838   1.002
 2546PP      PP12650   7.155  13.864   0.694
 2547PP      PP12651  12.256   6.044  11.621
 2548PP      PP12652  13.798   6.952   9.571
 2549PP      PP12653   5.672  14.007   0.852
 2550PP      PP12654  11.756   2.243  11.026
 2551PP      PP12655   0.396   7.271   3.828
 2552PP      PP12656   4.508   0.956  11.191
 2553PP      PP12657  11.827   1.487  12.049
 2554PP      PP12658   7.640  11.795   9.359
 2555PP      PP12659   2.497   5.744   8.483
 2556PP      PP12660   5.753  14.610  10.634
 2557PP      PP12661   0.054  14.031   4.156
 2558PP      PP12662   8.979   8.377   0.683
 2559PP      PP12663   1.544  14.899  11.624
 2560PP      PP12664   3.271   2.114   9.518
 2561PP      PP12665   4.851   5.132  12.600
 2562PP      PP12666   7.966   2.960   4.052
 2563PP      PP12667   1.357   3.613  13.162
 2564PP      PP12668   8.918   5.113  12.255
 2565PP      PP12669   1.215  13.968  13.583
 2566PP      PP12670  14.667   5.026  10.698
 2567PP      PP12671   4.256   6.463   3.199
 2568PP      PP12672   4.928   2.419   4.486
 2569PP      PP12673  11.027  13.588  11.470
 2570PP      PP12674   0.403   7.211  11.066
 2571PP      PP12675  15.294   2.967  13.602
 2572PP      PP12676   4.300   0.938   1.055
 2573PP      PP12677   5.626  10.923  11.207
 2574PP      PP12678   6.600  13.776  10.510
 2575PP      PP12679  12.719   0.302  10.223
 2576PP      PP12680  10.550   1.502   0.074
 2577PP      PP12681  14.745   9.476  10.708
 2578PP      PP12682   4.218   0.569  12.282
 2579PP      PP12683   4.745   9.988  12.012
 2580PP      PP12684   5.350   3.133  11.638
 2581PP      PP12685  10.781  12.206   1.789
 2582PP      PP12686   9.877   1.133  12.735
 2583PP      PP12687   3.213   7.213  11.040
 2584PP      PP12688   0.672   2.721  10.612
 2585PP      PP12689   7.655  14.788   3.302
 2586PP      PP12690   7.904   3.501  13.346
 2587PP      PP12691   1.388   1.692   0.489
 2588PP      PP12692   7.782  15.739   2.732
 2589PP      PP12693   4.712   4.218  12.616
 2590PP      PP12694  14.269   9.320   2.836
 2591PP      PP12695   3.186  14.678   2.867
 2592PP      PP12696   0.389   6.511   1.737
 2593PP      PP12697  10.271   0.259  13.049
 2594PP      PP12698   6.509  15.749   1.790
 2595PP      PP12699   7.806   0.505  10.485
 2596PP      PP12700   2.368   8.094   2.355
 2597PP      PP12701   2.533   9.323   2.876
 2598PP      PP12702  11.017   8.827   0.717
 2599PP      PP12703   2.863  14.662   0.733
 2600PP      PP12704   3.112   7.404  12.083
 2601PP      PP12705   0.159   5.045   1.511
 2602PP      PP12706   8.079   7.571   8.955
 2603PP      PP12707  10.458   4.827   1.779
 2604PP      PP12708  11.197  14.952   1.019
 2605PP      PP12709   6.474   7.786   1.075
 2606PP      PP12710  11.134  15.699  12.331
 2607PP      PP12711  12.524   2.318   0.201
 2608PP      PP12712  14.170   5.251  13.125
 2609PP      PP12713  11.265  12.537   4.293
 2610PP      PP12714   6.423   2.277   5.254
 2611PP      PP12715  10.386  13.122   1.266
 2612PP      PP12716   6.565   4.646  12.739
 2613PP      PP12717   9.651   9.219   9.688
 2614PP      PP12718  12.218   2.012  10.954
 2615PP      PP12719   5.912  12.636   3.489
 2616PP      PP12720   3.509   2.956   2.727
 2617PP      PP12721  10.052   1.817   3.297
 2618PP      PP12722   3.765   9.824  11.664
 2619PP      PP12723   6.592   7.418  10.621
 2620PP      PP12724  14.017  14.750   2.215
 2621PP      PP12725   0.969  10.243   0.070
 2622PP      PP12726  13.580   1.705  12.505
 2623PP      PP12727   2.501  14.457   2.370
 2624PP      PP12728   0.703   8.268   0.275
 2625PP      PP12729   5.700   4.940   1.088
 2626PP      PP12730  10.436  14.537   2.820
 2627PP      PP12731   4.444   5.134  12.247
 2628PP      PP12732   2.675   7.442  12.466
 2629PP      PP12733  15.658   3.508  12.992
 2630PP      PP12734   2.786   5.977  12.346
 2631PP      PP12735  12.217  12.916   0.147
 2632PP      PP12736   1.901  12.270   1.223
 2633PP      PP12737   2.178  11.821  11.173
 2634PP      PP12738  13.061   3.733   3.225
 2635PP      PP12739   3.231   3.945   4.190
 2636PP      PP12740   6.441   7.016   0.038
 2637PP      PP12741  14.196   5.787  10.865
 2638PP      PP12742   8.882   5.199  12.760
 2639PP      PP12743  14.116   0.748   3.976
 2640PP      PP12744   3.123   3.597  12.140
 2641PP      PP12745   7.673   5.050  13.554
 2642PP      PP12746  10.708  11.659   2.070
 2643PP      PP12747  13.298  10.540   4.309
 2644PP      PP12748   9.725  14.872   4.721
 2645PP      PP12749  12.215   5.461  12.325
 2646PP      PP12750   7.202  11.051   9.601
 2647PP      PP12751  10.892  12.347   3.882
 2648PP      PP12752   0.144  11.487   0.252
 2649PP      PP12753   1.736   8.567   9.469
 2650PP      PP12754   9.334  11.927   2.883
 2651PP      PP12755   6.297   6.726  12.393
 2652PP      PP12756  13.115   7.260   8.969
 2653PP      PP12757   1.874   1.826  13.176
 2654PP      PP12758  12.271  15.728  13.116
 2655PP      PP12759   8.535   6.867   3.733
 2656PP      PP12760   8.880   9.326   1.502
 2657PP      PP12761  10.414   9.376   1.067
 2658PP      PP12762   8.692   7.583   9.750
 2659PP      PP12763   3.603   5.880   1.626
 2660PP      PP12764   3.427  14.920  12.322
 2661PP      PP12765   4.196   0.325   3.121
 2662PP      PP12766  10.299   8.595   9.684
 2663PP      PP12767   3.216   2.703  12.559
 2664PP      PP12768  14.679   4.439  12.662
 2665PP      PP12769  15.092  14.494   4.615
 2666PP      PP12770   4.692  14.805   8.946
 2667PP      PP12771   4.942  14.436  11.919
 2668PP      PP12772   4.788   5.931  12.971
 2669PP      PP12773   0.554  12.720  10.609
 2670PP      PP12774  12.904   8.686  10.021
 2671PP      PP12775   3.195   9.610  11.648
 2672PP      PP12776   3.555  14.171   0.821
 2673PP      PP12777   8.052   3.748   2.409
 2674PP      PP12778   9.648  15.079   5.181
 2675PP      PP12779   4.104  10.702  13.090
 2676PP      PP12780  12.446   1.635  11.461
 2677PP      PP12781   3.217  10.251   9.303
 2678PP      PP12782  15.658  13.164   9.313
 2679PP      PP12783   2.633   5.877   3.972
 2680PP      PP12784   4.317   6.045  13.180
 2681PP      PP12785   7.256   3.442  11.748
 2682PP      PP12786   2.169  13.012   0.459
 2683PP      PP12787   3.207  10.360  12.134
 2684PP      PP12788   2.097   4.816   9.084
 2685PP      PP12789   5.309  15.050   3.617
 2686PP      PP12790  10.963  10.783   2.961
 2687PP      PP12791   3.556  15.444   3.142
 2688PP      PP12792  10.983  14.751  10.098
 2689PP      PP12793  13.938   0.737  10.907
 2690PP      PP12794   6.571  10.648   2.592
 2691PP      PP12795  10.943   9.718   0.302
 2692PP      PP12796  12.970   9.053  10.423
 2693PP      PP12797   7.005  15.349   9.973
 2694PP      PP12798   5.735   8.231  10.292
 2695PP      PP12799   7.364   7.393  11.439
 2696PP      PP12800   2.138   2.410  11.528
 2697PP      PP12801   3.538   4.776   3.129
 2698PP      PP12802   7.710   3.239   5.249
 2699PP      PP12803  13.654   0.805   9.272
 2700PP      PP12804  13.813  11.198   3.684
 2701PP      PP12805   7.901   1.173  12.212
 2702PP      PP12806   3.554  13.446   2.610
 2703PP      PP12807   4.048  14.383  10.663
 2704PP      PP12808   8.715   3.072   1.540
 2705PP      PP12809  15.136   1.438  10.257
 2706PP      PP12810   1.134  13.260   3.214
 2707PP      PP12811   9.978  10.129  11.704
 2708PP      PP12812  11.799  10.711   2.450
 2709PP      PP12813   9.304   6.751  11.938
 2710PP      PP12814   0.130   9.012  11.223
 2711PP      PP12815  10.523   2.410  10.245
 2712PP      PP12816   5.590  11.376   2.665
 2713PP      PP12817   1.030   7.413  12.734
 2714PP      PP12818  14.622   6.206   0.127
 2715PP      PP12819   4.782   1.646  12.994
 2716PP      PP12820  14.752  14.238  11.732
 2717PP      PP12821  13.242   1.128   0.189
 2718PP      PP12822   5.635   8.982  10.972
 2719PP      PP12823   3.916   5.211  12.202
 2720PP      PP12824  13.113  11.374  10.230
 2721PP      PP12825   5.052   5.368   4.653
 2722PP      PP12826   1.722   5.757   3.052
 2723PP      PP12827   3.307   6.797   2.052
 2724PP      PP12828  15.428   2.793   0.479
 2725PP      PP12829   8.889   2.327  10.914
 2726PP      PP12830   1.905   1.695   2.425
 2727PP      PP12831  10.167   0.655   1.754
 2728PP      PP12832   2.897  10.836   3.720
 2729PP      PP12833   0.132   2.802  10.698
 2730PP      PP12834  14.218  14.738   0.800
 2731PP      PP12835   1.286   3.605   3.557
 2732PP      PP12836  12.127   9.126   3.193
 2733PP      PP12837   9.632   6.624   0.885
 2734PP      PP12838   4.146  11.305   9.258
 2735PP      PP12839  10.137  14.197  12.689
 2736PP      PP12840   1.302  13.557   4.585
 2737PP      PP12841   7.380   0.793   3.215
 2738PP      PP12842   8.005  10.657   8.895
 2739PP      PP12843  15.603   4.460  13.200
 2740PP      PP12844  13.611   7.015   1.920
 2741PP      PP12845   6.336   5.562  13.143
 2742PP      PP12846  13.374   1.869   4.467
 2743PP      PP12847   1.112   8.091  11.528
 2744PP      PP12848   8.542  12.480  10.075
 2745PP      PP12849  14.127   7.806   9.625
 2746PP      PP12850   4.583  15.764   3.098
 2747PP      PP12851   2.817   1.004  13.056
 2748PP      PP12852   5.838   4.311  10.471
 2749PP      PP12853   4.681   8.929  12.368
 2750PP      PP12854   3.936  13.551  10.710
 2751PP      PP12855  13.932  10.438  12.436
 2752PP      PP12856  11.031   6.587   8.654
 2753PP      PP12857   0.057   4.032  13.014
 2754PP      PP12858  14.585  10.259  11.121
 2755PP      PP12859   6.270  15.055   1.916
 2756PP      PP12860  11.913   7.181   8.247
 2757PP      PP12861   5.679  14.566   9.591
 2758PP      PP12862   9.096  11.525   2.630
 2759PP      PP12863  12.642   6.776  10.737
 2760PP      PP12864   6.145   5.157   1.334
 2761PP      PP12865  10.508   9.425   9.169
 2762PP      PP12866   8.066   4.412  10.111
 2763PP      PP12867   9.259   0.141   4.912
 2764PP      PP12868  10.825  13.749   5.158
 2765PP      PP12869  11.881   8.304  12.386
 2766PP      PP12870   0.862  13.399   1.230
 2767PP      PP12871   1.874  15.302  11.733
 2768PP      PP12872   8.279   9.292   4.035
 2769PP      PP12873   8.280   9.091  11.599
 2770PP      PP12874   2.992   9.972  13.503
 2771PP      PP12875   5.071   4.140   1.201
 2772PP      PP12876   3.391   4.975   4.035
 2773PP      PP12877   2.506  13.012   9.397
 2774PP      PP12878   8.402   1.112   2.584
 2775PP      PP12879   0.662   4.242  11.248
 2776PP      PP12880  12.176  15.127  13.043
 2777PP      PP12881   7.562   2.421   0.434
 2778PP      PP12882   5.247   4.714   3.355
 2779PP      PP12883   8.299  14.756   3.697
 2780PP      PP12884   8.893  15.782   9.578
 2781PP      PP12885  11.942   6.895  12.232
 2782PP      PP12886   7.596  13.616   1.729
 2783PP      PP12887  12.968   6.310   9.239
 2784PP      PP12888   7.745   8.757   3.054
 2785PP      PP12889  10.395   7.826   9.361
 2786PP      PP12890  15.477   6.293  12.164
 2787PP      PP12891  14.793   3.140   2.615
 2788PP      PP12892   4.651   6.348   4.125
 2789PP      PP12893  14.310   4.081   0.370
 2790PP      PP12894  12.076   7.809  12.244
 2791PP      PP12895   6.464   4.786   8.772
 2792PP      PP12896   9.267   6.056  12.654
 2793PP      PP12897  11.548   8.098   2.972
 2794PP      PP12898   0.871  14.412  11.321
 2795PP      PP12899  11.868   0.099   2.814
 2796PP      PP12900   7.774  13.120   1.568
 2797PP      PP12901  14.001   0.843   2.943
 2798PP      PP12902   5.515   7.091   0.683
 2799PP      PP12903   9.608   9.285   4.182
 2800PP      PP12904   6.965   1.067   3.729
 2801PP      PP12905  12.150   5.167   8.881
 2802PP      PP12906  15.531   0.429   1.318
 2803PP      PP12907   7.334   3.092   3.902
 2804PP      PP12908  13.847   6.449   8.980
 2805PP      PP12909   7.361  12.293   9.207
 2806PP      PP12910   9.127   9.013   9.726
 2807PP      PP12911   2.062   3.701   2.046
 2808PP      PP12912  11.243   5.370   0.262
 2809PP      PP12913   7.556  14.029   2.544
 2810PP      PP12914  10.898   4.949  13.033
 2811PP      PP12915  15.627  13.794  10.964
 2812PP      PP12916  14.604  13.892   4.204
 2813PP      PP12917   6.826   3.670  12.669
 2814PP      PP12918  15.457  11.582   0.132
 2815PP      PP12919   8.449   1.119  13.095
 2816PP      PP12920   9.738  15.001  10.644
 2817PP      PP12921   2.374  10.589  11.203
 2818PP      PP12922   1.683  14.932   1.286
 2819PP      PP12923   8.941  15.613  12.653
 2820PP      PP12924   2.279   7.420   9.107
 2821PP      PP12925  14.488   1.255  13.540
 2822PP      PP12926  10.328   2.753  13.378
 2823PP      PP12927   4.587   7.885   0.372
 2824PP      PP12928   4.335   8.895   1.604
 2825PP      PP12929   2.844   6.484  12.512
 2826PP      PP12930   6.585  12.320  11.651
 2827PP      PP12931   2.589   7.344  11.936
 2828PP      PP12932   8.309   8.381  12.916
 2829PP      PP12933  12.722   8.010   3.582
 2830PP      PP12934  12.056  14.797   4.547
 2831PP      PP12935  12.601   6.866   2.131
 2832PP      PP12936  13.213  14.106   0.125
 2833PP      PP12937   2.888   3.372   9.918
 2834PP      PP12938  14.954   9.207  10.322
 2835PP      PP12939  10.763   9.268   3.624
 2836PP      PP12940  11.561   5.620  12.064
 2837PP      PP12941   4.328   0.411   0.930
 2838PP      PP12942   6.705  13.508   9.505
 2839PP      PP12943  14.743  12.815  11.708
 2840PP      PP12944   3.917   6.102   3.413
 2841PP      PP12945  15.465   1.987  13.432
 2842PP      PP12946   8.075   3.073   3.182
 2843PP      PP12947   4.243   9.989  10.235
 2844PP      PP12948   9.420   6.451   9.005
 2845PP      PP12949  14.972   4.121   1.088
 2846PP      PP12950   8.901   4.969  10.939
 2847PP      PP12951  11.448   5.238  11.717
 2848PP      PP12952  13.194   5.623  11.428
 2849PP      PP12953  14.870   1.706   4.433
 2850PP      PP12954  11.020   3.379   0.988
 2851PP      PP12955  10.014   0.429   3.297
 2852PP      PP12956   1.319  11.526  12.605
 2853PP      PP12957   1.505   5.346   3.852
 2854PP      PP12958   5.618  13.606  10.606
 2855PP      PP12959  13.450   8.850  12.275
 2856PP      PP12960   9.890   0.201  10.951
 2857PP      PP12961   9.026   5.672  12.952
 2858PP      PP12962   1.524   9.496   1.358
 2859PP      PP12963  10.538   7.442  11.718
 2860PP      PP12964   2.432  14.589   1.545
 2861PP      PP12965   5.414   6.454  10.502
 2862PP      PP12966  11.612   0.600   0.156
 2863PP      PP12967   5.004   1.269   9.748
 2864PP      PP12968  10.818  10.136   2.211
 2865PP      PP12969   3.215  11.040   2.745
 2866PP      PP12970   2.738   6.506   9.418
 2867PP      PP12971   8.085   8.096  11.240
 2868PP      PP12972   7.566  13.629   2.869
 2869PP      PP12973  13.320   3.931   8.216
 2870PP      PP12974   2.994   3.896   1.904
 2871PP      PP12975  12.998   9.941  10.997
 2872PP      PP12976  10.721   3.307  10.373
 2873PP      PP12977   4.949   5.824   9.193
 2874PP      PP12978   3.842   3.557   9.841
 2875PP      PP12979   9.833  13.526   2.397
 2876PP      PP12980  10.239   9.648   3.686
 2877PP      PP12981   0.458  14.726   0.880
 2878PP      PP12982   3.463  10.652   8.447
 2879PP      PP12983  12.471   7.582   0.352
 2880PP      PP12984   5.168   8.916  10.507
 2881PP      PP12985  11.699   9.903  11.374
 2882PP      PP12986  15.394   2.331   9.656
 2883PP      PP12987   8.963  13.522  10.626
 2884PP      PP12988  11.578   5.714   9.073
 2885PP      PP12989  13.452   6.782   8.992
 2886PP      PP12990   6.415   6.867   3.282
 2887PP      PP12991  15.505   4.970  10.936
 2888PP      PP12992   7.080   6.002   1.190
 2889PP      PP12993  10.879   1.698   0.917
 2890PP      PP12994  13.840   9.731   9.506
 2891PP      PP12995   2.608  12.642   2.424
 2892PP      PP12996   9.487  11.753   3.396
 2893PP      PP12997   2.076   6.643  11.545
 2894PP      PP12998  13.103  13.357   4.626
 2895PP      PP12999   0.715  11.960  10.969
 2896PP      PP13000   5.580  12.782   2.572
 2897PP      PP13001   5.369  11.373   9.914
 2898PP      PP13002  10.407   4.764  10.144
 2899PP      PP13003  12.778   8.834  10.941
 2900PP      PP13004  13.899   3.127   0.146
 2901PP      PP13005  11.001   5.812  12.961
 2902PP      PP13006   1.807  14.843  13.029
 2903PP      PP13007   5.602   0.994  12.146
 2904PP      PP13008   6.638   2.201   0.678
 2905PP      PP13009   7.952   9.116  11.171
 2906PP      PP13010  10.032   8.975   0.951
 2907PP      PP13011   8.794   1.872   5.327
 2908PP      PP13012   3.498  13.493   2.076
 2909PP      PP13013   1.076   5.526  13.308
 2910PP      PP13014  13.429   7.856   3.082
 2911PP      PP13015  12.529   4.497   9.381
 2912PP      PP13016   4.585  10.426   3.565
 2913PP      PP13017   8.547   2.093   3.201
 2914PP      PP13018   5.261  15.457   3.972
 2915PP      PP13019   7.014  13.667  11.437
 2916PP      PP13020   5.770   7.735   9.418
 2917PP      PP13021   8.012   8.609  11.954
 2918PP      PP13022  14.360   6.349   9.042
 2919PP      PP13023  10.970   1.615   1.442
 2920PP      PP13024  12.488   7.762  11.917
 2921PP      PP13025   1.249   2.867   0.833
 2922PP      PP13026  14.057   5.997  10.390
 2923PP      PP13027   2.968   6.805  12.915
 2924PP      PP13028   2.826  13.615   1.334
 2925PP      PP13029   0.954   8.777  10.789
 2926PP      PP13030  11.425   7.637   1.506
 2927PP      PP13031  11.851   2.761  10.859
 2928PP      PP13032  13.064  15.762   9.839
 2929PP      PP13033  14.869   7.041  10.422
 2930PP      PP13034  11.241  12.097   9.289
 2931PP      PP13035   7.867   7.687   2.442
 2932PP      PP13036   5.119   4.943  13.093
 2933PP      PP13037   8.300   0.564   2.111
 2934PP      PP13038  14.715  14.107  12.787
 2935PP      PP13039   5.327  10.363   9.368
 2936PP      PP13040  11.078   8.098  11.979
 2937PP      PP13041  13.444   6.208   1.766
 2938PP      PP13042   1.577   9.822   3.600
 2939PP      PP13043   0.683  14.791  12.305
 2940PP      PP13044  14.071   8.126  10.528
 2941PP      PP13045   4.782   0.001  11.914
 2942PP      PP13046   8.869   5.855  11.002
 2943PP      PP13047   4.064   3.881   3.999
 2944PP      PP13048  13.096   2.369   8.742
 2945PP      PP13049   9.337   8.198  12.182
 2946PP      PP13050   1.305  11.982   9.868
 2947PP      PP13051   9.887   4.887  11.021
 2948PP      PP13052  10.409  10.394  11.633
 2949PP      PP13053   4.504   3.087   0.473
 2950PP      PP13054   2.019   1.376   2.005
 2951PP      PP13055  11.700  10.533   1.663
 2952PP      PP13056  15.750   6.378  10.112
 2953PP      PP13057  15.127   9.464  13.411
 2954PP      PP13058   1.729   5.905  11.409
 2955PP      PP13059   4.064   3.310   0.816
 2956PP      PP13060   9.901  12.273  12.370
 2957PP      PP13061  13.337   2.334   3.186
 2958PP      PP13062  13.431  10.846  10.927
 2959PP      PP13063   0.746   0.142   1.421
 2960PP      PP13064   0.449   2.320  10.256
 2961PP      PP13065   0.482   9.049   3.586
 2962PP      PP13066   9.495   3.373  13.442
 2963PP      PP13067  15.077   8.142   1.459
 2964PP      PP13068  12.356  14.221  12.989
 2965PP      PP13069  15.496  14.473   1.313
 2966PP      PP13070  13.095   5.646   1.141
 2967PP      PP13071  11.128   7.388  10.510
 2968PP      PP13072  10.065   6.202   3.870
 2969PP      PP13073  15.407  11.246   4.783
 2970PP      PP13074   5.297   7.655  11.058
 2971PP      PP13075   6.052   6.621   0.837
 2972PP      PP13076   9.315   4.555   4.227
 2973PP      PP13077   0.899   4.004   4.223
 2974PP      PP13078  15.067   0.107   2.467
 2975PP      PP13079   3.132   8.654   1.538
 2976PP      PP13080   6.190   6.430   1.676
 2977PP      PP13081   0.093  13.559   0.846
 2978PP      PP13082  12.722   7.728  11.441
 2979PP      PP13083  15.549  12.061   0.950
 2980PP      PP13084  10.395  11.798   2.726
 2981PP      PP13085  12.851  10.940  10.323
 2982PP      PP13086   6.159   2.992  13.056
 2983PP      PP13087   8.393  12.456  13.266
 2984PP      PP13088  11.500  10.321   8.940
 2985PP      PP13089   7.941  10.146  10.541
 2986PP      PP13090  11.626   1.491   3.633
 2987PP      PP13091   6.315  11.028   4.137
 2988PP      PP13092   9.684   1.447   1.825
 2989PP      PP13093   4.576   2.082   3.671
 2990PP      PP13094   3.099  10.236  12.926
 2991PP      PP13095   0.956  10.637   2.345
 2992PP      PP13096  10.023   2.173   1.010
 2993PP      PP13097   1.129   4.577   0.193
 2994PP      PP13098   9.675   7.252  10.999
 2995PP      PP13099  15.552   4.978   3.173
 2996PP      PP13100   3.345   0.414   2.362
 2997PP      PP13101   3.785   8.277   1.150
 2998PP      PP13102   3.611   4.902   9.503
 2999PP      PP13103   2.784   0.411   3.031
 3000PP      PP13104   9.479   6.700  10.990
 3001PP      PP13105   0.650  10.976  11.174
 3002PP      PP13106   4.355   7.277   2.907
 3003PP      PP13107   7.741  14.900  10.515
 3004PP      PP13108   7.722   4.891  11.550
 3005PP      PP13109   0.858  13.441  10.181
 3006PP      PP13110   9.135   0.899  12.452
 3007PP      PP13111   3.199  11.160   2.204
 3008PP      PP13112   4.220   9.530  10.016
 3009PP      PP13113   6.386   2.878   3.958
 3010PP      PP13114   1.150  15.031   2.600
 3011PP      PP13115   2.515   1.602  10.681
 3012PP      PP13116  12.637   6.547  13.480
 3013PP      PP13117  15.098   2.739   1.787
 3014PP      PP13118  14.936  12.186  12.879
 3015PP      PP13119   0.249  12.419  10.291
 3016PP      PP13120   7.462   4.848   0.910
 3017PP      PP13121   8.954   2.608  12.884
 3018PP      PP13122   9.935  12.652   4.836
 3019PP      PP13123   0.773  10.796   4.416
 3020PP      PP13124  11.373   4.584  11.194
 3021PP      PP13125  11.637   2.006   8.502
 3022PP      PP13126  13.378   5.166   1.236
 3023PP      PP13127   9.613  14.238  12.646
 3024PP      PP13128  15.408  10.713   2.930
 3025PP      PP13129   7.080   3.400   9.496
 3026PP      PP13130  14.351  13.538   9.097
 3027PP      PP13131   6.628   5.166  12.902
 3028PP      PP13132   7.462   2.507   5.114
 3029PP      PP13133   4.283   6.717   1.933
 3030PP      PP13134   0.129   3.808   0.967
 3031PP      PP13135  13.031   4.472   2.376
 3032PP      PP13136   1.522   4.473   3.703
 3033PP      PP13137  13.753  14.656  12.921
 3034PP      PP13138   0.326  10.351   1.290
 3035PP      PP13139   8.183   5.394   0.954
 3036PP      PP13140  12.969  14.045  10.190
 3037PP      PP13141   1.663  12.296  10.898
 3038PP      PP13142   5.379  10.453   1.318
 3039PP      PP13143   4.790   4.658   0.393
 3040PP      PP13144  13.620  11.828   1.225
 3041PP      PP13145   9.675   5.491   3.926
 3042PP      PP13146   2.347   9.313   1.196
 3043PP      PP13147  15.150  13.509  11.156
 3044PP      PP13148   5.779   0.958   4.042
 3045PP      PP13149   3.528  14.779  11.238
 3046PP      PP13150  11.743   0.621   2.846
 3047PP      PP13151   7.625   0.406   0.895
 3048PP      PP13152   4.974   4.985   1.365
 3049PP      PP13153  15.170  10.028   9.075
 3050PP      PP13154   4.540   9.839  12.903
 3051PP      PP13155  11.828  15.401   2.799
 3052PP      PP13156   7.128   0.138   0.780
 3053PP      PP13157   1.917   6.489   9.900
 3054PP      PP13158   5.996   7.851   8.956
 3055PP      PP13159   5.251  14.538   3.776
 3056PP      PP13160  10.017  11.827  10.867
 3057PP      PP13161  11.751   0.058   0.310
 3058PP      PP13162  13.010   4.110  12.464
 3059PP      PP13163  14.534   1.269  12.106
 3060PP      PP13164  12.092   5.050   0.591
 3061PP      PP13165   7.512  12.225  12.691
 3062PP      PP13166   5.370   8.812   2.241
 3063PP      PP13167   4.978   8.517   2.482
 3064PP      PP13168  15.416  10.496  11.446
 3065PP      PP13169  10.127   8.173  11.174
 3066PP      PP13170   9.760   5.886   0.209
 3067PP      PP13171   8.274   1.657   3.426
 3068PP      PP13172  11.014  13.284   1.796
 3069PP      PP13173  14.859   3.450   3.043
 3070PP      PP13174   6.977  10.949   3.171
 3071PP      PP13175   0.701  11.367   0.959
 3072PP      PP13176   4.856  12.497   0.376
 3073PP      PP13177  12.208   9.622  12.063
 3074PP      PP13178   9.756  10.758   9.116
 3075PP      PP13179   7.595  11.741   1.454
 3076PP      PP13180   3.700   6.163  10.469
 3077PP      PP13181   4.081   2.149   4.182
 3078PP      PP13182   2.058  11.951   8.929
 3079PP      PP13183   8.936   2.204   0.214
 3080PP      PP13184   2.960   5.353  10.595
 3081PP      PP13185   6.707  10.045  10.882
 3082PP      PP13186   8.376   6.740  11.671
 3083PP      PP13187   3.541   0.201  13.126
 3084PP      PP13188   6.473  11.243  12.595
 3085PP      PP13189   9.140   9.158   1.092
 3086PP      PP13190  13.941   2.159   1.248
 3087PP      PP13191  15.511  10.307   0.712
 3088PP      PP13192   9.520  15.419  13.492
 3089PP      PP13193   0.792  12.563  11.873
 3090PP      PP13194  14.920   8.646  11.988
 3091PP      PP13195   5.039  13.467  12.296
 3092PP      PP13196   3.655  15.301   9.128
 3093PP      PP13197   0.207  13.064   0.087
 3094PP      PP13198  11.996  14.905   4.050
 3095PP      PP13199  10.091   4.100   4.244
 3096PP      PP13200   6.185   3.381   1.021
 3097PP      PP13201   1.599   7.527   2.682
 3098PP      PP13202   6.215   5.935   4.222
 3099PP      PP13203   9.618   9.543   0.432
 3100PP      PP13204   2.406  14.947   9.724
 3101PP      PP13205  11.089   9.199  11.432
 3102PP      PP13206   6.933  13.122  13.231
 3103PP      PP13207  12.815  10.258   0.597
 3104PP      PP13208   6.229   4.043  13.529
 3105PP      PP13209  10.987   3.308   3.614
 3106PP      PP13210  10.221  15.161   4.157
 3107PP      PP13211   1.051   0.013  10.052
 3108PP      PP13212   2.340   2.025   9.727
 3109PP      PP13213   6.033   1.409   3.449
 3110PP      PP13214   0.574   2.867   0.470
 3111PP      PP13215   0.038   0.645  11.955
 3112PP      PP13216   7.157   6.717   1.114
 3113PP      PP13217  11.355   5.243  12.992
 3114PP      PP13218   8.845   5.689   0.388
 3115PP      PP13219   9.945   4.500   1.499
 3116PP      PP13220   4.091   1.203  11.025
 3117PP      PP13221   5.031   1.360   0.088
 3118PP      PP13222   7.886   8.553   3.531
 3119PP      PP13223  10.226   7.522  10.386
 3120PP      PP13224   8.857  12.565   4.317
 3121PP      PP13225   1.810   7.940   1.316
 3122PP      PP13226  14.384  15.434  12.581
 3123PP      PP13227   6.528   4.140  10.070
 3124PP      PP13228   9.007  10.266   9.575
 3125PP      PP13229  12.369   8.498   0.087
 3126PP      PP13230   6.536   6.507  10.685
 3127PP      PP13231  14.998   3.797   9.951
 3128PP      PP13232   8.565  14.902   1.429
 3129PP      PP13233   4.692   0.464   3.129
 3130PP      PP13234   0.654   4.959   8.691
 3131PP      PP13235  12.432   6.550   2.514
 3132PP      PP13236   9.854   6.793  13.290
 3133PP      PP13237   6.768  13.275   9.972
 3134PP      PP13238   6.347  11.426  10.048
 3135PP      PP13239   1.670   9.537  10.979
 3136PP      PP13240   2.466  11.131   9.916
 3137PP      PP13241  11.480   6.552   0.473
 3138PP      PP13242  14.226  13.246  11.262
 3139PP      PP13243   9.283  10.695   8.879
 3140PP      PP13244   6.754   3.548  13.429
 3141PP      PP13245   8.453   5.483   3.951
 3142PP      PP13246  10.110   7.345   1.262
 3143PP      PP13247   1.023  11.266   3.191
 3144PP      PP13248  13.725   3.176   4.405
 3145PP      PP13249   0.828   1.598   4.262
 3146PP      PP13250   4.080  15.175  10.605
 3147PP      PP13251   5.052   2.919  10.333
 3148PP      PP13252  10.133   7.311  11.411
 3149PP      PP13253  13.045  15.519   0.466
 3150PP      PP13254   5.083   3.397  11.255
 3151PP      PP13255   3.963   7.437  12.723
 3152PP      PP13256   1.684   2.616   3.464
 3153PP      PP13257   9.349   0.597   3.023
 3154PP      PP13258   3.625  14.943   2.949
 3155PP      PP13259   3.107   6.247   0.318
 3156PP      PP13260   9.490   7.051  12.912
 3157PP      PP13261   8.366  13.405   1.772
 3158PP      PP13262   6.654   3.509   1.956
 3159PP      PP13263   0.241   3.512   0.085
 3160PP      PP13264   0.358  13.000  11.022
 3161PP      PP13265   0.585   6.872   3.560
 3162PP      PP13266   3.395   2.787  10.002
 3163PP      PP13267   7.738  15.756  10.391
 3164PP      PP13268  14.200   4.612  10.213
 3165PP      PP13269   9.553  10.339  11.893
 3166PP      PP13270   1.328  14.182  11.188
 3167PP      PP13271   3.699   3.529  11.626
 3168PP      PP13272  12.884   1.423   3.309
 3169PP      PP13273  13.504   6.763  13.358
 3170PP      PP13274  11.653   2.417  13.184
 3171PP      PP13275  12.735  14.345  12.634
 3172PP      PP13276   6.901  13.787   1.505
 3173PP      PP13277   7.681  13.789   0.772
 3174PP      PP13278   1.879  13.575   3.097
 3175PP      PP13279   1.779   4.397  12.622
 3176PP      PP13280   3.160  10.639   2.136
 3177PP      PP13281  15.038   9.674   1.287
 3178PP      PP13282   6.239  14.172   3.124
 3179PP      PP13283   4.071   4.751  10.957
 3180PP      PP13284   9.341  11.271   0.453
 3181PP      PP13285  13.168  14.946   1.819
 3182PP      PP13286   0.815   0.264  12.081
 3183PP      PP13287  14.302   6.545  12.876
 3184PP      PP13288   4.545   6.845  11.424
 3185PP      PP13289  15.781  14.478   1.773
 3186PP      PP13290  12.167   1.724   1.057
 3187PP      PP13291  15.030   5.735  12.868
 3188PP      PP13292   9.451  11.171   9.009
 3189PP      PP13293  11.306   4.676   2.110
 3190PP      PP13294  11.498  12.507   0.669
 3191PP      PP13295   6.962  15.023  12.038
 3192PP      PP13296   5.935  10.425   0.723
 3193PP      PP13297   1.920   0.945  10.061
 3194PP      PP13298  14.472   6.448   2.512
 3195PP      PP13299  13.506  12.646   1.530
 3196PP      PP13300   0.194  10.442   1.791
 3197PP      PP13301  14.359  10.310   9.810
 3198PP      PP13302   4.228   6.637   4.203
 3199PP      PP13303   5.255   4.262  12.379
 3200PP      PP13304   6.727   2.202   0.174
 3201PP      PP13305   2.464  10.118   3.391
 3202PP      PP13306  14.402  11.642   9.524
 3203PP      PP13307  13.626   0.648   9.786
 3204PP      PP13308   3.181  10.856  10.226
 3205PP      PP13309   9.480   3.485   9.451
 3206PP      PP13310   5.645  15.228  10.756
 3207PP      PP13311   2.151   1.067   2.889
 3208PP      PP13312   4.306  11.439   3.518
 3209PP      PP13313   2.087  12.809  10.314
 3210PP      PP13314   7.838   7.478  12.093
 3211PP      PP13315   3.574  11.994  12.715
 3212PP      PP13316   5.524   5.373   1.316
 3213PP      PP13317   7.492  11.855   3.021
 3214PP      PP13318  12.691   4.238   2.694
 3215PP      PP13319  12.264  11.439  12.363
 3216PP      PP13320  13.677   6.668   1.488
 3217PP      PP13321   5.419   8.838   1.062
 3218PP      PP13322  15.794   8.048  10.628
 3219PP      PP13323   9.705   9.592   3.748
 3220PP      PP13324  10.381   2.917  11.563
 3221PP      PP13325  14.632   7.414  12.583
 3222PP      PP13326   7.902   6.767   2.007
 3223PP      PP13327   2.320   4.020   3.303
 3224PP      PP13328   8.945  15.107   0.399
 3225PP      PP13329   0.672   9.634  11.787
 3226PP      PP13330   5.854   1.735   0.569
 3227PP      PP13331  13.190   7.096  10.227
 3228PP      PP13332  14.241   5.626   0.917
 3229PP      PP13333   1.873   2.530   4.143
 3230PP      PP13334  14.880   7.273   0.460
 3231PP      PP13335  15.449  12.478  13.332
 3232PP      PP13336   7.054   6.319   2.501
 3233PP      PP13337   8.240   2.596  10.798
 3234PP      PP13338  12.947  13.631  11.564
 3235PP      PP13339   0.075  13.897   9.955
 3236PP      PP13340   7.850  14.977   0.401
 3237PP      PP13341   6.896  15.681   2.489
 3238PP      PP13342   6.102   7.857  12.920
 3239PP      PP13343  12.487   5.280  10.632
 3240PP      PP13344   4.591   6.238   9.024
 3241PP      PP13345  12.068   5.346  13.252
 3242PP      PP13346  14.173   8.993   1.748
 3243PP      PP13347  10.073   6.099  10.080
 3244PP      PP13348   3.087   4.740  11.318
 3245PP      PP13349  12.101   2.200  12.970
 3246PP      PP13350   7.742   5.594   3.486
 3247PP      PP13351   7.052   4.425  11.607
 3248PP      PP13352   4.110   5.028  12.670
 3249PP      PP13353  11.034  12.026  10.123
 3250PP      PP13354  10.514  11.587  11.623
 3251PP      PP13355  10.524   5.161  11.824
 3252PP      PP13356  12.963   4.924   2.113
 3253PP      PP13357   7.573  13.250  12.375
 3254PP      PP13358  13.034   7.564   2.494
 3255PP      PP13359   7.352   5.293  10.324
 3256PP      PP13360   7.472   4.010   3.356
 3257PP      PP13361   0.153   2.321  11.517
 3258PP      PP13362   1.723  15.674  10.893
 3259PP      PP13363   8.020   6.557   9.088
 3260PP      PP13364  10.559  11.936   3.698
 3261PP      PP13365  11.162  11.055  11.536
 3262PP      PP13366  12.807  12.158   0.249
 3263PP      PP13367  10.145   1.204   1.688
 3264PP      PP13368  10.503   8.454  13.121
 3265PP      PP13369  12.108   7.583   2.441
 3266PP      PP13370  15.245   9.584   2.364
 3267PP      PP13371   0.786  12.881   0.738
 3268PP      PP13372   4.402   8.227  12.673
 3269PP      PP13373   1.019  10.716  12.893
 3270PP      PP13374   5.488   0.448   9.784
 3271PP      PP13375   6.013  14.644  12.281
 3272PP      PP13376   1.873   7.979   2.440
 3273PP      PP13377   8.885   6.379  12.818
 3274PP      PP13378  10.689   6.657   1.762
 3275PP      PP13379  10.897   6.352   9.095
 3276PP      PP13380  15.119   5.805   1.874
 3277PP      PP13381  10.799   3.507   2.165
 3278PP      PP13382  15.613   6.930  11.922
 3279PP      PP13383   4.277   4.874   9.957
 3280PP      PP13384   8.999   9.192  12.782
 3281PP      PP13385   7.610   0.949   2.737
 3282PP      PP13386   8.649  14.024  11.736
 3283PP      PP13387  13.746   7.711  10.526
 3284PP      PP13388   6.154  14.851  11.404
 3285PP      PP13389   4.555   8.326   9.559
 3286PP      PP13390   2.717  12.210   2.704
 3287PP      PP13391   7.774   0.973   9.951
 3288PP      PP13392   8.761  10.774   1.473
 3289PP      PP13393  12.555  10.288   0.010
 3290PP      PP13394   8.450   3.334  10.025
 3291PP      PP13395  12.376  10.113   1.612
 3292PP      PP13396  10.647   7.949   3.312
 3293PP      PP13397   9.439   4.717   3.067
 3294PP      PP13398   8.279  12.985  11.188
 3295PP      PP13399   5.664   9.464   9.035
 3296PP      PP13400  13.439   2.660  10.484
 3297PP      PP13401   2.309   2.582  10.476
 3298PP      PP13402   4.495  13.515   2.808
 3299PP      PP13403   2.779   1.180  10.584
 3300PP      PP13404   2.758   2.603   0.049
 3301PP      PP13405   7.770   0.184   4.126
 3302PP      PP13406   1.918   7.769  12.621
 3303PP      PP13407   6.765  13.293   1.468
 3304PP      PP13408   3.252   1.703  11.205
 3305PP      PP13409   7.709   1.932  10.439
 3306PP      PP13410   5.782  10.354  11.268
 3307PP      PP13411  10.161  15.126   0.659
 3308PP      PP13412   7.318   8.226  13.345
 3309PP      PP13413   1.154   9.462   2.425
 3310PP      PP13414   5.354  15.070   4.399
 3311PP      PP13415   5.345   0.599  11.299
 3312PP      PP13416  14.102   7.434   8.803
 3313PP      PP13417   4.270   5.104   3.688
 3314PP      PP13418   5.822   9.616   1.755
 3315PP      PP13419   4.444   6.738   9.099
 3316PP      PP13420  10.408   8.614  11.213
 3317PP      PP13421   8.361   9.326   9.312
 3318PP      PP13422   1.928   6.192   1.975
 3319PP      PP13423   6.108   9.868   9.196
 3320PP      PP13424  12.136  10.559   4.271
 3321PP      PP13425   9.981   4.873  11.541
 3322PP      PP13426  13.932   6.577   1.934
 3323PP      PP13427   5.134  12.191   0.777
 3324PP      PP13428   9.454   2.314  13.479
 3325PP      PP13429  12.038  13.491   1.806
 3326PP      PP13430  11.278  14.151   1.615
 3327PP      PP13431  10.092   8.576  10.217
 3328PP      PP13432  12.468   0.238  12.164
 3329PP      PP13433  10.291   9.886   1.143
 3330PP      PP13434   5.188  12.505   3.771
 3331PP      PP13435  15.567  15.501  11.374
 3332PP      PP13436   5.447   2.660   0.277
 3333PP      PP13437  14.923   6.100  12.416
 3334PP      PP13438  13.854   5.141   4.345
 3335PP      PP13439  10.043  14.165   1.521
 3336PP      PP13440   2.426   1.354  10.182
 3337PP      PP13441   5.028   6.106   8.774
 3338PP      PP13442   5.976  10.039   1.485
 3339PP      PP13443   9.644  10.905   2.097
 3340PP      PP13444   7.690  15.749  10.932
 3341PP      PP13445  10.653   1.490   3.492
 3342PP      PP13446   4.036   7.628   3.107
 3343PP      PP13447   0.045  14.669  11.103
 3344PP      PP13448  15.299   3.475  10.224
 3345PP      PP13449   4.192  13.191   1.465
 3346PP      PP13450   0.050   2.367   1.420
 3347PP      PP13451  13.205   8.892  12.747
 3348PP      PP13452   0.427  11.410   1.833
 3349PP      PP13453   1.023  15.297   3.809
 3350PP      PP13454   2.803   3.575   9.158
 3351PP      PP13455  13.404   0.088   0.249
 3352PP      PP13456  15.693  12.105   3.058
 3353PP      PP13457   0.964   1.598  11.499
 3354PP      PP13458   4.189  11.112  12.754
 3355PP      PP13459  10.406  13.659   3.499
 3356PP      PP13460  14.406   2.621   0.183
 3357PP      PP13461   0.454   0.643   2.288
 3358PP      PP13462  10.640   8.024   1.132
 3359PP      PP13463   3.392   0.022   0.886
 3360PP      PP13464   9.685  12.133  12.837
 3361PP      PP13465  12.004  15.124   4.988
 3362PP      PP13466   3.783  12.144   0.951
 3363PP      PP13467   7.485   6.180  13.200
 3364PP      PP13468  13.183   5.935   0.146
 3365PP      PP13469   0.785   8.256   1.318
 3366PP      PP13470   4.456  12.722  12.542
 3367PP      PP13471  13.725   8.714   1.806
 3368PP      PP13472   5.623  10.052   0.525
 3369PP      PP13473   6.416   0.091   2.271
 3370PP      PP13474  12.687  15.010   1.224
 3371PP      PP13475  12.990   1.005  11.164
 3372PP      PP13476   1.263   3.791  12.650
 3373PP      PP13477   9.728   7.935  13.208
 3374PP      PP13478  12.738  11.442   1.216
 3375PP      PP13479   6.311   3.807   3.504
 3376PP      PP13480   8.071   3.203  11.923
 3377PP      PP13481  14.868  14.150   1.606
 3378PP      PP13482   8.835  13.328   3.431
 3379PP      PP13483   2.456   7.634   8.645
 3380PP      PP13484   1.223  10.384   1.228
 3381PP      PP13485  14.420   4.500   4.203
 3382PP      PP13486   0.826   8.768   9.084
 3383PP      PP13487  15.599  13.251   2.802
 3384PP      PP13488   2.929   2.836  10.748
 3385PP      PP13489  11.717   7.496  13.114
 3386PP      PP13490  15.143   9.265  11.813
 3387PP      PP13491   5.094   9.232   1.268
 3388PP      PP13492   7.780   8.778   9.618
 3389PP      PP13493   2.826   7.677   1.701
 3390PP      PP13494   4.320   8.056  12.189
 3391PP      PP13495  14.631   2.754   0.852
 3392PP      PP13496   7.453   8.219  12.844
 3393PP      PP13497   8.353   1.052   4.815
 3394PP      PP13498   8.067   9.848  10.123
 3395PP      PP13499   8.989   3.057  11.679
 3396PP      PP13500   0.227  11.564   0.796
 3397PP      PP13501  11.662   2.445   1.630
 3398PP      PP13502   4.710   4.372   8.584
 3399PP      PP13503   1.823   7.459  13.060
 3400PP      PP13504   1.807  13.115  11.370
 3401PP      PP13505   1.289   8.784  13.333
 3402PP      PP13506   8.525   4.849  13.010
 3403PP      PP13507  10.552   7.981   2.649
 3404PP      PP13508   0.460  12.292   9.837
 3405PP      PP13509  14.081  11.844   0.046
 3406PP      PP13510   2.350  13.192  13.586
 3407PP      PP13511   9.307   9.081   1.953
 3408PP      PP13512   8.625   6.857  10.646
 3409PP      PP13513   3.614   4.702   0.856
 3410PP      PP13514  11.869  13.385   2.651
 3411PP      PP13515  11.734   1.975   3.842
 3412PP      PP13516   3.156   9.969  12.491
 3413PP      PP13517  14.412   2.501   9.466
 3414PP      PP13518   4.284   4.019   0.292
 3415PP      PP13519   3.809   6.074  13.338
 3416PP      PP13520   6.635   6.219   4.084
 3417PP      PP13521  13.677   3.570   1.977
 3418PP      PP13522  15.385  11.881  13.238
 3419PP      PP13523   1.896  12.068  12.179
 3420PP      PP13524  14.142   0.045   2.959
 3421PP      PP13525  11.399   6.810   2.406
 3422PP      PP13526   6.561   4.041   4.236
 3423PP      PP13527   0.033   6.884  10.873
 3424PP      PP13528  11.261  12.959   3.988
 3425PP      PP13529   1.992   8.133   9.357
 3426PP      PP13530   7.175  10.898  11.218
 3427PP      PP13531  12.047   1.664  12.858
 3428PP      PP13532   0.605  10.599  12.242
 3429PP      PP13533   3.521  11.272  13.420
 3430PP      PP13534   4.629  14.192  11.566
 3431PP      PP13535   4.727   5.374   9.089
 3432PP      PP13536   6.569  12.771  13.020
 3433PP      PP13537   1.186   4.374  10.351
 3434PP      PP13538   7.521   5.113   1.369
 3435PP      PP13539   8.925   3.021   0.632
 3436PP      PP13540  10.658   1.222   1.602
 3437PP      PP13541  15.084  11.628   3.349
 3438PP      PP13542   0.182  14.122  13.038
 3439PP      PP13543   3.522   6.413  10.048
 3440PP      PP13544  15.590   6.751  10.429
 3441PP      PP13545  11.545   2.382   0.093
 3442PP      PP13546  14.123   0.384  12.732
 3443PP      PP13547   9.901  12.528   3.877
 3444PP      PP13548   6.108   7.151   9.430
 3445PP      PP13549  14.090   1.532   0.185
 3446PP      PP13550   7.298  10.081  12.138
 3447PP      PP13551  15.673   8.631   8.853
 3448PP      PP13552   9.355  15.414   1.554
 3449PP      PP13553  12.689   7.919  12.896
 3450PP      PP13554   0.759   2.229   3.714
 3451PP      PP13555   1.746   9.816   1.745
 3452PP      PP13556   3.889  14.029   9.887
 3453PP      PP13557  12.112   4.806   2.782
 3454PP      PP13558   4.100   0.439   9.984
 3455PP      PP13559   3.777   1.048  10.601
 3456PP      PP13560   2.656   8.637  12.649
 3457PP      PP13561   8.848  15.137   2.010
 3458PP      PP13562   4.817   2.002   0.678
 3459PP      PP13563   6.080   9.042  12.553
 3460PP      PP13564   3.447   7.209  10.154
 3461PP      PP13565  11.713   8.995  13.077
 3462PP      PP13566  12.682   7.384   3.018
 3463PP      PP13567  14.529   8.519   9.733
 3464PP      PP13568  14.952   9.565   9.407
 3465PP      PP13569  15.193   4.821   0.334
 3466PP      PP13570  11.026   0.128  10.087
 3467PP      PP13571   5.574   7.265  12.495
 3468PP      PP13572   7.465  14.431  11.306
 3469PP      PP13573  13.175  15.538   4.195
 3470PP      PP13574   7.328  15.097   0.966
 3471PP      PP13575  13.694  14.861  11.378
 3472PP      PP13576   6.484   8.503  12.038
 3473PP      PP13577  15.328   5.494   1.453
 3474PP      PP13578  14.537   0.543   1.444
 3475PP      PP13579  10.107   5.179   8.640
 3476PP      PP13580   6.069   2.002   1.363
 3477PP      PP13581   9.936   2.929  10.801
 3478PP      PP13582   5.853   1.460   4.832
 3479PP      PP13583  14.890  14.878   2.271
 3480PP      PP13584  15.530   9.549   1.927
 3481PP      PP13585   0.324   6.825   0.905
 3482PP      PP13586   2.989   0.560  10.121
 3483PP      PP13587   9.436   8.675   9.105
 3484PP      PP13588   8.353   6.947   5.088
 3485PP      PP13589   1.253   5.823  12.897
 3486PP      PP13590  10.808   5.669  10.236
 3487PP      PP13591   5.088  13.944   4.117
 3488PP      PP13592   9.791  14.591  12.202
 3489PP      PP13593   4.698   0.435  11.018
 3490PP      PP13594   8.708   1.367  11.238
 3491PP      PP13595   9.823  14.052  10.414
 3492PP      PP13596   5.377   2.620   4.247
 3493PP      PP13597  13.164   2.708  10.048
 3494PP      PP13598   0.424  12.603   3.794
 3495PP      PP13599   2.969   9.493   8.661
 3496PP      PP13600   3.182   5.678   2.079
 3497PP      PP13601   6.630   1.118   2.329
 3498PP      PP13602  12.878   8.314  11.120
 3499PP      PP13603   5.744  10.032   3.847
 3500PP      PP13604   6.565   4.294   9.054
 3501PP      PP13605  10.589  11.201   9.785
 3502PP      PP13606   8.724  10.999  11.258
 3503PP      PP13607  15.822   3.177  11.608
 3504PP      PP13608   5.187  10.908   0.082
 3505PP      PP13609   4.561   7.235   1.863
 3506PP      PP13610   3.734   6.431   1.581
 3507PP      PP13611   1.294   1.031  12.180
 3508PP      PP13612   1.304   3.049  12.603
 3509PP      PP13613   7.771   3.530   3.258
 3510PP      PP13614   0.656  11.085   9.130
 3511PP      PP13615   0.841  11.975  13.491
 3512PP      PP13616   5.652  12.968   0.512
 3513PP      PP13617  15.438   7.901   0.268
 3514PP      PP13618  15.675  14.403  12.308
 3515PP      PP13619  14.387  15.419   2.818
 3516PP      PP13620   3.528   9.968  10.738
 3517PP      PP13621   0.827  13.252   2.137
 3518PP      PP13622  15.307   5.723   0.377
 3519PP      PP13623  10.407  11.528  10.729
 3520PP      PP13624   9.090   4.125   4.427
 3521PP      PP13625   8.709  11.523   2.182
 3522PP      PP13626   8.138  14.244   2.262
 3523PP      PP13627   2.864   0.263   2.134
 3524PP      PP13628   4.854   8.631   0.323
 3525PP      PP13629   5.453   9.054   9.286
 3526PP      PP13630  10.202   2.082   9.757
 3527PP      PP13631   0.715   5.557   4.688
 3528PP      PP13632  14.772  12.951   1.658
 3529PP      PP13633  14.694   6.697   3.058
 3530PP      PP13634   0.706   4.130   1.723
 3531PP      PP13635  13.414  10.254  11.919
 3532PP      PP13636   1.195   0.750   1.935
 3533PP      PP13637   4.967   4.978  11.341
 3534PP      PP13638   5.076   9.561   2.339
 3535PP      PP13639   1.782   0.798  13.144
 3536PP      PP13640   3.172  13.598   3.060
 3537PP      PP13641   5.632   4.042  10.066
 3538PP      PP13642  14.530  11.685  10.033
 3539PP      PP13643  11.120  14.666   3.623
 3540PP      PP13644   5.441   5.918   1.701
 3541PP      PP13645   9.106  12.197   4.633
 3542PP      PP13646   6.519   8.913  10.074
 3543PP      PP13647   1.932   0.025   9.551
 3544PP      PP13648   8.229   5.983  10.206
 3545PP      PP13649   4.388   5.372   8.534
 3546PP      PP13650  12.774  15.119   9.241
 3547PP      PP13651   8.196   6.700   2.461
 3548PP      PP13652   5.117   6.105  11.465
 3549PP      PP13653   0.394   2.248   3.368
 3550PP      PP13654   2.927  10.382   0.195
 3551PP      PP13655  10.035   7.311   1.802
 3552PP      PP13656   1.429  12.747  12.772
 3553PP      PP13657   9.341   4.150  12.077
 3554PP      PP13658   8.166   3.562  12.458
 3555PP      PP13659  11.439   7.934   8.807
 3556PP      PP13660   9.792  10.323  10.690
 3557PP      PP13661   4.776   2.630  11.061
 3558PP      PP13662   0.572   4.554   9.153
 3559PP      PP13663   6.329   7.412  12.768
 3560PP      PP13664   9.732  14.332   3.917
 3561PP      PP13665  12.967   2.646   9.565
 3562PP      PP13666   7.801   4.719   0.343
 3563PP      PP13667  14.878   2.247   0.911
 3564PP      PP13668   5.801   3.023  10.214
 3565PP      PP13669   7.170   1.709   9.500
 3566PP      PP13670   0.100   7.827   8.138
 3567PP      PP13671   7.517   5.501   3.027
 3568PP      PP13672  13.946  13.993  11.798
 3569PP      PP13673   8.901  13.040   9.712
 3570PP      PP13674   8.376  14.573  10.724
 3571PP      PP13675   4.947   1.273  12.309
 3572PP      PP13676  14.568  14.551  12.515
 3573PP      PP13677  10.286  12.997  12.924
 3574PP      PP13678   8.904   3.858  12.433
 3575PP      PP13679   5.123  13.183   1.449
 3576PP      PP13680  13.067  14.861   4.351
 3577PP      PP13681  15.706   9.126  12.065
 3578PP      PP13682  13.551   8.443   9.235
 3579PP      PP13683  12.858   0.737   0.055
 3580PP      PP13684   0.504  14.483   4.231
 3581PP      PP13685   9.191   5.334   8.136
 3582PP      PP13686  13.841  14.064   4.702
 3583PP      PP13687   4.509  12.596  13.559
 3584PP      PP13688   2.891  15.552   3.090
 3585PP      PP13689   1.317  10.937  11.935
 3586PP      PP13690   2.229  14.435  11.301
 3587PP      PP13691   7.032  14.601  12.358
 3588PP      PP13692  10.897   1.285   8.216
 3589PP      PP13693   4.774   0.504   0.365
 3590PP      PP13694   2.384   8.379   9.579
 3591PP      PP13695   5.208  10.277   2.876
 3592PP      PP13696   5.637   8.180   9.184
 3593PP      PP13697   7.446   4.129   2.279
 3594PP      PP13698   0.907   8.026  12.977
 3595PP      PP13699   4.114  11.688  12.109
 3596PP      PP13700  14.112   5.039   3.898
 3597PP      PP13701   5.479  14.062   3.794
 3598PP      PP13702   6.905   7.381   9.123
 3599PP      PP13703   5.762  10.123   2.206
 3600PP      PP13704   6.335  11.056   9.662
 3601PP      PP13705  13.890  14.677   3.103
 3602PP      PP13706  14.292  15.013   0.347
 3603PP      PP13707  13.949   6.922   8.725
 3604PP      PP13708   2.280  14.360   0.758
 3605PP      PP13709   6.874  14.093   1.067
 3606PP      PP13710  10.685   5.718   1.280
 3607PP      PP13711  15.742   0.743   4.396
 3608PP      PP13712  14.890   3.034  11.442
 3609PP      PP13713  12.382   4.218   3.426
 3610PP      PP13714   9.014   1.951   9.523
 3611PP      PP13715   2.199   0.086  10.567
 3612PP      PP13716   0.816   9.974  11.420
 3613PP      PP13717   0.169  15.477  11.012
 3614PP      PP13718  11.909   7.421   0.538
 3615PP      PP13719  14.007   5.297   1.731
 3616PP      PP13720   4.596   3.600  11.343
 3617PP      PP13721   8.457   6.268   9.029
 3618PP      PP13722   3.952   8.136   2.399
 3619PP      PP13723   7.765   7.347   0.643
 3620PP      PP13724  11.964  11.431   0.918
 3621PP      PP13725   1.487   0.229  11.661
 3622PP      PP13726   5.099   3.302   4.089
 3623PP      PP13727  10.232  15.595   0.438
 3624PP      PP13728   6.470   8.676   2.279
 3625PP      PP13729  13.130   3.577  13.002
 3626PP      PP13730  14.251   0.411  12.219
 3627PP      PP13731  13.544   2.748   0.240
 3628PP      PP13732   3.491   9.917   1.963
 3629PP      PP13733   4.226  10.694  13.595
 3630PP      PP13734  10.249   8.097  10.099
 3631PP      PP13735   0.317  11.460   9.320
 3632PP      PP13736   6.155  13.969   1.065
 3633PP      PP13737  12.211  13.236   1.348
 3634PP      PP13738   7.325  15.773  10.029
 3635PP      PP13739  12.441   3.155   1.331
 3636PP      PP13740   5.790   2.894   3.527
 3637PP      PP13741   7.121  11.407   4.874
 3638PP      PP13742   2.329  10.895   1.030
 3639PP      PP13743   1.726   3.096  10.242
 3640PP      PP13744   1.909   4.071  11.612
 3641PP      PP13745   0.836  15.091   4.460
 3642PP      PP13746  14.816   7.873  10.216
 3643PP      PP13747   4.953  12.091  12.447
 3644PP      PP13748   1.006  15.203  11.126
 3645PP      PP13749   1.131  10.857   2.913
 3646PP      PP13750   0.754   7.638   4.554
 3647PP      PP13751   2.235   5.750  12.914
 3648PP      PP13752  12.909   0.179  10.725
 3649PP      PP13753  15.157   0.878  10.874
 3650PP      PP13754  11.836  13.210   0.898
 3651PP      PP13755   0.456   3.078  10.993
 3652PP      PP13756   6.294   4.676   3.732
 3653PP      PP13757  13.461  13.329   0.544
 3654PP      PP13758   5.521   8.406   1.384
 3655PP      PP13759   8.030  12.020   3.066
 3656PP      PP13760   9.988  11.280   2.224
 3657PP      PP13761   2.809   0.807   4.398
 3658PP      PP13762  10.941   4.141   0.160
 3659PP      PP13763   6.849   8.158  11.291
 3660PP      PP13764  11.282   2.087  13.367
 3661PP      PP13765  10.802  15.055   1.982
 3662PP      PP13766  11.443   3.058   3.495
 3663PP      PP13767  11.825   6.177   8.976
 3664PP      PP13768   7.923   2.657   1.662
 3665PP      PP13769  15.680  10.172  11.785
 3666PP      PP13770   0.173  11.350   9.826
 3667PP      PP13771   2.741  11.873  11.586
 3668PP      PP13772   9.145   5.326  13.314
 3669PP      PP13773   4.493   6.521   9.709
 3670PP      PP13774   0.287  13.460  10.229
 3671PP      PP13775   7.355   0.081  13.416
 3672PP      PP13776   1.478   5.453   2.105
 3673PP      PP13777   8.760  15.502   2.877
 3674PP      PP13778   7.669  11.179   4.254
 3675PP      PP13779  10.659  14.577  11.097
 3676PP      PP13780   9.629   5.229   2.094
 3677PP      PP13781  14.831   5.432  10.381
 3678PP      PP13782   1.068   6.146  11.888
 3679PP      PP13783   4.896  13.843   2.936
 3680PP      PP13784   6.404   4.046   0.412
 3681PP      PP13785   7.285   9.511   0.607
 3682PP      PP13786   2.135  14.442  10.799
 3683PP      PP13787   1.435  11.452   8.832
 3684PP      PP13788  14.081   2.772  10.369
 3685PP      PP13789  14.273  10.254   3.920
 3686PP      PP13790   3.480  10.302   8.049
 3687PP      PP13791  12.104   5.615   9.176
 3688PP      PP13792   8.553   1.623  13.048
 3689PP      PP13793   7.862  12.842   5.460
 3690PP      PP13794   1.023   5.235   1.929
 3691PP      PP13795  13.273   6.898  11.359
 3692PP      PP13796  11.784   1.105  12.910
 3693PP      PP13797   5.628  14.107   9.849
 3694PP      PP13798   0.511  12.318  13.237
 3695PP      PP13799   7.266  12.667   4.196
 3696PP      PP13800  13.586   5.598   0.973
 3697PP      PP13801  13.299  12.727   2.987
 3698PP      PP13802  11.966   7.314  12.665
 3699PP      PP13803  14.653  12.781   2.931
 3700PP      PP13804   6.143  10.900  13.436
 3701PP      PP13805   5.118   0.175   4.009
 3702PP      PP13806   1.383   2.253  10.711
 3703PP      PP13807  11.421  12.945  12.664
 3704PP      PP13808   2.913   2.769  11.682
 3705PP      PP13809   2.111   6.884   8.953
 3706PP      PP13810   0.267   2.962   2.591
 3707PP      PP13811  15.503   6.818   2.672
 3708PP      PP13812  11.942   6.897   3.084
 3709PP      PP13813   6.999  11.056  12.544
 3710PP      PP13814  13.477   4.751   9.603
 3711PP      PP13815   1.021   8.604  12.906
 3712PP      PP13816   3.191  15.195  13.294
 3713PP      PP13817  15.236   0.922  10.349
 3714PP      PP13818   7.239  11.391   3.103
 3715PP      PP13819  10.227  14.810  10.682
 3716PP      PP13820  12.331  10.937   2.196
 3717PP      PP13821  14.077  14.619   4.557
 3718PP      PP13822   6.699   6.617   7.975
 3719PP      PP13823  11.105  14.667   4.659
 3720PP      PP13824   6.184   9.726   2.754
 3721PP      PP13825  10.721   8.904   3.238
 3722PP      PP13826   4.544   9.108  13.140
 3723PP      PP13827   2.345   8.534   0.394
 3724PP      PP13828   1.694   6.009   8.940
 3725PP      PP13829  13.524   6.428   0.229
 3726PP      PP13830   2.136  14.910  10.538
 3727PP      PP13831   9.872   9.365   1.231
 3728PP      PP13832   2.554   3.949  11.115
 3729PP      PP13833  14.686   9.525   8.361
 3730PP      PP13834  14.757   8.988   2.755
 3731PP      PP13835  10.540   0.122   2.339
 3732PP      PP13836  12.599   8.325  13.228
 3733PP      PP13837  11.020   3.834   1.224
 3734PP      PP13838   3.787  10.392   2.753
 3735PP      PP13839   2.910   6.286   3.522
 3736PP      PP13840   1.723   0.781   2.118
 3737PP      PP13841  10.690  11.622   0.430
 3738PP      PP13842   7.348   7.623  11.933
 3739PP      PP13843   6.440  15.280   0.554
 3740PP      PP13844   5.295   8.490   0.025
 3741PP      PP13845  11.291  10.209  11.503
 3742PP      PP13846  11.768   0.169  10.656
 3743PP      PP13847   9.741  12.622   0.710
 3744PP      PP13848  15.150   6.769   3.547
 3745PP      PP13849  15.026   8.657   0.448
 3746PP      PP13850   0.666   5.670   2.816
 3747PP      PP13851   5.060   9.296  12.387
 3748PP      PP13852   6.952   8.468   2.369
 3749PP      PP13853   1.474  14.967  13.448
 3750PP      PP13854   6.579   0.769  12.109
 3751PP      PP13855   2.023   1.359   9.773
 3752PP      PP13856  13.224   0.775   3.787
 3753PP      PP13857   0.800   8.581   2.806
 3754PP      PP13858   6.165   1.942  12.484
 3755PP      PP13859  13.739   2.086   4.132
 3756PP      PP13860   2.966  12.016   2.248
 3757PP      PP13861   5.136   7.022   1.096
 3758PP      PP13862   5.302   2.091  10.555
 3759PP      PP13863   7.113   3.151  13.469
 3760PP      PP13864   8.113  11.692   3.489
 3761PP      PP13865  10.700   2.084  11.764
 3762PP      PP13866  11.938  14.263   1.342
 3763PP      PP13867  15.465  12.168  11.993
 3764PP      PP13868   6.983  14.486   4.741
 3765PP      PP13869   5.228  14.965  10.933
 3766PP      PP13870  10.784   8.464   2.526
 3767PP      PP13871   5.195   5.284   2.188
 3768PP      PP13872   3.135   6.618   0.912
 3769PP      PP13873  15.220   5.754   8.270
 3770PP      PP13874  12.163  13.517   3.069
 3771PP      PP13875  10.390   2.208   1.376
 3772PP      PP13876  15.170   8.728   8.763
 3773PP      PP13877   3.154   6.734   0.081
 3774PP      PP13878   7.629  15.043   2.462
 3775PP      PP13879  14.311   7.237  10.807
 3776PP      PP13880   3.125   8.457  13.410
 3777PP      PP13881  13.443  13.627   0.120
 3778PP      PP13882   4.625   0.377  13.466
 3779PP      PP13883   0.573   0.775  10.006
 3780PP      PP13884  12.485   1.160   9.807
 3781PP      PP13885  11.736  13.227   3.169
 3782PP      PP13886   6.691   7.991   1.661
 3783PP      PP13887   4.917   3.915   4.177
 3784PP      PP13888  13.211   8.610  10.721
 3785PP      PP13889   0.413  13.596   2.106
 3786PP      PP13890  12.251  10.619   3.393
 3787PP      PP13891   2.892   4.590   9.367
 3788PP      PP13892   0.873   7.251  11.655
 3789PP      PP13893   7.414   6.063  10.979
 3790PP      PP13894   5.847   5.508   3.460
 3791PP      PP13895   8.950   3.615   4.533
 3792PP      PP13896   3.308   6.697   1.407
 3793PP      PP13897   9.291   5.130   1.725
 3794PP      PP13898   4.893   7.493   1.241
 3795PP      PP13899   9.414   7.408  10.255
 3796PP      PP13900   9.987   7.165   3.510
 3797PP      PP13901   2.266  15.074   0.188
 3798PP      PP13902   2.230   3.131  13.124
 3799PP      PP13903  15.800  12.212  12.494
 3800PP      PP13904  10.351   4.629   3.076
 3801PP      PP13905   1.270   0.934  13.207
 3802PP      PP13906  11.373  13.971   0.629
 3803PP      PP13907   4.215   5.366   2.242
 3804PP      PP13908  14.367  11.678  13.230
 3805PP      PP13909  12.894   9.297   0.184
 3806PP      PP13910  12.638   6.391  11.576
 3807PP      PP13911   2.617   8.463  13.168
 3808PP      PP13912  15.630   7.397  11.673
 3809PP      PP13913  15.763   1.550  12.529
 3810PP      PP13914  10.802   4.105  11.585
 3811PP      PP13915  15.674   4.747   0.613
 3812PP      PP13916  14.150   6.745   3.949
 3813PP      PP13917   6.732   0.698   1.995
 3814PP      PP13918   5.465  10.895   1.073
 3815PP      PP13919   5.436  11.339   0.815
 3816PP      PP13920  11.496  11.738   1.010
 3817PP      PP13921  14.062  15.501   8.636
 3818PP      PP13922   5.007  10.214   1.052
 3819PP      PP13923   9.228   1.790  11.500
 3820PP      PP13924   6.419   9.304   1.180
 3821PP      PP13925   0.715  12.725  12.373
 3822PP      PP13926   8.505  15.390   1.671
 3823PP      PP13927   3.700   9.589   9.939
 3824PP      PP13928  15.829  15.397   2.360
 3825PP      PP13929   2.861  10.897   0.988
 3826PP      PP13930   5.351  15.431   9.529
 3827PP      PP13931   1.494   0.423  12.917
 3828PP      PP13932  15.441   2.696  10.718
 3829PP      PP13933   5.774  13.121   3.942
 3830PP      PP13934  11.261  15.223   9.475
 3831PP      PP13935  15.084  14.566   4.042
 3832PP      PP13936   5.662  12.817   0.014
 3833PP      PP13937   4.138  12.622   9.075
 3834PP      PP13938   7.863   1.788   0.654
 3835PP      PP13939   6.199   9.996  10.534
 3836PP      PP13940   7.622  12.106   3.461
 3837PP      PP13941   7.753   3.953  11.251
 3838PP      PP13942   9.259   3.775  10.406
 3839PP      PP13943  11.698   9.342   9.955
 3840PP      PP13944  12.952   0.629  11.539
 3841PP      PP13945  11.350   1.940  10.828
 3842PP      PP13946  11.040  14.815   2.945
 3843PP      PP13947   1.857   9.840  13.279
 3844PP      PP13948   5.682   4.992  13.223
 3845PP      PP13949  12.040  14.677  12.682
 3846PP      PP13950  13.985  13.693  11.393
 3847PP      PP13951   8.555   5.455   3.425
 3848PP      PP13952  11.699  15.147   0.879
 3849PP      PP13953  12.068   4.125  10.623
 3850PP      PP13954   9.198   1.705   9.961
 3851PP      PP13955   9.168  12.044   8.862
 3852PP      PP13956   1.916   2.899  11.271
 3853PP      PP13957  15.690   7.795  13.422
 3854PP      PP13958   2.467   7.135   8.532
 3855PP      PP13959   2.745  13.106  12.081
 3856PP      PP13960  15.451   9.634   0.961
 3857PP      PP13961   1.346   8.256  13.104
 3858PP      PP13962  12.840   4.136   1.204
 3859PP      PP13963  10.993   1.674  11.894
 3860PP      PP13964   5.059   9.188   9.621
 3861PP      PP13965   1.185  14.841   0.285
 3862PP      PP13966  11.492   9.368  11.704
 3863PP      PP13967   6.222   6.525   7.727
 3864PP      PP13968   3.998   1.693   3.019
 3865PP      PP13969   5.058  12.688   1.303
 3866PP      PP13970  10.695   0.577   2.120
 3867PP      PP13971   0.305  13.740   3.790
 3868PP      PP13972   3.041   0.261  13.543
 3869PP      PP13973   4.439   8.922   2.551
 3870PP      PP13974   4.583  11.599  11.201
 3871PP      PP13975   7.063  13.950  13.369
 3872PP      PP13976  15.124   3.951  11.958
 3873PP      PP13977  13.664  12.292   9.952
 3874PP      PP13978   7.558   3.287   0.830
 3875PP      PP13979  13.099   3.307  13.446
 3876PP      PP13980  13.217   3.399  11.637
 3877PP      PP13981  11.696   7.717  11.282
 3878PP      PP13982  15.336   0.453   2.195
 3879PP      PP13983  11.487   4.717  11.716
 3880PP      PP13984  15.288  12.871  10.589
 3881PP      PP13985   3.849  12.983   9.675
 3882PP      PP13986   9.093   0.203   9.966
 3883PP      PP13987  15.148   2.334   8.849
 3884PP      PP13988   8.392  13.662   3.447
 3885PP      PP13989   2.660  13.036   4.324
 3886PP      PP13990  12.176   2.520  11.231
 3887PP      PP13991   8.545  12.246   2.389
 3888PP      PP13992  15.016  11.063   9.837
 3889PP      PP13993  11.675  15.738  12.348
 3890PP      PP13994   1.513   6.742   2.599
 3891PP      PP13995   5.395   7.356   3.566
 3892PP      PP13996  13.499  14.572   9.237
 3893PP      PP13997   5.105   0.116  11.101
 3894PP      PP13998   8.330   3.023   9.612
 3895PP      PP13999   3.043  15.756   4.298
 3896PP      PP14000  12.496   4.856   8.591
 3897PP      PP14001   2.082  14.705  13.460
 3898PP      PP14002   3.072  14.095   1.542
 3899PP      PP14003   4.370   0.310  10.637
 3900PP      PP14004  10.489   3.771  10.361
 3901PP      PP14005   8.055   3.509   9.724
 3902PP      PP14006   1.041   2.586   2.087
 3903PP      PP14007   7.993  13.560  12.359
 3904PP      PP14008  12.104   9.367   9.218
 3905PP      PP14009   0.407  13.523   0.228
 3906PP      PP14010  12.878   7.141  12.569
 3907PP      PP14011   2.740  10.560   4.141
 3908PP      PP14012  12.691  12.619   2.080
 3909PP      PP14013   4.800  13.391  11.842
 3910PP      PP14014   3.104   9.585   2.825
 3911PP      PP14015   1.150  11.650   0.207
 3912PP      PP14016  15.576  11.731  11.706
 3913PP      PP14017   3.542  10.311   2.281
 3914PP      PP14018   5.168   1.764  13.342
 3915PP      PP14019  14.481   4.346   1.432
 3916PP      PP14020   9.906  12.098   0.810
 3917PP      PP14021  12.753   8.556  10.495
 3918PP      PP14022  12.390   1.422  13.283
 3919PP      PP14023   0.413   1.244  11.018
 3920PP      PP14024  15.187   9.372   4.462
 3921PP      PP14025  14.359   1.456   9.426
 3922PP      PP14026   3.930  15.741   9.040
 3923PP      PP14027  14.579   6.470   1.053
 3924PP      PP14028   2.154   8.753  12.496
 3925PP      PP14029   7.256  11.012   4.535
 3926PP      PP14030  12.452  12.530   1.606
 3927PP      PP14031   3.448   2.690   2.254
 3928PP      PP14032  14.873   8.131   3.010
 3929PP      PP14033   4.450  15.676  12.755
 3930PP      PP14034   4.225   5.426   9.188
 3931PP      PP14035  10.434   9.548  12.078
 3932PP      PP14036   3.246   0.317  12.720
 3933PP      PP14037   8.900   9.126   0.073
 3934PP      PP14038  11.307  15.818   3.537
 3935PP      PP14039   1.030   9.736   2.881
 3936PP      PP14040  11.907   5.230  11.954
 3937PP      PP14041   6.531   4.468   2.276
 3938PP      PP14042   0.902  15.230   9.504
 3939PP      PP14043   0.657  11.403  12.537
 3940PP      PP14044  11.223  11.608   8.970
 3941PP      PP14045   6.281   3.128   9.999
 3942PP      PP14046   2.156  11.485   2.861
 3943PP      PP14047   3.550  11.438   2.871
 3944PP      PP14048  11.456   6.860   9.863
 3945PP      PP14049   5.694   2.663   2.208
 3946PP      PP14050   2.918   6.622   1.754
 3947PP      PP14051   3.801   1.075   1.279
 3948PP      PP14052  13.356   5.495  13.058
 3949PP      PP14053   2.978   1.011   5.401
 3950PP      PP14054   5.873   3.289   0.082
 3951PP      PP14055  11.550   8.580   2.787
 3952PP      PP14056  10.595   5.215   9.845
 3953PP      PP14057   4.453  15.731   4.002
 3954PP      PP14058  11.193  11.305   2.190
 3955PP      PP14059   9.990  13.918  11.469
 3956PP      PP14060  13.101   0.522   0.599
 3957PP      PP14061   0.177  11.370  12.014
 3958PP      PP14062   1.127  13.419  10.918
 3959PP      PP14063  10.050   1.999   2.353
 3960PP      PP14064   6.850   8.565  11.657
 3961PP      PP14065   2.127  11.756   2.035
 3962PP      PP14066   2.555  14.019   1.520
 3963PP      PP14067  11.664   6.279   0.067
 3964PP      PP14068   1.842   6.604  11.102
 3965PP      PP14069  12.931   4.505  10.638
 3966PP      PP14070   5.576   0.819   2.673
 3967PP      PP14071  15.819   8.922   0.256
 3968PP      PP14072   1.211  10.858  11.009
 3969PP      PP14073   4.419   7.519  10.092
 3970PP      PP14074   4.142  11.280   0.566
 3971PP      PP14075   2.582  14.229  12.143
 3972PP      PP14076  12.514  15.200   9.838
 3973PP      PP14077  14.992  10.947  10.345
 3974PP      PP14078   4.271   8.585  12.315
 3975PP      PP14079   7.244   0.463   1.917
 3976PP      PP14080   9.222   9.413   3.874
 3977PP      PP14081  13.321  15.674   3.723
 3978PP      PP14082   6.503  14.373   1.923
 3979PP      PP14083  12.330  12.448  10.476
 3980PP      PP14084  15.638   6.343   3.921
 3981PP      PP14085   6.101  12.890   2.604
 3982PP      PP14086   5.935   4.897   0.601
 3983PP      PP14087  11.235   0.323  11.491
 3984PP      PP14088   0.637   0.201  12.564
 3985PP      PP14089  13.437   9.942   3.890
 3986PP      PP14090   4.917   3.215   3.607
 3987PP      PP14091   2.475  12.670   0.178
 3988PP      PP14092   8.676  12.015   1.938
 3989PP      PP14093   0.202   8.461   3.872
 3990PP      PP14094  10.922   5.091   1.919
 3991PP      PP14095  15.179   2.836   9.511
 3992PP      PP14096  13.453  10.675   0.975
 3993PP      PP14097   0.919  11.842  12.555
 3994PP      PP14098  10.130  13.889   3.923
 3995PP      PP14099   5.745  12.469  10.031
 3996PP      PP14100  13.195  14.982   1.284
 3997PP      PP14101   0.181  12.299   0.843
 3998PP      PP14102   7.887   9.209  13.540
 3999PP      PP14103   5.505   5.223   0.637
 4000PP      PP14104   8.371  10.621  11.971
 4001PP      PP14105  12.111  11.818   4.824
 4002PP      PP14106   8.392  14.822   4.694
 4003PP      PP14107  10.178   5.597   9.061
 4004PP      PP14108   4.695   1.107  10.241
 4005PP      PP14109  10.330   4.197   8.596
 4006PP      PP14110   6.270   3.909   1.050
 4007PP      PP14111   8.688   8.735  12.791
 4008PP      PP14112   2.648  12.069  11.092
 4009PP      PP14113   7.024   3.245  11.278
 4010PP      PP14114   6.607   4.149  12.957
 4011PP      PP14115   1.994   9.357  13.056
 4012PP      PP14116  12.586   6.419  12.550
 4013PP      PP14117   1.942   5.577   4.034
 4014PP      PP14118   7.510  15.648   3.715
 4015PP      PP14119   4.067   1.478   1.125
 4016PP      PP14120   2.568   8.841  12.138
 4017PP      PP14121   5.604   4.504   0.831
 4018PP      PP14122   2.696   6.494  13.595
 4019PP      PP14123  15.435  11.149   2.626
 4020PP      PP14124   3.121  13.546  12.711
 4021PP      PP14125  12.269  12.116   2.622
 4022PP      PP14126   7.503   2.897   1.470
 4023PP      PP14127   9.785  12.351  10.019
 4024PP      PP14128   2.935   4.222  11.318
 4025PP      PP14129  11.340   2.780  13.441
 4026PP      PP14130  15.604  11.459   3.377
 4027PP      PP14131   3.658  11.018   2.032
 4028PP      PP14132  10.248   1.651   4.800
 4029PP      PP14133   9.726   0.440   2.050
 4030PP      PP14134   6.397   6.907   8.551
 4031PP      PP14135   0.330  14.441  12.090
 4032PP      PP14136   6.704   1.912   1.668
 4033PP      PP14137   2.847   7.331   2.368
 4034PP      PP14138   1.797  15.173   3.235
 4035PP      PP14139   1.849   7.564   8.671
 4036PP      PP14140  13.702   5.745   3.062
 4037PP      PP14141   2.246   3.382   2.998
 4038PP      PP14142   1.614   3.678  10.910
 4039PP      PP14143  14.578  12.319  10.591
 4040PP      PP14144  13.515  15.119  12.976
 4041PP      PP14145   9.930  10.073   3.589
 4042PP      PP14146   6.314   9.176  13.357
 4043PP      PP14147  13.103   6.211   0.970
 4044PP      PP14148   8.214   7.399   9.984
 4045PP      PP14149   3.068  11.201   4.089
 4046PP      PP14150   1.409   5.488   3.350
 4047PP      PP14151   0.130   7.693   0.954
 4048PP      PP14152   2.651   4.913   1.211
 4049PP      PP14153   5.834   7.683   3.571
 4050PP      PP14154  15.384   7.209   1.443
 4051PP      PP14155  13.194   7.948  11.382
 4052PP      PP14156   6.134   5.196  10.803
 4053PP      PP14157  11.741   4.946  11.317
 4054PP      PP14158  13.293  12.346   0.178
 4055PP      PP14159   5.522  12.390   1.098
 4056PP      PP14160   9.160   2.763  10.141
 4057PP      PP14161   9.657  13.232   5.013
 4058PP      PP14162   3.808   5.845   0.693
 4059PP      PP14163   5.923  12.666   0.850
 4060PP      PP14164   5.256   7.298   4.095
 4061PP      PP14165   8.232   1.444   0.543
 4062PP      PP14166   0.366  11.893  10.336
 4063PP      PP14167   1.051   7.311  10.401
 4064PP      PP14168  13.620  11.545  10.190
 4065PP      PP14169   5.832   0.442   2.371
 4066PP      PP14170   9.211  15.128   4.487
 4067PP      PP14171  11.070   2.798   2.765
 4068PP      PP14172  15.269   2.464   3.304
 4069PP      PP14173  14.746  10.629  12.761
 4070PP      PP14174  15.248   8.060   9.967
 4071PP      PP14175  11.585  12.254   1.136
 4072PP      PP14176   6.800   0.655  11.610
 4073PP      PP14177   8.204   8.168  11.748
 4074PP      PP14178  13.923   8.648   3.534
 4075PP      PP14179   1.809  15.435  12.419
 4076PP      PP14180   0.933   3.907  10.289
 4077PP      PP14181   9.507   1.933  10.539
 4078PP      PP14182   9.177   1.333   0.030
 4079PP      PP14183  14.229  13.824   0.378
 4080PP      PP14184  10.725   8.735   2.091
 4081PP      PP14185   2.236  11.983  13.432
 4082PP      PP14186   9.797   6.290   1.249
 4083PP      PP14187  10.195  15.351   2.975
 4084PP      PP14188   3.911  10.075   9.840
 4085PP      PP14189   4.329   3.426  12.416
 4086PP      PP14190   7.229   9.476   9.766
 4087PP      PP14191   7.565   1.575  12.231
 4088PP      PP14192  11.218   5.076  11.262
 4089PP      PP14193  13.659   1.531   4.128
 4090PP      PP14194   5.646   3.475   4.293
 4091PP      PP14195   4.559   6.259   2.768
 4092PP      PP14196   8.135  12.181   4.840
 4093PP      PP14197  10.433  12.117   2.284
 4094PP      PP14198   8.682   6.779  12.549
 4095PP      PP14199   9.941  13.015   4.112
 4096PP      PP14200   7.673  11.591   9.841
 4097PP      PP14201   8.782  12.152   9.743
 4098PP      PP14202  13.317   6.450  12.971
 4099PP      PP14203   4.265  10.256   8.355
 4100PP      PP14204   7.082  13.087   2.359
 4101PP      PP14205   5.691  11.639   9.545
 4102PP      PP14206   9.935   1.823  11.955
 4103PP      PP14207   9.694   4.401   8.939
 4104PP      PP14208  12.859   1.956  11.563
 4105PP      PP14209  15.775   1.581   3.324
 4106PP      PP14210   3.249  11.546   0.175
 4107PP      PP14211  14.802   8.611   8.370
 4108PP      PP14212   3.839   9.379   0.277
 4109PP      PP14213   2.833  14.259   3.731
 4110PP      PP14214  10.932  10.725  12.792
 4111PP      PP14215   8.560  14.307   2.638
 4112PP      PP14216  12.533   8.838   4.040
 4113PP      PP14217   6.208  11.235  11.450
 4114PP      PP14218  11.831   1.328   0.911
 4115PP      PP14219   7.701   7.337   0.109
 4116PP      PP14220  15.818   1.854  11.700
 4117PP      PP14221   9.803   6.076  12.401
 4118PP      PP14222  10.776   7.123   9.700
 4119PP      PP14223  12.945   3.362   3.901
 4120PP      PP14224  13.628  12.213   2.438
 4121PP      PP14225   7.882   4.443   3.510
 4122PP      PP14226   2.631   0.593  13.429
 4123PP      PP14227   5.982   5.867   0.135
 4124PP      PP14228  12.657   0.796   8.649
 4125PP      PP14229  10.647  10.677   2.083
 4126PP      PP14230   0.497   6.979   8.212
 4127PP      PP14231   5.844   5.783  13.121
 4128PP      PP14232   4.409   5.002   8.918
 4129PP      PP14233   4.553   4.446  10.871
 4130PP      PP14234   8.028  11.299   1.560
 4131PP      PP14235  12.174  15.121  12.467
 4132PP      PP14236   9.463   9.152   2.457
 4133PP      PP14237   7.533   8.184   0.692
 4134PP      PP14238  11.360  11.341   2.694
 4135PP      PP14239   9.879   6.293   3.334
 4136PP      PP14240   9.011   7.411  10.717
 4137PP      PP14241   6.210   0.156   9.557
 4138PP      PP14242  14.690  13.602   3.175
 4139PP      PP14243  14.182  14.812   2.708
 4140PP      PP14244   0.648   9.797   2.526
 4141PP      PP14245   0.956  12.528   4.513
 4142PP      PP14246  12.540   1.055  12.203
 4143PP      PP14247  15.126  10.780   4.878
 4144PP      PP14248   7.884   3.662   0.994
 4145PP      PP14249  10.620   5.193  10.371
 4146PP      PP14250   1.246   4.856   9.421
 4147PP      PP14251  12.592  12.223   3.320
 4148PP      PP14252  13.248   3.640   1.457
 4149PP      PP14253  14.571   3.769   1.053
 4150PP      PP14254  15.740   4.061  13.555
 4151PP      PP14255   7.013  12.924   4.547
 4152PP      PP14256  10.632   6.840   3.594
 4153PP      PP14257   4.490  13.554   1.730
 4154PP      PP14258   4.192   4.995   2.600
 4155PP      PP14259   4.228   1.815  11.748
 4156PP      PP14260   6.081   4.897   2.783
 4157PP      PP14261   1.933  15.742   9.059
 4158PP      PP14262  11.424  13.164   9.107
 4159PP      PP14263  10.304  14.639   0.696
 4160PP      PP14264   5.578  14.311   1.953
 4161PP      PP14265   7.250  10.091  11.609
 4162PP      PP14266   4.058   8.336  13.540
 4163PP      PP14267  13.991   5.334   2.924
 4164PP      PP14268   7.104   7.060   1.617
 4165PP      PP14269  10.735  10.221  12.995
 4166PP      PP14270   9.673  11.267   3.498
 4167PP      PP14271  10.603  15.608  10.158
 4168PP      PP14272   9.734  13.041   2.268
 4169PP      PP14273  12.615   0.367   0.566
 4170PP      PP14274   8.459   6.664   0.985
 4171PP      PP14275   8.978   7.997   9.973
 4172PP      PP14276  10.173   0.497   0.878
 4173PP      PP14277   7.060   3.615   1.538
 4174PP      PP14278   0.679   2.582   2.467
 4175PP      PP14279   6.250   8.296  10.607
 4176PP      PP14280   7.332   3.928  11.556
 4177PP      PP14281  13.811   3.070   1.096
 4178PP      PP14282   4.785   7.888  10.161
 4179PP      PP14283   0.530   2.437   4.155
 4180PP      PP14284   8.352  11.636  11.635
 4181PP      PP14285   8.498  13.253   9.980
 4182PP      PP14286   0.182   1.151   3.524
 4183PP      PP14287   4.192  10.708   1.347
 4184PP      PP14288  11.603  12.484  12.850
 4185PP      PP14289   8.370   9.947   0.301
 4186PP      PP14290  12.321  15.185   2.167
 4187PP      PP14291   6.837  11.261   4.239
 4188PP      PP14292  14.865   1.209   0.306
 4189PP      PP14293  11.460  15.484   4.637
 4190PP      PP14294   6.258   5.533   3.895
 4191PP      PP14295   1.495  11.834   0.593
 4192PP      PP14296   7.504  15.349  10.663
 4193PP      PP14297   2.418   2.962  10.857
 4194PP      PP14298   5.323   8.539  10.877
 4195PP      PP14299   2.130   7.912   8.925
 4196PP      PP14300  13.241   9.042  11.217
 4197PP      PP14301   3.570   7.430  13.385
 4198PP      PP14302  13.690  10.988  10.117
 4199PP      PP14303   1.912   7.381   1.434
 4200PP      PP14304  11.214  15.606   4.030
 4201PP      PP14305   8.519  13.428   3.006
 4202PP      PP14306   6.051   0.840   8.644
 4203PP      PP14307  10.746   5.341   0.086
 4204PP      PP14308  13.916  11.599   9.362
 4205PP      PP14309   3.376  14.963   3.864
 4206PP      PP14310   8.736   7.771  11.510
 4207PP      PP14311   2.938   0.303   1.581
 4208PP      PP14312   7.902   0.074  12.183
 4209PP      PP14313   7.106   3.271   1.139
 4210PP      PP14314   2.245  15.066   9.257
 4211PP      PP14315   6.821  15.175   2.612
 4212PP      PP14316   6.276   8.281   3.031
 4213PP      PP14317   0.379   0.511   1.755
 4214PP      PP14318   9.320  15.193   0.783
 4215PP      PP14319   1.386   9.005   1.501
 4216PP      PP14320   5.408   4.731   9.867
 4217PP      PP14321   1.631   3.181  11.693
 4218PP      PP14322  15.504   5.305   2.750
 4219PP      PP14323   0.915   9.280   3.353
 4220PP      PP14324   6.762   4.835   0.148
 4221PP      PP14325  10.344   5.883  11.252
 4222PP      PP14326  14.286   3.869   8.793
 4223PP      PP14327  14.825  14.604  12.076
 4224PP      PP14328   9.743   2.072   4.142
 4225PP      PP14329   0.119   2.731   0.237
 4226PP      PP14330   4.466   6.784   2.830
 4227PP      PP14331   4.568   1.841   9.853
 4228PP      PP14332  13.620   7.814   3.791
 4229PP      PP14333  10.223   2.126   1.849
 4230PP      PP14334   4.525   7.431   9.536
 4231PP      PP14335   9.371   7.301   8.567
 4232PP      PP14336   3.507  12.843   0.300
 4233PP      PP14337   3.271   8.724   2.369
 4234PP      PP14338   3.050  15.669  11.086
 4235PP      PP14339  13.369   3.956  10.056
 4236PP      PP14340   5.250  10.714  12.372
 4237PP      PP14341   0.325   2.547  12.847
 4238PP      PP14342  13.949   4.349   1.579
 4239PP      PP14343  11.340   2.904  10.849
 4240PP      PP14344   2.259   1.470  13.208
 4241PP      PP14345  14.440  14.104   0.006
 4242PP      PP14346  11.042   1.298  13.577
 4243PP      PP14347   7.213   7.265  13.285
 4244PP      PP14348   1.240   6.901   1.787
 4245PP      PP14349   6.392   5.814  10.042
 4246PP      PP14350   1.890   3.644  10.474
 4247PP      PP14351  12.320   1.589   8.907
 4248PP      PP14352   7.371   6.914  12.316
 4249PP      PP14353  14.418   8.466  13.389
 4250PP      PP14354  10.755   8.099   9.904
 4251PP      PP14355   1.898  11.907  10.102
 4252PP      PP14356   9.126   4.508   0.018
 4253PP      PP14357   6.591   2.581  13.467
 4254PP      PP14358   7.080  15.632  10.448
 4255PP      PP14359   0.949  13.568  13.348
 4256PP      PP14360  14.214   4.067   3.397
 4257PP      PP14361   8.255   9.334  13.083
 4258PP      PP14362   1.280  12.217  11.599
 4259PP      PP14363  12.214  11.884   3.105
 4260PP      PP14364   9.351   0.090  13.497
 4261PP      PP14365  10.888   7.635  12.109
 4262PP      PP14366  14.283  11.855  12.734
 4263PP      PP14367  12.617   7.860   2.232
 4264PP      PP14368   4.198   8.275  10.733
 4265PP      PP14369   6.772  10.593  13.257
 4266PP      PP14370   8.487   0.909  10.102
 4267PP      PP14371   8.311   0.653   0.582
 4268PP      PP14372  11.871   7.872  13.453
 4269PP      PP14373   7.943   2.945  13.209
 4270PP      PP14374   5.499   2.787  12.000
 4271PP      PP14375   7.690  12.944   4.974
 4272PP      PP14376  12.459   1.228   3.524
 4273PP      PP14377   9.528  13.348   2.823
 4274PP      PP14378  14.345  15.295   0.761
 4275PP      PP14379  12.003  10.292   1.269
 4276PP      PP14380   2.881   1.188   9.502
 4277PP      PP14381  10.683   5.481  11.212
 4278PP      PP14382   8.881  10.773   9.696
 4279PP      PP14383  12.888   7.583   0.687
 4280PP      PP14384  10.389   0.069   3.226
 4281PP      PP14385   6.522  12.891   3.213
 4282PP      PP14386  14.118   1.897  10.228
 4283PP      PP14387  11.076   8.823  12.280
 4284PP      PP14388  14.370  11.796   0.950
 4285PP      PP14389  15.288   9.205  12.970
 4286PP      PP14390   0.577  11.952   0.803
 4287PP      PP14391   3.112  13.061  12.481
 4288PP      PP14392   1.145   4.026   2.014
 4289PP      PP14393   0.988   0.569  12.842
 4290PP      PP14394   8.912   8.207   1.809
 4291PP      PP14395   2.813   5.555  12.037
 4292PP      PP14396   8.335  15.273   3.811
 4293PP      PP14397  12.755   5.491  12.391
 4294PP      PP14398   4.023  13.246  12.275
 4295PP      PP14399   7.920  10.020   9.596
 4296PP      PP14400  13.193   4.615   1.135
 4297PP      PP14401   6.064   5.461   4.379
 4298PP      PP14402   4.576  15.812   2.269
 4299PP      PP14403   4.025  10.282   9.380
 4300PP      PP14404   3.192  15.117   4.999
 4301PP      PP14405   9.568   9.131  10.207
 4302PP      PP14406   6.171  11.469  10.551
 4303PP      PP14407  10.892  14.214   4.857
 4304PP      PP14408   4.343   8.524   0.343
 4305PP      PP14409  11.529   8.758  11.350
 4306PP      PP14410  10.587  15.378  13.509
 4307PP      PP14411  15.313  14.772  12.127
 4308PP      PP14412  13.949   7.575   1.370
 4309PP      PP14413   8.281   3.037  12.739
 4310PP      PP14414  14.486   8.311  12.888
 4311PP      PP14415  11.719   7.398   1.061
 4312PP      PP14416   5.034   7.140   1.615
 4313PP      PP14417   2.085  12.222  12.961
 4314PP      PP14418  13.914  10.115  12.011
 4315PP      PP14419   7.501   7.595   3.521
 4316PP      PP14420   6.096   5.005   4.091
 4317PP      PP14421   2.399   0.218   9.530
 4318PP      PP14422  11.085  14.362  11.862
 4319PP      PP14423  10.448   5.343   0.953
 4320PP      PP14424   1.083  12.597  10.633
 4321PP      PP14425   7.615   1.801   1.927
 4322PP      PP14426   2.646   4.078   9.152
 4323PP      PP14427  13.123   6.910  10.836
 4324PP      PP14428   3.004  15.484   0.784
 4325PP      PP14429   0.984   4.727  11.370
 4326PP      PP14430  12.230   7.175  13.086
 4327PP      PP14431   2.774   9.169  12.497
 4328PP      PP14432   7.559   0.667   2.288
 4329PP      PP14433   9.049  13.679  13.514
 4330PP      PP14434   0.522   8.502   9.430
 4331PP      PP14435   8.329   2.842  11.265
 4332PP      PP14436   5.629  10.083  11.808
 4333PP      PP14437  14.017  15.061  12.709
 4334PP      PP14438   5.940   6.784   2.011
 4335PP      PP14439  13.806   7.734   9.132
 4336PP      PP14440   1.191   3.424   0.434
 4337PP      PP14441  11.868   8.547  12.854
 4338PP      PP14442   5.802   3.590  12.684
 4339PP      PP14443   5.132   0.823   5.124
 4340PP      PP14444  12.043  11.519   3.451
 4341PP      PP14445  13.892   6.024   0.958
 4342PP      PP14446   1.592  11.299   9.313
 4343PP      PP14447  11.206  13.635   1.447
 4344PP      PP14448  12.176  13.343   4.506
 4345PP      PP14449  11.120  15.702  11.008
 4346PP      PP14450   5.777  15.572   1.230
 4347PP      PP14451   3.990   6.038   1.338
 4348PP      PP14452  14.220   9.929   0.729
 4349PP      PP14453  15.040   5.295   0.213
 4350PP      PP14454   6.455   2.204   4.738
 4351PP      PP14455   9.735   3.760   2.793
 4352PP      PP14456   9.755   6.083   0.729
 4353PP      PP14457   1.959   3.742  12.485
 4354PP      PP14458   5.131   8.060   1.582
 4355PP      PP14459   3.983   9.707   8.478
 4356PP      PP14460   0.958  11.649   9.655
 4357PP      PP14461   3.839   1.351   9.991
 4358PP      PP14462   5.443   1.070  12.651
 4359PP      PP14463   7.998  13.954   0.402
 4360PP      PP14464   2.587   4.946  10.598
 4361PP      PP14465   4.979  11.229   7.676
 4362PP      PP14466   2.560   0.174   0.166
 4363PP      PP14467   4.822  13.987  11.087
 4364PP      PP14468   9.123  11.587  10.835
 4365PP      PP14469  12.411  15.374  10.329
 4366PP      PP14470   8.665  10.252   3.041
 4367PP      PP14471   4.426   1.739   0.868
 4368PP      PP14472   8.735   5.715   1.968
 4369PP      PP14473   6.080   3.922   9.742
 4370PP      PP14474   2.593   2.012  12.842
 4371PP      PP14475  15.024   3.787   9.073
 4372PP      PP14476  10.850   3.720  10.770
 4373PP      PP14477   1.253   4.110   3.446
 4374PP      PP14478  14.921  12.559  12.481
 4375PP      PP14479   3.679  15.278  11.440
 4376PP      PP14480  12.791   1.711   9.107
 4377PP      PP14481   2.702   8.422   2.148
 4378PP      PP14482   4.680   9.349   2.793
 4379PP      PP14483   1.064  14.376  10.732
 4380PP      PP14484   6.205  14.829   4.076
 4381PP      PP14485   6.731   7.269  12.405
 4382PP      PP14486   7.914   3.066   9.961
 4383PP      PP14487   7.042  15.105  10.510
 4384PP      PP14488   8.310   8.010   8.609
 4385PP      PP14489  10.810  13.321  11.884
 4386PP      PP14490  10.204   5.405   9.545
 4387PP      PP14491  14.911   3.589   4.483
 4388PP      PP14492  13.328  14.606   0.356
 4389PP      PP14493  15.657   7.715   3.518
 4390PP      PP14494  13.320  13.726   0.932
 4391PP      PP14495   5.171   0.647  12.801
 4392PP      PP14496   9.216   9.920   3.687
 4393PP      PP14497   2.536   9.836   1.968
 4394PP      PP14498   5.516   1.892   2.292
 4395PP      PP14499   2.988  11.316  10.072
 4396PP      PP14500   3.524   4.075  13.400
 4397PP      PP14501   1.102   4.399   0.780
 4398PP      PP14502   8.469   2.338   0.492
 4399PP      PP14503   3.796   0.265  12.264
 4400PP      PP14504   2.480   2.027   3.772
 4401PP      PP14505   4.120   8.391   9.875
 4402PP      PP14506   8.354  10.859   2.401
 4403PP      PP14507   3.747   3.507   9.344
 4404PP      PP14508   2.781  11.700  10.400
 4405PP      PP14509   5.976  15.770   2.512
 4406PP      PP14510   4.901  12.291  11.963
 4407PP      PP14511   0.202   7.002  10.323
 4408PP      PP14512   8.299   2.582   3.048
 4409PP      PP14513  11.129  12.212   0.907
 4410PP      PP14514  12.942  11.610   0.763
 4411PP      PP14515  11.573   8.622   9.596
 4412PP      PP14516   4.676  11.718   2.489
 4413PP      PP14517   1.415  11.819  10.355
 4414PP      PP14518  12.814   2.592  10.431
 4415PP      PP14519  15.492  14.030   1.690
 4416PP      PP14520  10.040   8.257  12.895
 4417PP      PP14521  11.421  10.021   0.492
 4418PP      PP14522  13.002   6.033   1.460
 4419PP      PP14523   0.622   4.869   2.312
 4420PP      PP14524   2.806   1.184   1.172
 4421PP      PP14525   4.326  11.810   9.233
 4422PP      PP14526  14.404  13.086   0.192
 4423PP      PP14527  10.528   6.314   0.170
 4424PP      PP14528   0.786   1.070   2.537
 4425PP      PP14529  14.678  11.512   3.669
 4426PP      PP14530   0.440   2.621   9.811
 4427PP      PP14531   4.204   1.005  12.583
 4428PP      PP14532   8.272   0.032   2.050
 4429PP      PP14533   0.116   1.711  13.285
 4430PP      PP14534   8.758  13.553  11.969
 4431PP      PP14535   2.839  15.112   1.605
 4432PP      PP14536  13.978   8.403  10.980
 4433PP      PP14537  14.490   3.334  11.946
 4434PP      PP14538  10.131  10.814  11.454
 4435PP      PP14539   1.701  11.403   1.380
 4436PP      PP14540   9.870  10.970   2.660
 4437PP      PP14541   0.732   2.032   0.811
 4438PP      PP14542  15.727   9.244   2.302
 4439PP      PP14543  11.972  15.316  10.050
 4440PP      PP14544  15.653  10.945   3.485
 4441PP      PP14545  15.757   1.870   4.213
 4442PP      PP14546   2.456  10.448   0.810
 4443PP      PP14547  11.111   6.963   3.215
 4444PP      PP14548  13.618  15.507  12.062
 4445PP      PP14549   1.476   4.367   9.147
 4446PP      PP14550   5.490   9.648  13.106
 4447PP      PP14551   4.856   7.025  13.066
 4448PP      PP14552   4.689   0.612   3.829
 4449PP      PP14553  13.562   3.522  13.291
 4450PP      PP14554  13.043  11.210   9.486
 4451PP      PP14555   8.364   6.290   1.347
 4452PP      PP14556   1.371  14.243   3.018
 4453PP      PP14557   6.887   3.056   1.841
 4454PP      PP14558   5.467  15.125   1.293
 4455PP      PP14559  15.424   2.198  11.612
 4456PP      PP14560   4.227  11.010  11.003
 4457PP      PP14561   6.625   3.289   4.203
 4458PP      PP14562   4.208   7.652   1.818
 4459PP      PP14563   8.058  14.433   3.291
 4460PP      PP14564  10.284  10.545   3.553
 4461PP      PP14565   8.980   8.960   3.759
 4462PP      PP14566  11.337  12.477  11.819
 4463PP      PP14567  13.380  15.311   2.537
 4464PP      PP14568  12.950  13.536  13.456
 4465PP      PP14569   8.199  10.077  11.000
 4466PP      PP14570   0.860   0.143  10.552
 4467PP      PP14571  13.420  11.338  12.866
 4468PP      PP14572  15.681   9.047   9.195
 4469PP      PP14573   2.049  14.886  11.467
 4470PP      PP14574  10.394   4.511   9.421
 4471PP      PP14575   3.312   5.246   3.002
 4472PP      PP14576  12.973  14.744  12.422
 4473PP      PP14577  10.348   6.807  11.576
 4474PP      PP14578  14.438   8.559   7.980
 4475PP      PP14579   2.231   2.628  13.578
 4476PP      PP14580   9.431   5.828  13.320
 4477PP      PP14581  13.328  11.562   4.499
 4478PP      PP14582   4.886  15.173   2.674
 4479PP      PP14583   1.400   4.816  11.014
 4480PP      PP14584   6.224  15.168   9.980
 4481PP      PP14585  13.861   2.257   1.746
 4482PP      PP14586   3.719   3.514  10.337
 4483PP      PP14587   5.122   5.671  13.440
 4484PP      PP14588   1.509  10.914   0.415
 4485PP      PP14589   6.159   4.305  12.597
 4486PP      PP14590   8.263   6.208   8.573
 4487PP      PP14591   0.751   1.218   0.820
 4488PP      PP14592   8.734  10.705   2.802
 4489PP      PP14593   7.373   6.799  10.373
 4490PP      PP14594   2.676   4.168  10.605
 4491PP      PP14595   9.004   3.530  11.320
 4492PP      PP14596   6.151   2.359   0.777
 4493PP      PP14597  14.211   9.793   8.369
 4494PP      PP14598  12.719   4.641   9.863
 4495PP      PP14599  14.956   7.149  11.455
 4496PP      PP14600   0.578  10.918  12.676
 4497PP      PP14601   9.822   0.567  11.469
 4498PP      PP14602   8.080   8.901   9.113
 4499PP      PP14603   7.969  11.009  11.051
 4500PP      PP14604   0.802   5.736   1.018
 4501PP      PP14605   4.607  13.684   9.665
 4502PP      PP14606   8.536   4.753   9.475
 4503PP      PP14607   3.786   6.548   2.123
 4504PP      PP14608  11.111   2.314   9.434
 4505PP      PP14609  12.889   6.566  11.155
 4506PP      PP14610  13.454  14.256  10.437
 4507PP      PP14611   1.487   9.087  11.813
 4508PP      PP14612  13.941   4.378   2.917
 4509PP      PP14613  11.074   7.059  10.128
 4510PP      PP14614  10.094  11.003   9.491
 4511PP      PP14615   9.906  14.852  11.120
 4512PP      PP14616   5.928   2.659   1.738
 4513PP      PP14617   4.385   6.367   1.192
 4514PP      PP14618   9.298  15.141   3.968
 4515PP      PP14619   8.931  10.823  10.231
 4516PP      PP14620   4.052  12.240   1.395
 4517PP      PP14621   8.638  11.079  11.784
 4518PP      PP14622   5.248   9.089   0.610
 4519PP      PP14623   5.294   9.759   2.806
 4520PP      PP14624   9.355   2.559   0.335
 4521PP      PP14625  13.912  10.630   0.737
 4522PP      PP14626   4.009   0.187   4.145
 4523PP      PP14627  12.035   9.917   9.250
 4524PP      PP14628   2.067   8.907   9.651
 4525PP      PP14629   2.411   3.376   1.807
 4526PP      PP14630   7.513   1.283  11.567
 4527PP      PP14631  10.275  15.321   9.860
 4528PP      PP14632  13.533   5.274   9.909
 4529PP      PP14633   8.252  14.009   1.359
 4530PP      PP14634  15.171   0.956   2.170
 4531PP      PP14635   0.420   3.609   1.418
 4532PP      PP14636  14.990  12.392   4.222
 4533PP      PP14637  12.328   3.336   3.821
 4534PP      PP14638   3.687  15.298   3.618
 4535PP      PP14639   1.042   5.185  11.813
 4536PP      PP14640   6.008   1.573  10.184
 4537PP      PP14641  14.297  14.177  11.487
 4538PP      PP14642  11.504  11.713   2.271
 4539PP      PP14643  13.528   0.516   1.539
 4540PP      PP14644  12.349   4.453   0.032
 4541PP      PP14645   9.086   5.013   0.124
 4542PP      PP14646   0.814  10.580  10.191
 4543PP      PP14647  15.607   0.010  10.966
 4544PP      PP14648   4.908   2.502   1.961
 4545PP      PP14649   6.797  11.283  11.600
 4546PP      PP14650   1.476   0.135   3.049
 4547PP      PP14651   2.300  10.852   2.824
 4548PP      PP14652   0.206  15.721  12.686
 4549PP      PP14653   6.802  11.005   9.297
 4550PP      PP14654   0.114  10.323   8.752
 4551PP      PP14655   3.789   3.711   2.613
 4552PP      PP14656   1.493   0.104   9.792
 4553PP      PP14657   1.704  15.810  12.746
 4554PP      PP14658  14.288  12.142   0.521
 4555PP      PP14659   0.908   9.783   3.832
 4556PP      PP14660   4.128   5.487  10.065
 4557PP      PP14661   3.639  12.564   9.401
 4558PP      PP14662  15.793  10.578   4.372
 4559PP      PP14663   2.681   5.112  13.505
 4560PP      PP14664   0.346   0.191   0.487
 4561PP      PP14665  11.339   9.561   3.209
 4562PP      PP14666  11.689  13.855   1.625
 4563PP      PP14667   9.193   7.139   4.061
 4564PP      PP14668   9.176  12.473  11.155
 4565PP      PP14669   9.883  12.021   1.333
 4566PP      PP14670  13.339   9.945  11.500
 4567PP      PP14671   7.224   9.067   3.339
 4568PP      PP14672  12.155   4.413   2.409
 4569PP      PP14673   3.639   4.025   9.887
 4570PP      PP14674   5.891  15.033  10.350
 4571PP      PP14675  14.351   8.066   0.131
 4572PP      PP14676   9.745   2.096   4.665
 4573PP      PP14677  10.820   2.080   1.804
 4574PP      PP14678  13.380   9.589  11.092
 4575PP      PP14679   4.335  12.928   1.030
 4576PP      PP14680  11.862   3.662   0.005
 4577PP      PP14681   0.824   1.767  13.029
 4578PP      PP14682   7.333  13.161   0.178
 4579PP      PP14683   2.882   0.859   9.098
 4580PP      PP14684  14.441  15.653   9.700
 4581PP      PP14685   2.307   8.405   3.735
 4582PP      PP14686  15.255   8.389   1.037
 4583PP      PP14687   2.385   5.912  12.001
 4584PP      PP14688   9.225   7.905   2.735
 4585PP      PP14689  12.415   9.823   0.838
 4586PP      PP14690   5.060   9.987  10.408
 4587PP      PP14691   7.130   6.325   3.867
 4588PP      PP14692   8.302   4.672   0.456
 4589PP      PP14693   5.425  11.397  12.274
 4590PP      PP14694  10.597   6.514  12.013
 4591PP      PP14695  15.269   9.061   3.664
 4592PP      PP14696  11.031  12.880  11.730
 4593PP      PP14697   2.472   7.891   9.344
 4594PP      PP14698   8.371   2.815  12.260
 4595PP      PP14699   8.332  10.941   3.730
 4596PP      PP14700   7.735   3.845   0.134
 4597PP      PP14701   9.286   7.111   2.415
 4598PP      PP14702  14.260   9.537   9.293
 4599PP      PP14703  12.281   6.834   8.560
 4600PP      PP14704  14.021   2.411  10.823
 4601PP      PP14705   6.843  13.966   2.045
 4602PP      PP14706  13.228  14.660  12.866
 4603PP      PP14707  12.805  15.627  12.338
 4604PP      PP14708  13.863   1.800  10.676
 4605PP      PP14709   4.068   4.363  13.581
 4606PP      PP14710   8.014  15.015   4.155
 4607PP      PP14711   6.568   6.105  11.132
 4608PP      PP14712  13.885   5.179  11.873
 4609PP      PP14713   7.449  13.769  10.141
 4610PP      PP14714  13.192   9.376   1.953
 4611PP      PP14715  11.918   8.438   3.162
 4612PP      PP14716  12.226   4.770  10.704
 4613PP      PP14717  11.343   1.827   7.673
 4614PP      PP14718   3.546  13.054   8.631
 4615PP      PP14719   7.550  13.559  10.958
 4616PP      PP14720   1.785   9.543  11.676
 4617PP      PP14721   4.760  13.859   9.054
 4618PP      PP14722   2.473   8.198  10.685
 4619PP      PP14723   9.277  11.117  13.522
 4620PP      PP14724   6.053   1.805  10.638
 4621PP      PP14725  11.435  13.599   3.370
 4622PP      PP14726  15.115   1.135  11.715
 4623PP      PP14727   5.894   8.472   8.349
 4624PP      PP14728  10.442  14.554  12.965
 4625PP      PP14729  11.364   8.853  11.832
 4626PP      PP14730  15.263  14.520  13.562
 4627PP      PP14731   2.444   9.394   8.650
 4628PP      PP14732  15.517  15.804   4.653
 4629PP      PP14733  12.979   6.641  10.333
 4630PP      PP14734   1.426  11.821  12.200
 4631PP      PP14735  11.254   8.359  11.550
 4632PP      PP14736  14.876  15.479   2.609
 4633PP      PP14737  12.474   5.112   2.495
 4634PP      PP14738   1.730  14.539  11.201
 4635PP      PP14739   8.846   7.791   3.523
 4636PP      PP14740  14.138   2.005  11.142
 4637PP      PP14741   4.331   5.856   0.996
 4638PP      PP14742   8.103  14.078  10.859
 4639PP      PP14743   7.079   0.823   2.373
 4640PP      PP14744   7.821  11.395   3.813
 4641PP      PP14745   9.752  14.826   2.074
 4642PP      PP14746   4.065   7.094   4.400
 4643PP      PP14747   7.998   1.708   1.578
 4644PP      PP14748   6.279   9.120   2.572
 4645PP      PP14749   6.675  15.703   0.797
 4646PP      PP14750   0.287   4.979  10.032
 4647PP      PP14751  11.575   8.778   1.762
 4648PP      PP14752   9.148   8.189   3.195
 4649PP      PP14753   9.030   0.893  10.526
 4650PP      PP14754   8.039   8.875   1.908
 4651PP      PP14755   8.696  10.377  13.214
 4652PP      PP14756  15.488  13.454   3.305
 4653PP      PP14757  13.395   5.896  10.705
 4654PP      PP14758   4.603   0.575   1.378
 4655PP      PP14759   7.306   2.634  10.563
 4656PP      PP14760  15.461   6.771   1.168
 4657PP      PP14761   1.230   5.229   9.817
 4658PP      PP14762   9.565  10.603   1.133
 4659PP      PP14763   3.568  11.407   0.741
 4660PP      PP14764  11.818  12.570   1.948
 4661PP      PP14765   6.468   5.152   3.002
 4662PP      PP14766  13.400   4.620  10.859
 4663PP      PP14767  11.739  11.675   0.047
 4664PP      PP14768  15.700   6.779   9.365
 4665PP      PP14769   0.438  12.083   0.222
 4666PP      PP14770  14.750   7.293   2.729
 4667PP      PP14771   0.190   7.139   3.348
 4668PP      PP14772   5.025  11.683  10.934
 4669PP      PP14773   9.166  12.170   3.343
 4670PP      PP14774   9.700  12.690  12.071
 4671PP      PP14775   5.118  11.579   2.749
 4672PP      PP14776   4.403   2.320   4.620
 4673PP      PP14777   6.826   3.498   2.737
 4674PP      PP14778   4.294  13.226   0.620
 4675PP      PP14779   3.901   2.625   8.927
 4676PP      PP14780  10.616   2.900  10.015
 4677PP      PP14781   4.942  13.047  11.451
 4678PP      PP14782  14.701   4.913   1.561
 4679PP      PP14783   6.668   1.093   0.658
 4680PP      PP14784   6.418  10.322   1.132
 4681PP      PP14785  11.295  10.274  10.534
 4682PP      PP14786   6.790   5.676   8.479
 4683PP      PP14787   3.855  11.645   8.982
 4684PP      PP14788  10.087  13.341   1.877
 4685PP      PP14789   3.008   8.526   9.982
 4686PP      PP14790   4.278  10.686  11.579
 4687PP      PP14791   4.174   2.753   9.352
 4688PP      PP14792   0.179   0.987   1.854
 4689PP      PP14793  15.176   7.592  10.707
 4690PP      PP14794   2.543   4.421   2.506
 4691PP      PP14795  14.003  10.020  13.132
 4692PP      PP14796   1.479   4.663  12.285
 4693PP      PP14797   9.975   7.904   1.890
 4694PP      PP14798   9.127  14.237   4.775
 4695PP      PP14799   3.942   2.863   2.052
 4696PP      PP14800   2.124   3.785  10.914
 4697PP      PP14801   1.302  12.591   1.336
 4698PP      PP14802   9.190  10.371  12.279
 4699PP      PP14803   1.251   2.109   0.849
 4700PP      PP14804  15.115  10.830   3.933
 4701PP      PP14805   1.942   0.480   9.773
 4702PP      PP14806  11.589  12.959   2.736
 4703PP      PP14807   7.571   9.136   0.347
 4704PP      PP14808  13.286   2.243  11.323
 4705PP      PP14809  13.509   6.438   9.436
 4706PP      PP14810   4.041  15.640  12.319
 4707PP      PP14811  11.755  12.333   9.277
 4708PP      PP14812   8.754   9.775   3.443
 4709PP      PP14813  15.467   7.621   1.130
 4710PP      PP14814   6.096   7.537   1.369
 4711PP      PP14815   2.899  12.701   1.080
 4712PP      PP14816   8.888   4.054  13.516
 4713PP      PP14817  15.613   0.649   1.785
 4714PP      PP14818   1.585   2.128   1.647
 4715PP      PP14819  14.029   7.062  11.825
 4716PP      PP14820  10.242   9.442  11.591
 4717PP      PP14821   2.664  10.354   8.489
 4718PP      PP14822  13.101   2.912  11.910
 4719PP      PP14823  13.318   3.526   9.781
 4720PP      PP14824  11.193   4.491  12.104
 4721PP      PP14825   1.855   7.001   8.518
 4722PP      PP14826   6.977   8.678   9.245
 4723PP      PP14827   5.306   2.895   3.788
 4724PP      PP14828  10.224   7.208   9.862
 4725PP      PP14829   8.793  12.536   4.892
 4726PP      PP14830  12.079   8.984  12.676
 4727PP      PP14831   7.763   8.805  12.410
 4728PP      PP14832   8.324  13.364  11.573
 4729PP      PP14833   4.839   3.293  12.451
 4730PP      PP14834  13.503   5.140   1.743
 4731PP      PP14835  13.070  13.827   4.304
 4732PP      PP14836   4.972  13.697  11.477
 4733PP      PP14837  14.792  14.124   4.840
 4734PP      PP14838   2.908   0.125   1.068
 4735PP      PP14839  10.310  13.359   3.923
 4736PP      PP14840  10.888  12.357  10.929
 4737PP      PP14841   0.786   3.445   4.381
 4738PP      PP14842  11.506   1.652   9.766
 4739PP      PP14843   0.320  15.637   3.261
 4740PP      PP14844   1.293   4.868  10.470
 4741PP      PP14845   6.236   1.219   3.891
 4742PP      PP14846   3.500   2.966   4.102
 4743PP      PP14847   3.418   1.903  12.476
 4744PP      PP14848  10.992  14.017   9.321
 4745PP      PP14849   2.700   5.795   3.466
 4746PP      PP14850   9.582   0.952  11.232
 4747PP      PP14851  10.797   4.587  12.651
 4748PP      PP14852   8.939   8.724   9.304
 4749PP      PP14853  12.789   4.455   8.818
 4750PP      PP14854   7.421   5.676   9.950
 4751PP      PP14855  11.837   2.776  13.522
 4752PP      PP14856   1.374   6.833  11.040
 4753PP      PP14857   0.450  12.548   4.319
 4754PP      PP14858  10.679   0.051  13.311
 4755PP      PP14859   7.596  12.739  13.589
 4756PP      PP14860   6.132  13.299  11.290
 4757PP      PP14861   9.242   1.329  10.331
 4758PP      PP14862  14.950  12.465  10.264
 4759PP      PP14863   7.974  10.349   1.759
 4760PP      PP14864   7.170  13.153  12.707
 4761PP      PP14865   8.150   5.184   8.502
 4762PP      PP14866   6.472  14.379  12.217
 4763PP      PP14867  11.745  15.643   1.296
 4764PP      PP14868   7.329  11.055   0.253
 4765PP      PP14869   4.544   9.936   0.514
 4766PP      PP14870  14.816  11.524   0.077
 4767PP      PP14871   3.401  14.607   8.723
 4768PP      PP14872   0.769  10.634  10.759
 4769PP      PP14873   5.931   9.533  12.595
 4770PP      PP14874  11.547   8.784   9.087
 4771PP      PP14875   0.353  11.842  12.558
 4772PP      PP14876   4.725   1.835  11.525
 4773PP      PP14877  15.064  14.778  11.662
 4774PP      PP14878   5.693   7.619   0.979
 4775PP      PP14879   8.338   3.175  13.459
 4776PP      PP14880   0.149  11.855   1.858
 4777PP      PP14881  11.404  13.953  11.150
 4778PP      PP14882   7.201   4.905  11.736
 4779PP      PP14883   4.541   1.407  12.608
 4780PP      PP14884   1.396   7.357  10.899
 4781PP      PP14885   3.284  14.047  10.449
 4782PP      PP14886   4.490  10.487  12.802
 4783PP      PP14887   8.633   6.015  13.088
 4784PP      PP14888   2.263   8.457   3.226
 4785PP      PP14889   7.810  12.913  12.760
 4786PP      PP14890  12.786   7.084   0.656
 4787PP      PP14891   0.791  11.047   1.998
 4788PP      PP14892   6.842   0.190  10.764
 4789PP      PP14893   7.266  15.008   0.015
 4790PP      PP14894  15.765  15.146   9.131
 4791PP      PP14895  11.302  10.645   9.638
 4792PP      PP14896  12.202   7.597  10.451
 4793PP      PP14897   0.626   7.989   9.371
 4794PP      PP14898   4.948   1.150  12.830
 4795PP      PP14899   9.516  13.665  13.290
 4796PP      PP14900  10.086  12.650   9.727
 4797PP      PP14901  11.300   5.182   2.906
 4798PP      PP14902  11.043   7.733   0.256
 4799PP      PP14903   4.774   1.076   4.836
 4800PP      PP14904  10.275   1.578   9.691
 4801PP      PP14905   5.435   6.951   1.990
 4802PP      PP14906   4.932   0.356  10.535
 4803PP      PP14907  10.008   5.114   0.572
 4804PP      PP14908  11.378   3.465  10.751
 4805PP      PP14909  10.593   9.637   3.024
 4806PP      PP14910   6.843   9.105  13.312
 4807PP      PP14911   6.371   6.240   8.717
 4808PP      PP14912  12.342   2.733  13.538
 4809PP      PP14913   1.663   9.454   2.317
 4810PP      PP14914   9.328  14.478  13.102
 4811PP      PP14915  14.290  10.646   2.826
 4812PP      PP14916   9.681   5.520   0.616
 4813PP      PP14917   4.450  13.429   9.017
 4814PP      PP14918  14.372  15.749  10.510
 4815PP      PP14919   3.243  15.107   0.514
 4816PP      PP14920   7.345   4.796   8.794
 4817PP      PP14921   8.290   8.859   3.715
 4818PP      PP14922  13.907  15.597   0.490
 4819PP      PP14923   8.513  13.772   2.109
 4820PP      PP14924  13.555   4.074   9.101
 4821PP      PP14925   9.122   8.895   0.517
 4822PP      PP14926   7.261   3.598   0.092
 4823PP      PP14927   8.031   0.242   0.292
 4824PP      PP14928   8.436   0.855   1.571
 4825PP      PP14929   2.995  12.719   0.284
 4826PP      PP14930  14.456   9.127   0.878
 4827PP      PP14931   4.161   1.975   1.251
 4828PP      PP14932   2.476   7.531   3.091
 4829PP      PP14933  11.127  11.124   9.729
 4830PP      PP14934   9.742   1.441  10.474
 4831PP      PP14935  12.968  10.705  11.071
 4832PP      PP14936   9.414   5.151  10.948
 4833PP      PP14937  15.389   9.535   9.040
 4834PP      PP14938  11.636   1.133  11.727
 4835PP      PP14939   3.158   5.673   3.248
 4836PP      PP14940   7.243   2.664   2.893
 4837PP      PP14941   8.645  13.983   4.855
 4838PP      PP14942   4.337   5.940   9.900
 4839PP      PP14943   6.227   2.546  10.853
 4840PP      PP14944   8.878   5.563   9.270
 4841PP      PP14945  12.438   8.154  10.560
 4842PP      PP14946   2.851  10.032  10.188
 4843PP      PP14947   2.230   0.141   2.645
 4844PP      PP14948  13.854  10.981   2.781
 4845PP      PP14949   8.895  13.895   2.837
 4846PP      PP14950  15.649   0.579  12.446
 4847PP      PP14951   6.704  15.724   4.439
 4848PP      PP14952   0.721   3.195   1.475
 4849PP      PP14953   5.131  13.304   3.370
 4850PP      PP14954   1.822  11.837   3.054
 4851PP      PP14955   6.249  10.766   0.924
 4852PP      PP14956   7.892  14.675   4.765
 4853PP      PP14957   7.274   9.116  11.772
 4854PP      PP14958  12.816   6.446   3.785
 4855PP      PP14959   0.050   9.288   1.656
 4856PP      PP14960   8.223  15.185   2.067
 4857PP      PP14961   6.161   5.792   2.259
 4858PP      PP14962   9.765   1.280   3.626
 4859PP      PP14963  12.989  14.853  11.919
 4860PP      PP14964   8.020  14.319   3.798
 4861PP      PP14965  10.886   5.177  10.829
 4862PP      PP14966  10.410   6.991   0.987
 4863PP      PP14967  12.967   1.830   8.589
 4864PP      PP14968  11.856   9.777  12.431
 4865PP      PP14969   9.009  15.450  13.603
 4866PP      PP14970   3.199  13.797   9.145
 4867PP      PP14971  13.569   3.540   1.052
 4868PP      PP14972  10.085   0.658  11.038
 4869PP      PP14973  14.177  11.534   3.424
 4870PP      PP14974   8.384   1.788   1.953
 4871PP      PP14975   7.572   4.576   1.338
 4872PP      PP14976   3.279   2.630  12.031
 4873PP      PP14977  14.650   3.871  11.794
 4874PP      PP14978   4.476  13.548   2.264
 4875PP      PP14979   3.350  11.018   1.178
 4876PP      PP14980   0.895   8.057   2.822
 4877PP      PP14981   8.072   6.658   4.771
 4878PP      PP14982   4.846   1.583   4.901
 4879PP      PP14983   7.025  15.792   0.265
 4880PP      PP14984   2.482   5.120   8.674
 4881PP      PP14985   8.124   9.886   1.591
 4882PP      PP14986   7.706   1.436   1.057
 4883PP      PP14987  14.653   1.822   1.266
 4884PP      PP14988  11.042   2.466  11.609
 4885PP      PP14989   3.043  14.434  10.700
 4886PP      PP14990   9.219   6.560  10.522
 4887PP      PP14991  14.132   2.368   2.602
 4888PP      PP14992  14.606  13.354   4.331
 4889PP      PP14993  14.913   1.360   1.086
 4890PP      PP14994  11.441   1.566  10.368
 4891PP      PP14995   5.096  10.020  11.615
 4892PP      PP14996   1.471   5.553   8.761
 4893PP      PP14997   7.784   2.951  10.574
 4894PP      PP14998   3.770   4.902  10.004
 4895PP      PP14999   7.198   4.429  13.319
 4896PP      PP15000  12.780   4.522   3.606
 4897PP      PP15001  15.802   9.530   9.828
 4898PP      PP15002   6.912   7.734  12.243
 4899PP      PP15003  13.011   4.092  12.996
 4900PP      PP15004   3.301  14.460   3.601
 4901PP      PP15005   4.425   8.441  11.811
 4902PP      PP15006  14.502  14.340   3.856
 4903PP      PP15007  11.276   0.002  10.522
 4904PP      PP15008   0.949   0.270  11.575
 4905PP      PP15009   6.749  14.262  12.632
 4906PP      PP15010   8.817  11.687  12.581
 4907PP      PP15011   1.172   5.936   8.964
 4908PP      PP15012  12.127  14.091  10.407
 4909PP      PP15013  15.145   6.854  13.239
 4910PP      PP15014   1.700  14.363  13.254
 4911PP      PP15015  14.125   4.697  12.818
 4912PP      PP15016   2.726  11.193   2.886
 4913PP      PP15017  10.210   0.281   2.755
 4914PP      PP15018   9.955  12.870   3.374
 4915PP      PP15019  14.905   0.399   3.182
 4916PP      PP15020  11.010   2.781   3.279
 4917PP      PP15021  14.481   1.949   2.809
 4918PP      PP15022   6.045  11.231   3.736
 4919PP      PP15023  12.730   2.082  10.807
 4920PP      PP15024  12.721  11.248   9.897
 4921PP      PP15025   4.714   8.871   1.270
 4922PP      PP15026   4.334   4.755   2.076
 4923PP      PP15027  12.364   5.918   8.819
 4924PP      PP15028  10.062   7.835  11.619
 4925PP      PP15029   2.655   2.305   3.383
 4926PP      PP15030  15.146  15.034   2.693
 4927PP      PP15031   8.302  15.096   3.289
 4928PP      PP15032   4.048   7.339   0.987
 4929PP      PP15033   2.089   4.775  10.450
 4930PP      PP15034   4.793  15.377  11.655
 4931PP      PP15035  14.959   5.504   9.862
 4932PP      PP15036  10.081  11.508  12.953
 4933PP      PP15037   0.934   2.806  13.103
 4934PP      PP15038  12.545   6.121   3.357
 4935PP      PP15039   4.114  15.539   2.295
 4936PP      PP15040  10.946   8.239   2.091
 4937PP      PP15041   2.792  12.734  12.866
 4938PP      PP15042   3.721  12.700   3.687
 4939PP      PP15043   0.626   8.539   2.162
 4940PP      PP15044   9.891   6.594   8.771
 4941PP      PP15045   7.820   2.893  11.091
 4942PP      PP15046  11.947  11.548  10.452
 4943PP      PP15047   4.470   5.913   9.382
 4944PP      PP15048  14.996   2.589   4.190
 4945PP      PP15049   9.489   5.102   3.448
 4946PP      PP15050   1.574   8.654   2.808
 4947PP      PP15051  14.834   7.838   9.186
 4948PP      PP15052  13.215  14.790   2.620
 4949PP      PP15053  10.140  10.928   9.995
 4950PP      PP15054   9.532   4.552  11.673
 4951PP      PP15055  15.618  12.899   1.689
 4952PP      PP15056  11.059   8.710   2.896
 4953PP      PP15057   7.728  12.543  10.808
 4954PP      PP15058   2.777  13.672   8.863
 4955PP      PP15059   0.193   9.334   7.996
 4956PP      PP15060  10.072   7.831   2.434
 4957PP      PP15061  10.273  13.619   1.446
 4958PP      PP15062   8.824   5.787  11.552
 4959PP      PP15063   8.545   3.575   2.444
 4960PP      PP15064   1.075   1.626   0.889
 4961PP      PP15065  11.840  11.476   2.921
 4962PP      PP15066   0.615  12.581   0.094
 4963PP      PP15067  11.573   7.209  11.304
 4964PP      PP15068  14.937  14.482   1.178
 4965PP      PP15069   4.401  10.374   1.708
 4966PP      PP15070   5.544   5.512   9.930
 4967PP      PP15071   6.567   8.329  12.885
 4968PP      PP15072   7.593   9.236   2.987
 4969PP      PP15073   1.904   2.243   0.309
 4970PP      PP15074  12.535  14.383   4.576
 4971PP      PP15075  10.543   2.995  12.233
 4972PP      PP15076   9.330  14.374  12.224
 4973PP      PP15077   2.090  11.384  10.885
 4974PP      PP15078  14.326  10.349  11.593
 4975PP      PP15079   2.456  12.893   3.473
 4976PP      PP15080   9.361   9.459   2.929
 4977PP      PP15081  15.462  11.954   3.492
 4978PP      PP15082   5.097   1.650   2.483
 4979PP      PP15083   2.925   7.344  12.996
 4980PP      PP15084   4.125   3.795   9.177
 4981PP      PP15085  10.651   4.197   9.096
 4982PP      PP15086   9.562   9.144   0.801
 4983PP      PP15087   4.466  11.676  10.201
 4984PP      PP15088   4.972   5.565   2.600
 4985PP      PP15089  15.093   2.056  11.169
 4986PP      PP15090   6.538   6.772   0.980
 4987PP      PP15091   1.133  12.155   1.893
 4988PP      PP15092  13.062   2.552   1.700
 4989PP      PP15093   8.887   5.224   3.758
 4990PP      PP15094   8.971   8.722   3.266
 4991PP      PP15095   6.428  12.489   2.557
 4992PP      PP15096   9.214  12.928  12.703
 4993PP      PP15097   5.925   2.046   3.495
 4994PP      PP15098   2.046   8.843   2.949
 4995PP      PP15099   6.763  11.340   9.701
 4996PP      PP15100  11.420  11.959  11.065
 4997PP      PP15101  13.089   2.499  10.877
 4998PP      PP15102   3.907  10.815   0.457
 4999PP      PP15103   8.342   1.942   0.803
 5000PP      PP15104   1.732  10.952  10.752
 5001PP      PP15105  15.005   0.804  12.859
 5002PP      PP15106   1.826  12.986   8.730
 5003PP      PP15107   0.143   3.812   9.320
 5004PP      PP15108   4.204  13.511  13.244
 5005PP      PP15109   5.484   5.793  11.256
 5006PP      PP15110   1.680   0.117   4.451
 5007PP      PP15111  10.198   5.550  10.355
 5008PP      PP15112   7.573   9.769   2.977
 5009PP      PP15113   9.319  12.835  13.402
 5010PP      PP15114   1.144   2.288   9.480
 5011PP      PP15115   6.313   3.620   9.044
 5012PP      PP15116   3.373   1.531   0.403
 5013PP      PP15117   3.456   9.370  10.889
 5014PP      PP15118   0.448  11.213   2.796
 5015PP      PP15119   7.800   8.658  10.679
 5016PP      PP15120  11.022   7.683   3.910
 5017PP      PP15121  13.765  15.036  12.239
 5018PP      PP15122   8.253   3.978   3.346
 5019PP      PP15123   5.464  10.731   8.733
 5020PP      PP15124   8.298  11.366   4.015
 5021PP      PP15125  14.894  13.870  11.414
 5022PP      PP15126   5.757   4.691   3.157
 5023PP      PP15127  11.757  12.288   3.608
 5024PP      PP15128   9.916  13.878   3.413
 5025PP      PP15129  10.752   1.703  11.407
 5026PP      PP15130   5.424  15.017   2.651
 5027PP      PP15131  15.257   4.007  10.920
 5028PP      PP15132   4.234  14.001   1.581
 5029PP      PP15133   5.777   3.570   1.332
 5030PP      PP15134  15.753  11.491  13.275
 5031PP      PP15135  11.105  13.736  12.900
 5032PP      PP15136  13.473  15.500  10.351
 5033PP      PP15137  14.119  13.474   1.451
 5034PP      PP15138   8.150   7.462  13.481
 5035PP      PP15139   4.704  11.207   8.538
 5036PP      PP15140   2.058  15.319   4.484
 5037PP      PP15141   0.429   4.070   8.968
 5038PP      PP15142   9.556   5.927   9.694
 5039PP      PP15143   5.783   8.305   0.425
 5040PP      PP15144   3.356  11.480  12.563
 5041PP      PP15145  13.503  14.169   4.285
 5042PP      PP15146   0.863   2.315   9.927
 5043PP      PP15147   5.217  15.603   0.611
 5044PP      PP15148   6.583  10.104   2.633
 5045PP      PP15149   2.143   6.776   3.837
 5046PP      PP15150   6.562  13.316  12.255
 5047PP      PP15151  10.981  11.629   4.453
 5048PP      PP15152  12.389   3.530   8.996
 5049PP      PP15153  14.203   4.155   9.964
 5050PP      PP15154   5.815  11.531  10.144
 5051PP      PP15155   8.973   6.872  12.992
 5052PP      PP15156   7.585  10.978   8.780
 5053PP      PP15157   8.539   0.672   3.177
 5054PP      PP15158  11.609  13.678   2.255
 5055PP      PP15159   2.297   7.226   9.675
 5056PP      PP15160   7.654   6.749   0.875
 5057PP      PP15161  11.409   8.439  12.160
 5058PP      PP15162   4.996   1.931   1.582
 5059PP      PP15163   8.116   9.137   9.855
 5060PP      PP15164  12.155  13.772   1.381
 5061PP      PP15165  11.091   0.715   0.737
 5062PP      PP15166  14.168  15.716   4.339
 5063PP      PP15167   5.504  10.853   2.891
 5064PP      PP15168   6.404   1.520  12.257
 5065PP      PP15169   1.017  13.676  12.722
 5066PP      PP15170  11.885   0.709  12.616
 5067PP      PP15171   3.368  10.547   3.035
 5068PP      PP15172   8.557   0.979  10.806
 5069PP      PP15173   9.620   4.363   0.122
 5070PP      PP15174   2.955   5.648   9.282
 5071PP      PP15175   9.621   4.028  12.936
 5072PP      PP15176   7.485  15.429   1.453
 5073PP      PP15177  14.290   9.157   3.502
 5074PP      PP15178  15.372   3.200  10.684
 5075PP      PP15179  14.593   6.869   3.664
 5076PP      PP15180   4.880  12.554  10.838
 5077PP      PP15181   3.539   8.338   1.607
 5078PP      PP15182   7.625  10.094  10.064
 5079PP      PP15183  14.175  11.928   3.066
 5080PP      PP15184   5.566   0.054  10.428
 5081PP      PP15185   5.432  12.958  11.351
 5082PP      PP15186  11.696   4.177   0.537
 5083PP      PP15187  11.682  15.351   0.290
 5084PP      PP15188  12.314   2.597   4.398
 5085PP      PP15189   4.744   5.539   2.056
 5086PP      PP15190  10.618   8.914   0.376
 5087PP      PP15191  10.796   0.142  10.685
 5088PP      PP15192  15.210  10.016   3.744
 5089PP      PP15193   2.668   1.774  13.311
 5090PP      PP15194  11.602  13.883   3.814
 5091PP      PP15195   1.619   8.231  11.144
 5092PP      PP15196   3.264  12.106  13.204
 5093PP      PP15197  14.952  14.047   3.839
 5094PP      PP15198   3.140  10.104   8.404
 5095PP      PP15199  11.664  11.263   1.325
 5096PP      PP15200   2.654   0.474   0.720
 5097PP      PP15201  15.211   2.921   3.854
 5098PP      PP15202   8.618   7.282   1.619
 5099PP      PP15203   1.352   5.734   0.750
 5100PP      PP15204   5.321  10.870   3.384
 5101PP      PP15205  13.727   6.865   0.715
 5102PP      PP15206   0.889   4.635   1.841
 5103PP      PP15207   1.691   2.928  13.495
 5104PP      PP15208   7.984  13.942  12.000
 5105PP      PP15209   1.658   4.616  10.123
 5106PP      PP15210   8.158   2.891   4.531
 5107PP      PP15211   9.914  11.565   2.650
 5108PP      PP15212  10.091   1.256  11.905
 5109PP      PP15213   2.259   6.061   3.663
 5110PP      PP15214  10.547   9.112  11.324
 5111PP      PP15215   6.466   9.689   4.037
 5112PP      PP15216   8.903  11.072   9.244
 5113PP      PP15217   4.392  14.792   0.091
 5114PP      PP15218   5.865   9.876   8.740
 5115PP      PP15219  10.210   2.298   0.461
 5116PP      PP15220   1.856  11.753   9.395
 5117PP      PP15221   7.263  10.754  12.959
 5118PP      PP15222   5.069   4.003   1.698
 5119PP      PP15223  13.878  13.475   3.978
 5120PP      PP15224  12.844  15.597   3.520
 5121PP      PP15225  13.181   2.307   3.739
 5122PP      PP15226   7.875  11.064   0.212
 5123PP      PP15227   6.519   8.218   2.584
 5124PP      PP15228  10.226   6.407   9.678
 5125PP      PP15229  15.391  13.497   1.625
 5126PP      PP15230   9.707   7.138   4.044
 5127PP      PP15231   9.160   8.473  11.520
 5128PP      PP15232   2.086   8.883   3.509
 5129PP      PP15233   2.527   4.328  13.169
 5130PP      PP15234  14.082  13.520  13.087
 5131PP      PP15235   8.223   7.175   8.658
 5132PP      PP15236   2.086   3.450   4.095
 5133PP      PP15237   9.916   1.123   2.209
 5134PP      PP15238  14.685   2.950   9.657
 5135PP      PP15239  12.168   4.267   3.906
 5136PP      PP15240   5.335  12.036   2.901
 5137PP      PP15241  13.739  11.339   3.197
 5138PP      PP15242  11.024   9.826   9.740
 5139PP      PP15243  11.715   5.243   9.293
 5140PP      PP15244  10.486   9.926   0.463
 5141PP      PP15245   4.263   1.773  12.933
 5142PP      PP15246   3.409   9.143   9.882
 5143PP      PP15247   6.371   7.272   2.706
 5144PP      PP15248   7.701   6.879  13.447
 5145PP      PP15249   6.352  14.227  10.611
 5146PP      PP15250  13.478   1.144   9.638
 5147PP      PP15251   2.390  15.129   3.696
 5148PP      PP15252   3.361   5.002  10.403
 5149PP      PP15253  15.272   5.794  12.111
 5150PP      PP15254  14.536   0.958  13.109
 5151PP      PP15255  11.947   1.548  11.551
 5152PP      PP15256   3.654   2.656   0.215
 5153PP      PP15257   8.471   7.862   0.063
 5154PP      PP15258  10.590  13.700   0.341
 5155PP      PP15259  10.342   0.966   0.711
 5156PP      PP15260  11.227  13.973   2.517
 5157PP      PP15261  11.200  14.854  12.036
 5158PP      PP15262   7.881   2.900   9.344
 5159PP      PP15263  13.355  14.118   3.390
 5160PP      PP15264  12.407   3.757   1.968
 5161PP      PP15265  13.347  10.169   1.134
 5162PP      PP15266   9.273  11.285  12.993
 5163PP      PP15267   3.513   9.500   8.633
 5164PP      PP15268   2.517   4.233   9.644
 5165PP      PP15269  10.646   9.937  11.796
 5166PP      PP15270   5.832  11.369   4.180
 5167PP      PP15271   8.947   0.737  11.989
 5168PP      PP15272  15.619   2.765   3.555
 5169PP      PP15273   1.837  13.448  12.106
 5170PP      PP15274  14.714   9.500  11.586
 5171PP      PP15275  15.826  10.399   0.295
 5172PP      PP15276   8.959  14.086  13.193
 5173PP      PP15277  14.942  11.962  10.262
 5174PP      PP15278   9.565  15.803   1.851
 5175PP      PP15279  11.029   3.192  13.479
 5176PP      PP15280  10.896  11.919  11.813
 5177PP      PP15281  11.544  13.769  12.634
 5178PP      PP15282  14.888   3.413   2.169
 5179PP      PP15283   5.498  14.816   0.322
 5180PP      PP15284   6.704  12.025   1.839
 5181PP      PP15285   7.014   8.068   0.713
 5182PP      PP15286   6.407  14.927   0.151
 5183PP      PP15287  12.572   0.348   9.123
 5184PP      PP15288  12.243   0.082   0.390
 5185PP      PP15289  10.855   2.937   2.299
 5186PP      PP15290   0.631   5.348  11.514
 5187PP      PP15291   8.799   1.083   3.399
 5188PP      PP15292  12.587   4.674   1.830
 5189PP      PP15293   6.224  10.246  10.997
 5190PP      PP15294  12.931  15.388  11.887
 5191PP      PP15295  15.237   7.920   8.629
 5192PP      PP15296   6.480   2.419   3.431
 5193PP      PP15297   9.960   7.401  12.480
 5194PP      PP15298   7.021   0.851   1.584
 5195PP      PP15299   0.252  13.236  11.528
 5196PP      PP15300   2.146   9.433  12.073
 5197PP      PP15301  15.529   8.583   0.585
 5198PP      PP15302   2.242   5.203  11.359
 5199PP      PP15303   2.724   6.305   2.536
 5200PP      PP15304   2.190   0.882   1.886
 5201PP      PP15305   5.219   5.636  11.703
 5202PP      PP15306   3.596  13.384  12.010
 5203PP      PP15307   2.194   2.521  11.018
 5204PP      PP15308   5.981   4.689  13.512
 5205PP      PP15309   4.588  11.860  11.951
 5206PP      PP15310   6.764   9.453   0.477
 5207PP      PP15311   0.173   6.794   8.876
 5208PP      PP15312   6.234  15.547   4.227
 5209PP      PP15313   4.369   2.503   1.871
 5210PP      PP15314  10.921   5.152   3.316
 5211PP      PP15315  14.676   5.282   3.075
 5212PP      PP15316   3.771  11.506  10.605
 5213PP      PP15317   4.104  10.129   8.858
 5214PP      PP15318  13.151   4.404  12.048
 5215PP      PP15319   6.928   2.845   4.118
 5216PP      PP15320  10.743  12.354   1.261
 5217PP      PP15321   3.754  13.335   0.494
 5218PP      PP15322  11.649  10.286   2.119
 5219PP      PP15323   7.969   8.251   3.947
 5220PP      PP15324  15.440   0.997   1.138
 5221PP      PP15325  10.600   9.573   1.496
 5222PP      PP15326   3.117  13.497  12.172
 5223PP      PP15327  12.033   1.819   4.283
 5224PP      PP15328   5.949   9.070  10.115
 5225PP      PP15329   3.263  13.113   2.909
 5226PP      PP15330   0.420   1.734   3.491
 5227PP      PP15331   1.763  13.880  13.521
 5228PP      PP15332  12.368  11.878   4.333
 5229PP      PP15333  13.476  11.193  10.542
 5230PP      PP15334   5.719   9.100   2.516
 5231PP      PP15335  13.676   7.526   9.607
 5232PP      PP15336  14.435   5.888   3.592
 5233PP      PP15337   0.765   0.745  11.827
 5234PP      PP15338  11.781   5.752  10.180
 5235PP      PP15339   9.390   4.196  11.318
 5236PP      PP15340   0.408   8.857  10.611
 5237PP      PP15341   2.619   0.290  10.358
 5238PP      PP15342  12.695  11.913   2.874
 5239PP      PP15343  15.469   5.105   9.488
 5240PP      PP15344  14.490   7.418  13.093
 5241PP      PP15345  10.601   8.036   0.115
 5242PP      PP15346  12.252   8.188  11.439
 5243PP      PP15347  10.847   4.188   3.235
 5244PP      PP15348  10.009   2.335  13.424
 5245PP      PP15349  13.008   0.077   0.838
 5246PP      PP15350   7.597   7.216   3.137
 5247PP      PP15351  11.569  10.024  12.790
 5248PP      PP15352   1.250   3.799   0.774
 5249PP      PP15353   9.886   3.495   3.546
 5250PP      PP15354  11.488   9.580   9.552
 5251PP      PP15355   4.796   2.545   2.977
 5252PP      PP15356  12.422   6.224   0.647
 5253PP      PP15357   4.300   0.162   1.393
 5254PP      PP15358   3.770  11.557   0.271
 5255PP      PP15359  12.317  12.221  11.307
 5256PP      PP15360  11.233   3.114   8.838
 5257PP      PP15361   5.191  11.837   2.294
 5258PP      PP15362  15.577   2.095   9.010
 5259PP      PP15363   8.476   8.472   9.231
 5260PP      PP15364  13.750  12.839  13.152
 5261PP      PP15365  13.694   4.358  12.744
 5262PP      PP15366  13.493   6.030   1.279
 5263PP      PP15367  12.965   4.466  11.153
 5264PP      PP15368   6.882   4.859   1.906
 5265PP      PP15369  13.412   3.156  10.138
 5266PP      PP15370   7.089  11.985   3.365
 5267PP      PP15371  13.091   6.501  12.024
 5268PP      PP15372   7.013   4.539  12.123
 5269PP      PP15373  14.783   8.726   0.900
 5270PP      PP15374   9.414   3.513   8.909
 5271PP      PP15375  10.522   0.923  12.461
 5272PP      PP15376   8.404   2.099   3.706
 5273PP      PP15377  12.305   1.947  10.436
 5274PP      PP15378   3.551  14.519  10.371
 5275PP      PP15379   5.010   8.113  11.036
 5276PP      PP15380   1.492  13.950  11.663
 5277PP      PP15381  12.822  12.942   2.844
 5278PP      PP15382   3.775  12.869   0.764
 5279PP      PP15383   5.026  14.322  13.273
 5280PP      PP15384   5.414  11.767   8.023
 5281PP      PP15385   9.249   9.537   9.587
 5282PP      PP15386   3.120   3.055   9.562
 5283PP      PP15387   3.963  11.138   0.053
 5284PP      PP15388  12.213   2.909  10.432
 5285PP      PP15389   4.229   1.654  10.200
 5286PP      PP15390  11.297   2.756   0.817
 5287PP      PP15391   9.636   1.492  11.665
 5288PP      PP15392   3.742   6.922   1.763
 5289PP      PP15393  10.397  15.578   1.981
 5290PP      PP15394  15.443   6.152   2.143
 5291PP      PP15395  10.529   8.360  10.538
 5292PP      PP15396  10.230  15.525   0.974
 5293PP      PP15397   8.614  10.654   0.580
 5294PP      PP15398  11.092   5.460   9.021
 5295PP      PP15399  13.044   7.352  11.619
 5296PP      PP15400   5.721  10.006  13.398
 5297PP      PP15401   7.503  11.681  10.633
 5298PP      PP15402  13.299   0.466   2.876
 5299PP      PP15403   8.209   6.467   9.905
 5300PP      PP15404   8.502   8.346  13.378
 5301PP      PP15405  13.830   2.515   3.199
 5302PP      PP15406   5.849  12.196   3.805
 5303PP      PP15407   1.919  11.862   1.564
 5304PP      PP15408   6.201   5.472   9.122
 5305PP      PP15409   2.175   4.050   2.424
 5306PP      PP15410   8.863  10.420  10.626
 5307PP      PP15411   4.845   7.408  12.690
 5308PP      PP15412   7.244  11.353  10.005
 5309PP      PP15413  14.968  14.351  10.160
 5310PP      PP15414   9.804   4.010   1.359
 5311PP      PP15415   1.860  15.647   4.076
 5312PP      PP15416  15.139   5.916  10.536
 5313PP      PP15417   9.477  13.803  12.342
 5314PP      PP15418  10.379   3.865   1.981
 5315PP      PP15419   4.031   8.940  13.082
 5316PP      PP15420  13.175   9.643  13.511
 5317PP      PP15421  15.620  14.936   1.056
 5318PP      PP15422   6.751   9.675   3.278
 5319PP      PP15423   1.759   5.230   0.594
 5320PP      PP15424  14.226  13.078  10.067
 5321PP      PP15425   5.413   5.673   9.438
 5322PP      PP15426   4.849   6.069   9.680
 5323PP      PP15427   7.845  11.369  12.350
 5324PP      PP15428   8.536   7.223  11.516
 5325PP      PP15429  13.801   9.482   1.348
 5326PP      PP15430  11.870  14.518  10.538
 5327PP      PP15431   1.195   8.417   8.840
 5328PP      PP15432   0.233   1.156   0.975
 5329PP      PP15433   3.732   5.293  11.719
 5330PP      PP15434   7.418   3.048  12.052
 5331PP      PP15435   8.494   0.239   9.308
 5332PP      PP15436   6.392  13.249  11.748
 5333PP      PP15437  11.538   3.524   1.055
 5334PP      PP15438   2.881   6.982   9.641
 5335PP      PP15439  15.456   8.204   9.076
 5336PP      PP15440   1.989   4.232  10.349
 5337PP      PP15441   4.035  12.336  13.586
 5338PP      PP15442   4.839   5.970   3.819
 5339PP      PP15443  12.460   5.905  12.511
 5340PP      PP15444  14.781  11.920   0.665
 5341PP      PP15445   9.903   2.975  11.344
 5342PP      PP15446   4.923  11.818  11.535
 5343PP      PP15447  12.227   9.471  13.573
 5344PP      PP15448   7.219  10.372  11.155
 5345PP      PP15449  10.234   8.918   9.021
 5346PP      PP15450  11.157  13.993   3.590
 5347PP      PP15451  12.149  10.077   2.087
 5348PP      PP15452  12.773  14.522  13.115
 5349PP      PP15453   5.867  11.897   9.140
 5350PP      PP15454   8.692   9.906  10.845
 5351PP      PP15455   5.052   2.416   0.505
 5352PP      PP15456   2.448   9.123  10.811
 5353PP      PP15457   8.679   3.240   1.030
 5354PP      PP15458   2.138  15.029   1.566
 5355PP      PP15459   9.046   6.896   8.765
 5356PP      PP15460  12.907   4.024   8.531
 5357PP      PP15461   2.676   9.037   0.842
 5358PP      PP15462   7.248   4.496   4.293
 5359PP      PP15463   2.429   2.480   9.497
 5360PP      PP15464   7.007   7.174  10.964
 5361PP      PP15465   6.723   9.134   3.157
 5362PP      PP15466  15.776   5.650   8.415
 5363PP      PP15467   7.197  14.388   2.714
 5364PP      PP15468   7.616   8.257   3.028
 5365PP      PP15469  15.288  11.803   9.857
 5366PP      PP15470  13.029   1.984   0.501
 5367PP      PP15471   4.359   1.338   9.792
 5368PP      PP15472  10.969  15.552  11.825
 5369PP      PP15473   0.111   6.361   9.605
 5370PP      PP15474   9.630   6.322  11.920
 5371PP      PP15475   4.572  11.588   0.469
 5372PP      PP15476   8.936   3.503  13.586
 5373PP      PP15477  10.828   3.026  11.814
 5374PP      PP15478   9.343   2.790   0.825
 5375PP      PP15479  13.130  10.028   8.322
 5376PP      PP15480  14.282   8.665  12.542
 5377PP      PP15481   4.449   1.217  13.094
 5378PP      PP15482  15.125   3.879   2.202
 5379PP      PP15483  10.551  14.352   5.238
 5380PP      PP15484  14.945  10.363   3.013
 5381PP      PP15485   2.846   1.894   1.946
 5382PP      PP15486   4.005  12.022   1.859
 5383PP      PP15487  10.369  14.405  12.263
 5384PP      PP15488  11.536   8.007   0.425
 5385PP      PP15489   7.957  13.943   3.459
 5386PP      PP15490   2.961  11.927   1.670
 5387PP      PP15491   7.754   4.967  11.004
 5388PP      PP15492   0.223   2.599  13.349
 5389PP      PP15493  14.112   3.331   9.354
 5390PP      PP15494  13.442   8.124  12.275
 5391PP      PP15495  13.617  11.427   0.275
 5392PP      PP15496   9.512   8.690  13.493
 5393PP      PP15497  12.948  14.651   3.875
 5394PP      PP15498   1.215  11.290  10.599
 5395PP      PP15499   5.244   8.559  11.432
 5396PP      PP15500   3.852   0.213  10.831
 5397PP      PP15501   3.611  15.294  10.378
 5398PP      PP15502  10.183   7.236  10.879
 5399PP      PP15503   4.154  14.400  10.148
 5400PP      PP15504   1.163  15.284  11.623
 5401PP      PP15505   2.447  14.199   9.447
 5402PP      PP15506  14.371   7.111   3.088
 5403PP      PP15507   2.658   4.327   3.023
 5404PP      PP15508   0.852   4.363  11.775
 5405PP      PP15509  15.148  15.369  10.970
 5406PP      PP15510   7.952  14.428  10.452
 5407PP      PP15511  10.916   7.439   3.042
 5408PP      PP15512   8.762  14.237   4.420
 5409PP      PP15513   5.196   1.810  12.002
 5410PP      PP15514   2.678   5.090  11.090
 5411PP      PP15515   6.404   1.099   1.854
 5412PP      PP15516  11.455   5.370  12.496
 5413PP      PP15517   1.805   0.938   3.239
 5414PP      PP15518   8.534  12.969  13.282
 5415PP      PP15519  15.380   9.762  12.752
 5416PP      PP15520  11.641  13.945  10.288
 5417PP      PP15521   5.563   5.164   3.184
 5418PP      PP15522   3.429  14.298   9.145
 5419PP      PP15523  12.197   4.191   2.877
 5420PP      PP15524   1.336  13.611  12.236
 5421PP      PP15525   2.374   9.813  10.062
 5422PP      PP15526  14.576  12.917   0.697
 5423PP      PP15527   7.342   6.300   0.859
 5424PP      PP15528   3.151   0.653   1.947
 5425PP      PP15529   9.328   7.906  10.407
 5426PP      PP15530   5.376   1.344   9.361
 5427PP      PP15531  11.106   7.744   2.656
 5428PP      PP15532   5.385   3.786   3.179
 5429PP      PP15533   3.587   2.287   1.395
 5430PP      PP15534   9.699  12.526   4.357
 5431PP      PP15535  13.771  11.927   3.393
 5432PP      PP15536   7.491   2.071   0.892
 5433PP      PP15537  14.312   9.786  10.808
 5434PP      PP15538   2.950  13.440   0.767
 5435PP      PP15539   9.122   8.406  10.486
 5436PP      PP15540  11.137   2.398  10.721
 5437PP      PP15541  11.240   8.032   3.485
 5438PP      PP15542  11.378  15.783   3.007
 5439PP      PP15543   4.247   9.299   8.740
 5440PP      PP15544   6.596   0.621  10.526
 5441PP      PP15545   6.318   3.332  11.362
 5442PP      PP15546  14.982  13.528   9.884
 5443PP      PP15547  14.384   9.722  12.962
 5444PP      PP15548   4.153   5.002   4.367
 5445PP      PP15549   9.544  12.379   2.790
 5446PP      PP15550   7.636  11.278   9.436
 5447PP      PP15551  14.149   0.441   2.608
 5448PP      PP15552   1.725  10.546  11.261
 5449PP      PP15553  13.500   0.978  12.881
 5450PP      PP15554  10.320   5.906   1.694
 5451PP      PP15555   5.646   1.050   5.078
 5452PP      PP15556   7.162   5.581   9.446
 5453PP      PP15557   3.592  14.455   3.158
 5454PP      PP15558   6.330  12.406   3.703
 5455PP      PP15559   0.855  14.881  11.524
 5456PP      PP15560   2.918   3.015   0.425
 5457PP      PP15561   8.315  14.374  11.987
 5458PP      PP15562   9.081  15.340   2.449
 5459PP      PP15563   6.764   1.684  13.182
 5460PP      PP15564  11.435   1.018   1.078
 5461PP      PP15565  12.706   7.720   1.192
 5462PP      PP15566  15.568   3.989   1.937
 5463PP      PP15567  12.452   9.475   0.445
 5464PP      PP15568   0.498   7.762   8.930
 5465PP      PP15569   6.807   4.902   9.937
 5466PP      PP15570   0.820   5.656  11.895
 5467PP      PP15571   0.075   9.267  10.776
 5468PP      PP15572   4.469  11.941   3.574
 5469PP      PP15573   2.090  11.491   9.857
 5470PP      PP15574   5.067   4.377   0.744
 5471PP      PP15575   4.976   5.992   0.710
 5472PP      PP15576   3.292  14.945   3.343
 5473PP      PP15577   5.572   4.816  11.616
 5474PP      PP15578   3.854   7.827   0.871
 5475PP      PP15579   6.894  11.285   2.646
 5476PP      PP15580   6.795   5.908   3.600
 5477PP      PP15581   4.047  11.171   8.740
 5478PP      PP15582   1.084  13.928   4.279
 5479PP      PP15583  13.687  14.100   9.050
 5480PP      PP15584   9.328  12.529   3.725
 5481PP      PP15585  12.740   4.140   9.721
 5482PP      PP15586   8.495  10.021   9.251
 5483PP      PP15587  11.513  10.768  13.496
 5484PP      PP15588  13.897   9.566   2.258
 5485PP      PP15589  13.131  12.347   2.062
 5486PP      PP15590  12.908   1.714  13.266
 5487PP      PP15591  11.063  10.051   9.009
 5488PP      PP15592   0.255   4.522   3.641
 5489PP      PP15593  10.879  10.984  11.046
 5490PP      PP15594   8.617  10.262   8.795
 5491PP      PP15595  15.380  14.625  10.356
 5492PP      PP15596   9.552  13.029   0.983
 5493PP      PP15597   8.465   2.535  12.705
 5494PP      PP15598   8.976   7.905  12.576
 5495PP      PP15599   2.855  15.666   1.854
 5496PP      PP15600   5.121   2.970   4.561
 5497PP      PP15601  10.756  12.155  12.788
 5498PP      PP15602   3.941   0.440  11.454
 5499PP      PP15603   8.464   1.297   3.063
 5500PP      PP15604  14.084   0.550   1.153
 5501PP      PP15605   9.227   3.423  10.833
 5502PP      PP15606  11.452   0.901  10.863
 5503PP      PP15607  15.607   3.051  12.630
 5504PP      PP15608   8.557   6.071   4.162
 5505PP      PP15609   4.480   0.115  12.315
 5506PP      PP15610  14.445   4.566  12.198
 5507PP      PP15611  13.941   9.160  13.163
 5508PP      PP15612  10.988   0.927  13.180
 5509PP      PP15613   1.319   8.599  11.636
 5510PP      PP15614  14.909   9.714  12.952
 5511PP      PP15615  13.100   8.069  13.192
 5512PP      PP15616  11.804  11.975   2.801
 5513PP      PP15617  15.377   8.420   4.221
 5514PP      PP15618   3.571   7.666  12.454
 5515PP      PP15619  10.496  15.228   4.886
 5516PP      PP15620   8.118  10.575   0.382
 5517PP      PP15621   8.123   8.585   1.433
 5518PP      PP15622   4.469   7.336  11.189
 5519PP      PP15623   2.501   6.401  12.129
 5520PP      PP15624   1.122   8.793  12.069
 5521PP      PP15625   3.521   9.186   1.448
 5522PP      PP15626  12.900   4.331   4.091
 5523PP      PP15627  10.631   0.537   0.506
 5524PP      PP15628   8.813   5.678  10.161
 5525PP      PP15629   5.596   3.783   9.607
 5526PP      PP15630   1.553   8.675  12.476
 5527PP      PP15631   5.136   0.637   2.902
 5528PP      PP15632   2.412   6.104  13.256
 5529PP      PP15633  12.850  15.109  10.457
 5530PP      PP15634  12.047  12.633  13.306
 5531PP      PP15635   5.114  10.954   8.320
 5532PP      PP15636  11.090   2.793   3.777
 5533PP      PP15637  14.472   8.083  11.192
 5534PP      PP15638   2.872  14.420  11.746
 5535PP      PP15639   4.761  10.461   8.304
 5536PP      PP15640   0.394  14.812   1.935
 5537PP      PP15641  12.513   8.206   9.687
 5538PP      PP15642   7.095  10.884  10.701
 5539PP      PP15643  10.072   1.073   2.724
 5540PP      PP15644   4.580   1.402   4.474
 5541PP      PP15645  15.799   3.543   1.786
 5542PP      PP15646   7.275   8.702  10.880
 5543PP      PP15647   7.545   0.346  11.862
 5544PP      PP15648   9.739   4.032  11.665
 5545PP      PP15649  11.273   4.448   0.417
 5546PP      PP15650   1.328   7.177   0.843
 5547PP      PP15651  12.468   1.125  11.327
 5548PP      PP15652   8.814  10.642   2.294
 5549PP      PP15653   4.349   3.418   1.265
 5550PP      PP15654  13.888  13.654  10.020
 5551PP      PP15655   2.268   7.325   1.066
 5552PP      PP15656  11.884  13.017  12.932
 5553PP      PP15657   6.127   9.325   3.909
 5554PP      PP15658   2.922  12.731  10.467
 5555PP      PP15659   9.667  10.569  12.376
 5556PP      PP15660   5.153   0.134   3.088
 5557PP      PP15661  11.187  10.187   0.921
 5558PP      PP15662   1.563  11.031  11.429
 5559PP      PP15663   0.477   5.112   3.026
 5560PP      PP15664  14.105  14.147   1.372
 5561PP      PP15665  15.052   1.735  12.650
 5562PP      PP15666  14.513   1.036   9.698
 5563PP      PP15667   7.116  14.471  13.410
 5564PP      PP15668  13.004  11.163   1.583
 5565PP      PP15669   6.526   8.404   1.378
 5566PP      PP15670   0.041   1.536   3.840
 5567PP      PP15671  14.408  12.492   1.434
 5568PP      PP15672   9.176   3.886  11.670
 5569PP      PP15673  10.255  13.071  11.231
 5570PP      PP15674   6.090   3.866   4.441
 5571PP      PP15675   3.093  15.049   2.055
 5572PP      PP15676  10.035  11.902   0.346
 5573PP      PP15677  15.801  11.796  10.017
 5574PP      PP15678   5.015   9.591  11.328
 5575PP      PP15679   3.652   8.467   2.119
 5576PP      PP15680   3.777  13.148  13.101
 5577PP      PP15681   7.216   5.217   9.819
 5578PP      PP15682   8.731  10.067   3.875
 5579PP      PP15683   0.032   8.591   9.344
 5580PP      PP15684  13.267   6.711   3.849
 5581PP      PP15685   8.187   2.685   3.601
 5582PP      PP15686  13.503  15.371   1.721
 5583PP      PP15687   2.996   4.641   3.787
 5584PP      PP15688   6.827   9.550  11.101
 5585PP      PP15689   3.121  11.402   3.183
 5586PP      PP15690   6.953   6.299  13.270
 5587PP      PP15691   4.871  13.837  12.668
 5588PP      PP15692   3.644  15.299  10.906
 5589PP      PP15693  10.359   8.254   8.376
 5590PP      PP15694   4.003   5.734   9.547
 5591PP      PP15695   4.742   0.171   4.422
 5592PP      PP15696   8.919  14.134   5.260
 5593PP      PP15697   9.854  14.020   2.496
 5594PP      PP15698   2.653   3.945  12.445
 5595PP      PP15699   2.067   9.435  13.581
 5596PP      PP15700   7.949  10.227   1.216
 5597PP      PP15701   2.002  10.337  12.099
 5598PP      PP15702  10.077   4.662   3.756
 5599PP      PP15703   1.757  11.052  13.552
 5600PP      PP15704   8.687   5.612   0.906
 5601PP      PP15705   1.879   6.621   2.966
 5602PP      PP15706  13.877  11.810   0.545
 5603PP      PP15707  13.660   4.869  12.591
 5604PP      PP15708   7.976   1.505   4.767
 5605PP      PP15709   8.546   0.615  13.194
 5606PP      PP15710   7.364  15.339   9.255
 5607PP      PP15711   2.816   0.011  12.769
 5608PP      PP15712   7.712  14.588  13.134
 5609PP      PP15713   5.157   3.698   3.687
 5610PP      PP15714  13.235   5.702   3.899
 5611PP      PP15715   1.578   4.882   9.007
 5612PP      PP15716   0.190   2.519   3.768
 5613PP      PP15717  13.477   7.864   2.553
 5614PP      PP15718   3.915   9.906   2.878
 5615PP      PP15719   2.898   3.657  10.392
 5616PP      PP15720  11.195   9.187   1.661
 5617PP      PP15721   0.209  11.066  13.392
 5618PP      PP15722   1.963   3.077   3.379
 5619PP      PP15723  12.849   6.936   2.632
 5620PP      PP15724   5.172  10.319   8.863
 5621PP      PP15725   0.619  12.529   3.315
 5622PP      PP15726   7.326   6.677  13.128
 5623PP      PP15727   6.922  12.701  11.456
 5624PP      PP15728   7.363   8.519   1.060
 5625PP      PP15729   4.790   4.046   3.510
 5626PP      PP15730   7.295  10.579   0.464
 5627PP      PP15731   1.962  13.155   9.236
 5628PP      PP15732   6.138   0.949   4.860
 5629PP      PP15733  15.414   5.984  12.577
 5630PP      PP15734  15.711   9.862   0.576
 5631PP      PP15735   9.078   8.990   8.882
 5632PP      PP15736  14.608  14.480   9.761
 5633PP      PP15737   0.197   2.546   2.271
 5634PP      PP15738   0.999   9.846  13.295
 5635PP      PP15739  14.056   0.263  10.748
 5636PP      PP15740   2.510   4.999  12.384
 5637PP      PP15741   1.989  12.660   3.683
 5638PP      PP15742  12.321   0.561   9.911
 5639PP      PP15743   3.826  15.480   1.862
 5640PP      PP15744   3.359   4.992   9.062
 5641PP      PP15745   2.729   4.351   1.793
 5642PP      PP15746   6.141   0.417   4.853
 5643PP      PP15747   0.484  14.330   0.541
 5644PP      PP15748   4.280   0.297   0.402
 5645PP      PP15749   6.007  12.120   1.136
 5646PP      PP15750   2.569  15.234  12.523
 5647PP      PP15751   7.691   5.098  12.030
 5648PP      PP15752  12.744  12.148   1.790
 5649PP      PP15753   6.254   7.530   8.592
 5650PP      PP15754   8.612   1.040  11.712
 5651PP      PP15755  15.423  12.554  12.366
 5652PP      PP15756   6.350  11.740   1.015
 5653PP      PP15757   2.349  12.072   3.275
 5654PP      PP15758   2.222   0.065  10.004
 5655PP      PP15759  11.245   4.409  10.094
 5656PP      PP15760   1.419  15.525   4.657
 5657PP      PP15761   1.408  13.748   3.201
 5658PP      PP15762  10.841  13.590  12.366
 5659PP      PP15763  15.109   6.262  12.887
 5660PP      PP15764   3.487  12.579   8.879
 5661PP      PP15765   1.166  15.311  13.190
 5662PP      PP15766   1.495   1.209   1.883
 5663PP      PP15767   1.455  11.054  10.147
 5664PP      PP15768  10.527   5.005   9.359
 5665PP      PP15769  11.455   2.906   2.441
 5666PP      PP15770   2.040   3.465  12.048
 5667PP      PP15771  13.490   2.235   0.606
 5668PP      PP15772   4.053   8.511   1.776
 5669PP      PP15773   5.798   4.775  10.201
 5670PP      PP15774   5.113   6.025  10.405
 5671PP      PP15775  10.793  15.566   3.273
 5672PP      PP15776   9.863   7.705  10.059
 5673PP      PP15777   3.204   9.658   2.321
 5674PP      PP15778   2.269  13.080  11.726
 5675PP      PP15779   3.117   9.505  12.265
 5676PP      PP15780   6.009   3.464  10.990
 5677PP      PP15781   2.569   3.045   4.040
 5678PP      PP15782   3.089   4.907  10.829
 5679PP      PP15783   7.137  14.000   4.820
 5680PP      PP15784  15.609   5.835   2.683
 5681PP      PP15785   1.659   2.633   1.585
 5682PP      PP15786  15.164   5.452  10.785
 5683PP      PP15787  14.684   0.671   3.903
 5684PP      PP15788   5.747   8.546  11.266
 5685PP      PP15789  12.629   5.564   1.369
 5686PP      PP15790   4.843   7.286   3.106
 5687PP      PP15791   3.873  14.382   2.239
 5688PP      PP15792  12.904   4.855  11.954
 5689PP      PP15793   1.440   4.346  13.438
 5690PP      PP15794  14.905  12.426   1.609
 5691PP      PP15795   8.804   1.627   3.337
 5692PP      PP15796   2.240   8.989  11.291
 5693PP      PP15797  10.688  13.746   4.006
 5694PP      PP15798  13.641   4.151   1.102
 5695PP      PP15799  11.745  11.802   3.803
 5696PP      PP15800   5.400  15.580   4.472
 5697PP      PP15801   9.718  14.845   0.726
 5698PP      PP15802   5.816   7.137   1.117
 5699PP      PP15803  11.361  11.978  12.100
 5700PP      PP15804   1.549  15.449   2.149
 5701PP      PP15805   5.355   5.982   3.946
 5702PP      PP15806  11.828   3.394  12.252
 5703PP      PP15807  12.066   8.842   9.108
 5704PP      PP15808   4.004   5.670   1.881
 5705PP      PP15809  14.328  14.381  12.017
 5706PP      PP15810   3.675   1.236   4.687
 5707PP      PP15811   3.492   5.074   1.187
 5708PP      PP15812   5.975   4.835  12.115
 5709PP      PP15813  10.838  12.775   3.540
 5710PP      PP15814   8.656   7.719  12.185
 5711PP      PP15815   2.874   5.756   0.500
 5712PP      PP15816   5.921  15.125  13.182
 5713PP      PP15817  13.896  13.841  13.506
 5714PP      PP15818   1.177   6.123   3.589
 5715PP      PP15819   3.899   4.323   0.672
 5716PP      PP15820   9.266   1.339   1.575
 5717PP      PP15821   4.964  10.733   1.039
 5718PP      PP15822  15.108  15.763  12.094
 5719PP      PP15823   5.093   3.890  10.189
 5720PP      PP15824  14.443   5.342   2.611
 5721PP      PP15825   0.896   1.718   3.750
 5722PP      PP15826   8.762   3.181   2.114
 5723PP      PP15827   0.638  12.416   0.600
 5724PP      PP15828   5.173   1.604   4.518
 5725PP      PP15829  14.607   6.988   9.369
 5726PP      PP15830   5.103  15.059  10.267
 5727PP      PP15831  13.939   4.731   1.960
 5728PP      PP15832  14.083  14.674   3.865
 5729PP      PP15833   6.013   4.225   0.706
 5730PP      PP15834   2.632  15.382   0.420
 5731PP      PP15835   8.660  14.556  11.627
 5732PP      PP15836   1.954   1.710  11.565
 5733PP      PP15837   8.493   0.152  11.442
 5734PP      PP15838   8.305  10.768   4.238
 5735PP      PP15839  12.521   3.303  10.193
 5736PP      PP15840  14.895   7.857   0.247
 5737PP      PP15841  13.514   2.648  11.712
 5738PP      PP15842   4.265   8.014  10.277
 5739PP      PP15843  10.954  11.956  11.276
 5740PP      PP15844   3.365   4.427  13.068
 5741PP      PP15845  10.140   2.431  11.086
 5742PP      PP15846  12.101   6.897   1.670
 5743PP      PP15847  14.159   1.259   4.077
 5744PP      PP15848   3.193  13.496   8.568
 5745PP      PP15849   2.934  14.259   9.647
 5746PP      PP15850   8.056  13.529   1.393
 5747PP      PP15851  13.037   8.172   1.309
 5748PP      PP15852   1.117   6.609   0.193
 5749PP      PP15853  14.867   3.241  10.054
 5750PP      PP15854  10.553  11.086  11.437
 5751PP      PP15855   5.022   9.790  13.343
 5752PP      PP15856   8.896   7.238   3.624
 5753PP      PP15857   3.221   9.057  11.379
 5754PP      PP15858   2.831   1.057   9.998
 5755PP      PP15859  11.437   0.359   0.600
 5756PP      PP15860  14.916  13.209  10.768
 5757PP      PP15861   9.004  10.432  11.153
 5758PP      PP15862   1.340  15.810   3.976
 5759PP      PP15863  14.541   3.529   9.127
 5760PP      PP15864   9.178   9.503   8.888
 5761PP      PP15865   5.544  15.248  12.772
 5762PP      PP15866   8.275  10.839  11.476
 5763PP      PP15867   1.511   7.900   4.211
 5764PP      PP15868   7.374  15.221   3.391
 5765PP      PP15869   4.980   9.091   3.171
 5766PP      PP15870   2.414  14.479   9.031
 5767PP      PP15871   9.759   2.151   0.253
 5768PP      PP15872   7.162  11.670   4.357
 5769PP      PP15873   9.184   5.021   2.296
 5770PP      PP15874   9.764  13.001   9.494
 5771PP      PP15875   9.875   3.391  12.196
 5772PP      PP15876   6.087   3.915   1.527
 5773PP      PP15877   0.250   2.069   1.032
 5774PP      PP15878   9.054   7.040   9.266
 5775PP      PP15879   8.833   0.527   4.051
 5776PP      PP15880  15.675   0.500  13.423
 5777PP      PP15881  15.488   6.389   3.425
 5778PP      PP15882   8.941  13.894  11.109
 5779PP      PP15883   9.181  13.005   2.631
 5780PP      PP15884  11.204  12.460  13.531
 5781PP      PP15885   9.185   8.685  12.880
 5782PP      PP15886  13.891  13.860   2.631
 5783PP      PP15887   5.745  11.935   0.203
 5784PP      PP15888   7.253   3.950  12.721
 5785PP      PP15889   0.025  15.461   9.852
 5786PP      PP15890  14.950   6.778   2.592
 5787PP      PP15891   3.169   2.551   0.364
 5788PP      PP15892   3.958   9.091   9.848
 5789PP      PP15893   3.004   4.808  12.586
 5790PP      PP15894  15.132  10.629  12.389
 5791PP      PP15895   1.463  13.493   9.953
 5792PP      PP15896   0.205   3.959  12.484
 5793PP      PP15897   1.614   2.566  11.028
 5794PP      PP15898   8.956   3.216   9.742
 5795PP      PP15899  14.525   2.360   3.948
 5796PP      PP15900  10.685   1.767  12.286
 5797PP      PP15901   4.733   7.993   1.205
 5798PP      PP15902  12.478   5.688  10.953
 5799PP      PP15903   8.117   7.217   2.333
 5800PP      PP15904   9.130   7.250   1.540
 5801PP      PP15905   3.825  11.989  11.358
 5802PP      PP15906  10.495   2.304   0.027
 5803PP      PP15907  12.685  13.841  12.805
 5804PP      PP15908   4.341   0.647   2.744
 5805PP      PP15909   0.503   8.140  10.028
 5806PP      PP15910   6.669   4.609   9.535
 5807PP      PP15911   9.348   0.435  11.266
 5808PP      PP15912   4.575   6.555  12.976
 5809PP      PP15913   6.293   0.294   2.761
 5810PP      PP15914   3.541   8.007  11.471
 5811PP      PP15915   3.290   3.974   3.668
 5812PP      PP15916   6.717   2.518  10.587
 5813PP      PP15917   6.563  13.693   0.838
 5814PP      PP15918   1.775  12.965  11.884
 5815PP      PP15919   0.102  10.252  10.576
 5816PP      PP15920   1.231   5.449   9.222
 5817PP      PP15921   6.476  10.948  13.027
 5818PP      PP15922   7.099  12.957   0.713
 5819PP      PP15923  12.136   6.298   8.568
 5820PP      PP15924   5.494   6.080  11.823
 5821PP      PP15925   8.475   8.900   2.323
 5822PP      PP15926   9.557  15.598  12.506
 5823PP      PP15927  14.579   3.528   0.584
 5824PP      PP15928   7.884  13.374   4.751
 5825PP      PP15929   9.644   7.495  11.454
 5826PP      PP15930  10.994  14.452   2.425
 5827PP      PP15931  13.038   2.611  12.896
 5828PP      PP15932   5.294   7.326  12.964
 5829PP      PP15933   5.351   4.416  10.356
 5830PP      PP15934  10.936   9.309  12.466
 5831PP      PP15935   1.970   3.289  10.913
 5832PP      PP15936  15.194   7.662   3.727
 5833PP      PP15937   4.678   0.827  12.414
 5834PP      PP15938  10.533   1.856   2.202
 5835PP      PP15939   9.306  12.108   9.853
 5836PP      PP15940   5.897  15.540   9.746
 5837PP      PP15941   9.022   3.670   2.169
 5838PP      PP15942  13.029   0.329  13.365
 5839PP      PP15943   1.462   3.889   2.995
 5840PP      PP15944  13.614   1.777   0.329
 5841PP      PP15945   5.603  13.322   1.474
 5842PP      PP15946  10.601   0.980   9.625
 5843PP      PP15947   2.049   8.978  10.159
 5844PP      PP15948  14.534  15.253  11.691
 5845PP      PP15949   1.567  14.609   4.821
 5846PP      PP15950  10.053  13.381  11.624
 5847PP      PP15951  11.755   0.215  11.524
 5848PP      PP15952   2.115  13.483   2.608
 5849PP      PP15953  10.605  12.918  10.448
 5850PP      PP15954  15.438   7.155  10.741
 5851PP      PP15955   5.175   4.352   0.242
 5852PP      PP15956   0.564   1.780  10.907
 5853PP      PP15957   1.808  15.734  11.432
 5854PP      PP15958  12.809   6.107   8.553
 5855PP      PP15959  10.003  11.300   3.093
 5856PP      PP15960   1.398  12.736  11.015
 5857PP      PP15961   3.799   7.874  13.530
 5858PP      PP15962   0.218   1.852   1.529
 5859PP      PP15963  14.456   6.137   0.654
 5860PP      PP15964  11.364   4.484  13.518
 5861PP      PP15965   5.012  12.197   3.388
 5862PP      PP15966   0.444   1.270   2.201
 5863PP      PP15967   7.846  15.643   2.229
 5864PP      PP15968   6.528   2.196   1.192
 5865PP      PP15969  12.885  14.697   0.631
 5866PP      PP15970  14.253   7.010  11.278
 5867PP      PP15971  14.116  15.479  13.231
 5868PP      PP15972   2.445   0.543   9.920
 5869PP      PP15973   7.718  14.734   0.870
 5870PP      PP15974   9.961   2.660  12.835
 5871PP      PP15975   9.358  10.874   3.925
 5872PP      PP15976   2.224   5.251  10.850
 5873PP      PP15977  12.871   9.767   0.452
 5874PP      PP15978   2.540   9.561   9.173
 5875PP      PP15979  15.166  13.622   2.914
 5876PP      PP15980  12.348   5.125   1.109
 5877PP      PP15981   3.094   1.551   0.869
 5878PP      PP15982   7.029  12.202  11.359
 5879PP      PP15983   5.741   6.041  12.281
 5880PP      PP15984   9.996   2.450  11.856
 5881PP      PP15985  13.127   1.004   0.760
 5882PP      PP15986   8.919   9.690   1.064
 5883PP      PP15987   8.648   1.727   2.850
 5884PP      PP15988  11.935  11.850  12.196
 5885PP      PP15989  10.874   0.714  11.672
 5886PP      PP15990   8.952  13.131   0.016
 5887PP      PP15991  11.813   2.401   3.350
 5888PP      PP15992   8.582   1.151   9.499
 5889PP      PP15993  12.304   7.670   8.786
 5890PP      PP15994   0.214  12.635   0.422
 5891PP      PP15995  14.056   6.352   9.488
 5892PP      PP15996   3.834   4.423   4.765
 5893PP      PP15997  12.393   7.405   0.842
 5894PP      PP15998  14.784   9.564   9.948
 5895PP      PP15999  14.073   7.161   2.147
 5896PP      PP16000   7.636   2.581  12.024
 5897PP      PP16001   3.587   9.733   0.635
 5898PP      PP16002   7.600  13.026  10.969
 5899PP      PP16003  11.516   2.340   0.600
 5900PP      PP16004   2.548  11.042  10.999
 5901PP      PP16005  15.731  13.911   4.790
 5902PP      PP16006  15.332   4.766  11.931
 5903PP      PP16007  10.253  13.293   0.359
 5904PP      PP16008   9.768   6.550   2.259
 5905PP      PP16009  14.066   1.556  12.142
 5906PP      PP16010   8.588   6.585   2.853
 5907PP      PP16011   0.922  13.520  11.938
 5908PP      PP16012  13.524   5.582  11.915
 5909PP      PP16013   3.023  14.156   0.676
 5910PP      PP16014  12.489   6.183  11.126
 5911PP      PP16015   6.545   3.324   3.617
 5912PP      PP16016   3.115   5.359  11.115
 5913PP      PP16017  11.480   3.467  10.062
 5914PP      PP16018  15.369   7.663   2.183
 5915PP      PP16019  10.052   5.679   3.288
 5916PP      PP16020  12.150  15.734   4.189
 5917PP      PP16021   0.265   0.142  12.197
 5918PP      PP16022   5.515   2.188  11.266
 5919PP      PP16023   7.382  14.706  11.962
 5920PP      PP16024   6.053   1.993   4.492
 5921PP      PP16025  12.923   2.961   2.044
 5922PP      PP16026   1.256   0.667  10.780
 5923PP      PP16027   9.439   9.183   9.211
 5924PP      PP16028  11.165  10.522   2.073
 5925PP      PP16029  12.654  15.133  12.249
 5926PP      PP16030  12.444  14.578  11.783
 5927PP      PP16031   1.221   6.346  10.338
 5928PP      PP16032   7.454   5.285  11.341
 5929PP      PP16033   2.794   7.584  13.490
 5930PP      PP16034  11.343   1.988   1.550
 5931PP      PP16035   6.194  12.193  12.359
 5932PP      PP16036   3.789   4.187  12.307
 5933PP      PP16037   3.398   7.756   8.673
 5934PP      PP16038  11.218  12.173  13.051
 5935PP      PP16039  11.619   5.454  11.263
 5936PP      PP16040   2.514   1.545  12.347
 5937PP      PP16041   4.131   4.837  11.863
 5938PP      PP16042  15.348   4.408  11.285
 5939PP      PP16043  10.471  15.006   0.255
 5940PP      PP16044  11.585  12.828  10.596
 5941PP      PP16045   2.387  14.840   3.219
 5942PP      PP16046  12.579  12.776   3.301
 5943PP      PP16047   7.689   6.551  12.091
 5944PP      PP16048   9.934  11.589   1.656
 5945PP      PP16049  10.462   5.992  10.440
 5946PP      PP16050  11.340  12.640   9.361
 5947PP      PP16051   3.812   5.242   3.153
 5948PP      PP16052  14.963  12.100   3.604
 5949PP      PP16053   6.174   6.685   2.509
 5950PP      PP16054   9.914   4.596   2.797
 5951PP      PP16055  14.980   0.003  11.173
 5952PP      PP16056  11.051   2.174   0.769
 5953PP      PP16057  11.823   5.195   0.167
 5954PP      PP16058  10.958   9.126   9.060
 5955PP      PP16059  10.118  11.333  12.371
 5956PP      PP16060   7.026  12.883   3.791
 5957PP      PP16061   8.213   0.421  12.474
 5958PP      PP16062   1.115  11.580   1.264
 5959PP      PP16063   2.261   7.930   9.844
 5960PP      PP16064   2.671   2.891   9.779
 5961PP      PP16065   5.746   9.657  12.107
 5962PP      PP16066   8.496   1.109   1.117
 5963PP      PP16067   0.349   1.889   9.883
 5964PP      PP16068   4.238   9.037   0.406
 5965PP      PP16069   2.999  12.397   9.728
 5966PP      PP16070   5.422  11.227   9.413
 5967PP      PP16071   0.035   1.555   9.620
 5968PP      PP16072  15.172   8.908   4.150
 5969PP      PP16073   0.521   7.792   1.285
 5970PP      PP16074   8.856  10.544   9.165
 5971PP      PP16075  14.333  12.299   1.892
 5972PP      PP16076   0.655   7.564  13.086
 5973PP      PP16077  13.044   4.442   9.377
 5974PP      PP16078   0.713  10.468   1.799
 5975PP      PP16079   1.481  13.960   9.237
 5976PP      PP16080   0.589   8.868  10.087
 5977PP      PP16081  10.197   0.564   4.604
 5978PP      PP16082   6.031  15.022   9.495
 5979PP      PP16083   7.002  12.687   1.162
 5980PP      PP16084  12.663   2.683   3.036
 5981PP      PP16085   2.786   7.012  13.388
 5982PP      PP16086  10.317   9.982   1.686
 5983PP      PP16087   3.780  11.046  11.557
 5984PP      PP16088   5.114   9.437   1.813
 5985PP      PP16089   9.093  13.618  11.541
 5986PP      PP16090   4.007   4.601   1.686
 5987PP      PP16091   9.363   5.336   1.059
 5988PP      PP16092   8.386   7.938   1.027
 5989PP      PP16093  15.227  13.922   3.358
 5990PP      PP16094   9.434   8.697  12.325
 5991PP      PP16095  12.981   5.841   0.622
 5992PP      PP16096  13.099  11.372   8.954
 5993PP      PP16097   5.329  11.459   4.033
 5994PP      PP16098   6.140   6.015  11.812
 5995PP      PP16099   5.090  14.988  12.903
 5996PP      PP16100  12.600   0.636  11.128
 5997PP      PP16101   1.801  10.001   9.386
 5998PP      PP16102  14.090  14.573  11.212
 5999PP      PP16103   3.022  12.307   4.021
 6000PP      PP16104   5.242   5.501  10.350
 6001PP      PP16105   5.827  11.159   9.743
 6002PP      PP16106  13.190  10.861   2.439
 6003PP      PP16107   7.140   7.057  12.798
 6004PP      PP16108   8.172  11.293   2.073
 6005PP      PP16109   4.843   8.249  11.557
 6006PP      PP16110  10.385   5.243   3.198
 6007PP      PP16111   0.730   5.678   5.195
 6008PP      PP16112   2.757   4.070  10.090
 6009PP      PP16113   4.907   1.370  11.267
 6010PP      PP16114   7.988  13.383  10.095
 6011PP      PP16115   1.631  12.693  10.543
 6012PP      PP16116   1.170   1.062  11.667
 6013PP      PP16117   0.369   1.492  12.252
 6014PP      PP16118   1.214   7.123   0.325
 6015PP      PP16119   3.030   2.002  10.488
 6016PP      PP16120   0.737  14.746  10.939
 6017PP      PP16121   3.376  10.056   2.719
 6018PP      PP16122   3.256   5.295   0.767
 6019PP      PP16123  14.196   7.724  12.142
 6020PP      PP16124   8.233  10.566   2.911
 6021PP      PP16125   1.162   2.846   9.602
 6022PP      PP16126   5.458   8.595  10.043
 6023PP      PP16127   7.731  10.375  12.212
 6024PP      PP16128   5.642   3.122   1.951
 6025PP      PP16129   6.150  14.659   9.875
 6026PP      PP16130   3.709   0.097   5.353
 6027PP      PP16131   8.000  13.210   0.950
 6028PP      PP16132   1.717   8.912   3.918
 6029PP      PP16133  14.146   6.797   9.228
 6030PP      PP16134   3.988   6.451  10.798
 6031PP      PP16135   3.413   4.508  12.553
 6032PP      PP16136   5.884  10.557  10.761
 6033PP      PP16137   5.751  13.636   9.610
 6034PP      PP16138  10.257  12.383   1.551
 6035PP      PP16139  14.567  11.113  12.195
 6036PP      PP16140  12.783   1.037   4.112
 6037PP      PP16141   7.200  12.589  10.595
 6038PP      PP16142  13.291   5.022   0.339
 6039PP      PP16143   5.062   2.096  12.954
 6040PP      PP16144   2.634  13.296   1.714
 6041PP      PP16145   2.312   5.772   1.795
 6042PP      PP16146   4.132   4.029   9.667
 6043PP      PP16147   7.127   8.210   2.799
 6044PP      PP16148   6.737   4.184  12.441
 6045PP      PP16149  13.439   6.112  11.987
 6046PP      PP16150  13.568  11.719   2.272
 6047PP      PP16151   8.419   4.460   9.037
 6048PP      PP16152   1.449  15.515   0.008
 6049PP      PP16153   0.642   4.734   0.080
 6050PP      PP16154   3.157   7.649  10.705
 6051PP      PP16155   9.183   7.044   9.789
 6052PP      PP16156   8.431  10.267   3.504
 6053PP      PP16157  13.132   7.511   9.433
 6054PP      PP16158   1.244   4.037   2.526
 6055PP      PP16159   6.314   0.816  11.644
 6056PP      PP16160  10.524   2.055   3.303
 6057PP      PP16161   8.669   5.115  10.476
 6058PP      PP16162   8.600   4.450   0.091
 6059PP      PP16163   6.251  13.314   3.953
 6060PP      PP16164   8.768   6.728   4.183
 6061PP      PP16165   8.165   0.567   4.830
 6062PP      PP16166   2.634   0.575  11.535
 6063PP      PP16167  11.374  10.915  13.023
 6064PP      PP16168   9.626   2.076   3.167
 6065PP      PP16169  15.787  11.657  11.244
 6066PP      PP16170   3.969  15.045   2.248
 6067PP      PP16171   8.029  15.769   4.620
 6068PP      PP16172   7.938   7.858   3.618
 6069PP      PP16173   7.459  13.794   3.357
 6070PP      PP16174  12.719   4.339   0.733
 6071PP      PP16175   6.270   9.414   3.182
 6072PP      PP16176  14.355  13.709  12.698
 6073PP      PP16177   4.820  14.148   9.469
 6074PP      PP16178   4.099   4.347   3.706
 6075PP      PP16179  12.983  13.064  12.599
 6076PP      PP16180   8.969  14.620   2.813
 6077PP      PP16181  14.272   2.657   2.060
 6078PP      PP16182   8.172   6.154   9.469
 6079PP      PP16183  14.926   6.438   9.861
 6080PP      PP16184   9.369   6.695   4.258
 6081PP      PP16185   3.140  10.926  13.503
 6082PP      PP16186   1.246   9.245  11.230
 6083PP      PP16187   6.512   8.683  13.432
 6084PP      PP16188   0.148   0.500   2.665
 6085PP      PP16189  13.227   3.977   9.537
 6086PP      PP16190   6.830  14.906  12.863
 6087PP      PP16191   0.599   4.897  11.870
 6088PP      PP16192   1.579   6.611   2.084
 6089PP      PP16193   3.351  12.833   9.781
 6090PP      PP16194  14.295   5.743   3.020
 6091PP      PP16195   4.285   9.499  10.709
 6092PP      PP16196   4.596   2.931   2.064
 6093PP      PP16197   1.068  15.699   0.331
 6094PP      PP16198  11.187  13.870   4.143
 6095PP      PP16199   6.563   6.943  12.014
 6096PP      PP16200  10.041   9.040   9.999
 6097PP      PP16201   0.856  14.793   9.074
 6098PP      PP16202   8.792   0.969  13.497
 6099PP      PP16203   1.666  10.876   9.695
 6100PP      PP16204  10.269  14.268  10.675
 6101PP      PP16205   9.769   3.919   3.283
 6102PP      PP16206  13.751  10.512   1.942
 6103PP      PP16207   6.132  15.638  11.984
 6104PP      PP16208   9.025   5.248   3.265
 6105PP      PP16209   9.982  10.637  11.924
 6106PP      PP16210  15.244   0.201   9.285
 6107PP      PP16211   3.583  13.297  12.635
 6108PP      PP16212  13.564   5.562   4.274
 6109PP      PP16213  10.230  14.037   0.481
 6110PP      PP16214   8.167  14.917   1.077
 6111PP      PP16215  14.478   5.568   9.062
 6112PP      PP16216   5.723   9.362   9.621
 6113PP      PP16217   9.047  11.707   9.603
 6114PP      PP16218  11.737  10.741   0.360
 6115PP      PP16219   2.016   3.251   1.079
 6116PP      PP16220   9.800   9.460  12.925
 6117PP      PP16221   5.680   8.195   0.930
 6118PP      PP16222   7.222   8.878   2.192
 6119PP      PP16223   3.896  11.143   9.746
 6120PP      PP16224  12.817   1.281  12.978
 6121PP      PP16225   2.825   2.013   9.982
 6122PP      PP16226  12.980   4.837   4.240
 6123PP      PP16227  15.315   6.984   0.349
 6124PP      PP16228  13.829   4.474  10.576
 6125PP      PP16229   3.566   6.047   2.123
 6126PP      PP16230  12.360   7.915   9.268
 6127PP      PP16231   1.841   3.568   9.974
 6128PP      PP16232   6.780   5.400   3.327
 6129PP      PP16233   3.482   2.471   0.780
 6130PP      PP16234   8.976  15.743   1.372
 6131PP      PP16235   7.970   9.441   1.810
 6132PP      PP16236   2.434  12.030  10.169
 6133PP      PP16237  15.538   7.882  11.460
 6134PP      PP16238   0.435   8.908   4.096
 6135PP      PP16239  15.567   1.054   3.809
 6136PP      PP16240   3.600   1.843   1.932
 6137PP      PP16241   0.277  15.483  11.522
 6138PP      PP16242   3.235   7.914   9.422
 6139PP      PP16243  10.488   3.772   3.109
 6140PP      PP16244   4.744   1.098   0.466
 6141PP      PP16245   4.836   1.670   3.565
 6142PP      PP16246   0.001  14.436   9.749
 6143PP      PP16247  14.043   1.487   0.706
 6144PP      PP16248  13.582   3.708   3.212
 6145PP      PP16249   5.658   6.411   1.760
 6146PP      PP16250   3.687   7.227  11.252
 6147PP      PP16251   2.638  15.314  11.107
 6148PP      PP16252  13.977  15.575   9.952
 6149PP      PP16253   4.645   9.023   0.038
 6150PP      PP16254  13.127   3.489   1.972
 6151PP      PP16255  15.746   1.439  12.014
 6152PP      PP16256  15.370   8.002  10.971
 6153PP      PP16257   4.201   1.489   8.858
 6154PP      PP16258  12.685   3.410   2.239
 6155PP      PP16259  10.755  13.942   2.270
 6156PP      PP16260  10.873   8.765  12.758
 6157PP      PP16261   0.532   6.858  10.708
 6158PP      PP16262  12.855   4.276  11.638
 6159PP      PP16263  15.331  14.109   2.771
 6160PP      PP16264  10.873  15.439  12.755
 6161PP      PP16265   9.619  10.517   2.753
 6162PP      PP16266   5.554  14.978   9.297
 6163PP      PP16267   2.460  10.088  10.547
 6164PP      PP16268   2.937  10.302   9.747
 6165PP      PP16269  11.647  15.701  11.053
 6166PP      PP16270  15.316   4.682   4.125
 6167PP      PP16271   8.487  12.061  10.681
 6168PP      PP16272   6.374  10.478  10.571
 6169PP      PP16273  15.806   3.302  11.117
 6170PP      PP16274  14.303   2.455   1.570
 6171PP      PP16275   6.699   8.945   9.588
 6172PP      PP16276   6.539  13.989  13.379
 6173PP      PP16277   0.813   2.877  10.034
 6174PP      PP16278   6.919   5.898   1.666
 6175PP      PP16279  10.007   9.148   2.732
 6176PP      PP16280   7.286  15.299  12.760
 6177PP      PP16281  11.341   4.227  11.589
 6178PP      PP16282  14.093   0.466   9.596
 6179PP      PP16283   2.044   2.562   1.939
 6180PP      PP16284  13.012   1.466   0.589
 6181PP      PP16285   7.307  12.347  13.417
 6182PP      PP16286   9.493   1.186   0.412
 6183PP      PP16287   0.764  14.161   4.625
 6184PP      PP16288   8.867   7.647   0.447
 6185PP      PP16289   5.908   4.725   1.509
 6186PP      PP16290  13.667   4.810   3.081
 6187PP      PP16291   3.083   7.724  12.643
 6188PP      PP16292  10.950  10.797  12.257
 6189PP      PP16293  10.943   9.051   2.461
 6190PP      PP16294   2.292  13.876   4.350
 6191PP      PP16295   1.546   5.867   9.417
 6192PP      PP16296   2.611  11.572  10.901
 6193PP      PP16297   3.766  13.136  11.039
 6194PP      PP16298   0.434   8.605  12.129
 6195PP      PP16299   4.506  12.112   2.161
 6196PP      PP16300   4.722   0.217   9.251
 6197PP      PP16301   9.436   1.178  10.807
 6198PP      PP16302   9.431   2.659  13.112
 6199PP      PP16303   0.450   1.952   2.940
 6200PP      PP16304   2.888   3.545   2.711
 6201PP      PP16305   8.410  12.804   9.710
 6202PP      PP16306   1.712  12.761   0.339
 6203PP      PP16307   4.887   7.098   3.805
 6204PP      PP16308   0.315   5.563   8.810
 6205PP      PP16309  14.255  15.123   3.653
 6206PP      PP16310   8.021  12.832  13.269
 6207PP      PP16311  15.102   5.320  11.278
 6208PP      PP16312   8.944   5.740   4.025
 6209PP      PP16313   8.558  13.670   0.319
 6210PP      PP16314   9.664   3.792   0.874
 6211PP      PP16315  15.002   8.166   2.494
 6212PP      PP16316  12.414   7.944  13.548
 6213PP      PP16317   6.570   1.413   3.500
 6214PP      PP16318   7.414   0.348  12.366
 6215PP      PP16319  14.280   0.704  10.018
 6216PP      PP16320  14.077   5.605  12.140
 6217PP      PP16321   4.707   3.381   4.442
 6218PP      PP16322  10.773   2.873   9.519
 6219PP      PP16323  15.126  14.942   3.372
 6220PP      PP16324   7.331   3.386  12.704
 6221PP      PP16325  15.550   3.673  10.638
 6222PP      PP16326   4.849   0.092   1.317
 6223PP      PP16327   4.198  14.694   1.955
 6224PP      PP16328   6.288   1.853   0.871
 6225PP      PP16329   8.611  10.442   1.054
 6226PP      PP16330   0.517   1.772   2.050
 6227PP      PP16331   0.615   7.250  12.129
 6228PP      PP16332   2.303   7.399  10.760
 6229PP      PP16333   3.883  11.732   9.500
 6230PP      PP16334   6.042   3.057   1.415
 6231PP      PP16335  12.862  13.402   0.823
 6232PP      PP16336   6.264   5.038   0.164
 6233PP      PP16337   3.899   4.809   0.249
 6234PP      PP16338   8.502  11.554  12.997
 6235PP      PP16339  14.006  15.379  10.440
 6236PP      PP16340  14.480   1.736  11.857
 6237PP      PP16341   7.475  13.587   2.242
 6238PP      PP16342   1.801   9.781   9.864
 6239PP      PP16343   9.791   4.242   8.444
 6240PP      PP16344  12.960  12.737   4.315
 6241PP      PP16345  10.282   6.560   3.073
 6242PP      PP16346  11.632   8.102   0.960
 6243PP      PP16347   2.289   8.960   1.693
 6244PP      PP16348   5.327   9.929   0.124
 6245PP      PP16349   4.262  13.161  10.776
 6246PP      PP16350   2.111  12.557  12.090
 6247PP      PP16351  11.456   4.909   0.351
 6248PP      PP16352   4.072  13.541  12.721
 6249PP      PP16353   3.694   5.761   3.039
 6250PP      PP16354   8.089   9.281   2.291
 6251PP      PP16355   7.252   1.753   4.301
 6252PP      PP16356   8.171   2.709   0.232
 6253PP      PP16357  10.505  12.370   9.946
 6254PP      PP16358  14.184   5.859   9.383
 6255PP      PP16359  15.768   1.284  12.983
 6256PP      PP16360   0.319   0.372   3.136
 6257PP      PP16361  13.486  12.850   2.011
 6258PP      PP16362   9.391   8.484  10.946
 6259PP      PP16363   5.258  10.085  10.880
 6260PP      PP16364   5.032  14.875   2.290
 6261PP      PP16365   5.961   4.540  13.022
 6262PP      PP16366   6.787   9.991  11.394
 6263PP      PP16367  13.283   0.167   4.433
 6264PP      PP16368   5.929   9.554   1.251
 6265PP      PP16369  14.790  15.004  11.291
 6266PP      PP16370   5.894  12.868  10.474
 6267PP      PP16371   3.725   8.992   2.271
 6268PP      PP16372   6.412   7.222   8.984
 6269PP      PP16373  11.415   1.639   1.979
 6270PP      PP16374  13.854   3.797  12.482
 6271PP      PP16375   5.371  12.477  11.038
 6272PP      PP16376   7.190   6.671  10.828
 6273PP      PP16377   5.599  10.493   3.611
 6274PP      PP16378   9.816   0.222  11.837
 6275PP      PP16379   8.490  11.020  12.300
 6276PP      PP16380  12.312   6.654  13.083
 6277PP      PP16381  15.649   5.413  11.186
 6278PP      PP16382   2.924   8.217  12.452
 6279PP      PP16383   8.460   5.277   9.346
 6280PP      PP16384   8.703   2.817  10.912
 6281PP      PP16385  10.788   6.517   3.187
 6282PP      PP16386   3.863   2.729  10.921
 6283PP      PP16387   5.870  13.522  12.860
 6284PP      PP16388  15.658   9.524   3.764
 6285PP      PP16389   9.100  10.200  11.696
 6286PP      PP16390  12.871  11.205  12.815
 6287PP      PP16391  13.236  12.042  11.554
 6288PP      PP16392   0.804   5.021   9.203
 6289PP      PP16393   2.189   2.965  10.008
 6290PP      PP16394   4.839   5.949   0.180
 6291PP      PP16395   6.979   2.876  10.886
 6292PP      PP16396   9.509   3.685  11.308
 6293PP      PP16397  15.820   7.494  11.206
 6294PP      PP16398   1.540  13.758   5.032
 6295PP      PP16399   2.242  13.895   8.379
 6296PP      PP16400   1.183  10.281  11.157
 6297PP      PP16401   6.914   1.066  12.457
 6298PP      PP16402  12.014   1.379   3.293
 6299PP      PP16403  11.864   9.306   2.409
 6300PP      PP16404   5.605   6.217   0.817
 6301PP      PP16405   9.557   3.413   3.159
 6302PP      PP16406   2.225   6.994   3.112
 6303PP      PP16407   6.494   1.735  10.363
 6304PP      PP16408  13.227  12.453   9.136
 6305PP      PP16409  10.513   6.762   9.989
 6306PP      PP16410   0.949  12.277   9.605
 6307PP      PP16411   5.322   6.470   0.134
 6308PP      PP16412   9.712  11.856  10.091
 6309PP      PP16413   8.095  10.744  13.446
 6310PP      PP16414   7.096   1.496   3.456
 6311PP      PP16415  15.000  14.948  13.369
 6312PP      PP16416   5.041   7.582   0.331
 6313PP      PP16417   9.355  11.781   4.781
 6314PP      PP16418   2.065  14.296   8.671
 6315PP      PP16419  14.096   5.113   9.798
 6316PP      PP16420   7.772   5.937   0.746
 6317PP      PP16421  11.429  10.829  10.134
 6318PP      PP16422  12.365   7.852  10.028
 6319PP      PP16423   8.592  11.485   0.942
 6320PP      PP16424   9.822  14.013  13.073
 6321PP      PP16425   1.995   6.176  11.778
 6322PP      PP16426   6.860  10.549  12.081
 6323PP      PP16427  15.742  10.772   0.688
 6324PP      PP16428  12.956   1.749   2.028
 6325PP      PP16429   3.538   7.455   3.626
 6326PP      PP16430  11.835   1.823  10.631
 6327PP      PP16431   5.696  14.880   3.931
 6328PP      PP16432  12.388   6.201   4.028
 6329PP      PP16433   2.893  14.582   8.820
 6330PP      PP16434  12.820   9.342   3.188
 6331PP      PP16435  11.650   4.829   0.826
 6332PP      PP16436   4.500   4.695   1.593
 6333PP      PP16437   7.838  15.262   0.857
 6334PP      PP16438  15.344   8.957   2.524
 6335PP      PP16439   9.696  13.512  11.294
 6336PP      PP16440   6.952  12.433   1.620
 6337PP      PP16441   9.378   3.343   0.720
 6338PP      PP16442   1.536  14.488   3.465
 6339PP      PP16443  12.220   4.010  12.955
 6340PP      PP16444   0.025   1.823   2.328
 6341PP      PP16445  14.741  10.004   9.650
 6342PP      PP16446   6.956  12.583   2.478
 6343PP      PP16447  11.796   5.058   3.117
 6344PP      PP16448  13.334  10.510   0.470
 6345PP      PP16449  11.468   3.544  11.700
 6346PP      PP16450   7.734   2.445  10.793
 6347PP      PP16451   2.536   2.355   1.124
 6348PP      PP16452   2.871   0.275  12.305
 6349PP      PP16453   2.966   3.962   0.770
 6350PP      PP16454  12.152   1.476   9.557
 6351PP      PP16455  15.574  13.046  12.270
 6352PP      PP16456  11.284   1.718   9.265
 6353PP      PP16457   5.860   2.572  10.458
 6354PP      PP16458   2.355  14.522  11.789
 6355PP      PP16459   2.995   4.717   8.819
 6356PP      PP16460   1.779   7.479   0.927
 6357PP      PP16461   5.420   8.959  13.249
 6358PP      PP16462   2.257   0.873   2.403
 6359PP      PP16463  13.567  12.505  11.693
 6360PP      PP16464   7.101   7.432  10.509
 6361PP      PP16465  11.897   6.098   0.518
 6362PP      PP16466   9.932   3.030  10.131
 6363PP      PP16467   6.184  12.566  11.951
 6364PP      PP16468   0.283   2.745   9.346
 6365PP      PP16469  10.675   1.753   3.953
 6366PP      PP16470  11.836   8.950   1.303
 6367PP      PP16471   8.142  12.831   0.587
 6368PP      PP16472   7.526   8.920   1.665
 6369PP      PP16473  13.866  14.459   1.786
 6370PP      PP16474   5.216  14.597   9.349
 6371PP      PP16475   8.945   2.503   0.659
 6372PP      PP16476  15.542  14.275   4.473
 6373PP      PP16477   6.195   4.732  10.532
 6374PP      PP16478   3.308  14.563  11.983
 6375PP      PP16479   6.359  14.187   3.682
 6376PP      PP16480  14.025  15.783  12.380
 6377PP      PP16481   8.699   5.470   2.918
 6378PP      PP16482   1.589   4.843   2.490
 6379PP      PP16483   9.429  14.547   1.076
 6380PP      PP16484   0.747   7.747  11.805
 6381PP      PP16485   0.439   9.914   0.961
 6382PP      PP16486   6.622  12.853  11.961
 6383PP      PP16487   2.806   9.005  13.002
 6384PP      PP16488  11.272  12.032   3.567
 6385PP      PP16489   6.524   1.999   4.181
 6386PP      PP16490   3.836  15.627  11.808
 6387PP      PP16491   3.133   5.800  10.834
 6388PP      PP16492  15.165  15.525   3.426
 6389PP      PP16493   2.409  14.957   0.677
 6390PP      PP16494   2.226  11.405   1.140
 6391PP      PP16495   1.613   3.526   9.522
 6392PP      PP16496   0.000  14.871  12.113
 6393PP      PP16497   6.237   1.589  13.306
 6394PP      PP16498  12.782  10.717   8.544
 6395PP      PP16499   0.328   5.578  11.051
 6396PP      PP16500   7.812   5.810  12.005
 6397PP      PP16501   0.573  11.632   2.496
 6398PP      PP16502   7.302   3.731   1.033
 6399PP      PP16503   5.994   9.982   0.965
 6400PP      PP16504   4.762  10.444   0.621
 6401PP      PP16505   9.301   9.887   0.683
 6402PP      PP16506   6.022   3.041   2.432
 6403PP      PP16507   3.172  11.076  11.613
 6404PP      PP16508   2.230  13.656  13.375
 6405PP      PP16509   2.405  10.273   9.852
 6406PP      PP16510  13.974  13.842   1.810
 6407PP      PP16511   1.441  13.565   0.916
 6408PP      PP16512   7.058   2.248   4.214
 6409PP      PP16513   9.745  15.380   0.514
 6410PP      PP16514   5.708   5.048   0.162
 6411PP      PP16515   0.395   1.951   3.960
 6412PP      PP16516  11.362  10.251  10.000
 6413PP      PP16517  14.577   8.902   0.425
 6414PP      PP16518  11.428   3.194   3.996
 6415PP      PP16519   7.172  11.929   4.817
 6416PP      PP16520   3.666   7.118   1.290
 6417PP      PP16521   9.911   2.127  10.225
 6418PP      PP16522  11.883   7.384   1.659
 6419PP      PP16523   2.944  13.483  10.667
 6420PP      PP16524  12.129   2.708   1.886
 6421PP      PP16525  15.198  15.334   4.359
 6422PP      PP16526  12.905  14.388   3.436
 6423PP      PP16527  15.482   7.302  13.327
 6424PP      PP16528   4.530   5.030   9.484
 6425PP      PP16529   3.367   7.525   3.149
 6426PP      PP16530   2.028   7.629   9.497
 6427PP      PP16531   1.719  11.394  10.445
 6428PP      PP16532   2.437   6.047   0.883
 6429PP      PP16533   9.556  13.292   1.835
 6430PP      PP16534   7.568  10.999  13.378
 6431PP      PP16535   9.411   7.397   3.646
 6432PP      PP16536  12.478  13.390   2.652
 6433PP      PP16537   9.109   3.037  13.375
 6434PP      PP16538   2.893   1.930  11.524
 6435PP      PP16539  11.088  10.140  12.608
 6436PP      PP16540   3.466   0.324  10.263
 6437PP      PP16541   3.862   6.696   9.785
 6438PP      PP16542   4.398  13.306   8.427
 6439PP      PP16543   8.177  13.383   4.259
 6440PP      PP16544   0.907   0.428   4.162
 6441PP      PP16545   0.416   0.985  10.548
 6442PP      PP16546   9.079  13.739   4.015
 6443PP      PP16547   2.886  15.344   4.006
 6444PP      PP16548   6.187   7.423  13.293
 6445PP      PP16549  13.409   9.152  13.471
 6446PP      PP16550   9.605   8.208   0.046
 6447PP      PP16551   3.554  14.375  13.111
 6448PP      PP16552   2.452   6.676  13.149
 6449PP      PP16553   6.483  10.601   9.456
 6450PP      PP16554   2.244   4.132  12.743
 6451PP      PP16555   1.712   3.480   1.743
 6452PP      PP16556  10.392   1.230  12.908
 6453PP      PP16557   6.859  14.960   0.430
 6454PP      PP16558   0.669   5.755  12.370
 6455PP      PP16559   8.423  14.441   4.098
 6456PP      PP16560   6.932  11.075   3.711
 6457PP      PP16561  11.627   1.539   4.145
 6458PP      PP16562  15.564   0.522   3.952
 6459PP      PP16563   6.021   8.631   1.343
 6460PP      PP16564   4.028  12.055  13.057
 6461PP      PP16565   9.052   3.470  11.991
 6462PP      PP16566   1.024   7.619   8.275
 6463PP      PP16567  12.922   1.456  11.405
 6464PP      PP16568   2.054   8.183  11.892
 6465PP      PP16569  13.040   0.425   8.949
 6466PP      PP16570   7.584   5.887   1.229
 6467PP      PP16571   3.629   2.446  12.750
 6468PP      PP16572   0.453   7.673   9.755
 6469PP      PP16573   8.678   8.765   4.168
 6470PP      PP16574  13.938  11.080  10.969
 6471PP      PP16575  10.693   3.744  12.661
 6472PP      PP16576   8.129  10.067   0.740
 6473PP      PP16577   6.786   3.775   9.245
 6474PP      PP16578  14.468  12.760  11.265
 6475PP      PP16579   0.566   2.194   9.518
 6476PP      PP16580  15.300  12.326   9.903
 6477PP      PP16581   0.005   7.499  10.682
 6478PP      PP16582   3.852   1.081  12.975
 6479PP      PP16583   6.586  15.817  12.231
 6480PP      PP16584  13.291   2.376   9.243
 6481PP      PP16585   9.592   8.621  10.398
 6482PP      PP16586   5.329   8.544   0.555
 6483PP      PP16587   1.172   1.734  13.452
 6484PP      PP16588   0.557   5.050   1.823
 6485PP      PP16589   0.345   4.444  11.790
 6486PP      PP16590  10.132   1.357  13.412
 6487PP      PP16591   1.462  14.854   0.758
 6488PP      PP16592  13.723   7.457   0.912
 6489PP      PP16593  11.663  15.502  10.441
 6490PP      PP16594   1.799   9.843  12.136
 6491PP      PP16595   0.340   7.697   0.057
 6492PP      PP16596  14.251  10.859  12.532
 6493PP      PP16597  15.362   3.997  13.183
 6494PP      PP16598   4.437  14.882  10.340
 6495PP      PP16599   7.271  13.277   1.519
 6496PP      PP16600   0.660   6.488  11.904
 6497PP      PP16601   7.527   6.044   4.125
 6498PP      PP16602  12.135  15.587   0.008
 6499PP      PP16603   6.966   9.682   4.167
 6500PP      PP16604   4.028   7.039   3.877
 6501PP      PP16605   7.208  15.328   2.252
 6502PP      PP16606  12.988  12.630   1.630
 6503PP      PP16607   3.774   6.269  11.442
 6504PP      PP16608   4.851   5.103   8.672
 6505PP      PP16609  11.232   7.453   8.765
 6506PP      PP16610  13.608   9.711   0.917
 6507PP      PP16611   9.871  10.505   0.350
 6508PP      PP16612  13.796  11.929   3.910
 6509PP      PP16613  10.836   8.741  10.338
 6510PP      PP16614   2.008   6.281  12.418
 6511PP      PP16615   0.644   1.085  12.370
 6512PP      PP16616  11.413   7.798   9.747
 6513PP      PP16617  12.852  14.268   9.668
 6514PP      PP16618  11.471  14.828   2.182
 6515PP      PP16619   3.320  15.257  11.890
 6516PP      PP16620   7.267   5.487  12.367
 6517PP      PP16621   4.158  11.294   8.229
 6518PP      PP16622  11.541  11.443  12.812
 6519PP      PP16623   2.518   0.997   5.160
 6520PP      PP16624   1.628   0.298  13.462
 6521PP      PP16625  11.161   3.313   2.511
 6522PP      PP16626   4.037   8.121   2.916
 6523PP      PP16627  13.603  12.840   9.053
 6524PP      PP16628   0.963   2.790   3.061
 6525PP      PP16629   6.838   5.300  10.256
 6526PP      PP16630  10.768  14.630   0.448
 6527PP      PP16631   5.568   6.954  10.394
 6528PP      PP16632  10.772  11.161  11.890
 6529PP      PP16633   6.913   3.973   0.759
 6530PP      PP16634   4.865   4.420   9.483
 6531PP      PP16635  14.814   5.608   1.464
 6532PP      PP16636  10.491   3.986   0.416
 6533PP      PP16637  12.170   5.576   0.670
 6534PP      PP16638   8.806   0.268   4.656
 6535PP      PP16639   2.735   9.161  11.234
 6536PP      PP16640  14.996  12.647   3.733
 6537PP      PP16641  12.025  10.987  13.570
 6538PP      PP16642  11.535  14.984   4.768
 6539PP      PP16643   9.790   8.148  10.330
 6540PP      PP16644   9.633  14.360   4.761
 6541PP      PP16645   8.114  13.478  11.030
 6542PP      PP16646   1.768   0.047  10.289
 6543PP      PP16647   5.297   5.197   8.958
 6544PP      PP16648  13.796   3.337   2.911
 6545PP      PP16649   9.504  14.151   1.615
 6546PP      PP16650   0.289   5.231   8.392
 6547PP      PP16651  10.620  15.725  12.318
 6548PP      PP16652   1.070   6.948   9.977
 6549PP      PP16653  12.280   3.658   9.820
 6550PP      PP16654   8.924   8.075  11.894
 6551PP      PP16655  10.523   0.284  10.226
 6552PP      PP16656  10.889   4.310   1.434
 6553PP      PP16657   5.698  11.291  11.593
 6554PP      PP16658   7.855  14.539  10.947
 6555PP      PP16659   1.475   6.294  13.576
 6556PP      PP16660  10.224  12.517   0.830
 6557PP      PP16661   4.452   3.069  12.797
 6558PP      PP16662   8.896   7.597  13.547
 6559PP      PP16663   9.009   4.431  10.999
 6560PP      PP16664  14.647  10.586  10.141
 6561PP      PP16665   7.705   5.875  10.343
 6562PP      PP16666  10.748  11.324   3.602
 6563PP      PP16667   8.449   8.267   4.133
 6564PP      PP16668  14.704   8.962  12.625
 6565PP      PP16669  13.074  14.312   4.558
 6566PP      PP16670   8.537   4.184  10.918
 6567PP      PP16671  10.231  15.762  13.545
 6568PP      PP16672   7.494  12.962   1.089
 6569PP      PP16673  14.222   1.408   9.948
 6570PP      PP16674  11.065   0.405  13.257
 6571PP      PP16675  13.509   5.030  10.549
 6572PP      PP16676   1.480   8.607   0.701
 6573PP      PP16677   2.594   3.060  13.500
 6574PP      PP16678   0.313   6.246   3.978
 6575PP      PP16679   4.451   8.332   2.567
 6576PP      PP16680   6.167   4.696   1.027
 6577PP      PP16681   3.758   0.721   4.826
 6578PP      PP16682   4.739  15.756  10.755
 6579PP      PP16683  10.695  13.281   0.062
 6580PP      PP16684   6.564   9.350   3.642
 6581PP      PP16685   9.375  14.671   3.762
 6582PP      PP16686  15.035   7.315   9.358
 6583PP      PP16687  13.359   4.145   3.350
 6584PP      PP16688  11.289  13.465   3.856
 6585PP      PP16689  10.526  13.726  11.547
 6586PP      PP16690   6.602   9.901   0.275
 6587PP      PP16691  11.838  14.639   4.988
 6588PP      PP16692   4.712   6.535   8.639
 6589PP      PP16693  14.948   9.291   7.976
 6590PP      PP16694  10.708   7.295   8.733
 6591PP      PP16695  10.445   7.671   9.882
 6592PP      PP16696   7.852   8.043   8.881
 6593PP      PP16697   1.320   5.678  12.010
 6594PP      PP16698   7.399   8.361  10.499
 6595PP      PP16699   9.827  12.541   9.257
 6596PP      PP16700   2.020  14.337   3.564
 6597PP      PP16701   1.798   6.993   1.058
 6598PP      PP16702  13.819   1.117  11.222
 6599PP      PP16703   1.350   4.380   1.667
 6600PP      PP16704  13.998   8.947   3.120
 6601PP      PP16705   7.165   0.383   9.792
 6602PP      PP16706   2.066   6.423  13.472
 6603PP      PP16707   7.069   0.484  13.561
 6604PP      PP16708   6.352   7.923  11.785
 6605PP      PP16709   1.815  10.017  11.194
 6606PP      PP16710   8.913   6.841  11.526
 6607PP      PP16711  10.133   6.077   2.500
 6608PP      PP16712   7.627   1.973   9.385
 6609PP      PP16713   2.800  10.728   9.035
 6610PP      PP16714  13.248  15.797  11.112
 6611PP      PP16715   6.367   9.356  12.874
 6612PP      PP16716   6.126   9.346   9.243
 6613PP      PP16717   6.599   3.897   1.626
 6614PP      PP16718   5.593   5.427   1.840
 6615PP      PP16719  14.596   2.245  13.467
 6616PP      PP16720  10.236   9.400   8.703
 6617PP      PP16721   6.251  10.173   3.936
 6618PP      PP16722   8.296   7.615   0.595
 6619PP      PP16723  11.071   5.462  12.120
 6620PP      PP16724   2.423   5.399   2.903
 6621PP      PP16725  14.148   7.031  12.968
 6622PP      PP16726   2.668   2.377  10.800
 6623PP      PP16727   1.294  14.753  12.977
 6624PP      PP16728   0.617   6.319   9.537
 6625PP      PP16729   2.344   4.631   1.584
 6626PP      PP16730  13.277   9.475   2.472
 6627PP      PP16731   0.117  12.544   3.191
 6628PP      PP16732   0.984   5.186   0.079
 6629PP      PP16733   5.082  12.846   8.863
 6630PP      PP16734  13.382   9.422  11.586
 6631PP      PP16735  11.966   8.071  10.377
 6632PP      PP16736   2.118   3.175   0.044
 6633PP      PP16737   3.808   4.128   8.864
 6634PP      PP16738   9.222   3.969   9.507
 6635PP      PP16739   6.174  12.435  10.745
 6636PP      PP16740  13.166   0.632   9.452
 6637PP      PP16741  12.633   9.363   0.968
 6638PP      PP16742  11.512  13.513   4.365
 6639PP      PP16743  10.332  14.476   0.209
 6640PP      PP16744   2.862  13.017   2.091
 6641PP      PP16745   9.246   7.629   2.300
 6642PP      PP16746   7.353   6.521   4.338
 6643PP      PP16747  13.243   5.813   9.293
 6644PP      PP16748   6.741   8.021   3.101
 6645PP      PP16749  13.240   6.663   2.884
 6646PP      PP16750   8.819   8.790   0.938
 6647PP      PP16751  11.111   4.849   0.767
 6648PP      PP16752   2.136  14.608   9.461
 6649PP      PP16753   5.526  13.929   1.400
 6650PP      PP16754  11.773  14.163  12.404
 6651PP      PP16755   7.056   6.325  12.209
 6652PP      PP16756   0.369  13.663  12.799
 6653PP      PP16757   4.361   2.752   4.946
 6654PP      PP16758   6.345  13.640   4.793
 6655PP      PP16759   8.990   9.566   1.965
 6656PP      PP16760  15.726  11.687   9.521
 6657PP      PP16761   6.697   9.414   9.776
 6658PP      PP16762   3.319  11.702  10.363
 6659PP      PP16763  12.675   0.875   0.515
 6660PP      PP16764  15.797  14.515   0.827
 6661PP      PP16765  13.563   2.152  11.768
 6662PP      PP16766   6.330   3.571   0.155
 6663PP      PP16767   0.054  10.561  13.415
 6664PP      PP16768   0.429  10.428   9.155
 6665PP      PP16769  13.564  11.009   9.280
 6666PP      PP16770   8.514   0.798  12.688
 6667PP      PP16771   3.818   0.661   0.333
 6668PP      PP16772  12.454   6.338  12.056
 6669PP      PP16773   8.225   7.086   8.151
 6670PP      PP16774   9.120  13.439  12.572
 6671PP      PP16775   5.290   0.414   0.560
 6672PP      PP16776   2.795   9.091   0.305
 6673PP      PP16777  11.165   5.606  11.077
 6674PP      PP16778   1.139  12.258  11.076
 6675PP      PP16779   6.406  12.404  13.382
 6676PP      PP16780  11.143  15.011   0.507
 6677PP      PP16781  11.037   6.424  11.625
 6678PP      PP16782   3.772  14.558   9.819
 6679PP      PP16783   4.254  13.059   9.357
 6680PP      PP16784  10.835   1.915  10.707
 6681PP      PP16785   5.303   0.523   9.140
 6682PP      PP16786   1.838   2.791   2.981
 6683PP      PP16787  12.910  10.667   0.176
 6684PP      PP16788  11.955   1.234   0.179
 6685PP      PP16789   3.575  12.582  11.919
 6686PP      PP16790  10.856  12.488  12.059
 6687PP      PP16791   4.139   7.225   1.522
 6688PP      PP16792   7.132  14.725   3.321
 6689PP      PP16793   8.940   8.722   2.031
 6690PP      PP16794  14.272   1.465   1.983
 6691PP      PP16795   6.732  13.907   0.342
 6692PP      PP16796   6.966   4.370   9.935
 6693PP      PP16797   7.413  12.521   3.720
 6694PP      PP16798   7.834   3.529  10.855
 6695PP      PP16799   4.798  14.722   9.969
 6696PP      PP16800  14.266   6.721   9.825
 6697PP      PP16801   5.188  10.834   9.151
 6698PP      PP16802  13.838  14.138   3.100
 6699PP      PP16803   6.168  13.096  12.893
 6700PP      PP16804   5.057   8.214   3.746
 6701PP      PP16805  10.140   4.182   9.083
 6702PP      PP16806   1.728   3.910  13.465
 6703PP      PP16807   3.130  12.610  12.212
 6704PP      PP16808   4.184   8.316   9.196
 6705PP      PP16809   0.212   9.909  12.070
 6706PP      PP16810   8.332   1.137   4.056
 6707PP      PP16811   5.189   3.514   1.850
 6708PP      PP16812  11.071  12.628   0.417
 6709PP      PP16813  11.130  12.980  10.359
 6710PP      PP16814   8.644   6.320   0.166
 6711PP      PP16815   1.522   2.402   2.078
 6712PP      PP16816   8.889   9.994  12.504
 6713PP      PP16817   3.190   1.983   1.556
 6714PP      PP16818  10.989   1.398   9.575
 6715PP      PP16819   2.335   4.481  11.842
 6716PP      PP16820   8.787   5.130   1.853
 6717PP      PP16821  10.559  10.350   8.452
 6718PP      PP16822   7.857   5.387  10.422
 6719PP      PP16823   9.908   3.695   1.766
 6720PP      PP16824  11.329   8.741  10.575
 6721PP      PP16825   6.319  13.495   1.285
 6722PP      PP16826   5.903  13.012   3.068
 6723PP      PP16827  14.004  11.779   8.875
 6724PP      PP16828  13.457  11.567   3.620
 6725PP      PP16829   3.931   6.814  10.356
 6726PP      PP16830  11.877  10.977  11.196
 6727PP      PP16831   6.721  11.585   1.372
 6728PP      PP16832   1.206   8.629  10.267
 6729PP      PP16833  11.044   3.808   2.570
 6730PP      PP16834   4.427   9.236   9.642
 6731PP      PP16835   7.807   5.630  11.520
 6732PP      PP16836   3.601  11.743  12.193
 6733PP      PP16837   3.039   3.807  10.973
 6734PP      PP16838  11.591   8.406  10.300
 6735PP      PP16839   1.396   5.884  10.498
 6736PP      PP16840  10.911   0.240   3.296
 6737PP      PP16841  15.078   2.636  12.645
 6738PP      PP16842  13.905   2.308   9.421
 6739PP      PP16843   0.890   8.847   3.816
 6740PP      PP16844  15.765   7.057   8.491
 6741PP      PP16845   7.854   9.915   4.111
 6742PP      PP16846   5.039   0.868  10.544
 6743PP      PP16847  10.721   1.926   9.652
 6744PP      PP16848  10.433   7.989  12.538
 6745PP      PP16849   6.494  14.213   0.728
 6746PP      PP16850   6.693  11.106   1.611
 6747PP      PP16851   4.170   7.308   9.005
 6748PP      PP16852   1.815   2.287  13.410
 6749PP      PP16853   1.708   8.109   1.946
 6750PP      PP16854  15.680   4.233   3.824
 6751PP      PP16855  13.805   8.485  12.414
 6752PP      PP16856   6.115   3.384  10.438
 6753PP      PP16857   6.372   1.973   2.092
 6754PP      PP16858   4.698   0.012  11.401
 6755PP      PP16859  14.459  13.744  11.197
 6756PP      PP16860   9.552  12.879   0.293
 6757PP      PP16861  15.721   3.648   0.519
 6758PP      PP16862  15.787  11.799  12.187
 6759PP      PP16863  11.270  15.412   1.327
 6760PP      PP16864   7.046   2.545   9.114
 6761PP      PP16865   0.873   2.295   3.176
 6762PP      PP16866  11.659  10.953   2.889
 6763PP      PP16867   4.525  15.519   1.447
 6764PP      PP16868   3.357  15.554  12.951
 6765PP      PP16869   5.123   5.178   9.960
 6766PP      PP16870   8.352   5.319   2.067
 6767PP      PP16871   8.940   0.125  11.184
 6768PP      PP16872   1.327  10.553   9.978
 6769PP      PP16873   4.435  14.336   9.154
 6770PP      PP16874   4.456   5.531  10.882
 6771PP      PP16875  14.078   5.707   8.378
 6772PP      PP16876  14.338   4.350   9.492
 6773PP      PP16877   4.156  15.175   1.046
 6774PP      PP16878  14.389   7.971   2.062
 6775PP      PP16879  13.418   4.131  10.565
 6776PP      PP16880  14.593   9.411   1.949
 6777PP      PP16881  10.637   8.820   9.335
 6778PP      PP16882   9.276   4.515   8.646
 6779PP      PP16883   5.551   3.907   3.998
 6780PP      PP16884   3.943  15.282   2.720
 6781PP      PP16885  13.099   1.623   0.123
 6782PP      PP16886   2.602  14.197   8.637
 6783PP      PP16887   9.695  11.436  12.104
 6784PP      PP16888  15.499   6.199   8.081
 6785PP      PP16889   1.295   4.109   1.170
 6786PP      PP16890   0.214  10.071  11.043
 6787PP      PP16891  12.285  14.741   2.877
 6788PP      PP16892  15.050   3.891  11.421
 6789PP      PP16893   2.040   8.485   2.556
 6790PP      PP16894  13.655   9.210   0.699
 6791PP      PP16895   9.613   4.723   1.912
 6792PP      PP16896   5.069  11.357   0.390
 6793PP      PP16897   0.137  14.467   2.250
 6794PP      PP16898   9.444   5.474   0.117
 6795PP      PP16899  10.590   9.402   0.571
 6796PP      PP16900  12.544   7.265   3.943
 6797PP      PP16901   8.672   9.794  13.511
 6798PP      PP16902   5.650   8.206   3.690
 6799PP      PP16903   1.056   2.196   1.714
 6800PP      PP16904   0.659   2.729   3.598
 6801PP      PP16905   0.769   5.898   3.322
 6802PP      PP16906  10.384  12.246   4.096
 6803PP      PP16907  10.702   4.956  11.290
 6804PP      PP16908   8.921   2.022   1.216
 6805PP      PP16909   2.407   5.588   0.656
 6806PP      PP16910   6.557   5.787   8.923
 6807PP      PP16911   9.368  15.624  13.006
 6808PP      PP16912  13.345   4.590  10.332
 6809PP      PP16913   2.388  15.060   2.391
 6810PP      PP16914   6.811  14.172  10.826
 6811PP      PP16915   2.025  13.546  11.619
 6812PP      PP16916   3.954   0.582   1.323
 6813PP      PP16917  10.855   3.517  12.209
 6814PP      PP16918  10.183   8.402  11.648
 6815PP      PP16919   4.155   8.640  10.366
 6816PP      PP16920   9.954   3.498  12.699
 6817PP      PP16921   4.047   4.300  10.703
 6818PP      PP16922   8.896  12.248   0.422
 6819PP      PP16923   0.173   3.890  10.733
 6820PP      PP16924   0.057   3.545   3.919
 6821PP      PP16925   2.573  12.668  11.830
 6822PP      PP16926  13.150   3.968   0.391
 6823PP      PP16927  12.196   3.450   0.986
 6824PP      PP16928   8.012   5.986   0.293
 6825PP      PP16929   3.597   7.190   2.205
 6826PP      PP16930  13.679  13.355  11.123
 6827PP      PP16931   8.136   1.955  11.461
 6828PP      PP16932  11.364   4.174   2.356
 6829PP      PP16933   0.139   9.922   2.497
 6830PP      PP16934   5.872   8.749   3.887
 6831PP      PP16935  13.996   3.021   8.898
 6832PP      PP16936  13.555  11.195   4.810
 6833PP      PP16937   9.035   4.408  11.643
 6834PP      PP16938  13.470   3.015   2.585
 6835PP      PP16939   0.687   8.742  12.543
 6836PP      PP16940   5.188   6.510   0.691
 6837PP      PP16941  12.561   6.472   8.819
 6838PP      PP16942   8.432  11.084   0.075
 6839PP      PP16943  10.314   2.897   4.242
 6840PP      PP16944   4.283   1.275  10.556
 6841PP      PP16945  10.297   0.035   4.602
 6842PP      PP16946   6.575   7.586   3.358
 6843PP      PP16947  15.175  15.790  10.629
 6844PP      PP16948   3.410   5.534   4.092
 6845PP      PP16949   3.833   5.732   0.159
 6846PP      PP16950  10.201   3.944  12.611
 6847PP      PP16951  15.258   0.095   1.013
 6848PP      PP16952   6.945   3.024  11.846
 6849PP      PP16953   9.250   6.297   9.494
 6850PP      PP16954  12.232   3.437  10.598
 6851PP      PP16955  14.428  13.557   9.900
 6852PP      PP16956  11.393   5.048   1.243
 6853PP      PP16957  10.808   2.652   0.694
 6854PP      PP16958   0.083   4.454  12.264
 6855PP      PP16959  11.862  10.248   0.361
 6856PP      PP16960   6.297   2.987   0.002
 6857PP      PP16961  14.782   4.866   4.237
 6858PP      PP16962   3.672   4.412  11.122
 6859PP      PP16963  11.504   3.983  10.224
 6860PP      PP16964  11.875   2.088   1.323
 6861PP      PP16965  10.093   4.728   9.018
 6862PP      PP16966  11.947   0.780  13.344
 6863PP      PP16967  10.058   8.915  11.499
 6864PP      PP16968  14.265   2.116   2.043
 6865PP      PP16969  13.484   4.842  12.012
 6866PP      PP16970   2.279  12.674  12.735
 6867PP      PP16971   4.044  10.924   3.822
 6868PP      PP16972   3.391   7.379   2.641
 6869PP      PP16973   0.042   3.893  10.189
 6870PP      PP16974   8.126   4.703  13.525
 6871PP      PP16975   2.907   4.707  13.104
 6872PP      PP16976   0.788  12.095   2.628
 6873PP      PP16977  13.978   9.620  12.197
 6874PP      PP16978   0.689   9.283  12.637
 6875PP      PP16979  15.654  13.649   2.049
 6876PP      PP16980   9.546   6.768   2.689
 6877PP      PP16981  11.802   8.442  10.784
 6878PP      PP16982  10.456  12.696  10.889
 6879PP      PP16983   3.734  10.950   2.941
 6880PP      PP16984   0.344  11.144  11.579
 6881PP      PP16985   2.711   5.837  10.505
 6882PP      PP16986   6.243   1.538  11.051
 6883PP      PP16987   9.878   5.261   1.045
 6884PP      PP16988  10.593   5.694  11.669
 6885PP      PP16989  11.838   4.392  11.500
 6886PP      PP16990   2.709   1.103   3.649
 6887PP      PP16991  10.274   6.043   1.200
 6888PP      PP16992  10.919   2.277   8.952
 6889PP      PP16993   3.434  14.908  10.030
 6890PP      PP16994  11.605  15.003  11.272
 6891PP      PP16995   4.315  14.054  11.169
 6892PP      PP16996  13.716   2.374   4.580
 6893PP      PP16997   8.918   7.536  10.218
 6894PP      PP16998   4.440  12.594   1.404
 6895PP      PP16999   3.636   6.043   3.934
 6896PP      PP17000   8.822  14.593   3.575
 6897PP      PP17001   0.681   6.022   8.743
 6898PP      PP17002   2.734   2.843   1.135
 6899PP      PP17003  10.612   6.229   9.995
 6900PP      PP17004   5.031   8.410   1.187
 6901PP      PP17005   6.259   4.756   3.241
 6902PP      PP17006  10.677  10.319   0.872
 6903PP      PP17007  11.200  14.690   1.777
 6904PP      PP17008   9.680   2.999   3.648
 6905PP      PP17009   8.849   1.294   4.828
 6906PP      PP17010  11.181  10.044  13.178
 6907PP      PP17011   2.410   8.093   2.890
 6908PP      PP17012  11.182  14.548  11.141
 6909PP      PP17013   1.554   7.295   1.818
 6910PP      PP17014  12.818  15.622   2.476
 6911PP      PP17015   5.667  14.647   3.456
 6912PP      PP17016   8.862  12.618  13.033
 6913PP      PP17017   4.458  15.435  12.078
 6914PP      PP17018  12.876   5.108   1.174
 6915PP      PP17019  15.230   8.292  11.638
 6916PP      PP17020  11.861   7.707  10.031
 6917PP      PP17021   6.569   2.062  12.846
 6918PP      PP17022   1.187   6.964  11.960
 6919PP      PP17023   2.423  13.065  13.074
 6920PP      PP17024   1.747   7.332   3.158
 6921PP      PP17025   8.441  13.927  13.203
 6922PP      PP17026  12.811   1.232  13.509
 6923PP      PP17027   7.503   5.976   9.464
 6924PP      PP17028   0.419  13.407   5.117
 6925PP      PP17029  15.762  13.404   4.813
 6926PP      PP17030   1.933   1.742   5.109
 6927PP      PP17031   1.244  14.035   1.885
 6928PP      PP17032  11.666   1.260   9.453
 6929PP      PP17033   5.461   4.280   3.594
 6930PP      PP17034  13.437   1.292  10.461
 6931PP      PP17035   7.950  14.211  11.340
 6932PP      PP17036  14.590  10.019  10.165
 6933PP      PP17037   4.581  11.805  10.696
 6934PP      PP17038   8.109   2.296   8.884
 6935PP      PP17039   0.737   3.843  12.558
 6936PP      PP17040   6.534   0.482   0.079
 6937PP      PP17041   8.605   6.809   0.391
 6938PP      PP17042   5.751  15.348   4.164
 6939PP      PP17043   2.121   5.172   9.457
 6940PP      PP17044   2.602   5.946   1.375
 6941PP      PP17045   5.559   5.569   0.118
 6942PP      PP17046   3.761   5.560   1.122
 6943PP      PP17047  15.177  13.922  12.467
 6944PP      PP17048   6.955   3.411  10.715
 6945PP      PP17049   8.287   7.638   1.445
 6946PP      PP17050   9.118  11.771  11.795
 6947PP      PP17051  10.473   4.871   4.035
 6948PP      PP17052   5.066   9.481  12.882
 6949PP      PP17053   5.063   6.629   3.956
 6950PP      PP17054  12.381   2.482  10.731
 6951PP      PP17055  12.584   8.509   9.267
 6952PP      PP17056  10.829  12.863   1.420
 6953PP      PP17057  13.508  10.972  13.228
 6954PP      PP17058  11.770   5.777   0.940
 6955PP      PP17059   9.062   5.397  11.247
 6956PP      PP17060  11.500   7.353  10.105
 6957PP      PP17061   8.168   8.601  11.413
 6958PP      PP17062   5.287   9.635   8.672
 6959PP      PP17063  13.673   6.961   8.175
 6960PP      PP17064   8.443   1.862   0.280
 6961PP      PP17065   4.981   8.266   2.938
 6962PP      PP17066  12.706   7.008  13.202
 6963PP      PP17067   9.678   6.798   0.174
 6964PP      PP17068  13.508   0.065   1.801
 6965PP      PP17069   8.373  11.383  11.130
 6966PP      PP17070   1.970  10.082   3.832
 6967PP      PP17071   6.769   3.165   3.154
 6968PP      PP17072  12.227  12.072   9.920
 6969PP      PP17073   4.270   0.103  11.126
 6970PP      PP17074  13.259  11.054  12.393
 6971PP      PP17075  10.439  10.659  12.967
 6972PP      PP17076   6.061   2.001  13.016
 6973PP      PP17077  14.748   4.586   9.314
 6974PP      PP17078   2.973   3.422   0.978
 6975PP      PP17079   3.609  10.176   0.939
 6976PP      PP17080  12.690   0.065   4.412
 6977PP      PP17081   4.738   0.730  13.083
 6978PP      PP17082   7.251   9.843  11.138
 6979PP      PP17083   5.563  12.501  11.554
 6980PP      PP17084   5.558   1.593   3.321
 6981PP      PP17085  14.601   0.138   2.701
 6982PP      PP17086  14.642  12.780   4.203
 6983PP      PP17087   7.616  11.353   1.849
 6984PP      PP17088   6.715  13.894   9.857
 6985PP      PP17089  14.330   6.285  10.749
 6986PP      PP17090   8.898  14.588  10.905
 6987PP      PP17091   9.480   3.516  12.900
 6988PP      PP17092   0.634  12.003   2.121
 6989PP      PP17093  13.848  14.204  12.246
 6990PP      PP17094   6.943   1.878   3.834
 6991PP      PP17095   5.333   4.721   2.854
 6992PP      PP17096  11.782   0.149  12.989
 6993PP      PP17097   8.446   4.507   3.267
 6994PP      PP17098   1.105   5.750   1.836
 6995PP      PP17099   8.371   4.974   8.925
 6996PP      PP17100   4.774   8.398  12.248
 6997PP      PP17101   7.621   8.016   4.245
 6998PP      PP17102   0.689   5.210   0.849
 6999PP      PP17103   3.574  12.809   3.198
 7000PP      PP17104   9.436   0.833   1.268
 7001PP      PP17105   2.546  11.028   3.349
 7002PP      PP17106  14.438  14.943  12.134
 7003PP      PP17107   2.938   5.007  12.033
 7004PP      PP17108   4.084   7.497  13.216
 7005PP      PP17109   9.932   2.277   6.663
 7006PP      PP17110   4.182   9.208  13.511
 7007PP      PP17111   4.860   7.745  11.382
 7008PP      PP17112   0.976   1.306   2.067
 7009PP      PP17113   4.831   0.221   0.802
 7010PP      PP17114   2.366   4.701   9.511
 7011PP      PP17115   2.528  14.475   9.859
 7012PP      PP17116   0.026   6.529   8.409
 7013PP      PP17117   4.909  15.230   9.778
 7014PP      PP17118   8.787   9.414  13.195
 7015PP      PP17119  10.074   1.832   0.613
 7016PP      PP17120   6.942   6.482  10.313
 7017PP      PP17121  10.546   2.784   0.268
 7018PP      PP17122  12.011  12.141  12.986
 7019PP      PP17123   1.865   8.221   2.953
 7020PP      PP17124   2.460   9.093  13.442
 7021PP      PP17125  10.295   6.040   2.989
 7022PP      PP17126   7.091  10.258   1.823
 7023PP      PP17127   1.843  14.943  12.115
 7024PP      PP17128   9.711   1.605   2.316
 7025PP      PP17129   8.763  12.247   1.445
 7026PP      PP17130  11.511   1.581   8.802
 7027PP      PP17131   3.533  12.113   9.643
 7028PP      PP17132   4.723   1.327   0.920
 7029PP      PP17133   5.135  14.284   1.474
 7030PP      PP17134  15.648   9.552   2.725
 7031PP      PP17135   3.064   1.460  11.645
 7032PP      PP17136   7.119   2.078   0.489
 7033PP      PP17137   0.111   0.623   0.299
 7034PP      PP17138  11.209  14.570   0.171
 7035PP      PP17139   9.080   3.281   4.911
 7036PP      PP17140   2.386   3.343   8.913
 7037PP      PP17141   5.640  13.244  10.973
 7038PP      PP17142  12.836   5.121   4.724
 7039PP      PP17143   1.242   0.573  11.933
 7040PP      PP17144   6.922   2.185  13.240
 7041PP      PP17145  15.053   8.247   9.442
 7042PP      PP17146   5.569   2.447   3.722
 7043PP      PP17147   2.678  13.548   4.452
 7044PP      PP17148   4.529  15.154   9.347
 7045PP      PP17149   4.198  11.391   4.023
 7046PP      PP17150   6.582   8.626   3.270
 7047PP      PP17151   5.389   1.372  13.069
 7048PP      PP17152  14.934   8.363  11.109
 7049PP      PP17153   9.547   3.036   4.145
 7050PP      PP17154  11.223  10.714   9.133
 7051PP      PP17155   2.421   5.542   8.986
 7052PP      PP17156   3.836   2.570   2.653
 7053PP      PP17157  12.868  14.039  13.287
 7054PP      PP17158   0.841  14.546   9.568
 7055PP      PP17159   7.407   6.631   3.525
 7056PP      PP17160   9.110  10.721   1.881
 7057PP      PP17161   3.767  10.215  10.328
 7058PP      PP17162   3.142  13.869   3.513
 7059PP      PP17163  13.561   6.010  11.495
 7060PP      PP17164   9.202   4.871  11.911
 7061PP      PP17165   6.141   7.988   1.693
 7062PP      PP17166   3.054   3.252  13.593
 7063PP      PP17167   0.654  11.853  13.008
 7064PP      PP17168  14.589  12.000   1.434
 7065PP      PP17169  14.241   1.076   0.356
 7066PP      PP17170   2.011   0.822   4.052
 7067PP      PP17171   6.755  13.520  13.579
 7068PP      PP17172   8.684  13.009  11.779
 7069PP      PP17173   0.162   5.107  11.526
 7070PP      PP17174  15.438   0.467   3.171
 7071PP      PP17175  15.822   0.025  11.764
 7072PP      PP17176  14.134  10.686   1.602
 7073PP      PP17177   0.883   3.630   1.780
 7074PP      PP17178  11.001   7.602  10.043
 7075PP      PP17179   4.125   7.000   9.425
 7076PP      PP17180   6.227   5.013  13.194
 7077PP      PP17181   4.501  11.138  11.421
 7078PP      PP17182   3.814  14.807  10.813
 7079PP      PP17183  14.534   2.520  12.713
 7080PP      PP17184  14.316   8.028  10.076
 7081PP      PP17185  13.697  13.479  10.611
 7082PP      PP17186   4.093   6.730   1.417
 7083PP      PP17187  13.063   1.383  10.093
 7084PP      PP17188   7.881  12.451   0.836
 7085PP      PP17189  13.776   3.587   4.039
 7086PP      PP17190   9.974  13.163   9.932
 7087PP      PP17191   3.674  11.436   1.279
 7088PP      PP17192  10.390   7.691   1.592
 7089PP      PP17193  10.697  12.391  13.530
 7090PP      PP17194   7.141   1.269   2.642
 7091PP      PP17195   2.207   4.000   4.227
 7092PP      PP17196  11.038   0.039   2.120
 7093PP      PP17197   1.765  10.817   9.174
 7094PP      PP17198   9.348   5.684  10.113
 7095PP      PP17199  11.981  15.587  11.457
 7096PP      PP17200   3.011   0.928  11.657
 7097PP      PP17201  12.898   8.900  11.798
 7098PP      PP17202  12.193   4.713  11.220
 7099PP      PP17203   7.365   9.453  10.804
 7100PP      PP17204   0.520   6.433   2.227
 7101PP      PP17205   3.802   0.729  11.987
 7102PP      PP17206   0.987  14.564   0.717
 7103PP      PP17207   0.626  10.779   3.866
 7104PP      PP17208   7.972   1.391   2.012
 7105PP      PP17209  11.381   2.350   2.528
 7106PP      PP17210  12.916   2.003   4.200
 7107PP      PP17211   1.135  10.716   3.745
 7108PP      PP17212  13.371   3.771   8.716
 7109PP      PP17213   8.952   1.330  13.182
 7110PP      PP17214  15.394  10.847   9.518
 7111PP      PP17215   8.053  10.863  10.151
 7112PP      PP17216  13.571   8.822   3.997
 7113PP      PP17217   3.151   3.464   4.004
 7114PP      PP17218   9.734   7.536   2.172
 7115PP      PP17219   1.211   3.429   3.090
 7116PP      PP17220   6.457   8.252   0.811
 7117PP      PP17221   2.455  11.683  12.395
 7118PP      PP17222  13.424   9.547   2.972
 7119PP      PP17223   2.070  11.496   4.212
 7120PP      PP17224  15.219   5.008   0.849
 7121PP      PP17225  12.426  13.770  13.257
 7122PP      PP17226   7.293  15.787   9.513
 7123PP      PP17227  10.544   2.450  11.421
 7124PP      PP17228   2.644   5.591  10.962
 7125PP      PP17229  15.006  13.829   0.493
 7126PP      PP17230   1.952   1.186  11.493
 7127PP      PP17231  11.543   3.231   0.051
 7128PP      PP17232  12.709   2.338   0.734
 7129PP      PP17233   1.349   8.332   9.757
 7130PP      PP17234   9.151  14.099   1.213
 7131PP      PP17235  14.711  13.233  13.344
 7132PP      PP17236   6.891   6.370   2.000
 7133PP      PP17237   7.131   3.533   4.711
 7134PP      PP17238  15.364   6.593   8.600
 7135PP      PP17239   4.199  14.793   9.132
 7136PP      PP17240   0.598  14.343   9.117
 7137PP      PP17241   5.948   3.462   4.757
 7138PP      PP17242   0.581   2.485   0.103
 7139PP      PP17243   4.754   6.952   9.573
 7140PP      PP17244  13.300  15.209   4.673
 7141PP      PP17245   8.046   2.334  10.362
 7142PP      PP17246   7.061   6.852   3.881
 7143PP      PP17247   5.322   7.063   9.894
 7144PP      PP17248   4.950   3.757  12.124
 7145PP      PP17249   1.211   8.099   8.238
 7146PP      PP17250   0.135   5.073   2.518
 7147PP      PP17251  13.985  10.932   1.145
 7148PP      PP17252  12.629  12.787   3.882
 7149PP      PP17253  15.566  12.111   0.074
 7150PP      PP17254   1.680  13.896   9.707
 7151PP      PP17255   1.762   1.396   3.469
 7152PP      PP17256   0.188   2.039  12.690
 7153PP      PP17257  11.406  10.527   1.235
 7154PP      PP17258   1.070   4.643   8.964
 7155PP      PP17259  10.053  10.775   3.972
 7156PP      PP17260   7.689   8.312  11.635
 7157PP      PP17261  12.754  14.654  10.870
 7158PP      PP17262   9.777   9.242   3.184
 7159PP      PP17263  12.180  11.564   3.959
 7160PP      PP17264  10.451   4.111  11.192
 7161PP      PP17265   1.473   3.502  12.286
 7162PP      PP17266  12.100   6.587   0.453
 7163PP      PP17267   9.591   0.915  10.405
 7164PP      PP17268   2.814  14.920  13.024
 7165PP      PP17269   8.716   8.466   0.239
 7166PP      PP17270   5.483  10.289   9.893
 7167PP      PP17271   4.216   6.103  10.446
 7168PP      PP17272   7.376  10.542  11.849
 7169PP      PP17273   6.238   6.482  11.561
 7170PP      PP17274   2.971   6.312   1.310
 7171PP      PP17275   2.609   8.077   1.136
 7172PP      PP17276   8.974   9.127  11.010
 7173PP      PP17277   9.998   0.059   2.285
 7174PP      PP17278   6.281   8.006   3.507
 7175PP      PP17279   2.638  13.253   3.844
 7176PP      PP17280   2.150   0.374  13.491
 7177PP      PP17281   0.013   8.268  11.647
 7178PP      PP17282  15.554   2.226   2.356
 7179PP      PP17283   7.793   7.769   3.126
 7180PP      PP17284   2.010   7.069   1.857
 7181PP      PP17285   6.571  15.196   4.010
 7182PP      PP17286   4.301  10.217   2.711
 7183PP      PP17287   1.948  14.714   0.550
 7184PP      PP17288   1.674  11.760   3.915
 7185PP      PP17289  15.531   5.079  10.000
 7186PP      PP17290   6.486   0.238   3.559
 7187PP      PP17291  10.159  10.894   4.456
 7188PP      PP17292   0.992   0.623   2.390
 7189PP      PP17293   1.346  13.095   4.282
 7190PP      PP17294  10.770  12.639   4.402
 7191PP      PP17295   4.271  11.653   2.135
 7192PP      PP17296   8.582   6.667  11.143
 7193PP      PP17297   2.728  14.087   2.741
 7194PP      PP17298   6.445   5.587  11.029
 7195PP      PP17299   9.494   9.540  10.517
 7196PP      PP17300   8.067   8.817  13.243
 7197PP      PP17301  12.771   8.170  10.142
 7198PP      PP17302  10.157  12.061  13.053
 7199PP      PP17303  15.744   7.687   2.622
 7200PP      PP17304   6.320   5.179  12.295
 7201PP      PP17305   0.341  12.461  11.624
 7202PP      PP17306   1.208  13.616   2.231
 7203PP      PP17307   4.419   8.517   8.560
 7204PP      PP17308   9.589   6.112   2.459
 7205PP      PP17309   2.025   7.669  13.524
 7206PP      PP17310  10.667  10.778  10.611
 7207PP      PP17311   3.090   2.950   1.470
 7208PP      PP17312   4.911  13.298   2.050
 7209PP      PP17313   2.793  12.217  12.013
 7210PP      PP17314   0.544   9.899   9.861
 7211PP      PP17315  14.099  13.587  10.885
 7212PP      PP17316   8.698  14.011  12.726
 7213PP      PP17317  13.342   1.105   4.170
 7214PP      PP17318   3.538   4.889   1.706
 7215PP      PP17319   8.037   2.246  12.523
 7216PP      PP17320  12.713  12.524  11.457
 7217PP      PP17321   0.116   1.311   1.454
 7218PP      PP17322   2.019   4.407   9.784
 7219PP      PP17323  10.089   6.359  11.104
 7220PP      PP17324   8.407   4.927   0.907
 7221PP      PP17325  12.039  13.681  11.713
 7222PP      PP17326   3.531   3.243  12.047
 7223PP      PP17327   4.612   9.486   2.082
 7224PP      PP17328   6.284   1.597   1.663
 7225PP      PP17329   5.712   1.718  13.301
 7226PP      PP17330   7.212   5.147   9.161
 7227PP      PP17331   2.065  12.584   2.629
 7228PP      PP17332   9.310  12.441   0.150
 7229PP      PP17333   8.901   5.773  13.462
 7230PP      PP17334   3.033   9.160   2.175
 7231PP      PP17335   7.267  14.588   1.166
 7232PP      PP17336  12.409  13.635   3.532
 7233PP      PP17337   6.619  10.669  12.598
 7234PP      PP17338  12.875   3.605   8.839
 7235PP      PP17339   2.829  13.411  13.551
 7236PP      PP17340   3.564   7.335  10.637
 7237PP      PP17341   4.337   1.144   1.523
 7238PP      PP17342  14.505  13.821   1.405
 7239PP      PP17343   6.027  12.934   9.014
 7240PP      PP17344   5.466  13.199   9.687
 7241PP      PP17345   0.268   9.950   3.946
 7242PP      PP17346   4.024  13.683   8.397
 7243PP      PP17347   4.730   7.050  10.778
 7244PP      PP17348   5.832  11.420  12.628
 7245PP      PP17349  12.959   4.037   3.651
 7246PP      PP17350  12.469  10.538   1.905
 7247PP      PP17351   9.722   3.089  13.047
 7248PP      PP17352  10.933   1.077  10.019
 7249PP      PP17353   4.092  13.700   0.664
 7250PP      PP17354  15.403  10.267   3.250
 7251PP      PP17355  13.304   2.344   4.264
 7252PP      PP17356   6.610   6.353   3.378
 7253PP      PP17357   9.822  12.372   0.256
 7254PP      PP17358  10.594  15.571  10.989
 7255PP      PP17359   9.810   5.997  11.341
 7256PP      PP17360   9.536   9.919   4.122
 7257PP      PP17361  15.639  12.896  12.763
 7258PP      PP17362   7.318   7.933  11.494
 7259PP      PP17363  10.798   8.209   1.595
 7260PP      PP17364   5.622  13.018  13.118
 7261PP      PP17365  13.814  13.070  11.609
 7262PP      PP17366   7.778  10.137  11.506
 7263PP      PP17367   0.998   7.855   0.411
 7264PP      PP17368   4.699   1.431   2.729
 7265PP      PP17369   6.261   2.044  11.972
 7266PP      PP17370  12.393  12.018  10.815
 7267PP      PP17371   7.728   3.439   3.920
 7268PP      PP17372   1.702  15.141   0.346
 7269PP      PP17373  12.416   6.749  11.240
 7270PP      PP17374   6.525   5.753  12.092
 7271PP      PP17375   5.418   6.305  12.660
 7272PP      PP17376  14.151   9.853   1.241
 7273PP      PP17377   2.073  12.664  11.479
 7274PP      PP17378  10.406   2.873  11.044
 7275PP      PP17379  13.444   5.651   1.623
 7276PP      PP17380  12.497   9.462  10.510
 7277PP      PP17381   2.117   3.704   0.192
 7278PP      PP17382  13.993   6.125   3.292
 7279PP      PP17383   2.019   8.352   1.618
 7280PP      PP17384  15.476   0.564   0.823
 7281PP      PP17385   1.950   8.269  10.737
 7282PP      PP17386  12.152  15.718   0.937
 7283PP      PP17387   2.671   7.560   3.868
 7284PP      PP17388  12.338   8.810   1.146
 7285PP      PP17389   4.333  12.502   0.445
 7286PP      PP17390  10.399   0.750  10.065
 7287PP      PP17391   8.730   9.558   3.952
 7288PP      PP17392  12.084   9.376  10.868
 7289PP      PP17393   0.595  15.148   1.576
 7290PP      PP17394   2.966  12.472  10.911
 7291PP      PP17395  14.450  14.393  10.263
 7292PP      PP17396  12.711   0.944   3.092
 7293PP      PP17397   4.141   5.623   3.310
 7294PP      PP17398   3.062   0.050   3.801
 7295PP      PP17399  13.236   2.599   2.332
 7296PP      PP17400   2.965   9.314   9.623
 7297PP      PP17401   8.718   4.156   4.052
 7298PP      PP17402   6.989   8.008  12.892
 7299PP      PP17403   8.303   3.858  10.005
 7300PP      PP17404   2.973   3.567   4.510
 7301PP      PP17405  14.394  14.342   1.776
 7302PP      PP17406   3.473   3.826   3.173
 7303PP      PP17407   0.517   6.430   1.221
 7304PP      PP17408  11.213   8.955   3.456
 7305PP      PP17409   9.958   1.854   1.473
 7306PP      PP17410   5.948   5.683  10.296
 7307PP      PP17411   7.078   3.469   0.621
 7308PP      PP17412  10.476   1.724   1.597
 7309PP      PP17413   3.107  12.517  11.670
 7310PP      PP17414   0.288  14.753   3.630
 7311PP      PP17415   6.469   1.529   9.811
 7312PP      PP17416   4.311  10.607   9.103
 7313PP      PP17417   3.355   4.339   8.732
 7314PP      PP17418   4.401   0.641   9.340
 7315PP      PP17419   0.453  15.069  11.854
 7316PP      PP17420   4.875   5.671   4.260
 7317PP      PP17421   3.050  11.740   4.001
 7318PP      PP17422   8.779   4.320   2.920
 7319PP      PP17423  12.568  10.944  12.404
 7320PP      PP17424   3.651  11.437   2.351
 7321PP      PP17425   2.205   5.163   0.840
 7322PP      PP17426   6.675   7.660   9.518
 7323PP      PP17427  11.367   0.207  12.672
 7324PP      PP17428  15.332  10.822   4.414
 7325PP      PP17429  10.047   6.241  10.600
 7326PP      PP17430   0.643  12.926   2.521
 7327PP      PP17431   9.785   6.815  11.718
 7328PP      PP17432   6.109   8.709  10.924
 7329PP      PP17433   1.405   0.925  12.710
 7330PP      PP17434  11.494  10.445   2.791
 7331PP      PP17435   6.319   6.476   0.045
 7332PP      PP17436  10.174  13.747  10.628
 7333PP      PP17437   1.222   4.543   2.681
 7334PP      PP17438  13.412  15.016   3.061
 7335PP      PP17439   7.064   9.089   0.240
 7336PP      PP17440  13.425   2.788   1.366
 7337PP      PP17441   2.642   6.195   4.426
 7338PP      PP17442  12.621   5.605   2.718
 7339PP      PP17443   6.302  14.081  12.893
 7340PP      PP17444   4.212   2.251  11.466
 7341PP      PP17445  15.177   6.600  12.440
 7342PP      PP17446   9.706   8.089  10.836
 7343PP      PP17447  12.676   1.652   2.469
 7344PP      PP17448   1.335   8.904   3.569
 7345PP      PP17449  13.318  15.549  11.588
 7346PP      PP17450  14.458  10.339  12.425
 7347PP      PP17451  13.826   7.086   2.592
 7348PP      PP17452   2.706   0.090  11.804
 7349PP      PP17453  13.764   7.130  11.386
 7350PP      PP17454   1.249  11.856   2.789
 7351PP      PP17455   7.207  11.714  11.289
 7352PP      PP17456  10.357  12.896  13.443
 7353PP      PP17457   4.320   8.966  11.951
 7354PP      PP17458  13.875  12.246   4.794
 7355PP      PP17459   7.647  10.818   3.116
 7356PP      PP17460   5.072   8.390  10.376
 7357PP      PP17461   7.006  11.709   2.152
 7358PP      PP17462   4.594   8.125   8.913
 7359PP      PP17463   3.202  12.612   3.614
 7360PP      PP17464   2.851   6.034   1.810
 7361PP      PP17465   9.689   5.348  13.254
 7362PP      PP17466   8.766   0.179   3.644
 7363PP      PP17467  11.083   2.887   0.302
 7364PP      PP17468   7.087  11.010  11.960
 7365PP      PP17469  13.456   8.306  11.115
 7366PP      PP17470   9.148  12.624   3.038
 7367PP      PP17471   2.996   9.738  13.038
 7368PP      PP17472   2.530  12.069   1.953
 7369PP      PP17473   0.314  10.940   4.249
 7370PP      PP17474   0.618  10.139  10.407
 7371PP      PP17475   6.845   7.287   2.478
 7372PP      PP17476  12.139   2.618   2.902
 7373PP      PP17477  11.520   7.011  12.541
 7374PP      PP17478   6.321  11.975  11.272
 7375PP      PP17479   4.469   5.775   8.853
 7376PP      PP17480   5.626   7.445   2.057
 7377PP      PP17481  14.703   8.350  11.612
 7378PP      PP17482  15.420   3.495  11.448
 7379PP      PP17483  10.199  14.913  12.173
 7380PP      PP17484   5.488   1.420  11.796
 7381PP      PP17485  14.184   8.147  12.478
 7382PP      PP17486   7.090  14.721  11.498
 7383PP      PP17487   7.991   4.932   1.263
 7384PP      PP17488   0.851  12.482   2.201
 7385PP      PP17489   7.169  15.635  10.958
 7386PP      PP17490  12.991   5.089  10.616
 7387PP      PP17491  13.935  11.981  11.200
 7388PP      PP17492  13.610   0.596   0.607
 7389PP      PP17493  13.813   2.309  10.344
 7390PP      PP17494   4.997   6.961   8.622
 7391PP      PP17495   0.496  10.768   8.767
 7392PP      PP17496  10.837   0.573   9.869
 7393PP      PP17497   2.513   7.923   3.486
 7394PP      PP17498   2.602  10.867   1.772
 7395PP      PP17499   2.419   0.260   3.600
 7396PP      PP17500   8.985   0.766  12.944
 7397PP      PP17501  15.460  13.210   0.736
 7398PP      PP17502  13.002  15.272   9.962
 7399PP      PP17503  12.874  11.428   3.022
 7400PP      PP17504   5.340  10.419   4.053
 7401PP      PP17505  10.007  12.420   3.037
 7402PP      PP17506  15.713  11.386   1.801
 7403PP      PP17507   6.115  13.027  12.210
 7404PP      PP17508   3.518  15.605   4.560
 7405PP      PP17509  15.402  11.608   2.370
 7406PP      PP17510   3.758  13.991   0.361
 7407PP      PP17511  13.835   8.805   8.999
 7408PP      PP17512   4.834  15.047  12.057
 7409PP      PP17513   5.435  10.779   9.653
 7410PP      PP17514   2.430  15.784  12.249
 7411PP      PP17515   3.399   6.133   3.283
 7412PP      PP17516  13.804  10.182   0.485
 7413PP      PP17517   4.841   8.803  10.955
 7414PP      PP17518  12.499   7.291  11.644
 7415PP      PP17519  11.110   8.591   9.289
 7416PP      PP17520   3.955   3.626   3.117
 7417PP      PP17521   9.171  15.091   2.878
 7418PP      PP17522   2.598   9.316   1.946
 7419PP      PP17523  12.198   4.677   9.788
 7420PP      PP17524   8.389   0.223   4.338
 7421PP      PP17525   0.282   0.360   1.269
 7422PP      PP17526   9.577  10.308   0.712
 7423PP      PP17527   9.479  12.435   1.121
 7424PP      PP17528   9.411   3.182  11.378
 7425PP      PP17529   2.997   6.238   4.042
 7426PP      PP17530   2.662  13.538  13.057
 7427PP      PP17531   3.609  13.610  11.199
 7428PP      PP17532  13.839  11.039   1.841
 7429PP      PP17533   3.608   4.800  11.502
 7430PP      PP17534  14.366  11.037   1.929
 7431PP      PP17535   1.312   1.432  12.936
 7432PP      PP17536  15.387   4.166   9.913
 7433PP      PP17537  10.806   4.219   9.628
 7434PP      PP17538   3.526   9.316   3.039
 7435PP      PP17539   9.000   4.836  13.207
 7436PP      PP17540   8.517  12.952   0.908
 7437PP      PP17541  12.619  13.792   2.308
 7438PP      PP17542   3.931  14.883  10.200
 7439PP      PP17543  14.232  14.042   9.938
 7440PP      PP17544   3.855   7.641   2.215
 7441PP      PP17545  13.674  11.481   2.709
 7442PP      PP17546   1.630  10.951   1.669
 7443PP      PP17547   1.882   8.733  10.967
 7444PP      PP17548   1.806   8.608  12.927
 7445PP      PP17549   4.018  12.183   2.353
 7446PP      PP17550   6.933   5.354  11.375
 7447PP      PP17551   3.296   3.625   9.538
 7448PP      PP17552   6.546   6.941  12.826
 7449PP      PP17553  15.571  10.325   7.992
 7450PP      PP17554   2.000   9.635   9.085
 7451PP      PP17555   3.757  14.785   3.517
 7452PP      PP17556   7.630   8.231   0.179
 7453PP      PP17557  10.901   2.202  11.146
 7454PP      PP17558   8.808  12.488   0.924
 7455PP      PP17559   0.854   5.048  10.804
 7456PP      PP17560   5.420   6.885  13.255
 7457PP      PP17561   1.028  15.763   9.541
 7458PP      PP17562  13.673  11.378  12.352
 7459PP      PP17563   6.084   4.055   9.238
 7460PP      PP17564  15.411  10.960   1.647
 7461PP      PP17565  11.448   1.026   3.056
 7462PP      PP17566   9.758   3.553   4.063
 7463PP      PP17567   3.007  13.851   0.216
 7464PP      PP17568  15.214   4.997   1.399
 7465PP      PP17569   2.518   8.524   0.871
 7466PP      PP17570   3.110  15.505   9.734
 7467PP      PP17571   1.507  10.478  10.804
 7468PP      PP17572  11.919   9.226  12.225
 7469PP      PP17573   2.900   0.918   3.180
 7470PP      PP17574   2.158  15.239  13.047
 7471PP      PP17575   3.569   3.697  12.386
 7472PP      PP17576   3.582   6.672  11.736
 7473PP      PP17577   1.111   7.450  12.185
 7474PP      PP17578  11.780   5.802  11.647
 7475PP      PP17579   6.732   5.331  13.396
 7476PP      PP17580  11.962   1.609   2.077
 7477PP      PP17581   8.055  15.559   0.465
 7478PP      PP17582   2.823   0.758  12.127
 7479PP      PP17583   5.808   8.328  13.507
 7480PP      PP17584   8.116  12.282   2.081
 7481PP      PP17585  12.629   6.748   1.614
 7482PP      PP17586   8.914   1.678   0.307
 7483PP      PP17587   0.101  13.990   0.392
 7484PP      PP17588   1.667  14.427   9.549
 7485PP      PP17589   6.484   0.411   9.088
 7486PP      PP17590  14.656   5.511  10.915
 7487PP      PP17591   7.574  11.492   4.653
 7488PP      PP17592   7.122   7.685  11.043
 7489PP      PP17593   3.968   5.622   8.767
 7490PP      PP17594  12.538   7.358  10.111
 7491PP      PP17595   2.377  14.746   8.605
 7492PP      PP17596  12.184  12.582   3.696
 7493PP      PP17597  13.402   3.128  12.413
 7494PP      PP17598   8.506   2.351  11.601
 7495PP      PP17599   5.840  13.543   3.664
 7496PP      PP17600   0.834  13.801   3.814
 7497PP      PP17601  15.790   2.435   3.202
 7498PP      PP17602  15.252   4.672   9.286
 7499PP      PP17603   8.121   0.153  10.707
 7500PP      PP17604   5.962  10.877  11.784
 7501PP      PP17605   9.051   7.619   3.976
 7502PP      PP17606   8.429  10.843   9.260
 7503PP      PP17607   3.052  15.758  10.261
 7504PP      PP17608   8.519  11.256   1.433
 7505PP      PP17609  10.367   0.365   1.373
 7506PP      PP17610   3.005   6.726   3.910
 7507PP      PP17611   7.287   3.697   3.743
 7508PP      PP17612  13.596   6.028  12.857
 7509PP      PP17613   0.541   7.620   0.579
 7510PP      PP17614   2.391   3.756  10.446
 7511PP      PP17615  13.557  14.790  13.409
 7512PP      PP17616  10.208  11.760   9.399
 7513PP      PP17617   2.209   5.734   3.250
 7514PP      PP17618   5.453   9.602  10.864
 7515PP      PP17619  13.008  14.179   2.972
 7516PP      PP17620   7.836   2.326   2.671
 7517PP      PP17621   1.723   9.099   9.306
 7518PP      PP17622   2.641   0.194   4.093
 7519PP      PP17623   1.553   0.504  10.197
 7520PP      PP17624   9.933  13.573  12.275
 7521PP      PP17625  13.148   0.108   9.360
 7522PP      PP17626  12.228  15.611   1.435
 7523PP      PP17627   6.513   4.312   0.839
 7524PP      PP17628   6.628   8.683  11.153
 7525PP      PP17629   4.933  11.791   7.785
 7526PP      PP17630   5.304   8.203  12.571
 7527PP      PP17631   8.962   0.514   0.630
 7528PP      PP17632   4.519   7.146   1.088
 7529PP      PP17633   6.685   5.580   1.296
 7530PP      PP17634  10.048   0.612  12.685
 7531PP      PP17635   1.987  11.067  12.404
 7532PP      PP17636  12.272  14.189   2.344
 7533PP      PP17637  12.831  13.308  12.016
 7534PP      PP17638   1.271  11.076   1.300
 7535PP      PP17639   2.130   8.305   1.122
 7536PP      PP17640   1.167   0.180  12.537
 7537PP      PP17641   2.142   0.119  11.078
 7538PP      PP17642  11.833  14.273  12.909
 7539PP      PP17643   6.677  12.100   1.285
 7540PP      PP17644  13.981   1.766  13.332
 7541PP      PP17645   7.399   0.906   0.306
 7542PP      PP17646   9.170   0.327   1.647
 7543PP      PP17647   4.091  11.941  10.483
 7544PP      PP17648   6.024   4.275   2.298
 7545PP      PP17649   2.340   3.719   9.506
 7546PP      PP17650  10.738   1.967   2.694
 7547PP      PP17651  14.899   6.689  11.173
 7548PP      PP17652   6.162  15.624   3.159
 7549PP      PP17653   8.520   3.700   0.817
 7550PP      PP17654  12.867   6.889   1.148
 7551PP      PP17655   2.918   1.540  10.222
 7552PP      PP17656  11.207   8.425  10.980
 7553PP      PP17657   5.188   5.778   1.243
 7554PP      PP17658   1.313   9.878  12.383
 7555PP      PP17659   2.703   5.317  11.578
 7556PP      PP17660   3.669  15.731   2.706
 7557PP      PP17661  10.596   5.303   8.941
 7558PP      PP17662   7.903   4.262   2.522
 7559PP      PP17663  14.818   2.576   2.764
 7560PP      PP17664   9.366   4.434   9.339
 7561PP      PP17665   4.097   4.448   1.180
 7562PP      PP17666  10.509   1.009  10.506
 7563PP      PP17667   0.117  13.102   0.604
 7564PP      PP17668   6.553   7.873  12.639
 7565PP      PP17669   6.490  10.390   9.984
 7566PP      PP17670   0.804  11.070  10.366
 7567PP      PP17671  14.171   3.753  11.687
 7568PP      PP17672  11.993   3.258  10.032
 7569PP      PP17673   3.524   1.748  11.640
 7570PP      PP17674   8.904  11.103   0.677
 7571PP      PP17675   8.174  15.188  12.526
 7572PP      PP17676   3.525   1.472  10.417
 7573PP      PP17677   9.121   9.621  10.869
 7574PP      PP17678  12.526   7.769   2.736
 7575PP      PP17679  14.128   3.657   2.688
 7576PP      PP17680   1.213   5.369  10.332
 7577PP      PP17681   7.148  11.627  11.811
 7578PP      PP17682  13.533   7.579   0.139
 7579PP      PP17683  13.325  12.933   9.858
 7580PP      PP17684  13.672   1.382  13.551
 7581PP      PP17685   9.059  12.671   1.718
 7582PP      PP17686   4.368   6.907  13.299
 7583PP      PP17687  15.708   3.185   0.285
 7584PP      PP17688  10.412  12.036   3.197
 7585PP      PP17689   3.063   6.971   2.719
 7586PP      PP17690  15.470   2.721   8.722
 7587PP      PP17691  15.211  12.881   1.384
 7588PP      PP17692   8.381  14.139  10.400
 7589PP      PP17693   2.008   6.553   4.312
 7590PP      PP17694   5.977   2.507   3.195
 7591PP      PP17695   2.556   4.593  12.726
 7592PP      PP17696   6.103   0.344   0.699
 7593PP      PP17697  11.688   9.978  13.313
 7594PP      PP17698  11.623  11.391   1.861
 7595PP      PP17699   6.884   6.959  10.505
 7596PP      PP17700   7.030  14.624   9.939
 7597PP      PP17701   1.965   7.646   1.881
 7598PP      PP17702  15.529   0.239   2.682
 7599PP      PP17703   1.851  15.370   9.430
 7600PP      PP17704   5.655   2.759  13.041
 7601PP      PP17705   6.825   2.398   1.563
 7602PP      PP17706   2.536   5.568   0.160
 7603PP      PP17707   4.774   4.488  13.068
 7604PP      PP17708  13.519   1.954   9.435
 7605PP      PP17709   7.435   8.564   2.602
 7606PP      PP17710   5.988   8.423  11.887
 7607PP      PP17711   7.023   5.896   4.161
 7608PP      PP17712  13.591  13.660   4.381
 7609PP      PP17713   0.989   1.966  11.872
 7610PP      PP17714  10.679   6.383   3.899
 7611PP      PP17715  14.735  14.124  12.256
 7612PP      PP17716   9.938   1.928  10.886
 7613PP      PP17717  15.800   4.672  11.253
 7614PP      PP17718   5.888   9.829   3.211
 7615PP      PP17719   8.097   9.090   0.429
 7616PP      PP17720   4.742  14.791  13.244
 7617PP      PP17721   9.375  15.630   4.174
 7618PP      PP17722  11.854   9.559   8.806
 7619PP      PP17723   4.474   8.308   3.120
 7620PP      PP17724  10.648  14.664   1.089
 7621PP      PP17725  11.359  13.418   2.845
 7622PP      PP17726  14.527   5.997   8.689
 7623PP      PP17727   7.326   8.177  11.009
 7624PP      PP17728   0.048  10.399   2.298
 7625PP      PP17729   9.608   6.202  10.895
 7626PP      PP17730  10.860  11.181   2.608
 7627PP      PP17731  11.204   1.317   2.333
 7628PP      PP17732  14.907  12.425  11.317
 7629PP      PP17733   1.722   5.076  10.658
 7630PP      PP17734  10.866   9.784   3.466
 7631PP      PP17735  13.972   4.596   1.069
 7632PP      PP17736  15.803   3.370  10.161
 7633PP      PP17737   8.420   8.867   9.536
 7634PP      PP17738  12.717  14.857   2.652
 7635PP      PP17739   4.371  10.641   7.979
 7636PP      PP17740   4.400   4.789  13.593
 7637PP      PP17741  10.042  10.335  11.221
 7638PP      PP17742  12.228   1.197  11.806
 7639PP      PP17743   3.311   1.551  12.103
 7640PP      PP17744  15.233  13.852  12.994
 7641PP      PP17745   7.215   1.335   1.261
 7642PP      PP17746   7.596   4.624   2.246
 7643PP      PP17747   2.023   0.236   3.222
 7644PP      PP17748   2.058  14.415  12.223
 7645PP      PP17749   3.561   0.174   9.281
 7646PP      PP17750  12.446   0.710  11.707
 7647PP      PP17751  12.395   6.498   9.876
 7648PP      PP17752   3.717   3.516   0.390
 7649PP      PP17753  10.468  12.254  10.556
 7650PP      PP17754  12.363  10.858  11.365
 7651PP      PP17755   4.409  10.880   0.893
 7652PP      PP17756   7.465   0.975  12.407
 7653PP      PP17757   5.322   6.179   9.258
 7654PP      PP17758   8.266   8.089   2.504
 7655PP      PP17759  13.346   4.874   2.673
 7656PP      PP17760   0.580   2.315  11.841
 7657PP      PP17761   6.196   1.468   2.184
 7658PP      PP17762   1.651   1.853   0.061
 7659PP      PP17763   1.534   2.254   9.842
 7660PP      PP17764  12.964   2.119  13.593
 7661PP      PP17765  10.311  12.843   2.992
 7662PP      PP17766  13.323   2.317   9.759
 7663PP      PP17767   4.989  14.901  11.577
 7664PP      PP17768  11.175   4.132   0.814
 7665PP      PP17769   9.436   2.568  12.609
 7666PP      PP17770  12.306   0.208  11.613
 7667PP      PP17771   8.334   5.829  11.776
 7668PP      PP17772   6.984   7.024  11.461
 7669PP      PP17773  10.202   9.528  10.125
 7670PP      PP17774  15.637  13.695  10.387
 7671PP      PP17775   8.717   7.839   8.919
 7672PP      PP17776  10.959   2.318   3.015
 7673PP      PP17777  15.593  14.661  11.631
 7674PP      PP17778   0.871  13.707   4.860
 7675PP      PP17779   6.735   1.990   9.664
 7676PP      PP17780   3.378  12.250  11.170
 7677PP      PP17781   1.303   3.502   2.070
 7678PP      PP17782   0.494   7.989  10.536
 7679PP      PP17783  14.575   2.897   1.708
 7680PP      PP17784   2.874   4.528  11.759
 7681PP      PP17785   9.709   0.369  12.331
 7682PP      PP17786  15.742   1.310   2.882
 7683PP      PP17787   7.044   2.428   2.469
 7684PP      PP17788   4.980  10.073  12.924
 7685PP      PP17789   4.183  10.713   2.829
 7686PP      PP17790   5.213  14.803   8.882
 7687PP      PP17791   4.246   3.277  13.442
 7688PP      PP17792  12.506   0.099  12.671
 7689PP      PP17793  10.911   4.754  10.258
 7690PP      PP17794   9.179  11.527   0.885
 7691PP      PP17795   7.097  11.408  13.542
 7692PP      PP17796   1.424  13.724   1.422
 7693PP      PP17797   5.005   8.309   9.841
 7694PP      PP17798  13.588   0.100   9.838
 7695PP      PP17799   3.607   6.230   0.189
 7696PP      PP17800  12.110   0.389   3.553
 7697PP      PP17801   5.754   6.277  11.407
 7698PP      PP17802   1.780  10.950   2.164
 7699PP      PP17803   7.041   1.176   1.988
 7700PP      PP17804   2.798  15.130   3.393
 7701PP      PP17805  14.816   4.003   0.363
 7702PP      PP17806   0.983  13.219  12.397
 7703PP      PP17807   6.474   0.675   0.909
 7704PP      PP17808  10.760   3.103   1.794
 7705PP      PP17809   3.944   8.586  11.908
 7706PP      PP17810  10.797   4.443   0.585
 7707PP      PP17811   7.222   1.226   4.161
 7708PP      PP17812   5.172   2.852   2.807
 7709PP      PP17813  14.221  13.817   3.239
 7710PP      PP17814   8.215   8.582   0.542
 7711PP      PP17815   1.167   0.176   4.523
 7712PP      PP17816   5.173   8.780   1.545
 7713PP      PP17817   6.161   8.088  12.246
 7714PP      PP17818   1.670   6.392   9.450
 7715PP      PP17819   0.405   4.253  10.452
 7716PP      PP17820   4.478   7.633   8.750
 7717PP      PP17821  14.157   8.383  11.496
 7718PP      PP17822   4.958  13.325   2.882
 7719PP      PP17823  11.464  15.647   1.745
 7720PP      PP17824  15.739  14.774  13.601
 7721PP      PP17825   0.267  11.218   3.825
 7722PP      PP17826  14.326   5.440  10.517
 7723PP      PP17827  14.277   7.525   1.809
 7724PP      PP17828  10.402  14.216   1.910
 7725PP      PP17829   0.288  12.853   1.525
 7726PP      PP17830  10.874  11.891  12.344
 7727PP      PP17831   0.094  15.215   1.377
 7728PP      PP17832   4.288  11.208   3.039
 7729PP      PP17833  14.825   2.239   4.530
 7730PP      PP17834   8.979   6.357  13.344
 7731PP      PP17835   4.315   4.493   2.534
 7732PP      PP17836  11.262   0.464   2.983
 7733PP      PP17837   8.813   2.159   1.932
 7734PP      PP17838   9.825   5.176   9.058
 7735PP      PP17839   3.210   8.732   0.290
 7736PP      PP17840   0.386   5.326  12.946
 7737PP      PP17841   7.624  14.344   2.998
 7738PP      PP17842  14.343  10.715  11.193
 7739PP      PP17843   8.798   8.190   2.728
 7740PP      PP17844  12.177   4.513   4.365
 7741PP      PP17845  12.547   5.112   1.590
 7742PP      PP17846   3.246   7.344   9.397
 7743PP      PP17847   6.073   9.151   1.653
 7744PP      PP17848  15.244  14.290  11.559
 7745PP      PP17849   0.875  14.331  10.235
 7746PP      PP17850   0.408   5.942  12.778
 7747PP      PP17851  11.335  12.035   2.626
 7748PP      PP17852  10.676  15.059   0.757
 7749PP      PP17853   0.118   3.546   2.299
 7750PP      PP17854   5.968   5.943   1.752
 7751PP      PP17855   5.030  15.756  10.229
 7752PP      PP17856  14.863   2.300  13.031
 7753PP      PP17857  10.520  15.042   2.648
 7754PP      PP17858  11.201  11.509  10.096
 7755PP      PP17859  14.131  12.818   2.834
 7756PP      PP17860   3.170  12.380  12.742
 7757PP      PP17861   4.252   6.900  10.956
 7758PP      PP17862  11.820  14.471   3.805
 7759PP      PP17863   5.408  10.444   0.793
 7760PP      PP17864  14.530   8.988  10.594
 7761PP      PP17865   2.695   7.838  12.102
 7762PP      PP17866   2.724  13.854   3.204
 7763PP      PP17867   1.413  12.911   2.892
 7764PP      PP17868  12.368  15.779  11.158
 7765PP      PP17869  14.971   9.766   0.770
 7766PP      PP17870  11.593   9.427   1.365
 7767PP      PP17871  14.098  15.535   3.349
 7768PP      PP17872   0.450   0.485  12.957
 7769PP      PP17873   2.559   5.057   9.183
 7770PP      PP17874  10.104   5.157  10.018
 7771PP      PP17875  10.896  12.146   4.375
 7772PP      PP17876  15.580   7.504   0.638
 7773PP      PP17877   9.965  14.869   0.247
 7774PP      PP17878   1.493  13.283   9.465
 7775PP      PP17879   9.206   9.881  12.107
 7776PP      PP17880   4.313   1.961  12.250
 7777PP      PP17881   7.777   6.448   3.186
 7778PP      PP17882   0.809  15.480   3.344
 7779PP      PP17883   6.408  13.657   1.878
 7780PP      PP17884   8.827   1.655   4.299
 7781PP      PP17885  11.216   0.536   4.570
 7782PP      PP17886   5.342   3.279  12.684
 7783PP      PP17887  14.462  15.377  10.153
 7784PP      PP17888   6.256   5.044   9.446
 7785PP      PP17889  13.563  10.478   2.428
 7786PP      PP17890   9.150   5.555  12.432
 7787PP      PP17891  14.554   5.915   2.574
 7788PP      PP17892   5.900   9.548   0.686
 7789PP      PP17893  11.540   9.833   9.111
 7790PP      PP17894   3.799   2.105   4.640
 7791PP      PP17895  12.499  11.258   0.695
 7792PP      PP17896   9.110   9.907  11.276
 7793PP      PP17897  10.399   4.958  12.830
 7794PP      PP17898   7.927   5.958  11.147
 7795PP      PP17899   7.884  13.460   3.278
 7796PP      PP17900   5.739   1.447   3.869
 7797PP      PP17901  10.160  11.641   3.477
 7798PP      PP17902   4.847   2.191   9.174
 7799PP      PP17903  14.525  11.133   9.652
 7800PP      PP17904   3.326   8.466   9.441
 7801PP      PP17905   8.720  13.087  12.790
 7802PP      PP17906  12.617  13.141   4.295
 7803PP      PP17907   1.280   0.937   9.344
 7804PP      PP17908   6.427   8.166   2.087
 7805PP      PP17909   1.642  15.208   2.628
 7806PP      PP17910  14.884   3.268  13.391
 7807PP      PP17911   7.206   0.536   1.195
 7808PP      PP17912  15.708   2.493  12.548
 7809PP      PP17913  13.074   9.911   2.286
 7810PP      PP17914   5.418   4.054  11.381
 7811PP      PP17915   2.238  10.507   3.974
 7812PP      PP17916   4.956   0.376  12.355
 7813PP      PP17917  12.441   1.735   3.338
 7814PP      PP17918   8.128  13.643  10.520
 7815PP      PP17919  12.425   9.058  12.299
 7816PP      PP17920   6.730  15.350   0.104
 7817PP      PP17921   3.582  12.301   3.391
 7818PP      PP17922  13.846   4.956   2.596
 7819PP      PP17923   0.972  15.258   0.084
 7820PP      PP17924   9.603   4.983   0.242
 7821PP      PP17925   0.175  14.329  13.590
 7822PP      PP17926  10.910   4.598   9.291
 7823PP      PP17927   6.499   9.304   4.366
 7824PP      PP17928   9.291   3.828  13.296
 7825PP      PP17929  13.918  13.416   0.239
 7826PP      PP17930  13.732  15.809   8.924
 7827PP      PP17931  12.168  12.301   4.580
 7828PP      PP17932   8.632   7.224  12.805
 7829PP      PP17933  15.059  10.491  13.160
 7830PP      PP17934   6.795   2.136  11.580
 7831PP      PP17935   1.382   2.990   2.844
 7832PP      PP17936   2.258  14.160  13.569
 7833PP      PP17937  11.500   8.034  10.748
 7834PP      PP17938   5.159  13.243  13.176
 7835PP      PP17939  12.423   5.007   4.428
 7836PP      PP17940   9.355   6.917   0.558
 7837PP      PP17941   6.326   5.596  12.599
 7838PP      PP17942  11.742   5.286  10.434
 7839PP      PP17943   5.883   0.554   4.421
 7840PP      PP17944  14.143  15.068   1.198
 7841PP      PP17945   6.974   2.984  12.814
 7842PP      PP17946   1.619   2.029  10.305
 7843PP      PP17947  11.970  12.761  11.900
 7844PP      PP17948   5.017   5.041   2.637
 7845PP      PP17949  15.075  14.422   3.498
 7846PP      PP17950   6.770  14.480   0.234
 7847PP      PP17951  14.759   3.887   1.545
 7848PP      PP17952  14.715   4.248   9.994
 7849PP      PP17953   0.833   3.802   9.663
 7850PP      PP17954   7.208   4.242  11.134
 7851PP      PP17955   0.823  10.071   9.146
 7852PP      PP17956   1.845   1.841   9.862
 7853PP      PP17957   9.750   7.523   3.210
 7854PP      PP17958   0.114   3.295   2.986
 7855PP      PP17959   7.079  14.611  10.969
 7856PP      PP17960  13.513   3.610  12.059
 7857PP      PP17961  14.984   2.076   2.568
 7858PP      PP17962   2.868   7.933   3.106
 7859PP      PP17963  15.360   4.044   8.650
 7860PP      PP17964   7.621   2.615   1.028
 7861PP      PP17965   1.341   4.277   4.755
 7862PP      PP17966   9.570  12.074   3.802
 7863PP      PP17967   9.508  10.003   2.809
 7864PP      PP17968   1.391  10.106   9.666
 7865PP      PP17969  14.324   3.146  13.022
 7866PP      PP17970   1.875   4.371   1.557
 7867PP      PP17971  12.905  14.559   1.506
 7868PP      PP17972  13.540  12.370  13.040
 7869PP      PP17973   9.739   1.908  11.364
 7870PP      PP17974  12.284  13.412  10.685
 7871PP      PP17975   6.743   2.544   2.049
 7872PP      PP17976  11.930   2.527  12.538
 7873PP      PP17977   3.627   6.594  13.398
 7874PP      PP17978   6.995   0.357   9.315
 7875PP      PP17979  12.992   8.992   1.063
 7876PP      PP17980  13.417  12.545   4.505
 7877PP      PP17981   4.122  12.901  10.150
 7878PP      PP17982  14.760  10.989   3.575
 7879PP      PP17983   7.584  11.268   1.222
 7880PP      PP17984   2.333   1.416   1.085
 7881PP      PP17985  11.279  15.706   0.409
 7882PP      PP17986  11.101   1.187  11.705
 7883PP      PP17987   5.869   5.780   8.073
 7884PP      PP17988  10.854   8.167   3.829
 7885PP      PP17989   6.738   3.501  11.654
 7886PP      PP17990   2.250  12.955   4.015
 7887PP      PP17991   1.880  10.785   3.689
 7888PP      PP17992  15.014   8.998  10.823
 7889PP      PP17993   3.202   6.280  13.398
 7890PP      PP17994   8.984  12.236  11.558
 7891PP      PP17995   7.470   6.660   1.707
 7892PP      PP17996   4.703  13.488  13.044
 7893PP      PP17997   5.802   1.793  11.106
 7894PP      PP17998   8.984  11.651   3.146
 7895PP      PP17999   0.453   3.385  12.498
 7896PP      PP18000   5.887  11.045   8.718
 7897PP      PP18001   7.099   4.883  10.605
 7898PP      PP18002   7.304  12.472  10.045
 7899PP      PP18003   8.687  15.057  10.039
 7900PP      PP18004   5.864  11.515   0.542
 7901PP      PP18005  14.019   8.190   9.251
 7902PP      PP18006   9.779   5.915   1.611
 7903PP      PP18007  15.317  10.794  12.836
 7904PP      PP18008  10.086  12.802   0.350
 7905PP      PP18009  12.252   9.473  12.584
 7906PP      PP18010  11.443   8.496   1.324
 7907PP      PP18011   9.731   3.438   0.304
 7908PP      PP18012  13.363   6.660   9.946
 7909PP      PP18013  10.002  13.384  13.162
 7910PP      PP18014  13.975  11.192  10.467
 7911PP      PP18015   3.589  14.091   8.616
 7912PP      PP18016   3.191  10.503   1.277
 7913PP      PP18017   4.770   1.280  10.756
 7914PP      PP18018   4.492  10.781   2.338
 7915PP      PP18019  13.910  11.469  11.332
 7916PP      PP18020   1.423   4.981   0.259
 7917PP      PP18021  14.980   7.502   1.317
 7918PP      PP18022  10.941  14.136   0.385
 7919PP      PP18023  15.491  15.377   1.775
 7920PP      PP18024  15.690   9.795  10.732
 7921PP      PP18025  10.472  12.937   9.950
 7922PP      PP18026   8.803   2.673   1.945
 7923PP      PP18027  14.093   7.729   0.439
 7924PP      PP18028   6.653  13.080   4.198
 7925PP      PP18029  10.624   7.273  10.193
 7926PP      PP18030   8.099   1.270   5.265
 7927PP      PP18031   7.601  13.471   1.176
 7928PP      PP18032  14.745   0.790   1.865
 7929PP      PP18033  11.800   7.649   8.558
 7930PP      PP18034  10.956   3.724   0.566
 7931PP      PP18035   2.576  11.544   4.056
 7932PP      PP18036  11.170   4.767   3.600
 7933PP      PP18037   3.664   5.373   1.590
 7934PP      PP18038   0.890  12.836   2.989
 7935PP      PP18039   1.269   9.411   3.730
 7936PP      PP18040   7.393  12.310   1.306
 7937PP      PP18041   7.605   0.248   4.680
 7938PP      PP18042   4.806   1.778  12.356
 7939PP      PP18043   0.794   4.659   9.611
 7940PP      PP18044  10.219   3.180   0.360
 7941PP      PP18045  11.168  14.355   3.192
 7942PP      PP18046  10.083   2.987  11.967
 7943PP      PP18047  10.907   1.238  11.213
 7944PP      PP18048   8.459  14.126   0.581
 7945PP      PP18049   4.674  10.349  11.620
 7946PP      PP18050   8.874   4.814   2.714
 7947PP      PP18051  13.925   0.102  13.138
 7948PP      PP18052   7.688   9.886  13.279
 7949PP      PP18053  12.993   9.378   1.425
 7950PP      PP18054   1.509  11.371  11.017
 7951PP      PP18055  11.998  14.980   2.527
 7952PP      PP18056  10.776  14.302   3.788
 7953PP      PP18057   7.032   0.600   2.894
 7954PP      PP18058  15.048   3.694   0.736
 7955PP      PP18059  11.306  14.219  12.768
 7956PP      PP18060  11.479   6.541   1.958
 7957PP      PP18061   0.622   8.100  11.322
 7958PP      PP18062   6.408  10.395  13.583
 7959PP      PP18063   3.299  13.092  10.740
 7960PP      PP18064  15.330   4.167   4.183
 7961PP      PP18065  15.432  10.328   9.637
 7962PP      PP18066   8.840  13.120  12.275
 7963PP      PP18067  12.405  15.523  11.803
 7964PP      PP18068  11.650  14.833   0.150
 7965PP      PP18069  13.925   3.239  10.174
 7966PP      PP18070  12.933   6.785   8.938
 7967PP      PP18071  12.543   5.871  10.479
 7968PP      PP18072   5.824  15.368   2.826
 7969PP      PP18073   4.419  13.717  11.605
 7970PP      PP18074   8.028   6.218  11.593
 7971PP      PP18075  15.345   9.370  10.643
 7972PP      PP18076   3.427  15.710  13.516
 7973PP      PP18077  10.205   2.072  11.571
 7974PP      PP18078  15.417   9.349   9.525
 7975PP      PP18079   0.384  10.666  11.773
 7976PP      PP18080  12.326   7.029   9.683
 7977PP      PP18081   6.886   7.278   4.147
 7978PP      PP18082  14.750  10.940  10.818
 7979PP      PP18083   0.357   8.560   8.382
 7980PP      PP18084  10.572   4.842   0.863
 7981PP      PP18085   1.040   7.587   1.950
 7982PP      PP18086   0.419   0.592   4.362
 7983PP      PP18087   7.963   7.797   0.213
 7984PP      PP18088   7.353  10.048   0.636
 7985PP      PP18089  10.361  14.964  11.620
 7986PP      PP18090   1.632   4.260   0.770
 7987PP      PP18091   2.504   2.454  10.005
 7988PP      PP18092  15.510   9.903  10.230
 7989PP      PP18093   0.926  14.182   5.119
 7990PP      PP18094   5.946   0.067   1.632
 7991PP      PP18095   7.667   7.020  12.761
 7992PP      PP18096   6.673  15.345   2.117
 7993PP      PP18097   2.421   0.913   0.908
 7994PP      PP18098  12.410  14.353   0.529
 7995PP      PP18099   4.740   3.582   2.381
 7996PP      PP18100  12.434   3.160  12.845
 7997PP      PP18101   3.567  11.244  10.190
 7998PP      PP18102  10.126  15.071   3.623
 7999PP      PP18103  11.602   5.506   1.413
 8000PP      PP18104  15.770   8.317   8.227
 8001PP      PP18105   2.157   4.553   3.343
 8002PP      PP18106   0.800   6.876   1.097
 8003PP      PP18107   0.556   3.940  11.661
 8004PP      PP18108  11.595   7.955  12.117
 8005PP      PP18109  11.985  10.430   3.807
 8006PP      PP18110   7.257   7.478   1.312
 8007PP      PP18111  13.765  12.789  10.120
 8008PP      PP18112   1.253  10.514   3.276
 8009PP      PP18113  11.056   9.206   0.354
 8010PP      PP18114   4.792   6.902  12.572
 8011PP      PP18115   5.366   6.015   0.355
 8012PP      PP18116   3.341   5.429  12.057
 8013PP      PP18117   0.793   6.033   2.434
 8014PP      PP18118  15.636  13.411   9.942
 8015PP      PP18119  14.472   4.747   1.109
 8016PP      PP18120  15.396  10.286   4.581
 8017PP      PP18121  14.491   6.292   8.228
 8018PP      PP18122   3.733   8.485  11.457
 8019PP      PP18123   8.490   3.561   1.897
 8020PP      PP18124   5.122  11.541   8.641
 8021PP      PP18125   4.297  12.660   9.695
 8022PP      PP18126   6.748  12.122   2.360
 8023PP      PP18127   6.651   3.065  13.222
 8024PP      PP18128   0.625   8.760  11.687
 8025PP      PP18129   8.482  10.292   2.543
 8026PP      PP18130   1.714   9.197   0.540
 8027PP      PP18131  15.447  10.666   2.396
 8028PP      PP18132  12.431  15.145   3.691
 8029PP      PP18133  13.180   3.869   0.926
 8030PP      PP18134  11.824  13.254  10.459
 8031PP      PP18135  13.896   7.042   1.171
 8032PP      PP18136  10.555   0.699  12.960
 8033PP      PP18137  14.328   0.080   1.237
 8034PP      PP18138  11.881   2.924   3.263
 8035PP      PP18139  14.905  10.330   0.039
 8036PP      PP18140  13.610   9.329  12.412
 8037PP      PP18141  15.065   0.346   0.580
 8038PP      PP18142  11.653   6.081   9.456
 8039PP      PP18143  11.174  13.781   1.993
 8040PP      PP18144   4.537  12.578   2.417
 8041PP      PP18145   5.447   7.881   0.602
 8042PP      PP18146  11.589   2.667   2.905
 8043PP      PP18147   9.317  13.017  11.218
 8044PP      PP18148   4.945   9.551   0.223
 8045PP      PP18149   3.366   4.591  10.059
 8046PP      PP18150   5.907  14.828   1.378
 8047PP      PP18151  11.995  10.894  10.177
 8048PP      PP18152  15.039   1.799  10.659
 8049PP      PP18153  12.213   8.240  11.966
 8050PP      PP18154   9.699   5.898   3.614
 8051PP      PP18155  13.394   7.329  10.634
 8052PP      PP18156   0.609  11.105  12.111
 8053PP      PP18157  13.564   0.455  12.030
 8054PP      PP18158   5.815   2.858   4.063
 8055PP      PP18159  10.727   6.858   9.067
 8056PP      PP18160  12.339   5.219  11.290
 8057PP      PP18161   8.363  15.645   5.215
 8058PP      PP18162  14.875  15.801   0.183
 8059PP      PP18163  15.629  15.705   3.209
 8060PP      PP18164   4.967  12.599  12.411
 8061PP      PP18165   3.184  14.036  12.010
 8062PP      PP18166  13.096   7.213   4.113
 8063PP      PP18167   9.351   2.046   0.555
 8064PP      PP18168  13.981  14.770   9.422
 8065PP      PP18169   7.555  11.028  12.603
 8066PP      PP18170   1.787  12.747   4.177
 8067PP      PP18171   6.017  14.623   2.099
 8068PP      PP18172  13.228   5.668  12.575
 8069PP      PP18173   6.848   6.391   8.987
 8070PP      PP18174  11.812   7.318   9.651
 8071PP      PP18175  10.898   6.109   3.478
 8072PP      PP18176   3.342  10.248   7.558
 8073PP      PP18177   9.434  11.170  10.862
 8074PP      PP18178   1.390  13.694  13.090
 8075PP      PP18179   0.017   7.554   2.011
 8076PP      PP18180   5.038  15.065   9.294
 8077PP      PP18181   6.132  10.012   0.450
 8078PP      PP18182  15.002  10.850   2.609
 8079PP      PP18183   8.968   0.986   3.862
 8080PP      PP18184   0.998  12.106   0.385
 8081PP      PP18185  12.171   5.356   2.887
 8082PP      PP18186  10.973  12.033   8.849
 8083PP      PP18187   3.909  14.792  12.731
 8084PP      PP18188  11.936   3.718  10.272
 8085PP      PP18189  14.807  10.610   0.983
 8086PP      PP18190  12.073   0.670   1.671
 8087PP      PP18191   7.455   7.769   0.313
 8088PP      PP18192   4.564   3.686  13.591
 8089PP      PP18193  14.631   1.841  10.340
 8090PP      PP18194   6.136   3.314   1.996
 8091PP      PP18195  11.037   1.658  10.027
 8092PP      PP18196   9.394   8.653   2.264
 8093PP      PP18197   7.034   3.934  13.209
 8094PP      PP18198  10.243   3.731   3.872
 8095PP      PP18199   5.973  15.551  12.699
 8096PP      PP18200   7.265   1.129  10.141
 8097PP      PP18201  11.208   4.755  10.698
 8098PP      PP18202   4.950   7.917   0.739
 8099PP      PP18203   1.098   3.384   9.554
 8100PP      PP18204  13.438  11.891  11.081
 8101PP      PP18205  15.443  13.728   0.731
 8102PP      PP18206   9.675   3.110   1.065
 8103PP      PP18207   6.380   2.442  12.468
 8104PP      PP18208  10.035   9.678   3.022
 8105PP      PP18209  13.390  10.535  13.543
 8106PP      PP18210   5.965   6.717  10.148
 8107PP      PP18211   9.727   4.382  10.819
 8108PP      PP18212   2.853  11.341  11.308
 8109PP      PP18213  11.094   9.586   1.327
 8110PP      PP18214   2.121   5.287  12.603
 8111PP      PP18215   6.056  11.514   2.488
 8112PP      PP18216  13.522   7.252  11.813
 8113PP      PP18217   8.622   9.266   0.997
 8114PP      PP18218  14.401  13.963  10.613
 8115PP      PP18219  11.385  11.057  11.057
 8116PP      PP18220  11.403  14.272   2.127
 8117PP      PP18221   4.299  11.175  13.263
 8118PP      PP18222   7.632   4.903   9.798
 8119PP      PP18223   7.073   2.644   0.308
 8120PP      PP18224  14.615  15.460  11.178
 8121PP      PP18225  10.792   7.977   8.557
 8122PP      PP18226   1.014   8.881   2.430
 8123PP      PP18227   0.214  13.843  12.086
 8124PP      PP18228  13.235   8.109   3.506
 8125PP      PP18229   6.633   2.396  11.147
 8126PP      PP18230   8.121  14.706  12.731
 8127PP      PP18231   4.282  11.490   9.745
 8128PP      PP18232   9.799  11.532   1.130
 8129PP      PP18233   8.515  14.618   3.117
 8130PP      PP18234   1.019  12.311  13.103
 8131PP      PP18235   0.528   3.325  11.614
 8132PP      PP18236   6.222   3.467   2.895
 8133PP      PP18237  14.512  11.540   1.782
 8134PP      PP18238   7.552  14.510   1.675
 8135PP      PP18239  14.628   6.915  13.137
 8136PP      PP18240   8.753   5.892  12.578
 8137PP      PP18241   8.660  10.051   0.719
 8138PP      PP18242   0.102   4.961   0.172
 8139PP      PP18243  12.750   5.015   3.468
 8140PP      PP18244   0.913   0.039  12.966
 8141PP      PP18245  13.813   5.567  12.800
 8142PP      PP18246   3.116   7.064   3.537
 8143PP      PP18247   7.210   9.527  12.096
 8144PP      PP18248   2.617   6.540   0.936
 8145PP      PP18249   0.540   5.440   9.305
 8146PP      PP18250   0.365  10.383   9.996
 8147PP      PP18251  13.151   7.975   9.841
 8148PP      PP18252  11.604  14.464  13.357
 8149PP      PP18253  14.965   2.524   9.864
 8150PP      PP18254  10.949   8.899  13.549
 8151PP      PP18255  13.404   7.080   8.577
 8152PP      PP18256  11.339  10.070  11.004
 8153PP      PP18257   5.983  15.001   0.483
 8154PP      PP18258   7.889  10.864   1.794
 8155PP      PP18259   7.836   3.693  12.045
 8156PP      PP18260   3.516   3.429   3.556
 8157PP      PP18261  15.018   5.103  12.605
 8158PP      PP18262   4.830   2.318  10.631
 8159PP      PP18263  13.980   8.186  11.983
 8160PP      PP18264   5.696  10.297   9.024
 8161PP      PP18265   4.691  15.728  13.245
 8162PP      PP18266  12.833   9.848  12.677
 8163PP      PP18267   7.783   9.039   4.136
 8164PP      PP18268   8.355   2.316   2.224
 8165PP      PP18269   9.967  15.703   5.019
 8166PP      PP18270  12.499   4.224   1.586
 8167PP      PP18271   9.243  13.278   4.646
 8168PP      PP18272  12.528   4.029   8.976
 8169PP      PP18273   2.917  14.920  12.027
 8170PP      PP18274  15.582   9.604   3.253
 8171PP      PP18275   1.979  15.751  11.978
 8172PP      PP18276  10.292  13.256  10.712
 8173PP      PP18277   9.649  10.012   9.662
 8174PP      PP18278   0.763   4.025   0.822
 8175PP      PP18279   3.982  15.489   4.159
 8176PP      PP18280  15.478   5.901   3.609
 8177PP      PP18281   2.819  15.375   2.377
 8178PP      PP18282   4.088   6.856   0.138
 8179PP      PP18283   5.005   6.077   2.983
 8180PP      PP18284   5.382   9.904   9.112
 8181PP      PP18285  14.503  14.749  10.945
 8182PP      PP18286   1.006   2.788   0.022
 8183PP      PP18287  14.354   5.102   3.436
 8184PP      PP18288   5.022   2.244  12.450
 8185PP      PP18289  14.204  13.058  13.303
 8186PP      PP18290   8.878  11.324   0.217
 8187PP      PP18291   4.467   9.907   9.746
 8188PP      PP18292   9.585   1.553   3.222
 8189PP      PP18293  13.628   2.450  13.150
 8190PP      PP18294   1.529   6.654  12.208
 8191PP      PP18295   7.329  14.923  13.107
 8192PP      PP18296   1.177   0.383   1.147
 8193PP      PP18297   7.199  13.165  10.645
 8194PP      PP18298   0.343   6.774   9.845
 8195PP      PP18299  11.134  15.454   0.831
 8196PP      PP18300   1.650  15.337  12.995
 8197PP      PP18301  15.114   7.541  12.482
 8198PP      PP18302   0.355   8.710   8.863
 8199PP      PP18303  13.242   9.978  10.110
 8200PP      PP18304   5.515   7.420   3.046
 8201PP      PP18305  15.691   6.468  11.141
 8202PP      PP18306  14.366   9.397  13.363
 8203PP      PP18307   3.929  13.462  11.615
 8204PP      PP18308   5.776   8.256  10.808
 8205PP      PP18309   4.947  11.112  12.238
 8206PP      PP18310  10.732   3.245   0.488
 8207PP      PP18311   0.782  14.796   2.323
 8208PP      PP18312  15.751  10.046   1.089
 8209PP      PP18313   6.821  12.849  12.451
 8210PP      PP18314   2.579   7.015   3.933
 8211PP      PP18315   7.911   2.799  11.608
 8212PP      PP18316  14.286   7.553   2.435
 8213PP      PP18317  12.287  12.942   0.910
 8214PP      PP18318   3.742  11.572   8.439
 8215PP      PP18319   4.380   2.574   3.823
 8216PP      PP18320  10.199   9.386  13.282
 8217PP      PP18321   7.487   7.152  10.747
 8218PP      PP18322   2.178  13.499  12.860
 8219PP      PP18323  14.699   8.370   1.774
 8220PP      PP18324   0.112   7.140  12.291
 8221PP      PP18325   6.366  11.240   9.205
 8222PP      PP18326   3.007   2.840  13.062
 8223PP      PP18327   4.954  11.821  10.050
 8224PP      PP18328   8.964   1.778  12.777
 8225PP      PP18329   7.211  12.163   2.013
 8226PP      PP18330  14.668  15.333   4.143
 8227PP      PP18331   7.184   1.122   0.730
 8228PP      PP18332  14.641   9.207   9.155
 8229PP      PP18333   2.165   8.094   0.205
 8230PP      PP18334   7.372   7.682   0.824
 8231PP      PP18335  11.285  10.202   1.659
 8232PP      PP18336   6.631  15.728   3.921
 8233PP      PP18337  15.455   0.979   9.873
 8234PP      PP18338   7.651   6.018   2.917
 8235PP      PP18339   4.486  11.441   1.676
 8236PP      PP18340  11.695   7.603  10.517
 8237PP      PP18341   1.681   3.850   0.441
 8238PP      PP18342   7.405  10.472   8.797
 8239PP      PP18343   5.042  15.059   3.162
 8240PP      PP18344   0.034   4.965  12.026
 8241PP      PP18345   5.964   5.700  10.827
 8242PP      PP18346  11.014   2.691  12.568
 8243PP      PP18347   0.066  12.017  13.249
 8244PP      PP18348  12.799   3.533   0.424
 8245PP      PP18349   3.692   6.565   3.286
 8246PP      PP18350   0.576   6.588  12.884
 8247PP      PP18351   5.252   1.117   3.132
 8248PP      PP18352   4.774   7.956   8.453
 8249PP      PP18353   4.753   2.148  11.984
 8250PP      PP18354  14.086  12.304   2.721
 8251PP      PP18355  13.735   3.000  13.134
 8252PP      PP18356  10.431  13.961   4.838
 8253PP      PP18357   2.855   8.273   9.370
 8254PP      PP18358  12.954   9.601  11.378
 8255PP      PP18359   1.447  11.531  13.394
 8256PP      PP18360   0.090   2.771  11.225
 8257PP      PP18361  11.749  11.802   9.995
 8258PP      PP18362   9.216   1.452   3.604
 8259PP      PP18363   9.014   7.025  10.301
 8260PP      PP18364   7.031   2.940   2.330
 8261PP      PP18365  11.848   9.241   1.797
 8262PP      PP18366   7.541  10.582   2.589
 8263PP      PP18367   0.333   4.467  10.923
 8264PP      PP18368  12.186   7.727  13.069
 8265PP      PP18369  15.759  14.214  11.823
 8266PP      PP18370   5.531  13.597  13.230
 8267PP      PP18371  11.409  14.497  10.251
 8268PP      PP18372  11.119   0.187   1.617
 8269PP      PP18373   8.570   5.409  10.903
 8270PP      PP18374   3.310   5.506  10.227
 8271PP      PP18375   8.943   7.876   0.902
 8272PP      PP18376   3.306   8.812   1.083
 8273PP      PP18377  10.867  10.863   0.786
 8274PP      PP18378   5.344  12.444   0.168
 8275PP      PP18379   5.076  12.787   3.346
 8276PP      PP18380   0.464  14.469   2.638
 8277PP      PP18381   2.957   6.141   3.003
 8278PP      PP18382  14.976   3.237   1.702
 8279PP      PP18383   9.806  13.447   3.855
 8280PP      PP18384  14.350   3.227   2.890
 8281PP      PP18385   2.474   2.862   1.637
 8282PP      PP18386   7.681  12.195   1.742
 8283PP      PP18387  10.529   8.963  13.219
 8284PP      PP18388   9.209   5.290   0.550
 8285PP      PP18389  14.905   9.589   8.857
 8286PP      PP18390   9.405   7.008  11.404
 8287PP      PP18391   6.844   4.462   8.603
 8288PP      PP18392  14.559   7.501   9.523
 8289PP      PP18393   1.540   0.033  12.213
 8290PP      PP18394  13.787   2.348  11.317
 8291PP      PP18395  12.129  11.042   4.038
 8292PP      PP18396  13.013  12.640  10.694
 8293PP      PP18397   6.264   2.447   4.270
 8294PP      PP18398  11.926  14.686   1.005
 8295PP      PP18399  10.165   0.302   0.375
 8296PP      PP18400   7.387  13.404  11.742
 8297PP      PP18401   1.156   7.559   4.070
 8298PP      PP18402  11.584   2.597   3.818
 8299PP      PP18403   7.744  12.670   1.939
 8300PP      PP18404  11.396   3.866   0.149
 8301PP      PP18405   8.632   9.279   9.760
 8302PP      PP18406  12.328  12.092  12.513
 8303PP      PP18407  12.790  15.719   3.000
 8304PP      PP18408   8.856  14.657   9.757
 8305PP      PP18409  10.700   1.270  12.072
 8306PP      PP18410   0.261   5.473  12.472
 8307PP      PP18411  11.378   7.902  10.254
 8308PP      PP18412   0.521  14.407   1.616
 8309PP      PP18413   1.396   1.822   9.553
 8310PP      PP18414   0.353  10.686  10.432
 8311PP      PP18415  13.489  10.132   3.045
 8312PP      PP18416  12.066   6.804   3.569
 8313PP      PP18417   1.893   2.184  12.392
 8314PP      PP18418  12.267   4.723   3.574
 8315PP      PP18419  13.338   4.441   3.804
 8316PP      PP18420  14.883  10.128   1.528
 8317PP      PP18421  11.605  14.840   3.454
 8318PP      PP18422   4.798   3.609   9.549
 8319PP      PP18423   7.086   6.243  12.764
 8320PP      PP18424   1.590  13.414   2.675
 8321PP      PP18425   4.692  11.315   0.008
 8322PP      PP18426   5.973   8.124   9.732
 8323PP      PP18427  11.263   5.710   1.082
 8324PP      PP18428   4.566   4.809   4.012
 8325PP      PP18429   6.744   1.578  12.669
 8326PP      PP18430   7.303  10.654  12.353
 8327PP      PP18431  13.331  10.719  10.421
 8328PP      PP18432  15.680   6.847   0.703
 8329PP      PP18433  12.005  11.781   2.340
 8330PP      PP18434   0.502   2.030   0.348
 8331PP      PP18435  12.264   4.852  13.195
 8332PP      PP18436   5.951   6.935  12.761
 8333PP      PP18437  11.749   4.755   2.390
 8334PP      PP18438   3.431  15.522   4.028
 8335PP      PP18439   5.939  14.922  12.705
 8336PP      PP18440   5.627  13.447  11.449
 8337PP      PP18441   8.451   5.733   9.681
 8338PP      PP18442   3.380   2.124   2.362
 8339PP      PP18443   9.207  14.707   0.621
 8340PP      PP18444  14.687   9.413   3.738
 8341PP      PP18445   7.441   3.006  13.071
 8342PP      PP18446   4.357   2.604  11.884
 8343PP      PP18447   4.593   5.687  11.612
 8344PP      PP18448  12.275  14.412  10.875
 8345PP      PP18449   2.876   6.121  10.105
 8346PP      PP18450   8.957  11.145  12.526
 8347PP      PP18451  10.381   3.965   9.497
 8348PP      PP18452   1.722   3.373   2.873
 8349PP      PP18453   2.381  13.445   9.140
 8350PP      PP18454   2.483   7.938  12.575
 8351PP      PP18455  13.002  15.034   0.250
 8352PP      PP18456   5.620  15.808   2.108
 8353PP      PP18457  12.296   2.276   1.072
 8354PP      PP18458  11.215   9.602  10.736
 8355PP      PP18459  10.054   2.964   2.677
 8356PP      PP18460  11.476   1.056  13.382
 8357PP      PP18461   9.845   6.308  13.083
 8358PP      PP18462   8.897  14.266   3.189
 8359PP      PP18463   4.484   9.098   9.152
 8360PP      PP18464   5.077  12.170   9.669
 8361PP      PP18465  12.783   3.249   9.198
 8362PP      PP18466  11.236   1.846   3.683
 8363PP      PP18467   3.786   2.181  11.755
 8364PP      PP18468   8.414  13.012   2.714
 8365PP      PP18469   6.619  13.664   2.650
 8366PP      PP18470   1.068  14.519   2.678
 8367PP      PP18471   9.084   3.288  10.276
 8368PP      PP18472   1.649   5.000  12.642
 8369PP      PP18473   7.983  11.610  12.974
 8370PP      PP18474  14.936  13.971   2.455
 8371PP      PP18475   4.098  11.720   1.440
 8372PP      PP18476   6.418   4.064  11.052
 8373PP      PP18477  12.081   7.129  11.370
 8374PP      PP18478  13.747   9.173  11.329
 8375PP      PP18479  10.790   3.639   0.056
 8376PP      PP18480   2.081   3.051   2.608
 8377PP      PP18481   1.699   5.456  12.386
 8378PP      PP18482  11.005   5.591   3.594
 8379PP      PP18483  15.793   7.198   1.083
 8380PP      PP18484  15.080  14.877   0.286
 8381PP      PP18485   1.302  14.116   4.729
 8382PP      PP18486   5.929  13.596   2.165
 8383PP      PP18487  11.553  12.993  11.562
 8384PP      PP18488  14.684  13.527   2.338
 8385PP      PP18489   0.961   6.987  12.453
 8386PP      PP18490  12.134  10.531   8.900
 8387PP      PP18491  12.559  11.923  13.447
 8388PP      PP18492   6.468   6.057   1.899
 8389PP      PP18493   4.915   3.704  12.746
 8390PP      PP18494  12.934   0.874  12.678
 8391PP      PP18495  12.492   4.080   4.351
 8392PP      PP18496   4.777   4.775   3.064
 8393PP      PP18497   6.786  12.384   8.827
 8394PP      PP18498   9.342   8.908   2.909
 8395PP      PP18499   4.228   0.245   3.647
 8396PP      PP18500   2.036  10.981  11.221
 8397PP      PP18501  15.698  10.016   3.605
 8398PP      PP18502  13.970  11.367   4.514
 8399PP      PP18503  14.868  13.508   1.571
 8400PP      PP18504  14.760   2.849   2.186
 8401PP      PP18505   6.513  12.851   1.392
 8402PP      PP18506  11.845   4.395   1.043
 8403PP      PP18507  15.457   0.790   0.207
 8404PP      PP18508  11.549  10.676  11.470
 8405PP      PP18509   0.361   3.893   0.482
 8406PP      PP18510   4.477   4.132  10.469
 8407PP      PP18511  11.010   6.583   9.964
 8408PP      PP18512   0.170   1.959  12.179
 8409PP      PP18513   7.439   0.911  11.075
 8410PP      PP18514  13.899   2.778   1.579
 8411PP      PP18515   6.144   1.100   2.565
 8412PP      PP18516   0.683   6.311   0.165
 8413PP      PP18517  12.591   9.710   1.367
 8414PP      PP18518   9.986   1.072  10.762
 8415PP      PP18519   8.661  13.942   1.043
 8416PP      PP18520   7.734   7.330  13.179
 8417PP      PP18521   3.492   1.904  10.761
 8418PP      PP18522  14.873   2.339  10.367
 8419PP      PP18523   1.243  15.282   0.558
 8420PP      PP18524   1.330  14.873   4.425
 8421PP      PP18525  12.789   7.324  12.080
 8422PP      PP18526   3.189   4.050  12.392
 8423PP      PP18527   7.799   2.318  13.438
 8424PP      PP18528   0.950   0.675  12.350
 8425PP      PP18529   4.227   3.501   0.329
 8426PP      PP18530   4.206   5.981  10.953
 8427PP      PP18531   3.266   1.059  10.791
 8428PP      PP18532   1.691   2.090   3.369
 8429PP      PP18533   6.987  14.203  11.320
 8430PP      PP18534   0.036   7.179   1.634
 8431PP      PP18535   7.227  10.867  10.180
 8432PP      PP18536  12.687  14.913   5.221
 8433PP      PP18537   5.081  13.826  13.155
 8434PP      PP18538   6.673   3.959   2.277
 8435PP      PP18539  12.241  10.454   2.426
 8436PP      PP18540   9.091   7.302   0.792
 8437PP      PP18541  10.566  14.231   1.391
 8438PP      PP18542   3.215  12.933   0.726
 8439PP      PP18543  12.584  10.969   3.122
 8440PP      PP18544  14.315  13.938   5.264
 8441PP      PP18545   8.373   3.129   2.716
 8442PP      PP18546   0.666   2.945   4.079
 8443PP      PP18547   3.934   1.529  11.393
 8444PP      PP18548   6.521   8.813  10.613
 8445PP      PP18549  12.846   2.314  12.506
 8446PP      PP18550   6.018  11.743   1.995
 8447PP      PP18551   0.623   9.265  10.819
 8448PP      PP18552   3.045  11.972   8.028
 8449PP      PP18553   9.780  13.409  10.789
 8450PP      PP18554  14.456  11.221  11.189
 8451PP      PP18555  15.260  12.334  10.666
 8452PP      PP18556   5.141  15.183   0.237
 8453PP      PP18557  12.318   2.857  11.635
 8454PP      PP18558  10.330  15.734   9.545
 8455PP      PP18559  14.228  15.097  11.303
 8456PP      PP18560   3.905  14.430   8.875
 8457PP      PP18561   7.096   2.300  10.917
 8458PP      PP18562  15.427  13.372  10.750
 8459PP      PP18563  11.781  10.537   9.858
 8460PP      PP18564  10.054   0.953   9.728
 8461PP      PP18565  14.298  12.446   3.228
 8462PP      PP18566  13.163   8.497  11.999
 8463PP      PP18567   9.899   6.740  10.689
 8464PP      PP18568  12.379   5.174   3.921
 8465PP      PP18569  14.012   5.360   9.290
 8466PP      PP18570   2.981  10.816   0.468
 8467PP      PP18571  15.775   8.744   4.214
 8468PP      PP18572   9.593  14.450   2.451
 8469PP      PP18573   1.175   2.528   2.608
 8470PP      PP18574   7.732  15.259   9.695
 8471PP      PP18575   4.457   5.503   9.656
 8472PP      PP18576   0.894   7.230   7.955
 8473PP      PP18577   3.195  14.859   9.154
 8474PP      PP18578   4.967   5.110   0.545
 8475PP      PP18579  15.403  11.624   2.909
 8476PP      PP18580   9.996   9.476  12.423
 8477PP      PP18581   8.615  12.062   4.698
 8478PP      PP18582  15.639  10.899   3.989
 8479PP      PP18583   1.360  15.534  10.310
 8480PP      PP18584  13.386   1.244  11.465
 8481PP      PP18585   4.250  15.779   1.857
 8482PP      PP18586   6.793   6.106   2.908
 8483PP      PP18587   2.698   3.239   3.238
 8484PP      PP18588   9.006  10.881  10.809
 8485PP      PP18589   8.626   3.467  12.668
 8486PP      PP18590  15.595   8.924   1.912
 8487PP      PP18591   5.060  12.409   9.166
 8488PP      PP18592   7.057   7.766  13.358
 8489PP      PP18593   5.003   4.215   8.989
 8490PP      PP18594  15.306   6.008   3.097
 8491PP      PP18595   2.951   2.549  11.200
 8492PP      PP18596   6.273   4.500   4.210
 8493PP      PP18597   8.124   3.343   9.243
 8494PP      PP18598   5.425  12.028  13.392
 8495PP      PP18599   8.561  13.358   1.280
 8496PP      PP18600  15.721  12.913  13.293
 8497PP      PP18601   0.958  13.770   0.885
 8498PP      PP18602  11.268   1.337  12.192
 8499PP      PP18603  13.504   1.033   2.308
 8500PP      PP18604   2.300  12.214  12.469
 8501PP      PP18605  11.148   1.298   3.432
 8502PP      PP18606  13.394  14.160   9.536
 8503PP      PP18607   2.169   5.652  11.608
 8504PP      PP18608  13.336  13.331  11.825
 8505PP      PP18609   3.908  12.756   1.305
 8506PP      PP18610   3.996   5.091   1.857
 8507PP      PP18611   2.611   6.716   3.505
 8508PP      PP18612  13.983   8.543   1.349
 8509PP      PP18613   4.012  13.274   8.766
 8510PP      PP18614   6.630  14.667  11.247
 8511PP      PP18615   3.591   2.084   3.971
 8512PP      PP18616   7.782   2.057  12.117
 8513PP      PP18617   8.876  11.711   1.333
 8514PP      PP18618  15.280   1.203  11.243
 8515PP      PP18619   2.061  13.956   0.419
 8516PP      PP18620  10.900  10.614   1.266
 8517PP      PP18621   3.169   4.943  13.516
 8518PP      PP18622  15.601   5.982   9.486
 8519PP      PP18623  12.520   4.682   4.026
 8520PP      PP18624  15.104   8.778  11.395
 8521PP      PP18625  12.204   1.910   2.460
 8522PP      PP18626   1.547  12.317  13.041
 8523PP      PP18627   2.667  10.903  11.557
 8524PP      PP18628  11.300   0.703  10.055
 8525PP      PP18629   6.416   1.793   2.591
 8526PP      PP18630  13.550   4.877   0.804
 8527PP      PP18631   3.502  14.236  11.382
 8528PP      PP18632   1.659   4.480   0.289
 8529PP      PP18633   1.108   9.297   1.095
 8530PP      PP18634   5.507   0.621   4.827
 8531PP      PP18635   5.938  10.538   8.650
 8532PP      PP18636  13.418   1.068   1.546
 8533PP      PP18637   0.430  15.456  12.295
 8534PP      PP18638   3.292  12.266   8.408
 8535PP      PP18639   5.566  11.171   0.316
 8536PP      PP18640   0.125   0.103   0.013
 8537PP      PP18641   8.899   8.616  11.067
 8538PP      PP18642   0.548  14.508   3.257
 8539PP      PP18643   0.303   9.418   2.595
 8540PP      PP18644  10.022  13.147   2.689
 8541PP      PP18645   6.805  12.525   0.678
 8542PP      PP18646  11.517   6.568   3.035
 8543PP      PP18647   9.888  15.418   2.080
 8544PP      PP18648   5.562   6.688   1.011
 8545PP      PP18649  15.611  12.746   1.059
 8546PP      PP18650   4.619   9.298  11.114
 8547PP      PP18651  10.770   4.182  10.160
 8548PP      PP18652   4.956   3.792  13.275
 8549PP      PP18653   4.267   4.002   3.344
 8550PP      PP18654   9.275  15.568   0.413
 8551PP      PP18655   7.253  13.160  10.108
 8552PP      PP18656   2.551   1.111  13.509
 8553PP      PP18657  14.414   6.761   2.066
 8554PP      PP18658  10.412   8.543  12.625
 8555PP      PP18659   4.525   3.562   0.762
 8556PP      PP18660   3.281   1.026  12.096
 8557PP      PP18661   7.567  14.308   3.515
 8558PP      PP18662  13.615  13.597   1.356
 8559PP      PP18663   0.975   7.087   8.473
 8560PP      PP18664   3.552   5.162   3.590
 8561PP      PP18665   9.235  13.891  12.804
 8562PP      PP18666  13.210   0.844   8.699
 8563PP      PP18667   6.523   6.979  10.921
 8564PP      PP18668   4.930   8.694  13.311
 8565PP      PP18669   1.520   0.633   1.542
 8566PP      PP18670  12.793  15.332   4.448
 8567PP      PP18671   2.100   1.107   0.491
 8568PP      PP18672   0.134  14.130   1.430
 8569PP      PP18673   9.205   1.553   0.722
 8570PP      PP18674  15.204   9.753  10.942
 8571PP      PP18675   4.292   8.096   1.538
 8572PP      PP18676  12.814   0.193  11.279
 8573PP      PP18677   4.636   7.272  11.760
 8574PP      PP18678   4.719  10.051   1.477
 8575PP      PP18679  12.344   3.563  11.139
 8576PP      PP18680   1.412   2.956   0.344
 8577PP      PP18681  15.585  15.506   3.742
 8578PP      PP18682   6.737   4.360   1.793
 8579PP      PP18683   4.862   5.465  12.118
 8580PP      PP18684   4.974   4.681   4.321
 8581PP      PP18685  13.315   6.302   8.859
 8582PP      PP18686  13.635   1.954  12.968
 8583PP      PP18687  14.324   0.812   9.268
 8584PP      PP18688   6.144  14.532   9.369
 8585PP      PP18689  15.168  10.743   3.387
 8586PP      PP18690   9.387   7.697  10.968
 8587PP      PP18691   9.124   8.878  10.245
 8588PP      PP18692  11.360   4.706  13.047
 8589PP      PP18693   2.479   4.757   2.083
 8590PP      PP18694   1.672   7.128   2.278
 8591PP      PP18695   0.407  10.635  13.073
 8592PP      PP18696   1.653   5.158  10.137
 8593PP      PP18697  12.411   9.013   0.227
 8594PP      PP18698   8.026   1.158   1.391
 8595PP      PP18699   2.575  15.784  11.311
 8596PP      PP18700   5.911   5.389   0.931
 8597PP      PP18701   8.456   7.959  12.638
 8598PP      PP18702  15.721   1.034   8.876
 8599PP      PP18703   2.508   6.969   9.284
 8600PP      PP18704   0.276   3.120   9.829
 8601PP      PP18705   1.005   0.433   3.142
 8602PP      PP18706  14.089   6.283   0.133
 8603PP      PP18707   7.760  15.267   1.857
 8604PP      PP18708   1.751   1.979   0.721
 8605PP      PP18709  10.025  15.526  10.969
 8606PP      PP18710   3.995  14.657   0.982
 8607PP      PP18711   9.710   1.970   1.947
 8608PP      PP18712   7.115   3.459  10.031
 8609PP      PP18713   6.081   7.859   0.732
 8610PP      PP18714   6.864   7.534   0.827
 8611PP      PP18715   4.250  11.768  11.579
 8612PP      PP18716   5.096   7.556   2.483
 8613PP      PP18717   5.877   3.492   9.965
 8614PP      PP18718   9.203   4.412   2.595
 8615PP      PP18719   5.875   2.529   4.603
 8616PP      PP18720   6.827  10.087  13.429
 8617PP      PP18721  10.324   6.953   1.540
 8618PP      PP18722   0.428   2.313  10.862
 8619PP      PP18723  15.676  13.332  11.840
 8620PP      PP18724   2.018  12.564   0.725
 8621PP      PP18725   7.157  14.486  12.882
 8622PP      PP18726  10.605   6.296   8.663
 8623PP      PP18727   8.732  11.871  11.129
 8624PP      PP18728  11.220   1.774   2.727
 8625PP      PP18729   0.833   5.528   8.854
 8626PP      PP18730  13.138   7.953   0.394
 8627PP      PP18731   4.171   4.260   2.040
 8628PP      PP18732  15.671   6.860   9.885
 8629PP      PP18733   2.736  10.075   9.301
 8630PP      PP18734   7.917  13.712  11.516
 8631PP      PP18735  10.242   9.047   1.432
 8632PP      PP18736   4.700   8.942   8.649
 8633PP      PP18737  11.563  12.719   9.847
 8634PP      PP18738  15.065  11.793   4.409
 8635PP      PP18739   3.521   1.470  13.484
 8636PP      PP18740  12.391  14.686   2.308
 8637PP      PP18741   3.048  14.360  12.389
 8638PP      PP18742  11.814  12.910   9.383
 8639PP      PP18743   3.052   8.602  12.087
 8640PP      PP18744   3.792  15.770  11.292
 8641PP      PP18745   2.368  15.550  13.552
 8642PP      PP18746   3.465   8.080  10.667
 8643PP      PP18747  14.153   7.678   3.746
 8644PP      PP18748   7.036   7.782   8.791
 8645PP      PP18749  10.717   7.418  13.594
 8646PP      PP18750   3.303  10.383  13.382
 8647PP      PP18751   5.753   8.581   9.595
 8648PP      PP18752   2.052   6.548   1.658
 8649PP      PP18753  10.307  15.045   1.154
 8650PP      PP18754   2.067   0.909  13.576
 8651PP      PP18755  15.172  11.134   0.196
 8652PP      PP18756  15.332  11.136   2.126
 8653PP      PP18757   7.456   1.650   3.814
 8654PP      PP18758   5.638   5.276  10.923
 8655PP      PP18759  15.368   1.356  10.741
 8656PP      PP18760   8.605   2.440   1.516
 8657PP      PP18761   9.424  14.147  13.488
 8658PP      PP18762   8.060  12.866  10.110
 8659PP      PP18763   2.951   4.814   1.874
 8660PP      PP18764   1.474   2.300   3.858
 8661PP      PP18765   3.533  13.440   8.978
 8662PP      PP18766  13.143  14.863   9.610
 8663PP      PP18767  10.981   0.175   0.743
 8664PP      PP18768   3.060  13.543   3.942
 8665PP      PP18769   6.188  10.163   9.637
 8666PP      PP18770  12.484   6.867  10.228
 8667PP      PP18771  12.927   6.267  10.704
 8668PP      PP18772   5.132   9.222  10.949
 8669PP      PP18773  13.176   3.366   0.747
 8670PP      PP18774   7.084   5.726   8.919
 8671PP      PP18775   0.270  14.600  12.628
 8672PP      PP18776   7.633   7.803  13.407
 8673PP      PP18777  15.234   3.369   0.365
 8674PP      PP18778   3.247   0.190   2.822
 8675PP      PP18779   6.078  14.122  12.401
 8676PP      PP18780  12.012  12.222   4.074
 8677PP      PP18781   0.555   8.030  13.352
 8678PP      PP18782   9.959   5.362   2.886
 8679PP      PP18783  13.283   7.267  13.376
 8680PP      PP18784  14.141   0.934  12.196
 8681PP      PP18785   5.713  13.968   2.994
 8682PP      PP18786   4.294  15.152   0.525
 8683PP      PP18787   9.813   8.696   2.547
 8684PP      PP18788  15.216  12.524   0.213
 8685PP      PP18789   6.121  10.306  12.568
 8686PP      PP18790  11.225   7.954  11.198
 8687PP      PP18791   9.291   3.807   0.262
 8688PP      PP18792   1.543  10.048  11.627
 8689PP      PP18793   5.143   1.761   9.034
 8690PP      PP18794   9.414   9.331   1.514
 8691PP      PP18795  10.799   9.256   9.579
 8692PP      PP18796  15.693   2.319   0.421
 8693PP      PP18797   1.773   8.931   2.407
 8694PP      PP18798  11.243   2.351   3.486
 8695PP      PP18799   4.163  15.280   8.988
 8696PP      PP18800   4.830   6.439   0.329
 8697PP      PP18801  14.489   3.273   3.447
 8698PP      PP18802   6.669  11.553  10.585
 8699PP      PP18803   7.811   6.335   4.469
 8700PP      PP18804   2.142  15.461   0.518
 8701PP      PP18805  10.560   8.418   2.981
 8702PP      PP18806   5.053   8.306   8.172
 8703PP      PP18807   4.669   4.278   0.030
 8704PP      PP18808   4.673   8.748  10.444
 8705PP      PP18809  14.779   0.128   3.629
 8706PP      PP18810  14.531   2.886   3.858
 8707PP      PP18811   2.247   0.397   2.180
 8708PP      PP18812  12.495  14.203  10.044
 8709PP      PP18813   4.236   3.184   1.752
 8710PP      PP18814   4.037   5.648  10.558
 8711PP      PP18815   3.880   7.919   9.963
 8712PP      PP18816  10.347  13.901   5.346
 8713PP      PP18817   8.134   5.229  12.296
 8714PP      PP18818  11.750  10.481  10.392
 8715PP      PP18819  10.035   1.402   1.213
 8716PP      PP18820   1.819   2.009   4.124
 8717PP      PP18821   6.592   7.954   3.944
 8718PP      PP18822   0.775   2.612   9.315
 8719PP      PP18823   2.197   3.229  10.455
 8720PP      PP18824   3.728  10.189   8.497
 8721PP      PP18825   9.172   0.001  10.436
 8722PP      PP18826   5.555  14.589   2.932
 8723PP      PP18827   0.644  11.592   0.421
 8724PP      PP18828   4.038  10.702   1.852
 8725PP      PP18829  13.407   4.468   4.498
 8726PP      PP18830   7.989  10.141   3.267
 8727PP      PP18831   9.325   2.202  11.180
 8728PP      PP18832  14.530  10.889   1.325
 8729PP      PP18833   5.357   0.883   9.558
 8730PP      PP18834  11.329   9.699  13.556
 8731PP      PP18835   9.588  12.153  10.861
 8732PP      PP18836   3.287  13.154   3.480
 8733PP      PP18837  10.776  10.350   1.721
 8734PP      PP18838   8.517   0.175   0.488
 8735PP      PP18839  13.042   4.044   9.045
 8736PP      PP18840  11.375  12.997   4.531
 8737PP      PP18841   1.477   0.561   3.351
 8738PP      PP18842   7.877   4.216   0.512
 8739PP      PP18843   7.159  14.135   9.856
 8740PP      PP18844   2.439   8.341  12.237
 8741PP      PP18845   5.731   4.432  11.925
 8742PP      PP18846   6.331   8.819  12.954
 8743PP      PP18847   8.499   6.764   1.524
 8744PP      PP18848  13.322   1.916   2.381
 8745PP      PP18849   1.498   0.424   0.721
 8746PP      PP18850  11.740   0.808   0.674
 8747PP      PP18851   7.966  12.648   4.304
 8748PP      PP18852   1.139   3.350   1.035
 8749PP      PP18853   3.049  15.435   0.143
 8750PP      PP18854   3.051   0.215  10.708
 8751PP      PP18855   0.173  12.967   4.105
 8752PP      PP18856   1.022  12.236   0.898
 8753PP      PP18857  14.610   5.416  13.412
 8754PP      PP18858   1.519   7.675   2.181
 8755PP      PP18859  10.493  10.728  12.025
 8756PP      PP18860  11.483   0.998   3.713
 8757PP      PP18861   5.255  11.487  11.785
 8758PP      PP18862  13.145   5.104   3.093
 8759PP      PP18863  13.214   6.998  12.186
 8760PP      PP18864  14.463   8.744   2.108
 8761PP      PP18865   7.565   1.820   4.879
 8762PP      PP18866  10.124   9.987   9.872
 8763PP      PP18867   0.151  11.377  10.352
 8764PP      PP18868  11.765   7.898   1.860
 8765PP      PP18869   3.074   6.348   2.171
 8766PP      PP18870  12.990  13.726   2.670
 8767PP      PP18871  14.674  11.336   9.154
 8768PP      PP18872   2.925   1.786  12.527
 8769PP      PP18873   4.914   2.455   1.449
 8770PP      PP18874   0.026   4.394   1.732
 8771PP      PP18875  10.203   3.204   9.234
 8772PP      PP18876  11.538   7.254   4.048
 8773PP      PP18877   2.278   5.414  12.109
 8774PP      PP18878   0.927   7.163  11.092
 8775PP      PP18879   0.638  15.363   2.784
 8776PP      PP18880   3.950   5.517   8.236
 8777PP      PP18881  10.471   1.480   0.599
 8778PP      PP18882   1.847   6.340   3.850
 8779PP      PP18883   8.251   5.984  12.755
 8780PP      PP18884   2.645   0.725   2.034
 8781PP      PP18885   0.069   8.059  12.367
 8782PP      PP18886   7.389  10.151  13.597
 8783PP      PP18887  11.681  15.815   2.181
 8784PP      PP18888   2.202   9.198   0.710
 8785PP      PP18889   1.274   3.806   4.531
 8786PP      PP18890   6.296  12.153   4.147
 8787PP      PP18891   0.233   3.481  12.013
 8788PP      PP18892  11.304  12.499  11.270
 8789PP      PP18893   8.035   0.218   5.208
 8790PP      PP18894   9.846  15.667   2.735
 8791PP      PP18895  10.348   3.515  12.331
 8792PP      PP18896   6.196   1.826  11.496
 8793PP      PP18897   9.345   9.078   3.413
 8794PP      PP18898   2.534   9.458  13.030
 8795PP      PP18899   5.766   2.277   4.163
 8796PP      PP18900  11.700  10.345   0.849
 8797PP      PP18901   4.997   1.816   5.330
 8798PP      PP18902  11.415  14.217  10.686
 8799PP      PP18903   5.476   1.081   1.789
 8800PP      PP18904   0.687   9.565   1.256
 8801PP      PP18905  15.228  10.003  13.278
 8802PP      PP18906   8.852   9.892   4.343
 8803PP      PP18907  12.134   3.645   2.873
 8804PP      PP18908   1.461   6.218   9.897
 8805PP      PP18909   9.098   3.768   4.032
 8806PP      PP18910  12.454  10.990  11.873
 8807PP      PP18911   7.821   0.703   0.487
 8808PP      PP18912   2.295   2.446  12.026
 8809PP      PP18913   5.276   7.901   1.121
 8810PP      PP18914  12.944  15.044   3.464
 8811PP      PP18915   3.847  12.229  10.879
 8812PP      PP18916  13.601   4.382   0.236
 8813PP      PP18917   4.889  11.441  10.455
 8814PP      PP18918   7.111  12.457   4.831
 8815PP      PP18919   7.534  10.322   2.117
 8816PP      PP18920   6.288   5.834   8.411
 8817PP      PP18921   1.865  14.821   4.451
 8818PP      PP18922   5.430   1.445  12.300
 8819PP      PP18923  11.009   0.086   2.647
 8820PP      PP18924   1.928  13.376   9.724
 8821PP      PP18925   4.604  13.556  10.865
 8822PP      PP18926   3.276   1.170  11.282
 8823PP      PP18927   7.994   7.435   9.477
 8824PP      PP18928  13.352   6.439  10.956
 8825PP      PP18929   1.642   9.238   9.795
 8826PP      PP18930  12.816  12.769  12.209
 8827PP      PP18931  10.140  13.814   2.089
 8828PP      PP18932   0.484   4.135   1.244
 8829PP      PP18933   2.394  11.200  12.113
 8830PP      PP18934   7.782   5.515   8.368
 8831PP      PP18935   9.257   2.168   4.863
 8832PP      PP18936  13.702   8.669   0.784
 8833PP      PP18937  10.883  11.763   3.325
 8834PP      PP18938  13.470   6.181   3.231
 8835PP      PP18939   2.289   0.956  13.060
 8836PP      PP18940  13.110   9.309   9.439
 8837PP      PP18941   6.075   4.541   9.041
 8838PP      PP18942   8.474  10.149  10.439
 8839PP      PP18943   6.077  14.281  11.885
 8840PP      PP18944   2.018  10.701   0.213
 8841PP      PP18945   8.009   2.429  11.253
 8842PP      PP18946  14.135   3.667  11.154
 8843PP      PP18947   6.905  10.261   3.352
 8844PP      PP18948   7.766  11.476   0.775
 8845PP      PP18949   7.251  14.315   2.198
 8846PP      PP18950  15.089  14.067   4.337
 8847PP      PP18951  12.241   8.178  12.815
 8848PP      PP18952   1.863   1.613   1.492
 8849PP      PP18953   2.905   0.693  10.630
 8850PP      PP18954   2.497   6.825  11.802
 8851PP      PP18955   5.137  10.483  10.268
 8852PP      PP18956  15.538   3.548  11.957
 8853PP      PP18957   9.927   7.896   9.122
 8854PP      PP18958  11.901   7.850   9.537
 8855PP      PP18959   1.543  14.525  12.115
 8856PP      PP18960   1.540   0.816   0.029
 8857PP      PP18961  12.851   8.676   8.484
 8858PP      PP18962   6.659  14.574   3.899
 8859PP      PP18963   3.251   2.410  10.753
 8860PP      PP18964  11.302   6.931   8.947
 8861PP      PP18965   4.570   4.979  13.016
 8862PP      PP18966   0.673  12.089   3.596
 8863PP      PP18967  15.376   2.396   3.858
 8864PP      PP18968   4.746  13.055  10.918
 8865PP      PP18969  11.365   8.458  12.685
 8866PP      PP18970   4.438   7.444   3.388
 8867PP      PP18971   5.725   6.983   3.326
 8868PP      PP18972   6.379  11.622   0.459
 8869PP      PP18973  15.597  10.186   4.099
 8870PP      PP18974   4.176   6.406   8.762
 8871PP      PP18975   7.304   3.825   9.154
 8872PP      PP18976  13.322  15.628  12.516
 8873PP      PP18977  14.856   6.996  12.271
 8874PP      PP18978   4.603   4.774  10.388
 8875PP      PP18979  13.243  12.184   1.527
 8876PP      PP18980  12.918   8.850   1.544
 8877PP      PP18981  10.388  15.666   1.460
 8878PP      PP18982   1.549   9.072  12.860
 8879PP      PP18983   9.923  14.526  13.083
 8880PP      PP18984   1.758   5.290  11.146
 8881PP      PP18985   4.165   6.428  10.080
 8882PP      PP18986   4.438   1.350  11.545
 8883PP      PP18987   5.733   8.707  10.521
 8884PP      PP18988   2.359   5.490   1.254
 8885PP      PP18989  14.839   6.326  10.668
 8886PP      PP18990  14.948  14.525  11.200
 8887PP      PP18991   8.545  10.406   0.114
 8888PP      PP18992   0.697  14.225   1.010
 8889PP      PP18993   7.746   6.060  12.770
 8890PP      PP18994   8.156  14.806  11.773
 8891PP      PP18995   2.127  15.363  11.272
 8892PP      PP18996   8.125   1.840  10.134
 8893PP      PP18997  13.050  10.141   0.107
 8894PP      PP18998   4.669   3.431   1.875
 8895PP      PP18999  11.045   9.202  10.435
 8896PP      PP19000  13.769   4.427   3.421
 8897PP      PP19001   8.661   4.818   1.409
 8898PP      PP19002  15.015  13.276   2.007
 8899PP      PP19003  11.755   1.084   2.254
 8900PP      PP19004  11.725  11.426  10.922
 8901PP      PP19005   9.779  15.120  12.515
 8902PP      PP19006   4.480  14.984   1.432
 8903PP      PP19007   7.846   1.033   0.058
 8904PP      PP19008   3.129   4.743   1.394
 8905PP      PP19009   4.703   5.984  12.432
 8906PP      PP19010  12.399   6.937  12.598
 8907PP      PP19011  14.816   2.928  12.993
 8908PP      PP19012   8.755   0.111   0.949
 8909PP      PP19013  12.966   6.341   0.357
 8910PP      PP19014  12.010   2.215   9.094
 8911PP      PP19015   3.487   8.954   3.406
 8912PP      PP19016   3.280   7.906   2.805
 8913PP      PP19017  12.156   6.104   1.092
 8914PP      PP19018   5.427   5.712   0.782
 8915PP      PP19019   2.671  10.546   1.335
 8916PP      PP19020   3.041   3.048   4.332
 8917PP      PP19021  12.146  13.002   2.903
 8918PP      PP19022   4.966  15.675   4.775
 8919PP      PP19023  14.430   6.926  12.550
 8920PP      PP19024   2.735   7.263   8.938
 8921PP      PP19025  12.582   5.260  13.299
 8922PP      PP19026   2.449  14.606   3.670
 8923PP      PP19027  12.548   0.206   1.056
 8924PP      PP19028  10.337   8.743   2.545
 8925PP      PP19029   8.639  15.263   5.606
 8926PP      PP19030   8.962   5.321  11.765
 8927PP      PP19031  10.782  12.638   2.999
 8928PP      PP19032   1.464   7.228   3.751
 8929PP      PP19033   8.133  10.356  10.124
 8930PP      PP19034   4.964  11.860   0.225
 8931PP      PP19035   6.336   0.564  12.520
 8932PP      PP19036   3.525   6.806  12.809
 8933PP      PP19037  10.424   1.657  11.847
 8934PP      PP19038  11.595   2.831   0.386
 8935PP      PP19039  15.696   7.205   2.386
 8936PP      PP19040   2.558   8.182  11.730
 8937PP      PP19041  14.131  15.414  12.006
 8938PP      PP19042   7.001  14.062  10.332
 8939PP      PP19043  11.836   9.776   0.166
 8940PP      PP19044  12.205   2.875   9.737
 8941PP      PP19045  13.618   5.279   3.285
 8942PP      PP19046  15.687   2.863   9.635
 8943PP      PP19047   4.740   6.679   0.951
 8944PP      PP19048   3.345  11.571   8.936
 8945PP      PP19049   4.952   2.235   9.699
 8946PP      PP19050   1.469   1.908  11.652
 8947PP      PP19051   7.106   4.313  10.455
 8948PP      PP19052   8.538   8.891   1.351
 8949PP      PP19053  15.319  13.287  12.991
 8950PP      PP19054   8.507   8.613   1.788
 8951PP      PP19055  15.207   2.982   3.327
 8952PP      PP19056   9.396   8.530   3.518
 8953PP      PP19057   2.050  11.664   3.526
 8954PP      PP19058  13.995   3.012   3.816
 8955PP      PP19059   8.140   5.132   0.254
 8956PP      PP19060   6.397   0.702   4.479
 8957PP      PP19061   8.933   4.893  11.460
 8958PP      PP19062   4.968   7.019   0.578
 8959PP      PP19063  11.664  15.364   4.106
 8960PP      PP19064  11.501   7.588  11.763
 8961PP      PP19065  15.111   9.308  11.280
 8962PP      PP19066   8.872   1.848  13.399
 8963PP      PP19067   3.321   5.783   0.921
 8964PP      PP19068   7.734   2.982   3.574
 8965PP      PP19069   6.888  12.790  10.215
 8966PP      PP19070   9.567  13.419  10.246
 8967PP      PP19071   7.824   9.673  10.718
 8968PP      PP19072   8.333   0.579  10.480
 8969PP      PP19073  10.106   8.097   0.987
 8970PP      PP19074   1.708   8.565   3.318
 8971PP      PP19075   1.460   7.970   8.724
 8972PP      PP19076   3.009   6.383   8.932
 8973PP      PP19077   7.914   3.037   1.169
 8974PP      PP19078   9.352   2.918   3.215
 8975PP      PP19079   0.046   7.676   1.491
 8976PP      PP19080   5.210   3.515   9.842
 8977PP      PP19081  14.821   8.852  13.558
 8978PP      PP19082   2.998   5.124   9.440
 8979PP      PP19083   0.892  14.739   1.791
 8980PP      PP19084  11.709  12.483   2.878
 8981PP      PP19085  12.236   8.061   1.530
 8982PP      PP19086  10.306   4.365  12.331
 8983PP      PP19087  11.503   4.044   1.225
 8984PP      PP19088  15.791   0.248  12.965
 8985PP      PP19089   9.962   2.481   9.485
 8986PP      PP19090   4.693  10.229  10.108
 8987PP      PP19091   7.931  13.079   0.186
 8988PP      PP19092   2.923  12.850   3.217
 8989PP      PP19093  13.450   6.074   4.205
 8990PP      PP19094   1.227  14.495  13.452
 8991PP      PP19095   0.493   9.954  13.036
 8992PP      PP19096   7.723   3.764  12.636
 8993PP      PP19097   0.180  14.064   0.917
 8994PP      PP19098  13.051   5.965  10.288
 8995PP      PP19099  10.522   6.251   2.043
 8996PP      PP19100  13.060  15.654  13.536
 8997PP      PP19101   9.376  14.291   2.945
 8998PP      PP19102   5.903   8.938   9.077
 8999PP      PP19103   1.837   8.494   0.293
 9000PP      PP19104  12.293   4.038   9.447
 9001PP      PP19105   5.262   9.055  11.962
 9002PP      PP19106   9.059  14.340  11.349
 9003PP      PP19107   3.859  12.469   9.898
 9004PP      PP19108   9.365   5.915  11.622
 9005PP      PP19109  13.507   7.398   2.292
 9006PP      PP19110   8.735  14.749   2.360
 9007PP      PP19111  12.504   2.020   2.041
 9008PP      PP19112   3.249   0.034   3.317
 9009PP      PP19113   8.963   2.361   9.842
 9010PP      PP19114   6.309   6.084   3.713
 9011PP      PP19115  14.063  14.232   4.174
 9012PP      PP19116  15.189  11.175   3.104
 9013PP      PP19117   4.556  15.255  13.049
 9014PP      PP19118  12.897   9.783   1.809
 9015PP      PP19119   9.212  14.613  11.765
 9016PP      PP19120   6.798   2.968   9.326
 9017PP      PP19121  13.056   7.091   1.619
 9018PP      PP19122  10.719   6.904   0.227
 9019PP      PP19123   4.536  14.723   2.858
 9020PP      PP19124   6.057   4.359  10.018
 9021PP      PP19125   7.909   1.596  11.834
 9022PP      PP19126  12.905   7.854   3.123
 9023PP      PP19127   8.870   4.089   0.917
 9024PP      PP19128  13.422  10.443   3.473
 9025PP      PP19129  13.346  15.148   3.745
 9026PP      PP19130   9.081   6.303  11.804
 9027PP      PP19131   9.271  10.897   1.437
 9028PP      PP19132   9.042   5.829   9.717
 9029PP      PP19133  14.209  12.579  10.861
 9030PP      PP19134  15.481   6.974   8.931
 9031PP      PP19135   0.818   7.465   0.136
 9032PP      PP19136  11.783   0.983   4.190
 9033PP      PP19137   0.682   1.121  11.474
 9034PP      PP19138   0.248   8.162   1.562
 9035PP      PP19139   7.822   7.790  11.669
 9036PP      PP19140  15.187   5.011  10.527
 9037PP      PP19141  11.888   7.851   9.031
 9038PP      PP19142   4.258  10.730  12.395
 9039PP      PP19143   8.338  15.105   0.580
 9040PP      PP19144   3.786   9.109   8.835
 9041PP      PP19145   2.156   0.743  11.671
 9042PP      PP19146   9.611   5.518  11.390
 9043PP      PP19147   9.411   4.449   1.511
 9044PP      PP19148   8.247   6.941  10.274
 9045PP      PP19149  13.595   1.680  11.973
 9046PP      PP19150   8.791   6.079   9.356
 9047PP      PP19151  12.931   0.322   2.485
 9048PP      PP19152  10.467  11.916   0.030
 9049PP      PP19153  11.300   2.851   9.458
 9050PP      PP19154  14.402   7.239  12.136
 9051PP      PP19155  10.589  13.155   2.680
 9052PP      PP19156  15.235   7.182   2.905
 9053PP      PP19157   4.107   1.826   2.159
 9054PP      PP19158   5.426   9.696  12.572
 9055PP      PP19159   4.910   5.625   8.654
 9056PP      PP19160   1.880   1.069   1.527
 9057PP      PP19161  12.759  13.345  12.985
 9058PP      PP19162  12.167   7.041   2.536
 9059PP      PP19163   1.568   6.588  13.129
 9060PP      PP19164   3.270   2.486   2.704
 9061PP      PP19165   0.799   0.334   2.013
 9062PP      PP19166  15.253  13.152   9.658
 9063PP      PP19167   2.706   8.188  11.226
 9064PP      PP19168  12.624   4.107  12.062
 9065PP      PP19169  12.284  13.047   9.651
 9066PP      PP19170   6.017  11.168  10.958
 9067PP      PP19171   3.317  15.146   8.741
 9068PP      PP19172  13.335  12.233  10.707
 9069PP      PP19173   5.011  10.582  12.828
 9070PP      PP19174  15.036  10.335   2.482
 9071PP      PP19175   1.714  13.993  12.161
 9072PP      PP19176   3.418   5.429   9.353
 9073PP      PP19177   1.245  14.272   9.788
 9074PP      PP19178   5.685   5.243  10.416
 9075PP      PP19179   0.759  12.164  11.491
 9076PP      PP19180   7.782  15.668   0.026
 9077PP      PP19181  13.977   2.008   0.689
 9078PP      PP19182   9.963   2.677   1.140
 9079PP      PP19183   0.561   1.014   1.351
 9080PP      PP19184   4.603  11.930   9.667
 9081PP      PP19185   5.707   1.163  10.355
 9082PP      PP19186   6.553   2.286   2.485
 9083PP      PP19187   9.150  10.840   3.458
 9084PP      PP19188   2.071  12.432   9.913
 9085PP      PP19189   9.561   6.878   3.609
 9086PP      PP19190   1.462  11.023  12.654
 9087PP      PP19191  14.171   2.908   9.842
 9088PP      PP19192   3.568   2.806   1.210
 9089PP      PP19193   9.759   0.248   4.721
 9090PP      PP19194  13.304  12.061   9.536
 9091PP      PP19195  11.179   3.925   9.831
 9092PP      PP19196   8.805   4.645   0.625
 9093PP      PP19197  12.035  11.173   0.443
 9094PP      PP19198   7.977   0.306   9.162
 9095PP      PP19199   6.542  15.008   9.583
 9096PP      PP19200  15.496   1.454  13.413
 9097PP      PP19201  11.516  13.964   1.151
 9098PP      PP19202   7.967   9.626   3.296
 9099PP      PP19203   6.024  11.222   2.962
 9100PP      PP19204   9.647  14.263  11.792
 9101PP      PP19205   7.078   9.992   2.944
 9102PP      PP19206   3.293   3.079   3.220
 9103PP      PP19207  10.988   5.180   3.894
 9104PP      PP19208   7.970   2.743   2.189
 9105PP      PP19209   6.906   6.905   2.081
 9106PP      PP19210  14.515   0.754  11.832
 9107PP      PP19211  10.260  12.249  11.057
 9108PP      PP19212  11.157   6.171   2.987
 9109PP      PP19213   7.753  12.932   3.488
 9110PP      PP19214   0.565   8.963   3.088
 9111PP      PP19215  11.234   3.427   1.515
 9112PP      PP19216   5.975  12.083  13.350
 9113PP      PP19217  13.592   2.455   2.720
 9114PP      PP19218  12.354   4.352  11.561
 9115PP      PP19219  15.717  14.199  11.305
 9116PP      PP19220  10.656  13.921  10.589
 9117PP      PP19221   1.287   8.810   9.550
 9118PP      PP19222   7.404   8.275   9.024
 9119PP      PP19223   1.168   9.504  12.730
 9120PP      PP19224   7.360   0.363   0.383
 9121PP      PP19225   0.899   8.546   0.697
 9122PP      PP19226  12.725  12.114   0.758
 9123PP      PP19227  10.379  12.531   3.413
 9124PP      PP19228   4.627   9.881   3.595
 9125PP      PP19229  14.396  10.191   2.516
 9126PP      PP19230  11.435   1.293  11.255
 9127PP      PP19231  14.271   9.050   8.831
 9128PP      PP19232  10.722  14.975  10.715
 9129PP      PP19233  12.222  15.028  11.960
 9130PP      PP19234   6.966  12.259   3.878
 9131PP      PP19235   2.402   2.829   3.561
 9132PP      PP19236  14.522   2.265  10.923
 9133PP      PP19237  10.149   7.752   2.936
 9134PP      PP19238  13.879   3.734   9.933
 9135PP      PP19239   2.968   7.720   9.020
 9136PP      PP19240  10.264  10.587   9.223
 9137PP      PP19241   3.813  13.982  10.407
 9138PP      PP19242   2.781  12.120   8.449
 9139PP      PP19243   8.593  13.465  13.449
 9140PP      PP19244   9.820  10.404   2.188
 9141PP      PP19245  10.294   0.801   0.200
 9142PP      PP19246   2.619  13.469   2.233
 9143PP      PP19247  11.544   6.137  10.493
 9144PP      PP19248   9.937   6.855  11.217
 9145PP      PP19249  12.922   9.889   9.170
 9146PP      PP19250  12.397   2.060  12.555
 9147PP      PP19251   9.735   5.572   9.364
 9148PP      PP19252  13.774  12.498  10.576
 9149PP      PP19253   1.360   2.872  11.364
 9150PP      PP19254   4.718  13.624   3.367
 9151PP      PP19255  10.886  12.384  11.555
 9152PP      PP19256  14.468   2.266  11.930
 9153PP      PP19257  15.668  10.533  12.557
 9154PP      PP19258  10.539   8.010  11.937
 9155PP      PP19259   3.779  12.109   8.511
 9156PP      PP19260   2.886  12.845   1.581
 9157PP      PP19261   5.938   1.586   2.636
 9158PP      PP19262  10.098   5.384  11.249
 9159PP      PP19263   5.455  11.220   8.891
 9160PP      PP19264  13.279  14.264   2.537
 9161PP      PP19265   8.502  15.591  12.929
 9162PP      PP19266   3.841  13.524   9.723
 9163PP      PP19267   0.624   4.329   3.330
 9164PP      PP19268   5.515   9.890  11.313
 9165PP      PP19269   6.047  10.263   3.455
 9166PP      PP19270   4.196  10.318   3.201
 9167PP      PP19271   3.202  13.239   1.727
 9168PP      PP19272  11.557  10.007   1.255
 9169PP      PP19273  12.390   9.032  11.781
 9170PP      PP19274   6.191  14.617  10.939
 9171PP      PP19275   4.345   1.816   2.660
 9172PP      PP19276   5.581   9.180   1.469
 9173PP      PP19277   4.497   7.251  12.302
 9174PP      PP19278  10.375  11.064  10.944
 9175PP      PP19279   0.061   3.311   9.403
 9176PP      PP19280  10.212   8.969   0.024
 9177PP      PP19281   8.938   2.723   1.174
 9178PP      PP19282   8.558  14.261  11.106
 9179PP      PP19283   5.711  11.002  12.916
 9180PP      PP19284   2.585  13.421   9.890
 9181PP      PP19285  12.850  15.712   9.002
 9182PP      PP19286  11.903  11.404   9.401
 9183PP      PP19287  14.610  14.156   0.507
 9184PP      PP19288  12.435   6.926   2.955
 9185PP      PP19289   5.825  12.742  11.039
 9186PP      PP19290   7.824   5.151   2.818
 9187PP      PP19291   8.647  11.179   4.373
 9188PP      PP19292   8.900   4.325   1.418
 9189PP      PP19293   9.673  10.035  12.302
 9190PP      PP19294   1.234  12.756   2.420
 9191PP      PP19295  10.174  12.609  10.271
 9192PP      PP19296  10.807   6.956   1.328
 9193PP      PP19297   2.819   7.169   1.881
 9194PP      PP19298  11.760   4.840  13.390
 9195PP      PP19299  11.550   8.279  13.166
 9196PP      PP19300   3.838  10.787   9.308
 9197PP      PP19301   4.734   9.227  10.614
 9198PP      PP19302   2.642   0.386  11.012
 9199PP      PP19303  10.944   4.852   0.250
 9200PP      PP19304   9.178   0.798   0.237
 9201PP      PP19305   0.139   8.709   3.383
 9202PP      PP19306   9.657   7.323   0.426
 9203PP      PP19307   3.698  12.648   8.343
 9204PP      PP19308   4.849  15.481   4.285
 9205PP      PP19309   3.398  10.592   0.234
 9206PP      PP19310   0.563  13.340   0.748
 9207PP      PP19311  13.778   1.568   9.693
 9208PP      PP19312   1.199   4.891   1.516
 9209PP      PP19313   8.792   5.988   2.731
 9210PP      PP19314  12.965   1.107   9.607
 9211PP      PP19315   1.685   7.863  12.150
 9212PP      PP19316  10.198  13.580  11.132
 9213PP      PP19317  10.925  12.307   9.640
 9214PP      PP19318  12.630  14.748   9.563
 9215PP      PP19319   2.263   3.676  11.606
 9216PP      PP19320   9.160   2.682   4.791
 9217PP      PP19321   4.547  10.875   1.804
 9218PP      PP19322   8.348   1.045   0.220
 9219PP      PP19323  12.167  12.628   9.064
 9220PP      PP19324  10.855  12.132   0.350
 9221PP      PP19325   0.904   5.987   4.030
 9222PP      PP19326   9.268   0.313  13.028
 9223PP      PP19327   2.419   9.967   2.468
 9224PP      PP19328  10.125   4.041  13.119
 9225PP      PP19329   9.043   9.948   9.158
 9226PP      PP19330   0.729  10.488  11.381
 9227PP      PP19331  14.997   5.075   8.528
 9228PP      PP19332   2.483  11.682   1.563
 9229PP      PP19333  13.825   8.936  12.693
 9230PP      PP19334   2.721   3.954   2.345
 9231PP      PP19335  15.679   5.129   4.051
 9232PP      PP19336   8.824   5.491   1.480
 9233PP      PP19337  15.332   1.535   9.782
 9234PP      PP19338  12.307  12.577  12.270
 9235PP      PP19339   5.733   4.056  12.278
 9236PP      PP19340   4.068   1.531  12.458
 9237PP      PP19341   8.201  14.660  13.267
 9238PP      PP19342   9.170   2.050   3.412
 9239PP      PP19343   0.561  15.598   0.169
 9240PP      PP19344  15.716  13.119  10.388
 9241PP      PP19345  15.200   2.263  12.111
 9242PP      PP19346  14.117   4.480   0.090
 9243PP      PP19347   0.303   8.022   2.071
 9244PP      PP19348   5.768   6.848   9.667
 9245PP      PP19349  10.607   1.961   0.434
 9246PP      PP19350   1.422   7.863  10.674
 9247PP      PP19351  10.960   7.751   1.785
 9248PP      PP19352  13.750   7.510   2.866
 9249PP      PP19353   2.317   6.357  10.239
 9250PP      PP19354   6.756   1.333   1.546
 9251PP      PP19355   0.410  12.769  12.784
 9252PP      PP19356   5.286   4.751   2.309
 9253PP      PP19357   1.706   2.300   1.145
 9254PP      PP19358  10.231   6.217  12.700
 9255PP      PP19359   4.900   2.927  11.470
 9256PP      PP19360   8.446   8.445   0.984
 9257PP      PP19361   2.841  13.010  11.537
 9258PP      PP19362   8.147   8.684   4.177
 9259PP      PP19363  15.172  12.958   3.084
 9260PP      PP19364   3.073   1.917   2.866
 9261PP      PP19365  14.291   5.807  13.590
 9262PP      PP19366   2.071   9.428   9.549
 9263PP      PP19367  12.818   6.540  13.007
 9264PP      PP19368   0.130  12.904   2.367
 9265PP      PP19369   9.236  14.222   3.572
 9266PP      PP19370  11.948  12.888   4.695
 9267PP      PP19371  14.202  12.610  12.978
 9268PP      PP19372  12.375  14.619   3.788
 9269PP      PP19373   2.674   6.612   2.958
 9270PP      PP19374   4.661  11.046   1.333
 9271PP      PP19375   7.646  12.351   0.359
 9272PP      PP19376   4.644  11.250   2.151
 9273PP      PP19377  11.391   1.566   1.126
 9274PP      PP19378   1.814   6.859  13.587
 9275PP      PP19379   7.869  12.654   9.503
 9276PP      PP19380  14.671   1.876   1.811
 9277PP      PP19381   7.293  12.780   2.821
 9278PP      PP19382  15.540   6.235   0.397
 9279PP      PP19383   7.061  15.406   0.643
 9280PP      PP19384  12.147   1.491  11.049
 9281PP      PP19385   0.294   8.398   4.397
 9282PP      PP19386   2.184   5.442   9.880
 9283PP      PP19387   3.155   7.272   0.078
 9284PP      PP19388   8.894  14.725   4.557
 9285PP      PP19389   6.259   8.947   3.554
 9286PP      PP19390   4.742   1.905   4.510
 9287PP      PP19391   5.657   0.020   0.790
 9288PP      PP19392   9.126   3.393  12.504
 9289PP      PP19393   2.516   6.446   3.975
 9290PP      PP19394   6.567   7.787  13.155
 9291PP      PP19395   7.242   2.145   1.779
 9292PP      PP19396   8.412  11.743   1.574
 9293PP      PP19397   5.690   1.872  12.257
 9294PP      PP19398  10.256   8.519  12.142
 9295PP      PP19399   2.459   5.132   1.700
 9296PP      PP19400  14.631  13.245   1.178
 9297PP      PP19401  14.976   1.352  13.412
 9298PP      PP19402   4.474  12.077   0.155
 9299PP      PP19403  10.844   5.499   2.334
 9300PP      PP19404   7.748   9.691  11.231
 9301PP      PP19405   0.170  14.761   2.979
 9302PP      PP19406   2.503   8.283   8.985
 9303PP      PP19407  14.166   4.840   1.510
 9304PP      PP19408  15.203   6.632   3.039
 9305PP      PP19409  13.962   4.197  11.426
 9306PP      PP19410   3.367   0.863   0.008
 9307PP      PP19411   5.103  10.399  11.980
 9308PP      PP19412  13.067   2.990  11.079
 9309PP      PP19413   4.995   3.583  10.687
 9310PP      PP19414   4.496   0.088   4.898
 9311PP      PP19415   0.009   1.616   1.055
 9312PP      PP19416   0.376   6.088   0.840
 9313PP      PP19417   7.575   3.040   3.049
 9314PP      PP19418  14.028   6.688  13.340
 9315PP      PP19419   4.490   9.821   8.602
 9316PP      PP19420  12.962   0.282  12.473
 9317PP      PP19421   1.893   1.921   4.634
 9318PP      PP19422   2.831   5.093   2.845
 9319PP      PP19423  15.460   1.483   1.380
 9320PP      PP19424   1.141   1.653   1.710
 9321PP      PP19425   4.078   0.907   9.658
 9322PP      PP19426   8.399   5.773   9.152
 9323PP      PP19427  10.643   1.621   4.459
 9324PP      PP19428   8.318  12.017  10.172
 9325PP      PP19429  11.309   4.528   1.135
 9326PP      PP19430   6.920   8.896  12.663
 9327PP      PP19431   1.067   3.110   3.801
 9328PP      PP19432   0.034  15.079   3.931
 9329PP      PP19433   3.609   4.456   1.972
 9330PP      PP19434   3.439   9.795   3.171
 9331PP      PP19435  15.480   5.835  10.918
 9332PP      PP19436  11.698  14.994  13.263
 9333PP      PP19437   0.929   0.954  10.433
 9334PP      PP19438   2.530   6.541  11.092
 9335PP      PP19439   3.137  13.379  11.146
 9336PP      PP19440   3.957   1.248   3.298
 9337PP      PP19441  13.192   4.643  11.584
 9338PP      PP19442  11.717   4.849  10.755
 9339PP      PP19443  11.937   6.787  12.756
 9340PP      PP19444  11.683  10.797   8.849
 9341PP      PP19445  13.614  11.151   2.310
 9342PP      PP19446  10.883  13.273   9.985
 9343PP      PP19447  10.589   2.394  13.097
 9344PP      PP19448  11.323   8.984   1.166
 9345PP      PP19449   3.342   6.932   0.545
 9346PP      PP19450   2.780  12.901  13.428
 9347PP      PP19451   7.064  12.205   9.626
 9348PP      PP19452  15.513  11.021  12.410
 9349PP      PP19453  14.891   5.553  12.377
 9350PP      PP19454   7.012   6.188   0.458
 9351PP      PP19455   6.892  10.326   9.648
 9352PP      PP19456  14.332  15.824   0.720
 9353PP      PP19457   0.817   9.186   0.299
 9354PP      PP19458  15.763   5.798   0.664
 9355PP      PP19459   0.119   3.668  11.545
 9356PP      PP19460   3.234   3.353  13.105
 9357PP      PP19461   7.660   6.366   0.474
 9358PP      PP19462  14.343   7.142   8.438
 9359PP      PP19463   9.711  14.612   1.533
 9360PP      PP19464  11.144  12.822  10.870
 9361PP      PP19465   1.045   6.687   2.209
 9362PP      PP19466  12.220   4.227   0.559
 9363PP      PP19467   4.147   0.624  11.005
 9364PP      PP19468   6.657  12.557   2.048
 9365PP      PP19469  15.442   8.252  13.411
 9366PP      PP19470   1.156   5.127   8.819
 9367PP      PP19471  15.682   2.729  13.019
 9368PP      PP19472   6.902   1.299   8.865
 9369PP      PP19473   8.228  13.074   3.271
 9370PP      PP19474   6.765   6.205   9.814
 9371PP      PP19475   0.637  13.280   2.938
 9372PP      PP19476  12.004  11.028  12.178
 9373PP      PP19477   7.479   9.564  10.257
 9374PP      PP19478  11.846   1.709   9.191
 9375PP      PP19479  10.769  15.463   2.354
 9376PP      PP19480  10.069   6.500  12.194
 9377PP      PP19481   1.598   3.382   0.744
 9378PP      PP19482   8.392  14.706   1.961
 9379PP      PP19483   0.943  14.094   0.469
 9380PP      PP19484   0.593   8.211  12.463
 9381PP      PP19485   7.240  10.072   9.096
 9382PP      PP19486   9.523  12.018  11.600
 9383PP      PP19487   3.576  10.450   9.648
 9384PP      PP19488  10.301  10.314   0.161
 9385PP      PP19489  12.537   7.169   8.862
 9386PP      PP19490   4.932   3.908   0.302
 9387PP      PP19491  10.268   1.481  10.494
 9388PP      PP19492   7.226   5.716   2.633
 9389PP      PP19493  10.792   6.036  13.413
 9390PP      PP19494   1.177   4.090  13.068
 9391PP      PP19495  12.875   5.966   9.619
 9392PP      PP19496   6.118   3.249   4.310
 9393PP      PP19497  12.567  10.155   2.730
 9394PP      PP19498   3.487   1.018   2.131
 9395PP      PP19499   2.011   2.699  12.367
 9396PP      PP19500   1.501   9.627  10.470
 9397PP      PP19501   1.210   7.033   4.145
 9398PP      PP19502   2.402   7.776  10.388
 9399PP      PP19503   1.273   0.812   4.126
 9400PP      PP19504  10.426  15.510  11.484
 9401PP      PP19505  12.011   4.796  12.242
 9402PP      PP19506  15.670   0.917  10.657
 9403PP      PP19507   0.188   2.687   1.781
 9404PP      PP19508  14.990   9.118   9.724
 9405PP      PP19509  15.102  14.343   0.426
 9406PP      PP19510  12.212   1.812   1.646
 9407PP      PP19511   2.602  11.621   2.234
 9408PP      PP19512  14.425   1.146  10.905
 9409PP      PP19513   5.369   3.027   9.903
 9410PP      PP19514   2.061  12.526   8.896
 9411PP      PP19515  10.318   6.227  13.293
 9412PP      PP19516  13.867  11.086  13.580
 9413PP      PP19517   3.681   7.689   9.226
 9414PP      PP19518   3.437   2.664   1.713
 9415PP      PP19519  13.537  13.783  12.295
 9416PP      PP19520   5.668  11.461  10.682
 9417PP      PP19521   9.177   2.915  12.186
 9418PP      PP19522   5.942   0.905   2.089
 9419PP      PP19523   5.503   5.622  12.127
 9420PP      PP19524   4.998   9.263  13.336
 9421PP      PP19525   0.269   1.438  11.518
 9422PP      PP19526   4.472  14.954   2.384
 9423PP      PP19527   1.401   3.468  10.420
 9424PP      PP19528   3.949  13.097   3.444
 9425PP      PP19529   1.318   4.947   3.025
 9426PP      PP19530  11.320   6.735  12.088
 9427PP      PP19531   3.720   0.790   3.475
 9428PP      PP19532  10.465   1.273  10.048
 9429PP      PP19533   9.057  10.338   0.493
 9430PP      PP19534   5.112  12.675   1.827
 9431PP      PP19535   7.556  10.790   9.265
 9432PP      PP19536  12.416   2.961   2.264
 9433PP      PP19537  11.258   3.068  13.019
 9434PP      PP19538   2.543   7.069   2.697
 9435PP      PP19539  14.974  12.432   2.574
 9436PP      PP19540  15.443  14.808   4.395
 9437PP      PP19541   2.713   9.529   2.424
 9438PP      PP19542  12.275   4.655   0.878
 9439PP      PP19543   5.327  13.252   2.427
 9440PP      PP19544   2.313  10.087  11.070
 9441PP      PP19545   2.808  13.017  10.928
 9442PP      PP19546  10.942  11.024  10.213
 9443PP      PP19547   1.156   6.723   0.699
 9444PP      PP19548   7.690   2.317   2.048
 9445PP      PP19549   6.536  10.313   0.598
 9446PP      PP19550   1.835  11.071   1.008
 9447PP      PP19551   2.110  10.393   9.374
 9448PP      PP19552   9.929   7.641   0.770
 9449PP      PP19553   1.604  10.266   0.876
 9450PP      PP19554   6.237   3.177   0.495
 9451PP      PP19555   5.677  10.622   0.312
 9452PP      PP19556   0.469  12.222   1.667
 9453PP      PP19557   3.971   6.871   8.813
 9454PP      PP19558   0.482  10.691   2.922
 9455PP      PP19559   6.432   5.152  11.317
 9456PP      PP19560   2.984   2.862   1.967
 9457PP      PP19561   1.769   1.376  11.950
 9458PP      PP19562   4.542   0.342   9.735
 9459PP      PP19563  14.610   0.809   0.596
 9460PP      PP19564   4.349   2.238   0.812
 9461PP      PP19565  15.274   4.813  13.405
 9462PP      PP19566   2.746  14.665   9.370
 9463PP      PP19567  13.229  11.042   4.449
 9464PP      PP19568   8.974   2.528  13.403
 9465PP      PP19569   5.324   0.365   8.604
 9466PP      PP19570  10.662   5.833   8.927
 9467PP      PP19571  13.418   9.435   0.307
 9468PP      PP19572   8.835  11.272  13.301
 9469PP      PP19573  11.138   7.352   8.244
 9470PP      PP19574  15.439   5.258   3.595
 9471PP      PP19575   4.905   7.078   2.646
 9472PP      PP19576   3.062   8.058  11.668
 9473PP      PP19577   7.478  14.104  13.062
 9474PP      PP19578   0.237   5.989   2.944
 9475PP      PP19579   6.852   4.387   0.429
 9476PP      PP19580   2.070   0.501  10.284
 9477PP      PP19581  12.098   8.021   2.895
 9478PP      PP19582  13.519   4.050   4.137
 9479PP      PP19583   9.550  15.789  10.064
 9480PP      PP19584  13.946  12.384   3.631
 9481PP      PP19585   6.785  13.826  12.913
 9482PP      PP19586   4.091   3.888  10.176
 9483PP      PP19587   1.710   4.269   2.620
 9484PP      PP19588   2.240   5.067   3.266
 9485PP      PP19589   4.208   3.355  10.203
 9486PP      PP19590   0.666   3.511   3.806
 9487PP      PP19591  15.683   3.808  11.132
 9488PP      PP19592  10.882  13.161  12.688
 9489PP      PP19593  10.736   0.490   2.847
 9490PP      PP19594  14.767   3.933  10.981
 9491PP      PP19595  13.107  13.793  11.108
 9492PP      PP19596  12.581  15.284   3.197
 9493PP      PP19597  11.942  14.631  12.167
 9494PP      PP19598   2.217   3.957   9.973
 9495PP      PP19599   4.834   2.683   9.348
 9496PP      PP19600  12.219   8.854   1.667
 9497PP      PP19601   9.993   3.173  13.503
 9498PP      PP19602   8.102  11.337   9.966
 9499PP      PP19603   0.414   7.736  10.996
 9500PP      PP19604   8.534   6.235  11.446
 9501PP      PP19605   7.766   2.169   9.882
 9502PP      PP19606   3.683   2.171   0.027
 9503PP      PP19607  13.299  10.007   0.624
 9504PP      PP19608  13.752   9.321   1.838
 9505PP      PP19609  14.454   0.722   0.046
 9506PP      PP19610   0.594   1.699  13.527
 9507PP      PP19611   8.218   3.975   4.129
 9508PP      PP19612  15.702  13.751   2.895
 9509PP      PP19613  12.421   8.624   0.605
 9510PP      PP19614   4.633  10.768  13.213
 9511PP      PP19615   7.213  10.253  13.093
 9512PP      PP19616   2.725   2.696  12.241
 9513PP      PP19617  12.730  14.325   2.557
 9514PP      PP19618  14.323   1.427   1.158
 9515PP      PP19619  15.378   4.893  12.915
 9516PP      PP19620   6.150   3.391  12.352
 9517PP      PP19621   0.921  10.588   9.015
 9518PP      PP19622  10.801   5.779   1.860
 9519PP      PP19623   7.911  13.340   2.034
 9520PP      PP19624   7.257   8.425   1.918
 9521PP      PP19625  11.989   2.147   2.023
 9522PP      PP19626   9.262  13.697   1.659
 9523PP      PP19627  10.898   8.728  11.425
 9524PP      PP19628   0.951   5.293   8.370
 9525PP      PP19629   1.254   4.132   0.378
 9526PP      PP19630  11.255   3.227  12.028
 9527PP      PP19631   2.199  13.849   3.457
 9528PP      PP19632  11.132  10.573  11.180
 9529PP      PP19633   1.594  12.458  11.990
 9530PP      PP19634  12.829   1.482   3.818
 9531PP      PP19635  14.195   7.539  10.341
 9532PP      PP19636  15.813   9.044   2.786
 9533PP      PP19637  11.404  12.914   1.851
 9534PP      PP19638   3.685  14.500   3.952
 9535PP      PP19639   4.185   3.798   2.274
 9536PP      PP19640   5.147  13.749   9.676
 9537PP      PP19641  14.052   5.839   0.483
 9538PP      PP19642   6.572   5.744  11.540
 9539PP      PP19643  12.483   1.847   8.402
 9540PP      PP19644   8.480  10.548  11.058
 9541PP      PP19645  10.145   5.560   1.359
 9542PP      PP19646   2.643  12.230  12.875
 9543PP      PP19647   7.755   8.643   4.523
 9544PP      PP19648   3.199   4.195   9.646
 9545PP      PP19649   0.507   8.941   2.542
 9546PP      PP19650   0.440   5.914  10.458
 9547PP      PP19651   6.885   2.450   5.002
 9548PP      PP19652   2.977   8.210  10.762
 9549PP      PP19653  14.788   5.180   1.088
 9550PP      PP19654   6.821   9.085   2.493
 9551PP      PP19655  14.254  10.098   8.822
 9552PP      PP19656  15.690   0.420  11.471
 9553PP      PP19657   2.596  10.064  12.944
 9554PP      PP19658   5.655  10.531  12.659
 9555PP      PP19659   1.237   9.072   9.111
 9556PP      PP19660  14.054   1.769  12.728
 9557PP      PP19661   0.162   7.623   3.132
 9558PP      PP19662  14.170   0.998   0.864
 9559PP      PP19663   4.754   0.970   2.969
 9560PP      PP19664   6.882   3.986  10.808
 9561PP      PP19665   4.136   2.503   0.065
 9562PP      PP19666   5.108   5.337   0.991
 9563PP      PP19667   7.977   2.333   0.761
 9564PP      PP19668   4.408   7.675  12.572
 9565PP      PP19669  10.453  13.464   0.830
 9566PP      PP19670   0.691   0.896   1.935
 9567PP      PP19671  11.868   9.001  11.681
 9568PP      PP19672   2.410  12.743  10.739
 9569PP      PP19673  13.106  14.233  10.811
 9570PP      PP19674  14.344   3.775  12.223
 9571PP      PP19675   5.082   0.075   0.184
 9572PP      PP19676   5.516   6.775   8.667
 9573PP      PP19677   9.630   6.311  10.307
 9574PP      PP19678   4.823  13.525   8.660
 9575PP      PP19679  14.728   9.754  11.142
 9576PP      PP19680  10.508   0.559  10.745
 9577PP      PP19681   6.595  10.984  12.174
 9578PP      PP19682   0.950   7.254   1.532
 9579PP      PP19683  11.273  10.850   2.502
 9580PP      PP19684   7.579   1.703   2.789
 9581PP      PP19685   8.941   2.002  10.333
 9582PP      PP19686   3.597   1.403   0.886
 9583PP      PP19687  12.691   3.031   3.536
 9584PP      PP19688  14.823  14.424  10.655
 9585PP      PP19689  11.647  13.748  12.114
 9586PP      PP19690   5.925  15.304  11.193
 9587PP      PP19691   1.535   2.465   0.611
 9588PP      PP19692  14.553  14.228  11.045
 9589PP      PP19693  15.743   9.434  10.326
 9590PP      PP19694   4.916  10.846  11.632
 9591PP      PP19695   8.132  11.110  11.943
 9592PP      PP19696   2.445  14.289   3.256
 9593PP      PP19697  10.861  10.648  11.635
 9594PP      PP19698  13.861  11.605  10.798
 9595PP      PP19699   8.544  15.091  11.611
 9596PP      PP19700   5.719   0.292   2.864
 9597PP      PP19701  13.108   9.395   0.726
 9598PP      PP19702   3.244  13.931   2.681
 9599PP      PP19703   6.455   7.151   2.183
 9600PP      PP19704   7.362   3.278   1.818
 9601PP      PP19705  11.546   0.803   1.636
 9602PP      PP19706  10.081   8.392   9.216
 9603PP      PP19707  14.735   7.240   0.940
 9604PP      PP19708   8.975   6.380  12.306
 9605PP      PP19709  11.787  10.287   3.341
 9606PP      PP19710  10.829   0.150  12.812
 9607PP      PP19711   9.234   3.639   9.906
 9608PP      PP19712  13.973  12.004   2.095
 9609PP      PP19713   1.030  11.364   2.668
 9610PP      PP19714   5.398  12.313   2.458
 9611PP      PP19715   1.052   8.120  10.253
 9612PP      PP19716  12.669  12.473  12.641
 9613PP      PP19717  12.786   5.945   3.801
 9614PP      PP19718  13.481   5.842   2.177
 9615PP      PP19719  10.417   4.508   1.264
 9616PP      PP19720   3.128   6.118   9.343
 9617PP      PP19721   8.118  13.447   0.496
 9618PP      PP19722   0.577   5.873  11.457
 9619PP      PP19723  11.667   5.575   2.998
 9620PP      PP19724   3.897   1.327   2.220
 9621PP      PP19725   1.032   5.604   3.696
 9622PP      PP19726   5.873  11.339   9.171
 9623PP      PP19727   9.566   3.075   2.757
 9624PP      PP19728  12.488   2.377   9.617
 9625PP      PP19729  14.883  13.536  12.770
 9626PP      PP19730   5.748   5.367   3.957
 9627PP      PP19731  12.502  13.842   9.492
 9628PP      PP19732   7.085  13.827   2.500
 9629PP      PP19733   6.210  10.375   2.312
 9630PP      PP19734   7.603   4.387  10.328
 9631PP      PP19735   0.367   9.240  11.633
 9632PP      PP19736   8.462   1.989  12.686
 9633PP      PP19737   4.217   5.353   0.939
 9634PP      PP19738   9.106   8.052  11.226
 9635PP      PP19739   8.383  10.665   9.789
 9636PP      PP19740  12.851  10.779  11.579
 9637PP      PP19741   3.698  10.736  10.124
 9638PP      PP19742   2.381   3.458  10.009
 9639PP      PP19743   9.334   8.410   2.748
 9640PP      PP19744   2.257  11.855  10.643
 9641PP      PP19745  13.327  11.015   0.119
 9642PP      PP19746   3.470   6.192   1.211
 9643PP      PP19747  10.261   3.809  10.814
 9644PP      PP19748   7.545  13.040   3.945
 9645PP      PP19749   3.051   0.558   4.013
 9646PP      PP19750  14.188  11.442  12.370
 9647PP      PP19751  10.703  14.552   3.292
 9648PP      PP19752   8.943   6.527   1.326
 9649PP      PP19753   5.349   2.212   0.023
 9650PP      PP19754   3.293   1.413   9.256
 9651PP      PP19755   3.935   3.065  11.523
 9652PP      PP19756   5.054   6.190  13.390
 9653PP      PP19757  10.557   4.047  13.425
 9654PP      PP19758   5.129  10.797  11.133
 9655PP      PP19759  14.316  13.383   0.636
 9656PP      PP19760   4.643   6.056   2.082
 9657PP      PP19761   1.744  14.096  10.863
 9658PP      PP19762   0.306   9.060   8.428
 9659PP      PP19763   9.172   2.899   1.677
 9660PP      PP19764   4.070  11.962  12.542
 9661PP      PP19765  10.171   0.829   3.618
 9662PP      PP19766   5.893  14.375  11.373
 9663PP      PP19767   4.158   7.099   9.941
 9664PP      PP19768   8.171   9.061  10.683
 9665PP      PP19769   1.423  10.770   0.905
 9666PP      PP19770   8.553   3.288  11.473
 9667PP      PP19771  11.228   8.395   0.849
 9668PP      PP19772   3.063   4.666   2.961
 9669PP      PP19773   0.721   1.844  10.292
 9670PP      PP19774   7.003   5.682   4.632
 9671PP      PP19775   9.168   4.877   1.293
 9672PP      PP19776   7.658   2.647  10.169
 9673PP      PP19777   1.175   9.543   0.451
 9674PP      PP19778   2.166   4.301   9.239
 9675PP      PP19779  15.105   8.704  10.392
 9676PP      PP19780   1.004  10.969   9.896
 9677PP      PP19781   2.838   1.921   1.164
 9678PP      PP19782  14.133  12.655  12.441
 9679PP      PP19783  13.833  12.970  12.149
 9680PP      PP19784   0.888   9.594  12.254
 9681PP      PP19785   3.290   2.261   4.643
 9682PP      PP19786   6.287  12.426   0.541
 9683PP      PP19787   6.182   7.611   9.691
 9684PP      PP19788  11.314  12.565   3.623
 9685PP      PP19789   8.373   1.616   9.528
 9686PP      PP19790   4.733   9.152   0.530
 9687PP      PP19791   6.683  15.476  10.744
 9688PP      PP19792   6.192   0.791  12.988
 9689PP      PP19793   5.150   6.758  10.861
 9690PP      PP19794   0.313   4.549   9.744
 9691PP      PP19795  10.993   3.695   3.073
 9692PP      PP19796   6.784   8.339  10.732
 9693PP      PP19797  14.322  13.547  13.535
 9694PP      PP19798   0.943  15.549   1.745
 9695PP      PP19799   8.234  13.183  12.617
 9696PP      PP19800   9.473   2.474   4.410
 9697PP      PP19801  11.078   9.887   2.850
 9698PP      PP19802  13.060   2.809   9.069
 9699PP      PP19803   6.329   0.334  11.889
 9700PP      PP19804  15.476   4.914  12.401
 9701PP      PP19805  11.592   5.475  13.417
 9702PP      PP19806   6.437   9.176  11.076
 9703PP      PP19807  13.492   9.729  11.977
 9704PP      PP19808   5.302  13.251  11.822
 9705PP      PP19809  14.031   3.589   1.264
 9706PP      PP19810   5.032  11.345   9.119
 9707PP      PP19811   5.502   0.909  10.776
 9708PP      PP19812   1.615   3.689  11.828
 9709PP      PP19813   6.222   3.428  11.851
 9710PP      PP19814  14.954   1.878   3.059
 9711PP      PP19815   2.519   8.483   1.483
 9712PP      PP19816   5.511   9.356   0.978
 9713PP      PP19817  15.407  15.545   2.625
 9714PP      PP19818   0.916   6.566   3.289
 9715PP      PP19819  14.127  14.551  13.452
 9716PP      PP19820  14.799   8.071   8.355
 9717PP      PP19821   5.656  11.141  13.409
 9718PP      PP19822  15.507  10.634  12.040
 9719PP      PP19823   9.646   7.201   1.462
 9720PP      PP19824  10.055   9.428   0.704
 9721PP      PP19825  10.395   5.750   2.185
 9722PP      PP19826  15.809  12.452   4.105
 9723PP      PP19827  11.698   0.934  10.393
 9724PP      PP19828   7.139   8.892   2.868
 9725PP      PP19829  12.204   9.962  13.408
 9726PP      PP19830   8.841   6.762   3.317
 9727PP      PP19831   6.721  11.838   4.116
 9728PP      PP19832   1.026  10.110   2.363
 9729PP      PP19833   3.185  15.415   3.574
 9730PP      PP19834   5.440   9.776  10.075
 9731PP      PP19835   6.495  10.419  11.376
 9732PP      PP19836  11.849  13.176   9.913
 9733PP      PP19837   2.231   9.680   3.613
 9734PP      PP19838  13.930   2.797   0.626
 9735PP      PP19839   6.402   6.179   9.222
 9736PP      PP19840  11.025   3.237   9.833
 9737PP      PP19841   5.089   5.625  12.603
 9738PP      PP19842   2.518  12.535   9.637
 9739PP      PP19843   0.191   3.142   1.558
 9740PP      PP19844  15.724   2.977   4.014
 9741PP      PP19845   6.569   2.914  11.189
 9742PP      PP19846  12.566  15.328   0.188
 9743PP      PP19847   0.858   5.013   3.992
 9744PP      PP19848   6.684   4.691   1.124
 9745PP      PP19849   8.508  12.544  11.533
 9746PP      PP19850  11.029   2.979   1.339
 9747PP      PP19851  13.514   7.301   1.435
 9748PP      PP19852   9.322  12.343  11.943
 9749PP      PP19853   6.068  13.536  12.379
 9750PP      PP19854  10.405   1.924  13.248
 9751PP      PP19855   6.737   1.526   5.469
 9752PP      PP19856   3.812   3.034  10.141
 9753PP      PP19857  11.758  12.049   0.658
 9754PP      PP19858  13.954   2.831  11.396
 9755PP      PP19859  14.693   7.946  12.490
 9756PP      PP19860   5.660   6.639   0.485
 9757PP      PP19861   5.054   2.090   4.877
 9758PP      PP19862  12.772   8.219   8.734
 9759PP      PP19863   6.005   0.613  13.594
 9760PP      PP19864  11.586   1.373   2.670
 9761PP      PP19865   4.712   8.719   2.916
 9762PP      PP19866   1.650  10.691  12.311
 9763PP      PP19867   0.659   0.597  11.290
 9764PP      PP19868   8.142   6.980   0.130
 9765PP      PP19869   9.470   7.322  12.382
 9766PP      PP19870   5.276   5.217  12.331
 9767PP      PP19871   6.135   4.801   2.275
 9768PP      PP19872   4.918   5.882   1.668
 9769PP      PP19873   7.816   4.143   1.491
 9770PP      PP19874  14.413  10.873   9.150
 9771PP      PP19875   3.275   3.371  11.170
 9772PP      PP19876   7.113  11.927   1.543
 9773PP      PP19877   7.298   3.246   2.663
 9774PP      PP19878  13.132   3.320   4.407
 9775PP      PP19879  15.234   3.689   1.695
 9776PP      PP19880  14.815  13.145   3.401
 9777PP      PP19881  15.472   0.035   4.121
 9778PP      PP19882   0.646   8.958  11.216
 9779PP      PP19883  11.975   8.414   1.811
 9780PP      PP19884  11.394   4.726   9.226
 9781PP      PP19885   4.109   5.602  11.335
 9782PP      PP19886   5.157   4.263  13.353
 9783PP      PP19887  14.237  14.086  13.141
 9784PP      PP19888   6.517  13.849  12.421
 9785PP      PP19889   8.806  12.604   9.443
 9786PP      PP19890  11.779   8.834   3.477
 9787PP      PP19891   9.199   2.780   3.722
 9788PP      PP19892   4.737  12.112  11.104
 9789PP      PP19893   4.946   0.518   2.131
 9790PP      PP19894   3.527  11.889   1.543
 9791PP      PP19895  10.647   1.280   9.189
 9792PP      PP19896  11.103   5.547   4.277
 9793PP      PP19897  11.388   4.708   3.124
 9794PP      PP19898   6.485   9.563  10.692
 9795PP      PP19899   6.747   9.778  12.107
 9796PP      PP19900   4.420   0.990   4.170
 9797PP      PP19901  12.457   6.713   0.845
 9798PP      PP19902   9.827  13.472   4.396
 9799PP      PP19903   1.447   2.495   0.100
 9800PP      PP19904   3.149  14.161  13.362
 9801PP      PP19905   6.260   7.545   3.865
 9802PP      PP19906  14.224   8.238   8.318
 9803PP      PP19907   5.580  14.416   1.193
 9804PP      PP19908   7.599  12.875  10.403
 9805PP      PP19909   2.613   0.911  11.037
 9806PP      PP19910   5.035   7.801  12.961
 9807PP      PP19911  13.790  14.256   0.249
 9808PP      PP19912  13.401  11.538  11.480
 9809PP      PP19913   3.907   6.770  11.332
 9810PP      PP19914  11.163   4.122   9.175
 9811PP      PP19915   8.732  14.522   4.991
 9812PP      PP19916   8.667   2.840   4.769
 9813PP      PP19917   0.450   3.409   1.922
 9814PP      PP19918  12.647  13.624   4.530
 9815PP      PP19919   0.161  15.828   2.801
 9816PP      PP19920  13.396   7.801  10.902
 9817PP      PP19921  14.514   3.894  12.708
 9818PP      PP19922   1.065   8.108  11.009
 9819PP      PP19923  11.694  11.816   9.087
 9820PP      PP19924   7.306   6.383   0.059
 9821PP      PP19925  15.165   2.678   0.911
 9822PP      PP19926   2.759   9.789   9.726
 9823PP      PP19927   9.712   9.619  13.478
 9824PP      PP19928   7.200  11.657   1.093
 9825PP      PP19929   1.776   5.245   3.010
 9826PP      PP19930   3.148   0.580   5.023
 9827PP      PP19931  12.825   8.505   3.580
 9828PP      PP19932   4.936  13.111  12.704
 9829PP      PP19933  12.783   8.998   0.595
 9830PP      PP19934  15.150   3.884   3.153
 9831PP      PP19935  11.151  13.781  10.421
 9832PP      PP19936  11.107  13.672   9.730
 9833PP      PP19937   3.572   4.973  11.012
 9834PP      PP19938   8.789   0.270  12.821
 9835PP      PP19939   2.623  11.697   2.764
 9836PP      PP19940  12.647  15.535   1.160
 9837PP      PP19941  12.018  10.503   2.916
 9838PP      PP19942  13.502   4.899   2.193
 9839PP      PP19943   5.195  10.424   0.312
 9840PP      PP19944   7.719  10.407   0.731
 9841PP      PP19945   7.835   3.309  12.863
 9842PP      PP19946   0.247  13.437   9.071
 9843PP      PP19947   5.897   3.602   2.389
 9844PP      PP19948   4.095   4.450  11.427
 9845PP      PP19949   1.980   6.746  10.336
 9846PP      PP19950   1.954  10.965   4.165
 9847PP      PP19951   6.300   4.809   9.948
 9848PP      PP19952   8.802   4.119  12.005
 9849PP      PP19953   4.766   0.876  13.597
 9850PP      PP19954   1.352   5.808  11.038
 9851PP      PP19955   3.875   3.041   4.442
 9852PP      PP19956   9.218   2.183  13.007
 9853PP      PP19957   6.402  12.395   1.617
 9854PP      PP19958   7.380   7.644  12.927
 9855PP      PP19959   0.891   5.391   3.215
 9856PP      PP19960  10.861  10.053   1.303
 9857PP      PP19961  12.066   8.730  12.082
 9858PP      PP19962  15.097  14.460  12.534
 9859PP      PP19963   3.931   7.709   8.759
 9860PP      PP19964   0.376  12.986   3.415
 9861PP      PP19965   4.099  12.501  11.734
 9862PP      PP19966  10.035   5.368   2.370
 9863PP      PP19967  11.947  11.906   9.520
 9864PP      PP19968   2.033  13.769  10.085
 9865PP      PP19969   6.530   2.688   0.989
 9866PP      PP19970   4.080   0.389   5.066
 9867PP      PP19971   6.660   2.427   3.920
 9868PP      PP19972  14.783   6.617  12.749
 9869PP      PP19973   8.432   6.916   2.021
 9870PP      PP19974   2.809   2.280  13.236
 9871PP      PP19975  12.900  15.637  10.325
 9872PP      PP19976   3.472  15.198   1.421
 9873PP      PP19977   6.990  15.131  11.062
 9874PP      PP19978   9.563   2.144  11.794
 9875PP      PP19979   2.401   1.530   3.628
 9876PP      PP19980   3.032   6.628  10.893
 9877PP      PP19981   1.269   9.777  11.218
 9878PP      PP19982  10.961  13.521   2.497
 9879PP      PP19983  11.407  10.998  12.059
 9880PP      PP19984  12.085  11.682   0.488
 9881PP      PP19985  14.726   7.622   3.937
 9882PP      PP19986   9.333  15.588   2.869
 9883PP      PP19987   0.142   7.239   9.659
 9884PP      PP19988   6.965   2.696  11.433
 9885PP      PP19989   0.107   2.320   2.719
 9886PP      PP19990  12.691   6.812  12.165
 9887PP      PP19991  13.604  11.842   8.553
 9888PP      PP19992  15.257  15.731  12.830
 9889PP      PP19993   1.594   8.635   1.818
 9890PP      PP19994   0.369   5.576   3.270
 9891PP      PP19995   6.280  12.416  10.134
 9892PP      PP19996  14.932   4.010   2.668
 9893PP      PP19997  10.039   5.527   1.875
 9894PP      PP19998   2.996   5.307  12.470
 9895PP      PP19999  14.311  11.348   0.017
 9896PP      PP20000  13.903  10.523   3.222
 9897PP      PP20001   0.801   7.707   3.747
 9898PP      PP20002   2.371   5.469   3.748
 9899PP      PP20003   8.564   8.078   0.550
 9900PP      PP20004  13.922  15.198   2.990
 9901PP      PP20005   7.853   1.008   4.909
 9902PP      PP20006   4.966   8.974   9.144
 9903PP      PP20007   6.491   1.006   9.747
 9904PP      PP20008   7.013  15.356   3.782
 9905PP      PP20009   3.255  13.953   2.158
 9906PP      PP20010  10.739   7.076  11.352
 9907PP      PP20011   3.682  10.756  13.421
 9908PP      PP20012   9.384   2.389   1.995
 9909PP      PP20013  10.328  11.901  12.586
 9910PP      PP20014   6.481   4.784   0.609
 9911PP      PP20015  14.601   2.354   2.358
 9912PP      PP20016   8.356   1.598   2.433
 9913PP      PP20017   9.549   6.966   8.964
 9914PP      PP20018   3.315  14.597   9.585
 9915PP      PP20019   9.889   4.414  11.319
 9916PP      PP20020   2.064   0.368  12.966
 9917PP      PP20021   1.320  10.260  13.213
 9918PP      PP20022   3.208   7.749  13.154
 9919PP      PP20023   1.211  10.191   3.715
 9920PP      PP20024   6.584  15.213   4.537
 9921PP      PP20025  13.139   1.848  12.235
 9922PP      PP20026   4.182  14.529   1.458
 9923PP      PP20027  13.715   8.640  11.428
 9924PP      PP20028   6.530   4.314   3.259
 9925PP      PP20029   8.646   8.413   9.724
 9926PP      PP20030   5.794   3.959  11.743
 9927PP      PP20031  13.710   6.018   9.207
 9928PP      PP20032  14.604   0.363   9.722
 9929PP      PP20033   9.961   5.827  13.261
 9930PP      PP20034   7.228   1.238   9.275
 9931PP      PP20035   4.205  13.018  13.426
 9932PP      PP20036   8.671   6.167   9.882
 9933PP      PP20037   0.130   7.695   9.343
 9934PP      PP20038   1.367  13.430  10.457
 9935PP      PP20039   8.506   5.909   3.152
 9936PP      PP20040   0.008  10.034   9.806
 9937PP      PP20041   9.538   8.182   9.856
 9938PP      PP20042   8.085   1.388  13.355
 9939PP      PP20043   8.171  10.417   9.366
 9940PP      PP20044   4.143  12.958   2.407
 9941PP      PP20045   2.667   9.828   8.341
 9942PP      PP20046   1.395   7.792   1.036
 9943PP      PP20047  10.031  10.765   1.337
 9944PP      PP20048   2.250   9.298  12.588
 9945PP      PP20049  13.917   9.722   2.746
 9946PP      PP20050  13.690   0.542  13.070
 9947PP      PP20051  15.390  14.561  10.905
 9948PP      PP20052  15.647  13.394  11.296
 9949PP      PP20053   9.679   2.386  10.839
 9950PP      PP20054  12.697  11.625   1.708
 9951PP      PP20055   4.090   4.831   9.287
 9952PP      PP20056   8.654  13.443   0.772
 9953PP      PP20057   4.256  14.410  12.584
 9954PP      PP20058   7.362  12.508   0.811
 9955PP      PP20059  13.570   2.859   3.577
 9956PP      PP20060  12.775  11.457  13.490
 9957PP      PP20061  12.396   7.763   3.267
 9958PP      PP20062   5.027   4.653  10.749
 9959PP      PP20063   4.033  11.060   2.469
 9960PP      PP20064   5.740  10.000   2.741
 9961PP      PP20065   2.956   7.521   8.531
 9962PP      PP20066  14.036  12.506  11.933
 9963PP      PP20067  12.899  12.900  11.146
 9964PP      PP20068   2.753  14.138   2.025
 9965PP      PP20069   6.677   6.730   1.484
 9966PP      PP20070   3.255   8.888  10.801
 9967PP      PP20071  13.327   7.200   0.691
 9968PP      PP20072   6.178   4.491   9.540
 9969PP      PP20073   4.410   9.847   3.069
 9970PP      PP20074   1.667   9.071   3.213
 9971PP      PP20075   2.652   5.029   3.761
 9972PP      PP20076   9.485  15.600   3.485
 9973PP      PP20077   1.213  10.753  10.482
 9974PP      PP20078  10.384   5.392  10.809
 9975PP      PP20079   7.833   2.872   0.613
 9976PP      PP20080   4.752   5.164  13.460
 9977PP      PP20081  15.173  12.898  12.001
 9978PP      PP20082  12.724   8.215  11.674
 9979PP      PP20083  10.761   3.171  11.328
 9980PP      PP20084   1.617  12.773   9.189
 9981PP      PP20085   7.274   5.566   8.447
 9982PP      PP20086   0.937   3.796  11.228
 9983PP      PP20087   5.339   8.513  12.995
 9984PP      PP20088  13.392   9.053   1.593
 9985PP      PP20089   6.995   7.681   3.660
 9986PP      PP20090   3.928   7.668  11.401
 9987PP      PP20091  10.695   0.984   3.640
 9988PP      PP20092  14.441   0.623  10.918
 9989PP      PP20093  12.054   5.904  12.085
 9990PP      PP20094  12.054   7.881   0.333
 9991PP      PP20095   5.448   4.542  13.022
 9992PP      PP20096   0.930   2.143  10.959
 9993PP      PP20097   5.788   7.774  10.071
 9994PP      PP20098   2.588   8.822   3.679
 9995PP      PP20099   1.273  12.612   4.051
 9996PP      PP20100  10.819   6.954  11.872
 9997PP      PP20101  13.839   9.201   9.351
 9998PP      PP20102   7.462  13.910  11.344
 9999PP      PP20103   7.874   8.316  10.270
10000PP      PP20104  11.770   9.101   9.489
10001PP      PP20105   3.087   0.702  11.139
10002PP      PP20106   4.491   5.745   2.480
10003PP      PP20107  14.819  15.475  12.985
10004PP      PP20108   8.616   2.122   4.180
10005PP      PP20109  15.577   7.239  10.242
10006PP      PP20110   1.701   5.946   0.306
10007PP      PP20111  11.323  12.227   3.107
10008PP      PP20112   5.989   1.547   1.147
10009PP      PP20113   5.175   0.027   8.987
10010PP      PP20114   5.655   2.658   2.738
10011PP      PP20115   7.052  15.453   1.749
10012PP      PP20116   7.347  11.569   2.619
10013PP      PP20117   9.870   0.039   0.714
10014PP      PP20118   7.791  15.006  13.460
10015PP      PP20119   6.743   8.998   0.697
10016PP      PP20120   5.141   5.178  10.887
10017PP      PP20121   5.705  15.531  11.624
10018PP      PP20122   8.943   4.579   9.054
10019PP      PP20123   9.302  13.439   3.638
10020PP      PP20124   3.764   8.161   9.499
10021PP      PP20125   9.517  11.274   2.454
10022PP      PP20126  11.780   6.963   0.322
10023PP      PP20127   6.868  13.149   5.528
10024PP      PP20128   9.745   6.044   9.115
10025PP      PP20129   9.571  12.276   2.293
10026PP      PP20130   6.845  15.319  12.459
10027PP      PP20131   2.878  11.912   3.164
10028PP      PP20132   9.245   1.193  11.966
10029PP      PP20133   5.372  11.930  12.107
10030PP      PP20134   8.275  14.324   4.733
10031PP      PP20135  13.312  11.148   2.882
10032PP      PP20136   7.568   7.674  10.668
10033PP      PP20137   1.897   9.137   1.390
10034PP      PP20138   1.359   6.393   1.654
10035PP      PP20139   5.936   3.941  11.246
10036PP      PP20140   7.662   9.606   2.411
10037PP      PP20141  14.421   2.266   1.112
10038PP      PP20142   4.025  10.213   1.321
10039PP      PP20143  15.412   4.186   1.454
10040PP      PP20144  15.071  11.982   0.219
10041PP      PP20145   5.531  11.310   3.169
10042PP      PP20146   1.077   4.844   1.024
10043PP      PP20147   5.797  10.892   1.626
10044PP      PP20148   4.437   7.876  11.070
10045PP      PP20149   8.954   6.212   0.561
10046PP      PP20150  13.051  13.423  10.015
10047PP      PP20151  12.102  15.066   0.022
10048PP      PP20152  12.512  14.302   3.094
10049PP      PP20153   2.262   0.627  10.751
10050PP      PP20154   3.000   8.798   3.372
10051PP      PP20155   0.531   6.792   0.319
10052PP      PP20156  10.328   4.306   9.903
10053PP      PP20157  11.372  13.225   2.318
10054PP      PP20158  15.083  10.603   1.471
10055PP      PP20159   2.648   1.021   2.731
10056PP      PP20160   9.683   8.015   2.967
10057PP      PP20161  12.597  12.479  10.940
10058PP      PP20162   5.118   7.530  11.760
10059PP      PP20163  11.068   0.313   0.229
10060PP      PP20164   3.473   8.578  12.422
10061PP      PP20165   6.635   8.398   4.237
10062PP      PP20166   2.792  14.907   0.279
10063PP      PP20167  10.844   9.578   8.779
10064PP      PP20168  14.814   2.439  11.366
10065PP      PP20169   9.421  15.812  10.927
10066PP      PP20170   9.467   6.232   1.958
10067PP      PP20171   7.146   7.821   9.296
10068PP      PP20172   6.775   1.879   3.289
10069PP      PP20173  15.125  12.291   0.689
10070PP      PP20174  14.397   8.697  12.016
10071PP      PP20175   9.443   5.390  11.920
10072PP      PP20176   3.612   5.904   9.252
10073PP      PP20177   0.137  11.189  11.110
10074PP      PP20178   6.733   5.868  13.486
10075PP      PP20179  10.278  15.667   3.999
10076PP      PP20180   7.288  11.273  12.979
10077PP      PP20181   8.729  15.024   5.143
10078PP      PP20182   9.339   6.694   1.659
10079PP      PP20183   8.523   8.227  12.169
10080PP      PP20184   8.338  10.715  12.706
10081PP      PP20185   1.600   1.717   1.970
10082PP      PP20186   1.834  12.881   1.910
10083PP      PP20187   9.883  15.492  12.902
10084PP      PP20188  11.658  15.035  12.394
10085PP      PP20189   4.783  15.725   9.759
10086PP      PP20190  15.260   3.325   9.673
10087PP      PP20191  13.005  12.951  11.661
10088PP      PP20192   8.303  14.700  11.266
10089PP      PP20193  15.102   2.625  11.742
10090PP      PP20194   7.841  14.739   9.992
10091PP      PP20195  14.122  11.269   8.981
10092PP      PP20196   8.718  10.222  12.050
10093PP      PP20197  13.449  13.563   2.292
10094PP      PP20198   6.912   9.395   0.980
10095PP      PP20199   3.682   3.504   4.056
10096PP      PP20200   5.356   3.598   2.351
10097PP      PP20201   5.413   9.563   0.491
10098PP      PP20202  13.133  12.616   2.503
10099PP      PP20203   7.418   9.277  11.299
10100PP      PP20204   9.030  12.012   2.408
10101PP      PP20205   0.817   5.028  10.258
10102PP      PP20206   4.352   4.204   1.561
10103PP      PP20207  14.482   4.860  11.762
10104PP      PP20208   9.639   5.257  10.247
10105PP      PP20209  14.631   8.900  10.065
10106PP      PP20210  12.873  14.719   4.806
10107PP      PP20211  13.759   9.146   2.699
10108PP      PP20212  15.291   7.470  11.209
10109PP      PP20213   1.851   3.446  13.278
10110PP      PP20214  13.800  12.902   0.065
10111PP      PP20215   7.018   4.086   3.088
10112PP      PP20216  13.229  14.297   1.843
10113PP      PP20217   4.912   3.589   3.197
10114PP      PP20218   3.137   2.150  12.840
10115PP      PP20219  15.584   8.873   9.720
10116PP      PP20220  14.987   3.767  13.532
10117PP      PP20221   4.383  12.876   8.682
10118PP      PP20222   0.458  10.919   9.978
10119PP      PP20223   3.317   2.360  13.270
10120PP      PP20224  11.160  11.796   0.610
10121PP      PP20225  13.075   6.503   3.354
10122PP      PP20226   8.706  12.881   2.294
10123PP      PP20227  14.925   8.703   2.345
10124PP      PP20228   9.398   2.743  11.094
10125PP      PP20229   7.346   5.500   4.079
10126PP      PP20230   3.208   6.477   2.688
10127PP      PP20231   7.503   2.133   3.540
10128PP      PP20232   8.411   4.184   0.617
10129PP      PP20233  12.127   0.593   0.372
10130PP      PP20234   7.858   7.458   3.929
10131PP      PP20235  14.290  13.538   2.775
10132PP      PP20236   7.044   8.343   1.436
10133PP      PP20237   2.579   7.528   9.979
10134PP      PP20238   2.352  11.316  11.483
10135PP      PP20239   6.528  15.672   1.293
10136PP      PP20240   4.578   9.752  11.578
10137PP      PP20241   8.773   1.167  12.206
10138PP      PP20242   2.686  15.169  13.456
10139PP      PP20243   9.700  12.393   1.615
10140PP      PP20244   8.659   3.820   1.318
10141PP      PP20245   6.572   8.417  10.223
10142PP      PP20246   5.773   9.422   2.916
10143PP      PP20247   1.153   1.460  11.018
10144PP      PP20248  14.453   6.674   0.034
10145PP      PP20249  15.565  14.907   1.595
10146PP      PP20250   5.350   8.412   1.903
10147PP      PP20251  14.628   0.028   4.130
10148PP      PP20252   8.717  11.179   2.585
10149PP      PP20253   1.461  10.537   2.206
10150PP      PP20254   4.950   5.429   9.546
10151PP      PP20255  11.324  13.371  12.381
10152PP      PP20256  11.720   9.776  11.915
10153PP      PP20257  13.063   1.802  12.765
10154PP      PP20258   5.283   2.374   2.397
10155PP      PP20259   8.204   4.486  12.789
10156PP      PP20260  13.135   3.950   2.764
10157PP      PP20261  14.647   8.377   3.425
10158PP      PP20262   4.143  11.983   9.894
10159PP      PP20263   1.859   3.595   3.310
10160PP      PP20264  14.825   9.116   8.658
10161PP      PP20265   7.281  15.406   2.799
10162PP      PP20266   0.621  13.910   1.733
10163PP      PP20267   5.838   9.282  11.765
10164PP      PP20268   8.972  15.558  10.843
10165PP      PP20269   2.415   3.370  11.204
10166PP      PP20270  15.156  11.693   1.030
10167PP      PP20271  15.348   7.710   1.635
10168PP      PP20272   1.989   9.329   2.711
10169PP      PP20273   4.533   4.136  11.305
10170PP      PP20274   1.416   8.240   1.517
10171PP      PP20275  13.156  14.167  12.353
10172PP      PP20276   7.695   1.709  11.327
10173PP      PP20277   2.299   0.578   2.905
10174PP      PP20278  11.367  15.543   2.549
10175PP      PP20279   1.824   4.017   1.185
10176PP      PP20280  12.693  14.272   2.013
10177PP      PP20281  15.266   6.026   9.097
10178PP      PP20282   8.486   7.417  10.501
10179PP      PP20283  14.068   2.733  12.823
10180PP      PP20284  11.685  11.263  13.271
10181PP      PP20285   0.298   7.084   2.085
10182PP      PP20286  10.184   7.973  10.650
10183PP      PP20287   0.385   8.092  11.971
10184PP      PP20288   1.259   3.397  11.374
10185PP      PP20289   7.727   0.248   9.911
10186PP      PP20290   9.303   9.539  13.089
10187PP      PP20291  11.588  10.591  10.935
10188PP      PP20292  14.740   1.138   9.213
10189PP      PP20293   3.376  10.961  12.472
10190PP      PP20294   9.388   3.416   3.677
10191PP      PP20295  14.964   2.497  10.853
10192PP      PP20296   0.557   4.699   4.285
10193PP      PP20297   3.800   0.395   2.645
10194PP      PP20298   5.261   1.042  11.541
10195PP      PP20299   0.463   7.769   2.717
10196PP      PP20300  10.991   1.802   3.202
10197PP      PP20301  12.665  10.335   3.545
10198PP      PP20302   0.287   6.320  11.557
10199PP      PP20303   1.507  13.419  11.695
10200PP      PP20304  14.083   9.071   7.913
10201PP      PP20305   2.802   1.261  12.037
10202PP      PP20306  11.331   4.386  12.624
10203PP      PP20307  13.236   1.937   9.003
10204PP      PP20308   7.602   9.778  11.851
10205PP      PP20309   1.190  14.188  13.030
10206PP      PP20310   3.403  12.847   1.436
10207PP      PP20311   0.570   2.302   1.391
10208PP      PP20312   0.615  11.706  12.122
10209PP      PP20313   6.368   7.084   4.119
10210PP      PP20314   4.081   7.221   8.352
10211PP      PP20315   0.380   0.631  12.380
10212PP      PP20316   5.786  11.894  12.422
10213PP      PP20317  13.845  10.272   1.478
10214PP      PP20318   6.375   4.242  10.565
10215PP      PP20319  11.220  11.528  13.258
10216PP      PP20320   2.554   9.569  10.471
10217PP      PP20321   7.956  11.659   8.982
10218PP      PP20322   2.445   5.065   2.490
10219PP      PP20323  10.962   5.343  11.618
10220PP      PP20324   6.686   7.264  10.128
10221PP      PP20325  12.396   6.354   1.976
10222PP      PP20326  10.114   4.213   0.008
10223PP      PP20327   1.526  11.993   8.804
10224PP      PP20328  15.529   1.845   1.793
10225PP      PP20329  12.608   6.638   9.424
10226PP      PP20330   8.023  15.351   1.358
10227PP      PP20331   4.995   8.266   9.292
10228PP      PP20332   5.570   1.662  10.456
10229PP      PP20333   2.362  15.538  11.706
10230PP      PP20334   1.023   0.506  10.213
10231PP      PP20335  12.460   1.385   2.942
10232PP      PP20336  14.623   3.905   2.071
10233PP      PP20337   8.361   4.629   2.720
10234PP      PP20338   7.256  15.002   9.641
10235PP      PP20339   7.282   5.810   0.735
10236PP      PP20340   2.730  10.280  12.481
10237PP      PP20341  11.347  12.311   1.952
10238PP      PP20342   9.635  12.218   4.767
10239PP      PP20343   6.969  13.441   1.944
10240PP      PP20344   2.790   4.292   4.950
10241PP      PP20345   2.358  13.487  12.044
10242PP      PP20346   9.756   4.749   8.559
10243PP      PP20347   2.616   3.162   4.576
10244PP      PP20348  13.286   1.776  10.601
10245PP      PP20349  15.696  12.555   4.600
10246PP      PP20350  10.548   7.615  10.798
10247PP      PP20351   0.932   2.346  12.254
10248PP      PP20352  14.259  14.497   0.334
10249PP      PP20353   5.066  12.797  11.874
10250PP      PP20354  11.745   3.046   8.722
10251PP      PP20355   4.957  15.237   1.322
10252PP      PP20356   2.327   7.552  12.880
10253PP      PP20357  14.497  12.356  11.649
10254PP      PP20358  13.990   3.957  10.425
10255PP      PP20359  13.904   4.334  13.234
10256PP      PP20360  10.744   2.953  13.089
10257PP      PP20361   4.467   7.221   2.399
10258PP      PP20362  13.976   6.612   2.458
10259PP      PP20363  13.089   7.359   1.120
10260PP      PP20364   5.263   5.170  13.542
10261PP      PP20365   7.317   6.691   9.875
10262PP      PP20366   3.454   0.580  10.719
10263PP      PP20367   8.252  14.603   0.672
10264PP      PP20368   5.357   3.747  12.458
10265PP      PP20369  14.429   3.739  10.669
10266PP      PP20370   0.716  10.358   0.908
10267PP      PP20371   1.413  11.741   1.677
10268PP      PP20372   1.950   4.396  13.121
10269PP      PP20373  11.512   4.527   3.946
10270PP      PP20374   8.639   6.937   8.429
10271PP      PP20375   1.057  14.589   3.249
10272PP      PP20376   8.941  13.907   0.574
10273PP      PP20377  13.985  11.532   1.882
10274PP      PP20378  14.382   9.565   8.792
10275PP      PP20379  14.107  15.179   4.145
10276PP      PP20380   8.841  12.332   3.769
10277PP      PP20381   2.715   8.955   1.353
10278PP      PP20382   2.211   0.220  11.601
10279PP      PP20383   2.641  11.920   3.685
10280PP      PP20384   2.630  10.236  11.493
10281PP      PP20385   5.883   6.545   3.004
10282PP      PP20386   1.894   9.533   0.987
10283PP      PP20387  15.335   4.486   3.236
10284PP      PP20388  12.865   7.684  12.455
10285PP      PP20389   4.296   4.483   3.085
10286PP      PP20390   5.207   6.117   3.466
10287PP      PP20391   3.658  11.088   8.133
10288PP      PP20392   2.432  11.086  12.690
10289PP      PP20393  11.927   2.345  10.533
10290PP      PP20394   2.623   0.511   2.517
10291PP      PP20395   6.675  14.426  13.117
10292PP      PP20396   5.205   7.468   0.824
10293PP      PP20397  15.557   4.677   2.731
10294PP      PP20398   1.161   0.013   3.454
10295PP      PP20399   1.551  12.574   3.432
10296PP      PP20400   7.309  10.778   0.956
10297PP      PP20401  13.743   7.159  12.269
10298PP      PP20402   6.146   6.119   3.218
10299PP      PP20403   4.578   5.329   3.331
10300PP      PP20404  14.978   7.353  13.240
10301PP      PP20405  12.514   2.279   2.708
10302PP      PP20406   2.010  13.515  11.100
10303PP      PP20407   9.165  12.742  11.648
10304PP      PP20408   7.279   6.175   9.979
10305PP      PP20409  10.448   5.218   2.127
10306PP      PP20410   9.741   1.618   0.232
10307PP      PP20411  11.210   7.050   0.326
10308PP      PP20412   1.100   7.840   9.141
10309PP      PP20413  13.085   5.737   2.477
10310PP      PP20414  13.384  13.680  12.805
10311PP      PP20415   1.034   7.435   9.824
10312PP      PP20416  13.380  13.075   2.472
10313PP      PP20417  13.001  13.706   9.565
10314PP      PP20418  13.087  11.233  11.814
10315PP      PP20419  13.544  15.136   4.211
10316PP      PP20420  10.136   6.759   2.597
10317PP      PP20421   9.129   8.267   8.969
10318PP      PP20422  15.636   6.467  11.679
10319PP      PP20423   6.607   5.457   4.300
10320PP      PP20424   4.641   0.543   5.132
10321PP      PP20425  11.830  10.001   1.690
10322PP      PP20426   6.007   5.885   8.854
10323PP      PP20427   6.084  10.692   3.779
10324PP      PP20428   1.788  13.943   1.098
10325PP      PP20429  15.074  10.229  10.151
10326PP      PP20430  12.543  10.028  12.124
10327PP      PP20431  13.867  10.592  13.230
10328PP      PP20432   3.516  14.392  10.877
10329PP      PP20433   8.928   2.651  11.353
10330PP      PP20434   1.830  10.352   9.842
10331PP      PP20435   2.429  11.645   8.728
10332PP      PP20436   5.494  13.004   1.053
10333PP      PP20437  14.791   3.124   0.277
10334PP      PP20438   5.974   5.409   0.404
10335PP      PP20439   6.886   5.451   3.842
10336PP      PP20440   8.772   0.403   5.158
10337PP      PP20441   9.881   0.457   9.535
10338PP      PP20442  11.711  15.291   2.245
10339PP      PP20443  10.996   0.361  12.333
10340PP      PP20444   2.681   6.352  10.614
10341PP      PP20445  14.867  11.814  13.260
10342PP      PP20446  15.409   7.654  12.943
10343PP      PP20447   3.168   9.107   0.664
10344PP      PP20448  13.168  11.990   1.032
10345PP      PP20449  13.050   3.383  12.138
10346PP      PP20450   0.918  12.100   3.150
10347PP      PP20451   4.332   6.560   0.516
10348PP      PP20452   5.132   2.856  12.392
10349PP      PP20453   1.544  15.291  11.258
10350PP      PP20454  10.402   3.965   1.429
10351PP      PP20455   5.596   2.529   0.760
10352PP      PP20456   0.348   3.586  13.172
10353PP      PP20457   3.813   0.146   0.560
10354PP      PP20458   5.625  12.298   0.584
10355PP      PP20459   3.280   3.834  11.467
10356PP      PP20460   7.845   9.264   9.428
10357PP      PP20461  11.383  13.180   9.642
10358PP      PP20462   1.092  13.227   2.622
10359PP      PP20463  14.036  12.568   9.202
10360PP      PP20464   5.150  11.326   2.288
10361PP      PP20465   0.103   9.900   3.028
10362PP      PP20466   5.173  12.738  13.332
10363PP      PP20467  14.927  13.310   0.688
10364PP      PP20468  14.832   8.747   9.374
10365PP      PP20469   2.887   2.495  10.349
10366PP      PP20470   0.772   3.305  12.919
10367PP      PP20471  12.123  14.170  11.946
10368PP      PP20472   7.828  10.505   9.757
10369PP      PP20473   4.132   9.186  12.606
10370PP      PP20474  13.759  12.277   8.855
10371PP      PP20475   7.108   5.772   3.174
10372PP      PP20476   4.452  11.308  12.307
10373PP      PP20477  10.946  15.039   1.470
10374PP      PP20478  11.934  13.563   4.073
10375PP      PP20479  11.711   1.334  10.781
10376PP      PP20480   9.841   1.412   9.934
10377PP      PP20481   2.879   3.082  12.611
10378PP      PP20482  11.508   8.205   9.262
10379PP      PP20483   0.503   9.537   8.383
10380PP      PP20484   2.128   0.302   4.044
10381PP      PP20485  15.723  13.673  13.010
10382PP      PP20486  15.292  12.892   2.578
10383PP      PP20487  15.208   2.916   2.778
10384PP      PP20488   9.717   0.208  10.474
10385PP      PP20489   2.218   4.380  10.795
10386PP      PP20490  14.560  12.293   0.961
10387PP      PP20491   5.960  13.884  13.255
10388PP      PP20492   3.118   4.376   2.142
10389PP      PP20493   0.507   4.151   9.475
10390PP      PP20494   0.908   7.651  11.304
10391PP      PP20495   4.276   7.659  11.775
10392PP      PP20496   6.898   2.035   2.151
10393PP      PP20497   2.662  14.362   1.125
10394PP      PP20498   5.426  14.650  11.501
10395PP      PP20499  12.074  12.063  13.512
10396PP      PP20500  10.623   9.132   1.777
10397PP      PP20501  12.964   9.047   2.335
10398PP      PP20502   4.595   5.733   2.978
10399PP      PP20503  12.346  15.256   4.206
10400PP      PP20504  15.353   2.503   1.382
10401PP      PP20505   1.340   3.826   1.590
10402PP      PP20506  14.889   7.737  12.914
10403PP      PP20507   5.866   1.995   2.974
10404PP      PP20508   2.485   6.824  10.513
10405PP      PP20509   0.836  10.913  11.682
10406PP      PP20510   8.017   2.161   0.277
10407PP      PP20511   5.447   6.546   3.316
10408PP      PP20512   1.467  15.287   4.111
10409PP      PP20513   5.641   0.768  13.062
10410PP      PP20514  10.168   3.805   9.939
10411PP      PP20515   7.308  12.586  11.111
10412PP      PP20516   7.264   2.252   0.016
10413PP      PP20517   4.816   1.035   1.333
10414PP      PP20518   6.117   2.535   1.274
10415PP      PP20519   1.175  11.586   4.014
10416PP      PP20520   0.313   9.884   0.314
10417PP      PP20521   3.864  14.040  12.774
10418PP      PP20522  14.735   9.343   0.139
10419PP      PP20523   2.279   1.940   3.265
10420PP      PP20524  14.616  11.340   3.172
10421PP      PP20525   6.874   0.357  12.498
10422PP      PP20526   3.538   6.300  12.964
10423PP      PP20527   6.762  11.437   0.835
10424PP      PP20528  12.740  12.267   2.453
10425PP      PP20529  15.810   8.687  13.385
10426PP      PP20530  13.243   5.161  11.678
10427PP      PP20531  11.256   5.030  13.462
10428PP      PP20532  10.419   0.782   4.094
10429PP      PP20533   5.204  14.016   2.191
10430PP      PP20534   8.224   4.929  11.420
10431PP      PP20535   6.286  10.847  10.108
10432PP      PP20536   0.522   7.701  12.409
10433PP      PP20537  14.823   2.756  13.507
10434PP      PP20538  14.994  14.891  10.818
10435PP      PP20539   3.815  13.917   9.040
10436PP      PP20540  14.234   6.563   3.456
10437PP      PP20541   0.239   9.599   2.083
10438PP      PP20542  15.183  15.156  10.415
10439PP      PP20543   5.364  12.053  11.339
10440PP      PP20544   6.074   0.138  12.367
10441PP      PP20545   2.359   5.874  10.084
10442PP      PP20546   9.982   0.075   1.222
10443PP      PP20547  10.966   2.157  10.248
10444PP      PP20548   8.274   8.730   3.205
10445PP      PP20549   3.538   2.104   2.990
10446PP      PP20550   2.466   8.077   1.827
10447PP      PP20551   7.073  11.752   0.538
10448PP      PP20552  10.605   9.327   0.042
10449PP      PP20553   6.427  12.821  10.472
10450PP      PP20554  13.387   8.328   1.686
10451PP      PP20555   8.290   6.446  10.466
10452PP      PP20556   1.564   5.256  13.445
10453PP      PP20557  14.697  11.113   4.100
10454PP      PP20558  11.823  14.789  10.080
10455PP      PP20559   1.384  15.397   9.699
10456PP      PP20560   3.319  15.465   1.849
10457PP      PP20561   0.974  15.746  13.450
10458PP      PP20562   8.677  11.918   3.461
10459PP      PP20563  13.027   9.866   2.837
10460PP      PP20564   3.308   7.007  13.250
10461PP      PP20565   9.220   7.556   9.787
10462PP      PP20566   0.371  11.654   8.867
10463PP      PP20567   8.347   8.783   0.070
10464PP      PP20568   3.662   5.376   2.134
10465PP      PP20569   3.441   3.315   4.532
10466PP      PP20570  14.570  15.439   1.205
10467PP      PP20571   7.453  12.170  10.444
10468PP      PP20572  10.907   1.974  13.013
10469PP      PP20573   9.266  12.299   4.164
10470PP      PP20574   6.992   8.820  12.112
10471PP      PP20575  12.656  13.341   3.167
10472PP      PP20576  11.461  11.668   9.545
10473PP      PP20577  15.500  14.700   3.685
10474PP      PP20578   0.085   7.288   8.051
10475PP      PP20579   5.733   3.564  12.061
10476PP      PP20580   1.256  12.240  12.624
10477PP      PP20581   8.354   1.495  11.579
10478PP      PP20582  13.010  13.235   0.295
10479PP      PP20583   7.920   1.368   3.800
10480PP      PP20584   9.091   0.404  10.776
10481PP      PP20585   0.159   5.083   3.442
10482PP      PP20586   4.073   2.152   3.659
10483PP      PP20587   6.906   9.169   4.077
10484PP      PP20588   2.403  12.548  13.248
10485PP      PP20589   3.782   9.731   1.137
10486PP      PP20590   2.029   6.981   2.609
10487PP      PP20591   4.524  13.290  11.331
10488PP      PP20592   0.794  15.478   1.209
10489PP      PP20593   6.073  12.375  11.489
10490PP      PP20594  14.227  14.888  10.329
10491PP      PP20595  14.630   8.481   2.713
10492PP      PP20596   1.449   6.907   8.833
10493PP      PP20597   7.198   6.831   2.532
10494PP      PP20598   6.671   3.603  11.107
10495PP      PP20599   6.344  14.475   2.691
10496PP      PP20600   5.653  12.904  11.976
10497PP      PP20601  11.947   7.987   4.022
10498PP      PP20602   3.945   2.408   0.546
10499PP      PP20603  11.264   1.190  12.847
10500PP      PP20604   9.300  12.837   4.144
10501PP      PP20605  13.404  13.368   9.533
10502PP      PP20606   1.715   3.949  12.920
10503PP      PP20607   2.097   8.969   0.235
10504PP      PP20608   5.866   3.035   9.687
10505PP      PP20609   4.378  11.747   3.075
10506PP      PP20610   0.359  15.297   9.442
10507PP      PP20611   3.061  11.958  10.785
10508PP      PP20612   3.416  13.709   1.587
10509PP      PP20613  11.766   1.917  13.285
10510PP      PP20614  14.288  15.621   3.828
10511PP      PP20615  14.991   5.020  10.053
10512PP      PP20616  13.930   9.641   3.748
10513PP      PP20617   0.129  13.490   4.233
10514PP      PP20618  12.610   1.818   0.205
10515PP      PP20619   7.281  10.469   4.486
10516PP      PP20620   9.943   8.864  12.433
10517PP      PP20621   7.653  13.488   4.263
10518PP      PP20622   7.858   4.628   1.785
10519PP      PP20623  14.409   5.445   0.405
10520PP      PP20624   0.568  10.112   3.007
10521PP      PP20625  15.728   2.374  12.030
10522PP      PP20626  13.403  12.805   0.445
10523PP      PP20627   3.722   6.895  10.859
10524PP      PP20628   7.890  13.922   4.089
10525PP      PP20629   2.927   5.239  13.023
10526PP      PP20630   9.909   3.580  13.201
10527PP      PP20631  12.130   1.733   0.019
10528PP      PP20632  15.457  15.771   9.678
10529PP      PP20633  12.649  15.610   3.992
10530PP      PP20634   4.801  10.121  11.159
10531PP      PP20635   9.241   5.725   1.735
10532PP      PP20636   7.849  12.463  11.852
10533PP      PP20637  15.298  14.149   4.939
10534PP      PP20638   3.783   4.444  11.858
10535PP      PP20639  10.751  10.483   9.037
10536PP      PP20640  15.517   5.243  13.599
10537PP      PP20641   8.342   6.955   3.243
10538PP      PP20642   6.142  12.715   2.031
10539PP      PP20643   5.030   3.871   2.730
10540PP      PP20644  13.612   3.192   9.184
10541PP      PP20645   8.510   3.234   0.359
10542PP      PP20646   2.359  10.693  12.356
10543PP      PP20647  11.422  11.600   4.154
10544PP      PP20648   1.325   0.815   2.845
10545PP      PP20649  11.687   4.366   2.768
10546PP      PP20650  10.629  10.403  12.518
10547PP      PP20651  13.503   2.966   3.096
10548PP      PP20652  15.191   3.010   1.300
10549PP      PP20653   0.969   9.128  11.664
10550PP      PP20654  15.264  13.564   2.399
10551PP      PP20655   0.205  10.330   0.765
10552PP      PP20656   7.870  12.493   3.254
10553PP      PP20657   8.541  13.700   5.270
10554PP      PP20658  10.399   0.206  11.103
10555PP      PP20659   6.723   4.191  13.551
10556PP      PP20660  12.978   5.235   2.595
10557PP      PP20661  14.579   1.647   0.279
10558PP      PP20662  13.609  11.189  11.860
10559PP      PP20663   9.528  11.749  13.193
10560PP      PP20664   0.711   0.972   9.508
10561PP      PP20665  15.783   2.225  13.107
10562PP      PP20666   4.491   2.191   2.288
10563PP      PP20667  15.689   0.100  10.433
10564PP      PP20668  15.395   5.985  10.049
10565PP      PP20669   3.596   6.923   3.625
10566PP      PP20670  10.164   2.381   4.264
10567PP      PP20671   9.945  10.255   1.354
10568PP      PP20672   0.102  14.409   9.237
10569PP      PP20673   4.411   8.798   0.823
10570PP      PP20674   9.044   5.493  10.633
10571PP      PP20675  12.018   6.407  11.319
10572PP      PP20676  11.868  12.312  12.436
10573PP      PP20677   9.381   6.532  12.951
10574PP      PP20678   6.618  14.876  10.737
10575PP      PP20679   6.576   2.624  10.056
10576PP      PP20680   5.775   0.753  10.063
10577PP      PP20681   9.016   9.467  10.038
10578PP      PP20682   2.632  13.858   0.894
10579PP      PP20683   3.793   1.262   2.768
10580PP      PP20684   9.363  11.654   9.203
10581PP      PP20685   0.351  14.081   9.533
10582PP      PP20686   7.703  12.224  11.255
10583PP      PP20687  12.529   0.883  13.173
10584PP      PP20688   9.388   8.156   0.946
10585PP      PP20689  13.832  13.495  12.622
10586PP      PP20690  13.569  11.009   0.585
10587PP      PP20691  15.100   5.154   9.041
10588PP      PP20692  15.811  12.488   2.680
10589PP      PP20693   4.475   1.922  10.574
10590PP      PP20694   8.199   6.946  12.693
10591PP      PP20695   0.329   1.563   4.299
10592PP      PP20696  10.404   2.768   3.255
10593PP      PP20697   7.692  14.099   2.037
10594PP      PP20698  11.019   8.141   2.977
10595PP      PP20699  14.861  13.810  10.832
10596PP      PP20700  14.887   4.377   4.027
10597PP      PP20701  11.913   9.494   2.897
10598PP      PP20702   4.608   9.361  12.699
10599PP      PP20703  10.438   2.890  10.513
10600PP      PP20704  14.062   6.626   8.205
10601PP      PP20705   6.805  12.518   2.958
10602PP      PP20706   6.424   1.947   3.657
10603PP      PP20707   1.879   3.974   9.519
10604PP      PP20708  14.587  10.661  13.287
10605PP      PP20709   1.977   4.952  12.221
10606PP      PP20710  10.215   6.996   3.968
10607PP      PP20711   6.399   0.426  10.072
10608PP      PP20712  14.866   8.805   7.848
10609PP      PP20713  14.027   5.904  11.720
10610PP      PP20714   8.493  15.051   2.774
10611PP      PP20715  12.679   5.578   3.249
10612PP      PP20716  13.014   7.491   9.953
10613PP      PP20717  15.248   8.023   3.350
10614PP      PP20718   9.617   8.092   2.443
10615PP      PP20719   0.060  12.400   1.353
10616PP      PP20720  14.261  15.537   4.834
10617PP      PP20721   2.820   4.201   3.504
10618PP      PP20722   0.218  12.015   2.650
10619PP      PP20723   4.988   2.160  11.188
10620PP      PP20724   9.896  13.664   0.151
10621PP      PP20725   8.100   7.825   4.248
10622PP      PP20726  11.563   9.099   3.062
10623PP      PP20727   6.010   5.108   1.859
10624PP      PP20728  11.409   0.089  11.934
10625PP      PP20729  15.097  10.382   4.177
10626PP      PP20730   5.325   9.224   7.776
10627PP      PP20731  13.837  10.180   0.984
10628PP      PP20732   3.693   7.448   1.751
10629PP      PP20733  15.396   3.367   3.035
10630PP      PP20734  11.272   0.532   3.548
10631PP      PP20735  11.055  12.676  12.960
10632PP      PP20736   0.837  13.453   4.342
10633PP      PP20737   4.325  13.224  11.844
10634PP      PP20738   3.773   0.087   2.193
10635PP      PP20739   4.017  15.150   3.236
10636PP      PP20740   7.634  10.995   9.878
10637PP      PP20741   6.517   9.452  11.530
10638PP      PP20742   5.048   5.223   3.128
10639PP      PP20743   5.590  10.957   3.895
10640PP      PP20744  13.556  13.286  10.159
10641PP      PP20745   3.397   8.440   3.629
10642PP      PP20746   8.690   0.401   1.418
10643PP      PP20747  12.981  11.332   3.532
10644PP      PP20748  10.266   5.031   1.329
10645PP      PP20749  12.091   4.785  11.728
10646PP      PP20750  14.486  12.325  12.635
10647PP      PP20751   3.967  15.362   4.708
10648PP      PP20752  11.241   0.314   4.071
10649PP      PP20753  14.995   1.922   9.096
10650PP      PP20754  13.299  11.693  10.603
10651PP      PP20755   1.143   3.765  10.749
10652PP      PP20756  14.062   3.396  10.651
10653PP      PP20757  13.044  13.543   1.360
10654PP      PP20758  13.323   7.359   3.684
10655PP      PP20759   5.186   2.209  11.671
10656PP      PP20760   7.341   2.925   9.339
10657PP      PP20761   4.233   0.108   2.644
10658PP      PP20762   5.650   8.785  11.743
10659PP      PP20763   3.706  14.031   1.885
10660PP      PP20764   1.152   3.005   2.388
10661PP      PP20765   6.234  14.682   3.573
10662PP      PP20766   5.115   6.307   1.880
10663PP      PP20767   6.624  14.695   4.409
10664PP      PP20768   1.861  14.108   3.140
10665PP      PP20769   7.952   9.583   0.485
10666PP      PP20770  10.193  15.371  11.934
10667PP      PP20771  13.825   3.321   0.636
10668PP      PP20772   2.817  11.627   9.096
10669PP      PP20773  14.023  10.195  10.935
10670PP      PP20774  13.710   3.878   1.545
10671PP      PP20775   3.651   9.950  12.661
10672PP      PP20776  13.427   9.554   9.753
10673PP      PP20777   3.648   6.052  12.500
10674PP      PP20778   6.926  14.452   1.566
10675PP      PP20779   6.793   6.788   9.927
10676PP      PP20780   9.681   1.452  12.218
10677PP      PP20781   6.273   0.450   1.846
10678PP      PP20782  11.510  15.118   1.732
10679PP      PP20783   3.676   4.041   4.445
10680PP      PP20784   1.985  14.726   2.530
10681PP      PP20785  11.348   9.589  12.985
10682PP      PP20786  14.954  11.897   2.470
10683PP      PP20787   9.265  14.216   4.200
10684PP      PP20788   2.576  12.621  11.257
10685PP      PP20789  13.369  13.732   1.793
10686PP      PP20790   2.743   5.194   0.765
10687PP      PP20791   9.601  15.077  13.071
10688PP      PP20792  10.274   8.563   1.150
10689PP      PP20793   1.953  12.051   0.722
10690PP      PP20794   3.189   5.264   1.760
10691PP      PP20795   5.610   4.753   8.961
10692PP      PP20796  11.850   8.813   2.221
10693PP      PP20797   3.465  15.741  10.639
10694PP      PP20798   3.850   2.525  10.289
10695PP      PP20799   1.148  13.084  13.269
10696PP      PP20800   6.056   8.481   3.462
10697PP      PP20801  10.887  14.177  13.140
10698PP      PP20802   9.042  15.579   3.764
10699PP      PP20803  10.805  15.425   0.401
10700PP      PP20804   6.722  12.097   9.248
10701PP      PP20805  11.194   6.288   9.585
10702PP      PP20806  14.451  10.283  10.615
10703PP      PP20807   0.309   5.412   1.145
10704PP      PP20808  12.210   6.507  10.815
10705PP      PP20809   5.207   2.571  12.834
10706PP      PP20810   8.720   3.809   3.101
10707PP      PP20811  14.462  12.594   2.497
10708PP      PP20812   5.205   6.879  12.222
10709PP      PP20813   6.509   0.884   3.610
10710PP      PP20814   8.266   3.547   3.029
10711PP      PP20815  11.588   6.492  12.479
10712PP      PP20816   2.849  11.361   1.819
10713PP      PP20817   8.991   1.865   3.857
10714PP      PP20818  13.753   2.074   9.877
10715PP      PP20819   6.585  12.410  11.126
10716PP      PP20820  15.037   1.806   0.088
10717PP      PP20821   9.976  12.562  12.989
10718PP      PP20822   6.563   8.447   3.735
10719PP      PP20823   1.158   4.740   9.971
10720PP      PP20824   7.925   1.891   2.365
10721PP      PP20825  11.770  15.599   3.305
10722PP      PP20826   5.066   5.157   4.101
10723PP      PP20827   9.900   2.995   3.186
10724PP      PP20828   3.749   6.538   8.479
10725PP      PP20829  12.351   2.314   1.595
10726PP      PP20830  13.376  11.928   9.017
10727PP      PP20831   4.991   4.129  10.653
10728PP      PP20832  12.092  12.887  10.711
10729PP      PP20833   7.618  13.979   9.690
10730PP      PP20834   0.524   2.922   2.101
10731PP      PP20835   3.424  11.098  10.643
10732PP      PP20836  13.124   6.639   8.461
10733PP      PP20837   2.353   6.292   9.710
10734PP      PP20838   0.824   7.380   9.053
10735PP      PP20839  11.436  12.192   9.769
10736PP      PP20840   6.069  10.365  11.713
10737PP      PP20841   2.991  11.431  13.331
10738PP      PP20842   0.636  13.627  12.364
10739PP      PP20843  13.472   6.959   0.250
10740PP      PP20844   9.714   0.922   1.772
10741PP      PP20845  11.738   9.371  12.716
10742PP      PP20846  14.887   0.384  10.822
10743PP      PP20847   8.849   8.254  12.975
10744PP      PP20848   1.704   1.838  10.770
10745PP      PP20849   1.054   0.161   2.615
10746PP      PP20850  15.582  12.499   0.597
10747PP      PP20851   9.463   7.125   1.937
10748PP      PP20852   3.129   4.954   3.402
10749PP      PP20853   0.606  15.676  11.864
10750PP      PP20854   1.946   9.177  10.683
10751PP      PP20855   7.689   0.140  11.401
10752PP      PP20856  11.106   5.629  13.441
10753PP      PP20857   7.913   8.398   1.005
10754PP      PP20858   8.292  12.701   0.104
10755PP      PP20859   4.038  12.684  12.219
10756PP      PP20860  14.631   3.569  11.349
10757PP      PP20861   8.424   6.616   9.410
10758PP      PP20862   9.623   0.294   5.255
10759PP      PP20863   3.840   8.849   0.147
10760PP      PP20864   1.970   0.579   3.602
10761PP      PP20865   4.595   4.076   2.450
10762PP      PP20866   1.673   7.954   0.216
10763PP      PP20867   2.254   3.576  12.873
10764PP      PP20868   4.194  13.415   0.164
10765PP      PP20869   4.833  11.948   2.967
10766PP      PP20870   9.140  15.037  10.284
10767PP      PP20871  14.196   2.735   1.129
10768PP      PP20872   5.736   4.585   2.577
10769PP      PP20873   9.353   6.599   3.199
10770PP      PP20874   2.148  14.020  11.861
10771PP      PP20875   0.055   2.886   0.735
10772PP      PP20876   6.675   1.418   2.857
10773PP      PP20877   4.917   1.739   9.491
10774PP      PP20878   6.233   6.075  12.370
10775PP      PP20879   3.066   1.284  12.521
10776PP      PP20880  15.443   6.706   4.255
10777PP      PP20881   7.015   9.739   9.392
10778PP      PP20882   5.913   2.334  12.240
10779PP      PP20883   5.406   2.694   1.691
10780PP      PP20884  10.601   4.181  10.692
10781PP      PP20885   0.239  15.453   0.839
10782PP      PP20886  13.336  10.469   8.995
10783PP      PP20887   6.083  15.545   1.993
10784PP      PP20888   4.795  15.549   0.953
10785PP      PP20889   8.529   7.774   3.965
10786PP      PP20890   7.413   3.585  10.519
10787PP      PP20891   1.698   8.611   1.262
10788PP      PP20892   9.956  15.738  12.208
10789PP      PP20893  12.408  11.148   3.589
10790PP      PP20894   7.614  14.230   4.840
10791PP      PP20895   3.139   2.364   3.185
10792PP      PP20896   2.710  11.550   1.008
10793PP      PP20897  11.781   0.685   9.868
10794PP      PP20898  14.314  13.158   3.958
10795PP      PP20899   8.825   9.716  11.778
10796PP      PP20900   3.541  10.551   1.781
10797PP      PP20901   6.259  10.588  12.152
10798PP      PP20902   3.868   0.599  12.688
10799PP      PP20903  15.622  12.055  10.949
10800PP      PP20904  13.128   5.154  12.740
10801PP      PP20905   1.616   8.370   4.426
10802PP      PP20906   2.343  14.134   3.901
10803PP      PP20907   8.373   4.124  11.479
10804PP      PP20908  11.733   3.043  11.845
10805PP      PP20909  14.743   6.147   1.498
10806PP      PP20910   7.187   6.409   9.469
10807PP      PP20911   8.924   2.494   3.285
10808PP      PP20912   5.961   1.648   9.685
10809PP      PP20913   7.959  14.759   2.885
10810PP      PP20914   3.461  11.095   0.318
10811PP      PP20915  15.618   2.693  11.638
10812PP      PP20916   5.038   8.130   0.284
10813PP      PP20917   3.552  14.347   2.659
10814PP      PP20918   9.028  10.226   2.613
10815PP      PP20919  13.515   5.261  13.516
10816PP      PP20920  14.954   2.999  10.918
10817PP      PP20921   5.087   0.006   2.175
10818PP      PP20922  11.850  12.994   1.618
10819PP      PP20923  11.053   7.365  11.674
10820PP      PP20924  11.741   0.543   4.482
10821PP      PP20925   7.725   8.498  11.158
10822PP      PP20926   5.160  12.916   9.362
10823PP      PP20927   8.159   6.989  13.209
10824PP      PP20928  14.848  14.762  12.909
10825PP      PP20929   5.656   4.755  10.698
10826PP      PP20930   2.348   0.975  12.089
10827PP      PP20931  14.254  13.886  12.206
10828PP      PP20932   8.857   0.774   4.793
10829PP      PP20933   4.239  14.659   9.627
10830PP      PP20934   8.535  12.165  12.856
10831PP      PP20935  11.383  15.026  10.378
10832PP      PP20936  11.955   8.901   2.754
10833PP      PP20937   9.233  10.714  11.757
10834PP      PP20938   8.479   2.277  12.258
10835PP      PP20939  10.131   9.943  10.893
10836PP      PP20940   4.082   6.016   9.089
10837PP      PP20941  15.016   4.035  12.669
10838PP      PP20942   4.884   2.618   4.944
10839PP      PP20943   4.419  15.086   9.859
10840PP      PP20944   2.792   3.648  11.467
10841PP      PP20945   8.726   6.096  10.485
10842PP      PP20946   9.113  15.065  10.882
10843PP      PP20947   5.847   2.570   9.483
10844PP      PP20948   4.477   2.532   9.710
10845PP      PP20949   1.128   4.906  12.663
10846PP      PP20950  13.811   8.058   0.106
10847PP      PP20951  15.536  12.940   4.965
10848PP      PP20952   4.073   8.603   3.684
10849PP      PP20953   8.929   4.178   0.412
10850PP      PP20954  10.067   0.594  10.481
10851PP      PP20955   0.727  11.918   9.281
10852PP      PP20956   5.321   5.072   9.478
10853PP      PP20957   9.516   0.668  12.732
10854PP      PP20958   0.731   5.238  12.272
10855PP      PP20959  10.700  14.990   4.431
10856PP      PP20960  14.960   3.162   0.785
10857PP      PP20961  13.644   3.303   8.623
10858PP      PP20962   1.703  13.561  12.607
10859PP      PP20963   6.634   6.354  12.523
10860PP      PP20964   1.069  15.097   3.115
10861PP      PP20965   5.266   0.941  10.061
10862PP      PP20966   1.947  13.576   0.763
10863PP      PP20967  14.807   2.591   1.339
10864PP      PP20968  15.494   3.102   1.730
10865PP      PP20969  14.973  12.663   9.670
10866PP      PP20970  12.589   4.866  10.322
10867PP      PP20971  15.209   6.156  11.746
10868PP      PP20972   9.369   1.976  12.484
10869PP      PP20973   9.894  12.266  11.826
10870PP      PP20974   5.316  13.523  12.749
10871PP      PP20975  14.382  10.835   0.766
10872PP      PP20976  12.503  12.850  11.809
10873PP      PP20977  11.278  13.877   4.652
10874PP      PP20978   5.348   7.450  10.262
10875PP      PP20979  10.913  10.254   3.198
10876PP      PP20980   5.958   6.536   8.811
10877PP      PP20981   7.145  14.213   3.215
10878PP      PP20982  15.724   5.961  11.872
10879PP      PP20983  15.725  11.204   4.379
10880PP      PP20984   8.741   6.812  13.476
10881PP      PP20985  15.070   5.237   1.872
10882PP      PP20986   3.655   4.024   9.365
10883PP      PP20987   8.836  15.414   0.811
10884PP      PP20988   3.868   7.121   0.551
10885PP      PP20989   4.752  10.568  12.337
10886PP      PP20990   4.905   6.526  10.468
10887PP      PP20991  15.339   8.710  13.177
10888PP      PP20992  15.220  13.438  12.219
10889PP      PP20993   4.655   6.323  11.547
10890PP      PP20994  11.962   6.397  11.884
10891PP      PP20995  11.883  11.925  10.831
10892PP      PP20996   6.974  11.621   3.701
10893PP      PP20997   1.283  13.115  11.328
10894PP      PP20998  12.183   5.528   2.381
10895PP      PP20999  12.116   5.053  10.162
10896PP      PP21000   6.438  14.733   0.651
10897PP      PP21001   2.721   7.707  11.470
10898PP      PP21002  12.463   8.677   8.806
10899PP      PP21003  15.402  10.488  13.538
10900PP      PP21004   2.481   6.088   9.233
10901PP      PP21005   5.969   1.013   1.563
10902PP      PP21006   4.763  11.441   3.262
10903PP      PP21007   9.420   6.080   3.198
10904PP      PP21008  10.566   5.573  12.171
10905PP      PP21009  11.263  11.524   3.633
10906PP      PP21010   7.027  14.990   4.222
10907PP      PP21011   2.342  11.685  11.866
10908PP      PP21012   3.235  13.017  11.909
10909PP      PP21013   3.350   0.542  12.264
10910PP      PP21014  10.467   7.289   8.180
10911PP      PP21015   2.000   0.643   0.758
10912PP      PP21016   1.181   0.266   1.674
10913PP      PP21017   7.843   3.799   9.328
10914PP      PP21018   2.743   4.398   1.024
10915PP      PP21019   9.803   8.519   0.871
10916PP      PP21020  13.063   2.361  11.835
10917PP      PP21021   3.405  14.645   0.692
10918PP      PP21022   4.386  15.663   9.261
10919PP      PP21023   3.908   1.475   0.267
10920PP      PP21024  10.805  13.718   4.563
10921PP      PP21025  10.731  14.030   3.294
10922PP      PP21026   2.068   6.411  12.928
10923PP      PP21027  13.088   2.486   0.368
10924PP      PP21028   3.042   5.385   3.736
10925PP      PP21029  12.100   3.200   0.042
10926PP      PP21030  15.401   6.111   0.905
10927PP      PP21031  15.135   8.653   1.872
10928PP      PP21032  10.857   9.804  12.271
10929PP      PP21033   4.297   0.793   3.341
10930PP      PP21034  10.529  14.606   2.245
10931PP      PP21035   8.855   0.029   4.172
10932PP      PP21036   9.679   2.736  12.172
10933PP      PP21037   3.624   5.675   3.545
10934PP      PP21038   9.839  12.746  13.469
10935PP      PP21039   8.595   7.271  13.304
10936PP      PP21040   1.585   2.590   9.448
10937PP      PP21041   7.398   7.468   1.823
10938PP      PP21042   0.064   2.859   4.501
10939PP      PP21043   4.916   0.179  12.852
10940PP      PP21044   5.330  14.108   9.346
10941PP      PP21045   4.758   9.255  10.073
10942PP      PP21046   6.376   7.273   0.993
10943PP      PP21047  12.567   4.236   2.131
10944PP      PP21048   9.663  13.230  13.526
10945PP      PP21049  15.365  12.298   3.870
10946PP      PP21050  12.418  11.727   0.904
10947PP      PP21051   3.612  13.642  13.013
10948PP      PP21052  10.062   5.265   0.036
10949PP      PP21053  15.650  10.269   9.160
10950PP      PP21054   1.685  14.323   1.947
10951PP      PP21055  12.394  12.598   9.918
10952PP      PP21056  10.370  14.052  13.124
10953PP      PP21057  12.571  11.025   8.926
10954PP      PP21058   5.829   9.370   3.480
10955PP      PP21059  15.198   2.182   0.512
10956PP      PP21060   0.696   9.084  12.127
10957PP      PP21061   7.579   5.906   8.657
10958PP      PP21062   3.406  15.692   8.864
10959PP      PP21063   2.474   2.068  12.333
10960PP      PP21064  15.365   1.706   2.610
10961PP      PP21065   0.994  10.139   9.993
10962PP      PP21066   2.246  11.959   9.696
10963PP      PP21067   9.187   3.178   1.240
10964PP      PP21068   7.094   3.921   2.588
10965PP      PP21069   3.162   6.092  12.676
10966PP      PP21070   2.257   2.405  12.710
10967PP      PP21071   2.101  11.047   1.486
10968PP      PP21072   9.924   3.394   9.726
10969PP      PP21073   1.782  13.800   4.537
10970PP      PP21074   8.477   4.617  10.585
10971PP      PP21075   1.265  14.575   9.269
10972PP      PP21076   0.561  14.470  13.275
10973PP      PP21077   4.090   8.621  11.122
10974PP      PP21078   0.791  13.922  10.608
10975PP      PP21079   0.754   3.788   3.261
10976PP      PP21080  11.731   4.102   1.971
10977PP      PP21081  10.499   1.748  12.764
10978PP      PP21082  14.817   7.711   2.251
10979PP      PP21083  14.134   0.581   0.534
10980PP      PP21084   8.102   5.018   9.624
10981PP      PP21085   0.902   6.263  11.354
10982PP      PP21086   4.833   5.247  10.489
10983PP      PP21087   8.452   3.937   9.074
10984PP      PP21088   6.810   4.158   1.245
10985PP      PP21089  14.111  15.228   1.965
10986PP      PP21090   6.718  14.618  11.844
10987PP      PP21091  12.304   6.794  11.765
10988PP      PP21092   8.535  13.802  10.806
10989PP      PP21093   1.502   5.470  11.578
10990PP      PP21094   3.410  11.620  13.058
10991PP      PP21095  14.326   7.764  10.804
10992PP      PP21096   1.813  12.129  11.644
10993PP      PP21097  13.303   5.466  10.383
10994PP      PP21098   7.666  10.495  13.220
10995PP      PP21099   6.580   6.193   1.370
10996PP      PP21100  12.377   7.062   1.234
10997PP      PP21101  12.877   1.048   1.331
10998PP      PP21102  11.497   3.838   2.839
10999PP      PP21103   0.187  15.321   1.875
11000PP      PP21104  12.197   3.748   3.520
11001PP      PP21105   3.946   9.977   2.342
11002PP      PP21106   9.182  14.985  13.414
11003PP      PP21107   6.295  13.372   9.792
11004PP      PP21108   9.324   1.854   0.053
11005PP      PP21109   3.028  10.882   3.214
11006PP      PP21110  13.050  14.934  13.305
11007PP      PP21111   7.303   5.852   3.687
11008PP      PP21112  14.893   6.692   8.415
11009PP      PP21113  12.784   7.696   8.575
11010PP      PP21114  10.245   2.225  12.711
11011PP      PP21115  14.475   5.063  10.195
11012PP      PP21116  13.568   8.208  10.625
11013PP      PP21117   5.400  10.723  10.665
11014PP      PP21118   5.076   0.274   5.057
11015PP      PP21119   1.913   5.738   0.744
11016PP      PP21120   4.565  12.692  11.232
11017PP      PP21121   0.732   6.865   8.961
11018PP      PP21122   9.911   9.933  13.107
11019PP      PP21123   9.106   4.755  12.642
11020PP      PP21124  13.523   8.231  11.723
11021PP      PP21125   5.943   0.332   3.387
11022PP      PP21126   5.151   9.448   9.136
11023PP      PP21127  12.097  14.006   3.874
11024PP      PP21128   0.446  15.368   3.708
11025PP      PP21129   4.080  12.562   1.817
11026PP      PP21130   8.233   8.083   9.645
11027PP      PP21131   9.815   8.351  12.396
11028PP      PP21132  14.946   5.702   8.833
11029PP      PP21133   6.747  10.566  10.936
11030PP      PP21134   5.936  12.415   0.151
11031PP      PP21135  11.215   3.732   3.828
11032PP      PP21136  15.435  13.919   0.188
11033PP      PP21137   4.764   4.433   2.053
11034PP      PP21138   2.085   1.754  10.417
11035PP      PP21139   2.181  11.692  12.887
11036PP      PP21140  14.970   6.263   8.755
11037PP      PP21141   0.124  13.627   1.605
11038PP      PP21142   0.650   6.884   2.473
11039PP      PP21143  14.776  11.510   1.346
11040PP      PP21144  12.330  14.870  10.215
11041PP      PP21145   9.101   7.408  12.724
11042PP      PP21146   2.269   7.727  11.743
11043PP      PP21147   6.212   0.681   3.991
11044PP      PP21148   5.298  13.859  10.914
11045PP      PP21149  14.499   2.675   4.351
11046PP      PP21150   2.774   7.073   3.156
11047PP      PP21151   6.672   2.031  12.318
11048PP      PP21152   0.470   2.142  13.196
11049PP      PP21153  10.915  14.463  12.334
11050PP      PP21154   8.620   4.435   1.858
11051PP      PP21155   5.470   6.845   1.483
11052PP      PP21156  14.394   3.842   9.590
11053PP      PP21157   8.219  11.239  12.675
11054PP      PP21158  12.534   6.017   9.997
11055PP      PP21159   9.354   8.897  11.783
11056PP      PP21160   4.820  13.698   0.865
11057PP      PP21161  13.443   0.245   1.083
11058PP      PP21162  11.710   9.714  10.786
11059PP      PP21163  13.560   9.868  12.460
11060PP      PP21164   5.171   8.982   0.120
11061PP      PP21165  10.212   7.602  13.366
11062PP      PP21166   0.587  13.983   0.029
11063PP      PP21167  14.570   7.654   0.631
11064PP      PP21168   9.442  13.894   9.945
11065PP      PP21169  14.761   0.334  12.077
11066PP      PP21170  11.851   0.818   3.338
11067PP      PP21171  14.091   2.921  10.881
11068PP      PP21172  13.419   4.829   8.492
11069PP      PP21173  14.865   0.577   9.321
11070PP      PP21174   1.115   5.803  11.499
11071PP      PP21175   3.883   0.229   0.037
11072PP      PP21176   8.032  10.227  13.525
11073PP      PP21177   0.503   1.787  11.824
11074PP      PP21178  15.336  14.962  11.254
11075PP      PP21179  11.482   2.113   8.978
11076PP      PP21180   9.698  11.529  11.597
11077PP      PP21181   1.068  13.561  11.434
11078PP      PP21182  15.259   4.348   2.387
11079PP      PP21183   3.040   3.377   1.785
11080PP      PP21184   6.317   3.800  12.624
11081PP      PP21185  10.143   4.011   0.958
11082PP      PP21186   6.221   9.925  13.542
11083PP      PP21187  12.976  15.254   2.854
11084PP      PP21188   2.423   2.903   0.371
11085PP      PP21189  15.373  10.901   8.758
11086PP      PP21190   2.249  15.722  12.757
11087PP      PP21191   2.336   9.873  12.273
11088PP      PP21192   7.043  12.368  12.491
11089PP      PP21193  10.258  13.389   3.071
11090PP      PP21194  12.548   9.464   8.289
11091PP      PP21195  15.214   2.623  13.191
11092PP      PP21196   4.092   3.967  11.095
11093PP      PP21197  12.643  10.164   2.214
11094PP      PP21198  14.560   9.607   1.020
11095PP      PP21199   5.472  15.732   2.599
11096PP      PP21200  15.337   6.665   2.213
11097PP      PP21201   1.481   2.408   3.003
11098PP      PP21202  14.227  12.598   0.242
11099PP      PP21203  13.997   1.001   9.666
11100PP      PP21204   2.064  11.340   2.364
11101PP      PP21205  11.708  12.652   3.975
11102PP      PP21206   5.260   9.247   2.748
11103PP      PP21207   1.534   9.708   2.748
11104PP      PP21208   8.888   1.421   1.244
11105PP      PP21209  12.450   9.755  10.039
11106PP      PP21210  15.605   5.239   1.807
11107PP      PP21211   0.525   1.094   4.271
11108PP      PP21212  10.653   6.341   2.695
11109PP      PP21213   8.131   6.697   8.492
11110PP      PP21214   0.924   8.402  13.378
11111PP      PP21215   7.604   1.363   1.621
11112PP      PP21216   8.074  11.168  10.572
11113PP      PP21217   0.098   2.166   1.938
11114PP      PP21218   3.356  10.743  13.003
11115PP      PP21219   3.484   0.361  11.206
11116PP      PP21220   5.626  15.340   0.259
11117PP      PP21221  13.782  11.721  12.739
11118PP      PP21222  14.540   3.869   3.023
11119PP      PP21223   3.488   4.921  11.998
11120PP      PP21224   5.832   2.726  13.533
11121PP      PP21225   0.545   8.593   1.650
11122PP      PP21226  10.131  14.545   1.183
11123PP      PP21227   3.666  14.862  11.750
11124PP      PP21228   1.248  10.631   9.455
11125PP      PP21229  10.143   6.335   8.392
11126PP      PP21230   3.208   4.305  10.868
11127PP      PP21231  12.244   2.099   0.585
11128PP      PP21232  14.036   8.344   9.747
11129PP      PP21233   4.084   4.084   2.839
11130PP      PP21234  10.906   1.026   4.576
11131PP      PP21235  10.794   0.083   1.235
11132PP      PP21236  10.677   4.702  10.710
11133PP      PP21237   4.272  10.355   0.389
11134PP      PP21238  15.602   8.557   2.744
11135PP      PP21239   3.654   8.646   9.805
11136PP      PP21240  12.267   5.521  11.734
11137PP      PP21241   1.337   9.060   2.071
11138PP      PP21242   1.511   6.186   2.874
11139PP      PP21243   7.906  11.643   4.279
11140PP      PP21244   5.037   6.468  11.877
11141PP      PP21245   5.792   4.286   4.311
11142PP      PP21246   9.477   7.607   1.721
11143PP      PP21247  15.303   0.419  13.061
11144PP      PP21248   4.119   2.968  10.550
11145PP      PP21249  13.527   2.227  10.785
11146PP      PP21250   7.894   4.144   2.010
11147PP      PP21251   1.266  12.693   0.647
11148PP      PP21252  15.424  15.760   2.119
11149PP      PP21253   3.775   5.201   0.706
11150PP      PP21254   1.924  12.774  10.973
11151PP      PP21255   2.187  10.735   9.745
11152PP      PP21256   6.666   9.524   2.772
11153PP      PP21257  12.268  14.204  12.474
11154PP      PP21258   5.105  10.938  10.021
11155PP      PP21259   7.517   5.625   1.711
11156PP      PP21260   3.417  11.876   3.145
11157PP      PP21261  14.937   7.620   3.145
11158PP      PP21262  12.757   0.462  12.947
11159PP      PP21263   6.675  13.261  10.691
11160PP      PP21264  10.867   9.720  12.800
11161PP      PP21265   6.013   8.907   2.137
11162PP      PP21266  14.026  12.870   3.422
11163PP      PP21267  13.689   3.400  12.792
11164PP      PP21268   5.556   6.048  13.468
11165PP      PP21269  14.724   4.694   8.798
11166PP      PP21270   0.471   5.144  13.426
11167PP      PP21271  11.033   4.250   3.710
11168PP      PP21272  13.999  11.897   9.809
11169PP      PP21273   4.961  12.175   1.285
11170PP      PP21274   8.161   6.502   0.388
11171PP      PP21275   3.643   5.482   9.827
11172PP      PP21276   2.120  12.362   1.738
11173PP      PP21277   3.400   4.475   9.236
11174PP      PP21278   1.564   8.248  10.221
11175PP      PP21279  12.446   3.156   2.788
11176PP      PP21280  15.098   6.379   1.793
11177PP      PP21281   3.823   7.821   1.416
11178PP      PP21282   7.362   3.605  12.245
11179PP      PP21283   2.522   7.070  12.805
11180PP      PP21284   6.281   0.477  11.219
11181PP      PP21285   1.462   6.143   8.476
11182PP      PP21286   7.437   6.002  12.353
11183PP      PP21287  15.103   5.984   9.607
11184PP      PP21288  11.537  13.929  13.143
11185PP      PP21289   4.449   8.825   3.384
11186PP      PP21290   8.394   5.775  11.244
11187PP      PP21291  14.593   1.206   1.562
11188PP      PP21292   0.268  12.211  10.763
11189PP      PP21293   8.952  10.756   4.295
11190PP      PP21294   4.265  10.810   3.367
11191PP      PP21295   4.758  11.980   4.588
11192PP      PP21296  14.977   1.183   9.825
11193PP      PP21297   7.501   6.253  11.660
11194PP      PP21298   0.173  15.253   0.323
11195PP      PP21299   6.448   6.649   2.061
11196PP      PP21300   4.415  13.979   3.093
11197PP      PP21301  12.981   0.194   3.956
11198PP      PP21302   8.729  12.748   0.464
11199PP      PP21303   1.598  12.329  10.152
11200PP      PP21304   9.912   0.991   4.066
11201PP      PP21305  14.248   8.338   3.043
11202PP      PP21306  12.281   7.317  12.224
11203PP      PP21307   3.434   9.875  11.257
11204PP      PP21308  10.581  11.744  13.094
11205PP      PP21309   8.001  14.196   0.881
11206PP      PP21310  15.074   1.117   3.608
11207PP      PP21311   2.003   0.257  12.430
11208PP      PP21312  14.161   8.562   0.320
11209PP      PP21313  15.061  15.620   3.929
11210PP      PP21314   6.610  12.465   9.649
11211PP      PP21315   2.111   5.787  12.417
11212PP      PP21316   7.694   8.579   2.151
11213PP      PP21317  10.732   9.576  11.446
11214PP      PP21318   6.431  12.908   0.622
11215PP      PP21319   0.510   1.453   4.791
11216PP      PP21320   5.175  15.463  10.658
11217PP      PP21321  13.520   1.712   8.605
11218PP      PP21322   7.754  14.042   1.492
11219PP      PP21323   5.343   3.647  11.705
11220PP      PP21324  12.821   6.869  11.630
11221PP      PP21325   3.354  11.289   1.675
11222PP      PP21326   8.919   2.241  12.522
11223PP      PP21327   4.615   4.088   0.697
11224PP      PP21328  13.942  15.291   0.065
11225PP      PP21329   1.308  12.664   1.886
11226PP      PP21330   7.636   3.520  10.035
11227PP      PP21331   3.149   1.355   4.497
11228PP      PP21332  14.742  14.527   0.102
11229PP      PP21333   6.118   2.893  12.533
11230PP      PP21334   0.987   6.560  13.279
11231PP      PP21335   3.851   9.651  10.439
11232PP      PP21336   7.491   1.309   4.611
11233PP      PP21337  11.120   3.210  12.537
11234PP      PP21338   8.034  14.129   2.754
11235PP      PP21339  11.470  14.878   3.952
11236PP      PP21340   8.527   7.322   0.215
11237PP      PP21341  14.674  14.955   1.004
11238PP      PP21342   5.884   8.373   2.108
11239PP      PP21343  11.710   2.579   2.150
11240PP      PP21344   6.312   8.010   9.358
11241PP      PP21345  12.339   5.680   3.625
11242PP      PP21346   1.467   8.200   3.606
11243PP      PP21347   6.354   3.841  11.544
11244PP      PP21348   5.000   3.345   0.871
11245PP      PP21349   8.715  12.413   3.264
11246PP      PP21350   3.603   7.677  11.904
11247PP      PP21351  10.123   4.115   2.904
11248PP      PP21352   8.019   6.371   0.904
11249PP      PP21353   7.384  12.955  11.469
11250PP      PP21354  15.493  13.723   4.354
11251PP      PP21355  11.074  12.722   0.994
11252PP      PP21356   0.852   1.775   3.203
11253PP      PP21357   4.413   2.988   3.505
11254PP      PP21358   7.914   5.997   8.265
11255PP      PP21359  10.369  10.165   8.891
11256PP      PP21360   2.552   4.045   0.024
11257PP      PP21361   0.325  11.672   3.531
11258PP      PP21362  12.667  10.369  12.529
11259PP      PP21363   3.396   0.909   0.532
11260PP      PP21364   4.475  11.471   1.086
11261PP      PP21365  12.698   3.377   1.716
11262PP      PP21366  12.046  13.840   0.236
11263PP      PP21367   9.164   1.263   3.101
11264PP      PP21368   5.011   6.622   1.432
11265PP      PP21369  12.963   6.044  12.277
11266PP      PP21370   4.915   2.764   9.853
11267PP      PP21371   8.223   4.495   1.440
11268PP      PP21372   4.568   1.595   1.349
11269PP      PP21373   3.165   7.111   1.089
11270PP      PP21374   1.034  15.683   8.988
11271PP      PP21375  10.371   1.785   1.062
11272PP      PP21376   7.239  14.220   0.290
11273PP      PP21377   9.784  11.898   9.093
11274PP      PP21378   6.195   3.886  12.108
11275PP      PP21379   8.251   0.252   0.933
11276PP      PP21380   5.707   8.759   1.748
11277PP      PP21381   7.111   0.061   4.770
11278PP      PP21382   0.188   6.076   8.595
11279PP      PP21383   0.037   6.916  11.421
11280PP      PP21384  15.748   8.571   1.054
11281PP      PP21385   3.166   1.885  13.470
11282PP      PP21386  13.478   3.042  11.393
11283PP      PP21387  11.875   8.839  10.453
11284PP      PP21388  14.676  11.512  11.835
11285PP      PP21389  11.515   4.957  12.174
11286PP      PP21390   9.942   7.298   2.751
11287PP      PP21391  11.649  12.309  13.345
11288PP      PP21392   8.393  15.114  13.113
11289PP      PP21393   9.630  14.717  13.470
11290PP      PP21394   0.914   5.706  10.606
11291PP      PP21395  12.255   4.479   8.924
11292PP      PP21396   4.811  14.045   9.985
11293PP      PP21397  11.382  10.278   0.032
11294PP      PP21398   9.665  12.999   4.548
11295PP      PP21399  11.192   2.604   2.079
11296PP      PP21400  14.863   5.533   0.670
11297PP      PP21401   9.123  12.558   2.368
11298PP      PP21402   4.150   6.582  11.758
11299PP      PP21403   5.301  15.316  11.902
11300PP      PP21404  12.029  10.361  11.315
11301PP      PP21405   4.254   3.926   1.128
11302PP      PP21406   7.491   6.686   9.140
11303PP      PP21407   2.374   8.553  11.050
11304PP      PP21408  12.245   1.600  12.349
11305PP      PP21409   5.255  13.261   0.664
11306PP      PP21410   4.764  11.332   9.929
11307PP      PP21411   1.226  15.763   0.829
11308PP      PP21412   5.504   1.603   0.927
11309PP      PP21413  15.737   5.877  10.438
11310PP      PP21414  10.825   1.349  12.592
11311PP      PP21415  14.823   2.160  12.470
11312PP      PP21416  14.782  11.630  11.265
11313PP      PP21417   8.515   0.504  11.839
11314PP      PP21418   9.387  15.119  11.596
11315PP      PP21419   8.735   2.380   2.795
11316PP      PP21420  14.323   7.783   9.134
11317PP      PP21421   8.035   1.165   9.542
11318PP      PP21422   1.937  10.197   8.910
11319PP      PP21423   6.249   0.304   1.256
11320PP      PP21424  12.482   5.282   9.300
11321PP      PP21425  14.406   7.627   2.987
11322PP      PP21426  11.331   1.560  13.226
11323PP      PP21427  10.672   8.275  11.503
11324PP      PP21428  10.327   6.942  10.458
11325PP      PP21429   5.348   8.629   3.773
11326PP      PP21430   8.599   8.951   0.497
11327PP      PP21431   9.006  13.596   1.201
11328PP      PP21432  10.750   2.636   4.135
11329PP      PP21433   1.426  12.107   3.253
11330PP      PP21434  10.336   5.029   2.696
11331PP      PP21435   9.840  11.741  12.537
11332PP      PP21436  15.089  10.148  11.247
11333PP      PP21437   7.368  11.053   2.723
11334PP      PP21438   7.809   7.312  10.338
11335PP      PP21439  14.687   1.630   9.861
11336PP      PP21440  10.875  15.237  12.248
11337PP      PP21441   3.096   0.439  11.830
11338PP      PP21442   4.641  14.381  10.334
11339PP      PP21443  13.701   0.600   3.630
11340PP      PP21444   7.829   8.556  12.859
11341PP      PP21445   7.053  11.173   1.229
11342PP      PP21446  13.937   5.682   1.360
11343PP      PP21447  14.219   4.670   0.586
11344PP      PP21448  12.637  14.248  10.547
11345PP      PP21449  11.750   6.123   2.085
11346PP      PP21450  11.988  12.497   0.842
11347PP      PP21451   5.509  13.220  10.245
11348PP      PP21452  12.558   0.555   1.461
11349PP      PP21453  13.880   0.204   0.820
11350PP      PP21454  10.851   8.546   1.189
11351PP      PP21455   3.875  11.018   0.974
11352PP      PP21456   7.049   8.571   3.985
11353PP      PP21457   7.246  15.193  11.647
11354PP      PP21458   7.166  11.892  12.267
11355PP      PP21459   5.163   5.833   2.148
11356PP      PP21460  10.490   7.417  12.924
11357PP      PP21461  10.038   2.447   2.625
11358PP      PP21462   1.596   4.045  12.282
11359PP      PP21463   2.187   5.252  13.460
11360PP      PP21464   1.184  10.234   1.886
11361PP      PP21465   2.596   3.130   2.637
11362PP      PP21466   3.415  15.117   9.556
11363PP      PP21467  12.412   5.746  13.312
11364PP      PP21468  13.759  10.896   4.422
11365PP      PP21469   0.969  15.043   0.932
11366PP      PP21470  11.345  14.333   3.960
11367PP      PP21471  12.712   2.515   3.644
11368PP      PP21472  13.337  11.653   3.096
11369PP      PP21473   5.973   8.789  13.358
11370PP      PP21474   7.931  14.488   4.285
11371PP      PP21475   3.221  15.202  11.187
11372PP      PP21476   7.883  11.955   3.871
11373PP      PP21477  11.403  15.628  11.507
11374PP      PP21478   7.552   9.968   1.582
11375PP      PP21479   2.483   9.347   9.877
11376PP      PP21480  11.438   0.146   4.823
11377PP      PP21481  11.021   7.848  10.714
11378PP      PP21482   6.471   3.615  10.007
11379PP      PP21483   8.496   7.845  10.165
11380PP      PP21484  12.041   0.235  12.517
11381PP      PP21485  14.041   5.551   3.440
11382PP      PP21486   6.693  10.459   3.802
11383PP      PP21487  15.761  11.113   3.009
11384PP      PP21488   8.192  15.177   5.325
11385PP      PP21489   7.269   2.338   1.298
11386PP      PP21490  12.717   7.931   1.688
11387PP      PP21491  15.022   2.117   1.495
11388PP      PP21492   9.514  13.186  12.310
11389PP      PP21493  14.381   1.666   3.298
11390PP      PP21494   3.229   7.897   3.533
11391PP      PP21495   1.816   0.367  10.734
11392PP      PP21496  13.030   2.228   2.694
11393PP      PP21497   5.202  15.138   1.807
11394PP      PP21498  14.098   0.379   9.075
11395PP      PP21499  11.953   2.317   4.153
11396PP      PP21500   0.957   3.161  10.450
11397PP      PP21501  10.539   2.462   9.709
11398PP      PP21502   5.252   3.313  12.125
11399PP      PP21503   0.168   6.542   3.540
11400PP      PP21504  10.640   0.515  13.555
11401PP      PP21505  14.544   8.305   9.247
11402PP      PP21506   0.789   0.868   3.895
11403PP      PP21507   4.492  10.115  12.442
11404PP      PP21508   8.120   7.225   1.134
11405PP      PP21509  12.525  10.235   1.130
11406PP      PP21510   7.552  13.195   2.589
11407PP      PP21511   7.691   6.196   3.653
11408PP      PP21512   3.888  13.971  13.302
11409PP      PP21513   9.664  13.005  13.028
11410PP      PP21514   5.347  10.505   2.153
11411PP      PP21515   2.909   4.786   2.419
11412PP      PP21516  12.535  13.732  11.859
11413PP      PP21517   6.342   8.395  11.500
11414PP      PP21518  10.359   7.735   8.430
11415PP      PP21519   5.836  10.920   3.371
11416PP      PP21520   6.859   3.937   8.753
11417PP      PP21521   0.069   0.297   2.172
11418PP      PP21522  15.194  12.053  12.431
11419PP      PP21523  12.055  13.345   0.428
11420PP      PP21524   3.806   4.638  12.854
11421PP      PP21525   1.391   2.745  11.860
11422PP      PP21526  10.336  13.570   4.409
11423PP      PP21527   0.961   3.354  12.402
11424PP      PP21528   7.951   8.504   2.649
11425PP      PP21529  15.678  12.114  10.420
11426PP      PP21530   3.981   2.834  12.755
11427PP      PP21531   2.442   0.738   3.369
11428PP      PP21532   7.637   4.154   0.979
11429PP      PP21533   0.226  11.987   9.246
11430PP      PP21534   7.186  10.262   3.857
11431PP      PP21535   9.331   1.688  10.986
11432PP      PP21536  12.667   3.262   0.863
11433PP      PP21537   1.058   7.955   3.369
11434PP      PP21538   1.851   0.429  11.966
11435PP      PP21539  15.316   9.427  10.035
11436PP      PP21540   9.397   2.183  10.077
11437PP      PP21541   1.420  11.364   0.869
11438PP      PP21542  14.605  10.410   9.328
11439PP      PP21543  11.308  12.940   5.041
11440PP      PP21544  10.589  14.355  11.683
11441PP      PP21545   8.916  11.130   3.083
11442PP      PP21546   6.584   0.164   4.865
11443PP      PP21547   1.128   5.986  12.404
11444PP      PP21548  14.571   8.304   0.608
11445PP      PP21549   5.266  14.158   2.781
11446PP      PP21550  13.333  13.750  10.398
11447PP      PP21551   3.070  13.467  11.652
11448PP      PP21552   4.018   1.722  10.831
11449PP      PP21553  10.024   6.634  10.153
11450PP      PP21554   9.369  13.748   3.206
11451PP      PP21555  14.792  13.258   2.784
11452PP      PP21556  15.150  14.945   1.287
11453PP      PP21557   5.533   7.824   2.423
11454PP      PP21558  15.827   4.645  12.766
11455PP      PP21559  11.610   2.083   9.481
11456PP      PP21560  11.286   1.959  11.352
11457PP      PP21561   2.238   4.334  11.311
11458PP      PP21562  11.329  10.035   3.429
11459PP      PP21563   0.044   6.982  13.285
11460PP      PP21564   1.438   7.077  12.925
11461PP      PP21565  13.777  14.619  10.267
11462PP      PP21566   1.131   0.417  13.308
11463PP      PP21567  11.850  10.789   1.227
11464PP      PP21568  14.291  12.144  10.185
11465PP      PP21569   8.737   4.158   3.500
11466PP      PP21570   0.419   5.980  11.955
11467PP      PP21571  10.832   4.516   1.937
11468PP      PP21572   9.280   4.058   8.952
11469PP      PP21573   9.733   0.175  12.801
11470PP      PP21574   1.835   8.968  13.372
11471PP      PP21575   2.698  10.524   3.028
11472PP      PP21576   8.520  11.173  10.247
11473PP      PP21577  14.895   4.608   0.872
11474PP      PP21578   5.502   2.158  12.650
11475PP      PP21579  12.222   7.082  10.627
11476PP      PP21580   8.008   2.101   3.206
11477PP      PP21581  10.844   9.285  10.931
11478PP      PP21582   3.533  10.131   1.468
11479PP      PP21583   1.085   4.753   8.443
11480PP      PP21584  14.560   2.708  10.117
11481PP      PP21585   4.651  13.101   2.519
11482PP      PP21586   3.060   9.219   1.667
11483PP      PP21587  13.074  13.726   0.469
11484PP      PP21588  13.159   6.404  13.466
11485PP      PP21589  12.023  10.282  13.043
11486PP      PP21590   3.671   2.822  12.351
11487PP      PP21591   0.021   8.261   0.118
11488PP      PP21592  13.123   4.605  13.056
11489PP      PP21593  11.702  14.486   1.769
11490PP      PP21594   9.458  14.726  12.647
11491PP      PP21595  15.000  11.121  11.225
11492PP      PP21596   8.314   4.167   8.601
11493PP      PP21597  13.870   2.291  12.669
11494PP      PP21598   0.963   7.554   0.878
11495PP      PP21599   2.337  11.579   9.273
11496PP      PP21600  13.807   4.904   0.303
11497PP      PP21601   9.673   7.271   9.831
11498PP      PP21602  14.002   0.251   3.959
11499PP      PP21603   5.600   1.325   1.362
11500PP      PP21604  14.600   0.464  12.944
11501PP      PP21605   8.066  14.247  12.957
11502PP      PP21606   3.680  13.731  12.389
11503PP      PP21607  10.512  12.543  13.052
11504PP      PP21608   5.702   6.866   9.137
11505PP      PP21609  13.987   6.669  12.437
11506PP      PP21610  14.597   7.520   0.005
11507PP      PP21611   1.973  11.014  10.128
11508PP      PP21612   3.844   8.266  12.285
11509PP      PP21613  10.355  13.639  13.462
11510PP      PP21614  10.922  11.392   0.858
11511PP      PP21615  13.443   2.726   8.491
11512PP      PP21616   1.457  14.776   2.959
11513PP      PP21617   3.146  15.389   9.198
11514PP      PP21618   7.836  14.764   2.043
11515PP      PP21619   4.700  14.005   1.282
11516PP      PP21620   0.356   7.312  11.585
11517PP      PP21621   7.799   7.301  11.145
11518PP      PP21622  15.700   6.368   8.940
11519PP      PP21623  13.168   5.055   3.790
11520PP      PP21624  13.630   3.120  10.607
11521PP      PP21625   3.050  11.289   0.672
11522PP      PP21626   3.818   4.322   3.258
11523PP      PP21627  13.975   8.492  12.941
11524PP      PP21628  14.364   0.394   2.129
11525PP      PP21629  11.504  14.756  10.797
11526PP      PP21630   2.984  12.527   8.737
11527PP      PP21631   5.150   2.754  13.351
11528PP      PP21632   8.176   4.902   4.582
11529PP      PP21633   5.444  10.238  13.024
11530PP      PP21634   3.936  11.009  10.534
11531PP      PP21635   2.588  10.363   1.935
11532PP      PP21636  15.131  12.810   0.794
11533PP      PP21637  15.013   4.839  11.077
11534PP      PP21638   2.167   0.745  12.576
11535PP      PP21639  15.305   9.900   2.895
11536PP      PP21640  13.212  10.937   9.925
11537PP      PP21641  12.267   3.647   1.474
11538PP      PP21642   5.447  11.966  10.811
11539PP      PP21643   9.392   8.219  12.706
11540PP      PP21644  15.225  13.352  10.291
11541PP      PP21645   3.733  10.979   1.535
11542PP      PP21646   0.745  15.535  10.343
11543PP      PP21647   6.825   6.573   0.136
11544PP      PP21648   3.586  15.386   2.315
11545PP      PP21649  12.932   3.997  10.375
11546PP      PP21650  10.434   3.613  13.147
11547PP      PP21651   2.037   4.537   1.082
11548PP      PP21652  15.332   7.788   9.372
11549PP      PP21653  10.163  10.783   2.250
11550PP      PP21654   7.976   0.847  13.174
11551PP      PP21655   0.322   1.155   9.185
11552PP      PP21656   3.971   7.162   3.344
11553PP      PP21657   6.082   1.404   4.351
11554PP      PP21658   1.418   7.310   1.322
11555PP      PP21659  14.163   0.719   3.460
11556PP      PP21660   0.388   6.493  11.062
11557PP      PP21661   5.726  11.645  13.150
11558PP      PP21662   8.538   7.430   2.116
11559PP      PP21663   5.431   4.948   1.655
11560PP      PP21664   5.045  10.896   2.023
11561PP      PP21665   6.862   1.055   3.198
11562PP      PP21666  15.608   6.861   3.236
11563PP      PP21667  11.752   9.745   2.155
11564PP      PP21668  13.676   9.626  13.323
11565PP      PP21669   8.227  13.816  12.727
11566PP      PP21670   3.685  10.591   1.228
11567PP      PP21671   3.589  15.010   1.904
11568PP      PP21672  14.237   2.027   0.169
11569PP      PP21673   2.205  13.582   3.934
11570PP      PP21674   9.265   1.008   4.571
11571PP      PP21675   6.180   1.078  13.425
11572PP      PP21676   9.720   2.973   9.529
11573PP      PP21677  14.815  15.311   0.403
11574PP      PP21678  12.249  15.618  12.314
11575PP      PP21679  14.890  13.128   3.926
11576PP      PP21680   1.554   5.798   2.528
11577PP      PP21681  10.768  11.143   1.289
11578PP      PP21682   0.296   8.081   8.567
11579PP      PP21683   6.555   3.858   3.017
11580PP      PP21684   6.290   9.511   0.266
11581PP      PP21685  14.523   7.981   2.617
11582PP      PP21686   2.157  13.381   4.483
11583PP      PP21687   9.210   9.062  13.257
11584PP      PP21688   3.751  12.755  13.438
11585PP      PP21689   6.180   9.638   9.675
11586PP      PP21690   8.279   9.663  11.649
11587PP      PP21691   1.516   0.534  12.384
11588PP      PP21692   5.368   5.645   3.086
11589PP      PP21693   6.296   7.606  10.189
11590PP      PP21694   0.961   6.244   1.971
11591PP      PP21695  14.500   5.337   9.569
11592PP      PP21696   7.046   0.937   4.630
11593PP      PP21697  15.551  13.725   3.791
11594PP      PP21698  13.178  12.544  12.549
11595PP      PP21699   3.803   6.666  12.197
11596PP      PP21700   0.689  11.646   3.019
11597PP      PP21701  10.969  15.097   3.391
11598PP      PP21702   9.746  10.751   3.553
11599PP      PP21703   7.290  13.643  12.858
11600PP      PP21704  10.897   2.724  11.110
11601PP      PP21705  14.717   2.401   1.858
11602PP      PP21706   7.422   2.890  12.562
11603PP      PP21707   0.602  13.299   9.736
11604PP      PP21708   3.335  10.365  11.016
11605PP      PP21709   8.940   8.104  13.495
11606PP      PP21710   3.469  10.586  10.573
11607PP      PP21711   0.814   7.046   3.084
11608PP      PP21712   1.268  15.716  11.333
11609PP      PP21713   0.174   7.568  10.187
11610PP      PP21714   5.938   0.590  12.113
11611PP      PP21715  13.834   0.410   3.166
11612PP      PP21716  10.491   8.884  11.778
11613PP      PP21717   0.242   0.671   9.571
11614PP      PP21718   4.687  10.968  12.678
11615PP      PP21719   6.033   4.322   1.798
11616PP      PP21720  11.060   0.654  12.748
11617PP      PP21721   4.892  15.549   9.280
11618PP      PP21722   0.977  10.366   2.838
11619PP      PP21723  11.205  14.092  13.535
11620PP      PP21724   4.058  12.710  10.907
11621PP      PP21725   0.511   9.785  12.550
11622PP      PP21726   3.524   5.609   2.572
11623PP      PP21727  14.751  15.758  11.662
11624PP      PP21728   8.831   1.163   1.770
11625PP      PP21729   5.432   3.568   0.446
11626PP      PP21730  11.787   4.814   1.873
11627PP      PP21731   7.966  12.934  12.254
11628PP      PP21732   4.564  12.761  11.746
11629PP      PP21733  14.115   7.284   9.866
11630PP      PP21734   3.108  14.215   3.109
11631PP      PP21735   7.072   1.567  11.574
11632PP      PP21736   1.814   8.073  13.010
11633PP      PP21737  14.542   2.762  10.632
11634PP      PP21738   3.771   2.008  11.229
11635PP      PP21739  15.719   0.764  12.963
11636PP      PP21740   6.831   8.900   3.640
11637PP      PP21741   5.304   2.094   4.357
11638PP      PP21742   3.852   4.705  12.322
11639PP      PP21743  11.378  11.232  10.508
11640PP      PP21744  14.666  10.174  13.038
11641PP      PP21745  11.329   2.615   8.989
11642PP      PP21746   7.065   6.397   1.509
11643PP      PP21747  14.366   9.781   3.483
11644PP      PP21748  11.819  11.751  11.310
11645PP      PP21749  13.669   3.817  10.918
11646PP      PP21750   5.994   7.509  11.922
11647PP      PP21751  11.915   7.387  10.932
11648PP      PP21752   1.135   8.995  12.542
11649PP      PP21753   5.949   8.111   2.644
11650PP      PP21754  11.240   3.155   2.008
11651PP      PP21755   2.106  13.172  10.685
11652PP      PP21756   3.786  11.531   1.835
11653PP      PP21757   7.678  12.007   4.617
11654PP      PP21758  15.765  13.987   2.442
11655PP      PP21759   0.359   9.919   1.633
11656PP      PP21760   5.388  15.180  11.384
11657PP      PP21761   2.783   4.429  12.270
11658PP      PP21762   9.216   1.303  11.341
11659PP      PP21763   1.280   6.781   1.232
11660PP      PP21764   4.186  11.277  11.807
11661PP      PP21765  10.978  11.680   2.529
11662PP      PP21766   9.235   4.244  12.601
11663PP      PP21767  10.334   0.881   1.280
11664PP      PP21768  15.380   1.675  11.438
11665PP      PP21769   9.257   1.699   5.107
11666PP      PP21770  15.639   2.890   3.030
11667PP      PP21771   1.827  15.367  10.457
11668PP      PP21772   1.284   1.058   3.299
11669PP      PP21773   2.176  15.796   1.074
11670PP      PP21774   8.512   8.645  11.788
11671PP      PP21775   2.370  14.954   5.242
11672PP      PP21776   6.184   2.605   2.699
11673PP      PP21777   5.381  12.465  12.063
11674PP      PP21778  13.165   6.534   1.424
11675PP      PP21779   5.450   4.662  13.536
11676PP      PP21780   4.465   1.928   3.150
11677PP      PP21781   5.245   1.739  11.449
11678PP      PP21782  15.176   0.304  12.491
11679PP      PP21783   0.711   1.872  12.316
11680PP      PP21784   5.315  13.562   3.779
11681PP      PP21785   4.403   6.611  10.533
11682PP      PP21786  15.319   3.638  12.586
11683PP      PP21787   8.155   6.473   3.758
11684PP      PP21788   5.428   0.156   3.567
11685PP      PP21789   4.696   7.717  12.067
11686PP      PP21790   2.643  10.772   0.024
11687PP      PP21791   9.409   7.420   2.803
11688PP      PP21792  10.600  13.670  12.854
11689PP      PP21793  13.654  11.317   1.402
11690PP      PP21794   6.433   0.596   3.191
11691PP      PP21795   6.402  12.478   1.045
11692PP      PP21796  15.655   1.144  11.605
11693PP      PP21797  13.145   2.702   2.845
11694PP      PP21798   0.574  13.644  11.581
11695PP      PP21799  11.612  13.665  10.737
11696PP      PP21800   7.934   8.040  12.714
11697PP      PP21801   9.787   3.890  10.600
11698PP      PP21802  10.033   0.036  11.418
11699PP      PP21803   8.878  14.365   0.824
11700PP      PP21804   7.699   2.899   4.844
11701PP      PP21805   6.885   6.782  12.423
11702PP      PP21806   1.460  12.419   9.608
11703PP      PP21807   0.163   6.413  12.088
11704PP      PP21808   0.812  11.980  10.050
11705PP      PP21809   1.855   5.106   4.231
11706PP      PP21810  11.085  15.386  10.110
11707PP      PP21811  11.483   1.575   3.136
11708PP      PP21812  14.139   4.080   1.169
11709PP      PP21813  14.572   9.717   1.536
11710PP      PP21814   0.787  14.509   0.150
11711PP      PP21815   7.568   0.886  11.881
11712PP      PP21816  15.129   0.412   9.776
11713PP      PP21817  11.769   3.952  11.784
11714PP      PP21818   3.866  12.983  11.825
11715PP      PP21819  12.170   6.357  13.587
11716PP      PP21820   5.736  13.697   0.118
11717PP      PP21821   6.800   5.187   9.506
11718PP      PP21822  15.091   2.327   0.019
11719PP      PP21823   8.743   8.551   8.787
11720PP      PP21824  12.752   3.610   1.242
11721PP      PP21825  11.454  12.698   2.306
11722PP      PP21826   3.640   9.015  12.739
11723PP      PP21827   0.265   9.102   9.743
11724PP      PP21828   3.786   6.618   0.498
11725PP      PP21829   8.670   2.220  13.095
11726PP      PP21830  12.986   1.481   1.588
11727PP      PP21831  15.699  15.380  12.981
11728PP      PP21832   9.844  11.406   9.251
11729PP      PP21833   6.839   0.418   4.494
11730PP      PP21834   9.733   8.210  11.843
11731PP      PP21835   3.243  12.102  12.269
11732PP      PP21836   6.564  14.340  10.119
11733PP      PP21837   1.778   6.075  10.897
11734PP      PP21838   5.805   2.127   9.725
11735PP      PP21839   9.239  14.716   3.261
11736PP      PP21840  10.543   3.615   0.903
11737PP      PP21841   1.429   4.431   2.195
11738PP      PP21842  12.847   2.624  13.533
11739PP      PP21843  14.623   0.930   1.103
11740PP      PP21844   2.898  10.608  11.187
11741PP      PP21845   2.989   3.938   3.048
11742PP      PP21846  10.109   3.561   1.252
11743PP      PP21847   0.443   3.024  13.527
11744PP      PP21848   8.683   3.733  11.692
11745PP      PP21849  15.009   8.086  12.087
11746PP      PP21850  12.848  10.877   2.032
11747PP      PP21851  12.823  10.483   3.064
11748PP      PP21852  10.860   0.967   2.578
11749PP      PP21853   9.579   3.230  10.488
11750PP      PP21854  14.725   4.370   2.312
11751PP      PP21855   3.590  12.938  12.286
11752PP      PP21856   4.640  12.928  10.001
11753PP      PP21857   0.683   4.547  10.122
11754PP      PP21858   5.240   8.662   9.546
11755PP      PP21859  12.537   2.511  13.098
11756PP      PP21860  14.111  13.079  12.758
11757PP      PP21861  11.789   3.454   3.607
11758PP      PP21862   0.113   8.808   1.478
11759PP      PP21863   4.524   9.308   1.006
11760PP      PP21864   4.603   6.864  10.109
11761PP      PP21865   8.910   9.260   9.308
11762PP      PP21866   4.167  15.066  11.788
11763PP      PP21867   5.979  11.527  13.591
11764PP      PP21868   8.621  13.689  10.286
11765PP      PP21869  12.339  10.662   1.412
11766PP      PP21870   0.123  12.056   4.440
11767PP      PP21871   1.890  13.897   1.617
11768PP      PP21872   9.251   3.803   2.986
11769PP      PP21873   7.594  15.420  11.324
11770PP      PP21874  13.378   3.594   2.409
11771PP      PP21875  14.271   5.765  13.032
11772PP      PP21876   3.555   2.851   3.598
11773PP      PP21877   9.116  13.204   1.545
11774PP      PP21878   6.253   9.407  12.153
11775PP      PP21879  10.081  11.008   1.795
11776PP      PP21880  13.403  13.778   9.888
11777PP      PP21881   1.741   0.856  10.629
11778PP      PP21882   3.317   7.567   1.339
11779PP      PP21883  11.820   6.481   0.878
11780PP      PP21884  13.330   3.948   1.895
11781PP      PP21885   2.465   0.379   1.187
11782PP      PP21886  11.299  13.110   1.366
11783PP      PP21887   6.092   0.035  11.508
11784PP      PP21888   6.042  14.069   1.972
11785PP      PP21889   0.596  14.776  10.337
11786PP      PP21890  12.152  14.407   4.203
11787PP      PP21891  13.746   0.065   3.555
11788PP      PP21892   6.211  11.590   9.555
11789PP      PP21893  15.788   6.444   2.995
11790PP      PP21894   5.977  12.577   1.360
11791PP      PP21895   9.888  15.528  10.420
11792PP      PP21896   3.010  15.008  10.313
11793PP      PP21897   4.010  13.679   2.784
11794PP      PP21898   1.735  12.257   9.204
11795PP      PP21899  11.602  14.302  11.943
11796PP      PP21900  12.868  14.591  11.483
11797PP      PP21901   3.405   3.309   9.955
11798PP      PP21902  14.547   2.754  11.739
11799PP      PP21903  15.614   0.831  11.165
11800PP      PP21904   5.523   1.424   9.930
11801PP      PP21905  15.276  14.613   2.968
11802PP      PP21906   2.855   0.330   9.197
11803PP      PP21907  11.226  10.451   3.746
11804PP      PP21908  13.359   2.203  12.608
11805PP      PP21909   0.726   4.326   0.406
11806PP      PP21910  10.494   9.734   2.121
11807PP      PP21911   2.071   8.632   2.061
11808PP      PP21912  11.203  14.214   9.788
11809PP      PP21913  15.337   5.494  10.268
11810PP      PP21914   3.219   7.917  12.158
11811PP      PP21915   1.732  14.467   1.002
11812PP      PP21916  11.576   7.086  10.562
11813PP      PP21917  14.177  13.042   1.020
11814PP      PP21918   3.587  12.091   9.109
11815PP      PP21919  13.346   0.600   0.141
11816PP      PP21920   3.492   6.356  10.931
11817PP      PP21921   6.919   1.822  11.110
11818PP      PP21922   7.135   2.628  12.223
11819PP      PP21923  13.186  12.036   2.658
11820PP      PP21924   7.998   7.809  10.344
11821PP      PP21925   9.243  10.252  12.791
11822PP      PP21926  12.842   1.791   2.945
11823PP      PP21927  12.347   2.570   8.887
11824PP      PP21928  10.206   3.436   4.314
11825PP      PP21929  10.582   6.221  10.919
11826PP      PP21930   0.651  13.673   9.357
11827PP      PP21931   2.451   1.695  11.341
11828PP      PP21932   3.281   6.259  11.658
11829PP      PP21933   0.805  10.859   0.780
11830PP      PP21934  10.568  11.537   4.058
11831PP      PP21935   6.133  15.231  12.316
11832PP      PP21936  12.747  14.391   1.027
11833PP      PP21937  14.511  15.239   2.322
11834PP      PP21938   1.583   7.850   3.177
11835PP      PP21939   9.252   3.096   9.198
11836PP      PP21940   2.723   9.726   3.148
11837PP      PP21941   2.254  12.960   9.849
11838PP      PP21942   2.416  14.287  10.328
11839PP      PP21943   3.515   3.386   0.851
11840PP      PP21944   0.282   5.437   4.088
11841PP      PP21945   7.917  14.496   1.288
11842PP      PP21946  10.326   8.999  10.881
11843PP      PP21947   3.336   0.867   4.536
11844PP      PP21948   8.333   5.171   2.699
11845PP      PP21949  15.015  11.528   1.980
11846PP      PP21950   7.910   9.110   3.418
11847PP      PP21951  11.625   7.338   9.130
11848PP      PP21952   1.132   3.245  11.889
11849PP      PP21953  10.025   5.729  12.738
11850PP      PP21954   1.762  10.074   1.316
11851PP      PP21955   7.518  10.493   1.631
11852PP      PP21956  11.879  10.194  10.827
11853PP      PP21957   6.584   0.914  11.187
11854PP      PP21958   2.730   7.450   9.449
11855PP      PP21959  15.091  15.029   1.820
11856PP      PP21960   7.993  11.285  11.487
11857PP      PP21961   5.494   7.647   8.886
11858PP      PP21962  11.351   9.703   8.657
11859PP      PP21963   4.960   6.446  12.409
11860PP      PP21964   9.263   5.805   0.693
11861PP      PP21965   8.141   5.650  13.126
11862PP      PP21966  10.170  10.852  10.500
11863PP      PP21967  13.936   8.717  10.566
11864PP      PP21968   4.684  13.388   1.268
11865PP      PP21969   5.390   0.533  10.337
11866PP      PP21970  12.936   5.643  10.706
11867PP      PP21971  14.992  13.798  11.916
11868PP      PP21972   5.902   0.235  10.041
11869PP      PP21973   2.723  12.037   9.437
11870PP      PP21974   1.210  11.832  13.027
11871PP      PP21975   9.994   6.156   2.010
11872PP      PP21976  12.432  11.835  12.067
11873PP      PP21977   1.436  12.998  10.165
11874PP      PP21978  10.694   0.561   1.032
11875PP      PP21979   3.137  13.665  13.223
11876PP      PP21980   3.628   3.733  11.076
11877PP      PP21981  10.143  15.046  12.973
11878PP      PP21982   8.892  11.621   4.552
11879PP      PP21983  10.090   1.103   4.807
11880PP      PP21984  11.903  10.075   8.762
11881PP      PP21985  10.057   6.376  11.635
11882PP      PP21986   2.331   6.863   0.030
11883PP      PP21987   6.626   9.910   9.720
11884PP      PP21988   9.502  11.439   2.970
11885PP      PP21989   4.077  12.129   8.924
11886PP      PP21990   7.838   8.341  13.324
11887PP      PP21991   4.894   9.785  12.490
11888PP      PP21992   5.061  14.281  10.728
11889PP      PP21993  11.665   3.457   2.500
11890PP      PP21994   0.506  15.466   4.242
11891PP      PP21995   0.475   3.653  10.352
11892PP      PP21996  15.206  13.013  13.438
11893PP      PP21997   1.736  10.033  10.689
11894PP      PP21998  15.541   3.993  12.259
11895PP      PP21999   0.474   2.101   2.429
11896PP      PP22000   5.444   5.321   2.685
11897PP      PP22001  11.624   5.710  10.793
11898PP      PP22002   1.560   7.723   8.269
11899PP      PP22003  13.235   6.415  11.516
11900PP      PP22004  11.220   6.911  11.552
11901PP      PP22005   1.430  10.466   8.986
11902PP      PP22006  15.125  10.221  12.732
11903PP      PP22007   5.723  13.081  12.588
11904PP      PP22008  14.359   6.975   2.564
11905PP      PP22009   1.391   5.314   2.654
11906PP      PP22010   6.529  12.071   3.068
11907PP      PP22011   8.961   7.648   1.870
11908PP      PP22012   4.920   4.888   9.183
11909PP      PP22013  11.001  11.834   3.967
11910PP      PP22014  13.608   5.816  10.161
11911PP      PP22015   9.498  15.792  11.497
11912PP      PP22016   6.423  13.631  10.970
11913PP      PP22017   3.214   9.339  12.771
11914PP      PP22018   6.386   5.360   8.594
11915PP      PP22019   6.252  14.679  10.395
11916PP      PP22020   3.752   3.251  10.814
11917PP      PP22021  12.385  13.898  10.844
11918PP      PP22022   5.379  14.490   2.415
11919PP      PP22023   5.273   1.376  10.865
11920PP      PP22024   0.433  13.525  13.302
11921PP      PP22025  14.126   9.286   8.382
11922PP      PP22026  12.906   7.675  10.941
11923PP      PP22027   2.921   3.647   3.507
11924PP      PP22028   3.909   2.069   2.631
11925PP      PP22029  10.875  13.065   2.247
11926PP      PP22030   8.657  11.741   0.472
11927PP      PP22031   3.108   2.352   1.981
11928PP      PP22032   0.309   3.319   0.564
11929PP      PP22033  13.725  11.920  12.264
11930PP      PP22034  13.697   5.938   0.137
11931PP      PP22035  10.158   5.226  12.270
11932PP      PP22036   6.453   2.802   1.667
11933PP      PP22037   3.167   3.360  11.679
11934PP      PP22038  14.521   5.164   8.738
11935PP      PP22039  15.165   9.356   2.835
11936PP      PP22040  13.159   3.192   8.744
11937PP      PP22041  12.556   1.724  12.896
11938PP      PP22042   4.088  11.832   8.150
11939PP      PP22043  11.720  13.807   2.963
11940PP      PP22044   6.693  14.585   1.106
11941PP      PP22045   0.341   4.925  12.466
11942PP      PP22046   9.300   4.007   1.238
11943PP      PP22047  13.181   2.495   0.950
11944PP      PP22048  12.837   5.361  11.127
11945PP      PP22049   4.351   3.574   9.764
11946PP      PP22050   4.029   1.878   5.044
11947PP      PP22051   7.189   9.746  13.225
11948PP      PP22052   1.511   5.763  13.447
11949PP      PP22053  14.527   2.783  11.136
11950PP      PP22054   0.115   0.239   9.925
11951PP      PP22055   8.181   3.270   0.772
11952PP      PP22056   1.990   2.558   9.789
11953PP      PP22057   2.165  13.165   1.551
11954PP      PP22058  14.684   8.984  11.638
11955PP      PP22059  14.284  12.992   1.517
11956PP      PP22060   9.906  15.361  11.479
11957PP      PP22061   2.135  11.192  13.117
11958PP      PP22062   9.368   2.681  11.719
11959PP      PP22063   8.409  13.506   4.778
11960PP      PP22064   2.008   6.261   0.627
11961PP      PP22065  12.118  13.995   3.289
11962PP      PP22066   3.957  15.005   1.524
11963PP      PP22067  13.155   8.546  11.479
11964PP      PP22068   8.875   4.591  12.199
11965PP      PP22069  13.635   5.040   8.936
11966PP      PP22070  13.574   8.275  13.236
11967PP      PP22071  12.524   8.092  12.369
11968PP      PP22072  15.421   6.424   9.701
11969PP      PP22073   4.553   4.478  11.714
11970PP      PP22074   6.104   3.889  10.256
11971PP      PP22075  12.088   5.683  11.264
11972PP      PP22076  12.248   9.294   1.367
11973PP      PP22077   4.629  11.552   8.902
11974PP      PP22078  13.045   1.501   4.293
11975PP      PP22079  11.388   3.546   9.541
11976PP      PP22080   7.729   9.351   8.933
11977PP      PP22081  11.717   0.555   2.082
11978PP      PP22082  11.666   8.805  12.418
11979PP      PP22083  11.243   8.737  13.121
11980PP      PP22084   6.786  10.653   0.217
11981PP      PP22085   1.565  11.295  12.207
11982PP      PP22086   2.063   5.688   2.663
11983PP      PP22087  11.056  10.784   4.095
11984PP      PP22088   8.678   1.657  12.354
11985PP      PP22089   1.256  11.215   3.665
11986PP      PP22090   9.820  14.853   3.973
11987PP      PP22091  14.444   5.793  12.480
11988PP      PP22092   3.705  15.819   3.662
11989PP      PP22093   5.146  15.115   0.781
11990PP      PP22094  10.963  15.335   2.835
11991PP      PP22095   3.158  12.054   3.589
11992PP      PP22096   6.255   9.151   0.650
11993PP      PP22097   8.382   6.507  12.945
11994PP      PP22098  11.581  11.272   3.313
11995PP      PP22099   2.213  12.083   2.775
11996PP      PP22100  11.855   3.973   3.205
11997PP      PP22101   3.142   6.637   3.202
11998PP      PP22102  11.561  13.687  13.594
11999PP      PP22103  10.472   7.813   2.099
12000PP      PP22104   6.384   6.914  10.390
12001PP      PP22105   9.736   3.072   2.240
12002PP      PP22106   1.846  14.444  11.704
12003PP      PP22107  10.218  11.227   8.484
12004PP      PP22108   7.637   5.057   3.315
12005PP      PP22109  13.164   1.415   2.364
12006PP      PP22110   3.477   3.901   0.677
12007PP      PP22111  14.227   9.378  11.359
12008PP      PP22112   4.068   1.362   4.337
12009PP      PP22113   7.063  13.745   3.014
12010PP      PP22114   1.677   4.521  10.663
12011PP      PP22115   8.400  12.196   0.120
12012PP      PP22116   7.434   9.980  10.543
12013PP      PP22117   7.626  12.557  13.084
12014PP      PP22118   0.087   9.485   9.323
12015PP      PP22119   1.119  11.457  10.110
12016PP      PP22120  12.510   9.665  13.058
12017PP      PP22121   0.269   9.419   4.130
12018PP      PP22122   4.025   7.609   3.631
12019PP      PP22123  11.801  13.187  13.550
12020PP      PP22124   0.822   4.482  10.723
12021PP      PP22125   9.840   7.748   0.133
12022PP      PP22126  10.546  10.071   2.698
12023PP      PP22127   8.153  12.895  11.760
12024PP      PP22128  12.149   1.638   3.772
12025PP      PP22129   1.070   1.458  12.430
12026PP      PP22130   8.787   2.916   9.337
12027PP      PP22131   4.129   8.036  13.109
12028PP      PP22132   6.779   8.219  13.364
12029PP      PP22133   8.666   1.821   9.914
12030PP      PP22134  15.146  11.446  11.592
12031PP      PP22135   5.029   3.170   2.262
12032PP      PP22136   7.102   5.235   0.149
12033PP      PP22137  10.094   9.443   0.193
12034PP      PP22138  14.633   1.211  10.210
12035PP      PP22139   5.426   2.107   3.350
12036PP      PP22140   3.895   3.573   4.525
12037PP      PP22141  10.848   2.654  13.482
12038PP      PP22142   4.898   4.813  12.185
12039PP      PP22143  12.329   1.209  12.781
12040PP      PP22144   4.210  14.890  13.211
12041PP      PP22145   7.878   3.914  10.347
12042PP      PP22146  14.770  12.730   1.164
12043PP      PP22147  11.512  10.134  12.247
12044PP      PP22148   0.573   7.231  10.031
12045PP      PP22149   2.826   7.920   9.752
12046PP      PP22150   3.108   7.140  12.541
12047PP      PP22151   9.795  12.118   9.561
12048PP      PP22152   7.647  14.035  13.581
12049PP      PP22153   0.157   7.568   8.599
12050PP      PP22154  14.922   3.936  10.472
12051PP      PP22155   3.141   1.624  12.977
12052PP      PP22156   4.787  10.389   2.565
12053PP      PP22157  12.517   1.690   4.171
12054PP      PP22158   4.434   8.827   9.962
12055PP      PP22159   5.617  12.481  13.241
12056PP      PP22160   5.705   8.642  12.298
12057PP      PP22161  11.991   9.495  11.548
12058PP      PP22162  12.278  12.144   0.417
12059PP      PP22163   6.460  13.395   0.403
12060PP      PP22164  10.022  11.589   8.177
12061PP      PP22165  14.194  10.778   4.102
12062PP      PP22166  14.911  10.495  10.581
12063PP      PP22167   9.913   6.826   1.262
12064PP      PP22168   3.715   0.539   9.642
12065PP      PP22169   2.554  15.728   1.434
12066PP      PP22170  12.124   5.613   0.125
12067PP      PP22171  14.085   1.017   1.391
12068PP      PP22172  11.858   8.256   9.870
12069PP      PP22173   5.071  12.790   2.348
12070PP      PP22174   9.114  10.000   3.139
12071PP      PP22175   6.268   1.319  11.631
12072PP      PP22176   8.419   6.096   0.632
12073PP      PP22177  14.911   5.556   9.347
12074PP      PP22178   1.016  14.124   9.309
12075PP      PP22179  11.432   5.950   1.663
12076PP      PP22180   5.004   0.437   9.981
12077PP      PP22181   1.376   7.757  12.905
12078PP      PP22182  13.234   0.020  12.036
12079PP      PP22183  14.469  13.735  11.745
12080PP      PP22184  10.678  13.250  13.157
12081PP      PP22185   8.054   4.021  10.835
12082PP      PP22186   8.077  14.996  10.907
12083PP      PP22187   8.361   9.860   4.181
12084PP      PP22188  13.587  15.087   9.486
12085PP      PP22189   8.239   2.833  10.320
12086PP      PP22190  13.249  12.004   4.810
12087PP      PP22191   1.270   4.675  11.807
12088PP      PP22192   6.244   8.578   1.804
12089PP      PP22193  11.861  10.125   2.567
12090PP      PP22194   6.242  10.680   0.385
12091PP      PP22195   5.898   7.883   4.056
12092PP      PP22196   9.374   7.565   1.181
12093PP      PP22197   1.100   5.334   1.183
12094PP      PP22198   8.130  11.213   4.493
12095PP      PP22199  14.620  12.926   4.691
12096PP      PP22200  10.076  10.701  13.401
12097PP      PP22201  14.528   1.739  13.363
12098PP      PP22202  15.138  11.742  12.009
12099PP      PP22203  11.807   7.885  12.721
12100PP      PP22204   9.592   1.585  12.730
12101PP      PP22205   4.104   8.624   2.299
12102PP      PP22206   5.514   3.651  11.054
12103PP      PP22207   2.482  13.444  10.883
12104PP      PP22208   2.297   2.021   2.633
12105PP      PP22209  13.553  11.876   0.039
12106PP      PP22210   8.138   4.209   0.072
12107PP      PP22211   0.107   6.369   0.017
12108PP      PP22212  13.617   4.728   1.440
12109PP      PP22213   8.050   8.082   0.630
12110PP      PP22214  11.780   0.002   3.789
12111PP      PP22215   7.376  10.980   1.592
12112PP      PP22216  11.388   5.975   3.444
12113PP      PP22217   2.242   9.844  11.746
12114PP      PP22218   6.469   8.016   9.895
12115PP      PP22219   4.696   5.558   1.289
12116PP      PP22220   9.159  13.032   2.081
12117PP      PP22221  12.525   0.161   3.349
12118PP      PP22222   6.184   8.860   3.033
12119PP      PP22223  15.110   3.159  12.593
12120PP      PP22224  14.968   4.907  11.597
12121PP      PP22225   4.483   1.619  11.064
12122PP      PP22226  13.301   0.916  10.117
12123PP      PP22227  12.136  13.164  11.606
12124PP      PP22228  13.882   3.343  11.573
12125PP      PP22229  14.282  14.476   3.391
12126PP      PP22230   1.843   3.516  11.358
12127PP      PP22231  13.406   8.918  11.730
12128PP      PP22232  14.037  15.815   9.410
12129PP      PP22233   9.190   4.271   3.257
12130PP      PP22234  13.161   1.423   1.082
12131PP      PP22235   6.020   5.060   8.841
12132PP      PP22236   2.275   3.524   2.483
12133PP      PP22237  10.526   8.648   1.606
12134PP      PP22238  14.786   9.354   2.413
12135PP      PP22239  11.319  11.699   3.058
12136PP      PP22240   5.286   4.423   1.908
12137PP      PP22241   2.414   5.133  13.001
12138PP      PP22242   6.170  15.374  13.602
12139PP      PP22243   4.370   7.907   9.765
12140PP      PP22244   9.571  14.777   2.850
12141PP      PP22245  13.927   8.569   7.922
12142PP      PP22246  11.521  13.407   1.823
12143PP      PP22247  11.068   7.257   1.653
12144PP      PP22248   4.321   5.209  10.486
12145PP      PP22249   6.025   7.032  10.773
12146PP      PP22250   4.808   3.247  13.397
12147PP      PP22251   3.068   2.995   3.794
12148PP      PP22252   0.820   3.408   2.300
12149PP      PP22253   5.495   7.985   0.111
12150PP      PP22254   8.981   2.595   4.249
12151PP      PP22255   0.200   6.456  10.557
12152PP      PP22256   2.326   4.208   8.680
12153PP      PP22257   0.062  13.821  13.506
12154PP      PP22258   4.768  14.257  12.372
12155PP      PP22259   7.415   7.014   2.080
12156PP      PP22260  11.296  11.076  12.552
12157PP      PP22261   1.202   9.031   0.618
12158PP      PP22262  13.144   3.897  11.838
12159PP      PP22263   5.904  14.174  10.886
12160PP      PP22264   6.883   5.672   9.877
12161PP      PP22265  12.291   2.636   3.387
12162PP      PP22266  15.782   5.711  12.827
12163PP      PP22267  13.584   3.114  11.930
12164PP      PP22268   6.986   8.207   3.583
12165PP      PP22269   5.694  10.812   9.205
12166PP      PP22270   8.031  11.945   0.771
12167PP      PP22271   1.766  11.280   3.753
12168PP      PP22272  13.343   6.136   9.846
12169PP      PP22273  11.026  11.291   4.046
12170PP      PP22274   8.304   1.288  12.582
12171PP      PP22275   3.467   8.371   0.661
12172PP      PP22276   9.796  13.932  10.955
12173PP      PP22277   3.439   7.976   2.293
12174PP      PP22278   3.032   2.262  12.340
12175PP      PP22279   9.048  12.584   9.961
12176PP      PP22280  13.250   3.572   9.193
12177PP      PP22281  12.443   0.663  12.569
12178PP      PP22282   4.354   1.197   0.125
12179PP      PP22283   8.322  12.423  12.020
12180PP      PP22284  10.202  11.101   3.570
12181PP      PP22285   7.099   3.492   2.229
12182PP      PP22286  14.706  15.315  10.643
12183PP      PP22287   3.902  10.273  13.520
12184PP      PP22288   7.977   7.368   3.425
12185PP      PP22289  10.625  14.212   0.803
12186PP      PP22290  13.636  11.391   8.831
12187PP      PP22291   8.576  15.448   2.364
12188PP      PP22292   2.679   7.051   0.845
12189PP      PP22293   5.220  15.744  13.287
12190PP      PP22294   9.399  14.707  11.148
12191PP      PP22295   3.644  10.690   7.694
12192PP      PP22296  10.797  13.929  11.960
12193PP      PP22297   6.104   5.905  11.294
12194PP      PP22298   9.952   9.264   2.227
12195PP      PP22299  11.055   9.882  10.283
12196PP      PP22300   8.158   8.184   3.036
12197PP      PP22301  13.010   5.791   1.927
12198PP      PP22302   4.947   8.958  12.847
12199PP      PP22303  15.475   6.657  12.873
12200PP      PP22304   3.660   8.918  11.124
12201PP      PP22305  13.750   2.224   2.266
12202PP      PP22306  11.374   7.940  13.526
12203PP      PP22307  10.038   9.486  10.642
12204PP      PP22308   2.862   8.965   2.645
12205PP      PP22309  11.749  12.757  11.122
12206PP      PP22310   4.518   9.405   3.302
12207PP      PP22311   4.197  13.927   0.103
12208PP      PP22312   7.390   3.114   4.442
12209PP      PP22313  13.818  10.177  11.475
12210PP      PP22314   9.845  14.225   9.925
12211PP      PP22315   1.402   1.835   1.279
12212PP      PP22316  10.667  14.164  12.674
12213PP      PP22317   4.675  14.860   1.917
12214PP      PP22318   9.482   3.295   1.833
12215PP      PP22319   5.554  13.450  12.252
12216PP      PP22320   5.922  12.440   9.134
12217PP      PP22321  12.744   1.462  12.482
12218PP      PP22322  15.670   5.618   3.190
12219PP      PP22323   6.206   9.938   1.970
12220PP      PP22324   5.832   6.164   2.633
12221PP      PP22325  10.676  15.021  13.081
12222PP      PP22326   1.647   3.424  12.781
12223PP      PP22327   3.382  11.049   9.766
12224PP      PP22328  10.008   5.793  10.879
12225PP      PP22329   4.675   7.492   0.739
12226PP      PP22330   1.142  13.674   9.583
12227PP      PP22331   9.312   6.846  13.392
12228PP      PP22332   1.317   1.903   3.000
12229PP      PP22333   5.655  15.458   3.633
12230PP      PP22334   8.760   5.313   2.426
12231PP      PP22335  11.808   5.685   3.497
12232PP      PP22336  13.603  12.000   4.408
12233PP      PP22337  12.438  11.776   9.426
12234PP      PP22338   2.401   5.120   0.360
12235PP      PP22339   5.570  15.080   3.169
12236PP      PP22340  13.000   0.214   1.907
12237PP      PP22341  14.977   5.800   3.528
12238PP      PP22342   6.148   2.488  13.186
12239PP      PP22343   3.688   3.152  13.440
12240PP      PP22344   5.247  11.116  12.703
12241PP      PP22345   0.272   9.927  11.542
12242PP      PP22346  13.987   0.610  11.748
12243PP      PP22347  13.641   1.872  11.137
12244PP      PP22348   0.507   7.214   8.666
12245PP      PP22349  13.419   0.402  10.601
12246PP      PP22350   0.928   7.954   8.660
12247PP      PP22351   9.045   6.865   2.833
12248PP      PP22352   6.211   0.858  10.813
12249PP      PP22353   9.641  15.202   2.537
12250PP      PP22354  14.177   9.782   0.057
12251PP      PP22355   7.352   9.269  13.416
12252PP      PP22356  13.160   7.689   1.518
12253PP      PP22357   2.009  15.538   2.428
12254PP      PP22358   3.835   2.533   3.900
12255PP      PP22359   3.772  12.985   9.122
12256PP      PP22360   2.261  12.241   9.285
12257PP      PP22361  11.409   6.117   0.767
12258PP      PP22362   6.441   7.004  11.452
12259PP      PP22363  13.230  14.409  13.318
12260PP      PP22364   4.731  13.082  13.429
12261PP      PP22365  15.513  11.252  11.917
12262PP      PP22366  14.451  15.121  13.003
12263PP      PP22367  13.449   9.391  10.245
12264PP      PP22368   1.063   6.046  13.327
12265PP      PP22369   9.156   8.998   4.247
12266PP      PP22370   0.763   7.927   2.279
12267PP      PP22371   9.351  10.791  12.736
12268PP      PP22372   8.337   0.869  12.190
12269PP      PP22373   5.804   3.727  13.388
12270PP      PP22374   6.027   6.520   9.347
12271PP      PP22375   4.304   4.539   0.449
12272PP      PP22376  14.741   6.951   9.874
12273PP      PP22377   1.781   3.315   4.663
12274PP      PP22378   6.500   2.991   2.189
12275PP      PP22379   3.287   6.267   1.716
12276PP      PP22380   6.905   0.598   3.455
12277PP      PP22381   9.752   9.105  13.308
12278PP      PP22382  11.619   5.672   4.357
12279PP      PP22383   3.832   2.695  11.887
12280PP      PP22384  15.352   4.625  10.208
12281PP      PP22385   7.208   9.325  12.889
12282PP      PP22386  13.543   1.776   0.883
12283PP      PP22387   2.207   7.079  12.185
12284PP      PP22388   9.761   1.880  13.359
12285PP      PP22389   3.776   3.144   1.553
12286PP      PP22390  13.721   5.751  11.086
12287PP      PP22391   7.683   0.564   5.080
12288PP      PP22392   4.122   1.602   1.668
12289PP      PP22393  10.799   5.318   2.834
12290PP      PP22394  13.297   2.201  10.271
12291PP      PP22395   7.030  14.380   4.228
12292PP      PP22396   4.485  13.397  10.348
12293PP      PP22397   5.014   3.012   1.764
12294PP      PP22398   9.990   8.518   0.169
12295PP      PP22399   2.899  10.856   9.770
12296PP      PP22400   8.831   5.903  12.067
12297PP      PP22401   9.000   3.474  13.040
12298PP      PP22402  15.329   3.094  11.765
12299PP      PP22403   8.170   5.738  10.706
12300PP      PP22404   8.487   9.135   1.824
12301PP      PP22405  14.260   4.643   2.474
12302PP      PP22406  15.002   6.116   0.533
12303PP      PP22407  10.457   7.758  11.293
12304PP      PP22408   7.093  13.203  12.160
12305PP      PP22409   3.190  11.737  11.819
12306PP      PP22410   6.655   5.642   2.148
12307PP      PP22411  11.049   9.596   9.268
12308PP      PP22412   9.893   5.625   9.932
12309PP      PP22413  15.105   8.162   0.601
12310PP      PP22414   7.843   1.215  11.175
12311PP      PP22415  11.637  11.426  12.290
12312PP      PP22416   1.803   9.105  12.295
12313PP      PP22417   7.147  13.602   9.760
12314PP      PP22418   8.312   1.014  11.278
12315PP      PP22419   5.998   0.740   1.098
12316PP      PP22420  14.415  11.650   0.420
12317PP      PP22421  10.523  11.441  12.678
12318PP      PP22422   3.578  13.209  10.066
12319PP      PP22423   8.028   2.391   9.381
12320PP      PP22424   3.984  12.941  12.686
12321PP      PP22425   6.505  11.543   1.861
12322PP      PP22426   6.789  10.647  10.345
12323PP      PP22427   2.977  10.132   2.246
12324PP      PP22428   7.936   4.507   9.589
12325PP      PP22429   9.053  12.168  12.833
12326PP      PP22430   1.096   4.600   3.361
12327PP      PP22431  14.808  11.561  12.381
12328PP      PP22432  10.462   1.009  11.046
12329PP      PP22433   7.499   9.489   3.432
12330PP      PP22434   2.841   1.796  12.021
12331PP      PP22435  15.259  11.097  10.759
12332PP      PP22436   0.213   0.835   3.943
12333PP      PP22437   6.343  13.308  10.295
12334PP      PP22438  14.941  10.495   9.713
12335PP      PP22439  12.361  13.900   2.770
12336PP      PP22440   6.560  14.130  11.712
12337PP      PP22441   8.873  11.631   9.066
12338PP      PP22442   1.187   8.091   1.976
12339PP      PP22443   4.554   3.827  10.871
12340PP      PP22444   7.487  13.171   3.119
12341PP      PP22445   3.240  10.764   9.367
12342PP      PP22446   6.108  13.782   2.693
12343PP      PP22447   9.588   4.624  12.809
12344PP      PP22448   9.921   4.660   9.939
12345PP      PP22449   8.692  13.406   4.339
12346PP      PP22450   8.562   2.093   9.308
12347PP      PP22451  11.542  10.901   2.039
12348PP      PP22452   6.726  11.806  11.543
12349PP      PP22453   3.950  14.154  12.277
12350PP      PP22454   3.491  11.580   9.802
12351PP      PP22455   1.516  15.328   1.636
12352PP      PP22456  13.541   1.305   0.675
12353PP      PP22457   4.730  12.540   0.915
12354PP      PP22458   5.541   3.992   1.058
12355PP      PP22459   7.650   8.419   1.577
12356PP      PP22460   3.588   5.798  11.678
12357PP      PP22461   9.879   0.754   0.506
12358PP      PP22462   7.923   5.013   0.738
12359PP      PP22463   3.592   2.632   3.112
12360PP      PP22464  11.398  15.305   3.636
12361PP      PP22465   3.738  10.705   3.398
12362PP      PP22466  10.929  13.708   0.729
12363PP      PP22467  15.406  10.610  10.526
12364PP      PP22468   0.283   8.194   1.049
12365PP      PP22469   1.700   4.876   3.400
12366PP      PP22470   2.825   6.321  13.029
12367PP      PP22471  14.611   1.789   2.312
12368PP      PP22472   5.856  11.621  11.986
12369PP      PP22473  12.897   6.298   1.893
12370PP      PP22474   1.301   7.148   2.922
12371PP      PP22475   1.680   6.858   1.530
12372PP      PP22476   4.956   3.612   9.069
12373PP      PP22477  13.899   2.380   0.309
12374PP      PP22478  15.576   7.324   9.315
12375PP      PP22479  14.612  14.425  13.232
12376PP      PP22480   5.328  13.430   8.745
12377PP      PP22481   1.626   1.489   4.558
12378PP      PP22482   5.383   9.095   3.567
12379PP      PP22483   9.237   0.236   3.871
12380PP      PP22484  13.921   1.241   9.221
12381PP      PP22485   1.052  11.382  12.164
12382PP      PP22486  15.691  10.302   2.780
12383PP      PP22487   8.456   8.561   2.738
12384PP      PP22488   7.848   7.762   9.858
12385PP      PP22489  12.060   7.706   8.120
12386PP      PP22490   7.084   9.724   2.510
12387PP      PP22491   0.547  13.903   4.235
12388PP      PP22492   3.199   2.936   0.861
12389PP      PP22493   1.895  11.548   0.777
12390PP      PP22494  15.538   1.040   3.286
12391PP      PP22495  10.480  15.012   3.235
12392PP      PP22496   7.968   9.363  10.294
12393PP      PP22497   8.187   0.620  13.586
12394PP      PP22498  12.068  14.529   0.143
12395PP      PP22499  15.499  15.793  13.300
12396PP      PP22500  11.604  10.828   4.038
12397PP      PP22501   9.172  12.244   1.964
12398PP      PP22502  12.655   5.746  11.453
12399PP      PP22503   4.020   1.364  11.886
12400PP      PP22504   8.250   5.783  12.295
12401PP      PP22505  13.820   6.882  10.081
12402PP      PP22506  13.496   6.056   2.695
12403PP      PP22507   2.287   7.777   1.440
12404PP      PP22508   1.201   3.261  13.545
12405PP      PP22509   1.266  14.633   1.195
12406PP      PP22510  11.391   8.871  10.071
12407PP      PP22511   8.161  12.157  11.558
12408PP      PP22512   4.338   5.427   4.093
12409PP      PP22513  13.324  12.844  12.069
12410PP      PP22514   6.416   9.822   1.281
12411PP      PP22515  12.116   9.706   3.901
12412PP      PP22516   9.726   8.557   3.039
12413PP      PP22517   1.601  12.296   1.654
12414PP      PP22518  11.788   3.190  13.170
12415PP      PP22519  11.266   6.224  12.802
12416PP      PP22520   8.694   1.882  11.458
12417PP      PP22521   5.121   1.423   1.464
12418PP      PP22522   3.856   0.124   1.107
12419PP      PP22523   1.799   0.122   2.177
12420PP      PP22524   4.403  12.274  12.223
12421PP      PP22525   9.405   7.701   0.671
12422PP      PP22526   1.355   4.355   4.235
12423PP      PP22527   6.748   0.956   4.187
12424PP      PP22528   4.272   1.139   2.900
12425PP      PP22529   9.436   8.540   1.736
12426PP      PP22530  12.328   9.229   2.626
12427PP      PP22531  14.473   4.392   2.938
12428PP      PP22532  10.514   1.589   2.996
12429PP      PP22533  10.398   5.688  13.518
12430PP      PP22534   3.723   6.086   8.750
12431PP      PP22535   6.566   5.174   0.966
12432PP      PP22536  12.728  13.049   1.794
12433PP      PP22537   9.311  10.731   9.413
12434PP      PP22538  15.206   7.451   0.122
12435PP      PP22539  11.763  15.615   5.049
12436PP      PP22540  13.733   8.415   8.380
12437PP      PP22541  13.872  15.052   9.964
12438PP      PP22542  13.873   9.642   0.459
12439PP      PP22543  14.640  11.872   3.269
12440PP      PP22544   7.612  12.930   9.848
12441PP      PP22545   7.234  14.077  12.563
12442PP      PP22546   6.777   5.360  12.450
12443PP      PP22547  11.173   3.616   8.976
12444PP      PP22548   6.347   9.772  11.159
12445PP      PP22549   9.112  13.178   0.526
12446PP      PP22550   9.336   5.357   9.088
12447PP      PP22551   3.970   4.984   1.338
12448PP      PP22552   5.462   7.188   2.489
12449PP      PP22553   2.136   6.514   3.404
12450PP      PP22554   3.899   0.044  12.760
12451PP      PP22555   4.635   5.481   0.226
12452PP      PP22556   3.479  13.712   0.023
12453PP      PP22557   2.344   1.304   1.590
12454PP      PP22558   8.700  13.770   1.590
12455PP      PP22559   4.679   6.813  12.060
12456PP      PP22560  11.576   3.407  12.736
12457PP      PP22561   1.700   9.739   0.514
12458PP      PP22562  14.372  11.025   4.515
12459PP      PP22563   2.448   2.809  11.387
12460PP      PP22564   0.039   4.124   9.716
12461PP      PP22565  14.126   2.233  13.131
12462PP      PP22566   4.591   5.251   2.808
12463PP      PP22567  11.491   9.073   0.671
12464PP      PP22568   2.192   1.944  13.588
12465PP      PP22569  10.321   2.716   1.527
12466PP      PP22570   7.469   2.178   3.008
12467PP      PP22571  12.582   8.279   3.113
12468PP      PP22572   1.506   4.429   3.096
12469PP      PP22573   9.811   9.106   1.751
12470PP      PP22574  14.727   7.890   1.077
12471PP      PP22575  14.944   4.119   9.527
12472PP      PP22576   4.871  11.458  12.658
12473PP      PP22577  13.811   0.082  10.324
12474PP      PP22578  13.476  13.733  11.513
12475PP      PP22579   1.076   0.474   3.678
12476PP      PP22580  10.324  11.226   2.668
12477PP      PP22581  14.826   8.659  13.075
12478PP      PP22582  14.635  10.599   1.755
12479PP      PP22583   7.831   6.024   9.855
12480PP      PP22584   2.222  15.305  12.151
12481PP      PP22585  12.743  11.128   2.616
12482PP      PP22586  14.738   7.794   1.692
12483PP      PP22587   0.123  13.405  10.765
12484PP      PP22588  10.439  10.356   1.336
12485PP      PP22589   2.334  14.071  13.047
12486PP      PP22590   3.317   3.494  10.661
12487PP      PP22591   8.873   0.775   9.749
12488PP      PP22592  12.278   3.292   9.443
12489PP      PP22593  13.247   0.042   8.664
12490PP      PP22594   2.582  14.639  10.652
12491PP      PP22595   4.599  11.006   0.414
12492PP      PP22596   0.819   8.662   8.565
12493PP      PP22597   8.566   3.812   0.270
12494PP      PP22598  10.349  15.125  11.100
12495PP      PP22599   5.403   6.843   4.307
12496PP      PP22600   6.534   8.910   1.526
12497PP      PP22601   4.231   2.801  13.198
12498PP      PP22602   7.498  15.653   0.463
12499PP      PP22603   9.862   4.619   0.500
12500PP      PP22604  13.897  13.959  10.465
12501PP      PP22605   9.611  11.640   9.653
12502PP      PP22606   0.692  14.043  12.085
12503PP      PP22607  10.388   0.669  11.469
12504PP      PP22608  13.221   8.322   8.458
12505PP      PP22609   2.677  14.427  13.233
12506PP      PP22610   1.516   6.426  11.734
12507PP      PP22611   6.207   5.799   1.276
12508PP      PP22612   1.647   4.080   9.978
12509PP      PP22613   1.629   6.588   0.385
12510PP      PP22614   6.335   0.639   2.348
12511PP      PP22615   9.239   4.365  13.122
12512PP      PP22616   9.573  12.992   3.718
12513PP      PP22617   1.073  14.666   3.820
12514PP      PP22618   9.907   2.742   4.537
12515PP      PP22619   4.257  13.662   1.192
12516PP      PP22620   0.732   2.853  12.618
12517PP      PP22621  13.633   0.335  11.077
12518PP      PP22622  12.913   7.531   1.963
12519PP      PP22623   6.518   4.106   9.543
12520PP      PP22624   8.836  14.184   3.907
12521PP      PP22625   4.534   8.330   3.693
12522PP      PP22626   8.861   4.345   9.516
12523PP      PP22627   2.606  11.108   9.411
12524PP      PP22628  10.098   9.015  12.909
12525PP      PP22629  15.681  11.773  12.788
12526PP      PP22630  11.890   3.607   2.034
12527PP      PP22631  12.992  14.628   2.202
12528PP      PP22632   8.196  15.269  12.002
12529PP      PP22633   4.770   0.372   2.609
12530PP      PP22634  10.479  11.803  11.155
12531PP      PP22635   0.258   1.014   2.608
12532PP      PP22636  14.440   4.047  11.339
12533PP      PP22637   5.265  15.357   2.293
12534PP      PP22638   0.641  11.553   4.482
12535PP      PP22639   1.893  13.664   9.244
12536PP      PP22640   1.816   2.003   2.863
12537PP      PP22641  11.459   2.153   2.031
12538PP      PP22642   0.334  14.645  11.555
12539PP      PP22643   5.889  14.029   3.486
12540PP      PP22644  11.898   5.285  12.748
12541PP      PP22645   3.622   2.308  12.239
12542PP      PP22646  12.532   4.394  13.144
12543PP      PP22647   2.922   2.610   9.389
12544PP      PP22648  12.492  10.188   9.048
12545PP      PP22649   4.569   9.552  13.414
12546PP      PP22650   9.614   2.634   9.909
12547PP      PP22651  10.535  10.609  11.166
12548PP      PP22652   7.410   4.357   1.816
12549PP      PP22653   7.154  10.344  10.121
12550PP      PP22654  15.036   0.610  11.733
12551PP      PP22655   1.523  12.754  13.444
12552PP      PP22656   1.953  15.773   0.129
12553PP      PP22657   8.705   3.033  13.046
12554PP      PP22658  12.625   3.095  11.984
12555PP      PP22659   1.061   6.323   1.044
12556PP      PP22660  10.223   4.935  10.606
12557PP      PP22661   6.467  11.909  13.300
12558PP      PP22662  10.816   0.020  11.392
12559PP      PP22663   6.875   3.060   4.617
12560PP      PP22664  11.177  11.807   1.882
12561PP      PP22665   2.284   2.017  10.877
12562PP      PP22666   1.479   0.444   2.469
12563PP      PP22667  10.099  12.622   2.462
12564PP      PP22668  13.347   7.143   9.736
12565PP      PP22669   7.314   7.158   0.892
12566PP      PP22670   1.156   6.615  12.782
12567PP      PP22671   3.976  13.507  10.211
12568PP      PP22672   2.364   0.653   0.320
12569PP      PP22673  13.212   9.070   2.805
12570PP      PP22674   2.196  14.337   4.534
12571PP      PP22675  14.362   5.332   1.349
12572PP      PP22676   4.631   0.509  11.972
12573PP      PP22677   9.766  15.798   0.200
12574PP      PP22678   3.071   7.442   9.877
12575PP      PP22679  12.594   5.556   4.621
12576PP      PP22680   3.404   0.413   3.636
12577PP      PP22681   4.007   2.213   3.145
12578PP      PP22682   3.607   2.294   3.488
12579PP      PP22683   3.693  13.368   3.090
12580PP      PP22684   1.395  14.353  10.299
12581PP      PP22685   7.434   8.109   2.330
12582PP      PP22686  13.618  15.081   2.135
12583PP      PP22687   4.286   3.288   2.275
12584PP      PP22688  14.827   5.880   4.018
12585PP      PP22689   9.156   7.821  13.064
12586PP      PP22690  10.468   9.347  12.720
12587PP      PP22691   7.839   5.633   3.993
12588PP      PP22692   3.547   7.463   0.342
12589PP      PP22693   0.484  14.959  13.001
12590PP      PP22694   7.231  11.275   9.144
12591PP      PP22695  11.509   7.072   2.862
12592PP      PP22696   1.968  10.789  12.844
12593PP      PP22697   6.704   0.218  11.319
12594PP      PP22698  15.354  14.163   2.191
12595PP      PP22699  12.860  10.653   1.554
12596PP      PP22700   9.865   5.318  10.720
12597PP      PP22701   2.708  15.100   2.879
12598PP      PP22702  15.320  10.683   0.999
12599PP      PP22703   3.602   5.468  11.247
12600PP      PP22704   7.870   3.866   2.877
12601PP      PP22705  11.196  11.426   1.495
12602PP      PP22706  14.348   7.029  10.295
12603PP      PP22707  14.124   3.580   3.219
12604PP      PP22708  11.027   8.185   8.975
12605PP      PP22709   9.383  14.329   5.226
12606PP      PP22710   0.041   3.947   1.472
12607PP      PP22711   9.542  11.956   0.126
12608PP      PP22712   0.201   8.410   0.585
12609PP      PP22713   2.002  13.464   8.781
12610PP      PP22714  11.237  15.093   4.358
12611PP      PP22715   5.617  13.462   3.198
12612PP      PP22716   5.288   8.606   9.007
12613PP      PP22717  15.295  10.079   5.093
12614PP      PP22718  12.515   8.127   0.449
12615PP      PP22719   2.527  12.565  10.167
12616PP      PP22720  10.164  10.256   0.740
12617PP      PP22721  13.629   6.691  12.014
12618PP      PP22722   9.553  15.555   4.702
12619PP      PP22723  12.110   3.558  12.724
12620PP      PP22724   4.573   6.867   1.506
12621PP      PP22725  12.657   3.614  13.542
12622PP      PP22726   9.389  13.347   4.154
12623PP      PP22727  10.888   1.558   1.958
12624PP      PP22728  15.574   8.392  12.808
12625PP      PP22729   5.755   8.526   8.833
12626PP      PP22730  12.920  10.136   1.436
12627PP      PP22731   3.364  11.049   3.570
12628PP      PP22732   1.053   5.593   2.369
12629PP      PP22733  15.141   2.540   2.365
12630PP      PP22734   8.905   6.274   3.163
12631PP      PP22735   7.235   2.221   9.644
12632PP      PP22736   5.470  11.896   9.904
12633PP      PP22737  14.839   4.375  11.359
12634PP      PP22738   7.862   4.341   4.039
12635PP      PP22739   5.854   9.969  12.872
12636PP      PP22740  13.452  10.940   3.979
12637PP      PP22741  13.757  13.788   0.587
12638PP      PP22742  11.161  13.864   3.030
12639PP      PP22743   0.355   5.426  11.962
12640PP      PP22744   2.717   3.326  13.043
12641PP      PP22745   1.198  13.036   1.080
12642PP      PP22746   9.070  15.624   2.012
12643PP      PP22747   2.298   4.752  13.352
12644PP      PP22748   9.406   0.253   0.566
12645PP      PP22749  14.679   0.442  11.361
12646PP      PP22750   2.848   9.535   0.738
12647PP      PP22751   9.871   5.215  12.722
12648PP      PP22752  14.099  10.017  10.370
12649PP      PP22753  13.530   2.612   1.901
12650PP      PP22754   5.086   2.890   1.234
12651PP      PP22755   1.692  10.355   1.766
12652PP      PP22756  14.538  14.179   1.029
12653PP      PP22757   0.596  12.385   1.173
12654PP      PP22758   5.597   9.631   2.383
12655PP      PP22759  13.136  10.270  10.611
12656PP      PP22760  13.709   4.197   9.592
12657PP      PP22761   5.195   1.096   0.922
12658PP      PP22762   6.144   6.802   1.323
12659PP      PP22763   2.456   6.823   1.803
12660PP      PP22764   8.563  13.727   3.935
12661PP      PP22765   9.510  11.535   3.915
12662PP      PP22766   0.905   7.668  10.768
12663PP      PP22767  12.546   1.051  10.816
12664PP      PP22768   8.004   6.484  11.130
12665PP      PP22769  13.864   7.271   0.418
12666PP      PP22770  12.534  13.156   0.491
12667PP      PP22771   3.299   6.276   8.521
12668PP      PP22772   8.238  10.787   1.416
12669PP      PP22773   1.294   9.625   9.942
12670PP      PP22774   6.762  13.381   4.601
12671PP      PP22775   6.757   1.454   1.033
12672PP      PP22776  11.747   0.275   9.478
12673PP      PP22777   7.298  14.207  11.758
12674PP      PP22778   1.243   3.323   1.554
12675PP      PP22779   9.831   1.766   2.807
12676PP      PP22780   5.484   6.558   9.991
12677PP      PP22781  13.181   5.463   3.457
12678PP      PP22782   4.479   5.077   1.264
12679PP      PP22783   0.259  13.875  10.588
12680PP      PP22784  15.145   7.656   2.657
12681PP      PP22785   2.029   3.215  12.517
12682PP      PP22786   0.633  14.357   2.106
12683PP      PP22787  12.236  15.646   3.066
12684PP      PP22788  12.908  12.476  13.420
12685PP      PP22789   4.318  13.317   3.752
12686PP      PP22790  14.060   6.122  12.653
12687PP      PP22791   5.507   3.366   0.949
12688PP      PP22792   5.277   0.065  12.060
12689PP      PP22793   1.027  15.548   4.303
12690PP      PP22794  11.716  13.436   1.340
12691PP      PP22795  12.074  10.981   9.163
12692PP      PP22796   9.992   8.024   9.630
12693PP      PP22797   4.214   3.395   4.170
12694PP      PP22798   4.055   9.458   0.752
12695PP      PP22799   0.761  15.634  11.368
12696PP      PP22800  14.113  10.595   4.693
12697PP      PP22801   5.211   0.914   0.375
12698PP      PP22802   2.948  10.717  12.659
12699PP      PP22803  10.550   8.917   0.894
12700PP      PP22804  11.895  15.126   1.384
12701PP      PP22805  13.635   0.187  12.687
12702PP      PP22806  13.983   7.906   8.654
12703PP      PP22807  15.180   5.445   3.178
12704PP      PP22808   6.043   9.425   2.182
12705PP      PP22809  14.263   5.634   2.191
12706PP      PP22810   3.553  12.061   2.120
12707PP      PP22811   1.626   7.350   4.221
12708PP      PP22812   7.465  14.271   0.798
12709PP      PP22813  10.555  15.340   3.690
12710PP      PP22814  10.896  12.519  10.258
12711PP      PP22815   7.899  10.593  11.758
12712PP      PP22816  14.218   7.293   0.830
12713PP      PP22817  10.047   8.485  10.736
12714PP      PP22818   9.556  10.134   1.794
12715PP      PP22819   7.127   7.409   9.613
12716PP      PP22820   7.808   6.387  10.229
12717PP      PP22821  13.042   1.094  12.230
12718PP      PP22822   7.502   7.679   8.970
12719PP      PP22823   8.081   1.718  12.377
12720PP      PP22824  13.632   6.549   8.515
12721PP      PP22825  11.571   1.585   0.084
12722PP      PP22826   4.305   4.369  10.058
12723PP      PP22827  11.519  11.950  12.613
12724PP      PP22828  14.940   9.225   0.671
12725PP      PP22829  15.760   6.225   1.496
12726PP      PP22830   8.957  14.593   1.300
12727PP      PP22831   9.492  12.566   9.662
12728PP      PP22832   6.425   8.790   1.039
12729PP      PP22833  15.561   8.905  10.552
12730PP      PP22834   6.762   7.385   8.590
12731PP      PP22835   4.751   3.133   4.936
12732PP      PP22836   3.304  14.962  12.827
12733PP      PP22837  13.138   0.520  11.042
12734PP      PP22838   3.914  14.682  12.191
12735PP      PP22839  15.546  12.965   0.244
12736PP      PP22840   9.468   7.366   9.353
12737PP      PP22841   3.039   1.678   9.652
12738PP      PP22842   6.358   2.819   9.602
12739PP      PP22843   1.457  13.439  13.538
12740PP      PP22844   9.620   1.345  13.352
12741PP      PP22845   9.301  13.074   3.259
12742PP      PP22846   4.543  12.032   8.728
12743PP      PP22847  12.622   9.940   3.215
12744PP      PP22848   8.984  13.060  10.269
12745PP      PP22849   5.047   3.996   2.209
12746PP      PP22850  12.721   7.737  10.436
12747PP      PP22851   8.481   6.758   8.887
12748PP      PP22852  13.811   7.409  10.949
12749PP      PP22853  13.314   7.186   2.744
12750PP      PP22854  15.188  10.903  11.670
12751PP      PP22855  10.643  14.976   5.339
12752PP      PP22856   1.002  11.239  12.890
12753PP      PP22857   0.285   5.983   0.304
12754PP      PP22858  10.370   8.331   2.203
12755PP      PP22859   9.796  13.718   1.633
12756PP      PP22860   3.656  13.297   1.403
12757PP      PP22861  12.572   1.005   1.746
12758PP      PP22862   9.666   0.987  11.747
12759PP      PP22863   0.566   5.927   1.848
12760PP      PP22864   6.117  13.826   0.541
12761PP      PP22865   5.014  12.494  11.439
12762PP      PP22866  11.889   9.865   0.719
12763PP      PP22867  12.974  10.999  13.323
12764PP      PP22868  15.109  13.572  13.420
12765PP      PP22869  14.305   9.348  11.875
12766PP      PP22870  10.894   8.427   3.374
12767PP      PP22871   5.940   9.183   0.119
12768PP      PP22872   5.490   6.907   3.794
12769PP      PP22873  11.606   8.671  13.484
12770PP      PP22874  14.096   3.983   4.148
12771PP      PP22875   1.877   1.022   4.495
12772PP      PP22876  10.222   8.649   0.598
12773PP      PP22877   8.638   8.827  10.041
12774PP      PP22878   4.916   2.138   3.280
12775PP      PP22879   3.105   7.034  10.553
12776PP      PP22880  12.650   1.552  10.968
12777PP      PP22881   5.405  11.564   0.019
12778PP      PP22882  13.812   4.280   8.684
12779PP      PP22883   6.625   7.133   9.566
12780PP      PP22884   1.670  12.238   2.728
12781PP      PP22885  14.800  11.119   2.214
12782PP      PP22886   2.206  10.259  12.571
12783PP      PP22887  12.968   8.282   2.159
12784PP      PP22888   0.311   3.259   4.264
12785PP      PP22889   1.444   4.434   9.660
12786PP      PP22890   3.850   5.248   4.010
12787PP      PP22891  12.112   0.269   1.319
12788PP      PP22892   5.657   4.099  12.794
12789PP      PP22893  14.762  14.844  10.288
12790PP      PP22894   0.872   9.987   0.531
12791PP      PP22895   9.726   8.297   1.331
12792PP      PP22896   1.644   5.813   1.682
12793PP      PP22897   4.492   6.025   3.388
12794PP      PP22898  15.322   5.625   4.021
12795PP      PP22899   3.784   8.550   3.220
12796PP      PP22900   9.689   6.150   8.598
12797PP      PP22901   4.408   8.649  13.328
12798PP      PP22902   6.196   4.283  11.767
12799PP      PP22903  13.629   8.974   9.835
12800PP      PP22904  11.762   0.617   1.172
12801PP      PP22905   7.894   5.489   1.368
12802PP      PP22906   1.334  12.134  13.488
12803PP      PP22907   7.067   4.605   1.474
12804PP      PP22908   1.018   6.691   2.764
12805PP      PP22909   0.971   9.813   9.566
12806PP      PP22910   2.996   1.377   2.956
12807PP      PP22911   4.492  12.242  12.739
12808PP      PP22912   1.484   8.142  12.583
12809PP      PP22913  15.180   9.607   0.329
12810PP      PP22914   2.003   2.676  13.136
12811PP      PP22915  14.926  14.964  12.440
12812PP      PP22916  15.495   1.866   9.439
12813PP      PP22917  12.127   7.418  13.552
12814PP      PP22918   6.359  13.570  13.109
12815PP      PP22919   8.819  12.522  11.975
12816PP      PP22920  13.937   9.011   1.117
12817PP      PP22921  14.253   0.200   3.473
12818PP      PP22922   8.660   2.844   9.983
12819PP      PP22923  12.282   3.968  13.471
12820PP      PP22924   4.472   6.053   0.530
12821PP      PP22925   3.363   2.857  11.059
12822PP      PP22926  12.894   7.136   8.485
12823PP      PP22927   4.200   0.950  10.159
12824PP      PP22928  10.714  10.229   3.719
12825PP      PP22929   6.619   2.602  12.942
12826PP      PP22930  10.215  13.984   1.044
12827PP      PP22931   8.767   6.559  10.220
12828PP      PP22932   7.923   0.226  13.308
12829PP      PP22933   9.106   3.081   4.438
12830PP      PP22934  14.700  14.664   0.592
12831PP      PP22935   4.868   9.693  10.835
12832PP      PP22936   7.369   3.673   2.960
12833PP      PP22937  10.118   9.144  12.017
12834PP      PP22938  12.263   5.557  10.093
12835PP      PP22939  15.324   3.887   0.295
12836PP      PP22940  11.318  13.903  11.749
12837PP      PP22941  15.101   7.440  10.210
12838PP      PP22942   0.594  14.968   4.012
12839PP      PP22943   0.991   4.277   9.334
12840PP      PP22944  14.499   3.449   1.798
12841PP      PP22945   6.756  11.057   4.770
12842PP      PP22946   5.236   3.665   1.317
12843PP      PP22947   5.698   3.134  12.333
12844PP      PP22948   5.586   0.167  11.400
12845PP      PP22949   3.706   6.211  11.979
12846PP      PP22950   9.409  13.069  10.612
12847PP      PP22951  12.610   1.904   1.242
12848PP      PP22952  14.957  15.368   9.930
12849PP      PP22953  14.632   8.683   8.884
12850PP      PP22954   4.908  12.142  10.519
12851PP      PP22955  12.167  12.589  12.791
12852PP      PP22956  11.404   5.240  10.815
12853PP      PP22957   7.713   9.809   0.907
12854PP      PP22958  13.951   6.256  12.122
12855PP      PP22959   3.812   4.352  10.231
12856PP      PP22960  10.906  11.327  12.363
12857PP      PP22961  14.504   8.800   3.160
12858PP      PP22962  13.875   1.212  10.705
12859PP      PP22963  13.681   5.882   3.643
12860PP      PP22964  10.528   9.158   2.805
12861PP      PP22965   6.629   5.070   1.497
12862PP      PP22966  13.078  11.164  11.295
12863PP      PP22967   1.973   3.805   3.759
12864PP      PP22968   1.568   9.047   1.005
12865PP      PP22969   6.262  12.288  12.896
12866PP      PP22970   9.411   7.259  11.867
12867PP      PP22971   3.069   7.362   0.626
12868PP      PP22972  12.975   0.750  10.552
12869PP      PP22973   6.247   3.482  13.236
12870PP      PP22974  13.129  15.396   9.462
12871PP      PP22975   7.995   6.283   2.211
12872PP      PP22976  12.841  13.858   3.340
12873PP      PP22977  10.409   9.838  12.517
12874PP      PP22978   3.819   5.215  10.400
12875PP      PP22979  12.788   2.992  13.181
12876PP      PP22980   6.724   7.465  11.312
12877PP      PP22981  10.457  12.595   4.828
12878PP      PP22982   4.651  15.370  10.253
12879PP      PP22983   1.531   0.801   1.064
12880PP      PP22984   0.718   3.645  12.060
12881PP      PP22985  13.501   4.830   4.132
12882PP      PP22986  11.118   6.710  12.655
12883PP      PP22987   1.158   0.373   0.213
12884PP      PP22988  13.022   8.119  10.657
12885PP      PP22989   8.413   6.209   1.868
12886PP      PP22990  14.196  13.364  12.281
12887PP      PP22991  12.144   3.813  12.195
12888PP      PP22992   3.830   8.976  12.235
12889PP      PP22993   8.529   3.409  12.093
12890PP      PP22994   0.869   6.095   1.469
12891PP      PP22995   8.803   7.023   1.182
12892PP      PP22996   5.368   9.486   3.238
12893PP      PP22997   2.418  13.613  10.393
12894PP      PP22998   5.381   2.254   9.311
12895PP      PP22999   6.554  10.201  11.838
12896PP      PP23000   0.187   6.463   0.521
12897PP      PP23001   7.517  14.309   4.023
12898PP      PP23002   5.558   7.581  11.496
12899PP      PP23003   5.073  11.124   2.987
12900PP      PP23004   7.826   5.627   2.617
12901PP      PP23005   1.555   1.015  11.124
12902PP      PP23006   6.044   4.094   3.911
12903PP      PP23007  11.273   0.921   4.210
12904PP      PP23008   2.586   5.065   9.792
12905PP      PP23009   6.109   0.663   9.681
12906PP      PP23010   8.788   2.971  12.537
12907PP      PP23011  12.550  14.856  12.765
12908PP      PP23012  13.321   9.918   8.792
12909PP      PP23013  10.571   3.939  12.062
12910PP      PP23014  13.720  14.175   9.993
12911PP      PP23015   1.779   6.895   3.442
12912PP      PP23016   7.319   9.122  12.405
12913PP      PP23017  12.132   7.391   3.021
12914PP      PP23018  15.212  10.157   1.116
12915PP      PP23019  13.775  12.472   3.106
12916PP      PP23020   6.438   8.917   9.146
12917PP      PP23021   3.458   9.837  12.086
12918PP      PP23022  15.167  10.278  11.831
12919PP      PP23023   4.374   2.453   1.339
12920PP      PP23024  15.531  14.299  12.804
12921PP      PP23025   2.253   7.205   0.552
12922PP      PP23026  12.598   1.749   0.731
12923PP      PP23027  11.078   5.382   9.882
12924PP      PP23028  13.878   4.583  11.091
12925PP      PP23029   7.733   9.600   9.809
12926PP      PP23030   0.763   3.395   9.986
12927PP      PP23031   4.008   2.657   3.436
12928PP      PP23032   0.870   0.641   1.526
12929PP      PP23033  13.691   0.917   1.027
12930PP      PP23034  15.395   1.427   0.840
12931PP      PP23035   2.398   2.365   0.381
12932PP      PP23036   9.739   3.104   9.023
12933PP      PP23037  15.149   7.206   2.367
12934PP      PP23038  13.483  13.087   4.360
12935PP      PP23039  14.541   7.845  11.647
12936PP      PP23040   5.885   3.909   0.275
12937PP      PP23041   6.088   2.833  11.333
12938PP      PP23042   1.336   7.200  11.419
12939PP      PP23043   3.260   3.335   9.129
12940PP      PP23044  12.798   9.778   8.665
12941PP      PP23045   5.791  15.440   9.243
12942PP      PP23046  11.288   5.193   2.339
12943PP      PP23047  13.525  12.741   3.475
12944PP      PP23048   0.536   6.382   2.737
12945PP      PP23049   2.778   5.914   8.866
12946PP      PP23050  12.426  12.621   0.532
12947PP      PP23051   3.067   8.981  10.270
12948PP      PP23052   4.115   6.113  12.306
12949PP      PP23053  13.881   9.668  11.097
12950PP      PP23054   3.919  10.194   1.855
12951PP      PP23055  13.890   7.835   2.216
12952PP      PP23056   3.550  11.799  10.953
12953PP      PP23057   3.678   0.873  11.103
12954PP      PP23058  14.746   4.760   3.238
12955PP      PP23059  14.212  12.150   4.140
12956PP      PP23060   5.126   7.999  12.127
12957PP      PP23061   9.155   2.762   2.723
12958PP      PP23062  13.729  14.285  13.285
12959PP      PP23063   4.070  14.411  13.068
12960PP      PP23064   9.394   1.904   1.460
12961PP      PP23065  14.411   6.519  11.200
12962PP      PP23066   9.236   9.809   1.529
12963PP      PP23067  11.536  13.379   0.405
12964PP      PP23068   8.658  10.571   3.882
12965PP      PP23069   1.693   9.314   1.821
12966PP      PP23070   3.031   5.531  13.453
12967PP      PP23071  15.693   5.488  12.132
12968PP      PP23072  13.140   9.136   9.922
12969PP      PP23073  13.567   8.786  13.116
12970PP      PP23074   4.824   7.562  10.905
12971PP      PP23075   7.478  11.617   3.499
12972PP      PP23076   4.495   5.186   1.778
12973PP      PP23077  12.390   8.747   2.436
12974PP      PP23078   1.353   9.366  12.243
12975PP      PP23079   7.311   0.858   9.653
12976PP      PP23080   9.820   8.717  11.937
12977PP      PP23081   8.552   6.310   2.381
12978PP      PP23082   6.791   1.190   5.048
12979PP      PP23083   2.973   1.016   2.301
12980PP      PP23084   4.244   5.344  11.787
12981PP      PP23085  15.158   6.124   0.017
12982PP      PP23086   3.486  13.720  10.059
12983PP      PP23087   5.564  12.167   3.357
12984PP      PP23088   1.156  12.090   1.379
12985PP      PP23089   9.537   9.564   2.006
12986PP      PP23090   7.684   6.876   0.367
12987PP      PP23091  13.394  14.151   0.612
12988PP      PP23092   7.323   3.101  10.353
12989PP      PP23093   8.504   5.456   0.039
12990PP      PP23094  13.651   4.879   3.634
12991PP      PP23095   9.628   2.711  10.423
12992PP      PP23096   7.302   1.428  11.099
12993PP      PP23097  11.734  10.271  11.744
12994PP      PP23098   8.548  14.475  12.508
12995PP      PP23099   5.959   6.453  12.015
12996PP      PP23100   4.604   1.595   0.401
12997PP      PP23101  10.329   0.262   3.700
12998PP      PP23102  13.767  13.084   1.381
12999PP      PP23103   0.431  15.134   3.214
13000PP      PP23104  11.170   6.643   1.541
13001PP      PP23105   0.534   1.363   3.847
13002PP      PP23106   7.969  13.740   2.371
13003PP      PP23107   2.353  15.358   3.220
13004PP      PP23108   5.842  10.518   4.216
13005PP      PP23109   9.625   8.883   1.310
13006PP      PP23110  12.669  13.314   9.398
13007PP      PP23111  12.341   2.406  10.183
13008PP      PP23112   3.116   9.549   9.164
13009PP      PP23113   1.444  10.484   0.127
13010PP      PP23114   9.251   6.012  10.545
13011PP      PP23115   1.619  13.218  10.880
13012PP      PP23116   5.506   1.824   1.455
13013PP      PP23117   1.269  14.750  11.060
13014PP      PP23118  14.507  11.098   2.648
13015PP      PP23119   0.437  11.123  10.712
13016PP      PP23120   4.281  13.867   9.299
13017PP      PP23121   9.422   7.039  10.611
13018PP      PP23122   6.861   7.139   1.161
13019PP      PP23123   0.971  14.083   2.379
13020PP      PP23124  13.245   0.724   1.167
13021PP      PP23125   2.509  15.390   0.975
13022PP      PP23126   3.202   3.879  13.027
13023PP      PP23127  14.068   9.460   0.900
13024PP      PP23128  15.557  14.177  13.312
13025PP      PP23129  12.852  12.094  10.599
13026PP      PP23130   5.480  11.559  11.185
13027PP      PP23131   3.116  10.837   1.661
13028PP      PP23132   9.205  10.921   2.681
13029PP      PP23133   4.305  12.375  10.198
13030PP      PP23134  13.112   9.571   3.626
13031PP      PP23135   0.564   5.679   8.375
13032PP      PP23136   7.924  12.449  12.431
13033PP      PP23137  14.393  10.231  13.499
13034PP      PP23138   3.300   5.898   9.787
13035PP      PP23139   6.678   1.638   0.563
13036PP      PP23140  14.333   7.819  12.836
13037PP      PP23141   9.341   1.157  12.877
13038PP      PP23142   0.879   6.614   1.562
13039PP      PP23143   3.467   6.250   0.699
13040PP      PP23144  15.717  12.655  11.908
13041PP      PP23145   1.628   1.527   0.948
13042PP      PP23146   1.888  13.069  12.700
13043PP      PP23147  10.839   4.043   2.172
13044PP      PP23148   7.155   2.989   8.867
13045PP      PP23149   9.156  10.374   3.971
13046PP      PP23150   3.896  10.602   8.168
13047PP      PP23151   1.252   2.625  10.080
13048PP      PP23152   6.275   3.106   9.176
13049PP      PP23153   4.271   7.737   2.533
13050PP      PP23154  12.137   3.091  11.201
13051PP      PP23155   2.272   8.878  12.998
13052PP      PP23156   7.818   0.314   2.020
13053PP      PP23157   7.438  14.572   4.489
13054PP      PP23158   9.652  10.931  13.165
13055PP      PP23159   9.684  10.395   3.931
13056PP      PP23160   8.712   1.793  10.897
13057PP      PP23161  13.997   2.478  11.812
13058PP      PP23162   0.227   9.312   8.863
13059PP      PP23163  10.891   7.829  11.584
13060PP      PP23164  14.894   1.527   3.944
13061PP      PP23165   7.110   0.679  10.530
13062PP      PP23166  11.634  14.182   3.377
13063PP      PP23167   0.702  14.846   2.870
13064PP      PP23168   6.374   7.100   1.672
13065PP      PP23169  15.752   3.067  12.101
13066PP      PP23170  15.629   6.834   3.756
13067PP      PP23171   7.091  15.010   1.425
13068PP      PP23172   5.655  12.767   9.447
13069PP      PP23173  11.518   7.018   1.751
13070PP      PP23174   9.471   6.453  11.446
13071PP      PP23175   6.181   8.882   9.616
13072PP      PP23176   9.862   4.164  10.138
13073PP      PP23177  13.145   5.609   2.969
13074PP      PP23178   4.557   0.571  10.222
13075PP      PP23179  13.437  14.569   1.461
13076PP      PP23180   5.582   4.071   1.587
13077PP      PP23181   1.156   8.858   3.082
13078PP      PP23182   5.617   5.677  12.640
13079PP      PP23183   1.199  15.571  10.812
13080PP      PP23184   6.857  12.823  10.916
13081PP      PP23185   6.754  11.147  10.223
13082PP      PP23186   3.369   8.415  11.053
13083PP      PP23187   4.495  12.753  10.510
13084PP      PP23188   4.640   8.120  13.119
13085PP      PP23189  10.301  12.262   9.450
13086PP      PP23190  15.280   8.902   0.940
13087PP      PP23191   7.264   4.756  10.137
13088PP      PP23192   5.973  10.645   9.684
13089PP      PP23193  14.712   9.806  13.432
13090PP      PP23194  12.629  15.556  10.766
13091PP      PP23195  12.591   7.512  13.291
13092PP      PP23196   0.117   4.857   2.033
13093PP      PP23197   0.100   8.792  11.718
13094PP      PP23198   5.807  14.413  12.726
13095PP      PP23199  10.535   2.238   0.869
13096PP      PP23200  10.857  12.282   3.362
13097PP      PP23201  13.373   3.601  10.435
13098PP      PP23202   2.838  10.057   2.757
13099PP      PP23203  10.223  14.855   4.595
13100PP      PP23204   0.104   5.494  13.350
13101PP      PP23205  10.899   7.880  13.336
13102PP      PP23206  10.849  11.290  10.638
13103PP      PP23207   4.015  11.444  11.256
13104PP      PP23208   7.208  14.705   3.831
13105PP      PP23209   9.438  14.699   4.306
13106PP      PP23210   0.427   0.417  10.346
13107PP      PP23211   0.587   2.370   1.953
13108PP      PP23212  15.483  11.301   9.775
13109PP      PP23213   9.874  15.715   4.321
13110PP      PP23214  15.477  12.936  11.514
13111PP      PP23215  10.253   8.186   1.508
13112PP      PP23216   3.010   9.807  10.643
13113PP      PP23217   4.093   3.125   9.730
13114PP      PP23218   8.838   2.387   5.115
13115PP      PP23219  12.868  11.604  11.504
13116PP      PP23220  13.871  10.175   9.780
13117PP      PP23221  12.975   5.064   8.635
13118PP      PP23222   6.688   7.305  13.280
13119PP      PP23223   8.152  10.627   0.904
13120PP      PP23224   3.692  11.989  10.133
13121PP      PP23225   2.681   2.038   4.269
13122PP      PP23226  15.212  10.109   1.947
13123PP      PP23227   9.479   6.366   3.737
13124PP      PP23228  10.952  12.682   1.908
13125PP      PP23229  12.190  12.727   4.215
13126PP      PP23230   3.478   5.410  10.733
13127PP      PP23231   4.980   8.798  10.018
13128PP      PP23232   9.054  10.719   0.992
13129PP      PP23233  13.012   7.704  13.537
13130PP      PP23234   5.648  15.312   0.793
13131PP      PP23235  13.813   0.065  11.741
13132PP      PP23236   1.541  11.892  11.253
13133PP      PP23237   6.741   3.224   0.253
13134PP      PP23238   5.342  11.705  10.370
13135PP      PP23239   9.653  10.904  10.478
13136PP      PP23240   3.459  12.821  12.800
13137PP      PP23241   7.912   2.755  12.494
13138PP      PP23242   4.283   2.744   2.445
13139PP      PP23243   3.139  12.342   9.232
13140PP      PP23244  10.393  15.522  13.041
13141PP      PP23245   0.871   2.744  11.754
13142PP      PP23246  11.376   3.529  13.253
13143PP      PP23247   5.074   2.247   3.812
13144PP      PP23248  11.086   0.786   0.056
13145PP      PP23249  11.058   7.175   2.607
13146PP      PP23250   2.257  13.024  12.295
13147PP      PP23251  13.194   4.404   9.873
13148PP      PP23252   8.461  13.958  12.252
13149PP      PP23253   0.726  12.231  10.516
13150PP      PP23254  14.285   8.941  13.582
13151PP      PP23255   2.269   5.364   2.118
13152PP      PP23256   3.020  10.546  11.698
13153PP      PP23257  13.607   7.849   0.590
13154PP      PP23258   6.135   4.379   2.896
13155PP      PP23259   2.986   0.068   0.465
13156PP      PP23260  12.111   5.750  12.882
13157PP      PP23261   7.892  12.124   1.244
13158PP      PP23262   1.818  11.647  11.883
13159PP      PP23263   2.517   8.071   0.603
13160PP      PP23264  11.815  12.025   1.914
13161PP      PP23265  14.053  14.962  11.775
13162PP      PP23266  12.999   6.456   2.440
13163PP      PP23267   7.033   9.842  10.067
13164PP      PP23268   6.249   1.314  10.564
13165PP      PP23269   8.084   0.665   1.215
13166PP      PP23270   2.611  11.036  10.400
13167PP      PP23271   5.921  12.905  11.546
13168PP      PP23272   1.612  11.415   0.303
13169PP      PP23273   5.915  12.398   2.394
13170PP      PP23274   6.422  11.916  10.241
13171PP      PP23275   2.754   2.583   0.689
13172PP      PP23276   8.534  15.524  13.435
13173PP      PP23277  10.743   6.503   1.074
13174PP      PP23278  15.181   1.153   4.521
13175PP      PP23279   1.325   7.296   9.211
13176PP      PP23280   6.809   8.615   0.365
13177PP      PP23281   0.242   2.893  12.461
13178PP      PP23282   1.959  15.736  13.212
13179PP      PP23283  10.147  11.584   0.757
13180PP      PP23284   1.168   5.917   0.208
13181PP      PP23285   5.940   9.954  10.044
13182PP      PP23286  10.699   1.238   4.109
13183PP      PP23287   7.843  11.812   2.607
13184PP      PP23288   6.928  14.561  10.459
13185PP      PP23289  10.599   4.702   8.902
13186PP      PP23290   8.714  11.699  10.036
13187PP      PP23291  15.555   9.131  13.440
13188PP      PP23292  12.504  13.750  11.331
13189PP      PP23293   5.438   4.517   1.332
13190PP      PP23294  13.287  13.157   1.623
13191PP      PP23295   2.788   6.789   2.266
13192PP      PP23296  14.954   6.714   4.031
13193PP      PP23297   3.088  13.185   1.216
13194PP      PP23298   8.234  12.977   1.357
13195PP      PP23299   4.999   2.623  11.935
13196PP      PP23300   7.481  11.196  10.882
13197PP      PP23301   0.740  11.243   3.624
13198PP      PP23302   8.274   6.126   4.654
13199PP      PP23303   3.138  13.079   8.950
13200PP      PP23304   0.135  11.618   3.020
13201PP      PP23305   5.720   3.282  13.132
13202PP      PP23306   9.195   9.940   9.927
13203PP      PP23307  15.770   3.098  13.377
13204PP      PP23308   9.727   2.453  11.400
13205PP      PP23309   6.083   4.871  12.648
13206PP      PP23310  13.203   8.735   1.981
13207PP      PP23311   6.534   8.965  12.318
13208PP      PP23312  12.003  13.722  11.188
13209PP      PP23313   3.425   3.097   0.333
13210PP      PP23314   5.577   9.232   2.006
13211PP      PP23315  15.277   1.455   3.105
13212PP      PP23316  13.330  10.598   9.518
13213PP      PP23317  11.666  11.010   9.660
13214PP      PP23318  11.809   2.001   0.317
13215PP      PP23319  14.094  13.031   4.914
13216PP      PP23320   4.965   2.876   0.250
13217PP      PP23321   7.694   2.554  12.946
13218PP      PP23322   2.317  15.474   9.634
13219PP      PP23323   8.712   2.727   0.228
13220PP      PP23324   4.856   1.044   3.488
13221PP      PP23325  11.193   3.443  11.246
13222PP      PP23326   0.731   9.187   8.761
13223PP      PP23327   4.745  15.395   0.473
13224PP      PP23328   4.133   3.433  11.155
13225PP      PP23329  13.750  15.638   2.696
13226PP      PP23330  10.947  14.593  12.833
13227PP      PP23331  14.824   7.953  10.808
13228PP      PP23332   1.841   1.312  12.930
13229PP      PP23333  13.746  15.591   2.161
13230PP      PP23334   5.478   0.622   0.032
13231PP      PP23335   3.106  15.288   4.501
13232PP      PP23336  14.110  14.205   0.730
13233PP      PP23337   1.710   7.346  12.036
13234PP      PP23338   3.960  13.290   0.994
13235PP      PP23339   2.502   2.968   2.154
13236PP      PP23340   7.528  10.302   3.049
13237PP      PP23341  14.801   5.742   0.191
13238PP      PP23342  11.410   2.327   1.144
13239PP      PP23343   1.897   7.895  10.376
13240PP      PP23344   1.543  13.938   0.565
13241PP      PP23345   8.580   8.944  13.243
13242PP      PP23346   9.744   5.807  10.433
13243PP      PP23347  11.889  14.071   2.025
13244PP      PP23348  15.455  11.264  10.309
13245PP      PP23349   5.815   2.092  10.250
13246PP      PP23350   8.814  12.585  13.569
13247PP      PP23351  14.251   8.818   2.686
13248PP      PP23352  15.351  15.186   2.250
13249PP      PP23353   1.575  13.870  10.291
13250PP      PP23354  11.553  12.366  10.803
13251PP      PP23355  10.162  12.562   5.330
13252PP      PP23356   6.962   5.752  11.030
13253PP      PP23357   7.354   2.550   3.888
13254PP      PP23358   4.643   3.095   2.629
13255PP      PP23359   9.973   4.900  13.128
13256PP      PP23360  10.752   4.718   9.762
13257PP      PP23361   1.025   4.648   4.978
13258PP      PP23362   8.882  14.546  13.456
13259PP      PP23363   4.879   9.890   8.974
13260PP      PP23364  11.892   6.125   4.346
13261PP      PP23365   0.370  15.090  10.713
13262PP      PP23366  10.850   1.910  13.575
13263PP      PP23367   3.089  13.512   2.417
13264PP      PP23368  11.618   5.275   9.914
13265PP      PP23369   0.106  12.557  11.158
13266PP      PP23370   9.448  10.634  10.933
13267PP      PP23371   1.993  11.124   0.503
13268PP      PP23372  12.688   6.412   1.219
13269PP      PP23373   5.951   9.068   1.088
13270PP      PP23374   2.497   3.280   1.295
13271PP      PP23375  13.595   2.732  10.985
13272PP      PP23376  15.561   9.123  11.540
13273PP      PP23377   1.794   6.305   2.466
13274PP      PP23378   1.211   2.422   1.271
13275PP      PP23379   9.090  15.551  11.748
13276PP      PP23380   3.340   4.480   0.072
13277PP      PP23381   8.507  11.178   9.646
13278PP      PP23382  15.744   2.318  10.988
13279PP      PP23383  13.291   5.963  13.246
13280PP      PP23384  12.911  11.684  12.028
13281PP      PP23385   7.040  12.207  11.879
13282PP      PP23386  15.563   9.843   9.413
13283PP      PP23387  10.708   5.525   9.414
13284PP      PP23388   8.502  11.000  10.779
13285PP      PP23389   9.954   3.915  11.202
13286PP      PP23390   4.888   2.681   4.046
13287PP      PP23391  11.462  12.209   8.840
13288PP      PP23392   8.105   7.133  10.745
13289PP      PP23393  13.922   4.250   0.673
13290PP      PP23394   7.629  14.940   1.360
13291PP      PP23395   1.049  11.819  11.842
13292PP      PP23396  11.665  11.022   0.789
13293PP      PP23397  13.683  12.692   2.620
13294PP      PP23398   9.105   5.516   8.658
13295PP      PP23399   4.613  11.122   8.042
13296PP      PP23400  12.027   6.036  10.898
13297PP      PP23401  10.167  11.982   9.901
13298PP      PP23402   8.082  15.208  11.418
13299PP      PP23403   8.035   0.785  10.878
13300PP      PP23404   0.899   3.357  10.937
13301PP      PP23405   0.428  11.791   9.709
13302PP      PP23406   2.418   3.539  13.406
13303PP      PP23407  15.816  14.564   4.083
13304PP      PP23408   4.866  14.364   2.413
13305PP      PP23409  12.440   0.126   2.692
13306PP      PP23410  15.168   6.710  10.726
13307PP      PP23411  10.900  12.862  13.444
13308PP      PP23412   7.814  14.439   0.445
13309PP      PP23413   6.325  12.676  12.536
13310PP      PP23414   2.189   6.052   4.181
13311PP      PP23415  12.451   0.698  10.435
13312PP      PP23416  11.121  13.127  11.287
13313PP      PP23417  10.635   0.183   4.209
13314PP      PP23418  10.398  13.480   9.893
13315PP      PP23419   4.269   3.248   4.723
13316PP      PP23420  13.135  14.131  12.875
13317PP      PP23421   0.027  15.376  11.970
13318PP      PP23422   3.744   8.583  10.725
13319PP      PP23423   2.114   4.918   3.761
13320PP      PP23424   3.788   4.031  11.511
13321PP      PP23425   4.182  14.192   0.563
13322PP      PP23426  14.111   8.884  11.096
13323PP      PP23427   7.559  10.656  10.835
13324PP      PP23428  14.071   6.138   2.233
13325PP      PP23429  13.470  11.856  13.120
13326PP      PP23430   9.665   7.707  11.941
13327PP      PP23431   9.274  10.153  10.779
13328PP      PP23432  14.666   9.949   0.344
13329PP      PP23433  15.611   4.744   3.654
13330PP      PP23434  14.463  13.340   1.886
13331PP      PP23435   9.965   3.993   2.345
13332PP      PP23436  10.896   5.988  11.964
13333PP      PP23437   1.196   5.402  12.430
13334PP      PP23438   0.440   8.514  13.498
13335PP      PP23439  12.156  15.397   0.517
13336PP      PP23440   0.065   8.726   2.369
13337PP      PP23441  11.287   5.855  10.101
13338PP      PP23442  10.406   2.371   2.268
13339PP      PP23443   8.351   9.827   2.972
13340PP      PP23444   3.416   8.175   9.012
13341PP      PP23445   8.059   0.300  11.707
13342PP      PP23446   7.338   6.190   9.017
13343PP      PP23447   9.684   0.544  13.215
13344PP      PP23448  14.592  10.487   8.814
13345PP      PP23449   1.511  11.622   3.441
13346PP      PP23450  14.151   1.204   3.302
13347PP      PP23451   6.555  10.552   3.109
13348PP      PP23452   8.068  12.396   9.894
13349PP      PP23453  11.320   3.693   2.050
13350PP      PP23454   3.559   1.675   9.637
13351PP      PP23455  11.100  13.637   0.241
13352PP      PP23456  12.197   8.605   9.623
13353PP      PP23457  11.419  14.470   2.722
13354PP      PP23458   4.673   6.195  10.163
13355PP      PP23459   6.429  11.568   2.874
13356PP      PP23460   4.365  14.171   9.711
13357PP      PP23461  11.247   6.818   4.309
13358PP      PP23462  13.366   7.876   2.024
13359PP      PP23463   6.683  11.893  12.061
13360PP      PP23464  13.598  14.054   2.154
13361PP      PP23465   0.845   3.218   2.787
13362PP      PP23466   6.017  13.853  11.549
13363PP      PP23467  12.544  14.788   4.254
13364PP      PP23468  15.183   1.598   2.125
13365PP      PP23469   2.787   0.144   9.863
13366PP      PP23470  12.747   3.739   9.372
13367PP      PP23471   2.101  10.053   0.799
13368PP      PP23472   9.806   0.931   0.003
13369PP      PP23473   8.493  15.702  10.950
13370PP      PP23474   1.834   8.582  11.485
13371PP      PP23475   0.806   1.303   3.410
13372PP      PP23476  10.095   1.252   0.317
13373PP      PP23477  15.745  14.913   2.096
13374PP      PP23478   3.295   1.322   9.913
13375PP      PP23479  10.929   9.420   2.065
13376PP      PP23480  11.468   2.119   3.049
13377PP      PP23481   9.097  11.873   3.774
13378PP      PP23482   3.370   6.490  12.420
13379PP      PP23483  15.405  14.740  13.108
13380PP      PP23484  15.738  13.502   0.347
13381PP      PP23485   7.760   8.876  11.592
13382PP      PP23486   2.508   3.412  12.435
13383PP      PP23487  10.698  11.969   9.276
13384PP      PP23488   2.923  11.408   8.645
13385PP      PP23489   0.001   3.060   2.125
13386PP      PP23490   8.437   7.075   2.727
13387PP      PP23491   2.835  13.098   2.613
13388PP      PP23492   6.938   6.145  11.614
13389PP      PP23493   5.283  12.666   9.827
13390PP      PP23494   6.961  11.333  11.011
13391PP      PP23495   3.246   1.916   3.434
13392PP      PP23496   1.061   8.344   2.420
13393PP      PP23497   3.759  10.315   0.459
13394PP      PP23498   8.583  11.397   3.556
13395PP      PP23499   7.112   2.667  10.018
13396PP      PP23500  12.388   0.781   3.826
13397PP      PP23501  13.581  11.029  11.382
13398PP      PP23502  13.570   6.344   2.258
13399PP      PP23503  14.315   1.184   8.906
13400PP      PP23504   4.050  15.656   3.075
13401PP      PP23505   7.782  15.497   4.212
13402PP      PP23506   1.610   8.062  11.651
13403PP      PP23507   5.793  13.183   8.597
13404PP      PP23508  10.112   3.050  12.516
13405PP      PP23509  15.794   4.218   3.322
13406PP      PP23510   6.293  12.180   2.116
13407PP      PP23511  13.440  14.466   2.988
13408PP      PP23512   0.322  11.651  10.811
13409PP      PP23513   6.944   6.202  10.767
13410PP      PP23514   3.292   0.824   9.781
13411PP      PP23515  15.105   5.909   2.510
13412PP      PP23516   2.075  12.690   9.416
13413PP      PP23517   5.594  12.624   2.043
13414PP      PP23518   7.750  11.329   2.385
13415PP      PP23519  14.307   5.129   0.824
13416PP      PP23520   9.212  11.515  12.258
13417PP      PP23521   0.190  11.173   8.863
13418PP      PP23522   1.225  12.059   4.276
13419PP      PP23523   1.658  14.906   9.304
13420PP      PP23524   0.690   3.904   2.233
13421PP      PP23525  11.196  11.476  11.924
13422PP      PP23526   6.841  10.722   4.360
13423PP      PP23527   1.873  10.586   2.555
13424PP      PP23528  11.482   1.169   9.961
13425PP      PP23529   9.077   6.091   2.290
13426PP      PP23530  11.130   3.949  11.968
13427PP      PP23531   2.510   7.657   2.593
13428PP      PP23532   2.583   2.442   2.005
13429PP      PP23533   7.716   1.462   9.244
13430PP      PP23534   3.697   9.509  12.943
13431PP      PP23535   4.125  12.023   0.566
13432PP      PP23536   1.435   7.578   0.529
13433PP      PP23537   1.865   5.272   2.440
13434PP      PP23538   7.561   8.843   9.118
13435PP      PP23539  13.451  14.592  12.199
13436PP      PP23540   8.250  13.019   4.633
13437PP      PP23541   7.480   8.670  11.974
13438PP      PP23542  14.725   3.748   3.508
13439PP      PP23543   6.809   9.682  12.881
13440PP      PP23544  12.631  14.815   1.870
13441PP      PP23545  12.201   2.131   3.084
13442PP      PP23546   4.862   6.175   1.211
13443PP      PP23547   3.677   0.555   1.972
13444PP      PP23548   3.088  13.189  10.252
13445PP      PP23549  14.499   3.609   4.154
13446PP      PP23550   7.377   9.960   4.401
13447PP      PP23551  14.638   5.555   8.428
13448PP      PP23552   0.656   0.278   0.055
13449PP      PP23553  12.638   2.590  12.089
13450PP      PP23554  10.534   1.209  11.570
13451PP      PP23555   2.878   4.813   0.411
13452PP      PP23556   4.081   7.196   2.051
13453PP      PP23557  10.135  10.502   2.680
13454PP      PP23558   0.940  11.508   9.018
13455PP      PP23559   1.856   7.160   9.335
13456PP      PP23560  13.051   0.836   2.562
13457PP      PP23561   5.321   4.563   9.352
13458PP      PP23562   2.037  11.188   3.282
13459PP      PP23563  11.404  12.118   0.267
13460PP      PP23564   8.306  12.703  12.826
13461PP      PP23565  11.505  13.382  13.000
13462PP      PP23566   1.637   0.017   1.671
13463PP      PP23567   0.763  15.480   0.678
13464PP      PP23568  13.390  12.068  12.642
13465PP      PP23569   4.762   9.575   9.447
13466PP      PP23570   9.607  14.493   0.343
13467PP      PP23571  13.311   1.153   9.100
13468PP      PP23572  14.900   1.735  12.145
13469PP      PP23573   1.713   8.250   8.333
13470PP      PP23574   9.086   0.866  11.045
13471PP      PP23575  15.324   2.522  11.223
13472PP      PP23576   1.912  15.128   0.852
13473PP      PP23577  11.815   4.202  13.587
13474PP      PP23578   4.088   3.215   2.762
13475PP      PP23579  14.707  12.469   0.432
13476PP      PP23580   5.413   7.422   1.376
13477PP      PP23581   2.639  11.061  13.182
13478PP      PP23582   8.588   3.164   4.390
13479PP      PP23583  12.429   2.673  12.585
13480PP      PP23584   7.253   8.975   0.761
13481PP      PP23585   1.437   4.925   1.988
13482PP      PP23586  12.465  10.400  11.675
13483PP      PP23587   4.376   2.399   9.020
13484PP      PP23588  11.749   2.773  11.390
13485PP      PP23589   0.351  10.874   1.546
13486PP      PP23590   4.981  14.056   0.148
13487PP      PP23591  10.208   4.379   2.042
13488PP      PP23592   1.286   4.249  10.890
13489PP      PP23593   2.493   3.856   0.539
13490PP      PP23594  11.013   8.241   0.389
13491PP      PP23595   0.563   7.924   3.221
13492PP      PP23596  11.283   8.299   9.907
13493PP      PP23597   3.551   9.309   0.952
13494PP      PP23598  12.786  15.523  11.404
13495PP      PP23599   9.721   4.939  11.983
13496PP      PP23600  14.840  10.540  11.493
13497PP      PP23601   7.490   8.023   1.216
13498PP      PP23602   8.324   4.336   3.747
13499PP      PP23603  15.016   1.962   9.625
13500PP      PP23604  12.477  11.246   9.401
13501PP      PP23605  10.257  12.593  11.438
13502PP      PP23606  12.260   3.715   0.350
13503PP      PP23607   7.625  12.712   2.435
13504PP      PP23608   1.476   9.478  13.176
13505PP      PP23609  10.094   3.399   8.772
13506PP      PP23610   0.839  12.340   4.020
13507PP      PP23611   4.097   9.217  11.154
13508PP      PP23612   9.029   3.336   3.235
13509PP      PP23613   3.905   8.987  11.590
13510PP      PP23614  14.079   4.921  12.282
13511PP      PP23615   1.969   3.830   2.856
13512PP      PP23616   1.594   0.933   0.554
13513PP      PP23617   5.831  10.950   0.685
13514PP      PP23618  15.152   4.294  13.581
13515PP      PP23619   8.530  15.681   4.721
13516PP      PP23620  12.142   4.331  12.541
13517PP      PP23621  12.770   2.382   9.156
13518PP      PP23622  10.172   1.808   3.807
13519PP      PP23623   4.588   0.868   9.789
13520PP      PP23624  15.113  11.953   1.500
13521PP      PP23625   3.872   1.070  13.537
13522PP      PP23626  12.182  10.888   9.680
13523PP      PP23627  15.063  10.695   2.032
13524PP      PP23628  11.171  12.064   1.421
13525PP      PP23629   8.937   8.690   2.557
13526PP      PP23630  14.988   1.658   0.597
13527PP      PP23631  15.479   4.147  10.438
13528PP      PP23632   2.149   8.639   9.154
13529PP      PP23633   6.829  11.429  12.184
13530PP      PP23634   5.815   3.506  11.498
13531PP      PP23635  10.764  10.812   9.465
13532PP      PP23636   1.522  11.448   2.421
13533PP      PP23637   5.031   1.731   1.067
13534PP      PP23638   5.518   3.311   9.414
13535PP      PP23639  15.408   0.449  10.730
13536PP      PP23640   8.798   7.797   1.402
13537PP      PP23641   0.787  11.219   1.490
13538PP      PP23642   1.013  15.243  10.021
13539PP      PP23643   5.058   7.263  13.481
13540PP      PP23644   8.413   9.917   1.150
13541PP      PP23645  13.038  14.579  10.433
13542PP      PP23646  13.298  12.247   8.625
13543PP      PP23647   8.687  12.428  11.010
13544PP      PP23648   2.674  14.577   2.867
13545PP      PP23649   5.977  13.171   9.462
13546PP      PP23650  14.882   9.667  12.053
13547PP      PP23651   3.429  10.677  11.423
13548PP      PP23652   0.377   7.190   0.032
13549PP      PP23653   1.851  14.169   4.929
13550PP      PP23654  10.555   9.874  10.534
13551PP      PP23655   6.453   8.865   4.036
13552PP      PP23656   2.284  13.854   2.939
13553PP      PP23657   7.358   7.938   9.752
13554PP      PP23658  11.554   9.229  10.597
13555PP      PP23659  13.964   4.075  12.034
13556PP      PP23660   7.434   6.131   1.757
13557PP      PP23661  14.805   6.442  13.284
13558PP      PP23662   3.063   2.069   3.937
13559PP      PP23663   4.149  11.182   1.965
13560PP      PP23664   1.282   8.603   8.287
13561PP      PP23665  13.178   5.644   9.904
13562PP      PP23666   8.940  12.815   3.557
13563PP      PP23667   9.784   2.243  12.302
13564PP      PP23668  10.150   8.139  13.449
13565PP      PP23669   2.570  14.087   0.411
13566PP      PP23670   8.854   1.267   9.958
13567PP      PP23671   9.290   1.742  12.011
13568PP      PP23672   9.209  12.770  12.209
13569PP      PP23673   1.714  10.351  12.753
13570PP      PP23674  15.226   9.489   8.448
13571PP      PP23675  15.000  10.260   0.632
13572PP      PP23676   5.908  10.524   1.251
13573PP      PP23677   6.385  15.676  11.135
13574PP      PP23678  14.123   6.420   4.383
13575PP      PP23679  13.617  12.347   1.944
13576PP      PP23680   8.451   1.569   5.024
13577PP      PP23681   6.329   2.298   1.696
13578PP      PP23682  13.401   9.085   9.063
13579PP      PP23683  10.814   0.119   9.602
13580PP      PP23684  13.696   1.444  13.009
13581PP      PP23685  13.971   6.786   0.244
13582PP      PP23686  10.099   1.305   3.215
13583PP      PP23687   3.789   1.798  12.106
13584PP      PP23688   5.805  13.862  12.046
13585PP      PP23689  12.626  15.058  11.604
13586PP      PP23690   5.767   7.618   8.442
13587PP      PP23691   9.081  14.329   2.402
13588PP      PP23692  11.302   7.852   2.176
13589PP      PP23693   8.426   2.178  11.097
13590PP      PP23694  14.501   3.268  10.923
13591PP      PP23695  12.723  13.001  13.521
13592PP      PP23696   6.971   5.243   2.289
13593PP      PP23697   4.932  15.678  12.403
13594PP      PP23698   1.688   7.943   9.733
13595PP      PP23699   7.365   3.962  10.148
13596PP      PP23700  11.241   8.689   2.205
13597PP      PP23701   7.636   4.361   0.031
13598PP      PP23702  11.120   2.486   1.567
13599PP      PP23703  10.591  12.684   9.521
13600PP      PP23704   2.918   6.188  11.194
13601PP      PP23705  14.268   2.653  12.268
13602PP      PP23706   1.840   7.401  10.512
13603PP      PP23707  12.214   6.872   9.158
13604PP      PP23708   9.164   1.772   2.967
13605PP      PP23709   3.967   6.829   2.939
13606PP      PP23710   1.152  14.876  11.989
13607PP      PP23711  13.821   9.619  10.573
13608PP      PP23712  10.926   4.131  12.409
13609PP      PP23713   4.831  11.230  13.112
13610PP      PP23714  14.318   3.083   0.462
13611PP      PP23715   2.677  10.053   1.500
13612PP      PP23716  15.739  12.134   2.215
13613PP      PP23717   6.352  11.941  10.751
13614PP      PP23718   6.652  15.570   2.930
13615PP      PP23719   3.937  10.639   8.706
13616PP      PP23720   8.098  14.343   1.749
13617PP      PP23721   5.316   5.928  13.005
13618PP      PP23722  13.489   8.377   9.750
13619PP      PP23723  12.895   3.149   3.069
13620PP      PP23724   5.379   2.472   4.752
13621PP      PP23725   1.839  12.329  13.484
13622PP      PP23726   1.188   1.988  12.552
13623PP      PP23727   5.290  13.579   1.090
13624PP      PP23728   7.833   5.487   0.499
13625PP      PP23729   2.477   4.731   0.742
13626PP      PP23730  10.336  13.608   2.558
13627PP      PP23731   1.655  14.518  12.636
13628PP      PP23732   1.561   9.421   8.919
13629PP      PP23733  14.052  12.449  11.403
13630PP      PP23734  11.225   9.700  11.362
13631PP      PP23735   6.187  11.172   0.294
13632PP      PP23736   9.677  13.976   1.130
13633PP      PP23737  14.352  10.651   3.585
13634PP      PP23738   1.502  13.051   1.524
13635PP      PP23739   7.573   5.109  12.557
13636PP      PP23740   7.982   3.641   1.909
13637PP      PP23741   4.493   4.747  11.295
13638PP      PP23742   0.930   4.184  13.520
13639PP      PP23743  12.246  15.219   1.017
13640PP      PP23744  14.009   0.323   8.578
13641PP      PP23745  11.652   2.950   1.744
13642PP      PP23746   4.805  10.440   2.048
13643PP      PP23747  12.027   7.183  10.136
13644PP      PP23748   6.170  15.070   0.981
13645PP      PP23749   7.361  14.817   0.498
13646PP      PP23750   8.140   5.889   1.101
13647PP      PP23751   3.037   3.087  12.111
13648PP      PP23752   1.566  14.371   4.351
13649PP      PP23753   3.426  12.791  10.335
13650PP      PP23754   4.335   2.828  10.102
13651PP      PP23755   7.791   6.712  10.670
13652PP      PP23756  13.432  10.098  13.286
13653PP      PP23757   6.704  10.115  10.368
13654PP      PP23758  15.596   9.990  11.305
13655PP      PP23759  11.810   4.783   8.956
13656PP      PP23760  15.138  10.640  11.028
13657PP      PP23761   8.434  11.605   3.087
13658PP      PP23762   2.448  14.778  12.253
13659PP      PP23763  12.698   2.502   2.244
13660PP      PP23764   9.465   6.390   0.449
13661PP      PP23765  12.485  14.203   1.451
13662PP      PP23766  11.283   4.743   2.621
13663PP      PP23767   8.469   2.606   9.069
13664PP      PP23768  11.934   3.887   0.958
13665PP      PP23769   7.334   8.623   0.366
13666PP      PP23770   0.753   8.650   8.038
13667PP      PP23771   8.509   4.253  13.180
13668PP      PP23772  12.396   8.177   1.035
13669PP      PP23773  10.208   6.506   1.004
13670PP      PP23774   2.285   2.238  13.192
13671PP      PP23775   4.915   9.457  11.870
13672PP      PP23776   2.154   1.080   3.630
13673PP      PP23777   3.477   9.393   1.947
13674PP      PP23778   5.925   7.117   8.545
13675PP      PP23779   0.691   0.028   2.961
13676PP      PP23780  11.024   4.963  11.975
13677PP      PP23781  13.356  14.583  11.674
13678PP      PP23782   8.702  14.085   0.055
13679PP      PP23783   9.860   6.798   1.789
13680PP      PP23784  13.841   2.077  12.200
13681PP      PP23785  13.357  11.962   0.537
13682PP      PP23786  15.201  11.227   9.146
13683PP      PP23787   1.487   1.435  11.449
13684PP      PP23788   3.099  12.012   8.849
13685PP      PP23789  10.532  12.973  12.155
13686PP      PP23790  14.645  13.703   0.870
13687PP      PP23791   7.552   4.582  11.970
13688PP      PP23792  15.113   8.214  12.993
13689PP      PP23793  10.591  14.857  12.544
13690PP      PP23794  13.807  15.410   3.794
13691PP      PP23795   3.341   4.977   2.182
13692PP      PP23796   1.718  10.636  11.775
13693PP      PP23797   9.637   1.820   0.986
13694PP      PP23798   8.351  13.290   2.282
13695PP      PP23799  12.180   3.059   8.983
13696PP      PP23800   3.499  10.019   0.104
13697PP      PP23801   1.395   8.105   0.609
13698PP      PP23802  11.443  10.364   4.222
13699PP      PP23803   5.879  12.642  12.832
13700PP      PP23804   0.198   0.875   3.090
13701PP      PP23805  14.600   5.147  11.300
13702PP      PP23806  15.219   9.011  12.256
13703PP      PP23807   2.279   8.048  13.263
13704PP      PP23808   5.704   4.288   9.596
13705PP      PP23809   0.628  13.253  10.617
13706PP      PP23810   5.799   1.004  11.679
13707PP      PP23811  11.732   7.306   3.386
13708PP      PP23812  13.948  11.235  12.800
13709PP      PP23813   8.568   5.456  12.084
13710PP      PP23814   0.023   7.551  12.567
13711PP      PP23815   7.396  15.691  11.736
13712PP      PP23816  10.462   5.004  13.392
13713PP      PP23817  11.404   0.515  10.507
13714PP      PP23818   0.661   8.292   8.940
13715PP      PP23819  12.692   5.161   8.229
13716PP      PP23820   2.882  10.615  13.183
13717PP      PP23821   6.480  10.804  11.715
13718PP      PP23822   1.482  12.990   3.765
13719PP      PP23823   7.264  11.267   2.221
13720PP      PP23824   9.435   4.675  11.159
13721PP      PP23825   0.446  10.104   2.105
13722PP      PP23826  10.341   0.087  11.867
13723PP      PP23827   7.424   4.562   3.806
13724PP      PP23828   7.286  12.441   3.223
13725PP      PP23829  12.505  14.740   9.011
13726PP      PP23830   5.432  14.043  13.503
13727PP      PP23831   8.705  14.956  10.565
13728PP      PP23832   3.687  11.903   2.656
13729PP      PP23833   7.422   7.777   2.763
13730PP      PP23834  13.112   2.847   3.852
13731PP      PP23835   2.823   1.910  10.981
13732PP      PP23836  15.654   4.697   1.347
13733PP      PP23837   8.826   7.248  12.322
13734PP      PP23838   2.803   9.481  13.544
13735PP      PP23839   0.677   6.301   3.647
13736PP      PP23840  10.917   3.460  13.034
13737PP      PP23841  15.412  12.517   3.413
13738PP      PP23842   7.196   5.617  13.370
13739PP      PP23843   9.789   2.606   3.986
13740PP      PP23844   7.214   1.617   2.237
13741PP      PP23845  14.778   8.459  12.461
13742PP      PP23846   0.150   9.462   0.786
13743PP      PP23847  11.897  12.853  12.426
13744PP      PP23848  14.611   2.983  12.500
13745PP      PP23849   8.104   6.235  12.103
13746PP      PP23850   1.712  11.884   0.115
13747PP      PP23851  10.069   2.354   3.194
13748PP      PP23852   7.865  15.214   3.574
13749PP      PP23853   2.112  12.221   2.261
13750PP      PP23854  14.364   1.363   2.491
13751PP      PP23855  12.607   7.564   9.614
13752PP      PP23856   0.865   3.758   2.746
13753PP      PP23857  15.482  13.279   4.036
13754PP      PP23858   6.112  11.187  12.210
13755PP      PP23859  12.539   4.729   0.429
13756PP      PP23860  13.793   5.712  13.293
13757PP      PP23861   1.054   2.643  11.006
13758PP      PP23862   4.534   5.691  10.374
13759PP      PP23863   4.096  10.029  13.082
13760PP      PP23864  13.339   3.693   3.724
13761PP      PP23865  12.160   9.283  13.079
13762PP      PP23866  10.726   6.900  12.942
13763PP      PP23867   2.623  15.418  12.998
13764PP      PP23868   0.141   4.357   0.888
13765PP      PP23869   8.852  12.501  12.500
13766PP      PP23870  13.495   5.386   2.646
13767PP      PP23871  11.921  15.056  10.516
13768PP      PP23872  10.527   0.580   3.330
13769PP      PP23873   5.152  15.536   3.444
13770PP      PP23874   5.264  15.439   2.937
13771PP      PP23875   0.709  14.982   4.944
13772PP      PP23876  13.710   2.383   3.703
13773PP      PP23877   3.387   9.944   8.857
13774PP      PP23878   8.289   6.545  13.467
13775PP      PP23879   9.188   4.215   2.043
13776PP      PP23880   8.311  10.130   2.079
13777PP      PP23881  11.076  11.720  12.794
13778PP      PP23882   7.795  12.017  10.109
13779PP      PP23883  13.557  11.289   9.732
13780PP      PP23884   2.432   7.245   3.514
13781PP      PP23885  14.545   8.669  11.240
13782PP      PP23886   7.460   1.154   3.639
13783PP      PP23887  15.653  15.073  10.828
13784PP      PP23888   5.766   3.844   3.536
13785PP      PP23889   1.373  10.961   2.483
13786PP      PP23890  15.558   2.001   1.294
13787PP      PP23891  15.229   1.345  12.959
13788PP      PP23892   0.310   6.879  11.880
13789PP      PP23893  10.704  13.620   2.948
13790PP      PP23894   9.441   3.981   2.423
13791PP      PP23895   7.407   3.144   0.323
13792PP      PP23896   6.755   8.501   1.855
13793PP      PP23897   6.800  10.808   9.831
13794PP      PP23898   8.717   4.419  12.686
13795PP      PP23899   4.501  10.416   9.622
13796PP      PP23900   9.609   8.715   9.869
13797PP      PP23901  15.492   3.625   9.232
13798PP      PP23902  11.958   2.443   9.606
13799PP      PP23903  14.634  10.117   1.007
13800PP      PP23904   9.701   0.457   1.534
13801PP      PP23905   1.991   4.753   4.581
13802PP      PP23906   5.552   7.464   0.310
13803PP      PP23907   4.726  12.501   8.677
13804PP      PP23908   4.100   2.448  12.369
13805PP      PP23909   5.054  13.428   9.189
13806PP      PP23910   9.662   5.321   4.413
13807PP      PP23911   7.609   6.516   2.686
13808PP      PP23912  10.554   1.306   1.080
13809PP      PP23913  12.652   8.796   1.982
13810PP      PP23914   0.929   9.954   3.343
13811PP      PP23915   1.559  14.383   2.536
13812PP      PP23916   0.458   4.592   1.521
13813PP      PP23917   8.367  12.325   9.457
13814PP      PP23918   6.786  12.493   3.466
13815PP      PP23919   9.175  11.256   4.249
13816PP      PP23920   5.118  13.494  10.565
13817PP      PP23921  10.908  14.294   1.936
13818PP      PP23922  13.272   0.330   3.512
13819PP      PP23923   9.312   1.695  13.152
13820PP      PP23924   0.645  15.453  12.780
13821PP      PP23925  13.166   4.966  11.176
13822PP      PP23926   9.782   4.735  10.438
13823PP      PP23927  10.196  10.250   3.993
13824PP      PP23928  13.407   7.966   9.383
13825PP      PP23929   3.876   0.986   0.748
13826PP      PP23930  13.898   8.596  13.475
13827PP      PP23931   5.171   6.722   2.378
13828PP      PP23932   4.051   9.265   2.552
13829PP      PP23933   6.424  12.580   9.179
13830PP      PP23934   7.311   5.774  12.823
13831PP      PP23935   6.093   8.903  12.046
13832PP      PP23936   5.467   1.722   0.174
13833PP      PP23937   0.728  12.898   1.260
13834PP      PP23938   6.548   9.609   9.278
13835PP      PP23939   4.914  11.715   0.882
13836PP      PP23940   3.921  10.665  11.228
13837PP      PP23941  12.914   9.706   9.779
13838PP      PP23942   2.383   9.813  13.387
13839PP      PP23943   6.740  14.166   2.867
13840PP      PP23944   2.594   5.847  11.420
13841PP      PP23945   6.891   3.849   9.778
13842PP      PP23946   1.529   7.749  13.383
13843PP      PP23947   9.236  10.558  13.220
13844PP      PP23948  14.626   9.906   9.146
13845PP      PP23949   8.358   5.249   1.458
13846PP      PP23950  10.013   4.918   9.494
13847PP      PP23951   3.154  10.427   8.808
13848PP      PP23952   8.863   4.036  11.293
13849PP      PP23953   5.960   5.382  13.454
13850PP      PP23954  12.656   3.112   0.119
13851PP      PP23955   6.301   2.843  10.428
13852PP      PP23956   4.520   5.265  11.322
13853PP      PP23957  15.010   6.223   8.239
13854PP      PP23958  11.975   8.414   2.561
13855PP      PP23959  13.245  15.781   2.763
13856PP      PP23960  15.613   3.247   2.579
13857PP      PP23961   1.141   9.050   9.985
13858PP      PP23962   2.601  15.159  10.608
13859PP      PP23963  13.827   1.558  11.510
13860PP      PP23964  11.482  11.784  10.497
13861PP      PP23965  15.827  14.974   9.635
13862PP      PP23966   9.784   1.441  11.091
13863PP      PP23967   5.889   7.048   2.838
13864PP      PP23968  13.349  10.856   1.916
13865PP      PP23969   7.273   9.719   1.186
13866PP      PP23970   1.728   2.848  12.766
13867PP      PP23971   9.759   0.586  10.031
13868PP      PP23972  10.513  10.812   1.585
13869PP      PP23973   0.748   2.445   4.632
13870PP      PP23974   5.902   6.167   8.435
13871PP      PP23975   0.283   9.535  11.185
13872PP      PP23976   3.940  13.973  11.496
13873PP      PP23977   7.055   9.685   0.121
13874PP      PP23978   4.968  14.337   8.996
13875PP      PP23979   7.400   0.177   2.375
13876PP      PP23980  10.778   0.665   1.595
13877PP      PP23981   2.593   7.561   0.743
13878PP      PP23982   4.395   7.085   0.578
13879PP      PP23983   7.501  14.934  11.003
13880PP      PP23984  15.781   8.983  12.956
13881PP      PP23985  13.987   3.443  12.088
13882PP      PP23986  13.224   3.258   3.456
13883PP      PP23987  11.404   6.925   8.416
13884PP      PP23988   0.985   6.194   2.935
13885PP      PP23989  11.781  11.254   2.389
13886PP      PP23990   7.886  11.522  10.958
13887PP      PP23991  14.315  12.210   9.494
13888PP      PP23992   8.583   6.342  11.948
13889PP      PP23993   9.270   7.125   3.230
13890PP      PP23994   0.677   3.963  10.791
13891PP      PP23995  14.134  11.853   4.542
13892PP      PP23996  10.893   0.619  10.383
13893PP      PP23997   7.650   1.889  12.648
13894PP      PP23998   8.562   8.721  12.292
13895PP      PP23999   9.192   5.244   2.777
13896PP      PP24000   0.639  11.833   1.309
13897PP      PP24001  14.223  12.642  10.350
13898PP      PP24002   1.387   8.712  11.138
13899PP      PP24003   9.264  13.497  11.031
13900PP      PP24004   4.055  10.487   2.321
13901PP      PP24005   9.721   0.740   4.513
13902PP      PP24006  13.965   8.216   0.661
13903PP      PP24007   9.172  10.521   3.038
13904PP      PP24008   9.193   9.371  11.928
13905PP      PP24009   7.094   0.170   3.803
13906PP      PP24010  13.590   2.737   4.080
13907PP      PP24011   4.818  10.491   9.216
13908PP      PP24012  13.824  13.316   2.619
13909PP      PP24013   5.413   9.867   0.952
13910PP      PP24014   7.066   9.404   2.093
13911PP      PP24015  13.739   3.933  13.582
13912PP      PP24016   7.463  13.068  13.149
13913PP      PP24017   3.296   9.040  12.330
13914PP      PP24018   7.181   7.165  10.068
13915PP      PP24019  13.149   6.691   0.714
13916PP      PP24020  12.252   9.246   4.184
13917PP      PP24021   6.467   3.723  10.626
13918PP      PP24022   7.297   0.025   4.288
13919PP      PP24023   6.941   0.065   2.031
13920PP      PP24024   6.233   6.165   9.703
13921PP      PP24025   0.913  11.473  13.357
13922PP      PP24026  10.875   8.600   9.754
13923PP      PP24027   6.148   0.106  13.592
13924PP      PP24028   3.009  12.812   9.385
13925PP      PP24029   8.286   0.236  12.947
13926PP      PP24030  10.199   4.402  10.447
13927PP      PP24031   6.055   6.952  11.830
13928PP      PP24032  13.845  10.166   3.651
13929PP      PP24033   2.382   7.981   3.992
13930PP      PP24034   8.941   7.109   2.016
13931PP      PP24035   0.012   4.431  10.152
13932PP      PP24036  10.232   4.776  12.002
13933PP      PP24037   7.653  10.559  10.302
13934PP      PP24038  12.526   6.383  10.391
13935PP      PP24039   5.752   2.067   0.957
13936PP      PP24040   2.818  12.943   9.856
13937PP      PP24041   6.345   2.452  11.604
13938PP      PP24042   4.679  10.768   2.903
13939PP      PP24043   4.518   7.825   3.737
13940PP      PP24044  14.769   8.377  10.179
13941PP      PP24045   8.285   8.626  10.416
13942PP      PP24046   2.542   8.537   2.625
13943PP      PP24047   1.512  14.239   1.455
13944PP      PP24048  10.467   4.307   3.908
13945PP      PP24049  10.413  14.633   4.162
13946PP      PP24050   3.001   6.862   9.153
13947PP      PP24051  14.870   1.532   2.687
13948PP      PP24052   0.454   0.362   3.899
13949PP      PP24053  11.997   1.129   3.751
13950PP      PP24054   1.881  15.430   1.279
13951PP      PP24055  10.604  12.797   0.290
13952PP      PP24056  14.642   5.388   3.917
13953PP      PP24057   5.277  12.999  12.315
13954PP      PP24058  11.926   4.653   0.274
13955PP      PP24059   8.777  12.996   4.650
13956PP      PP24060  15.640   5.202   1.114
13957PP      PP24061   6.050  14.696   3.083
13958PP      PP24062   2.058   8.402  10.047
13959PP      PP24063   4.181  13.027   4.313
13960PP      PP24064  14.686   0.134  12.559
13961PP      PP24065  11.182   9.345   9.925
13962PP      PP24066   4.048   3.454   3.656
13963PP      PP24067   8.958  15.044  11.910
13964PP      PP24068   7.701  15.112   4.940
13965PP      PP24069   6.258   6.051  13.342
13966PP      PP24070   1.550  10.973   3.294
13967PP      PP24071  10.184   2.585  12.315
13968PP      PP24072  15.415  12.513  11.139
13969PP      PP24073  14.765  10.635  12.021
13970PP      PP24074  12.672   9.301   1.817
13971PP      PP24075  12.212  10.316   0.738
13972PP      PP24076   2.111   2.631   4.650
13973PP      PP24077   9.637  12.023   8.614
13974PP      PP24078  12.990   9.414  13.094
13975PP      PP24079   5.436   9.097  12.716
13976PP      PP24080   4.495  12.011   1.644
13977PP      PP24081  12.000   6.149   9.871
13978PP      PP24082  13.638  13.253   3.523
13979PP      PP24083  15.212  12.230   2.138
13980PP      PP24084   8.319   7.649  11.798
13981PP      PP24085   5.480  13.270   0.024
13982PP      PP24086   8.115  10.386   3.901
13983PP      PP24087  10.032  11.227  13.420
13984PP      PP24088  14.165   4.162  10.904
13985PP      PP24089   2.247  11.418  10.352
13986PP      PP24090   5.476   3.873  10.548
13987PP      PP24091   4.139   2.048  13.394
13988PP      PP24092  11.547   6.140  12.096
13989PP      PP24093   8.368  15.788   3.887
13990PP      PP24094  13.571  15.230  11.023
13991PP      PP24095  14.874   3.400  10.563
13992PP      PP24096  12.490   4.378  10.955
13993PP      PP24097  12.969   9.425  10.808
13994PP      PP24098  10.798   1.470  13.144
13995PP      PP24099   4.732  13.015  12.199
13996PP      PP24100   3.708   5.855  10.891
13997PP      PP24101   8.077  15.303   2.560
13998PP      PP24102   2.492   6.335  11.605
13999PP      PP24103   6.947   1.613  12.191
14000PP      PP24104  10.687  14.300   9.674
14001PP      PP24105  15.677  12.973   3.237
14002PP      PP24106   6.504   6.489   0.538
14003PP      PP24107   7.987   9.487   2.790
14004PP      PP24108   4.977   6.725  13.466
14005PP      PP24109   0.309   7.902   4.597
14006PP      PP24110   0.071   5.947  12.357
14007PP      PP24111  12.966   8.059   2.640
14008PP      PP24112   2.046   1.566  11.036
14009PP      PP24113  12.269   3.227   0.528
14010PP      PP24114   9.395  13.839   2.669
14011PP      PP24115  10.537  14.565  10.317
14012PP      PP24116   8.063  11.929   9.666
14013PP      PP24117  12.990  10.293   3.935
14014PP      PP24118   7.278   2.683   1.922
14015PP      PP24119   0.838   3.823   0.290
14016PP      PP24120  13.688  13.329  13.363
14017PP      PP24121   5.907  13.373  11.872
14018PP      PP24122   6.083  13.647   3.201
14019PP      PP24123  15.035   3.515   1.232
14020PP      PP24124   2.649   1.475  12.858
14021PP      PP24125   6.364   4.724   1.801
14022PP      PP24126   0.689   0.553   0.992
14023PP      PP24127   1.796   6.500   8.651
14024PP      PP24128   8.201   8.881  12.736
14025PP      PP24129  10.907   9.854   1.789
14026PP      PP24130  10.639   6.627  13.382
14027PP      PP24131   9.048   3.619   1.014
14028PP      PP24132   3.276   9.876   9.737
14029PP      PP24133   5.059   6.991  10.341
14030PP      PP24134  10.721   2.585   1.209
14031PP      PP24135   3.457   0.926  12.626
14032PP      PP24136  14.052  11.386   9.911
14033PP      PP24137   1.783  13.810   2.149
14034PP      PP24138  12.905   4.274  13.484
14035PP      PP24139  14.411  15.065   4.547
14036PP      PP24140   6.026   0.722   2.906
14037PP      PP24141   4.150   8.617   2.853
14038PP      PP24142  13.358   7.327  12.637
14039PP      PP24143   7.226   3.709  11.070
14040PP      PP24144  11.102  14.456   0.798
14041PP      PP24145   8.832  14.385  12.091
14042PP      PP24146   7.646   5.418  13.102
14043PP      PP24147  14.081  10.795   2.327
14044PP      PP24148   0.080   0.166   3.548
14045PP      PP24149   8.326   4.861   1.811
14046PP      PP24150   9.564  15.031   1.230
14047PP      PP24151  11.644   6.173   1.248
14048PP      PP24152   0.356   9.165   1.181
14049PP      PP24153  15.119   0.440   1.686
14050PP      PP24154   0.570   4.191  12.185
14051PP      PP24155  10.862   0.226  11.864
14052PP      PP24156  14.201   3.635   3.730
14053PP      PP24157   8.068  10.639  10.682
14054PP      PP24158  11.077  11.071  13.449
14055PP      PP24159  10.281   3.859  11.618
14056PP      PP24160  14.916   2.068  11.717
14057PP      PP24161   6.171   5.189  10.275
14058PP      PP24162  10.136  11.086   8.974
14059PP      PP24163  11.998   9.762  12.955
14060PP      PP24164  11.776  14.764   2.971
14061PP      PP24165  15.763  10.956  10.672
14062PP      PP24166   0.933   6.737   9.467
14063PP      PP24167  11.218  11.530  10.893
14064PP      PP24168   9.977   7.238  13.026
14065PP      PP24169   6.665  13.280  12.781
14066PP      PP24170   9.576  11.677  10.568
14067PP      PP24171   9.611   0.319   4.217
14068PP      PP24172  12.799  12.053  11.172
14069PP      PP24173   3.251  13.957  10.986
14070PP      PP24174  12.228   2.156   3.605
14071PP      PP24175   9.187   1.442  12.428
14072PP      PP24176   9.879   9.007   0.420
14073PP      PP24177  10.381   6.864   9.485
14074PP      PP24178   8.827   1.139   4.330
14075PP      PP24179   9.184   7.680  12.157
14076PP      PP24180   5.209  10.067   2.392
14077PP      PP24181   0.671  11.686   3.940
14078PP      PP24182   4.148  11.211   1.383
14079PP      PP24183   3.459   3.115   1.951
14080PP      PP24184  11.958  12.478   1.425
14081PP      PP24185  11.989   4.804   3.990
14082PP      PP24186  13.982  15.565   1.011
14083PP      PP24187  12.361  11.414   2.961
14084PP      PP24188  12.410   8.944  10.400
14085PP      PP24189  14.465  12.199  11.129
14086PP      PP24190   9.742   2.975   0.546
14087PP      PP24191  11.582   4.172  12.207
14088PP      PP24192  14.018  12.513   2.252
14089PP      PP24193  14.093   9.979  12.584
14090PP      PP24194  11.499  12.899  12.087
14091PP      PP24195   1.010   8.356   9.354
14092PP      PP24196  12.203   8.171   3.550
14093PP      PP24197  12.218   7.219   2.052
14094PP      PP24198   2.153  14.621   4.076
14095PP      PP24199   2.476  10.592  12.870
14096PP      PP24200   8.672   8.335  10.248
14097PP      PP24201   3.751   3.241   2.366
14098PP      PP24202  12.091   1.602   0.537
14099PP      PP24203  11.421   7.599   3.061
14100PP      PP24204   5.365  13.641   2.778
14101PP      PP24205  10.947  13.179   0.497
14102PP      PP24206  11.722  11.891   3.297
14103PP      PP24207  10.986  15.138   3.916
14104PP      PP24208   2.652  13.756   3.700
14105PP      PP24209   6.289   5.958   2.749
14106PP      PP24210   2.997   1.376  13.417
14107PP      PP24211  11.859   9.384   0.926
14108PP      PP24212   4.449   1.710   4.053
14109PP      PP24213  14.847   9.920   3.283
14110PP      PP24214  10.691   2.592   1.893
14111PP      PP24215   8.536   4.503  11.779
14112PP      PP24216   5.313  12.738  10.360
14113PP      PP24217   5.391  11.716   9.072
14114PP      PP24218   4.981   5.528  11.253
14115PP      PP24219   7.266   1.452  10.561
14116PP      PP24220   2.457  11.366   0.587
14117PP      PP24221  12.695   9.519  12.273
14118PP      PP24222  14.339   9.550  10.317
14119PP      PP24223  12.724  12.117   9.699
14120PP      PP24224  11.212  15.352   2.092
14121PP      PP24225   8.379   2.662  13.204
14122PP      PP24226   9.474   2.708   1.318
14123PP      PP24227  10.252   4.517  10.954
14124PP      PP24228   5.254   2.498  10.890
14125PP      PP24229  15.737  12.587  10.657
14126PP      PP24230  12.572  12.368   4.252
14127PP      PP24231   3.377  12.378  10.058
14128PP      PP24232   8.629  11.775   2.642
14129PP      PP24233  15.549   2.613   2.008
14130PP      PP24234   1.299  11.192   2.009
14131PP      PP24235  10.929   0.883  10.831
14132PP      PP24236   8.738  12.075  13.357
14133PP      PP24237   4.792   9.884   2.682
14134PP      PP24238   1.757  10.452   3.042
14135PP      PP24239   4.174   2.653   4.295
14136PP      PP24240  11.130   3.963  11.172
14137PP      PP24241   2.980   0.746  12.622
14138PP      PP24242  13.233   6.674   1.939
14139PP      PP24243  12.290  10.569  12.177
14140PP      PP24244  11.133   6.811   9.448
14141PP      PP24245   5.368   6.984   0.186
14142PP      PP24246  10.031   2.706   0.208
14143PP      PP24247  11.711  14.080   4.288
14144PP      PP24248   9.878  14.324   0.769
14145PP      PP24249   3.702   3.092   9.040
14146PP      PP24250   8.109  12.122   4.324
14147PP      PP24251   9.187  15.260   4.980
14148PP      PP24252   4.261  15.699   9.763
14149PP      PP24253   2.483   0.841  10.329
14150PP      PP24254   7.704   4.167  12.280
14151PP      PP24255   6.551   1.202  13.080
14152PP      PP24256  13.762  12.945   3.930
14153PP      PP24257   9.241   5.994   0.186
14154PP      PP24258  14.942   6.875   1.968
14155PP      PP24259   5.901   7.030   0.219
14156PP      PP24260   2.701   8.649   0.043
14157PP      PP24261  15.202   6.854  10.085
14158PP      PP24262   4.974   2.006   2.120
14159PP      PP24263   0.547   9.554   3.049
14160PP      PP24264  12.211  10.949   2.712
14161PP      PP24265  14.935   2.397   9.342
14162PP      PP24266   3.695   5.334  12.933
14163PP      PP24267   9.189   6.261  10.025
14164PP      PP24268   9.055  15.362   3.297
14165PP      PP24269   3.404  11.209   8.568
14166PP      PP24270   3.476   9.925  13.180
14167PP      PP24271   6.317   6.970   0.547
14168PP      PP24272   8.391   7.186  12.019
14169PP      PP24273   1.024   7.875  12.509
14170PP      PP24274   5.683   4.542  12.526
14171PP      PP24275   2.424   2.844   3.036
14172PP      PP24276   7.472   4.382   9.821
14173PP      PP24277   3.959  10.531  10.727
14174PP      PP24278   1.120   7.650   2.519
14175PP      PP24279   8.660   5.143   8.402
14176PP      PP24280   2.664   9.548  12.029
14177PP      PP24281   6.448  11.033   3.471
14178PP      PP24282   2.814   4.223   4.043
14179PP      PP24283  14.405   6.640   8.599
14180PP      PP24284  15.202   0.486  11.237
14181PP      PP24285   9.013   0.010   2.569
14182PP      PP24286   9.561  15.261  11.083
14183PP      PP24287   0.326   8.538  11.325
14184PP      PP24288   9.286   8.023   1.454
14185PP      PP24289   9.843  14.944  11.792
14186PP      PP24290   2.858   9.979   8.817
14187PP      PP24291  11.294   5.655   2.077
14188PP      PP24292  14.706   3.413  12.758
14189PP      PP24293  11.397   9.687   1.768
14190PP      PP24294   1.833   9.766   8.603
14191PP      PP24295   9.134  11.374   3.577
14192PP      PP24296  11.703  13.138   3.729
14193PP      PP24297   1.622   0.440   4.012
14194PP      PP24298  15.220  12.394   1.191
14195PP      PP24299   6.332  12.879  10.980
14196PP      PP24300   0.319   9.967   9.393
14197PP      PP24301   7.905   7.720   1.001
14198PP      PP24302   7.440   1.290   3.103
14199PP      PP24303   7.695  13.554   0.219
14200PP      PP24304  11.190   4.717   1.612
14201PP      PP24305  15.069   3.488  11.058
14202PP      PP24306   8.505   2.180  10.583
14203PP      PP24307   5.883  11.924  10.502
14204PP      PP24308   7.878  13.348  11.909
14205PP      PP24309   6.104   7.207  12.334
14206PP      PP24310   1.021   7.757   1.387
14207PP      PP24311   6.097  12.571   9.637
14208PP      PP24312   5.571   1.041   3.561
14209PP      PP24313   1.376   8.399  10.706
14210PP      PP24314   4.658   6.128  10.686
14211PP      PP24315   8.095   1.864   9.187
14212PP      PP24316  11.938   6.713   9.892
14213PP      PP24317  13.156  13.023  10.355
14214PP      PP24318  14.847  15.278   3.087
14215PP      PP24319  13.801   6.537  12.901
14216PP      PP24320  10.440   4.967   0.335
14217PP      PP24321  14.884   6.283   2.808
14218PP      PP24322   6.516   1.184   4.597
14219PP      PP24323   2.231  14.216   1.867
14220PP      PP24324  10.983   2.368   0.284
14221PP      PP24325   2.199  10.349   1.240
14222PP      PP24326   6.043   2.695   0.398
14223PP      PP24327   0.421   3.076  10.319
14224PP      PP24328   3.950   9.992  12.163
14225PP      PP24329   6.965   7.890   1.203
14226PP      PP24330  14.883   0.606  13.341
14227PP      PP24331  15.778  15.130   3.408
14228PP      PP24332  15.012  15.416   1.478
14229PP      PP24333  10.243  11.406   4.458
14230PP      PP24334  14.300  11.990   3.645
14231PP      PP24335   4.644   6.684   2.370
14232PP      PP24336   6.867   0.947   1.112
14233PP      PP24337   5.774   4.791   9.456
14234PP      PP24338   5.531  14.881   2.132
14235PP      PP24339  15.593   1.049   4.822
14236PP      PP24340   6.401   6.688   9.029
14237PP      PP24341   1.497  15.031  12.553
14238PP      PP24342   8.465  14.207   3.553
14239PP      PP24343  11.637  14.204   0.206
14240PP      PP24344  10.790   9.572   2.541
14241PP      PP24345   1.881   8.197   3.989
14242PP      PP24346  12.416   0.841   2.658
14243PP      PP24347   6.844   6.821  13.272
14244PP      PP24348   2.630  15.522   4.570
14245PP      PP24349   8.145   3.166   4.955
14246PP      PP24350  12.793   5.649  12.939
14247PP      PP24351   0.027  10.928  12.864
14248PP      PP24352   5.758   7.359   3.974
14249PP      PP24353   7.493   1.340   9.711
14250PP      PP24354   6.000   7.869   2.205
14251PP      PP24355  14.452  14.506   2.395
14252PP      PP24356  11.229  15.143  11.601
14253PP      PP24357  15.722  10.959   1.217
14254PP      PP24358   8.904   7.385  11.827
14255PP      PP24359   8.954   1.383   2.616
14256PP      PP24360  13.844   1.392   1.653
14257PP      PP24361   5.589   0.251   1.284
14258PP      PP24362   0.130   9.621   1.278
14259PP      PP24363   4.238  14.176   1.074
14260PP      PP24364   4.686   5.958  11.170
14261PP      PP24365   8.694   9.008   2.900
14262PP      PP24366   5.469   0.577  11.825
14263PP      PP24367   2.404   7.309   1.611
14264PP      PP24368   7.589   3.422   1.366
14265PP      PP24369   1.168  10.408   0.627
14266PP      PP24370   3.091  11.554   2.544
14267PP      PP24371  12.162   9.967  11.651
14268PP      PP24372   3.694  10.222   3.228
14269PP      PP24373   9.810   0.022  13.278
14270PP      PP24374  11.223   5.838  12.455
14271PP      PP24375   2.280  11.234   3.759
14272PP      PP24376  15.477   4.741   1.822
14273PP      PP24377   9.088  11.135   2.203
14274PP      PP24378   4.512   3.353  10.626
14275PP      PP24379  10.619   3.057   0.986
14276PP      PP24380  13.010   6.033  11.163
14277PP      PP24381   7.756   3.264  12.362
14278PP      PP24382   4.447   5.438  12.746
14279PP      PP24383   2.482  15.014   4.189
14280PP      PP24384  13.027   5.343   1.626
14281PP      PP24385  10.016   9.175   3.850
14282PP      PP24386  12.261  12.337   9.485
14283PP      PP24387  14.813   6.723   8.935
14284PP      PP24388   7.981  11.142   9.066
14285PP      PP24389  15.016   8.699   1.370
14286PP      PP24390   0.183  13.207  12.969
14287PP      PP24391  15.674   3.270   3.482
14288PP      PP24392   4.794   6.459   3.334
14289PP      PP24393  10.817  10.715   3.503
14290PP      PP24394  11.885   3.945   2.483
14291PP      PP24395  10.568   8.984   9.955
14292PP      PP24396  10.872  10.306   9.545
14293PP      PP24397  12.251   0.912   2.152
14294PP      PP24398  15.469  10.049   2.395
14295PP      PP24399  14.296   4.336   1.996
14296PP      PP24400  11.293  12.754   3.130
14297PP      PP24401  14.975   3.473  11.740
14298PP      PP24402   2.331  10.752   8.632
14299PP      PP24403   8.593   3.631   4.175
14300PP      PP24404  15.710   7.484   3.980
14301PP      PP24405   0.513   4.070   9.988
14302PP      PP24406   7.160   4.744   9.590
14303PP      PP24407   4.358   2.331   2.779
14304PP      PP24408   3.612   1.415  10.961
14305PP      PP24409  15.006   2.852  10.418
14306PP      PP24410   3.890  11.661   3.218
14307PP      PP24411   8.802   0.527  10.240
14308PP      PP24412   6.140   8.314   3.966
14309PP      PP24413   1.019   0.839   0.075
14310PP      PP24414   4.957  14.052   3.625
14311PP      PP24415  13.661  15.715  10.788
14312PP      PP24416  13.307   3.419  10.908
14313PP      PP24417   6.924  15.536  11.409
14314PP      PP24418  11.726  14.295   9.894
14315PP      PP24419  11.496   6.997   0.763
14316PP      PP24420   8.815  13.368   2.486
14317PP      PP24421   2.794   5.981  13.597
14318PP      PP24422   2.636  15.740  10.790
14319PP      PP24423  14.075   6.741  10.838
14320PP      PP24424  11.473   3.974  10.760
14321PP      PP24425  14.130  12.082  10.721
14322PP      PP24426   4.627   2.094  13.236
14323PP      PP24427  14.495   1.859   0.761
14324PP      PP24428   6.938  13.419   0.556
14325PP      PP24429   7.925  12.324  13.487
14326PP      PP24430   4.124  13.081   2.927
14327PP      PP24431   8.725   4.364   2.390
14328PP      PP24432   5.675  15.583  12.257
14329PP      PP24433   5.797   1.355  10.828
14330PP      PP24434  13.814  13.927  12.916
14331PP      PP24435   8.391  10.612   1.921
14332PP      PP24436  14.700  11.882   4.018
14333PP      PP24437   0.977   7.955   9.757
14334PP      PP24438  11.026  14.568  10.611
14335PP      PP24439   4.169   5.461   1.442
14336PP      PP24440  14.239   8.661   0.836
14337PP      PP24441   2.506  15.591  10.322
14338PP      PP24442  12.172  10.343   9.564
14339PP      PP24443  10.302  13.060   2.257
14340PP      PP24444   7.548  15.432  13.205
14341PP      PP24445   3.512  12.116  11.740
14342PP      PP24446  10.505  11.173   2.180
14343PP      PP24447   8.707  14.626   0.386
14344PP      PP24448  13.533  14.673   4.492
14345PP      PP24449  12.518  10.032  10.827
14346PP      PP24450   4.584   2.890   1.502
14347PP      PP24451   4.497  12.291   3.190
14348PP      PP24452  13.739   9.155   3.598
14349PP      PP24453  14.590  12.703  13.420
14350PP      PP24454  14.226  13.874   3.806
14351PP      PP24455   8.181   8.566   9.896
14352PP      PP24456  13.000   7.495  12.973
14353PP      PP24457  14.164   5.120   2.223
14354PP      PP24458  10.454   5.451  12.661
14355PP      PP24459   6.928   5.688   0.336
14356PP      PP24460   3.800   1.946  10.305
14357PP      PP24461  14.060   5.597   4.496
14358PP      PP24462   2.742  12.269   0.441
14359PP      PP24463   5.908   4.293   1.221
14360PP      PP24464   3.793  12.426   0.474
14361PP      PP24465   0.184   8.128   9.601
14362PP      PP24466   1.988   0.351   4.795
14363PP      PP24467   2.254   9.764   2.929
14364PP      PP24468   6.684   3.151   0.779
14365PP      PP24469  11.358  10.177   9.439
14366PP      PP24470  14.674  14.785   3.584
14367PP      PP24471  10.550  11.792  10.279
14368PP      PP24472  11.902   5.676   9.668
14369PP      PP24473   3.141   0.385   4.515
14370PP      PP24474   0.167   5.493   2.802
14371PP      PP24475   7.254   1.435  12.621
14372PP      PP24476   4.813  12.633  12.936
14373PP      PP24477  11.761   3.923  12.617
14374PP      PP24478  15.086   7.652   0.762
14375PP      PP24479  11.167  11.522   0.175
14376PP      PP24480  12.762  13.339  10.443
14377PP      PP24481   7.439   4.809  12.978
14378PP      PP24482   9.953   9.311   9.192
14379PP      PP24483   4.596   3.943   1.942
14380PP      PP24484   4.501  10.362   1.097
14381PP      PP24485   5.387  13.112   1.914
14382PP      PP24486   6.017   5.615   9.650
14383PP      PP24487  15.148  13.425   9.178
14384PP      PP24488   8.974   6.671   0.812
14385PP      PP24489   4.994   7.189   2.149
14386PP      PP24490  10.650   8.401   0.733
14387PP      PP24491   3.733   4.085   1.101
14388PP      PP24492   0.316   9.339   0.296
14389PP      PP24493  12.385   1.914   9.359
14390PP      PP24494   2.523   1.290   3.183
14391PP      PP24495   6.978  10.400   0.844
14392PP      PP24496  14.964  12.305  13.401
14393PP      PP24497   4.892  11.716   3.744
14394PP      PP24498  15.295   1.991   4.402
14395PP      PP24499   9.150   8.544   3.993
14396PP      PP24500   3.107   3.100   2.425
14397PP      PP24501   8.840  10.770  12.887
14398PP      PP24502   0.392   9.725  10.705
14399PP      PP24503  13.406   4.244  13.321
14400PP      PP24504   2.586   9.642  10.979
14401PP      PP24505   3.304  12.758   1.925
14402PP      PP24506  12.495  15.634   1.996
14403PP      PP24507  12.519   3.939  12.546
14404PP      PP24508  12.427   7.158   3.425
14405PP      PP24509  10.602  13.703   9.436
14406PP      PP24510   8.239  14.723   0.170
14407PP      PP24511   2.959  11.674  12.276
14408PP      PP24512   5.785   2.230   0.351
14409PP      PP24513  11.794   2.770   9.197
14410PP      PP24514   2.845   0.652   9.615
14411PP      PP24515   2.119  15.109   2.836
14412PP      PP24516  10.583   4.188  12.911
14413PP      PP24517  12.195   6.576   1.277
14414PP      PP24518   2.148   6.417  10.726
14415PP      PP24519   0.397  14.281  11.146
14416PP      PP24520   9.456   6.767   9.441
14417PP      PP24521  13.656   3.278   1.546
14418PP      PP24522  15.198   9.109   0.223
14419PP      PP24523   1.419   7.759  11.227
14420PP      PP24524  11.896  15.465  11.957
14421PP      PP24525  11.368   6.254   2.435
14422PP      PP24526   5.832   7.801  13.365
14423PP      PP24527  13.612   6.932  10.947
14424PP      PP24528   8.714   9.835   2.372
14425PP      PP24529  12.561   8.464   1.476
14426PP      PP24530   6.818   5.681  12.991
14427PP      PP24531   5.825  12.570  12.331
14428PP      PP24532   4.074  10.025  10.715
14429PP      PP24533   3.015  15.490   1.307
14430PP      PP24534  11.902   8.861   9.945
14431PP      PP24535   2.544   4.738  11.427
14432PP      PP24536  13.771   8.401  10.187
14433PP      PP24537  10.619   0.182   1.789
14434PP      PP24538   2.337  12.576   1.161
14435PP      PP24539   8.992   0.480  13.436
14436PP      PP24540   4.696  15.231  12.540
14437PP      PP24541   9.779  14.362  11.282
14438PP      PP24542  12.130   7.524   3.669
14439PP      PP24543  14.670  13.786  13.208
14440PP      PP24544  14.914  15.487  12.484
14441PP      PP24545  12.457   2.750   0.459
14442PP      PP24546  12.883  13.124   2.327
14443PP      PP24547  12.560   9.630   2.824
14444PP      PP24548   4.771   0.896  11.628
14445PP      PP24549   5.731   0.750   0.505
14446PP      PP24550  11.035  13.514   9.158
14447PP      PP24551  13.406   4.126   2.357
14448PP      PP24552   1.899   8.655  12.051
14449PP      PP24553  12.607   8.567  12.066
14450PP      PP24554   9.295   5.847   9.248
14451PP      PP24555  11.332   0.079   1.128
14452PP      PP24556   8.618   5.377  13.156
14453PP      PP24557  15.043   0.590   1.167
14454PP      PP24558  11.857   5.273   1.021
14455PP      PP24559   2.053   6.138   2.925
14456PP      PP24560  10.109   2.556   9.995
14457PP      PP24561   5.176  14.348   9.786
14458PP      PP24562   2.552   8.864   3.106
14459PP      PP24563  14.477  11.348  12.816
14460PP      PP24564   6.508  15.782   0.316
14461PP      PP24565   4.154   2.350  12.922
14462PP      PP24566  15.136   0.577   2.727
14463PP      PP24567   5.757   2.196  10.784
14464PP      PP24568   2.957   6.142   0.825
14465PP      PP24569   4.096  14.636   3.135
14466PP      PP24570  11.068   5.901   9.268
14467PP      PP24571   1.346   2.772  10.577
14468PP      PP24572   9.364   0.964   3.505
14469PP      PP24573  10.717  12.614   2.449
14470PP      PP24574  10.826   6.948   8.348
14471PP      PP24575  14.702   2.158   0.373
14472PP      PP24576  12.254  10.368  10.505
14473PP      PP24577   1.710  10.562  10.333
14474PP      PP24578   0.254   9.039  12.492
14475PP      PP24579   0.763  13.610   2.536
14476PP      PP24580   5.697   1.945  11.705
14477PP      PP24581   2.220   2.221   4.371
14478PP      PP24582   5.875   7.693  12.463
14479PP      PP24583  10.007  11.794   2.182
14480PP      PP24584  11.942   6.688  10.412
14481PP      PP24585   1.577  14.761   3.967
14482PP      PP24586  12.649   9.193  12.773
14483PP      PP24587  15.504   7.744  10.321
14484PP      PP24588   7.340   4.856   5.192
14485PP      PP24589   3.938   2.460   1.065
14486PP      PP24590   3.571  11.258   9.309
14487PP      PP24591  15.459  10.489   3.717
14488PP      PP24592  14.405  10.285   3.217
14489PP      PP24593   0.798  14.035   9.749
14490PP      PP24594   6.628  14.496   9.619
14491PP      PP24595   1.704   3.352   3.745
14492PP      PP24596  10.773   5.749  10.774
14493PP      PP24597   4.538  11.797  12.460
14494PP      PP24598  14.076   6.242   8.556
14495PP      PP24599   1.531   0.073   0.359
14496PP      PP24600  10.307  13.976   2.975
14497PP      PP24601   3.737   2.544  11.385
14498PP      PP24602   7.968   0.412   2.522
14499PP      PP24603   7.928   6.331   1.675
14500PP      PP24604   9.771   4.233  12.482
14501PP      PP24605  13.179   2.166  13.124
14502PP      PP24606   1.255   7.480   3.358
14503PP      PP24607   0.442  13.163  12.451
14504PP      PP24608   5.633   8.146  12.151
14505PP      PP24609  12.769   1.668  10.464
14506PP      PP24610   9.319  10.519  10.389
14507PP      PP24611  13.494   9.954   2.566
14508PP      PP24612  11.693   8.239  11.252
14509PP      PP24613  11.986   5.261  10.916
14510PP      PP24614   2.078   1.230  10.529
14511PP      PP24615   0.605   2.557  11.318
14512PP      PP24616   8.917   9.194   2.375
14513PP      PP24617  13.518   8.746   3.072
14514PP      PP24618   0.399   6.756   9.340
14515PP      PP24619   8.368  13.877   4.405
14516PP      PP24620   8.686  13.405  11.153
14517PP      PP24621   5.362   9.304   8.291
14518PP      PP24622   7.087  13.477   1.059
14519PP      PP24623   4.388  14.279  12.027
14520PP      PP24624   6.864   7.472   1.973
14521PP      PP24625   8.049   2.346   4.041
14522PP      PP24626   4.074  12.546   2.720
14523PP      PP24627   3.271   8.783   2.919
14524PP      PP24628  11.674  12.449   4.596
14525PP      PP24629  13.881   5.800   1.868
14526PP      PP24630   3.132  12.362   3.155
14527PP      PP24631  14.364  13.170   3.131
14528PP      PP24632   5.298  12.250  10.208
14529PP      PP24633   8.239   1.738  10.617
14530PP      PP24634   5.079   0.828  12.052
14531PP      PP24635  15.272  12.026  11.349
14532PP      PP24636   7.722   1.433  10.204
14533PP      PP24637   6.250   1.552  12.799
14534PP      PP24638  14.343   6.557   1.567
14535PP      PP24639   1.763  11.418   1.917
14536PP      PP24640   3.717   2.068  13.090
14537PP      PP24641  12.099   5.636  10.580
14538PP      PP24642   0.916   2.071   2.709
14539PP      PP24643   1.569  11.323   4.232
14540PP      PP24644   3.675   2.162   9.834
14541PP      PP24645   4.361   5.672  12.175
14542PP      PP24646   0.536   0.043   0.949
14543PP      PP24647  15.048  13.598   4.088
14544PP      PP24648  11.673   0.302   3.282
14545PP      PP24649  12.706  10.551  10.640
14546PP      PP24650   9.923   4.771  12.431
14547PP      PP24651   7.334  10.576   9.699
14548PP      PP24652  10.214  14.534   3.552
14549PP      PP24653   1.214  11.143   0.039
14550PP      PP24654  10.727   9.510  10.104
14551PP      PP24655  15.541   9.237   0.601
14552PP      PP24656   9.929  14.507   4.365
14553PP      PP24657  14.544   4.735   9.795
14554PP      PP24658   3.966  13.463   9.243
14555PP      PP24659  12.074  14.524   3.344
14556PP      PP24660   2.256  10.304   2.886
14557PP      PP24661  14.932   8.329  13.503
14558PP      PP24662   4.488   1.472  12.079
14559PP      PP24663   3.909   2.637   9.786
14560PP      PP24664  12.863  12.017   8.877
14561PP      PP24665  11.693   6.691   1.361
14562PP      PP24666   7.871  12.874   2.886
14563PP      PP24667   8.041   4.969  10.151
14564PP      PP24668   9.446  13.970  11.370
14565PP      PP24669  11.395  15.353  12.062
14566PP      PP24670   4.694   4.810   0.880
14567PP      PP24671  15.705  14.451   2.690
14568PP      PP24672   6.453   8.914  11.654
14569PP      PP24673  12.489   4.588  12.182
14570PP      PP24674   9.054   6.282   4.122
14571PP      PP24675  14.620   7.233   2.186
14572PP      PP24676   7.528  12.002  11.794
14573PP      PP24677  11.174   1.384   3.947
14574PP      PP24678   6.987   8.687  10.372
14575PP      PP24679   0.160  15.120  12.597
14576PP      PP24680  11.229   7.246  12.171
14577PP      PP24681  15.530   7.547  12.166
14578PP      PP24682  10.587   6.564  12.534
14579PP      PP24683   6.877   8.542   0.898
14580PP      PP24684  15.035  13.896   1.166
14581PP      PP24685  15.016   7.390   1.871
14582PP      PP24686   8.382   7.542   4.760
14583PP      PP24687   5.650   1.696   4.328
14584PP      PP24688  13.873  12.761   4.525
14585PP      PP24689  13.060  12.461  11.829
14586PP      PP24690   4.672   2.561  12.937
14587PP      PP24691  13.658   7.769  11.961
14588PP      PP24692   5.121   0.424  13.297
14589PP      PP24693  12.207   7.657  11.342
14590PP      PP24694  14.538   5.823  11.497
14591PP      PP24695  15.798   1.010  13.439
14592PP      PP24696  11.558   2.841   1.253
14593PP      PP24697  14.738   7.628  12.085
14594PP      PP24698   4.383   2.113   9.450
14595PP      PP24699   6.352   5.530   1.722
14596PP      PP24700   3.467   7.331  12.862
14597PP      PP24701  13.851   1.793   1.976
14598PP      PP24702  10.041  10.770   3.124
14599PP      PP24703   9.416  10.427   9.871
14600PP      PP24704   9.722   9.593   2.554
14601PP      PP24705  11.014   1.334   2.932
14602PP      PP24706   9.716   1.873   9.712
14603PP      PP24707   7.228   6.600   8.693
14604PP      PP24708   0.608  10.265   8.698
14605PP      PP24709   8.667   0.604   0.219
14606PP      PP24710  11.858   2.522   0.938
14607PP      PP24711   2.981   9.149   3.803
14608PP      PP24712  14.588   1.616   8.965
14609PP      PP24713   6.591   7.857  10.934
14610PP      PP24714   2.282   6.666   8.487
14611PP      PP24715  13.816   6.243  10.812
14612PP      PP24716   4.531   4.705  12.565
14613PP      PP24717   9.308  11.241   9.530
14614PP      PP24718   9.460   9.998   0.199
14615PP      PP24719  10.102   5.704   0.850
14616PP      PP24720   9.968  10.430  10.112
14617PP      PP24721   5.866   0.575  10.547
14618PP      PP24722  12.164   5.818   3.140
14619PP      PP24723   5.378  11.775   0.543
14620PP      PP24724  15.380   4.489   0.983
14621PP      PP24725   8.166   1.897  13.424
14622PP      PP24726   9.259  14.742   4.924
14623PP      PP24727  11.862  12.442   0.220
14624PP      PP24728  13.661  15.728   4.165
14625PP      PP24729   9.403   7.838   9.030
14626PP      PP24730  15.590   8.063   0.795
14627PP      PP24731   1.674   6.925  11.726
14628PP      PP24732   7.558  15.076   4.442
14629PP      PP24733  15.220   5.266  12.071
14630PP      PP24734   7.233   5.319  10.865
14631PP      PP24735  12.560  13.513   1.616
14632PP      PP24736   9.887   6.515   9.283
14633PP      PP24737   5.898   0.849  12.564
14634PP      PP24738   4.705  10.271   3.070
14635PP      PP24739  10.219  12.666   4.362
14636PP      PP24740   5.492   1.916   3.859
14637PP      PP24741  15.349  15.817   1.531
14638PP      PP24742  12.734   4.769  13.475
14639PP      PP24743   3.882   9.066   1.787
14640PP      PP24744   1.164  14.612  12.459
14641PP      PP24745   8.037  13.376   2.769
14642PP      PP24746   9.332   6.182   1.470
14643PP      PP24747  12.530  14.776   3.323
14644PP      PP24748  11.268   7.303   9.649
14645PP      PP24749   3.368   7.885   1.764
14646PP      PP24750  13.455  10.640   2.928
14647PP      PP24751   6.620  10.956  11.243
14648PP      PP24752  10.451   3.342  10.838
14649PP      PP24753   7.805   7.525  12.619
14650PP      PP24754   6.717   3.638   1.138
14651PP      PP24755   5.977   9.566  13.287
14652PP      PP24756   2.674   4.738   3.330
14653PP      PP24757  10.801   1.436  10.437
14654PP      PP24758   9.633   8.016  11.350
14655PP      PP24759   6.117   8.142   1.190
14656PP      PP24760  12.606   6.704   0.351
14657PP      PP24761   6.144   2.729  12.025
14658PP      PP24762  11.167   8.042   1.254
14659PP      PP24763  14.559  11.807  10.568
14660PP      PP24764   3.602   8.413   2.683
14661PP      PP24765  15.454   7.119   1.950
14662PP      PP24766   2.549  10.300  13.412
14663PP      PP24767  12.764  13.871   1.056
14664PP      PP24768   9.593   2.848  13.563
14665PP      PP24769   0.125  12.696  12.370
14666PP      PP24770   7.516  11.984   0.751
14667PP      PP24771  11.265   2.978  11.518
14668PP      PP24772  12.232  13.165   3.928
14669PP      PP24773   9.249  15.721   0.911
14670PP      PP24774   3.274   4.329   3.286
14671PP      PP24775  13.867   4.546   9.204
14672PP      PP24776   9.965   9.870   2.082
14673PP      PP24777  11.774  12.754   3.378
14674PP      PP24778   9.947  12.146  10.464
14675PP      PP24779   1.811   1.175   2.496
14676PP      PP24780   8.616   5.422   8.833
14677PP      PP24781  13.986   4.618   9.727
14678PP      PP24782  14.793  12.137   9.794
14679PP      PP24783   0.020   6.647   2.137
14680PP      PP24784  13.177  11.172   1.063
14681PP      PP24785   2.283   3.559   4.551
14682PP      PP24786  15.399   8.091   2.827
14683PP      PP24787  14.153   8.754   8.397
14684PP      PP24788   6.828   4.830  11.304
14685PP      PP24789   6.847   7.039   0.636
14686PP      PP24790   0.949   2.102   4.185
14687PP      PP24791   4.185  12.592  13.128
14688PP      PP24792   9.253   7.772  11.641
14689PP      PP24793  11.248  14.050  12.268
14690PP      PP24794   3.975   9.506   2.102
14691PP      PP24795   6.893   9.088  11.406
14692PP      PP24796   6.943   1.627  10.110
14693PP      PP24797   4.027  14.198   2.808
14694PP      PP24798   2.305   2.846   0.863
14695PP      PP24799   4.889   7.348   9.925
14696PP      PP24800  14.273   9.901  11.343
14697PP      PP24801   8.581  15.105  11.049
14698PP      PP24802   2.037  12.800  13.548
14699PP      PP24803   9.629   0.936  12.284
14700PP      PP24804   8.346   4.175   9.538
14701PP      PP24805   0.124   6.139   2.009
14702PP      PP24806  14.086   1.825   2.447
14703PP      PP24807  13.635   0.308   9.371
14704PP      PP24808  14.493   1.662  12.453
14705PP      PP24809   6.313   6.147   0.891
14706PP      PP24810  12.743   1.598   9.678
14707PP      PP24811   7.580  14.234  12.203
14708PP      PP24812   9.424  14.941  12.140
14709PP      PP24813   6.004  13.182   1.760
14710PP      PP24814   8.808  12.881  11.282
14711PP      PP24815   2.333   4.626   0.259
14712PP      PP24816   2.227  10.558  10.262
14713PP      PP24817  10.609   8.302   9.297
14714PP      PP24818   1.383  13.145   2.073
14715PP      PP24819   0.219  11.600   4.185
14716PP      PP24820  12.349  12.825  11.236
14717PP      PP24821  14.720   9.937   3.834
14718PP      PP24822   1.898  15.282  13.485
14719PP      PP24823  12.600  11.690   0.376
14720PP      PP24824   0.760   0.827  13.229
14721PP      PP24825   7.778   6.866  10.062
14722PP      PP24826   2.750   3.442   2.218
14723PP      PP24827   4.141   4.843   0.858
14724PP      PP24828  11.539  13.202  10.985
14725PP      PP24829   8.494  13.305  10.678
14726PP      PP24830   1.999  10.088  10.260
14727PP      PP24831   7.053  12.902   3.264
14728PP      PP24832   8.744  10.585  11.595
14729PP      PP24833  14.853   3.607  12.286
14730PP      PP24834  11.234   7.935  12.472
14731PP      PP24835   5.899   7.565   2.694
14732PP      PP24836   0.486   5.807   3.785
14733PP      PP24837  10.620  14.825   3.727
14734PP      PP24838  10.228   8.137   0.462
14735PP      PP24839   6.579  10.211  12.362
14736PP      PP24840  12.104   6.383   3.122
14737PP      PP24841   8.457   2.696   4.107
14738PP      PP24842  10.844  12.992   4.776
14739PP      PP24843  13.014   4.012  10.890
14740PP      PP24844  13.190   0.816   3.263
14741PP      PP24845   8.592   9.361  10.794
14742PP      PP24846   2.146   4.259   0.591
14743PP      PP24847   3.420   3.606  13.585
14744PP      PP24848   4.246   1.674   3.549
14745PP      PP24849   2.789  11.919  13.281
14746PP      PP24850   4.256   7.793   9.217
14747PP      PP24851  10.724   3.191   3.175
14748PP      PP24852  14.410   1.166  12.616
14749PP      PP24853   6.009   6.914  13.293
14750PP      PP24854   1.066   8.608   1.616
14751PP      PP24855  11.089   4.258  10.568
14752PP      PP24856  15.192   9.891   4.268
14753PP      PP24857   9.212   2.900   2.196
14754PP      PP24858   3.157   4.001   0.232
14755PP      PP24859  14.387   9.834   2.954
14756PP      PP24860   7.738  10.931   0.698
14757PP      PP24861  14.600  10.987  11.656
14758PP      PP24862   0.480  14.428   9.924
14759PP      PP24863  11.211   1.081  10.439
14760PP      PP24864  10.354  12.333   0.351
14761PP      PP24865   3.807  15.244   0.362
14762PP      PP24866   8.222   1.532   1.084
14763PP      PP24867   0.904   3.774   1.270
14764PP      PP24868   4.633   9.671  10.356
14765PP      PP24869   2.201  15.826   4.470
14766PP      PP24870   6.434  13.142  13.412
14767PP      PP24871   2.619   9.984   0.970
14768PP      PP24872   1.834   5.717  11.972
14769PP      PP24873  12.564   8.650  11.436
14770PP      PP24874  14.757   9.574   4.255
14771PP      PP24875   0.237  12.944   2.880
14772PP      PP24876   9.538  13.874   3.791
14773PP      PP24877  13.366   8.628   2.533
14774PP      PP24878   5.863   9.165  13.011
14775PP      PP24879   9.243   5.645   4.468
14776PP      PP24880  13.065   1.099   1.961
14777PP      PP24881  11.982   4.426  13.132
14778PP      PP24882  11.376  12.024  11.575
14779PP      PP24883  13.365  14.930  10.091
14780PP      PP24884   6.183  15.284  10.713
14781PP      PP24885   2.873   6.813   8.663
14782PP      PP24886   8.342   2.907   1.855
14783PP      PP24887  12.848  11.670   4.360
14784PP      PP24888   0.359  12.922  10.156
14785PP      PP24889  14.866   4.443  11.870
14786PP      PP24890   7.745  11.376   2.933
14787PP      PP24891  14.715   3.110   8.775
14788PP      PP24892  11.257   1.207   9.119
14789PP      PP24893   5.455  10.562  11.617
14790PP      PP24894   3.215  13.851   1.079
14791PP      PP24895  11.603   6.086   3.906
14792PP      PP24896   8.617   0.633   0.984
14793PP      PP24897   9.329  13.445   2.329
14794PP      PP24898   4.155   6.001  11.736
14795PP      PP24899   7.335  11.382  12.272
14796PP      PP24900   3.451   6.653  10.498
14797PP      PP24901   8.019  15.720   3.461
14798PP      PP24902   5.429  15.770  12.700
14799PP      PP24903   0.297  11.891  11.739
14800PP      PP24904   7.402  10.260   4.954
14801PP      PP24905   1.452   4.606  12.970
14802PP      PP24906  10.365   8.053   8.875
14803PP      PP24907  14.734  13.488   0.223
14804PP      PP24908  15.786  12.216   9.679
14805PP      PP24909  12.215   7.578   1.313
14806PP      PP24910  10.038   1.629  12.984
14807PP      PP24911  15.087   3.592  13.044
14808PP      PP24912   5.009  15.493  12.879
14809PP      PP24913   1.665   6.829   4.016
14810PP      PP24914  15.308  10.692  10.022
14811PP      PP24915  13.529   3.903  12.923
14812PP      PP24916   5.371   1.255   4.193
14813PP      PP24917   4.866   4.522   2.592
14814PP      PP24918   2.247   8.685  10.549
14815PP      PP24919   8.590   4.956  13.541
14816PP      PP24920  15.735   1.514   9.118
14817PP      PP24921   8.579   8.978   9.018
14818PP      PP24922   0.165  14.039   1.956
14819PP      PP24923  10.137   6.975   9.057
14820PP      PP24924  10.914  14.217  10.224
14821PP      PP24925   5.214  10.890   0.603
14822PP      PP24926   7.748   9.194  13.016
14823PP      PP24927   0.659   9.539   0.661
14824PP      PP24928   7.459  12.345  12.168
14825PP      PP24929   1.103  13.883  10.130
14826PP      PP24930   6.799   5.985  10.308
14827PP      PP24931  12.153  13.725  12.237
14828PP      PP24932   4.593  15.245  10.769
14829PP      PP24933   9.485   3.790  12.462
14830PP      PP24934  13.283   8.819   9.483
14831PP      PP24935   2.263   7.213  10.250
14832PP      PP24936  10.724   6.506   9.550
14833PP      PP24937   9.167  11.780   0.443
14834PP      PP24938   2.970  14.487  10.171
14835PP      PP24939   0.807  11.210   4.129
14836PP      PP24940   6.811  14.851   1.916
14837PP      PP24941   8.131   6.953   0.667
14838PP      PP24942   8.760   6.126   1.038
14839PP      PP24943   3.489   7.019   3.075
14840PP      PP24944  15.262   7.164   0.891
14841PP      PP24945   1.308   5.733   9.982
14842PP      PP24946   0.702   5.158   9.729
14843PP      PP24947   4.650   5.085   2.297
14844PP      PP24948   6.388   2.197   2.974
14845PP      PP24949  13.284   4.207   1.458
14846PP      PP24950   9.076   2.258  11.640
14847PP      PP24951   8.017  12.258  12.919
14848PP      PP24952  11.169  14.993  12.601
14849PP      PP24953  13.189   5.216  12.227
14850PP      PP24954   4.076   4.749  10.428
14851PP      PP24955  13.375   1.897   2.903
14852PP      PP24956   1.913   2.754  11.837
14853PP      PP24957   3.366   9.858  10.254
14854PP      PP24958  10.567  15.690   2.795
14855PP      PP24959  14.324   4.976   0.168
14856PP      PP24960   4.167   5.282   0.073
14857PP      PP24961   0.641   4.564   0.955
14858PP      PP24962  13.590   4.341  11.774
14859PP      PP24963   0.568   1.395   1.703
14860PP      PP24964  15.792  10.909  10.142
14861PP      PP24965   7.069  15.653   3.355
14862PP      PP24966   8.825   9.559   2.963
14863PP      PP24967  13.906   1.279  12.564
14864PP      PP24968  14.294  14.323   2.884
14865PP      PP24969   0.852   3.665  13.364
14866PP      PP24970  10.394   6.215   3.471
14867PP      PP24971   1.558   6.984  10.573
14868PP      PP24972   1.964  10.630   0.750
14869PP      PP24973   5.194  14.303  12.686
14870PP      PP24974  14.120  11.092  11.936
14871PP      PP24975   6.091  12.088   3.351
14872PP      PP24976   3.798  14.948   8.795
14873PP      PP24977  14.477  14.832   1.969
14874PP      PP24978   8.120  10.154   8.908
14875PP      PP24979   1.507   6.710  10.124
14876PP      PP24980   9.215   3.045  12.865
14877PP      PP24981   8.165   3.249   2.235
14878PP      PP24982  13.085  13.945   2.183
14879PP      PP24983  11.907   0.295   0.764
14880PP      PP24984   9.979   3.689   9.293
14881PP      PP24985   2.046   5.745  13.407
14882PP      PP24986  11.234  15.229  13.107
14883PP      PP24987   6.611  12.033   0.664
14884PP      PP24988   3.470  15.720   1.401
14885PP      PP24989   2.521   6.557   8.946
14886PP      PP24990   1.879   7.013   9.877
14887PP      PP24991   3.596   7.169  12.305
14888PP      PP24992   9.867   8.812   3.471
14889PP      PP24993   7.047  12.128   0.932
14890PP      PP24994   0.789   9.469  11.287
14891PP      PP24995  13.166  11.659   1.468
14892PP      PP24996  12.619   3.235  11.470
14893PP      PP24997   1.318  13.255  12.799
14894PP      PP24998   4.900   3.397   0.330
14895PP      PP24999   5.800  13.355   2.683
14896PP      PP25000   0.659  12.068   4.434
14897PP      PP25001   3.802  13.085  10.525
14898PP      PP25002   7.696   7.962   1.864
14899PP      PP25003  14.688   7.498  10.560
14900PP      PP25004   9.409   0.783   0.737
14901PP      PP25005   0.336  13.265   1.207
14902PP      PP25006  15.472   5.011  11.479
14903PP      PP25007   8.007   6.469  12.560
14904PP      PP25008  15.652   5.874   0.024
14905PP      PP25009  11.883   1.996  12.464
14906PP      PP25010   5.902  13.691  11.053
14907PP      PP25011   5.507  12.231   8.929
14908PP      PP25012   2.778  12.043   1.165
14909PP      PP25013  13.810  15.367  11.552
14910PP      PP25014   8.827   6.054   1.561
14911PP      PP25015   7.364   8.569   3.453
14912PP      PP25016  11.325   8.173   1.738
14913PP      PP25017   8.075  14.888   1.605
14914PP      PP25018  13.559  14.280  12.647
14915PP      PP25019   1.549   4.970  11.502
14916PP      PP25020   3.789  11.230  12.173
14917PP      PP25021  11.830  13.709   0.738
14918PP      PP25022  12.550  13.460  12.444
14919PP      PP25023   9.644  13.728  11.823
14920PP      PP25024   0.119  14.252   3.670
14921PP      PP25025   5.463  14.706   1.630
14922PP      PP25026   5.038  10.846   2.535
14923PP      PP25027  14.639   1.995   3.603
14924PP      PP25028   5.961  14.415  13.208
14925PP      PP25029  15.150   2.151   2.016
14926PP      PP25030   5.431  12.279  12.525
14927PP      PP25031   8.125   2.404   1.256
14928PP      PP25032   2.629  12.635  12.355
14929PP      PP25033  14.747   2.324   3.207
14930PP      PP25034  10.148  14.919   5.102
14931PP      PP25035  15.683   9.707   4.247
14932PP      PP25036  12.581   5.158   9.840
14933PP      PP25037   8.168   5.055  10.675
14934PP      PP25038   1.449  15.317  12.065
14935PP      PP25039   8.987   8.588  11.994
14936PP      PP25040   1.505   4.564   1.197
14937PP      PP25041   3.430   6.723   8.878
14938PP      PP25042   9.725  12.248  13.342
14939PP      PP25043   7.910  15.745   1.693
14940PP      PP25044  13.362   0.098   2.292
14941PP      PP25045  14.014  15.255   2.470
14942PP      PP25046  13.672   3.909   2.742
14943PP      PP25047   9.318   8.675   0.954
14944PP      PP25048   4.622   2.838  10.610
14945PP      PP25049   7.304   8.697  11.433
14946PP      PP25050  12.668   4.752  11.479
14947PP      PP25051   6.970   0.314  13.064
14948PP      PP25052   2.485  12.538   8.608
14949PP      PP25053   5.669  15.066  12.236
14950PP      PP25054   7.135  14.975   4.737
14951PP      PP25055  14.875   5.968  10.093
14952PP      PP25056  10.809  13.223   3.828
14953PP      PP25057   6.656  14.922  10.157
14954PP      PP25058   3.362   4.342  11.566
14955PP      PP25059   3.055   8.291   2.538
14956PP      PP25060   4.935  11.022   9.545
14957PP      PP25061  14.741  14.573   3.108
14958PP      PP25062   9.902  14.091  12.231
14959PP      PP25063   0.012   6.866   0.207
14960PP      PP25064   8.295  10.313  11.523
14961PP      PP25065   1.399   5.827   4.010
14962PP      PP25066  13.005   1.267  10.712
14963PP      PP25067   1.075   8.407  12.411
14964PP      PP25068   2.984   1.159   0.284
14965PP      PP25069   3.654  11.160  12.929
14966PP      PP25070  14.481   8.379  10.749
14967PP      PP25071   3.927  11.543  13.153
14968PP      PP25072  11.542  14.732   1.348
14969PP      PP25073   6.516   4.211   3.758
14970PP      PP25074  15.453   3.983   0.883
14971PP      PP25075   8.497   0.749   4.411
14972PP      PP25076   4.331   0.790   0.537
14973PP      PP25077   0.597   4.194   2.658
14974PP      PP25078  10.321   7.611   0.296
14975PP      PP25079   2.778  13.783  11.112
14976PP      PP25080   5.585  10.740  10.146
14977PP      PP25081   7.474  11.099   3.527
14978PP      PP25082   5.242   0.231   1.701
14979PP      PP25083  12.725  11.954   1.297
14980PP      PP25084   3.740   1.783   3.460
14981PP      PP25085  10.794  15.793   3.761
14982PP      PP25086  14.659  14.943   2.732
14983PP      PP25087  14.003   1.807   9.287
14984PP      PP25088   2.576   1.254   2.050
14985PP      PP25089   3.659   8.871  10.284
14986PP      PP25090  11.127   7.386   4.962
14987PP      PP25091   3.603   7.010   0.095
14988PP      PP25092  10.210  12.639  11.949
14989PP      PP25093   2.023  11.275   8.976
14990PP      PP25094   5.993  14.370   0.593
14991PP      PP25095   1.557   1.348  10.684
14992PP      PP25096   3.490   3.985   2.112
14993PP      PP25097  13.652   5.970   8.656
14994PP      PP25098  11.461   1.541   0.596
14995PP      PP25099  11.910  10.341  12.558
14996PP      PP25100  15.742   9.581  11.736
14997PP      PP25101  14.454   5.579  10.046
14998PP      PP25102   9.530   3.673  11.962
14999PP      PP25103  11.231   4.189   1.827
15000PP      PP25104   4.449  15.455   2.673
15001PP      PP25105   0.361   6.295   9.073
15002PP      PP25106  15.722  13.917  12.504
15003PP      PP25107   4.835  12.227   4.033
15004PP      PP25108   0.313  14.961   2.476
15005PP      PP25109  13.289  15.013   0.723
15006PP      PP25110   2.649  14.749  11.405
15007PP      PP25111  13.132   1.886   3.382
15008PP      PP25112   4.188   7.559   0.525
15009PP      PP25113  10.711   5.967  12.543
15010PP      PP25114  15.104   8.601   9.835
15011PP      PP25115  10.582   7.360   4.003
15012PP      PP25116   1.233   6.302   2.474
15013PP      PP25117  14.512   0.220  13.463
15014PP      PP25118   4.433  14.775  12.255
15015PP      PP25119  11.664   6.083   2.844
15016PP      PP25120   1.488   8.361  12.074
15017PP      PP25121   7.485  10.830   2.104
15018PP      PP25122  14.527   5.310   1.857
15019PP      PP25123   0.131   8.166   3.450
15020PP      PP25124   9.622   9.181  12.143
15021PP      PP25125   5.716   1.692  12.772
15022PP      PP25126  12.891  10.813   3.575
15023PP      PP25127   7.047   3.965   1.931
15024PP      PP25128  13.384  10.509  12.419
15025PP      PP25129  12.342   8.662   3.423
15026PP      PP25130   2.195   2.537   2.685
15027PP      PP25131   5.457   6.450  12.172
15028PP      PP25132   6.394  15.177  12.754
15029PP      PP25133   4.519   7.791   2.990
15030PP      PP25134   2.757   7.435   1.236
15031PP      PP25135  12.938  12.354   3.882
15032PP      PP25136   5.777   1.153   3.063
15033PP      PP25137  14.139   5.539  11.331
15034PP      PP25138  12.951  13.489   1.964
15035PP      PP25139  14.311  10.379   0.499
15036PP      PP25140   6.585   0.840   2.763
15037PP      PP25141  10.017  13.996   4.516
15038PP      PP25142   0.196   9.467  12.896
15039PP      PP25143   2.857  13.880  12.419
15040PP      PP25144   6.956  13.762   3.530
15041PP      PP25145   7.558   1.897   0.246
15042PP      PP25146  14.094   6.158   2.762
15043PP      PP25147  12.713  10.087  10.349
15044PP      PP25148  10.482   9.208   2.274
15045PP      PP25149   6.843   5.869  12.499
15046PP      PP25150   0.048   5.465   2.179
15047PP      PP25151   8.287  15.827   2.568
15048PP      PP25152  11.609   9.941   2.985
15049PP      PP25153  15.442   1.038  12.613
15050PP      PP25154   3.927   7.455  10.258
15051PP      PP25155  10.774   7.033  12.387
15052PP      PP25156  15.531   3.970  11.621
15053PP      PP25157  14.671   4.054   4.388
15054PP      PP25158   2.509  15.817   0.673
15055PP      PP25159   2.328  14.734  12.970
15056PP      PP25160   2.688  13.918  13.426
15057PP      PP25161   3.360   9.208   0.181
15058PP      PP25162   7.334   9.190   1.234
15059PP      PP25163   7.721  15.098  11.848
15060PP      PP25164   7.637  13.452   9.713
15061PP      PP25165  13.280   1.278   3.651
15062PP      PP25166  12.193  11.334   4.609
15063PP      PP25167  12.866  15.149   3.972
15064PP      PP25168   6.451  11.481  11.051
15065PP      PP25169   8.182   9.789   2.428
15066PP      PP25170   6.424  15.078   2.990
15067PP      PP25171   3.908   7.837  10.613
15068PP      PP25172   2.219  12.217   0.302
15069PP      PP25173  12.966  10.295  11.381
15070PP      PP25174  15.444  12.369   1.680
15071PP      PP25175   8.122   2.447  11.941
15072PP      PP25176   2.120  10.647   1.811
15073PP      PP25177  15.411  15.256   3.058
15074PP      PP25178   4.696   0.891   2.427
15075PP      PP25179   6.167  15.702   0.927
15076PP      PP25180  11.722   4.828   9.626
15077PP      PP25181  15.146   7.831  13.375
15078PP      PP25182  15.774   8.487  12.111
15079PP      PP25183   9.040   4.247  10.014
15080PP      PP25184  14.416   9.503   0.507
15081PP      PP25185   6.303   6.431   8.242
15082PP      PP25186   3.572  14.173   1.370
15083PP      PP25187   4.919  15.707   2.663
15084PP      PP25188   9.034  13.404   2.954
15085PP      PP25189   9.661   2.790   1.811
15086PP      PP25190  15.048  13.805   1.967
15087PP      PP25191  15.154   0.617   3.595
15088PP      PP25192   1.284   8.328   3.090
15089PP      PP25193  14.826   3.087   4.322
15090PP      PP25194   7.012   0.592  11.075
15091PP      PP25195  12.433   6.738   3.934
15092PP      PP25196   8.805   5.341   9.738
15093PP      PP25197   8.821   1.734   1.644
15094PP      PP25198  11.493  12.835  13.245
15095PP      PP25199  11.275  12.573   1.471
15096PP      PP25200   1.244   7.493   8.726
15097PP      PP25201   8.628  11.536  10.641
15098PP      PP25202  11.801   3.757  13.104
15099PP      PP25203   0.840  11.700  10.497
15100PP      PP25204   8.924   3.277   3.858
15101PP      PP25205   0.446  10.707   2.194
15102PP      PP25206  11.004   3.253   9.285
15103PP      PP25207  10.895   6.019   2.332
15104PP      PP25208   1.232   4.327  12.598
15105PP      PP25209   5.488   2.889  10.627
15106PP      PP25210   4.887   7.836   9.658
15107PP      PP25211   6.171  12.842   4.176
15108PP      PP25212  10.367   5.496   0.435
15109PP      PP25213   1.812  10.255   0.408
15110PP      PP25214   0.755   8.921  13.434
15111PP      PP25215   8.106  11.462   9.456
15112PP      PP25216   8.116   3.427   4.317
15113PP      PP25217   1.164   2.600   3.505
15114PP      PP25218   2.519   2.699  13.140
15115PP      PP25219   7.192   3.509   8.779
15116PP      PP25220   0.152  13.574   9.560
15117PP      PP25221   0.343   0.644  13.449
15118PP      PP25222  15.120  11.674  12.820
15119PP      PP25223   6.820  13.631  11.925
15120PP      PP25224  12.521   6.006   0.174
15121PP      PP25225   3.512   2.923  12.968
15122PP      PP25226   9.401  15.389  10.567
15123PP      PP25227   5.215  11.710   3.317
15124PP      PP25228   3.693   0.244   3.160
15125PP      PP25229   6.872   7.822   2.587
15126PP      PP25230   4.856   4.366  10.201
15127PP      PP25231  12.058   2.282  13.519
15128PP      PP25232   5.119   8.157  13.310
15129PP      PP25233  12.106  15.793  10.321
15130PP      PP25234   7.573   2.098   4.078
15131PP      PP25235   4.577   3.080   4.000
15132PP      PP25236   1.037   7.884  13.474
15133PP      PP25237  12.090   0.940   9.512
15134PP      PP25238   0.079  14.626  13.127
15135PP      PP25239   6.886   0.765  10.018
15136PP      PP25240   1.323   8.568   3.980
15137PP      PP25241   3.559   1.237  11.706
15138PP      PP25242   9.326   4.558   0.503
15139PP      PP25243   9.519   0.454   3.499
15140PP      PP25244   2.170  10.113   1.713
15141PP      PP25245   0.098   7.873   0.465
15142PP      PP25246   2.958  13.696  10.192
15143PP      PP25247   6.306  13.733  11.962
15144PP      PP25248  11.611   8.325   2.160
15145PP      PP25249  12.381  10.673  13.312
15146PP      PP25250   7.074  10.561   9.229
15147PP      PP25251   1.698  12.882   9.723
15148PP      PP25252  13.172   0.430   9.941
15149PP      PP25253   4.123  13.708  12.044
15150PP      PP25254  11.836  12.880   0.503
15151PP      PP25255   3.009   7.795   0.956
15152PP      PP25256   9.649  12.603  10.439
15153PP      PP25257   3.868   9.661  11.006
15154PP      PP25258   8.061  15.463  10.711
15155PP      PP25259  12.192   3.415   2.404
15156PP      PP25260   1.310   6.234   0.582
15157PP      PP25261   2.074  15.003  12.583
15158PP      PP25262   5.435   1.801   9.555
15159PP      PP25263   7.969   0.823   1.797
15160PP      PP25264   7.859   3.930   3.714
15161PP      PP25265   2.179   7.817   0.929
15162PP      PP25266   1.522   0.293  11.142
15163PP      PP25267  11.952  12.731  10.225
15164PP      PP25268  10.954   5.276   1.084
15165PP      PP25269  15.099  12.048   3.031
15166PP      PP25270   2.076  14.655  10.094
15167PP      PP25271   2.520   2.072  10.403
15168PP      PP25272  12.645   0.040   1.563
15169PP      PP25273  13.778  14.947   3.530
15170PP      PP25274  14.063   4.399   3.846
15171PP      PP25275   8.429   1.411   1.570
15172PP      PP25276   5.383   4.738  11.140
15173PP      PP25277  13.038  12.556   3.418
15174PP      PP25278  15.779   1.846   2.869
15175PP      PP25279   0.619  15.543   9.827
15176PP      PP25280   5.422   4.772  12.136
15177PP      PP25281  10.827   7.362   3.545
15178PP      PP25282   7.103   3.501   4.192
15179PP      PP25283   5.491   4.087   0.552
15180PP      PP25284  13.663  12.745  12.648
15181PP      PP25285  13.664   5.371   3.805
15182PP      PP25286   7.145   1.629   1.722
15183PP      PP25287   8.892   4.685  10.279
15184PP      PP25288  12.943   3.173   9.920
15185PP      PP25289   5.273   7.778   8.398
15186PP      PP25290   8.631   7.777  13.118
15187PP      PP25291   0.777  14.173   2.925
15188PP      PP25292   0.487  15.104  11.229
15189PP      PP25293  12.713  10.630   2.468
15190PP      PP25294  15.069  15.283   0.890
15191PP      PP25295   9.073   4.692   1.896
15192PP      PP25296   7.200   0.088   2.854
15193PP      PP25297   7.309  10.801   4.044
15194PP      PP25298  13.689   5.320  12.349
15195PP      PP25299   5.708   9.983   9.519
15196PP      PP25300   4.268   1.296   0.649
15197PP      PP25301   6.470   3.052   2.715
15198PP      PP25302   9.468   1.430   2.722
15199PP      PP25303   9.872  10.287   8.943
15200PP      PP25304   5.897   6.455  12.551
15201PP      PP25305  10.310  11.740   1.271
15202PP      PP25306   6.044   2.250  11.234
15203PP      PP25307  14.196   2.580   3.575
15204PP      PP25308  10.339   2.015  10.563
15205PP      PP25309  10.873   6.616  11.121
15206PP      PP25310   8.605   9.252   3.559
15207PP      PP25311  14.528   7.375   3.519
15208PP      PP25312   8.180   2.210   1.743
15209PP      PP25313   3.635   8.258  13.186
15210PP      PP25314   1.103  11.157   9.417
15211PP      PP25315  14.678   6.019  11.039
15212PP      PP25316   9.968  14.832   3.182
15213PP      PP25317  13.868   5.323   0.635
15214PP      PP25318  12.483   2.029  13.337
15215PP      PP25319   9.653  10.622   1.661
15216PP      PP25320  12.992   5.567  11.914
15217PP      PP25321   7.778   6.926   8.794
15218PP      PP25322  15.810  10.906   2.044
15219PP      PP25323  15.084  13.052  12.536
15220PP      PP25324  14.399  12.829   2.021
15221PP      PP25325  14.308   3.397   9.845
15222PP      PP25326   7.081  14.212   3.737
15223PP      PP25327  10.212   1.332   4.343
15224PP      PP25328  11.457   1.614  11.692
15225PP      PP25329  11.159  12.390   4.794
15226PP      PP25330  11.805   6.718   8.859
15227PP      PP25331  14.904   5.087   2.358
15228PP      PP25332   5.746   1.041   4.549
15229PP      PP25333  14.672  14.984   1.509
15230PP      PP25334  14.077   7.027   1.650
15231PP      PP25335   9.741   8.933   8.785
15232PP      PP25336   3.264   4.394   0.579
15233PP      PP25337  15.622   2.738   2.512
15234PP      PP25338   7.578  12.913  11.934
15235PP      PP25339   2.291   9.900   9.494
15236PP      PP25340   6.910   4.717   9.086
15237PP      PP25341  12.598   2.793   1.659
15238PP      PP25342   4.905   9.054   2.371
15239PP      PP25343   3.275   9.114   8.877
15240PP      PP25344   2.022   6.627  12.048
15241PP      PP25345   8.175   3.660  11.645
15242PP      PP25346   1.822   0.906  12.175
15243PP      PP25347   4.051   9.674   9.526
15244PP      PP25348  13.076  11.951  13.450
15245PP      PP25349   2.694   2.513   3.896
15246PP      PP25350   3.594   0.588   5.298
15247PP      PP25351  15.209  11.741   3.902
15248PP      PP25352   0.204  12.940   4.794
15249PP      PP25353   7.193   1.641   0.775
15250PP      PP25354   4.341   4.108   8.838
15251PP      PP25355   3.127   2.549   4.226
15252PP      PP25356  12.991   0.308   1.312
15253PP      PP25357   0.844   8.345  11.904
15254PP      PP25358   9.149   0.417   1.119
15255PP      PP25359  12.559   1.268   9.286
15256PP      PP25360  12.865   8.580   2.692
15257PP      PP25361   4.739   8.795   9.557
15258PP      PP25362   5.998   1.165   9.859
15259PP      PP25363   7.857  15.565   5.117
15260PP      PP25364   1.015   9.108  13.026
15261PP      PP25365  14.838   3.322   3.856
15262PP      PP25366  13.660  14.598  10.835
15263PP      PP25367   5.437   5.421  13.076
15264PP      PP25368   4.985  11.302   1.731
15265PP      PP25369   4.404  11.569  12.910
15266PP      PP25370   4.069   6.499  13.148
15267PP      PP25371   8.964  14.672   4.062
15268PP      PP25372   9.198  11.236  10.407
15269PP      PP25373   9.403  10.513   0.112
15270PP      PP25374  10.178   1.856   4.327
15271PP      PP25375  13.547   0.452   8.892
15272PP      PP25376   4.515   6.302  12.037
15273PP      PP25377   0.362  12.282  12.126
15274PP      PP25378   7.064  13.263   2.843
15275PP      PP25379  10.932   2.715  10.384
15276PP      PP25380   1.521   4.003  10.482
15277PP      PP25381   3.712   6.300   2.851
15278PP      PP25382  13.570  15.624   9.397
15279PP      PP25383   9.398   5.788   8.322
15280PP      PP25384   0.077  10.853   2.578
15281PP      PP25385  14.374  15.543   0.290
15282PP      PP25386   8.780   9.759   9.601
15283PP      PP25387   1.099   2.339  11.485
15284PP      PP25388   1.597   1.436   2.939
15285PP      PP25389   2.704   6.314   8.486
15286PP      PP25390  10.342   3.335  10.032
15287PP      PP25391   9.116  14.321   0.284
15288PP      PP25392   4.776  14.882   0.436
15289PP      PP25393   6.318  15.367   2.543
15290PP      PP25394   6.451   5.324   9.865
15291PP      PP25395   9.217   6.027   8.760
15292PP      PP25396   9.362  11.536   1.414
15293PP      PP25397  15.484   5.557   9.761
15294PP      PP25398  11.111   7.002   3.794
15295PP      PP25399  11.289   0.372  10.980
15296PP      PP25400   4.632   3.598   3.867
15297PP      PP25401  12.250  11.481   0.046
15298PP      PP25402   0.131   2.143  13.602
15299PP      PP25403  13.303  10.764  11.933
15300PP      PP25404   5.121   5.560   0.383
15301PP      PP25405   5.373   6.907   2.918
15302PP      PP25406  15.511   9.922   8.300
15303PP      PP25407   3.663   5.089   2.646
15304PP      PP25408  10.893   2.097   1.271
15305PP      PP25409  11.763  10.846  12.612
15306PP      PP25410   1.079   6.796  10.550
15307PP      PP25411   0.362   0.988  12.811
15308PP      PP25412  12.308   9.967   0.339
15309PP      PP25413  12.512  14.142   3.627
15310PP      PP25414   5.566  14.238  11.774
15311PP      PP25415  15.358   1.796  11.937
15312PP      PP25416  10.685   8.134  10.995
15313PP      PP25417   0.907   4.542  13.078
15314PP      PP25418   8.097   3.734   0.506
15315PP      PP25419   2.829   4.490   4.480
15316PP      PP25420   9.890  15.490   1.544
15317PP      PP25421   5.694  10.093  12.365
15318PP      PP25422   5.239  12.698   0.691
15319PP      PP25423   6.815   0.003   9.753
15320PP      PP25424   0.896   1.913   1.294
15321PP      PP25425  11.650  15.657   0.772
15322PP      PP25426   5.112  11.633   9.570
15323PP      PP25427  12.869   7.968   9.392
15324PP      PP25428   2.885   8.774   9.536
15325PP      PP25429   9.558  13.441   9.711
15326PP      PP25430   5.862   3.717   0.759
15327PP      PP25431   5.558  13.950  11.346
15328PP      PP25432  11.198   9.885  11.891
15329PP      PP25433   5.794   4.409  11.405
15330PP      PP25434   6.081   6.546   3.527
15331PP      PP25435  12.804   1.082  11.743
15332PP      PP25436  13.694   3.682   9.448
15333PP      PP25437   2.190  13.217   2.108
15334PP      PP25438   4.787  13.897  10.498
15335PP      PP25439   4.173   4.318  12.656
15336PP      PP25440  10.065  14.693  12.616
15337PP      PP25441   9.470  13.941   2.132
15338PP      PP25442  14.063   2.545   4.088
15339PP      PP25443  13.484   0.744  11.364
15340PP      PP25444   5.408   4.034   8.629
15341PP      PP25445  10.058  14.119  13.545
15342PP      PP25446  14.419  13.966   2.508
15343PP      PP25447   8.411   3.199   3.910
15344PP      PP25448   7.712   2.208   1.533
15345PP      PP25449   4.493  12.178  13.249
15346PP      PP25450   8.587   4.996   3.125
15347PP      PP25451  15.514   9.141   8.718
15348PP      PP25452   2.068  11.158   9.475
15349PP      PP25453  15.062   4.577   9.768
15350PP      PP25454  11.749   3.105   9.595
15351PP      PP25455   1.494   5.132  12.043
15352PP      PP25456   2.862  12.489   1.987
15353PP      PP25457   9.455  10.266   9.245
15354PP      PP25458   0.718   0.589  10.755
15355PP      PP25459   1.918  10.032   2.623
15356PP      PP25460  14.846  14.347   2.096
15357PP      PP25461   9.113   8.492   9.923
15358PP      PP25462  11.418   6.462   9.143
15359PP      PP25463  11.146  13.415   4.856
15360PP      PP25464   4.760   9.413   8.816
15361PP      PP25465   0.085   8.947  10.199
15362PP      PP25466   8.910  15.820  13.239
15363PP      PP25467   7.059   9.575  11.587
15364PP      PP25468  15.593   0.246   0.417
15365PP      PP25469  11.594   7.339   0.024
15366PP      PP25470   7.473  15.204  10.159
15367PP      PP25471  12.392  11.192  13.229
15368PP      PP25472  13.601   5.561   9.001
15369PP      PP25473   3.082  14.479  12.893
15370PP      PP25474   3.580  12.450  12.434
15371PP      PP25475   5.346   3.240   3.268
15372PP      PP25476   2.136   1.474   4.548
15373PP      PP25477   9.651  10.642  11.439
15374PP      PP25478   2.917   0.925   0.738
15375PP      PP25479   9.602   1.835   3.664
15376PP      PP25480  11.689  13.320   4.820
15377PP      PP25481  13.897   6.380   0.597
15378PP      PP25482   6.474  13.663   4.260
15379PP      PP25483   1.034  11.717   0.761
15380PP      PP25484   3.647  15.060   0.909
15381PP      PP25485   3.281  11.300  12.074
15382PP      PP25486  13.813  14.819   0.261
15383PP      PP25487   0.817  11.430  10.938
15384PP      PP25488   5.286  10.462   8.339
15385PP      PP25489   5.159   1.356  10.352
15386PP      PP25490  13.210  12.091  12.159
15387PP      PP25491   8.072   3.302  11.288
15388PP      PP25492   8.956   1.344  10.786
15389PP      PP25493  13.816  13.131   9.726
15390PP      PP25494   4.141   7.182  11.548
15391PP      PP25495   6.010  13.070   1.238
15392PP      PP25496  12.187   9.726   2.480
15393PP      PP25497   2.467   0.017   3.109
15394PP      PP25498   1.975  15.130   4.018
15395PP      PP25499  13.262  12.908  13.553
15396PP      PP25500  13.921  10.781   8.970
15397PP      PP25501  14.767   9.211  13.083
15398PP      PP25502  12.735  13.419  10.987
15399PP      PP25503   2.105   2.635   1.292
15400PP      PP25504   5.119  12.951   0.222
15401PP      PP25505   1.295   1.722  10.055
15402PP      PP25506   7.372   0.256  10.708
15403PP      PP25507  11.607  11.782   1.507
15404PP      PP25508   8.716   8.002   9.423
15405PP      PP25509   8.049   1.094  11.725
15406PP      PP25510   8.829  10.320  10.080
15407PP      PP25511   8.155   9.493   0.958
15408PP      PP25512  12.666  12.901   1.289
15409PP      PP25513   3.039  10.144   3.237
15410PP      PP25514   7.002  10.775   1.879
15411PP      PP25515   8.534  14.939   4.194
15412PP      PP25516  11.602  14.603   4.378
15413PP      PP25517   8.391   9.478   1.434
15414PP      PP25518   0.579   1.489   9.501
15415PP      PP25519  13.415   8.672   1.233
15416PP      PP25520   3.330  14.024  12.757
15417PP      PP25521  10.395   7.437   3.270
15418PP      PP25522   6.321   3.472   1.541
15419PP      PP25523   2.630   2.483   8.994
15420PP      PP25524   8.095   5.083  12.806
15421PP      PP25525   3.593   4.073  12.762
15422PP      PP25526  12.394   7.361   8.385
15423PP      PP25527   2.027   5.517   0.274
15424PP      PP25528   7.924  12.479   3.791
15425PP      PP25529   4.338  13.883  10.147
15426PP      PP25530   4.947  13.635   2.456
15427PP      PP25531   9.615  11.606  11.091
15428PP      PP25532  11.953  15.322   4.528
15429PP      PP25533   6.346  14.116  11.179
15430PP      PP25534  14.050   3.837  12.983
15431PP      PP25535  12.318   8.569  12.497
15432PP      PP25536   6.269   0.776   0.435
15433PP      PP25537   9.853  11.190   0.563
15434PP      PP25538   5.910   3.393   3.322
15435PP      PP25539  12.220   1.355   2.465
15436PP      PP25540  15.364  12.772   4.088
15437PP      PP25541  11.756   8.466  11.744
15438PP      PP25542  10.054   1.078  11.387
15439PP      PP25543  10.639   5.067   8.493
15440PP      PP25544  14.234   3.909   1.676
15441PP      PP25545   7.472  11.295  11.436
15442PP      PP25546  12.480   4.620   3.119
15443PP      PP25547   6.142   1.067  12.084
15444PP      PP25548  12.611  11.555   8.947
15445PP      PP25549   2.829   1.542   1.555
15446PP      PP25550   8.531   4.970   9.978
15447PP      PP25551  12.057   2.731  13.036
15448PP      PP25552  14.077  12.665   9.721
15449PP      PP25553  12.170   2.506   2.382
15450PP      PP25554   3.061   9.291   1.154
15451PP      PP25555   2.813   2.105   2.430
15452PP      PP25556  12.485   6.052   1.530
15453PP      PP25557  14.358   6.727  12.068
15454PP      PP25558   3.159   5.985   2.520
15455PP      PP25559   2.700  11.122   2.351
15456PP      PP25560  11.323   9.057  12.716
15457PP      PP25561   6.124  15.821   9.055
15458PP      PP25562  10.731  13.831   1.721
15459PP      PP25563   5.357   7.614   9.768
15460PP      PP25564   4.858  11.894   9.221
15461PP      PP25565  10.830   7.369   0.561
15462PP      PP25566  10.626   6.492  10.459
15463PP      PP25567   4.582  13.825   0.412
15464PP      PP25568   8.238   9.337   8.805
15465PP      PP25569   4.677  13.018   1.654
15466PP      PP25570   7.214  10.641  13.508
15467PP      PP25571  13.507   9.815   1.990
15468PP      PP25572   5.416   7.259   8.548
15469PP      PP25573   6.469   0.109  12.741
15470PP      PP25574   8.591   7.103   9.505
15471PP      PP25575  10.015  12.815   1.781
15472PP      PP25576   7.920  13.472   3.799
15473PP      PP25577  11.247  11.020   1.091
15474PP      PP25578   5.364   2.175   5.301
15475PP      PP25579   2.332  13.026   2.638
15476PP      PP25580  13.706  11.717   4.839
15477PP      PP25581   7.912  10.946  12.986
15478PP      PP25582   5.039   3.155   9.497
15479PP      PP25583   4.438   3.823   4.341
15480PP      PP25584   9.308   0.901  13.342
15481PP      PP25585  12.771   2.418   1.269
15482PP      PP25586   9.894   9.653  11.926
15483PP      PP25587   5.892   1.229  12.987
15484PP      PP25588  12.315   8.461  10.138
15485PP      PP25589   3.593   9.469   3.565
15486PP      PP25590  13.902   9.302   0.064
15487PP      PP25591  12.415  15.290   2.698
15488PP      PP25592   2.995  11.812   0.623
15489PP      PP25593   0.856  12.555   1.643
15490PP      PP25594   4.613   1.671   2.264
15491PP      PP25595   8.536   3.224   3.388
15492PP      PP25596   0.207   8.525  12.607
15493PP      PP25597   6.753   0.288   1.109
15494PP      PP25598   3.050  13.991  11.498
15495PP      PP25599   8.745   2.896   3.011
15496PP      PP25600   4.256   6.326   2.336
15497PP      PP25601  11.294  10.514  11.922
15498PP      PP25602  10.835   9.681  13.336
15499PP      PP25603  11.012   7.271   9.206
15500PP      PP25604   4.813   4.268  12.096
15501PP      PP25605   2.741   2.074   0.133
15502PP      PP25606   2.266  13.934  10.898
15503PP      PP25607  14.711  13.355  11.453
15504PP      PP25608   1.086  11.230  11.342
15505PP      PP25609  11.218   5.165  10.332
15506PP      PP25610  14.627   5.393  12.843
15507PP      PP25611   3.161  15.756  12.030
15508PP      PP25612   7.725  13.922  12.634
15509PP      PP25613   6.949   5.104   8.601
15510PP      PP25614  14.242   6.762   0.717
15511PP      PP25615   1.560   1.812  12.201
15512PP      PP25616  10.052  15.348   4.653
15513PP      PP25617  14.674   0.824   3.401
15514PP      PP25618   1.611   6.535   0.902
15515PP      PP25619  15.007   3.276   9.202
15516PP      PP25620  13.461   5.539   0.374
15517PP      PP25621   7.702  14.514   2.485
15518PP      PP25622   8.901  13.470   4.978
15519PP      PP25623   7.323   9.852   2.066
15520PP      PP25624  15.532   6.293  10.667
15521PP      PP25625   5.603   8.093   8.632
15522PP      PP25626   7.345  14.887   2.878
15523PP      PP25627   8.194  15.237   0.078
15524PP      PP25628  14.585   6.779  10.763
15525PP      PP25629  14.972  13.842  10.298
15526PP      PP25630  10.723  15.482   4.227
15527PP      PP25631  10.849   9.805   0.830
15528PP      PP25632  10.096   8.277   2.743
15529PP      PP25633   2.439   0.672   9.300
15530PP      PP25634  10.129   3.198   3.876
15531PP      PP25635   9.132   2.378   1.542
15532PP      PP25636  13.461  14.138  11.903
15533PP      PP25637   6.356   7.782   2.841
15534PP      PP25638   4.050   5.047  11.384
15535PP      PP25639   9.516   3.919   3.747
15536PP      PP25640  11.129  13.461  10.838
15537PP      PP25641   4.480   4.059  13.200
15538PP      PP25642   1.661  12.269   4.003
15539PP      PP25643  12.268   3.274   3.292
15540PP      PP25644  14.867  11.089   1.702
15541PP      PP25645  10.399   3.415   3.492
15542PP      PP25646   0.215  14.738   0.407
15543PP      PP25647   3.454  13.358   0.910
15544PP      PP25648   5.099  10.404   3.384
15545PP      PP25649   2.902   5.000  10.189
15546PP      PP25650   1.319   9.686   1.992
15547PP      PP25651   4.017   3.335  12.936
15548PP      PP25652   6.768   9.915   2.125
15549PP      PP25653   3.130   5.816   1.408
15550PP      PP25654  13.000  11.680  12.997
15551PP      PP25655   0.304   7.746   3.679
15552PP      PP25656   3.460  10.665   0.752
15553PP      PP25657   0.290   4.421  13.288
15554PP      PP25658  13.002   6.095   2.855
15555PP      PP25659   0.709   9.988   4.272
15556PP      PP25660   7.741   1.647   3.331
15557PP      PP25661   6.507   3.246  12.713
15558PP      PP25662   0.509   7.512   1.832
15559PP      PP25663  13.414  12.848  11.337
15560PP      PP25664  12.220  10.055   3.531
15561PP      PP25665  13.189  13.303  11.278
15562PP      PP25666  14.609   5.861   9.658
15563PP      PP25667   0.879   5.182   2.688
15564PP      PP25668  12.750   9.029   3.606
15565PP      PP25669   2.107   9.232   2.136
15566PP      PP25670   5.053  14.666   2.809
15567PP      PP25671  13.120  15.539   2.031
15568PP      PP25672   6.540   6.666   3.805
15569PP      PP25673   1.529  15.736   2.582
15570PP      PP25674  11.392   5.631   9.566
15571PP      PP25675   8.732  14.873   0.864
15572PP      PP25676  10.589  13.481   2.099
15573PP      PP25677   3.138   7.911  11.159
15574PP      PP25678   3.283  12.028   1.026
15575PP      PP25679  15.020   4.518   1.427
15576PP      PP25680  12.474   2.315  11.651
15577PP      PP25681   1.106  13.354   3.880
15578PP      PP25682   7.894   1.664   9.706
15579PP      PP25683  10.245  15.459   2.464
15580PP      PP25684  15.530   0.516  10.123
15581PP      PP25685  14.365   4.306  11.764
15582PP      PP25686   3.441   2.593   9.522
15583PP      PP25687   7.869   0.012   1.191
15584PP      PP25688  15.310   1.433  12.305
15585PP      PP25689   2.991   3.593  12.649
15586PP      PP25690   6.238  11.984  11.842
15587PP      PP25691   4.647   4.999  11.762
15588PP      PP25692   1.722   1.447  10.196
15589PP      PP25693   1.576  11.840   1.122
15590PP      PP25694   5.485  15.587   1.651
15591PP      PP25695   6.781  11.192   2.120
15592PP      PP25696   3.068  11.161   9.076
15593PP      PP25697   7.096   6.114   8.554
15594PP      PP25698  12.655   5.941   1.026
15595PP      PP25699   1.794   2.826   0.862
15596PP      PP25700   4.806  13.904  11.967
15597PP      PP25701   0.391  14.103  12.521
15598PP      PP25702  12.897   5.351   4.245
15599PP      PP25703  14.606  10.645   2.314
15600PP      PP25704  15.583   6.017  11.384
15601PP      PP25705   5.395   9.576  11.714
15602PP      PP25706   8.810  12.135   9.222
15603PP      PP25707  12.146   4.664   1.409
15604PP      PP25708   0.869   6.380   9.074
15605PP      PP25709   0.916  13.704   3.052
15606PP      PP25710   1.776   0.546   2.892
15607PP      PP25711   1.260   3.167  10.004
15608PP      PP25712  14.712  13.466   9.462
15609PP      PP25713   9.179   2.044   4.336
15610PP      PP25714  11.584  13.526  11.445
15611PP      PP25715   8.903   4.732   3.983
15612PP      PP25716   6.338   9.867  13.039
15613PP      PP25717   2.622   2.970  10.315
15614PP      PP25718   3.955   3.723  13.528
15615PP      PP25719  11.421  12.903   0.170
15616PP      PP25720   1.408  15.307   1.062
15617PP      PP25721   3.433   0.875   1.581
15618PP      PP25722  10.955  11.544   9.446
15619PP      PP25723  14.185   7.563  11.269
15620PP      PP25724   5.053   7.737   2.971
15621PP      PP25725  13.701   2.723  10.013
15622PP      PP25726   0.157   5.197   0.681
15623PP      PP25727  11.514   6.337  10.005
15624PP      PP25728   7.163   2.956   0.735
15625PP      PP25729   8.041   1.058   0.856
15626PP      PP25730  10.192   0.548   2.272
15627PP      PP25731   4.981   6.241   2.448
15628PP      PP25732  10.995   8.276  13.007
15629PP      PP25733   9.600  15.284  10.056
15630PP      PP25734  11.462  12.170   4.012
15631PP      PP25735  11.287   1.393   4.513
15632PP      PP25736   3.203  12.071   2.715
15633PP      PP25737   9.175   5.562   2.248
15634PP      PP25738   1.797  12.437  12.561
15635PP      PP25739  14.053   5.881   9.879
15636PP      PP25740   3.879   8.287   8.786
15637PP      PP25741   0.432  14.141  11.649
15638PP      PP25742   6.700  14.080   4.502
15639PP      PP25743   5.251  10.877  13.173
15640PP      PP25744  12.736   7.133   9.342
15641PP      PP25745   2.486   8.908   2.270
15642PP      PP25746   4.706  13.965   2.022
15643PP      PP25747   0.893   9.230   2.800
15644PP      PP25748   3.464  15.738  12.466
15645PP      PP25749   2.851   5.390   8.416
15646PP      PP25750   5.358   1.964  10.034
15647PP      PP25751   5.502   7.092  11.259
15648PP      PP25752   9.153   2.916  10.645
15649PP      PP25753  12.460  10.671  10.136
15650PP      PP25754   4.336   9.978  13.600
15651PP      PP25755   3.341   0.157   1.879
15652PP      PP25756   1.829  15.512   9.932
15653PP      PP25757  11.177   2.298   4.030
15654PP      PP25758  10.551   6.213  11.595
15655PP      PP25759   9.322  12.178   9.339
15656PP      PP25760  14.894  11.463  10.770
15657PP      PP25761   0.847  10.128  12.306
15658PP      PP25762   5.615  14.482   9.056
15659PP      PP25763  15.597   9.214   4.198
15660PP      PP25764   2.330  13.870  12.454
15661PP      PP25765  14.334   2.630   3.049
15662PP      PP25766   5.728   1.132   0.900
15663PP      PP25767   6.246   0.901  10.244
15664PP      PP25768   0.182   5.435   9.689
15665PP      PP25769  12.015   8.312   9.258
15666PP      PP25770   7.310   0.634  11.508
15667PP      PP25771   2.127   9.327   3.223
15668PP      PP25772   8.578   3.493   9.455
15669PP      PP25773  10.299   4.415   0.672
15670PP      PP25774   5.402   3.697  13.023
15671PP      PP25775  10.390   0.436   9.645
15672PP      PP25776   1.757   6.107  13.175
15673PP      PP25777   5.807   6.516  13.577
15674PP      PP25778  14.211   1.376  13.068
15675PP      PP25779   6.063   3.247   3.793
15676PP      PP25780  15.072  11.124  12.125
15677PP      PP25781   4.357   0.967  11.960
15678PP      PP25782  13.266  12.031  10.194
15679PP      PP25783  11.862  13.153   2.165
15680PP      PP25784   0.717   8.477  10.398
15681PP      PP25785  13.708   6.543   3.537
15682PP      PP25786   7.570   8.570   4.012
15683PP      PP25787  13.290   0.596   2.135
15684PP      PP25788   6.508   0.736   1.456
15685PP      PP25789   9.319   0.497  10.317
15686PP      PP25790  10.716   5.416  13.156
15687PP      PP25791   0.418  10.190  13.505
15688PP      PP25792  11.052   1.948   2.271
15689PP      PP25793   2.606   1.684   2.839
15690PP      PP25794  14.605   7.426  10.039
15691PP      PP25795   3.560   9.450   9.456
15692PP      PP25796  13.473  10.205  11.037
15693PP      PP25797   8.666  15.026  13.562
15694PP      PP25798  12.638   3.722  13.027
15695PP      PP25799   5.690   0.097   9.441
15696PP      PP25800   4.632   8.266   0.001
15697PP      PP25801   6.145   1.854   5.006
15698PP      PP25802  11.893   2.669  10.095
15699PP      PP25803   5.577  12.250   9.503
15700PP      PP25804  14.385  13.099  10.750
15701PP      PP25805   0.185   8.569   9.861
15702PP      PP25806  15.592   9.591  13.206
15703PP      PP25807   3.751   0.631  13.314
15704PP      PP25808   8.076   1.707  12.906
15705PP      PP25809   5.932   5.320  12.893
15706PP      PP25810   4.922  10.470  10.766
15707PP      PP25811   9.326  13.637   0.796
15708PP      PP25812   8.223  15.530   3.002
15709PP      PP25813   4.668   3.021  12.046
15710PP      PP25814   2.819   1.389  11.118
15711PP      PP25815   7.936   4.745  12.407
15712PP      PP25816   6.076   9.797  11.647
15713PP      PP25817   9.674   9.630  10.026
15714PP      PP25818   3.062  14.363   2.444
15715PP      PP25819   6.505  12.892   3.742
15716PP      PP25820  13.420  11.523   9.311
15717PP      PP25821   1.503  13.096  12.328
15718PP      PP25822  15.126   8.569   3.403
15719PP      PP25823   6.418   6.470   2.909
15720PP      PP25824   1.517  13.674  11.185
15721PP      PP25825  11.296   9.215  13.327
15722PP      PP25826  15.257   5.996   1.403
15723PP      PP25827  12.905  10.833   4.112
15724PP      PP25828   4.070   0.720   3.863
15725PP      PP25829   8.141   3.501   3.600
15726PP      PP25830   2.147   1.899   1.049
15727PP      PP25831  10.545   5.360   1.638
15728PP      PP25832   9.679  12.721  12.584
15729PP      PP25833   6.672   7.500   1.473
15730PP      PP25834   1.817   6.744  12.619
15731PP      PP25835   9.892  13.189   1.415
15732PP      PP25836   2.132  11.678   0.326
15733PP      PP25837   5.751   9.041   0.614
15734PP      PP25838   4.893   2.711   8.840
15735PP      PP25839   0.518   7.240  12.663
15736PP      PP25840   1.463   4.739   0.696
15737PP      PP25841   6.412  15.510   9.643
15738PP      PP25842  13.897   7.428   8.322
15739PP      PP25843  14.353   3.155  11.448
15740PP      PP25844  10.980  13.004   9.349
15741PP      PP25845   2.017   7.227  12.635
15742PP      PP25846   5.215  11.583  13.105
15743PP      PP25847   5.573   4.051   2.130
15744PP      PP25848   4.196   9.481  13.050
15745PP      PP25849   4.491  10.079   2.264
15746PP      PP25850   2.831   3.823   9.623
15747PP      PP25851  15.752  12.770   3.702
15748PP      PP25852   0.463   6.699  13.412
15749PP      PP25853   3.104  13.785   9.703
15750PP      PP25854   3.749   8.919   2.792
15751PP      PP25855   8.570   4.569  11.258
15752PP      PP25856   6.007   8.601   0.799
15753PP      PP25857   5.677   3.053   0.550
15754PP      PP25858  15.483   4.989   2.293
15755PP      PP25859   0.884   6.004  10.176
15756PP      PP25860   8.245   8.486  10.914
15757PP      PP25861   3.980   7.939  12.626
15758PP      PP25862   8.226   4.501   2.190
15759PP      PP25863  14.621   2.492   8.910
15760PP      PP25864   7.294   0.288   3.328
15761PP      PP25865  11.238   5.740   2.623
15762PP      PP25866  10.701   2.468   3.607
15763PP      PP25867   9.267   5.572   3.617
15764PP      PP25868   7.862  12.610   1.425
15765PP      PP25869   7.773  10.525  12.708
15766PP      PP25870  15.617  13.793   1.222
15767PP      PP25871   7.539   0.980  12.927
15768PP      PP25872   8.065  11.133   1.064
15769PP      PP25873  14.129   5.577   3.967
15770PP      PP25874   0.646   6.035  10.946
15771PP      PP25875   8.081  10.082  11.942
15772PP      PP25876  13.522  14.576   2.199
15773PP      PP25877   0.907  12.927  10.258
15774PP      PP25878   5.854   2.237   2.492
15775PP      PP25879  13.273  14.555  11.173
15776PP      PP25880  13.005   1.292   2.828
15777PP      PP25881   0.122   4.002  11.950
15778PP      PP25882   9.682  15.270   3.065
15779PP      PP25883   6.047  10.197   8.290
15780PP      PP25884  11.791   2.793   4.259
15781PP      PP25885   9.617   0.471   0.140
15782PP      PP25886  11.377  12.011   4.478
15783PP      PP25887   0.449   3.972  13.551
15784PP      PP25888   7.900   5.163   1.774
15785PP      PP25889   1.995   0.619   1.277
15786PP      PP25890   4.890   4.998   3.603
15787PP      PP25891   6.982  13.626  12.438
15788PP      PP25892   0.315   9.018   2.022
15789PP      PP25893  11.491   2.670  10.421
15790PP      PP25894  11.609   4.826  10.208
15791PP      PP25895  10.300  10.256  13.265
15792PP      PP25896  10.475  11.317   9.295
15793PP      PP25897   7.693   1.294   0.513
15794PP      PP25898   9.088  13.524  10.051
15795PP      PP25899   1.660   0.085   1.105
15796PP      PP25900  10.124   0.328   4.163
15797PP      PP25901   9.985   8.629   1.614
15798PP      PP25902   8.717   1.972   2.403
15799PP      PP25903   8.025   0.791   3.766
15800PP      PP25904   9.734   7.461   8.911
15801PP      PP25905   1.503  15.464   3.596
15802PP      PP25906   3.094  10.270   1.747
15803PP      PP25907  12.505  11.094   1.711
15804PP      PP25908   3.585   4.591  10.628
15805PP      PP25909   6.267   3.947   2.603
15806PP      PP25910   4.575  14.344   0.265
15807PP      PP25911   9.695   4.449   2.355
15808PP      PP25912   3.876  11.506  12.613
15809PP      PP25913  14.633  14.068   3.435
15810PP      PP25914  10.454  11.240  10.290
15811PP      PP25915   1.865  13.290  10.236
15812PP      PP25916  10.871   7.522   2.253
15813PP      PP25917  13.100  13.791  12.003
15814PP      PP25918   5.464   1.488   2.808
15815PP      PP25919   8.562   9.646  12.743
15816PP      PP25920   2.233  13.765   9.599
15817PP      PP25921   5.835   7.161   1.649
15818PP      PP25922   2.704   2.398   2.869
15819PP      PP25923   8.903   3.256   2.666
15820PP      PP25924   0.131   6.026   3.469
15821PP      PP25925  11.740  10.803   3.526
15822PP      PP25926  15.649   7.675   9.786
15823PP      PP25927  13.546   1.217  12.203
15824PP      PP25928   1.076   8.100   3.940
15825PP      PP25929   1.063   9.559   9.075
15826PP      PP25930   0.436  12.850  13.282
15827PP      PP25931   6.279   2.854   4.604
15828PP      PP25932  11.086   5.480   1.546
15829PP      PP25933   0.949   2.304  10.445
15830PP      PP25934   4.243   0.193  13.144
15831PP      PP25935  13.755   9.777  10.080
15832PP      PP25936   0.612   7.421   3.373
15833PP      PP25937   3.452  13.556  10.554
15834PP      PP25938   4.112  15.393  10.148
15835PP      PP25939  10.535   4.489   0.138
15836PP      PP25940  15.392  15.573  10.165
15837PP      PP25941   8.505   9.478   0.518
15838PP      PP25942   8.030   6.005   3.311
15839PP      PP25943   5.793  12.195  11.936
15840PP      PP25944  13.809   1.100  11.761
15841PP      PP25945  14.778   4.834  12.996
15842PP      PP25946  11.996   2.509   0.379
15843PP      PP25947   9.540  11.930  12.151
15844PP      PP25948   7.445   2.208   4.575
15845PP      PP25949  15.337   7.258   9.780
15846PP      PP25950   0.960   6.441   9.905
15847PP      PP25951   1.575   8.439   2.324
15848PP      PP25952   0.407   1.610   0.679
15849PP      PP25953   1.106   0.447   9.690
15850PP      PP25954   4.322   5.864   0.057
15851PP      PP25955  12.201   3.098   4.272
15852PP      PP25956  15.761   4.374   2.242
15853PP      PP25957  10.432  14.087  11.171
15854PP      PP25958   5.673   6.709   2.489
15855PP      PP25959   9.331  10.547   2.320
15856PP      PP25960  12.072  11.621  13.194
15857PP      PP25961  12.701  15.175   0.702
15858PP      PP25962  11.246   4.871   9.842
15859PP      PP25963  10.955   1.575   0.400
15860PP      PP25964   6.541   9.054   0.203
15861PP      PP25965   7.581  14.278  10.127
15862PP      PP25966   3.273  15.503   8.378
15863PP      PP25967  12.251  13.166  12.141
15864PP      PP25968  15.111   0.962   0.715
15865PP      PP25969   2.737   5.292   3.316
15866PP      PP25970   9.859   6.660  12.684
15867PP      PP25971   0.202   9.858  10.247
15868PP      PP25972  11.796  13.288  11.960
15869PP      PP25973  13.298  13.336   2.908
15870PP      PP25974   0.072   1.062  12.367
15871PP      PP25975   4.123   6.816   0.917
15872PP      PP25976   7.277  11.264   0.749
15873PP      PP25977   5.647   6.403   3.804
15874PP      PP25978   1.072  13.306   0.663
15875PP      PP25979  11.420  15.453  12.685
15876PP      PP25980   0.545  13.921  10.163
15877PP      PP25981   2.778  13.959   4.155
15878PP      PP25982   4.190  12.343  11.247
15879PP      PP25983   1.463   0.238   4.931
15880PP      PP25984   5.055   3.034  10.873
15881PP      PP25985   7.055   4.460   2.197
15882PP      PP25986   4.589   3.132  11.089
15883PP      PP25987   4.208  12.433   0.939
15884PP      PP25988   0.965  15.053  12.698
15885PP      PP25989   9.808   0.096   3.782
15886PP      PP25990   3.582  12.399   2.869
15887PP      PP25991   8.457   2.310  13.579
15888PP      PP25992  15.821   0.159   1.669
15889PP      PP25993   6.642  11.991  12.582
15890PP      PP25994   1.929   1.106   0.994
15891PP      PP25995   3.330  10.756   4.001
15892PP      PP25996   3.291   4.444  12.065
15893PP      PP25997   5.212  10.221  12.495
15894PP      PP25998   3.502  13.186  11.497
15895PP      PP25999   4.991   1.786   4.056
15896PP      PP26000   8.301   9.691  10.553
15897PP      PP26001  15.546   8.530  10.156
15898PP      PP26002   2.888   0.494   3.528
15899PP      PP26003  13.718   7.662  12.462
15900PP      PP26004  13.997  15.456   1.518
15901PP      PP26005   9.529   3.154  11.886
15902PP      PP26006   8.493   0.428  10.970
15903PP      PP26007  14.371  13.122   2.471
15904PP      PP26008  13.746   7.456   3.395
15905PP      PP26009   6.457   2.968  11.695
15906PP      PP26010   3.290   1.366   1.335
15907PP      PP26011  10.365  13.498  12.007
15908PP      PP26012   0.116   1.919  10.678
15909PP      PP26013   3.078  15.372  10.673
15910PP      PP26014  12.400  11.710  11.228
15911PP      PP26015  14.607   6.124  12.846
15912PP      PP26016   1.220   8.284   1.046
15913PP      PP26017   9.001   2.430   9.281
15914PP      PP26018   6.578  11.951   3.600
15915PP      PP26019  12.295   5.023   0.074
15916PP      PP26020   2.058   6.358   9.084
15917PP      PP26021  11.051   3.950  13.273
15918PP      PP26022  14.123   3.754   0.765
15919PP      PP26023   6.747   9.012   1.979
15920PP      PP26024   9.733   3.862  13.594
15921PP      PP26025  11.383   2.213  12.538
15922PP      PP26026  12.742   6.519   2.943
15923PP      PP26027   5.779  13.697  10.131
15924PP      PP26028  12.868   8.073   0.828
15925PP      PP26029   5.499   8.347   2.450
15926PP      PP26030   2.391   4.990  11.855
15927PP      PP26031   9.588   9.814   3.286
15928PP      PP26032   2.887  14.883  10.968
15929PP      PP26033   1.129   6.223  10.827
15930PP      PP26034  14.629   0.708  12.456
15931PP      PP26035  10.749   1.488   2.504
15932PP      PP26036   5.319   6.015   9.904
15933PP      PP26037  10.278   3.380  11.325
15934PP      PP26038   2.287  11.150   0.058
15935PP      PP26039   8.563  15.570   3.414
15936PP      PP26040  15.190   6.265  11.069
15937PP      PP26041   7.689   6.612   3.957
15938PP      PP26042  11.907   2.110  10.062
15939PP      PP26043   8.278   8.018   9.135
15940PP      PP26044   7.774   1.495  10.739
15941PP      PP26045  15.338   5.497   2.271
15942PP      PP26046   1.958   8.114   3.470
15943PP      PP26047   2.262  11.918   1.145
15944PP      PP26048   8.134   8.436  12.432
15945PP      PP26049   1.314   1.028   2.364
15946PP      PP26050   4.826   7.433  10.420
15947PP      PP26051  10.404   0.740   9.211
15948PP      PP26052  15.794   5.872   4.037
15949PP      PP26053  10.956  15.358   4.697
15950PP      PP26054   2.547   1.545   9.720
15951PP      PP26055  15.349   8.530  10.852
15952PP      PP26056  12.274   9.106   9.639
15953PP      PP26057  15.517   4.462   8.903
15954PP      PP26058   4.060   1.780   9.715
15955PP      PP26059  14.556  14.620   4.790
15956PP      PP26060  10.739  14.576  13.486
15957PP      PP26061   1.529   7.432  12.529
15958PP      PP26062   0.101  11.363  12.549
15959PP      PP26063   3.574  10.782   2.477
15960PP      PP26064  13.065   0.845  13.194
15961PP      PP26065   5.292   9.664   9.577
15962PP      PP26066  14.941   0.089  13.226
15963PP      PP26067   8.316   5.697   8.489
15964PP      PP26068   4.320   1.140   9.247
15965PP      PP26069   0.517   7.374  10.556
15966PP      PP26070  14.726   9.150  12.133
15967PP      PP26071   2.491   9.092   9.429
15968PP      PP26072   3.717   4.682  13.362
15969PP      PP26073   7.547   3.659   2.448
15970PP      PP26074   9.687  15.204   4.326
15971PP      PP26075  15.443  12.249  12.862
15972PP      PP26076   1.768   3.757   4.367
15973PP      PP26077   1.293  14.444  11.651
15974PP      PP26078  11.398   9.676   0.904
15975PP      PP26079   6.535  15.307  13.228
15976PP      PP26080   8.325   1.904  11.937
15977PP      PP26081   5.814  12.234   2.880
15978PP      PP26082   2.679   7.742  10.922
15979PP      PP26083   6.893   8.117   9.623
15980PP      PP26084   5.568  11.366   1.457
15981PP      PP26085   7.098  11.423   1.719
15982PP      PP26086  13.666   1.970   3.378
15983PP      PP26087   6.371  10.858   2.007
15984PP      PP26088   9.000   3.468   1.684
15985PP      PP26089   8.093  15.699  11.257
15986PP      PP26090   0.807  14.489  11.859
15987PP      PP26091  15.592  10.379  10.959
15988PP      PP26092   0.477   6.768  12.378
15989PP      PP26093  10.598  10.716  13.511
15990PP      PP26094   4.766   1.510   1.814
15991PP      PP26095  12.923   8.270   0.039
15992PP      PP26096  11.799  10.977  10.653
15993PP      PP26097  12.945  11.732   9.309
15994PP      PP26098   6.594   4.640  13.291
15995PP      PP26099   7.071   8.167   0.199
15996PP      PP26100   9.594  13.506  12.790
15997PP      PP26101   1.795   4.160  11.050
15998PP      PP26102   2.445  10.857   0.496
15999PP      PP26103   0.248   7.814  11.535
16000PP      PP26104   7.615  10.996  12.012
16001PP      PP26105   7.833  13.216  11.407
16002PP      PP26106   7.336   8.435   9.524
16003PP      PP26107   2.435  15.499   2.716
16004PP      PP26108  14.813   7.043   0.010
16005PP      PP26109  11.409  15.251   3.115
16006PP      PP26110  13.868   3.292   2.399
16007PP      PP26111   4.003   9.203   9.301
16008PP      PP26112   8.203  15.107   9.871
16009PP      PP26113   3.290   7.812   0.054
16010PP      PP26114  12.545  11.828   2.253
16011PP      PP26115  11.071  11.247   3.192
16012PP      PP26116   0.466   4.264   4.052
16013PP      PP26117   2.172   9.144   9.022
16014PP      PP26118  15.556   7.173  12.834
16015PP      PP26119   9.870  13.708   2.913
16016PP      PP26120   3.652   2.519   4.364
16017PP      PP26121   6.285  13.795  10.094
16018PP      PP26122   2.109  13.029   1.001
16019PP      PP26123  14.129  13.563   2.247
16020PP      PP26124   6.490   6.362  12.021
16021PP      PP26125   3.625   1.683   2.465
16022PP      PP26126   0.064   0.898  10.172
16023PP      PP26127   4.635  11.019   9.089
16024PP      PP26128  15.678   5.399  10.668
16025PP      PP26129   3.612  12.409   1.646
16026PP      PP26130  10.387  10.460   9.729
16027PP      PP26131   3.564  14.437  12.524
16028PP      PP26132   4.249   2.757   0.773
16029PP      PP26133  11.295  15.233  10.865
16030PP      PP26134  15.163   3.529   2.598
16031PP      PP26135   5.536  13.694   9.137
16032PP      PP26136   3.535   9.332  11.922
16033PP      PP26137  11.169   7.053  11.015
16034PP      PP26138   4.170   1.390   4.858
16035PP      PP26139  14.658  10.582   4.012
16036PP      PP26140  14.626   9.180  11.121
16037PP      PP26141   0.769  14.709   1.285
16038PP      PP26142   1.447   9.178   2.752
16039PP      PP26143   7.390   3.518  13.192
16040PP      PP26144   2.192  12.318  10.970
16041PP      PP26145   8.565  12.533   1.917
16042PP      PP26146  12.206  12.067   9.046
16043PP      PP26147   9.599  15.074   3.531
16044PP      PP26148   5.083   4.607  11.728
16045PP      PP26149  13.382   6.938   3.383
16046PP      PP26150   5.325  11.990   3.781
16047PP      PP26151   4.942   6.604   2.851
16048PP      PP26152   0.136  10.496   3.844
16049PP      PP26153   8.501  12.035  12.349
16050PP      PP26154   6.244  14.151   9.709
16051PP      PP26155   2.576  13.136   1.213
16052PP      PP26156   7.220   7.923   1.664
16053PP      PP26157   0.167   3.280   1.063
16054PP      PP26158   6.692   6.572   9.444
16055PP      PP26159  15.366   2.433  10.184
16056PP      PP26160  10.108   4.469  12.807
16057PP      PP26161   0.835   8.967   1.928
16058PP      PP26162  14.165   8.406   1.834
16059PP      PP26163   3.823   5.975   9.981
16060PP      PP26164  12.273  10.668  12.767
16061PP      PP26165  12.728  13.262   3.700
16062PP      PP26166  11.992  14.108  13.384
16063PP      PP26167  13.364   4.342   0.710
16064PP      PP26168   3.634   1.144   9.546
16065PP      PP26169   1.887   2.128  11.880
16066PP      PP26170   8.335   4.514   4.223
16067PP      PP26171   7.049  10.254   2.417
16068PP      PP26172  10.583   7.282   1.857
16069PP      PP26173   9.932   4.080   0.460
16070PP      PP26174   5.662  12.407  10.594
16071PP      PP26175   8.980   7.559   9.283
16072PP      PP26176   2.505  11.553   3.282
16073PP      PP26177   4.605  13.130   3.227
16074PP      PP26178  13.081  13.334   4.099
16075PP      PP26179   8.022   7.372   2.875
16076PP      PP26180   5.813   7.413  12.939
16077PP      PP26181   0.021   4.613   4.116
16078PP      PP26182   9.495  10.025   2.298
16079PP      PP26183   7.620   7.291   9.812
16080PP      PP26184  12.637   1.172  10.317
16081PP      PP26185  15.245  13.399   0.282
16082PP      PP26186   7.199   4.988   4.060
16083PP      PP26187   5.794   8.458   3.000
16084PP      PP26188  10.252   7.349   2.278
16085PP      PP26189   4.386   4.527   9.585
16086PP      PP26190   0.159   6.377  12.631
16087PP      PP26191   6.215   5.231  11.790
16088PP      PP26192   5.438   1.760   4.965
16089PP      PP26193   7.668  11.509  11.882
16090PP      PP26194   4.497   5.564  13.275
16091PP      PP26195  14.573  12.039   0.062
16092PP      PP26196   3.752  13.024   1.837
16093PP      PP26197  13.584  12.594   9.521
16094PP      PP26198  15.380   6.322   2.649
16095PP      PP26199   5.889   2.009   1.856
16096PP      PP26200  11.256   8.242   2.529
16097PP      PP26201   7.504   2.665   2.427
16098PP      PP26202  14.064   0.064   0.066
16099PP      PP26203  14.106   7.073   3.538
16100PP      PP26204   3.454  12.546   1.029
16101PP      PP26205  11.688   8.403   4.240
16102PP      PP26206   7.479  13.722  12.182
16103PP      PP26207  11.066  10.695   0.203
16104PP      PP26208  15.596   4.554   0.116
16105PP      PP26209   0.592   5.486   2.115
16106PP      PP26210  13.974   2.677  13.482
16107PP      PP26211   3.690  15.008  13.165
16108PP      PP26212  13.652  10.240  12.823
16109PP      PP26213  13.827   8.013   1.710
16110PP      PP26214   2.614  12.585   9.114
16111PP      PP26215   8.502  11.402   4.832
16112PP      PP26216  12.612   9.441   9.461
16113PP      PP26217  15.247   4.519  10.733
16114PP      PP26218   9.570   7.567  12.848
16115PP      PP26219   2.158   4.305   2.884
16116PP      PP26220  11.277   5.986   0.254
16117PP      PP26221   8.017   6.721   1.308
16118PP      PP26222   3.899   2.234  10.745
16119PP      PP26223  12.116  13.694   2.318
16120PP      PP26224  14.210  11.608   4.008
16121PP      PP26225   3.094   4.806   0.884
16122PP      PP26226  10.008  15.571   3.421
16123PP      PP26227   9.464   3.161   9.941
16124PP      PP26228  11.378   3.658  12.312
16125PP      PP26229  10.204   1.590  11.369
16126PP      PP26230  11.715   0.552   3.861
16127PP      PP26231  12.538  13.790   0.589
16128PP      PP26232   4.999  10.710   3.787
16129PP      PP26233   8.387   8.891   8.544
16130PP      PP26234   3.706   0.820  10.088
16131PP      PP26235   8.716   0.461  12.347
16132PP      PP26236  15.645  12.662  10.122
16133PP      PP26237   6.166   4.758  11.573
16134PP      PP26238  14.164  11.009   3.245
16135PP      PP26239   5.264  14.863   9.776
16136PP      PP26240   9.240  10.959  11.303
16137PP      PP26241  10.577  10.748   2.587
16138PP      PP26242  10.106   2.491  10.556
16139PP      PP26243   5.920  11.731   2.976
16140PP      PP26244   1.807   7.139  11.229
16141PP      PP26245   9.265  12.059   1.495
16142PP      PP26246   0.775  14.940   3.517
16143PP      PP26247   4.942  12.279  13.488
16144PP      PP26248   5.007   7.338  12.213
16145PP      PP26249  12.194   1.364  10.545
16146PP      PP26250  15.148  15.814   2.987
16147PP      PP26251  14.233  10.442  12.887
16148PP      PP26252   9.330  14.215  10.906
16149PP      PP26253  12.576   7.796   4.023
16150PP      PP26254   3.248  11.735   8.439
16151PP      PP26255   1.241  12.425   9.109
16152PP      PP26256   2.081   4.628   2.449
16153PP      PP26257  14.693  13.401  10.330
16154PP      PP26258   9.032  15.127   1.231
16155PP      PP26259   4.805  12.613   9.588
16156PP      PP26260   5.887   7.363  10.390
16157PP      PP26261   3.528   4.227   2.848
16158PP      PP26262  11.075  15.825   4.476
16159PP      PP26263   2.833  10.120  11.018
16160PP      PP26264  14.308  13.194  11.791
16161PP      PP26265   3.395   4.909   0.417
16162PP      PP26266  12.788   3.481  12.579
16163PP      PP26267   1.481   8.184   9.238
16164PP      PP26268   6.944  12.649   9.282
16165PP      PP26269   3.978   2.350   2.194
16166PP      PP26270   5.438  14.755  12.565
16167PP      PP26271   6.320   6.038  10.591
16168PP      PP26272  10.734  11.103   0.278
16169PP      PP26273  14.789   6.286  11.484
16170PP      PP26274   8.294   2.398   4.505
16171PP      PP26275   3.525   0.786   3.988
16172PP      PP26276   2.595   9.284   3.440
16173PP      PP26277   4.292  13.944   8.782
16174PP      PP26278  12.414  14.704  11.273
16175PP      PP26279   5.489  15.596  11.091
16176PP      PP26280   4.116   5.489   2.790
16177PP      PP26281  15.370   1.542   3.650
16178PP      PP26282  15.637   3.668   9.749
16179PP      PP26283   5.685   5.103   2.279
16180PP      PP26284   1.518   0.776   9.767
16181PP      PP26285  11.857   8.324   0.157
16182PP      PP26286   9.344  11.771  12.679
16183PP      PP26287  13.747  10.866  12.235
16184PP      PP26288   6.661   5.249   0.446
16185PP      PP26289   1.031  10.878  12.379
16186PP      PP26290  15.673   4.452  11.718
16187PP      PP26291   4.253   4.567  13.125
16188PP      PP26292   8.500  12.892  10.377
16189PP      PP26293   4.881   5.968  11.920
16190PP      PP26294   9.574   4.228   2.905
16191PP      PP26295   3.804  10.413  11.686
16192PP      PP26296   4.460   0.490  11.475
16193PP      PP26297  12.001   6.973   0.876
16194PP      PP26298  11.059   8.670   1.668
16195PP      PP26299  13.077   7.324   0.266
16196PP      PP26300  12.629  15.339  13.261
16197PP      PP26301   7.414   5.091   8.325
16198PP      PP26302  15.615   9.319  12.570
16199PP      PP26303   1.779  13.409   1.801
16200PP      PP26304   3.800   5.713  12.128
16201PP      PP26305  12.315  11.387   2.444
16202PP      PP26306   5.297   3.439  13.522
16203PP      PP26307  10.014  14.531  10.295
16204PP      PP26308  15.300   8.450  12.298
16205PP      PP26309  13.822  14.384   2.611
16206PP      PP26310   1.151   4.250  11.387
16207PP      PP26311  14.394   8.581   3.819
16208PP      PP26312   0.306   9.835   8.899
16209PP      PP26313   3.742  13.758   1.084
16210PP      PP26314  15.201   1.441   9.085
16211PP      PP26315   7.243   7.287   2.782
16212PP      PP26316   0.225   4.853   1.045
16213PP      PP26317   3.301   0.585   3.159
16214PP      PP26318   7.649   4.901  10.483
16215PP      PP26319   7.850   0.620  12.193
16216PP      PP26320   3.020   9.734   1.844
16217PP      PP26321   7.346  10.051   9.638
16218PP      PP26322   8.528  15.544   9.896
16219PP      PP26323   5.147   9.477  10.438
16220PP      PP26324   8.025   4.335   3.022
16221PP      PP26325   0.544   8.397  12.976
16222PP      PP26326   5.968   1.564  11.961
16223PP      PP26327   3.383   0.403   1.280
16224PP      PP26328   9.403  15.227   2.051
16225PP      PP26329   5.115  14.511   0.570
16226PP      PP26330   4.296   9.073   2.092
16227PP      PP26331   0.331   4.963   3.911
16228PP      PP26332   7.290   5.780  11.450
16229PP      PP26333   9.650  11.033  11.777
16230PP      PP26334   0.017  13.841   3.373
16231PP      PP26335   6.319   1.133   3.107
16232PP      PP26336  12.474  10.669   9.292
16233PP      PP26337   4.568  11.634   8.174
16234PP      PP26338  14.163  15.791   1.890
16235PP      PP26339   1.935   7.532  10.001
16236PP      PP26340  14.632  13.556   3.729
16237PP      PP26341   5.455   8.144   9.666
16238PP      PP26342   2.688   7.208   0.276
16239PP      PP26343  12.747   9.135  11.367
16240PP      PP26344   3.525   7.641   9.740
16241PP      PP26345   3.667  11.891  13.468
16242PP      PP26346   2.426  13.374   0.762
16243PP      PP26347   6.858  10.188   4.255
16244PP      PP26348  10.657   4.128   0.977
16245PP      PP26349  10.723  11.468  13.510
16246PP      PP26350   2.593  10.559   9.463
16247PP      PP26351   9.424   8.052   1.962
16248PP      PP26352   2.793   5.259   2.123
16249PP      PP26353   2.097   2.371   0.804
16250PP      PP26354   4.525  12.731   2.910
16251PP      PP26355  14.191   4.856   2.977
16252PP      PP26356  12.497   5.679   4.124
16253PP      PP26357   8.377   5.772   1.553
16254PP      PP26358   2.854  14.396   0.124
16255PP      PP26359  10.346   4.517  13.253
16256PP      PP26360   8.882   6.624   9.666
16257PP      PP26361   6.467  15.169  11.137
16258PP      PP26362   4.022   2.999   3.901
16259PP      PP26363   0.061   5.908   9.922
16260PP      PP26364  10.307   9.250   3.307
16261PP      PP26365  13.848   9.790   8.810
16262PP      PP26366   7.183   0.654   4.197
16263PP      PP26367   7.317   1.619   8.931
16264PP      PP26368   3.680   7.154   9.158
16265PP      PP26369   2.547  14.843  10.199
16266PP      PP26370   8.847   2.002   0.700
16267PP      PP26371   4.611   0.817   1.859
16268PP      PP26372   9.167   9.386  11.417
16269PP      PP26373   4.252  15.645  10.624
16270PP      PP26374  12.414  14.757   0.858
16271PP      PP26375  10.941   3.537  11.698
16272PP      PP26376   8.415   1.422   4.489
16273PP      PP26377   1.830  15.710   4.939
16274PP      PP26378   7.412   8.844  12.833
16275PP      PP26379  11.055  10.556  13.289
16276PP      PP26380   6.523  11.423   3.826
16277PP      PP26381   4.252   0.142  11.839
16278PP      PP26382   8.400  12.421   4.026
16279PP      PP26383  13.285   6.209   3.738
16280PP      PP26384   9.664   8.278   8.874
16281PP      PP26385   1.122  14.798  10.260
16282PP      PP26386   5.277   7.679  12.516
16283PP      PP26387   8.913   3.651   9.036
16284PP      PP26388  15.453   6.726   8.098
16285PP      PP26389   6.015   3.899   3.081
16286PP      PP26390  14.712   4.123  12.252
16287PP      PP26391   2.698  15.299   9.961
16288PP      PP26392   7.773   7.903   9.367
16289PP      PP26393   2.742  10.557  10.179
16290PP      PP26394   6.237  12.118   9.415
16291PP      PP26395  13.312   5.155   4.488
16292PP      PP26396   1.963   7.626   0.469
16293PP      PP26397   4.468  10.722  10.656
16294PP      PP26398   5.521  14.466   4.203
16295PP      PP26399  12.972   2.034   1.580
16296PP      PP26400   4.963   4.425  11.237
16297PP      PP26401   8.090   7.655  10.818
16298PP      PP26402   8.838   6.549   1.877
16299PP      PP26403   7.905  15.606  11.737
16300PP      PP26404   2.098   1.266  12.447
16301PP      PP26405   3.025   9.147  11.878
16302PP      PP26406  12.096   5.210   9.665
16303PP      PP26407  11.774   6.992  13.230
16304PP      PP26408  10.659   4.114   2.758
16305PP      PP26409   9.456   5.051  11.504
16306PP      PP26410  15.723   5.763   1.216
16307PP      PP26411   7.859   3.357   2.739
16308PP      PP26412   6.773   9.263  11.937
16309PP      PP26413   4.602   3.699  10.231
16310PP      PP26414   3.277   4.162  10.334
16311PP      PP26415   2.878   7.907   2.195
16312PP      PP26416  13.608  12.430  12.239
16313PP      PP26417   6.652  12.962   2.703
16314PP      PP26418   9.088   5.205  10.154
16315PP      PP26419   7.287  15.655  12.386
16316PP      PP26420  14.225   4.125   2.485
16317PP      PP26421   3.389   6.754  11.260
16318PP      PP26422  12.647   3.977  11.284
16319PP      PP26423   1.364   1.141   4.851
16320PP      PP26424  13.796  10.661   0.242
16321PP      PP26425   6.477   1.694   4.595
16322PP      PP26426  11.265   6.081   8.831
16323PP      PP26427   2.220   7.597  12.244
16324PP      PP26428  12.375   0.942   0.068
16325PP      PP26429  12.682   4.463  12.654
16326PP      PP26430  12.887   2.942  12.456
16327PP      PP26431   0.176  10.892  12.324
16328PP      PP26432   9.654   5.773   1.123
16329PP      PP26433  15.072   5.835  11.353
16330PP      PP26434   9.549  10.161  11.342
16331PP      PP26435   6.295   2.300   9.578
16332PP      PP26436   1.942   0.596  11.213
16333PP      PP26437   4.865   6.754   1.919
16334PP      PP26438  14.128   2.071   3.764
16335PP      PP26439  10.035  11.579   3.999
16336PP      PP26440  10.706   3.417   2.720
16337PP      PP26441   0.167   4.665   3.115
16338PP      PP26442   9.392  14.309  10.261
16339PP      PP26443   3.866   4.479   9.705
16340PP      PP26444   4.472   2.068   0.204
16341PP      PP26445   2.037   2.317   3.710
16342PP      PP26446  10.024  13.101  12.083
16343PP      PP26447  10.748   8.679   3.788
16344PP      PP26448  11.894  10.799  13.111
16345PP      PP26449   2.557   4.083  11.639
16346PP      PP26450   4.813   2.042   2.727
16347PP      PP26451   2.951   8.161   1.536
16348PP      PP26452  10.994  11.945  13.487
16349PP      PP26453   0.718  10.349   9.592
16350PP      PP26454   2.316   7.263  13.306
16351PP      PP26455  13.404  13.735   3.895
16352PP      PP26456   1.966   5.835   4.797
16353PP      PP26457   1.446   6.900   9.599
16354PP      PP26458   0.425   0.362  11.736
16355PP      PP26459   5.578  12.036   2.037
16356PP      PP26460   8.910   0.872   1.340
16357PP      PP26461   1.432   6.574   3.628
16358PP      PP26462   6.048   2.881   0.891
16359PP      PP26463  13.518   4.984  13.063
16360PP      PP26464  15.402  14.993   9.959
16361PP      PP26465   6.874   9.887   0.758
16362PP      PP26466   1.952  15.616   2.947
16363PP      PP26467   7.295   4.098   1.395
16364PP      PP26468   9.974  10.745   0.803
16365PP      PP26469  15.002   7.657   9.751
16366PP      PP26470   3.661   4.223   3.955
16367PP      PP26471   0.251   9.672  13.415
16368PP      PP26472   0.811   7.125   2.031
16369PP      PP26473   0.065   8.123  11.138
16370PP      PP26474   0.135  10.403  12.154
16371PP      PP26475   9.689   7.187   0.928
16372PP      PP26476   8.909   8.107   3.942
16373PP      PP26477   0.344  11.155   3.308
16374PP      PP26478  13.896   5.161   1.166
16375PP      PP26479   4.543  14.717  11.752
16376PP      PP26480   5.262  13.025   3.867
16377PP      PP26481  12.058   8.593   3.875
16378PP      PP26482  11.430   9.299   2.126
16379PP      PP26483   7.930  10.944   2.689
16380PP      PP26484  14.959   1.562  11.116
16381PP      PP26485   5.319  11.766  12.630
16382PP      PP26486   6.966   1.894  10.583
16383PP      PP26487   9.723   4.196   1.885
16384PP      PP26488   2.108   6.718   9.480
16385PP      PP26489   0.387   4.744   0.551
16386PP      PP26490   2.109  10.296   2.198
16387PP      PP26491   0.752   5.525   1.521
16388PP      PP26492  13.875  10.222  13.582
16389PP      PP26493  14.778  11.984   1.938
16390PP      PP26494  12.415  12.555   2.844
16391PP      PP26495   2.248   7.512  11.266
16392PP      PP26496   0.301   0.122  11.298
16393PP      PP26497  14.585   4.753   3.766
16394PP      PP26498   2.519  14.052  11.494
16395PP      PP26499   5.970   0.498   9.207
16396PP      PP26500   0.418  13.762   2.903
16397PP      PP26501  10.386   6.780   8.616
16398PP      PP26502   6.742  11.262   0.311
16399PP      PP26503   1.220  11.783  10.844
16400PP      PP26504  13.036  13.585  12.460
16401PP      PP26505   3.150  11.585   1.296
16402PP      PP26506   6.466   7.663   2.311
16403PP      PP26507   5.285  10.913   1.564
16404PP      PP26508  14.600  12.224   2.867
16405PP      PP26509   6.919   7.704  10.008
16406PP      PP26510   0.334   2.732   1.170
16407PP      PP26511  14.984   5.454   2.697
16408PP      PP26512   4.375   1.253   2.038
16409PP      PP26513   5.440  14.608  13.073
16410PP      PP26514   3.706  14.757   9.283
16411PP      PP26515  13.536   3.685   4.529
16412PP      PP26516   5.192  15.701  11.560
16413PP      PP26517  14.173   4.243  12.520
16414PP      PP26518   3.999   8.452   0.717
16415PP      PP26519  13.456   8.846  10.313
16416PP      PP26520   4.182   3.253   9.210
16417PP      PP26521   6.350   1.818   9.358
16418PP      PP26522   4.954   4.497   1.537
16419PP      PP26523   3.179   3.974   9.111
16420PP      PP26524   8.506   0.204  13.532
16421PP      PP26525  14.721  15.340   3.610
16422PP      PP26526  10.660   7.879   0.614
16423PP      PP26527   2.537   4.567   8.992
16424PP      PP26528   9.283   4.714  10.649
16425PP      PP26529   6.403  14.039   2.342
16426PP      PP26530   3.638   1.353   1.729
16427PP      PP26531   7.098  11.771  13.155
16428PP      PP26532   4.629   2.563  12.348
16429PP      PP26533  10.854   7.633   9.552
16430PP      PP26534   5.248   7.120   9.026
16431PP      PP26535  12.853  15.142   2.248
16432PP      PP26536   7.006  15.490   1.198
16433PP      PP26537   7.970   1.117   4.421
16434PP      PP26538  11.568   7.709   3.764
16435PP      PP26539   1.190   5.722   2.909
16436PP      PP26540   4.557  12.230  11.583
16437PP      PP26541   6.336   5.208   3.509
16438PP      PP26542   2.321   3.018  12.106
16439PP      PP26543   6.776  14.404   2.393
16440PP      PP26544   4.581  10.099  10.649
16441PP      PP26545   0.857   5.587  11.100
16442PP      PP26546  10.459   1.286   2.113
16443PP      PP26547  13.828  15.113   0.740
16444PP      PP26548   3.564  13.911   9.503
16445PP      PP26549   0.057   5.433  10.192
16446PP      PP26550   6.226   7.145   9.949
16447PP      PP26551   6.329   0.908   9.209
16448PP      PP26552   8.424   5.943   3.672
16449PP      PP26553  15.777   2.836  10.201
16450PP      PP26554   5.360   4.773   0.442
16451PP      PP26555   6.691   4.620  10.354
16452PP      PP26556  13.714  12.363   0.590
16453PP      PP26557   8.608   8.372   2.242
16454PP      PP26558   8.399   7.595   2.606
16455PP      PP26559   9.481   6.365  13.496
16456PP      PP26560  13.015  12.222  12.980
16457PP      PP26561  10.779  14.121   2.774
16458PP      PP26562   3.958   0.964   1.832
16459PP      PP26563   4.972   4.511   3.788
16460PP      PP26564   8.557   4.998  11.865
16461PP      PP26565   1.385   9.959   9.082
16462PP      PP26566  10.029  15.271  13.449
16463PP      PP26567  13.291  11.381   1.961
16464PP      PP26568   4.051  15.383  12.981
16465PP      PP26569   1.967  14.714   8.955
16466PP      PP26570  13.794  12.111   9.348
16467PP      PP26571   8.767   6.801   2.401
16468PP      PP26572   3.231   8.535  11.528
16469PP      PP26573   0.255   5.521   1.682
16470PP      PP26574   1.760  10.621   1.284
16471PP      PP26575   7.201  13.690   0.201
16472PP      PP26576   3.622   4.541   1.351
16473PP      PP26577  12.133   0.641  12.153
16474PP      PP26578  13.722   6.497   2.918
16475PP      PP26579   8.871   1.816   4.800
16476PP      PP26580  11.679   6.445   3.518
16477PP      PP26581   5.785  10.010  10.871
16478PP      PP26582  14.950  15.251  12.000
16479PP      PP26583   5.116  13.390  11.084
16480PP      PP26584   2.780   7.065  10.130
16481PP      PP26585   5.817   4.590   3.891
16482PP      PP26586   9.379   3.825   1.743
16483PP      PP26587   0.596   5.327   3.662
16484PP      PP26588  15.717  12.221  11.534
16485PP      PP26589   3.075  11.881   9.893
16486PP      PP26590   4.233   8.544   1.244
16487PP      PP26591  12.003   5.184   1.561
16488PP      PP26592   7.817  11.758  11.440
16489PP      PP26593  12.590   0.754   9.505
16490PP      PP26594   3.040   8.219  12.958
16491PP      PP26595   2.764   1.292   7.727
16492PP      PP26596   5.183   6.456   8.437
16493PP      PP26597  11.765   4.705  12.709
16494PP      PP26598  15.192   6.389  10.295
16495PP      PP26599   2.491   4.524   3.757
16496PP      PP26600   0.342   1.061   0.490
16497PP      PP26601  13.326  12.187   3.189
16498PP      PP26602  12.494   7.978  11.037
16499PP      PP26603   1.006   0.239  11.042
16500PP      PP26604   6.017   7.910  11.163
16501PP      PP26605   0.887   6.646  11.012
16502PP      PP26606   1.377   7.741  10.104
16503PP      PP26607  15.281  11.579  11.091
16504PP      PP26608  15.024   4.304   8.960
16505PP      PP26609  10.191  15.361   5.357
16506PP      PP26610   5.280   7.250  10.748
16507PP      PP26611   3.959   0.577  10.476
16508PP      PP26612   0.136  13.198   1.926
16509PP      PP26613   3.616  13.931   3.049
16510PP      PP26614   5.566  10.195  10.422
16511PP      PP26615   1.077   9.988  11.876
16512PP      PP26616   6.732  15.805  13.412
16513PP      PP26617   4.028   7.554  12.219
16514PP      PP26618   2.613   2.664   4.413
16515PP      PP26619   9.672   4.915   1.374
16516PP      PP26620   8.057   7.576   1.928
16517PP      PP26621   9.835  14.541   5.225
16518PP      PP26622   1.417   3.065   3.406
16519PP      PP26623   7.865  14.734  12.232
16520PP      PP26624   4.137  13.572  11.165
16521PP      PP26625  14.167  15.775   2.431
16522PP      PP26626   4.846   2.402   0.012
16523PP      PP26627  12.129  10.986   8.640
16524PP      PP26628  14.961   8.494   3.889
16525PP      PP26629   0.122   6.055  10.911
16526PP      PP26630  11.393   7.527  10.923
16527PP      PP26631   9.544   4.618   3.671
16528PP      PP26632  10.723   6.870   4.133
16529PP      PP26633   7.933   8.401   9.279
16530PP      PP26634   2.698  11.505  12.851
16531PP      PP26635   8.190  12.920   1.862
16532PP      PP26636  10.419   5.741   9.882
16533PP      PP26637   9.382   5.107  12.907
16534PP      PP26638   2.755  15.700   9.417
16535PP      PP26639   2.172   4.337   1.991
16536PP      PP26640  12.101  15.076  11.462
16537PP      PP26641   8.949  10.785   0.193
16538PP      PP26642   3.169   0.474   0.765
16539PP      PP26643   8.135   7.880  12.230
16540PP      PP26644  12.980  14.715   3.063
16541PP      PP26645   3.576   0.255  11.779
16542PP      PP26646  15.595   0.813   2.800
16543PP      PP26647   4.525   6.724   3.787
16544PP      PP26648  12.172   3.347  11.826
16545PP      PP26649  14.641   8.012   9.673
16546PP      PP26650   0.772   9.133   8.206
16547PP      PP26651   7.939   1.993  10.955
16548PP      PP26652   9.588   2.140   2.537
16549PP      PP26653   1.247  12.034   3.754
16550PP      PP26654  14.291   4.388   8.925
16551PP      PP26655   7.134   9.464   3.005
16552PP      PP26656   4.917   7.541   3.548
16553PP      PP26657  15.655  12.978  10.984
16554PP      PP26658  15.548   7.539   8.363
16555PP      PP26659  12.060  12.412  10.907
16556PP      PP26660  10.523  11.442   3.121
16557PP      PP26661   7.605  12.330   2.828
16558PP      PP26662   4.449  13.037  12.963
16559PP      PP26663   8.996  11.297   1.697
16560PP      PP26664  14.754   8.893   3.621
16561PP      PP26665   8.293   9.760   3.681
16562PP      PP26666   7.283   7.143   8.847
16563PP      PP26667   4.574   6.392  13.477
16564PP      PP26668   4.977   7.169  11.237
16565PP      PP26669  13.921  10.267   2.765
16566PP      PP26670  12.702   2.200   3.233
16567PP      PP26671  11.841   6.643   2.636
16568PP      PP26672  13.093  11.645   9.796
16569PP      PP26673   5.768   7.455  10.962
16570PP      PP26674  12.657   4.635   1.265
16571PP      PP26675   2.865   3.074  11.242
16572PP      PP26676   7.673   2.791   0.043
16573PP      PP26677   8.979  13.837   2.328
16574PP      PP26678   8.916   3.923   2.607
16575PP      PP26679  13.682   5.852  12.370
16576PP      PP26680   1.732   9.105  11.306
16577PP      PP26681   6.557   5.524   2.650
16578PP      PP26682   0.657  13.417  11.118
16579PP      PP26683   6.407   4.527  12.190
16580PP      PP26684   2.472  15.746   2.234
16581PP      PP26685   0.534   8.663   1.110
16582PP      PP26686   3.045   2.139   0.678
16583PP      PP26687   5.995  10.435  10.224
16584PP      PP26688   5.308   0.255   4.498
16585PP      PP26689   8.680   1.513   0.782
16586PP      PP26690   1.504   2.584  12.378
16587PP      PP26691  14.126   7.360  12.562
16588PP      PP26692   2.400   1.013   9.707
16589PP      PP26693  14.852   1.318  10.674
16590PP      PP26694   8.251   9.634   9.695
16591PP      PP26695   3.325   8.993   9.373
16592PP      PP26696  10.211   8.785   3.076
16593PP      PP26697  15.236   6.575   0.697
16594PP      PP26698  14.931  11.998  10.911
16595PP      PP26699   6.997   2.323   3.521
16596PP      PP26700  12.589  12.968  10.748
16597PP      PP26701  12.235   9.117  11.288
16598PP      PP26702  10.815   0.505  11.178
16599PP      PP26703   3.940  14.287   9.393
16600PP      PP26704   8.327   5.752   2.680
16601PP      PP26705   4.402   0.478   2.248
16602PP      PP26706  14.130   5.118   4.794
16603PP      PP26707  15.339   2.204  10.652
16604PP      PP26708   0.987   1.996   2.188
16605PP      PP26709   4.424  14.560  11.285
16606PP      PP26710   0.962  14.018  11.644
16607PP      PP26711   9.245   6.642   2.207
16608PP      PP26712   3.281   0.279   9.756
16609PP      PP26713   3.535   7.404   0.864
16610PP      PP26714   6.993  10.199   0.316
16611PP      PP26715   0.656   0.522   2.763
16612PP      PP26716  15.677   9.555   0.144
16613PP      PP26717   2.233   6.895   1.330
16614PP      PP26718  12.467  10.685   3.880
16615PP      PP26719   4.519   7.347  13.539
16616PP      PP26720  15.248  14.515   1.794
16617PP      PP26721   4.795   3.053   3.133
16618PP      PP26722   8.926   3.527   0.517
16619PP      PP26723   2.868  14.841   2.462
16620PP      PP26724  15.030  11.357   8.669
16621PP      PP26725   7.227   5.771  10.547
16622PP      PP26726  10.654   4.641   3.517
16623PP      PP26727  14.807   0.742  10.039
16624PP      PP26728  13.612  10.197  10.414
16625PP      PP26729   3.940   4.786   3.459
16626PP      PP26730  15.614  14.406   0.347
16627PP      PP26731   3.913   2.015  12.593
16628PP      PP26732  12.709  14.207  11.142
16629PP      PP26733   8.665   7.238   8.952
16630PP      PP26734   3.113   1.548  10.723
16631PP      PP26735   8.334  14.691  10.192
16632PP      PP26736  10.840   9.828  10.997
16633PP      PP26737   7.296   8.527  12.440
16634PP      PP26738  12.559   3.864   3.084
16635PP      PP26739   6.733   2.560   4.501
16636PP      PP26740   6.245  15.342  11.585
16637PP      PP26741   0.658   0.658   0.434
16638PP      PP26742   3.384   6.441   3.695
16639PP      PP26743   3.734   4.050   0.263
16640PP      PP26744   4.209   3.716   1.663
16641PP      PP26745  15.569  11.679   4.392
16642PP      PP26746   7.417   2.069   2.433
16643PP      PP26747   3.268   2.094  11.914
16644PP      PP26748  13.227   4.659   3.341
16645PP      PP26749  11.464   9.521   0.423
16646PP      PP26750  13.683   9.929   8.318
16647PP      PP26751   0.783   3.214   3.355
16648PP      PP26752  12.821   5.451   0.311
16649PP      PP26753  13.393   5.363   8.568
16650PP      PP26754   4.916   5.412  13.032
16651PP      PP26755   1.758  10.171   8.132
16652PP      PP26756   7.678  10.585   0.126
16653PP      PP26757  14.597   4.058   9.152
16654PP      PP26758   6.177   8.669   0.279
16655PP      PP26759  15.224  11.299   4.204
16656PP      PP26760  12.146  10.673  10.895
16657PP      PP26761   7.622  10.369   4.112
16658PP      PP26762   8.336   5.593   0.499
16659PP      PP26763   3.649   9.456  12.423
16660PP      PP26764  12.643   4.055   0.280
16661PP      PP26765   0.649   7.189   9.516
16662PP      PP26766  12.208  12.004   3.627
16663PP      PP26767   2.767   1.762   3.329
16664PP      PP26768  12.513  15.408  12.738
16665PP      PP26769   5.188   0.941  13.281
16666PP      PP26770  12.868  10.343   9.408
16667PP      PP26771  13.731   4.848  10.106
16668PP      PP26772   3.527  11.932   0.533
16669PP      PP26773   5.503   4.988  12.738
16670PP      PP26774  14.194  14.200  12.635
16671PP      PP26775  10.918  13.265   1.036
16672PP      PP26776   4.158  15.537   3.586
16673PP      PP26777   3.644  10.364   9.024
16674PP      PP26778   6.809   0.384   2.458
16675PP      PP26779   9.256  12.693   4.632
16676PP      PP26780  14.243  10.390   2.034
16677PP      PP26781   8.414   9.308   0.003
16678PP      PP26782  13.324   9.776  10.600
16679PP      PP26783  15.823   6.406   0.996
16680PP      PP26784  12.443   3.823  10.283
16681PP      PP26785   0.036   5.358   9.197
16682PP      PP26786  15.391   8.463   2.276
16683PP      PP26787   2.099   6.656   2.174
16684PP      PP26788   3.459   1.770   4.387
16685PP      PP26789  13.286   3.416   2.881
16686PP      PP26790   3.385   7.862   0.612
16687PP      PP26791  12.354  13.909   1.874
16688PP      PP26792   4.524   9.514  12.219
16689PP      PP26793   8.082   4.851   3.161
16690PP      PP26794  10.957  12.154   2.284
16691PP      PP26795  14.842  14.070   2.961
16692PP      PP26796   5.964   3.010   2.967
16693PP      PP26797   1.283  13.835   2.701
16694PP      PP26798   4.485  15.298   0.009
16695PP      PP26799  12.839  15.759  13.037
16696PP      PP26800  12.339   4.194   1.088
16697PP      PP26801   9.680   9.286  11.587
16698PP      PP26802   4.438  11.988   1.114
16699PP      PP26803   2.073   1.699   9.398
16700PP      PP26804   9.842   8.407   2.083
16701PP      PP26805   4.398   7.646  10.609
16702PP      PP26806   2.933   7.472   2.861
16703PP      PP26807   8.578   1.445  13.559
16704PP      PP26808   0.339  11.108   0.564
16705PP      PP26809   5.850   6.018   9.327
16706PP      PP26810  10.215   8.843   2.021
16707PP      PP26811  15.431  11.830   1.899
16708PP      PP26812   2.551   1.991   0.715
16709PP      PP26813   1.518   9.582   9.426
16710PP      PP26814   9.974   3.450   2.482
16711PP      PP26815  10.557   8.957  12.306
16712PP      PP26816   2.912   3.708  13.431
16713PP      PP26817   3.751   1.165  12.275
16714PP      PP26818   5.867   6.669   8.310
16715PP      PP26819  12.530  10.222  13.028
16716PP      PP26820  13.252   1.812   9.863
16717PP      PP26821  15.508  10.950  13.293
16718PP      PP26822  13.664   1.019   3.322
16719PP      PP26823   9.975  12.114   2.593
16720PP      PP26824  10.625   0.064   0.255
16721PP      PP26825  12.259  15.644   3.628
16722PP      PP26826  14.130   6.543  10.344
16723PP      PP26827  14.210   3.451  12.617
16724PP      PP26828   5.272   1.120   4.712
16725PP      PP26829  14.403   0.495   3.060
16726PP      PP26830   8.057  12.965   3.911
16727PP      PP26831   7.875   5.557  13.588
16728PP      PP26832  14.153   9.294  10.801
16729PP      PP26833  11.352  10.563  12.498
16730PP      PP26834   8.925   8.321   1.202
16731PP      PP26835  15.044   1.818  13.162
16732PP      PP26836   0.655   9.454  13.155
16733PP      PP26837   9.799   4.421  13.243
16734PP      PP26838  10.279   9.131   9.546
16735PP      PP26839   6.236   6.513  12.966
16736PP      PP26840   2.585  12.100   8.918
16737PP      PP26841   7.698   3.874   4.241
16738PP      PP26842  10.667  14.661   1.664
16739PP      PP26843   6.997   0.227  11.840
16740PP      PP26844  13.907   9.456   3.199
16741PP      PP26845  10.310   6.573   4.237
16742PP      PP26846  12.423   5.317  12.796
16743PP      PP26847  12.694  11.831   3.895
16744PP      PP26848  13.755   0.725  12.487
16745PP      PP26849  13.774  13.797   3.533
16746PP      PP26850  15.159   0.846   4.084
16747PP      PP26851  15.334   2.222  12.835
16748PP      PP26852  13.504   6.344  12.452
16749PP      PP26853   8.069   9.097   1.440
16750PP      PP26854   8.799   7.720   2.950
16751PP      PP26855  14.100   7.336   9.340
16752PP      PP26856   0.852   6.996  13.548
16753PP      PP26857   2.758   3.031   9.131
16754PP      PP26858   8.652   9.399  11.358
16755PP      PP26859   8.105   5.221   3.574
16756PP      PP26860  14.160  11.407   2.897
16757PP      PP26861  12.817  10.529  12.049
16758PP      PP26862  13.703   2.540   1.009
16759PP      PP26863   0.755   8.048   0.837
16760PP      PP26864   2.904   8.669  11.133
16761PP      PP26865  14.136  13.737   4.366
16762PP      PP26866   4.672   8.115  10.621
16763PP      PP26867   0.062   4.447   9.294
16764PP      PP26868   2.428  12.804   1.846
16765PP      PP26869  13.809  13.377   0.917
16766PP      PP26870   8.917   9.816   0.353
16767PP      PP26871   7.736   8.206  12.149
16768PP      PP26872   1.427   1.713   3.874
16769PP      PP26873  10.771  11.740   1.543
16770PP      PP26874   0.645  11.241   9.632
16771PP      PP26875  15.035   9.639   1.812
16772PP      PP26876   0.874   6.163  12.836
16773PP      PP26877   6.165   8.545   4.424
16774PP      PP26878  15.529   8.035  11.991
16775PP      PP26879  12.251  10.629   0.310
16776PP      PP26880  14.442   8.830   1.308
16777PP      PP26881   4.669  11.230   2.668
16778PP      PP26882   0.773   7.125   0.629
16779PP      PP26883  14.503   4.067   3.860
16780PP      PP26884  10.188  10.233  12.766
16781PP      PP26885   6.144  11.790  12.840
16782PP      PP26886   7.132   2.914   5.181
16783PP      PP26887  15.505   1.820  10.955
16784PP      PP26888  12.135   0.999  10.143
16785PP      PP26889   7.618  11.221  10.346
16786PP      PP26890  10.494   0.396  12.498
16787PP      PP26891  12.743   4.967  12.437
16788PP      PP26892   7.761   8.274   9.765
16789PP      PP26893   7.564   9.136   9.945
16790PP      PP26894   1.644   7.346   0.098
16791PP      PP26895   2.234   9.823   1.284
16792PP      PP26896   8.303   1.137   3.523
16793PP      PP26897   5.923  12.293   1.778
16794PP      PP26898   4.091   0.237   9.433
16795PP      PP26899   9.997  11.920  11.391
16796PP      PP26900   1.160   2.495  12.745
16797PP      PP26901   8.352  13.259  12.108
16798PP      PP26902   3.284   3.864   2.586
16799PP      PP26903   9.658   5.422   1.517
16800PP      PP26904  14.370   4.732  13.294
16801PP      PP26905  10.031   8.636  13.271
16802PP      PP26906   3.472   1.591   3.039
16803PP      PP26907  12.458  15.059   4.706
16804PP      PP26908   2.082   7.624   3.422
16805PP      PP26909   1.815  13.258   4.093
16806PP      PP26910   4.688   5.537   0.743
16807PP      PP26911   8.838   1.514  11.810
16808PP      PP26912  12.258   5.219   3.391
16809PP      PP26913   0.877  12.960   3.592
16810PP      PP26914   4.999  10.506   9.747
16811PP      PP26915   2.944   9.291  10.686
16812PP      PP26916   5.347   7.868   3.381
16813PP      PP26917  11.456   9.020   2.559
16814PP      PP26918   1.374   5.317  12.936
16815PP      PP26919  15.520   8.932   3.220
16816PP      PP26920   6.415  12.788  11.483
16817PP      PP26921  11.236   1.231   1.669
16818PP      PP26922  15.680   8.810   8.353
16819PP      PP26923   3.807  15.212  12.126
16820PP      PP26924   5.360   9.223  10.037
16821PP      PP26925   3.548   8.745  13.348
16822PP      PP26926   4.075   5.059  13.207
16823PP      PP26927   3.695   7.995   3.776
16824PP      PP26928   4.299  10.370  12.007
16825PP      PP26929   4.261   4.401  12.144
16826PP      PP26930   4.971  12.167   1.855
16827PP      PP26931   2.766   5.541   1.659
16828PP      PP26932   1.948   5.370   1.650
16829PP      PP26933   1.527  12.306   0.884
16830PP      PP26934   8.375   5.942  13.531
16831PP      PP26935   5.269   7.817   9.305
16832PP      PP26936   8.010   7.246  11.647
16833PP      PP26937   7.090  10.576   1.387
16834PP      PP26938   2.245   8.341  12.820
16835PP      PP26939   5.668  13.983   2.438
16836PP      PP26940   3.764   8.716   9.278
16837PP      PP26941  11.856   1.869   3.352
16838PP      PP26942   9.452  15.026   0.271
16839PP      PP26943   0.597   6.261  12.388
16840PP      PP26944  15.533  14.818  12.602
16841PP      PP26945  13.506   4.412   8.201
16842PP      PP26946   0.597   3.076  12.094
16843PP      PP26947   0.784  10.105   1.377
16844PP      PP26948  15.709  11.936   3.973
16845PP      PP26949   2.901   1.021   1.665
16846PP      PP26950  14.315  10.807   0.144
16847PP      PP26951  14.524   1.240   3.684
16848PP      PP26952   8.401   7.631   3.285
16849PP      PP26953   9.513   9.334  11.039
16850PP      PP26954  11.625  12.779   1.123
16851PP      PP26955  13.959  12.626   1.246
16852PP      PP26956  14.793   4.923  13.543
16853PP      PP26957   2.025   2.967   3.897
16854PP      PP26958   7.305   4.938   2.572
16855PP      PP26959  14.310  11.148   3.751
16856PP      PP26960  12.683   9.842   3.731
16857PP      PP26961  10.398   6.752  10.948
16858PP      PP26962  14.952   6.939   1.312
16859PP      PP26963   9.049   8.785   1.458
16860PP      PP26964   8.049   6.162  13.191
16861PP      PP26965   3.655  12.413  13.055
16862PP      PP26966   1.348  14.366   0.343
16863PP      PP26967   5.686  10.972  12.390
16864PP      PP26968   6.031  15.579  10.259
16865PP      PP26969   9.210  13.274  13.106
16866PP      PP26970   1.260   1.320   4.263
16867PP      PP26971   4.638  12.098   0.643
16868PP      PP26972   4.101   4.325   4.279
16869PP      PP26973  12.434  13.334   2.119
16870PP      PP26974   0.047  12.259   3.605
16871PP      PP26975   4.980   9.058  11.446
16872PP      PP26976   7.132  11.356  10.505
16873PP      PP26977   1.731   2.569  10.256
16874PP      PP26978   5.123   3.361   2.768
16875PP      PP26979   0.421  11.647  13.444
16876PP      PP26980   7.493  10.064   2.565
16877PP      PP26981   2.377   5.050   4.207
16878PP      PP26982   5.132   2.417  10.191
16879PP      PP26983  13.557  13.926  10.878
16880PP      PP26984   7.881   6.194  10.703
16881PP      PP26985   3.944  13.571   1.768
16882PP      PP26986  13.705  13.027   3.046
16883PP      PP26987  11.666   9.883  10.265
16884PP      PP26988   8.757   0.612  11.380
16885PP      PP26989  14.288   9.774   9.794
16886PP      PP26990   5.692  11.883   2.518
16887PP      PP26991  11.705   7.947   2.505
16888PP      PP26992  15.309  13.042   3.601
16889PP      PP26993  15.733   3.767   3.065
16890PP      PP26994   9.136  11.673  13.549
16891PP      PP26995   5.631  15.709   3.175
16892PP      PP26996   9.920   4.942   3.175
16893PP      PP26997   5.847   5.887   3.837
16894PP      PP26998  14.027   3.161   1.927
16895PP      PP26999   1.447   6.057   2.088
16896PP      PP27000   3.110   3.131  10.342
16897PP      PP27001   5.008   0.901  11.063
16898PP      PP27002   4.602  10.307   8.770
16899PP      PP27003  15.804   0.662   3.511
16900PP      PP27004   8.948  11.250   9.917
16901PP      PP27005   0.445  14.001   2.433
16902PP      PP27006  15.217   9.865   9.790
16903PP      PP27007  11.872   3.082   2.179
16904PP      PP27008  13.778   4.500  12.255
16905PP      PP27009  14.139  13.396   3.533
16906PP      PP27010   7.663  10.140  10.980
16907PP      PP27011   7.109   7.938  10.591
16908PP      PP27012  12.293   8.623  10.829
16909PP      PP27013   2.539  12.715   0.691
16910PP      PP27014   4.435   3.922  12.292
16911PP      PP27015   9.363  14.489   1.987
16912PP      PP27016  12.602  10.255   9.867
16913PP      PP27017   0.097  10.431  11.396
16914PP      PP27018  13.191   4.784   9.015
16915PP      PP27019  14.838   9.753   2.742
16916PP      PP27020   5.068   9.986   0.579
16917PP      PP27021   9.690  14.407   3.380
16918PP      PP27022  10.059   0.144   9.970
16919PP      PP27023   6.607  11.908   9.727
16920PP      PP27024   1.788   7.568  11.554
16921PP      PP27025   8.001  11.172   3.368
16922PP      PP27026  15.228  14.253  12.065
16923PP      PP27027   2.806   5.812  12.912
16924PP      PP27028   1.224   1.304   0.177
16925PP      PP27029   2.526   5.902   2.794
16926PP      PP27030   7.775   0.372   3.531
16927PP      PP27031   0.696  14.012  13.011
16928PP      PP27032  12.793   0.781  10.004
16929PP      PP27033   7.649   0.445   1.537
16930PP      PP27034  14.049   3.623   0.269
16931PP      PP27035   4.228   9.100   3.004
16932PP      PP27036  11.857  11.804   4.349
16933PP      PP27037   5.979   2.394   5.508
16934PP      PP27038   6.895  15.394   9.457
16935PP      PP27039   2.797   3.341  10.791
16936PP      PP27040   9.208   6.358   2.738
16937PP      PP27041   8.321   3.920  12.080
16938PP      PP27042  13.161   6.948  12.970
16939PP      PP27043   4.694   7.201   9.050
16940PP      PP27044   1.139   2.948   4.329
16941PP      PP27045   6.536  15.320  12.026
16942PP      PP27046   3.375   2.317  10.240
16943PP      PP27047  10.863   7.784  12.796
16944PP      PP27048   7.098  15.767   9.038
16945PP      PP27049   4.941   4.703  13.514
16946PP      PP27050   8.185  12.737   2.339
16947PP      PP27051  13.694   8.324   2.185
16948PP      PP27052  13.512   6.833  12.593
16949PP      PP27053  11.028  12.952  12.247
16950PP      PP27054   1.914  13.056   2.939
16951PP      PP27055  15.443   3.483   2.139
16952PP      PP27056   6.455   9.536   1.727
16953PP      PP27057   6.748  11.429   3.276
16954PP      PP27058   6.530   3.399   9.521
16955PP      PP27059  15.596   9.489  11.168
16956PP      PP27060  11.337   7.853  12.991
16957PP      PP27061  14.110  11.772   1.413
16958PP      PP27062   8.600   9.446   4.451
16959PP      PP27063   8.298   6.712  12.198
16960PP      PP27064   6.667   4.781  11.801
16961PP      PP27065  13.970   9.365   9.835
16962PP      PP27066   1.410   5.359   1.595
16963PP      PP27067   4.959  14.767   1.517
16964PP      PP27068  15.665   2.446   0.942
16965PP      PP27069   6.896   6.010   9.326
16966PP      PP27070   4.795  11.710   1.981
16967PP      PP27071   1.905   5.366   3.514
16968PP      PP27072   9.471   6.473  12.386
16969PP      PP27073  14.308   2.405   0.634
16970PP      PP27074  13.621   8.796  10.957
16971PP      PP27075   9.830   6.831   3.130
16972PP      PP27076   1.666   8.853   8.852
16973PP      PP27077  13.107  12.949   9.380
16974PP      PP27078   9.847   6.380   2.828
16975PP      PP27079   2.989  10.890   8.579
16976PP      PP27080  15.589   3.898   2.463
16977PP      PP27081  10.656   2.521  12.038
16978PP      PP27082   1.731   3.037   9.685
16979PP      PP27083   7.924   1.900   3.748
16980PP      PP27084   2.616  13.176   4.825
16981PP      PP27085   6.015   8.994  11.361
16982PP      PP27086   1.847  15.045  10.937
16983PP      PP27087  14.689  12.890  10.369
16984PP      PP27088   3.373   5.795   0.399
16985PP      PP27089  15.031  11.066   1.214
16986PP      PP27090   3.365   1.974   1.045
16987PP      PP27091   8.000  10.465   2.333
16988PP      PP27092   3.339  14.279   0.277
16989PP      PP27093   4.019  12.436  12.675
16990PP      PP27094  15.405   9.599  12.177
16991PP      PP27095   4.098   3.673  10.658
16992PP      PP27096  10.398  12.790   3.887
16993PP      PP27097   7.441  15.747   1.923
16994PP      PP27098   9.025   9.006  12.295
16995PP      PP27099   8.387  13.826  11.311
16996PP      PP27100  10.768  10.180  13.541
16997PP      PP27101   2.621  12.376   1.543
16998PP      PP27102  11.781  12.268  11.333
16999PP      PP27103   8.434   5.472  12.672
17000PP      PP27104  15.581   3.786   3.573
17001PP      PP27105   3.828   4.106   1.621
17002PP      PP27106   2.546   5.568  13.267
17003PP      PP27107  12.742  11.563  10.556
17004PP      PP27108   8.764   3.880   9.769
17005PP      PP27109  11.539   9.093   0.150
17006PP      PP27110   0.588   6.847  11.417
17007PP      PP27111  11.052   8.107   9.487
17008PP      PP27112   6.891  15.652  12.873
17009PP      PP27113   9.707  15.485   1.033
17010PP      PP27114   3.040   6.594  11.998
17011PP      PP27115   2.841   2.509   1.557
17012PP      PP27116  15.460  10.142  12.281
17013PP      PP27117  14.543  12.586   9.948
17014PP      PP27118  14.940   5.042   9.534
17015PP      PP27119  12.261   8.193   8.811
17016PP      PP27120  10.919  13.554   3.437
17017PP      PP27121  15.645  11.902   1.440
17018PP      PP27122  12.222   3.234   1.831
17019PP      PP27123   4.330   9.869   1.830
17020PP      PP27124  12.626   5.125   2.986
17021PP      PP27125  15.102  15.080   3.895
17022PP      PP27126   0.780   1.359  11.945
17023PP      PP27127  12.437   5.663   9.624
17024PP      PP27128   5.971   2.994  10.791
17025PP      PP27129   6.583   4.952   2.536
17026PP      PP27130  10.420  11.385   1.684
17027PP      PP27131   3.211   7.494   2.044
17028PP      PP27132   5.890   7.344   9.000
17029PP      PP27133  12.925  10.270   8.755
17030PP      PP27134   7.567   9.626   0.134
17031PP      PP27135   1.873  11.806   2.510
17032PP      PP27136   6.452   6.024  12.863
17033PP      PP27137  15.364   7.097  12.365
17034PP      PP27138   4.224  13.484   3.243
17035PP      PP27139   8.560   5.324  11.436
17036PP      PP27140   8.602   9.938  11.348
17037PP      PP27141  14.277   0.880  11.357
17038PP      PP27142   7.148  13.256  11.150
17039PP      PP27143  11.269  10.885   1.593
17040PP      PP27144   2.861  11.377   3.642
17041PP      PP27145  13.880   2.034   2.899
17042PP      PP27146  11.029   7.278   4.231
17043PP      PP27147  10.146  12.228   4.609
17044PP      PP27148   8.321  10.548   8.461
17045PP      PP27149   7.008   4.851   0.631
17046PP      PP27150  14.614   0.395   0.920
17047PP      PP27151   5.265   4.941  10.391
17048PP      PP27152   4.003  11.654   0.925
17049PP      PP27153   8.162  10.366  13.036
17050PP      PP27154  11.510   4.192  13.089
17051PP      PP27155   1.206  14.133  12.099
17052PP      PP27156  12.032  15.390   5.435
17053PP      PP27157   3.151  11.774  11.282
17054PP      PP27158   7.353  11.914   3.906
17055PP      PP27159  10.262   9.577   2.564
17056PP      PP27160   5.011   0.383  11.635
17057PP      PP27161   7.313  12.088  10.929
17058PP      PP27162   4.932   5.698   3.366
17059PP      PP27163   7.217  10.651   3.519
17060PP      PP27164   8.010   5.572   8.866
17061PP      PP27165  14.398   3.237   2.284
17062PP      PP27166  12.491   9.927   9.498
17063PP      PP27167   9.503  13.880   4.558
17064PP      PP27168   0.139   9.245   3.249
17065PP      PP27169   4.816   8.002   3.354
17066PP      PP27170   7.038   9.043   9.978
17067PP      PP27171   5.830  11.625   1.059
17068PP      PP27172   8.224   3.129  10.815
17069PP      PP27173   9.709  10.937   0.121
17070PP      PP27174   9.645  15.393  11.976
17071PP      PP27175  11.729  14.935   5.390
17072PP      PP27176  15.318   5.592   0.916
17073PP      PP27177  14.229  10.599  12.042
17074PP      PP27178  10.314   3.365   1.827
17075PP      PP27179   8.397   4.124  10.425
17076PP      PP27180   9.727   2.324   1.567
17077PP      PP27181  11.259   6.490   3.861
17078PP      PP27182   1.509   3.015   1.928
17079PP      PP27183  15.297  11.770  10.587
17080PP      PP27184   1.132   7.400  13.264
17081PP      PP27185  12.421  10.179   4.031
17082PP      PP27186   7.563  11.518  13.336
17083PP      PP27187   6.530   6.262   2.402
17084PP      PP27188   4.233   8.756   9.480
17085PP      PP27189   5.674   7.298  13.436
17086PP      PP27190   1.661  10.349   3.537
17087PP      PP27191  15.162  12.888  10.087
17088PP      PP27192  14.351  10.189   1.571
17089PP      PP27193   1.759  11.790  10.786
17090PP      PP27194   1.956  10.007   3.277
17091PP      PP27195   7.275   4.732   0.150
17092PP      PP27196   9.354   3.489   2.543
17093PP      PP27197   9.775   3.890   8.858
17094PP      PP27198  10.588  10.616   0.446
17095PP      PP27199   9.542  10.061  10.297
17096PP      PP27200  11.010  14.985   2.442
17097PP      PP27201   9.805  15.412   3.880
17098PP      PP27202   2.256  10.743  11.844
17099PP      PP27203   2.492   0.094  13.204
17100PP      PP27204  11.733   1.613   1.555
17101PP      PP27205   8.788  12.049   4.212
17102PP      PP27206   5.154   7.608   1.872
17103PP      PP27207  13.775  14.396   3.551
17104PP      PP27208   5.706   6.503  13.048
17105PP      PP27209   6.408  11.141   2.461
17106PP      PP27210  14.167   7.811   0.957
17107PP      PP27211   8.825   4.187   8.718
17108PP      PP27212  10.085   7.486   3.892
17109PP      PP27213   1.360   1.544   2.412
17110PP      PP27214   7.206   4.297   8.943
17111PP      PP27215   8.678   9.605   9.012
17112PP      PP27216  12.773   8.924   9.567
17113PP      PP27217   1.476   3.876  11.365
17114PP      PP27218   8.364   4.416  12.274
17115PP      PP27219  12.832   3.684   9.953
17116PP      PP27220   8.900   3.984  12.942
17117PP      PP27221  14.517   6.242   1.969
17118PP      PP27222   7.121  10.365  10.642
17119PP      PP27223  12.730   5.242  11.622
17120PP      PP27224   0.993  10.429   4.151
17121PP      PP27225   2.376   7.115   2.215
17122PP      PP27226  14.595   9.814  12.490
17123PP      PP27227   1.661   3.042  12.195
17124PP      PP27228  13.743   2.100   8.926
17125PP      PP27229   5.922  14.786  13.593
17126PP      PP27230   5.080   6.997  11.735
17127PP      PP27231   4.294  13.288   9.837
17128PP      PP27232   0.954  15.394  12.264
17129PP      PP27233   3.473   8.125  12.685
17130PP      PP27234   7.904   1.373   2.554
17131PP      PP27235   9.400  12.152  10.368
17132PP      PP27236   4.283  11.397  10.650
17133PP      PP27237   2.159  14.746   1.102
17134PP      PP27238  14.068  11.801   2.560
17135PP      PP27239   0.041   0.241   4.367
17136PP      PP27240   0.166   8.163   9.073
17137PP      PP27241   7.654  10.382   3.593
17138PP      PP27242  13.838   0.109   1.393
17139PP      PP27243   6.996   4.316   3.566
17140PP      PP27244   7.472   7.119   3.682
17141PP      PP27245  12.243   5.055   2.026
17142PP      PP27246  13.093   2.747   3.357
17143PP      PP27247   1.890   5.386  13.051
17144PP      PP27248   6.782  13.334   3.284
17145PP      PP27249  11.932   3.037   2.688
17146PP      PP27250   4.791  13.085   0.825
17147PP      PP27251   8.507   9.274  10.277
17148PP      PP27252   2.745  15.415  12.058
17149PP      PP27253   7.109  12.708  11.995
17150PP      PP27254   1.301  13.071   0.261
17151PP      PP27255   4.295  15.526  11.551
17152PP      PP27256   7.385   6.281  10.498
17153PP      PP27257   0.627  12.485  11.082
17154PP      PP27258   5.463   5.715   8.886
17155PP      PP27259   8.955  14.807  12.954
17156PP      PP27260  11.982  15.798   9.828
17157PP      PP27261   8.358   8.148   3.604
17158PP      PP27262   1.553   6.280  12.689
17159PP      PP27263   4.573   4.037   9.305
17160PP      PP27264   9.046   4.761   3.475
17161PP      PP27265  13.945   8.784   2.271
17162PP      PP27266  12.247  12.865   1.961
17163PP      PP27267   0.510   6.999   1.535
17164PP      PP27268  12.739   1.980   3.709
17165PP      PP27269   8.911  15.313  13.108
17166PP      PP27270  13.775   9.237  11.882
17167PP      PP27271   2.405   2.904  12.667
17168PP      PP27272  13.005  10.471  10.112
17169PP      PP27273  14.613   6.773  11.619
17170PP      PP27274   5.967  14.259   1.495
17171PP      PP27275  10.475   9.648   9.671
17172PP      PP27276   3.968   0.814   2.360
17173PP      PP27277   0.610   9.492   9.320
17174PP      PP27278   6.786   6.591  11.146
17175PP      PP27279   4.368   9.514   0.289
17176PP      PP27280   2.489   6.203   3.217
17177PP      PP27281   6.504  13.107   1.883
17178PP      PP27282   8.890   5.113   0.924
17179PP      PP27283   9.343   8.896  11.267
17180PP      PP27284  14.331  11.008  10.138
17181PP      PP27285   0.086   1.517   1.917
17182PP      PP27286   8.850  14.550  10.284
17183PP      PP27287   9.194   0.835  11.561
17184PP      PP27288   1.448  10.253   2.662
17185PP      PP27289  15.176   4.138   3.635
17186PP      PP27290   3.050   8.977  13.452
17187PP      PP27291  11.719  15.536  13.271
17188PP      PP27292   7.929   1.950   1.135
17189PP      PP27293   5.888   5.135   9.828
17190PP      PP27294   9.500  13.475   1.262
17191PP      PP27295   4.855   3.327   1.387
17192PP      PP27296   2.590   0.523  12.899
17193PP      PP27297   7.090   8.054   4.111
17194PP      PP27298   8.482   8.208   1.464
17195PP      PP27299   1.877   2.097  11.197
17196PP      PP27300   9.819   7.050   2.303
17197PP      PP27301  13.480   6.029   0.621
17198PP      PP27302  13.861   9.588  12.823
17199PP      PP27303   2.454  15.036  11.783
17200PP      PP27304   1.280  11.940   9.321
17201PP      PP27305  15.409   8.738  11.843
17202PP      PP27306   7.679   4.788   4.220
17203PP      PP27307   6.797   3.063   9.842
17204PP      PP27308   4.371   9.607   9.118
17205PP      PP27309  13.469  11.513   0.780
17206PP      PP27310  11.049   6.238   1.864
17207PP      PP27311   7.555  15.561   4.698
17208PP      PP27312   3.493  13.768  11.678
17209PP      PP27313   7.224   6.899   0.046
17210PP      PP27314   2.399  10.357   0.307
17211PP      PP27315   4.918   0.631   9.477
17212PP      PP27316  15.108   8.082   1.979
17213PP      PP27317   5.926   9.460  11.079
17214PP      PP27318  15.643   8.046   1.882
17215PP      PP27319  15.817   0.134   0.901
17216PP      PP27320   3.010   5.874   8.410
17217PP      PP27321   1.414  11.045  13.164
17218PP      PP27322   6.796   3.019  10.382
17219PP      PP27323   5.024   1.112   2.059
17220PP      PP27324  10.789   7.721   9.032
17221PP      PP27325   6.995  14.496   0.701
17222PP      PP27326  14.198  12.119  12.252
17223PP      PP27327  10.679   6.205   1.506
17224PP      PP27328  11.947   9.310   0.372
17225PP      PP27329   6.364   4.501   0.187
17226PP      PP27330  15.450   0.956  12.083
17227PP      PP27331   1.466  10.274  12.084
17228PP      PP27332  14.634  12.110   4.465
17229PP      PP27333   3.409   8.876   1.885
17230PP      PP27334   9.574   2.637   2.444
17231PP      PP27335   5.041   1.646   3.078
17232PP      PP27336  14.827  10.384   3.553
17233PP      PP27337  10.445  12.584   2.012
17234PP      PP27338   3.051  12.649   2.743
17235PP      PP27339  12.682   4.893   9.062
17236PP      PP27340  12.893  12.428   1.158
17237PP      PP27341   4.981  11.949   8.287
17238PP      PP27342   1.249   4.847  13.377
17239PP      PP27343   5.694   0.565   1.742
17240PP      PP27344   5.456  15.783   9.911
17241PP      PP27345   5.605   4.988   8.500
17242PP      PP27346   9.132   5.789   1.198
17243PP      PP27347   5.281  13.833   3.289
17244PP      PP27348  11.526   7.464   2.520
17245PP      PP27349  12.203   2.299  12.158
17246PP      PP27350   4.606  12.545   1.894
17247PP      PP27351   2.544   2.225  11.292
17248PP      PP27352  14.607   7.955  13.288
17249PP      PP27353  15.786   8.173   2.424
17250PP      PP27354   5.414   4.995   3.758
17251PP      PP27355   8.454  11.992   1.094
17252PP      PP27356  11.268   0.371   9.672
17253PP      PP27357   2.108   2.576   9.107
17254PP      PP27358   6.391   5.550   0.112
17255PP      PP27359   7.812  14.190   9.256
17256PP      PP27360   5.798   0.051   4.305
17257PP      PP27361   7.983  10.834  12.347
17258PP      PP27362  12.793   3.561   2.726
17259PP      PP27363  10.868  11.147   1.810
17260PP      PP27364   5.861   3.058  11.745
17261PP      PP27365   1.059   6.585   8.633
17262PP      PP27366   0.856   2.687   1.597
17263PP      PP27367  10.268   0.037  10.613
17264PP      PP27368   6.792   4.526   4.044
17265PP      PP27369   6.463   3.218  10.793
17266PP      PP27370   9.308   6.917   1.164
17267PP      PP27371   9.857  10.504   9.571
17268PP      PP27372   3.300  10.358  10.114
17269PP      PP27373   9.634   2.520   4.944
17270PP      PP27374   5.675  10.399   3.100
17271PP      PP27375  13.247   3.087  12.911
17272PP      PP27376  13.805   9.281   8.803
17273PP      PP27377   2.452  13.608   0.271
17274PP      PP27378   9.356   2.281   3.876
17275PP      PP27379   7.686   4.662   2.805
17276PP      PP27380  10.764   8.508  11.976
17277PP      PP27381  15.726  10.052  13.499
17278PP      PP27382   1.017  10.504  11.957
17279PP      PP27383   1.025  13.574   1.728
17280PP      PP27384  11.384   5.304   0.764
17281PP      PP27385   4.005  12.132   3.038
17282PP      PP27386  15.827  13.414  12.517
17283PP      PP27387   5.441  15.050  13.416
17284PP      PP27388  10.725  15.395   1.162
17285PP      PP27389  12.826   7.255  10.590
17286PP      PP27390  13.613  14.092   1.533
17287PP      PP27391   3.561   1.443  12.685
17288PP      PP27392   6.107   7.072   3.668
17289PP      PP27393  12.761   0.678   2.117
17290PP      PP27394   5.442   5.730  10.749
17291PP      PP27395  14.070   1.527   2.885
17292PP      PP27396   0.059   0.812   1.342
17293PP      PP27397  12.260   3.863  11.661
17294PP      PP27398  12.075   8.320  13.289
17295PP      PP27399   5.559  13.164   9.121
17296PP      PP27400  10.716   3.817   3.597
17297PP      PP27401  10.197   5.380  13.115
17298PP      PP27402  10.011  12.300   2.025
17299PP      PP27403   3.924  15.075   9.673
17300PP      PP27404   9.373   8.968  10.707
17301PP      PP27405   1.600   3.551   1.231
17302PP      PP27406   7.133   4.444   0.973
17303PP      PP27407  14.563   0.325   0.383
17304PP      PP27408   6.412   3.484   2.409
17305PP      PP27409   8.435   8.048   4.615
17306PP      PP27410   0.865   8.476   9.863
17307PP      PP27411   7.497   6.513  12.621
17308PP      PP27412   1.934   0.439   1.770
17309PP      PP27413   8.049   3.888   4.632
17310PP      PP27414   6.639   8.692   2.771
17311PP      PP27415   5.341   3.361  10.334
17312PP      PP27416   6.619   3.576  12.186
17313PP      PP27417   5.550   7.273   9.410
17314PP      PP27418   2.938  14.870   9.807
17315PP      PP27419  12.279   7.081   0.451
17316PP      PP27420   9.044  15.616   4.595
17317PP      PP27421   9.343   2.286   1.034
17318PP      PP27422   2.952  14.604   1.548
17319PP      PP27423   8.178  14.216  13.581
17320PP      PP27424   6.225  13.720   9.413
17321PP      PP27425   4.186  15.173  12.503
17322PP      PP27426   9.520  11.392   1.930
17323PP      PP27427  13.865   0.551   0.052
17324PP      PP27428   6.102  13.285  10.749
17325PP      PP27429   5.814   9.691   0.188
17326PP      PP27430   7.870  13.859   4.595
17327PP      PP27431  13.782  14.953   1.593
17328PP      PP27432   6.318  12.057   0.175
17329PP      PP27433  11.883   3.683  10.881
17330PP      PP27434  14.140  13.766   1.004
17331PP      PP27435  11.886   5.276   3.797
17332PP      PP27436   4.617   4.998  10.875
17333PP      PP27437   2.039   4.302   3.796
17334PP      PP27438   2.350   9.880   8.798
17335PP      PP27439   7.539   0.762   4.590
17336PP      PP27440   2.710   7.843  13.046
17337PP      PP27441  15.252   7.423   8.786
17338PP      PP27442  14.463  12.093   2.368
17339PP      PP27443  14.641   4.863   2.737
17340PP      PP27444  14.581   5.890  10.511
17341PP      PP27445   7.937   4.176   8.969
17342PP      PP27446   5.650   5.643   2.308
17343PP      PP27447   6.350  12.756   0.140
17344PP      PP27448   5.889   4.988   3.566
17345PP      PP27449   9.200   8.051   0.351
17346PP      PP27450  13.184   4.662  12.504
17347PP      PP27451   8.824   1.171   0.386
17348PP      PP27452   5.891   4.878  11.152
17349PP      PP27453  12.771   7.152  11.165
17350PP      PP27454  11.734   1.924   0.837
17351PP      PP27455   8.927  13.024  10.802
17352PP      PP27456   4.131  12.952  11.384
17353PP      PP27457   6.282   7.430  11.036
17354PP      PP27458   4.255   6.408  11.248
17355PP      PP27459   0.312   3.124   3.742
17356PP      PP27460  15.694  10.387  10.143
17357PP      PP27461   5.093  11.247   3.640
17358PP      PP27462  15.794  14.251  10.785
17359PP      PP27463   4.040  10.287  12.620
17360PP      PP27464   6.981  13.659  10.872
17361PP      PP27465   8.726  11.540  12.066
17362PP      PP27466  15.171  12.715  12.945
17363PP      PP27467  12.430  12.455   0.021
17364PP      PP27468  14.402   6.942   1.205
17365PP      PP27469   5.249   9.879  12.108
17366PP      PP27470   3.385  14.217   9.946
17367PP      PP27471   1.729   8.692  10.468
17368PP      PP27472  13.586  10.089   9.236
17369PP      PP27473  15.255   3.024   2.243
17370PP      PP27474   0.308  15.675   1.365
17371PP      PP27475   1.478  13.469   8.993
17372PP      PP27476   8.623  12.027  11.850
17373PP      PP27477   8.047  11.292  13.383
17374PP      PP27478  11.370  11.512  11.391
17375PP      PP27479   9.336   8.292  13.209
17376PP      PP27480   8.380  15.797   1.365
17377PP      PP27481   2.789   0.031   2.642
17378PP      PP27482  13.326   8.667   3.561
17379PP      PP27483   9.002   0.599   3.479
17380PP      PP27484  14.303   2.149  12.422
17381PP      PP27485  13.438   1.809  13.407
17382PP      PP27486   9.950   7.284  11.912
17383PP      PP27487   8.540  11.741   9.506
17384PP      PP27488   3.823   0.163   1.645
17385PP      PP27489  12.138   2.854  12.151
17386PP      PP27490   7.839  12.703  11.371
17387PP      PP27491  10.411   8.239   4.069
17388PP      PP27492   3.980   3.776  12.047
17389PP      PP27493  13.508   2.738   9.530
17390PP      PP27494  13.840   8.496   2.725
17391PP      PP27495   4.612  11.108   3.826
17392PP      PP27496   6.678   1.477   4.118
17393PP      PP27497   4.615  10.762  10.003
17394PP      PP27498   3.662   3.967  10.609
17395PP      PP27499  12.457  14.650  12.293
17396PP      PP27500   9.643  11.674   0.621
17397PP      PP27501   4.757   0.757   0.871
17398PP      PP27502  15.138   1.823   1.070
17399PP      PP27503   0.247   2.880   3.302
17400PP      PP27504   7.642  12.000  13.180
17401PP      PP27505   4.697   7.754   1.664
17402PP      PP27506   1.817   8.333   8.865
17403PP      PP27507  14.451   7.489   1.295
17404PP      PP27508  11.730   7.409  12.213
17405PP      PP27509  11.656  13.687   9.837
17406PP      PP27510   7.575   3.442  11.331
17407PP      PP27511   7.562   4.396  11.483
17408PP      PP27512   3.690  12.901   2.693
17409PP      PP27513  12.497   2.068   8.867
17410PP      PP27514  12.848   2.264   9.977
17411PP      PP27515   0.415   9.581   3.592
17412PP      PP27516   5.852  10.680   2.107
17413PP      PP27517  10.948   6.916   0.805
17414PP      PP27518   9.433   9.582   1.065
17415PP      PP27519   3.011   8.220   8.685
17416PP      PP27520   2.775   2.103   9.405
17417PP      PP27521   2.160  11.955   3.957
17418PP      PP27522  13.621  14.630   9.742
17419PP      PP27523   7.840   8.713   0.150
17420PP      PP27524   3.898   0.866   4.352
17421PP      PP27525   3.923   0.048  10.301
17422PP      PP27526  11.575  11.192   0.160
17423PP      PP27527   9.610  11.943   1.880
17424PP      PP27528  14.213   5.196  10.944
17425PP      PP27529  11.199   4.910  12.580
17426PP      PP27530  12.475   8.249   2.555
17427PP      PP27531   9.338   3.988  10.862
17428PP      PP27532   3.493   4.622   3.651
17429PP      PP27533  12.805  15.140  11.051
17430PP      PP27534   9.806   1.547   4.064
17431PP      PP27535  14.975  14.071  13.562
17432PP      PP27536  14.370   0.922   2.211
17433PP      PP27537  14.152   8.920  11.607
17434PP      PP27538   2.515  10.304  12.002
17435PP      PP27539   6.317   0.221   4.358
17436PP      PP27540  14.942   6.307   3.343
17437PP      PP27541   2.971   2.871   2.876
17438PP      PP27542  11.907   1.491  10.103
17439PP      PP27543   8.607  13.529  12.499
17440PP      PP27544   2.029   4.768  11.531
17441PP      PP27545   8.447   3.547   4.715
17442PP      PP27546   6.614   5.023   3.929
17443PP      PP27547   6.749  11.750   0.122
17444PP      PP27548   1.479  11.406   2.961
17445PP      PP27549  13.655   3.823  11.614
17446PP      PP27550   5.708   0.269  13.298
17447PP      PP27551   7.288   5.401  11.835
17448PP      PP27552  15.393   8.664   0.087
17449PP      PP27553   0.252  13.386   2.578
17450PP      PP27554  14.515   0.414  10.416
17451PP      PP27555   6.027   1.865   3.983
17452PP      PP27556  13.714   6.562  11.304
17453PP      PP27557  14.275   9.187   2.319
17454PP      PP27558  10.712  12.642  12.550
17455PP      PP27559   2.253   6.076   2.370
17456PP      PP27560   9.638   0.110   3.123
17457PP      PP27561   0.407   6.722   3.100
17458PP      PP27562   1.041  14.452   4.291
17459PP      PP27563   8.815  15.093   3.715
17460PP      PP27564   5.541   6.679  11.703
17461PP      PP27565  15.087   4.678   3.653
17462PP      PP27566   7.694  10.282   9.208
17463PP      PP27567  10.067  11.618  10.360
17464PP      PP27568  13.215  12.838   1.153
17465PP      PP27569   1.106  15.090   1.445
17466PP      PP27570   6.578  15.556  10.184
17467PP      PP27571  11.522  14.696  12.870
17468PP      PP27572   2.078  14.217   9.823
17469PP      PP27573  12.766   0.678   0.985
17470PP      PP27574   9.312   5.393   9.623
17471PP      PP27575   3.404  12.459   7.937
17472PP      PP27576   6.144   5.296   2.436
17473PP      PP27577   8.464   6.962   4.568
17474PP      PP27578   6.334  14.574  12.706
17475PP      PP27579   9.635   5.753   2.094
17476PP      PP27580   7.963   3.252   0.252
17477PP      PP27581   0.092  11.356   2.310
17478PP      PP27582   3.518   8.659   8.831
17479PP      PP27583  15.742   7.402   0.165
17480PP      PP27584  12.861   3.525  11.122
17481PP      PP27585   5.994   7.316  11.446
17482PP      PP27586   3.124  10.008   1.126
17483PP      PP27587  11.379   8.632   0.369
17484PP      PP27588   2.745   7.405  10.502
17485PP      PP27589   0.550  13.287   3.911
17486PP      PP27590  12.682   3.553   3.502
17487PP      PP27591   9.697   9.456   8.769
17488PP      PP27592  14.742   5.023   0.558
17489PP      PP27593  13.672  12.848   0.893
17490PP      PP27594  11.844   3.059   0.851
17491PP      PP27595   0.759   1.402  10.618
17492PP      PP27596   7.625   0.396   2.939
17493PP      PP27597   1.023   8.456   3.522
17494PP      PP27598  10.004   7.454   9.414
17495PP      PP27599   4.623   8.601   9.081
17496PP      PP27600  11.823   4.408  10.984
17497PP      PP27601   1.393   3.091  13.102
17498PP      PP27602  10.986  10.392   2.625
17499PP      PP27603   4.600   8.611   2.127
17500PP      PP27604  14.704  12.022  12.150
17501PP      PP27605   9.501   5.528   3.133
17502PP      PP27606   0.773   8.925   9.599
17503PP      PP27607  13.836  15.371   4.567
17504PP      PP27608  15.445  14.211   3.940
17505PP      PP27609   3.859   7.029  13.148
17506PP      PP27610  13.432  13.878   2.910
17507PP      PP27611   1.881  12.152   3.545
17508PP      PP27612  15.512   1.199   1.840
17509PP      PP27613   0.328   2.439   0.666
17510PP      PP27614   0.925  13.614   0.277
17511PP      PP27615  12.097  14.626  13.221
17512PP      PP27616   5.214   4.256   9.833
17513PP      PP27617   3.102  11.173  12.896
17514PP      PP27618   7.601   9.207   2.087
17515PP      PP27619   3.498   3.960  11.937
17516PP      PP27620   7.631   3.158   2.263
17517PP      PP27621   9.776  12.399  11.302
17518PP      PP27622   9.214   2.775   9.615
17519PP      PP27623  13.823   6.356   9.957
17520PP      PP27624  14.059  15.303   9.525
17521PP      PP27625  12.998  11.609  11.011
17522PP      PP27626  14.926  11.108  12.609
17523PP      PP27627   0.530  10.329   2.546
17524PP      PP27628  11.131   8.404  13.513
17525PP      PP27629   0.031  13.296   3.668
17526PP      PP27630   5.121   8.019   8.847
17527PP      PP27631   8.468   2.867  11.760
17528PP      PP27632  12.984   6.102  12.794
17529PP      PP27633   4.611   4.369   1.144
17530PP      PP27634   9.999   1.816  12.492
17531PP      PP27635   5.101   5.396   1.658
17532PP      PP27636   7.561  15.688   3.191
17533PP      PP27637   4.553   4.525   9.079
17534PP      PP27638   5.513   8.090  11.210
17535PP      PP27639   7.165   1.881  12.886
17536PP      PP27640   5.467   0.540  12.366
17537PP      PP27641   8.904   9.515  12.331
17538PP      PP27642   3.672   7.185  11.772
17539PP      PP27643   7.226   6.683  11.850
17540PP      PP27644   9.496  12.854   1.483
17541PP      PP27645   0.880   5.088  13.105
17542PP      PP27646   2.390   0.444  12.052
17543PP      PP27647   1.561   9.152  10.287
17544PP      PP27648   1.266   3.496   2.591
17545PP      PP27649   3.362   3.346   1.343
17546PP      PP27650  15.015   7.093  12.777
17547PP      PP27651  11.876  14.093  10.867
17548PP      PP27652   9.130  11.734   1.950
17549PP      PP27653  14.280   8.530  10.230
17550PP      PP27654  15.486  12.662   9.530
17551PP      PP27655  10.095   0.875  13.166
17552PP      PP27656   3.486   0.737  11.572
17553PP      PP27657   6.012  11.987   9.886
17554PP      PP27658  11.669  11.660  11.801
17555PP      PP27659   0.906   4.395   2.299
17556PP      PP27660   8.059   1.044  10.396
17557PP      PP27661  12.680   2.059  12.073
17558PP      PP27662   6.869   7.798  11.718
17559PP      PP27663   0.750   5.516  10.114
17560PP      PP27664  14.327  11.699  11.026
17561PP      PP27665  10.271  14.006  11.893
17562PP      PP27666   7.968   4.524  10.680
17563PP      PP27667   0.329   2.792  11.718
17564PP      PP27668   8.701   8.522   3.702
17565PP      PP27669   9.695   8.662  12.869
17566PP      PP27670   1.912   5.343   9.006
17567PP      PP27671   0.489  13.769   1.222
17568PP      PP27672  12.846   6.963   9.843
17569PP      PP27673   1.165  15.095   2.047
17570PP      PP27674   2.039  15.516   3.607
17571PP      PP27675   7.621  11.539   0.271
17572PP      PP27676   2.171   1.720  12.720
17573PP      PP27677  11.773   5.277   2.124
17574PP      PP27678   8.445   2.813   0.696
17575PP      PP27679   4.824  12.437  10.081
17576PP      PP27680   0.753   7.695  10.190
17577PP      PP27681   8.197   9.058  12.133
17578PP      PP27682   3.069   1.125   4.035
17579PP      PP27683   8.342   1.388  12.066
17580PP      PP27684   6.597  15.462   3.440
17581PP      PP27685   4.264   4.992   3.119
17582PP      PP27686   4.606   6.366   1.669
17583PP      PP27687   8.896   0.013  12.155
17584PP      PP27688   5.593   9.212  10.509
17585PP      PP27689  15.559   1.724   8.668
17586PP      PP27690   2.308   1.438  11.852
17587PP      PP27691   7.268  13.323   3.585
17588PP      PP27692  12.214   9.081   3.700
17589PP      PP27693  13.651  11.460   4.107
17590PP      PP27694  11.215   0.566   1.266
17591PP      PP27695   4.935   8.764   0.826
17592PP      PP27696  10.446  10.771   1.044
17593PP      PP27697   4.937  10.923  10.511
17594PP      PP27698   1.015   8.708   0.218
17595PP      PP27699   8.309  12.611   3.030
17596PP      PP27700   2.778   2.302  11.883
17597PP      PP27701   5.628   0.453   3.967
17598PP      PP27702   1.821   4.268   4.502
17599PP      PP27703  13.365  10.253   1.684
17600PP      PP27704   9.230  12.161  13.322
17601PP      PP27705   2.655   3.214  11.729
17602PP      PP27706   9.027   0.531   2.584
17603PP      PP27707  14.899  12.476   3.250
17604PP      PP27708  13.829   2.754   2.309
17605PP      PP27709  13.115   9.393  12.576
17606PP      PP27710  11.428   5.279   3.425
17607PP      PP27711   9.992  10.026   2.591
17608PP      PP27712   7.322   4.783  11.232
17609PP      PP27713   9.585  12.501   3.302
17610PP      PP27714  14.097   1.513  11.056
17611PP      PP27715   5.780  15.300   2.319
17612PP      PP27716  12.781   5.439   3.757
17613PP      PP27717   2.168   9.787  12.808
17614PP      PP27718   1.703   6.252   3.335
17615PP      PP27719   6.684  14.447   3.357
17616PP      PP27720   9.275   2.374  12.149
17617PP      PP27721  15.473   9.903   1.520
17618PP      PP27722  13.392  13.889  13.279
17619PP      PP27723  12.565   5.835  12.005
17620PP      PP27724   2.502   3.321   0.763
17621PP      PP27725  12.219   0.478   3.026
17622PP      PP27726   3.806  13.616   3.531
17623PP      PP27727   0.535   8.397  10.879
17624PP      PP27728   3.007  10.345  10.581
17625PP      PP27729   0.344  10.791   1.001
17626PP      PP27730  13.632   5.709   9.625
17627PP      PP27731   5.362   2.684   3.289
17628PP      PP27732   6.819   3.778   0.284
17629PP      PP27733   0.704  12.305  12.680
17630PP      PP27734   2.306  13.069  11.191
17631PP      PP27735   6.182  13.201   3.457
17632PP      PP27736  12.916   5.454   9.515
17633PP      PP27737   4.368   1.186   3.678
17634PP      PP27738  13.385   6.918   1.126
17635PP      PP27739   0.438   4.436   2.068
17636PP      PP27740   3.420   4.608   2.526
17637PP      PP27741   8.724  12.779   1.347
17638PP      PP27742  12.929   9.954  13.199
17639PP      PP27743  11.951  14.585  11.626
17640PP      PP27744   3.910   9.700  13.448
17641PP      PP27745  13.488  15.412   9.857
17642PP      PP27746  12.417   3.867   2.485
17643PP      PP27747  15.120   1.949  10.128
17644PP      PP27748  15.354  12.500   2.915
17645PP      PP27749   8.081   9.343  12.561
17646PP      PP27750  15.506   5.263   0.514
17647PP      PP27751   2.938   1.036   4.861
17648PP      PP27752  11.418   5.161   1.776
17649PP      PP27753   8.887  14.640   1.845
17650PP      PP27754   7.107  12.201   4.371
17651PP      PP27755   3.576   3.670   8.887
17652PP      PP27756   5.116   0.516   1.173
17653PP      PP27757   0.100   6.736   1.372
17654PP      PP27758  11.051   6.329  12.319
17655PP      PP27759   8.992   9.899  10.410
17656PP      PP27760   7.424   4.542   3.278
17657PP      PP27761  13.800  13.541   3.086
17658PP      PP27762   2.158   3.816   9.024
17659PP      PP27763  14.690   3.109   1.243
17660PP      PP27764   3.855   4.781   2.270
17661PP      PP27765  10.055  15.041  10.225
17662PP      PP27766   7.456  13.338   0.671
17663PP      PP27767  15.140   4.434  12.331
17664PP      PP27768  15.668   9.185   1.156
17665PP      PP27769  14.740   2.945   3.114
17666PP      PP27770  14.852   5.952   1.021
17667PP      PP27771   9.874   9.746  11.369
17668PP      PP27772   0.441  14.931  13.564
17669PP      PP27773   9.807   9.757   1.555
17670PP      PP27774   5.238  11.217  10.858
17671PP      PP27775   6.736   5.344  11.855
17672PP      PP27776  13.957   5.425   0.127
17673PP      PP27777   9.150  11.235  11.815
17674PP      PP27778   7.454   6.461   2.185
17675PP      PP27779   0.502  14.360  10.641
17676PP      PP27780   3.995   7.370   0.092
17677PP      PP27781   5.908   6.330   1.252
17678PP      PP27782   1.941   4.975   8.628
17679PP      PP27783   6.908  10.097   1.260
17680PP      PP27784  15.805   1.213   4.244
17681PP      PP27785   1.187   0.666  11.321
17682PP      PP27786   6.025  13.178   0.220
17683PP      PP27787   6.172  10.795   9.059
17684PP      PP27788   7.294   2.053  11.362
17685PP      PP27789   3.276   5.948  12.138
17686PP      PP27790   6.420   6.379  10.178
17687PP      PP27791   0.422  14.785   9.377
17688PP      PP27792  15.633  11.427   3.906
17689PP      PP27793   7.840   4.012   9.824
17690PP      PP27794  13.048   4.508   0.320
17691PP      PP27795   9.528   8.890   3.866
17692PP      PP27796  10.224   3.662   0.052
17693PP      PP27797   1.547   3.030   1.260
17694PP      PP27798   9.360  13.836  10.514
17695PP      PP27799   5.120  11.285   1.229
17696PP      PP27800   4.404  10.974   9.567
17697PP      PP27801   3.936   8.060  11.823
17698PP      PP27802   4.030   6.551   3.685
17699PP      PP27803  14.471  11.287   0.982
17700PP      PP27804  14.934   6.343   2.288
17701PP      PP27805   3.864   8.041   1.890
17702PP      PP27806   0.704   8.464   4.091
17703PP      PP27807   7.841   6.601  13.031
17704PP      PP27808   3.344   9.190   2.575
17705PP      PP27809   9.435  12.197   0.600
17706PP      PP27810  11.596   4.408  10.507
17707PP      PP27811   6.981   9.713  10.585
17708PP      PP27812  11.631   6.361  10.960
17709PP      PP27813  14.300   8.821   9.329
17710PP      PP27814  11.000   0.859  12.173
17711PP      PP27815  11.305   6.578   1.009
17712PP      PP27816   8.063   4.790   3.865
17713PP      PP27817  13.188   8.329   3.037
17714PP      PP27818   4.931   9.744   9.940
17715PP      PP27819   7.282   2.765   3.410
17716PP      PP27820   2.741  13.793  11.892
17717PP      PP27821   8.792  11.554   4.035
17718PP      PP27822  13.876  10.410   4.258
17719PP      PP27823   4.968  11.632  12.197
17720PP      PP27824   9.880  12.052   4.208
17721PP      PP27825  10.869  15.539   1.689
17722PP      PP27826   1.766   5.846   3.633
17723PP      PP27827   4.385   3.653   2.770
17724PP      PP27828   1.863   1.368   4.055
17725PP      PP27829   0.006  15.063  11.432
17726PP      PP27830   0.736   9.675   0.113
17727PP      PP27831   0.240   5.860   9.349
17728PP      PP27832  14.752   8.983   1.711
17729PP      PP27833   4.934   1.388  11.790
17730PP      PP27834  11.716  11.286   3.814
17731PP      PP27835   9.104   8.234   2.315
17732PP      PP27836   1.102   9.316   9.547
17733PP      PP27837   5.145   1.118   2.597
17734PP      PP27838  10.051   9.968  10.384
17735PP      PP27839   6.824   4.502  10.869
17736PP      PP27840   3.065  15.760   4.810
17737PP      PP27841   1.617  10.045   2.204
17738PP      PP27842   5.528   6.235   8.775
17739PP      PP27843  14.215   3.157   1.447
17740PP      PP27844   1.725   4.873   1.565
17741PP      PP27845   8.205  13.717   0.920
17742PP      PP27846  15.746   1.391  11.132
17743PP      PP27847  11.729   3.379   3.051
17744PP      PP27848   1.696  11.821   4.427
17745PP      PP27849  14.318   6.236  13.283
17746PP      PP27850  11.643   0.036   4.325
17747PP      PP27851   1.005  13.054   1.675
17748PP      PP27852  14.500  12.803   3.618
17749PP      PP27853   7.348   9.025   3.836
17750PP      PP27854   8.120   2.228  13.029
17751PP      PP27855   7.949   6.858   2.910
17752PP      PP27856  12.058  11.065   3.202
17753PP      PP27857   9.778  14.461  10.759
17754PP      PP27858   3.433   1.084   3.131
17755PP      PP27859  10.845  14.197   4.343
17756PP      PP27860  14.304   7.982   1.464
17757PP      PP27861  14.794   0.979  11.277
17758PP      PP27862  14.928  14.889   9.704
17759PP      PP27863   1.073   4.052  12.184
17760PP      PP27864  14.111  14.549   9.879
17761PP      PP27865  14.945   7.152  10.926
17762PP      PP27866   5.269   8.488  11.973
17763PP      PP27867  10.111   5.862  11.745
17764PP      PP27868   4.650  12.816   9.138
17765PP      PP27869   4.413  12.134   2.695
17766PP      PP27870  10.471   9.184  10.428
17767PP      PP27871   9.654  12.860   2.927
17768PP      PP27872   5.792   2.496  11.647
17769PP      PP27873   3.823   4.248   2.419
17770PP      PP27874   5.752   5.285   9.286
17771PP      PP27875   7.678   7.796  11.156
17772PP      PP27876   6.932  11.767   2.885
17773PP      PP27877  12.433   7.477  10.898
17774PP      PP27878   7.527  11.659  12.740
17775PP      PP27879   8.417  12.710   3.590
17776PP      PP27880   3.313   1.293   2.566
17777PP      PP27881   9.585   5.497   2.555
17778PP      PP27882  12.103  13.951   9.807
17779PP      PP27883   8.893  13.837   3.505
17780PP      PP27884   1.110  10.694  13.406
17781PP      PP27885  13.012  15.251  12.815
17782PP      PP27886   8.478  13.155   0.265
17783PP      PP27887   7.223   8.191  11.960
17784PP      PP27888   5.104   1.531   0.579
17785PP      PP27889   5.219   6.010  12.291
17786PP      PP27890   9.487  15.660   2.346
17787PP      PP27891   6.946   0.393   8.811
17788PP      PP27892  12.854   3.873   1.702
17789PP      PP27893   8.194   0.369   1.637
17790PP      PP27894   4.122   2.953   1.221
17791PP      PP27895   1.965  11.514  13.473
17792PP      PP27896   7.843   9.381  11.623
17793PP      PP27897  10.876   2.419   2.462
17794PP      PP27898  14.104   5.011  11.414
17795PP      PP27899  11.231   3.224   3.039
17796PP      PP27900   4.591  12.956   0.313
17797PP      PP27901   8.394  11.882   3.909
17798PP      PP27902  12.129   9.840  11.117
17799PP      PP27903  10.283   2.725   0.726
17800PP      PP27904   2.517   0.691   3.924
17801PP      PP27905   0.366  12.111   3.999
17802PP      PP27906   0.247   0.691  10.960
17803PP      PP27907  14.855  12.673  10.835
17804PP      PP27908  15.451   4.166   9.362
17805PP      PP27909  11.254  10.996   3.649
17806PP      PP27910   1.119   8.780   1.103
17807PP      PP27911   3.989   6.297   0.868
17808PP      PP27912   1.023   4.227   9.871
17809PP      PP27913   8.992  11.722  13.069
17810PP      PP27914   5.526  15.394  10.249
17811PP      PP27915   0.289  11.340   1.302
17812PP      PP27916   4.513   3.540  13.058
17813PP      PP27917   2.050  12.306  10.453
17814PP      PP27918  11.031  12.795   9.823
17815PP      PP27919  10.889   9.252  11.935
17816PP      PP27920   7.451  13.121   1.989
17817PP      PP27921   9.683  11.462   0.128
17818PP      PP27922   0.196  14.205   3.019
17819PP      PP27923   2.586   1.064  12.542
17820PP      PP27924  14.950   0.703   0.231
17821PP      PP27925   3.818   8.148  11.050
17822PP      PP27926  11.757   8.360   8.800
17823PP      PP27927   6.125  10.836  12.641
17824PP      PP27928   4.565  15.220   8.648
17825PP      PP27929   7.925   2.020   4.484
17826PP      PP27930   4.482  14.355  13.364
17827PP      PP27931   9.542   4.882   0.852
17828PP      PP27932   6.027   6.282   0.441
17829PP      PP27933  13.408  10.980   3.403
17830PP      PP27934  14.507  13.870   1.972
17831PP      PP27935   6.784  12.269  13.024
17832PP      PP27936   0.942   4.445   1.349
17833PP      PP27937   8.376   3.635  10.662
17834PP      PP27938   8.792   6.435   8.623
17835PP      PP27939  15.478  11.291  12.869
17836PP      PP27940   2.653   8.113   0.022
17837PP      PP27941   8.196   3.556   1.426
17838PP      PP27942  12.013   8.994  13.509
17839PP      PP27943   5.134  14.202  11.481
17840PP      PP27944  15.519  15.084   0.476
17841PP      PP27945  11.709   3.957   3.762
17842PP      PP27946  14.022   5.021  10.493
17843PP      PP27947   4.085  12.640   3.232
17844PP      PP27948  14.241  15.650  11.482
17845PP      PP27949  14.359   0.252  11.738
17846PP      PP27950   9.258   7.683   3.228
17847PP      PP27951   3.276   8.679  12.914
17848PP      PP27952  13.137  14.138  11.491
17849PP      PP27953  13.005  11.144  10.773
17850PP      PP27954  13.463   9.226  10.726
17851PP      PP27955  13.256   1.328  13.250
17852PP      PP27956   2.347  13.336   3.092
17853PP      PP27957   0.428   4.797  10.522
17854PP      PP27958  12.377  12.302   1.125
17855PP      PP27959   1.211   9.004   8.606
17856PP      PP27960   8.231   7.580  11.296
17857PP      PP27961  12.549   3.818   0.791
17858PP      PP27962   6.279  11.673  12.343
17859PP      PP27963   4.026  12.896   0.290
17860PP      PP27964   9.468  10.319   3.442
17861PP      PP27965   7.042   7.180  11.975
17862PP      PP27966   1.479  10.082  10.196
17863PP      PP27967  11.272   2.767   4.247
17864PP      PP27968  10.416   9.538  11.020
17865PP      PP27969  10.212   6.039   0.464
17866PP      PP27970   3.203  15.738   2.323
17867PP      PP27971   4.445   2.423   3.323
17868PP      PP27972  14.921  14.475   2.616
17869PP      PP27973  14.950   2.074   4.025
17870PP      PP27974   9.408  12.534  12.992
17871PP      PP27975   2.334  14.899  11.022
17872PP      PP27976   1.500   3.964   3.907
17873PP      PP27977   0.603   5.714  13.199
17874PP      PP27978   2.326  12.987   8.874
17875PP      PP27979   4.827  10.101   0.121
17876PP      PP27980   4.319   9.695   2.576
17877PP      PP27981  13.887   4.864  13.398
17878PP      PP27982  13.696  14.886   2.630
17879PP      PP27983  14.850  11.980  11.641
17880PP      PP27984  15.189   5.639  13.445
17881PP      PP27985  10.088  13.685  12.758
17882PP      PP27986  14.850   0.092   1.354
17883PP      PP27987   7.746  10.733   1.227
17884PP      PP27988   2.402   1.755   2.173
17885PP      PP27989  13.497  15.291   0.335
17886PP      PP27990   4.832  11.199   0.825
17887PP      PP27991   4.679   8.468   1.616
17888PP      PP27992   3.391   3.433   2.836
17889PP      PP27993   6.735   1.164  11.798
17890PP      PP27994   1.287  13.887  10.737
17891PP      PP27995   8.231   9.562  11.094
17892PP      PP27996  15.480  14.733   9.333
17893PP      PP27997  14.478   6.220   3.135
17894PP      PP27998   8.918   4.214  10.525
17895PP      PP27999   6.104   7.404   3.179
17896PP      PP28000   6.678  10.885   0.658
17897PP      PP28001  13.493   9.578   9.151
17898PP      PP28002  13.295  13.598   3.358
17899PP      PP28003  14.992   7.914  11.347
17900PP      PP28004   9.751  13.288   0.554
17901PP      PP28005  14.481   4.278   0.836
17902PP      PP28006   0.286   1.143   9.770
17903PP      PP28007   7.046   5.044   1.166
17904PP      PP28008  14.884   7.118   3.268
17905PP      PP28009   6.994   1.073  10.848
17906PP      PP28010  13.663   7.913   9.993
17907PP      PP28011   6.462   0.389  13.186
17908PP      PP28012   8.369   7.350   3.744
17909PP      PP28013  15.223   8.169  10.479
17910PP      PP28014   0.822   9.802   1.924
17911PP      PP28015  14.216   1.792   1.573
17912PP      PP28016   5.556   3.362   3.755
17913PP      PP28017   9.846  12.881  11.577
17914PP      PP28018  13.689  11.976   2.882
17915PP      PP28019  12.273  12.271   2.093
17916PP      PP28020  14.052   6.515   1.129
17917PP      PP28021   1.100  13.157   9.796
17918PP      PP28022  14.713  13.085   9.862
17919PP      PP28023   2.082   5.717   9.368
17920PP      PP28024  13.101  15.407   0.992
17921PP      PP28025   2.465   3.909   1.801
17922PP      PP28026   3.997   2.127   1.716
17923PP      PP28027  15.122  13.218   4.445
17924PP      PP28028  14.417   6.244  11.855
17925PP      PP28029   1.669   2.864   4.455
17926PP      PP28030   1.669  12.505   2.243
17927PP      PP28031   8.592  14.421  13.024
17928PP      PP28032   5.979   5.390  11.290
17929PP      PP28033   2.906   7.786   0.398
17930PP      PP28034   8.039   4.520   0.914
17931PP      PP28035  12.290  13.479   0.900
17932PP      PP28036   7.136   2.434  12.804
17933PP      PP28037   3.084   8.246   0.280
17934PP      PP28038  12.443  12.902   2.455
17935PP      PP28039   7.490  14.502   9.661
17936PP      PP28040   1.187  12.423   2.854
17937PP      PP28041   7.973   0.866  12.640
17938PP      PP28042  10.904  14.743  11.548
17939PP      PP28043  10.514   0.605  12.017
17940PP      PP28044   7.321   2.230  10.211
17941PP      PP28045  15.502  15.599   0.180
17942PP      PP28046   5.362   2.007   0.596
17943PP      PP28047   6.708  15.085  11.588
17944PP      PP28048   8.215  11.889  11.119
17945PP      PP28049   1.995   7.668   4.087
17946PP      PP28050   0.396   5.905   1.335
17947PP      PP28051  15.704   4.188   0.478
17948PP      PP28052   0.716   9.043   0.808
17949PP      PP28053   4.193  14.579   4.060
17950PP      PP28054   8.702   0.065   1.786
17951PP      PP28055   1.500  12.454   4.507
17952PP      PP28056   2.406   1.318   9.280
17953PP      PP28057   5.631   6.085   3.143
17954PP      PP28058   2.833  12.383  13.518
17955PP      PP28059   5.143  14.672   1.060
17956PP      PP28060   7.863  15.663  12.732
17957PP      PP28061  14.124  15.513  10.958
17958PP      PP28062   2.192   4.002  12.064
17959PP      PP28063   7.630  13.402  10.466
17960PP      PP28064  14.355   2.317  10.413
17961PP      PP28065  14.065   0.357   7.687
17962PP      PP28066   8.441  14.451   1.126
17963PP      PP28067   5.449  14.373  11.057
17964PP      PP28068  11.029  13.327   4.306
17965PP      PP28069  11.987  10.977   1.724
17966PP      PP28070  12.931   2.917   1.193
17967PP      PP28071  10.318   2.110  12.162
17968PP      PP28072   5.337  12.736  12.785
17969PP      PP28073  14.739   6.021   9.182
17970PP      PP28074  10.434  12.121  11.601
17971PP      PP28075  11.913  13.570   3.541
17972PP      PP28076   3.912  11.342   4.451
17973PP      PP28077   8.081   4.745  11.906
17974PP      PP28078  11.865   1.415  13.297
17975PP      PP28079   3.211   0.897   3.589
17976PP      PP28080   4.925   8.466   8.658
17977PP      PP28081   4.226  11.607  13.598
17978PP      PP28082  15.651  13.240   1.243
17979PP      PP28083   9.278   3.128   0.263
17980PP      PP28084   9.409   0.632   4.913
17981PP      PP28085   1.283   1.564   3.389
17982PP      PP28086   7.723   2.233  11.630
17983PP      PP28087  10.672  14.780  12.013
17984PP      PP28088  12.288   4.823  12.672
17985PP      PP28089   8.420   4.014   2.165
17986PP      PP28090   2.897   7.513   3.403
17987PP      PP28091  12.689  13.901   0.128
17988PP      PP28092   5.573   1.288   0.431
17989PP      PP28093  11.816   8.939  10.957
17990PP      PP28094   1.318  12.979   8.820
17991PP      PP28095  14.531   3.568   0.078
17992PP      PP28096  15.174   7.684  11.782
17993PP      PP28097   4.553   3.060   9.568
17994PP      PP28098   5.842   0.366   8.714
17995PP      PP28099   6.040   6.294   2.165
17996PP      PP28100  15.511  15.569   0.713
17997PP      PP28101  10.181   1.878   0.105
17998PP      PP28102   1.618   2.417  11.529
17999PP      PP28103   4.954   3.022  12.914
18000PP      PP28104  15.173   9.488   3.950
18001PP      PP28105   6.803   9.810   8.864
18002PP      PP28106  14.537   4.821   2.065
18003PP      PP28107  11.321   4.376   9.590
18004PP      PP28108   8.479   9.399   2.613
18005PP      PP28109  15.306   6.098   4.269
18006PP      PP28110   2.096   4.789  12.759
18007PP      PP28111   1.392   2.258  12.011
18008PP      PP28112   1.254   9.902   1.504
18009PP      PP28113   9.740   2.461   0.685
18010PP      PP28114   1.789   5.684  10.190
18011PP      PP28115   6.982  15.541  11.978
18012PP      PP28116   8.961   8.619  13.382
18013PP      PP28117  10.831   6.949  10.616
18014PP      PP28118   3.105   9.427   3.365
18015PP      PP28119   7.344  13.924   1.200
18016PP      PP28120  11.090   1.905   4.393
18017PP      PP28121  10.875  13.695  13.372
18018PP      PP28122   0.306   4.958   9.424
18019PP      PP28123   0.904  14.877  13.316
18020PP      PP28124  11.379  13.017   0.725
18021PP      PP28125   8.852   7.344   2.546
18022PP      PP28126  15.271   0.072  11.601
18023PP      PP28127  12.452   6.148  12.973
18024PP      PP28128  14.267   9.259  12.717
18025PP      PP28129   1.727   9.527  12.604
18026PP      PP28130   8.001   0.602   4.328
18027PP      PP28131   1.824   4.896  13.191
18028PP      PP28132   6.657   2.669   3.014
18029PP      PP28133   6.958   1.446   4.587
18030PP      PP28134  10.958  14.138  10.921
18031PP      PP28135   4.634  10.705  11.178
18032PP      PP28136  11.660   6.877   9.375
18033PP      PP28137   3.000   4.210  13.359
18034PP      PP28138   7.694   9.175  12.063
18035PP      PP28139  10.444  15.175   1.636
18036PP      PP28140  14.700  10.008   8.562
18037PP      PP28141   4.615  13.857  13.423
18038PP      PP28142  10.210  10.648   8.714
18039PP      PP28143  12.312   9.991  12.598
18040PP      PP28144  11.397  13.375  10.149
18041PP      PP28145  13.495   6.274  10.363
18042PP      PP28146  11.595  11.517   0.549
18043PP      PP28147  11.475   2.143  10.368
18044PP      PP28148   6.948   1.828   2.633
18045PP      PP28149   2.693   9.538   1.488
18046PP      PP28150   7.198   0.157  11.340
18047PP      PP28151  12.464  14.313  13.493
18048PP      PP28152   0.849   5.506  12.790
18049PP      PP28153   8.133   5.310  11.777
18050PP      PP28154   4.452   2.223  10.999
18051PP      PP28155  10.377   6.468   9.113
18052PP      PP28156  10.810   4.978   2.428
18053PP      PP28157  11.159   7.495   1.071
18054PP      PP28158   7.515   1.192   2.256
18055PP      PP28159  13.812  12.331   0.054
18056PP      PP28160   5.419   9.578   3.778
18057PP      PP28161   8.113   0.214   3.022
18058PP      PP28162  13.173   5.801   8.774
18059PP      PP28163   1.818  13.912   2.671
18060PP      PP28164   5.678   9.168  12.258
18061PP      PP28165  14.090  14.194   2.186
18062PP      PP28166   6.712   0.744  12.856
18063PP      PP28167   7.557   4.232   9.337
18064PP      PP28168  10.425  12.276  12.252
18065PP      PP28169   9.304   1.320   4.113
18066PP      PP28170   2.274   1.722   4.127
18067PP      PP28171  14.564  11.710   2.781
18068PP      PP28172   0.887  11.705   1.750
18069PP      PP28173  14.079   5.843   8.891
18070PP      PP28174  12.718   4.897  12.951
18071PP      PP28175  10.424  12.337   2.766
18072PP      PP28176  10.353   4.198   3.396
18073PP      PP28177   6.688   4.163  11.892
18074PP      PP28178   2.302  13.688   1.873
18075PP      PP28179   0.877   7.004  13.012
18076PP      PP28180  10.084   3.415  10.479
18077PP      PP28181   4.345  13.956  12.987
18078PP      PP28182  14.511   3.760  10.156
18079PP      PP28183   9.374  12.331  12.465
18080PP      PP28184   7.230  12.069   2.549
18081PP      PP28185  14.924  12.967   0.287
18082PP      PP28186   0.896  15.125  10.609
18083PP      PP28187   9.022   6.958  11.003
18084PP      PP28188   0.079  15.328   2.893
18085PP      PP28189   8.324  15.537   0.911
18086PP      PP28190   3.998   6.957  12.578
18087PP      PP28191   7.776   7.503   1.462
18088PP      PP28192   3.430   3.759   1.649
18089PP      PP28193  14.115   4.851   8.818
18090PP      PP28194  12.227   3.491  13.237
18091PP      PP28195   5.830  12.197  11.070
18092PP      PP28196   0.177   6.800   2.634
18093PP      PP28197  13.251   8.342  10.232
18094PP      PP28198   5.979   3.905  10.744
18095PP      PP28199   0.036   8.605  10.881
18096PP      PP28200  11.840   7.855   3.337
18097PP      PP28201   8.035   3.378  10.369
18098PP      PP28202   6.336  14.823  13.169
18099PP      PP28203  11.037   5.106   9.428
18100PP      PP28204   5.969  11.695  11.012
18101PP      PP28205  12.734   0.293   9.667
18102PP      PP28206   7.014  11.578  12.649
18103PP      PP28207   7.984   8.057   1.407
18104PP      PP28208   7.155   5.294  12.938
18105PP      PP28209   2.772   8.696  10.627
18106PP      PP28210   1.462   7.752   1.649
18107PP      PP28211   3.208  11.830   9.369
18108PP      PP28212   1.985   8.723   0.738
18109PP      PP28213   4.372   8.103   2.079
18110PP      PP28214   2.226  10.720  13.322
18111PP      PP28215   3.769   2.595  13.292
18112PP      PP28216   2.842  14.014  12.930
18113PP      PP28217  12.087  15.132   3.182
18114PP      PP28218   8.948  11.988   0.885
18115PP      PP28219  14.956   8.298   7.918
18116PP      PP28220   9.940   7.224  13.599
18117PP      PP28221   7.840   6.724  11.595
18118PP      PP28222  10.586   2.969   3.717
18119PP      PP28223   0.125   5.635  11.546
18120PP      PP28224  12.836  12.845   0.788
18121PP      PP28225   8.012  10.931   9.536
18122PP      PP28226  11.754   9.452  13.359
18123PP      PP28227   5.944  14.170   0.092
18124PP      PP28228   3.962  11.552  10.129
18125PP      PP28229   6.272  11.890   1.540
18126PP      PP28230  14.708   4.277   3.427
18127PP      PP28231   7.394   9.383   4.234
18128PP      PP28232   9.540  10.931   3.095
18129PP      PP28233  10.168  14.662   1.768
18130PP      PP28234   0.529   6.515   8.608
18131PP      PP28235   4.604   3.054   0.998
18132PP      PP28236   7.455  15.616   0.975
18133PP      PP28237  11.573   0.226  10.095
18134PP      PP28238  12.482   7.455  12.725
18135PP      PP28239   9.911   6.850   9.677
18136PP      PP28240  12.035  13.216  11.107
18137PP      PP28241  15.420  12.087   2.613
18138PP      PP28242   0.168  10.075   4.430
18139PP      PP28243  14.303   9.318   1.356
18140PP      PP28244  11.393   1.080   0.353
18141PP      PP28245   3.537  12.646  10.841
18142PP      PP28246  15.537   8.628   3.729
18143PP      PP28247   3.236  15.388   2.722
18144PP      PP28248   2.473   3.933   3.789
18145PP      PP28249   0.511   0.713   3.489
18146PP      PP28250   4.303  15.695   0.973
18147PP      PP28251  10.599   2.429  10.775
18148PP      PP28252   9.929  11.292  10.763
18149PP      PP28253   2.335   6.667  12.548
18150PP      PP28254   1.892  14.987   9.751
18151PP      PP28255   7.973   5.842   1.885
18152PP      PP28256  10.579   5.728   3.318
18153PP      PP28257   7.559   0.991  10.564
18154PP      PP28258   6.917   8.572   9.844
18155PP      PP28259  12.519   3.890  10.781
18156PP      PP28260   6.305  13.307   2.888
18157PP      PP28261  10.209   6.430   1.580
18158PP      PP28262   9.011   9.294  10.508
18159PP      PP28263   1.676  11.927  12.679
18160PP      PP28264   0.314   5.839   2.428
18161PP      PP28265   0.268   7.251   9.123
18162PP      PP28266  11.748  10.591  12.147
18163PP      PP28267  13.096  10.035   3.377
18164PP      PP28268  15.349  14.654   2.354
18165PP      PP28269  14.411   0.926   8.485
18166PP      PP28270  14.169  12.582   0.772
18167PP      PP28271  15.046   2.802   9.022
18168PP      PP28272   6.478   5.991   0.383
18169PP      PP28273   2.947  13.679   1.853
18170PP      PP28274  15.437  12.174   4.369
18171PP      PP28275  12.089   9.601   9.683
18172PP      PP28276   3.480   8.302  11.917
18173PP      PP28277   3.410  11.576   3.600
18174PP      PP28278   3.028   2.463   9.853
18175PP      PP28279   8.402   2.832   1.215
18176PP      PP28280   8.609   4.849   2.258
18177PP      PP28281   7.119  12.681  12.959
18178PP      PP28282  13.922   4.614   4.370
18179PP      PP28283   6.848   9.381  12.455
18180PP      PP28284   8.154   5.183  13.331
18181PP      PP28285  15.406  13.813  11.496
18182PP      PP28286  15.800   2.367  10.462
18183PP      PP28287   5.946   1.502   0.115
18184PP      PP28288   2.804  11.244   0.191
18185PP      PP28289  11.643   3.212  11.130
18186PP      PP28290  11.161   2.713  12.061
18187PP      PP28291   5.697   5.859   1.211
18188PP      PP28292   9.317  14.669  10.620
18189PP      PP28293  10.840  13.137   3.137
18190PP      PP28294   3.015   8.644   9.006
18191PP      PP28295   7.774   1.365  12.673
18192PP      PP28296   0.529  13.827   0.622
18193PP      PP28297  10.512  11.578  12.140
18194PP      PP28298  13.462   3.099   2.068
18195PP      PP28299   9.873   7.873   8.595
18196PP      PP28300   0.579   6.225  13.266
18197PP      PP28301  13.997  12.147   1.007
18198PP      PP28302  14.766  15.310   9.428
18199PP      PP28303  15.347  10.096   0.260
18200PP      PP28304   4.140   6.159   4.019
18201PP      PP28305  11.860   5.686   1.826
18202PP      PP28306   9.165  14.069  11.819
18203PP      PP28307   5.561   7.181  11.864
18204PP      PP28308  13.034   5.952   3.358
18205PP      PP28309   5.401   3.926   0.055
18206PP      PP28310   4.191  11.872  11.013
18207PP      PP28311   5.967   6.828  11.288
18208PP      PP28312   0.677  15.531  10.868
18209PP      PP28313  11.165  12.333  12.490
18210PP      PP28314  11.912   3.242   1.380
18211PP      PP28315   5.325   4.271   2.556
18212PP      PP28316  12.200   6.883  13.553
18213PP      PP28317  14.938   3.093  12.100
18214PP      PP28318  11.644   1.846   2.425
18215PP      PP28319   4.491   0.046  10.198
18216PP      PP28320   1.897   2.836  10.684
18217PP      PP28321   5.385   2.187   1.857
18218PP      PP28322   4.503   4.648   3.523
18219PP      PP28323  15.196   4.339   0.522
18220PP      PP28324  11.902   5.925  13.340
18221PP      PP28325  15.454   6.076   8.589
18222PP      PP28326   0.147   1.886  11.205
18223PP      PP28327   0.867   1.646   0.401
18224PP      PP28328   1.386   6.413   9.009
18225PP      PP28329  15.006   9.028   3.200
18226PP      PP28330  10.044   1.062  10.247
18227PP      PP28331   3.587   6.824   2.573
18228PP      PP28332   9.669   0.431   1.005
18229PP      PP28333  14.002   4.665  11.821
18230PP      PP28334   0.791  10.697   1.309
18231PP      PP28335   7.275  14.061   1.728
18232PP      PP28336   1.984   4.806  11.016
18233PP      PP28337   5.680   8.955   3.164
18234PP      PP28338   1.810   6.195  10.320
18235PP      PP28339  12.616  11.280   4.047
18236PP      PP28340   5.612   2.236  13.168
18237PP      PP28341   3.273  14.431   1.953
18238PP      PP28342   6.197   1.323   0.735
18239PP      PP28343  14.746  10.659   0.440
18240PP      PP28344   6.639  15.217   1.565
18241PP      PP28345   7.392  13.955   4.369
18242PP      PP28346   0.110  12.486  13.539
18243PP      PP28347   3.117   1.392   3.460
18244PP      PP28348   8.842  11.055   3.876
18245PP      PP28349   5.145   6.584   8.957
18246PP      PP28350   1.007   4.198   2.996
18247PP      PP28351   3.320   1.626   3.893
18248PP      PP28352  11.349   2.508  11.181
18249PP      PP28353  15.083  11.523   0.525
18250PP      PP28354  15.132   6.262   3.813
18251PP      PP28355   6.123  10.750  11.263
18252PP      PP28356   6.493   5.156   2.062
18253PP      PP28357   1.026  12.640  11.409
18254PP      PP28358   2.179   9.501   1.687
18255PP      PP28359  10.108   5.257   4.101
18256PP      PP28360   1.640  11.991   2.079
18257PP      PP28361   7.480   5.397   2.281
18258PP      PP28362  11.529  10.426  13.110
18259PP      PP28363  11.056   3.708  10.296
18260PP      PP28364   7.438   0.633  10.139
18261PP      PP28365   3.271   7.146   1.644
18262PP      PP28366   3.400   5.615  12.573
18263PP      PP28367   0.360  12.929   9.176
18264PP      PP28368   2.773   8.827   1.851
18265PP      PP28369  12.722  12.057  11.687
18266PP      PP28370   0.788   5.496   4.155
18267PP      PP28371  11.990   5.766   3.982
18268PP      PP28372   8.274   1.715   4.087
18269PP      PP28373   8.318  12.499   1.140
18270PP      PP28374  12.198  13.882   4.401
18271PP      PP28375   5.744   3.638   1.860
18272PP      PP28376   5.108   3.836   0.789
18273PP      PP28377  13.655   8.882   0.288
18274PP      PP28378   8.458   7.560   9.294
18275PP      PP28379   7.080   4.074   4.060
18276PP      PP28380   5.522   7.660  12.052
18277PP      PP28381  14.801   2.599  12.188
18278PP      PP28382  13.829   8.689  11.938
18279PP      PP28383   1.364   1.932  11.150
18280PP      PP28384   7.759   1.583   4.250
18281PP      PP28385   8.456   9.813  12.252
18282PP      PP28386  13.961  12.690   1.768
18283PP      PP28387  10.385  13.860  12.372
18284PP      PP28388  12.871   0.889   9.107
18285PP      PP28389   5.400   9.870   1.936
18286PP      PP28390  12.271  12.004   1.603
18287PP      PP28391   5.057  14.668   0.056
18288PP      PP28392   4.211  10.508  10.254
18289PP      PP28393   4.606  10.248  13.256
18290PP      PP28394   0.695   5.721   0.098
18291PP      PP28395   7.099   5.908   2.148
18292PP      PP28396   4.790   2.603   2.460
18293PP      PP28397   2.142   2.441   3.216
18294PP      PP28398  14.628   8.360   1.249
18295PP      PP28399   7.612   2.503   9.100
18296PP      PP28400   3.230   5.176  11.595
18297PP      PP28401  13.050   6.626  12.540
18298PP      PP28402   0.187  14.704   1.360
18299PP      PP28403   8.956   8.417  12.477
18300PP      PP28404   0.918   6.689   8.127
18301PP      PP28405   4.942   4.908   1.888
18302PP      PP28406  15.058   0.325   4.017
18303PP      PP28407   8.821   2.563  11.988
18304PP      PP28408   3.852   1.126   8.976
18305PP      PP28409  15.277   1.186   2.643
18306PP      PP28410  14.101   9.076   0.498
18307PP      PP28411   3.745  14.537   1.743
18308PP      PP28412  13.387   2.086   1.891
18309PP      PP28413  12.932   9.851   0.983
18310PP      PP28414   2.730   5.933   9.657
18311PP      PP28415  14.331   6.041   1.217
18312PP      PP28416  14.581  15.520  13.433
18313PP      PP28417   9.437   5.107  12.390
18314PP      PP28418  13.308   0.892  11.837
18315PP      PP28419   9.199   9.636   2.459
18316PP      PP28420  12.823   8.779  13.591
18317PP      PP28421  13.960   7.527  13.025
18318PP      PP28422   8.407   1.100   2.049
18319PP      PP28423   1.349   3.956   9.501
18320PP      PP28424   6.173  14.503   1.068
18321PP      PP28425  15.167  12.763   1.935
18322PP      PP28426   3.084   5.681  11.563
18323PP      PP28427   1.563  11.509   9.824
18324PP      PP28428  14.283   4.664  10.752
18325PP      PP28429   2.298   3.395   3.619
18326PP      PP28430  12.965  14.594   9.198
18327PP      PP28431   6.084   8.362  13.062
18328PP      PP28432   9.402   0.022  12.053
18329PP      PP28433   2.715   4.554  10.962
18330PP      PP28434  11.509   0.624  13.048
18331PP      PP28435   7.065  10.520   2.876
18332PP      PP28436   2.290  13.609   1.264
18333PP      PP28437   5.218   4.833   0.937
18334PP      PP28438   0.763  11.422  11.708
18335PP      PP28439  11.456   0.148  13.505
18336PP      PP28440  15.638   7.731   8.940
18337PP      PP28441   2.712   7.067  10.923
18338PP      PP28442   4.385   9.814  11.095
18339PP      PP28443   1.923  14.012  11.353
18340PP      PP28444  13.786   7.180  13.499
18341PP      PP28445  12.505  13.480   9.880
18342PP      PP28446   3.278   5.838   8.871
18343PP      PP28447   7.422   1.882  10.878
18344PP      PP28448   7.725   6.405   8.697
18345PP      PP28449   1.396   6.626   3.106
18346PP      PP28450   5.648   9.181   4.023
18347PP      PP28451   1.173   1.789  10.594
18348PP      PP28452   3.505   2.844  10.536
18349PP      PP28453   0.692  10.254   3.786
18350PP      PP28454   9.027   6.396  10.988
18351PP      PP28455   2.673   3.865  12.987
18352PP      PP28456   0.891  12.947  10.985
18353PP      PP28457   8.147   7.939  13.234
18354PP      PP28458   7.011  13.545  10.331
18355PP      PP28459   3.589   1.259   3.660
18356PP      PP28460  10.535   2.759   2.691
18357PP      PP28461  11.020   9.315   0.875
18358PP      PP28462   7.037   5.818  12.013
18359PP      PP28463   6.800  11.892  11.001
18360PP      PP28464  14.417  15.810  12.981
18361PP      PP28465   9.088   2.343   2.407
18362PP      PP28466  10.240  11.434   0.248
18363PP      PP28467   9.923   7.092   8.607
18364PP      PP28468  13.996   7.973   2.717
18365PP      PP28469   7.835   8.132  10.769
18366PP      PP28470  10.306   6.865   2.076
18367PP      PP28471   5.881   6.231  10.369
18368PP      PP28472   5.424   6.865   8.163
18369PP      PP28473   1.006   2.519   0.475
18370PP      PP28474  15.516  13.805  12.011
18371PP      PP28475   0.080   6.490  13.122
18372PP      PP28476   3.839   9.706   1.643
18373PP      PP28477   6.765   2.149  10.167
18374PP      PP28478  12.817   0.630  12.083
18375PP      PP28479   2.748   9.731   3.653
18376PP      PP28480   5.757  15.015  11.715
18377PP      PP28481   8.007   9.584  12.106
18378PP      PP28482  12.243  14.208  11.392
18379PP      PP28483  12.703  12.075   4.685
18380PP      PP28484   4.105   6.340   0.081
18381PP      PP28485  10.943  11.230  12.924
18382PP      PP28486   6.643   7.168   3.674
18383PP      PP28487  10.785   8.939   8.397
18384PP      PP28488   5.658  11.865   4.157
18385PP      PP28489   6.679  10.439   2.110
18386PP      PP28490   0.149   4.179  11.370
18387PP      PP28491  10.168  13.106   4.633
18388PP      PP28492  12.508  13.764  10.323
18389PP      PP28493  10.074  11.848  12.082
18390PP      PP28494   7.777  13.428  12.835
18391PP      PP28495  10.413  11.144   0.687
18392PP      PP28496   4.928   9.797   3.176
18393PP      PP28497   5.764   4.460   0.311
18394PP      PP28498  12.540   3.880   3.883
18395PP      PP28499   0.780   2.551   0.949
18396PP      PP28500  10.289   7.012  12.622
18397PP      PP28501   4.305   2.807   3.003
18398PP      PP28502  13.481   0.972   2.835
18399PP      PP28503   3.145  14.862  11.572
18400PP      PP28504   7.376  12.765   1.566
18401PP      PP28505   7.238   9.543   8.915
18402PP      PP28506   7.055   9.456   3.670
18403PP      PP28507  13.092  13.074   3.330
18404PP      PP28508   6.651   5.213   9.019
18405PP      PP28509   8.953   0.118   0.221
18406PP      PP28510  14.683  14.412   4.327
18407PP      PP28511  15.535  11.247   0.599
18408PP      PP28512   9.427   2.288   9.561
18409PP      PP28513  14.290  13.189   9.544
18410PP      PP28514   8.478  15.810  12.469
18411PP      PP28515   0.868   0.233   0.618
18412PP      PP28516   3.569  14.700   1.279
18413PP      PP28517   9.944  14.051   5.041
18414PP      PP28518   8.529  11.623  13.555
18415PP      PP28519   5.171   0.882   3.877
18416PP      PP28520   0.992  14.224   1.448
18417PP      PP28521   7.875  15.101  12.962
18418PP      PP28522  14.252   0.912  10.485
18419PP      PP28523   7.909  12.220   9.253
18420PP      PP28524   9.950  13.520   1.001
18421PP      PP28525   1.928  14.633   3.113
18422PP      PP28526  10.002   9.295  11.153
18423PP      PP28527  15.661   1.783   0.265
18424PP      PP28528   3.303  13.026   2.374
18425PP      PP28529  12.603  14.116   4.147
18426PP      PP28530  14.571   7.873   3.441
18427PP      PP28531   4.870   2.659   3.518
18428PP      PP28532  14.622  15.385   1.831
18429PP      PP28533  14.619   3.625   2.556
18430PP      PP28534  13.724   8.275   3.205
18431PP      PP28535  14.772   5.882  11.966
18432PP      PP28536  11.562   2.944  12.333
18433PP      PP28537   4.475   8.848  11.399
18434PP      PP28538   7.618   3.358   9.468
18435PP      PP28539   8.635   8.327   3.203
18436PP      PP28540  13.561   7.563   8.704
18437PP      PP28541   1.419   1.017  10.244
18438PP      PP28542  12.985   8.373  12.468
18439PP      PP28543  10.688   4.504  11.998
18440PP      PP28544  12.386  11.246  10.302
18441PP      PP28545   3.643   6.662   1.018
18442PP      PP28546   2.410   4.484  10.133
18443PP      PP28547   4.961  15.274  13.362
18444PP      PP28548   3.054   0.700   2.712
18445PP      PP28549  14.046  14.083  11.019
18446PP      PP28550   6.081  11.392   1.576
18447PP      PP28551   4.432   5.085   0.500
18448PP      PP28552  11.067   6.665   2.768
18449PP      PP28553  15.574   8.406   3.225
18450PP      PP28554   8.938  13.184   3.934
18451PP      PP28555  10.120   1.641   1.980
18452PP      PP28556  12.658  10.756   0.634
18453PP      PP28557   5.788   8.700  12.814
18454PP      PP28558   2.465  11.886   0.671
18455PP      PP28559  12.178   4.864   9.298
18456PP      PP28560  14.993   4.491   2.830
18457PP      PP28561   6.009   4.392  10.941
18458PP      PP28562  10.088   3.453   3.020
18459PP      PP28563  11.237  13.118   3.482
18460PP      PP28564   5.305   4.135  11.888
18461PP      PP28565   6.634  12.393  12.180
18462PP      PP28566  15.390  11.521  12.398
18463PP      PP28567  12.201   1.075   0.629
18464PP      PP28568  14.965   3.818   3.997
18465PP      PP28569  12.018   7.460  11.785
18466PP      PP28570   3.928   8.489  12.758
18467PP      PP28571   8.998  13.770   4.543
18468PP      PP28572   3.890   2.291   9.369
18469PP      PP28573   9.721  10.427  12.993
18470PP      PP28574   9.340   9.728  12.606
18471PP      PP28575  12.961   8.817   9.022
18472PP      PP28576  13.047  15.666   4.749
18473PP      PP28577  13.739  10.296   8.720
18474PP      PP28578   2.531   6.368   2.037
18475PP      PP28579  13.158  12.875   3.830
18476PP      PP28580   8.748   2.619  10.445
18477PP      PP28581   3.176   8.340   1.985
18478PP      PP28582   2.295   8.632  11.719
18479PP      PP28583   6.799  14.882  13.410
18480PP      PP28584   9.758   7.622  10.592
18481PP      PP28585   0.499  12.491   2.812
18482PP      PP28586   3.821  10.177  11.143
18483PP      PP28587   6.779   0.205   3.132
18484PP      PP28588  11.760  14.068  11.514
18485PP      PP28589   1.255   9.551  11.691
18486PP      PP28590   7.646   5.152   3.830
18487PP      PP28591   1.433   9.943   0.075
18488PP      PP28592   3.758   8.307  10.279
18489PP      PP28593   9.722   8.105   0.546
18490PP      PP28594   1.218  12.656  12.288
18491PP      PP28595  13.270   1.792   3.889
18492PP      PP28596  15.541   8.336   9.655
18493PP      PP28597   4.936   1.792  10.824
18494PP      PP28598  11.636   3.334   9.137
18495PP      PP28599   4.898   3.932  11.629
18496PP      PP28600   9.246  11.648  10.090
18497PP      PP28601   1.660  10.852   4.573
18498PP      PP28602   8.175   6.967  11.239
18499PP      PP28603  12.984  10.810   9.164
18500PP      PP28604  13.295   9.162   3.336
18501PP      PP28605   8.302   2.102   2.711
18502PP      PP28606  11.036   4.959   8.924
18503PP      PP28607   5.256  13.802   0.596
18504PP      PP28608   2.016  14.253   2.327
18505PP      PP28609   1.704   5.462   9.698
18506PP      PP28610   3.481  14.779   2.374
18507PP      PP28611   1.510   8.869   0.194
18508PP      PP28612   7.569   0.924   1.295
18509PP      PP28613   6.572   2.872   5.028
18510PP      PP28614   6.357   1.167   1.219
18511PP      PP28615   0.050   2.264   9.419
18512PP      PP28616   4.200  10.122  11.513
18513PP      PP28617  13.336   5.405  10.931
18514PP      PP28618   4.739  13.176   9.545
18515PP      PP28619   9.452   0.155   9.604
18516PP      PP28620   2.840   2.645   2.421
18517PP      PP28621  10.795   0.487   3.791
18518PP      PP28622   9.946   3.112   1.512
18519PP      PP28623   9.900   2.433   2.105
18520PP      PP28624   5.433   5.268  11.393
18521PP      PP28625  15.113   9.498   3.427
18522PP      PP28626   5.584  14.332  12.275
18523PP      PP28627   7.541   4.000  13.278
18524PP      PP28628   2.687  11.654   8.265
18525PP      PP28629  10.895   8.331  12.453
18526PP      PP28630   0.546   5.865   9.775
18527PP      PP28631   4.620   4.094   2.969
18528PP      PP28632  10.058   7.734  12.859
18529PP      PP28633  12.404  15.048  10.734
18530PP      PP28634   0.084   7.963   4.111
18531PP      PP28635  14.073   7.623  13.527
18532PP      PP28636   9.359  10.973  12.222
18533PP      PP28637   7.753   3.419   4.710
18534PP      PP28638  12.958  10.512   1.039
18535PP      PP28639   5.346   2.015   2.811
18536PP      PP28640   5.056   6.630  11.364
18537PP      PP28641  13.628   7.386  10.125
18538PP      PP28642  10.776   5.855   2.839
18539PP      PP28643   3.474  10.850   8.922
18540PP      PP28644   7.887   7.004  12.282
18541PP      PP28645  11.217  13.285  13.455
18542PP      PP28646   7.608  12.280   4.171
18543PP      PP28647   0.377   1.541  12.808
18544PP      PP28648  15.592  15.823  12.385
18545PP      PP28649  14.907   5.157   3.533
18546PP      PP28650   3.749   2.908   0.710
18547PP      PP28651   7.931   2.838   2.718
18548PP      PP28652   6.935   2.238   2.955
18549PP      PP28653   8.420  10.306   1.499
18550PP      PP28654   7.302   9.097  10.419
18551PP      PP28655  15.392   7.976  12.513
18552PP      PP28656   6.761   3.746   3.831
18553PP      PP28657  13.362  10.947   8.791
18554PP      PP28658   5.766   7.320   9.869
18555PP      PP28659   3.528   0.833   2.642
18556PP      PP28660   1.370  14.971   3.516
18557PP      PP28661   1.429   4.182  11.814
18558PP      PP28662   5.282   1.595   1.931
18559PP      PP28663  10.493   2.717  12.700
18560PP      PP28664   2.214  14.334   2.792
18561PP      PP28665  15.545   1.766  12.950
18562PP      PP28666   2.649   1.504   4.447
18563PP      PP28667  15.463   7.629   3.060
18564PP      PP28668   9.347   5.953  12.150
18565PP      PP28669  10.655  11.858   9.771
18566PP      PP28670  11.752   1.987  11.943
18567PP      PP28671   4.717   9.530   1.474
18568PP      PP28672   2.850  14.179   9.122
18569PP      PP28673  11.053   1.229   0.765
18570PP      PP28674  13.737   0.995   0.292
18571PP      PP28675  12.268   9.157   2.109
18572PP      PP28676   9.066   7.413  11.294
18573PP      PP28677   6.667   2.565  11.996
18574PP      PP28678  14.777  13.991   9.823
18575PP      PP28679  13.191   7.406   3.190
18576PP      PP28680   6.739   6.619  11.659
18577PP      PP28681  12.989   4.353   1.857
18578PP      PP28682   3.562   1.266   4.187
18579PP      PP28683  15.620   9.297   4.726
18580PP      PP28684   1.169   7.140   2.417
18581PP      PP28685  13.144  12.432  11.171
18582PP      PP28686   0.525  12.433   9.320
18583PP      PP28687   5.704   7.907   1.406
18584PP      PP28688   3.329   1.828  10.075
18585PP      PP28689   2.121   5.695  11.095
18586PP      PP28690   3.827  15.527   0.812
18587PP      PP28691   0.214   7.215   0.571
18588PP      PP28692  11.641   7.083  11.815
18589PP      PP28693   7.365   7.939  12.416
18590PP      PP28694   8.960  14.893  11.365
18591PP      PP28695   3.182   2.497   3.692
18592PP      PP28696  11.670   5.625   0.438
18593PP      PP28697  10.411   9.797  13.035
18594PP      PP28698   5.840   5.496   8.522
18595PP      PP28699   9.903   3.468  11.663
18596PP      PP28700   1.652  14.613  10.684
18597PP      PP28701  10.210  15.808  12.636
18598PP      PP28702   9.105  15.492  10.001
18599PP      PP28703  15.245   7.090   8.391
18600PP      PP28704   0.776   9.799   8.716
18601PP      PP28705   4.394  10.778   8.499
18602PP      PP28706  11.515   2.700  12.779
18603PP      PP28707  12.978   6.042  11.741
18604PP      PP28708  14.263  14.636  12.930
18605PP      PP28709  10.735   2.238  12.521
18606PP      PP28710   0.468  10.435   4.227
18607PP      PP28711  13.423   8.422  12.756
18608PP      PP28712   7.608  12.856   0.530
18609PP      PP28713   7.303   9.263   2.545
18610PP      PP28714   0.256  10.658  10.954
18611PP      PP28715   7.203  12.673   2.043
18612PP      PP28716   9.011  11.127   8.739
18613PP      PP28717   0.184  12.715   9.677
18614PP      PP28718  10.135  11.265  11.804
18615PP      PP28719  15.670   1.011   0.644
18616PP      PP28720   2.057   9.761   2.153
18617PP      PP28721   0.383   9.013   9.262
18618PP      PP28722   2.764   2.505  12.727
18619PP      PP28723  12.708  12.263  12.161
18620PP      PP28724   5.797   5.241  12.397
18621PP      PP28725   1.073   9.347  13.484
18622PP      PP28726   5.163   0.149   9.512
18623PP      PP28727   8.547  10.950   1.015
18624PP      PP28728   9.215   4.611   4.748
18625PP      PP28729  11.941   4.513   3.209
18626PP      PP28730   7.514   3.816   1.798
18627PP      PP28731  15.269   8.381   8.344
18628PP      PP28732   2.644  11.771   0.181
18629PP      PP28733   5.748   0.244   0.307
18630PP      PP28734  10.881   4.470   2.456
18631PP      PP28735   6.380   1.253   0.264
18632PP      PP28736   1.134   5.211  11.302
18633PP      PP28737   3.727  12.601  11.360
18634PP      PP28738  15.153  13.366   1.152
18635PP      PP28739   3.186   7.032  11.674
18636PP      PP28740   1.418   3.163   9.228
18637PP      PP28741   0.984   2.319  13.349
18638PP      PP28742  10.647   7.446   1.203
18639PP      PP28743   2.024   3.165   2.082
18640PP      PP28744   4.771   5.454   3.802
18641PP      PP28745  14.247   3.970  13.464
18642PP      PP28746   6.758  15.087   0.955
18643PP      PP28747  15.597   8.596  11.342
18644PP      PP28748   9.087   6.723   3.774
18645PP      PP28749  13.617   3.832   0.610
18646PP      PP28750  10.475   3.671   9.068
18647PP      PP28751  15.705   7.630   4.511
18648PP      PP28752   7.908   5.449   9.900
18649PP      PP28753   0.166  15.748   3.981
18650PP      PP28754   1.811   4.614   4.119
18651PP      PP28755  12.883  13.930   1.674
18652PP      PP28756   8.567   7.245  11.000
18653PP      PP28757  13.258   7.774  10.341
18654PP      PP28758   4.681  12.538   3.633
18655PP      PP28759  15.635   1.919   9.946
18656PP      PP28760   7.423   1.790   9.955
18657PP      PP28761   1.964  14.187   9.207
18658PP      PP28762   3.119  12.036   0.164
18659PP      PP28763  15.513   1.764  10.431
18660PP      PP28764  11.113   6.573  13.167
18661PP      PP28765   0.802  15.775   3.895
18662PP      PP28766  14.260   3.142   4.223
18663PP      PP28767   0.166  13.388   3.156
18664PP      PP28768   5.511  14.222   0.390
18665PP      PP28769  14.523   3.628  13.175
18666PP      PP28770   4.909   8.119   2.056
18667PP      PP28771   0.193   0.632   0.817
18668PP      PP28772   7.576   3.876   8.686
18669PP      PP28773   5.915  12.980   9.943
18670PP      PP28774  13.312  11.440  13.395
18671PP      PP28775   0.540   5.212   0.333
18672PP      PP28776  11.743   5.217   2.627
18673PP      PP28777  12.047   4.547  10.279
18674PP      PP28778   0.905   4.871   0.533
18675PP      PP28779   1.494   2.831   3.929
18676PP      PP28780   5.667   8.767   0.192
18677PP      PP28781  12.658   9.749  13.587
18678PP      PP28782  11.999   6.206   1.630
18679PP      PP28783  13.418  11.652  11.969
18680PP      PP28784   2.151   3.175  11.629
18681PP      PP28785   4.034   5.202   9.636
18682PP      PP28786   4.651   2.268  10.138
18683PP      PP28787  13.785   3.292  11.072
18684PP      PP28788  10.851  10.312  12.067
18685PP      PP28789   9.692   6.408   9.791
18686PP      PP28790  15.627   8.807  12.486
18687PP      PP28791   0.233   3.114  12.935
18688PP      PP28792   3.055  11.874  12.763
18689PP      PP28793   9.405  10.030  13.263
18690PP      PP28794  12.600   5.405   8.790
18691PP      PP28795  14.522  14.839   4.070
18692PP      PP28796   4.919  14.739  12.477
18693PP      PP28797   6.567  15.739  11.710
18694PP      PP28798   2.554  11.173   8.902
18695PP      PP28799   0.564  13.334   1.665
18696PP      PP28800   2.366   6.785   9.950
18697PP      PP28801   1.426   8.047   2.679
18698PP      PP28802   3.669  14.225  11.869
18699PP      PP28803  14.363   5.788   1.680
18700PP      PP28804  12.918   4.687   2.864
18701PP      PP28805   2.216   4.486  12.340
18702PP      PP28806   7.232   2.392  11.757
18703PP      PP28807  15.572   3.456   1.325
18704PP      PP28808   4.317  10.337  11.051
18705PP      PP28809  14.079   9.057  12.254
18706PP      PP28810  11.475  15.032   2.653
18707PP      PP28811   8.962  11.200   1.190
18708PP      PP28812   0.973  12.194  12.186
18709PP      PP28813  10.479   0.098   0.783
18710PP      PP28814   0.447   5.624   0.639
18711PP      PP28815   5.515   0.822   1.313
18712PP      PP28816  15.200  11.391  13.317
18713PP      PP28817   9.352   7.969   3.699
18714PP      PP28818   3.279  13.056  13.481
18715PP      PP28819   4.750   2.554   0.939
18716PP      PP28820  14.365   4.571  11.279
18717PP      PP28821  14.114  11.318   2.357
18718PP      PP28822  12.349   5.811   1.970
18719PP      PP28823   0.415  11.346  12.995
18720PP      PP28824  12.654   4.891  10.975
18721PP      PP28825  14.073   6.216   3.832
18722PP      PP28826   3.628   3.061   9.560
18723PP      PP28827   3.424   9.349  10.373
18724PP      PP28828   7.897   5.559  12.647
18725PP      PP28829   3.465   0.222   4.119
18726PP      PP28830  11.449   6.757  13.577
18727PP      PP28831   6.225   3.843   2.031
18728PP      PP28832  11.288   7.712   9.249
18729PP      PP28833  13.964  11.455   0.968
18730PP      PP28834  12.014   7.224   8.785
18731PP      PP28835   0.939   5.519   0.499
18732PP      PP28836  12.000  14.839  10.983
18733PP      PP28837   0.428  15.827  13.186
18734PP      PP28838   1.546   0.616   4.573
18735PP      PP28839   4.889   3.387  11.736
18736PP      PP28840  10.846  10.324  10.835
18737PP      PP28841   0.814   4.020   3.722
18738PP      PP28842   0.461   8.258   2.556
18739PP      PP28843   5.266  11.746   1.722
18740PP      PP28844   7.955  10.515  11.189
18741PP      PP28845   6.779  13.358   3.800
18742PP      PP28846  13.174  12.750  13.045
18743PP      PP28847  14.681  13.610  12.301
18744PP      PP28848  15.167   8.745  12.700
18745PP      PP28849   7.058   8.655  13.514
18746PP      PP28850   9.434   0.562  11.939
18747PP      PP28851   4.236   1.813   4.554
18748PP      PP28852   4.895  12.199   2.499
18749PP      PP28853  14.107   6.586  11.629
18750PP      PP28854   7.259   7.575   2.316
18751PP      PP28855  13.991  14.994  13.229
18752PP      PP28856   0.386   0.135  10.788
18753PP      PP28857  12.536   9.525  11.078
18754PP      PP28858   8.258  12.212   3.504
18755PP      PP28859  12.468   2.765   0.984
18756PP      PP28860  13.732   4.322  10.094
18757PP      PP28861  14.036   3.019   3.286
18758PP      PP28862   2.794   1.597   3.951
18759PP      PP28863   7.147  13.278   4.170
18760PP      PP28864   6.425   9.704  10.157
18761PP      PP28865  12.264   9.249   8.719
18762PP      PP28866   8.697   3.321  10.962
18763PP      PP28867  15.362   5.461   8.674
18764PP      PP28868   3.836  13.991  10.951
18765PP      PP28869   0.628  10.369  12.699
18766PP      PP28870   3.832   3.599   1.267
18767PP      PP28871   1.295  14.148   0.985
18768PP      PP28872   4.138  15.395  11.075
18769PP      PP28873  11.963   0.163  12.001
18770PP      PP28874   0.849  13.922  11.128
18771PP      PP28875  14.070   3.466  13.372
18772PP      PP28876  12.729   7.590   9.084
18773PP      PP28877  11.736  14.099   2.511
18774PP      PP28878   6.500  13.667  11.475
18775PP      PP28879   5.720   2.625  11.056
18776PP      PP28880  11.639   0.289   1.576
18777PP      PP28881   6.569  13.775   3.152
18778PP      PP28882  13.780   3.961   3.671
18779PP      PP28883   8.070   9.699  13.577
18780PP      PP28884  14.847   6.481  12.036
18781PP      PP28885   4.692   3.156   9.075
18782PP      PP28886  10.951  10.233   0.435
18783PP      PP28887   7.390   0.036  12.886
18784PP      PP28888  14.764  12.475   2.102
18785PP      PP28889   2.014   9.493  10.264
18786PP      PP28890  13.336  12.546  10.289
18787PP      PP28891  13.908  10.085   2.283
18788PP      PP28892  10.319  10.256   2.234
18789PP      PP28893  10.330  11.919   1.789
18790PP      PP28894  12.712  12.751  10.289
18791PP      PP28895  13.458   4.285  11.262
18792PP      PP28896   5.418   0.757   2.173
18793PP      PP28897   4.130   8.089   3.442
18794PP      PP28898  12.074   0.445   2.465
18795PP      PP28899   1.212   2.719   9.090
18796PP      PP28900   5.619  14.787   0.833
18797PP      PP28901   2.181   3.945  13.229
18798PP      PP28902   9.582  14.791  10.192
18799PP      PP28903  13.453  13.170  12.876
18800PP      PP28904  10.037   9.784   8.986
18801PP      PP28905   7.480   1.795   1.361
18802PP      PP28906   8.076  13.822   1.847
18803PP      PP28907  14.180  12.659   4.024
18804PP      PP28908   3.760   8.744   1.388
18805PP      PP28909   1.623   0.769  11.618
18806PP      PP28910  13.562  11.839   1.768
18807PP      PP28911   5.851  14.092   9.343
18808PP      PP28912  12.532   6.645   3.400
18809PP      PP28913   0.049  12.490  13.014
18810PP      PP28914   5.196  12.268  12.988
18811PP      PP28915   1.415   2.063   2.505
18812PP      PP28916  14.495  14.692  11.599
18813PP      PP28917   9.663   4.984   2.572
18814PP      PP28918   6.574  13.008   9.445
18815PP      PP28919  11.798  13.089   4.240
18816PP      PP28920   3.459  10.803  11.948
18817PP      PP28921   0.206   5.055  10.950
18818PP      PP28922   0.255   4.389   0.201
18819PP      PP28923  10.048  13.573   4.852
18820PP      PP28924   3.182   5.888   3.724
18821PP      PP28925   6.658  13.191   0.972
18822PP      PP28926   7.279  11.914  10.004
18823PP      PP28927   0.922   7.214   3.750
18824PP      PP28928   1.907   5.723   2.152
18825PP      PP28929  13.879  14.582   1.192
18826PP      PP28930  12.047  13.504   9.514
18827PP      PP28931   6.731   9.208   8.769
18828PP      PP28932   0.198   8.446  10.380
18829PP      PP28933   7.598   2.602   9.654
18830PP      PP28934   8.055   6.085   4.091
18831PP      PP28935   9.649   1.049   3.060
18832PP      PP28936   9.707  11.150   1.478
18833PP      PP28937   5.139  11.875   4.255
18834PP      PP28938   7.002   2.837   1.394
18835PP      PP28939  10.960   5.377  12.655
18836PP      PP28940   6.355  14.454  13.540
18837PP      PP28941   5.753  13.727   8.652
18838PP      PP28942   4.523   2.853   0.003
18839PP      PP28943  11.233   9.196   8.615
18840PP      PP28944  12.318  13.120  10.243
18841PP      PP28945  15.064  15.388  11.494
18842PP      PP28946  12.138   4.048  11.178
18843PP      PP28947  13.156   3.085   0.299
18844PP      PP28948  12.340   0.972   1.252
18845PP      PP28949  13.044  14.120   3.856
18846PP      PP28950   9.460  11.920   1.042
18847PP      PP28951   9.921  14.374   2.884
18848PP      PP28952   9.748   0.692   2.534
18849PP      PP28953   7.304   2.114   9.013
18850PP      PP28954   3.654   5.179  13.530
18851PP      PP28955   4.262   9.391   1.671
18852PP      PP28956   8.279  13.426  13.058
18853PP      PP28957   4.829   8.769  11.868
18854PP      PP28958  14.185  10.089   9.359
18855PP      PP28959   1.383   9.507   3.218
18856PP      PP28960  10.521  13.193   9.474
18857PP      PP28961  14.852   9.180   1.212
18858PP      PP28962  14.110  10.520  10.232
18859PP      PP28963   5.563   0.664   3.200
18860PP      PP28964   0.089   5.490   0.262
18861PP      PP28965   7.871  13.320  13.350
18862PP      PP28966  10.302   1.406  12.398
18863PP      PP28967   6.882   3.829  10.313
18864PP      PP28968   9.732   6.906  12.227
18865PP      PP28969  12.971   5.588  13.427
18866PP      PP28970  12.206  13.128   3.418
18867PP      PP28971  10.946  14.097  11.427
18868PP      PP28972  13.286   4.344   8.678
18869PP      PP28973  12.450  12.734   4.671
18870PP      PP28974   6.385   7.621  12.239
18871PP      PP28975   1.143  15.729  11.885
18872PP      PP28976   6.554  11.638   2.377
18873PP      PP28977   7.409   2.975  11.528
18874PP      PP28978  13.461  11.367  11.008
18875PP      PP28979   9.964   9.945   0.338
18876PP      PP28980   3.962   4.129  13.116
18877PP      PP28981   4.602   2.231   4.145
18878PP      PP28982   0.916  12.783  12.882
18879PP      PP28983   4.391  15.587   4.512
18880PP      PP28984   9.154   7.311  13.224
18881PP      PP28985   2.047   7.484   2.394
18882PP      PP28986   9.262  14.846   2.394
18883PP      PP28987  15.116   4.446  13.010
18884PP      PP28988   5.227   9.101   8.737
18885PP      PP28989  14.075  11.176   0.473
18886PP      PP28990   1.084   3.805  11.721
18887PP      PP28991  12.825  14.792  10.027
18888PP      PP28992   8.756  15.457  10.382
18889PP      PP28993   6.049  15.144   3.378
18890PP      PP28994   2.647  14.901   1.163
18891PP      PP28995   0.609   7.958   4.171
18892PP      PP28996   3.124  11.441  10.865
18893PP      PP28997   4.364   7.929   0.842
18894PP      PP28998   8.913  13.470   1.967
18895PP      PP28999   7.224   2.076  12.195
18896PP      PP29000  14.393   3.080  13.534
18897PP      PP29001  13.105  10.333   2.636
18898PP      PP29002   5.411   2.297  12.127
18899PP      PP29003   1.802  13.004   2.423
18900PP      PP29004   6.904   9.146  10.784
18901PP      PP29005  15.786   2.032   3.657
18902PP      PP29006   2.812  10.755  12.117
18903PP      PP29007  15.377   1.322   0.314
18904PP      PP29008   5.169  14.478  10.275
18905PP      PP29009  14.499   8.177  12.064
18906PP      PP29010  13.061  11.829   2.066
18907PP      PP29011  14.958   8.273   8.900
18908PP      PP29012   3.920   5.707   4.280
18909PP      PP29013   1.603  14.851   2.202
18910PP      PP29014  12.211   4.164   9.953
18911PP      PP29015  14.764   3.486   9.603
18912PP      PP29016  12.882  13.799  10.658
18913PP      PP29017   4.785  10.913   3.374
18914PP      PP29018   8.620  10.733   3.325
18915PP      PP29019   5.721   4.665   2.009
18916PP      PP29020   2.134   7.193  11.680
18917PP      PP29021   2.871   4.559   9.892
18918PP      PP29022   5.354  13.761  11.817
18919PP      PP29023  14.376  14.971   3.172
18920PP      PP29024   1.018  13.271   9.254
18921PP      PP29025   2.730   4.321   0.457
18922PP      PP29026   2.183   5.780   8.077
18923PP      PP29027   4.415   6.522  12.487
18924PP      PP29028   2.473   9.492   0.358
18925PP      PP29029   1.202   6.973   3.409
18926PP      PP29030  10.712  12.451   0.728
18927PP      PP29031   3.323   5.833  13.108
18928PP      PP29032  10.535  13.400   4.890
18929PP      PP29033   2.294   0.613   4.449
18930PP      PP29034  13.755  12.018  11.704
18931PP      PP29035   3.667   0.537   0.857
18932PP      PP29036   7.200   4.111   0.126
18933PP      PP29037   3.742  12.631   2.228
18934PP      PP29038  14.099   2.526   8.967
18935PP      PP29039   3.295   3.808   1.149
18936PP      PP29040   3.732  11.575  11.708
18937PP      PP29041   8.372   4.047   2.713
18938PP      PP29042  11.311  10.624   0.661
18939PP      PP29043   0.641   0.258   9.861
18940PP      PP29044   7.781   2.584   3.198
18941PP      PP29045  10.519   0.224   9.173
18942PP      PP29046   6.550   4.414  11.417
18943PP      PP29047  15.335   0.447   4.432
18944PP      PP29048  10.192   9.454   1.799
18945PP      PP29049  14.254  10.465   1.127
18946PP      PP29050  10.067   5.934   9.524
18947PP      PP29051   8.851   2.371   3.789
18948PP      PP29052   3.323  15.671  11.537
18949PP      PP29053   8.301   4.026   1.662
18950PP      PP29054  10.709  13.660  11.056
18951PP      PP29055  14.835  12.927   2.347
18952PP      PP29056   9.712   3.609  10.157
18953PP      PP29057   6.213   2.527   2.163
18954PP      PP29058   7.845   9.910   2.032
18955PP      PP29059   3.526  15.677  10.006
18956PP      PP29060  13.549   9.769   3.421
18957PP      PP29061  15.710   1.043   9.420
18958PP      PP29062   7.420  10.249   1.133
18959PP      PP29063   0.745   9.318   3.933
18960PP      PP29064  12.263   7.692   1.881
18961PP      PP29065   8.789   6.819  12.032
18962PP      PP29066  13.333  14.677   3.461
18963PP      PP29067  12.354   1.892   9.892
18964PP      PP29068  14.831   9.898   2.244
18965PP      PP29069   7.339  14.966   1.883
18966PP      PP29070  13.793   5.474  10.657
18967PP      PP29071   1.969   4.755   0.619
18968PP      PP29072  15.091  14.332  13.091
18969PP      PP29073  14.915   2.637   0.427
18970PP      PP29074   7.870  12.043  10.757
18971PP      PP29075   2.177   5.886  10.585
18972PP      PP29076   3.133  12.378   1.429
18973PP      PP29077   8.707   2.778   2.453
18974PP      PP29078   2.496   8.751   9.919
18975PP      PP29079   5.699  10.538  12.097
18976PP      PP29080  10.887  15.456  10.581
18977PP      PP29081   5.421   3.208   1.481
18978PP      PP29082   1.136  12.572   0.149
18979PP      PP29083   4.695  14.215   0.759
18980PP      PP29084  15.578   2.507  13.539
18981PP      PP29085  13.269   7.349  11.133
18982PP      PP29086  14.623  11.169   0.418
18983PP      PP29087   2.082   2.206  10.161
18984PP      PP29088  15.368   0.144   3.611
18985PP      PP29089   9.259   1.534   4.592
18986PP      PP29090   0.470   4.714  11.369
18987PP      PP29091   6.506   7.404  11.788
18988PP      PP29092   1.879   4.745   2.918
18989PP      PP29093   9.347   0.757   2.208
18990PP      PP29094  10.625  10.057  10.004
18991PP      PP29095   8.170  12.412  11.074
18992PP      PP29096   4.476  10.088   9.229
18993PP      PP29097   7.304  11.348   3.961
18994PP      PP29098   2.951   4.277  12.788
18995PP      PP29099   8.594   8.233  11.259
18996PP      PP29100   5.221  13.957  12.282
18997PP      PP29101  14.288   4.872   9.339
18998PP      PP29102   1.200  14.512   2.150
18999PP      PP29103   8.154   7.308   4.329
19000PP      PP29104   6.856   8.243  12.412
19001PP      PP29105   6.356   5.580   0.710
19002PP      PP29106  10.805  10.193  11.355
19003PP      PP29107   4.735  11.367  11.815
19004PP      PP29108   5.191  15.204  12.404
19005PP      PP29109  12.043  10.130  12.120
19006PP      PP29110  12.241   1.854  11.881
19007PP      PP29111   9.918  10.231   3.091
19008PP      PP29112   8.858   0.965   2.306
19009PP      PP29113   6.535   8.466   9.489
19010PP      PP29114   7.559   9.706   9.312
19011PP      PP29115  13.548   0.913  13.396
19012PP      PP29116  12.145   9.859  10.514
19013PP      PP29117   6.400  13.671   3.625
19014PP      PP29118  12.416  13.438   0.058
19015PP      PP29119   0.730  10.117  10.925
19016PP      PP29120  13.166  15.029  11.407
19017PP      PP29121  11.943  13.586  13.236
19018PP      PP29122   1.551   7.436   9.659
19019PP      PP29123  15.782   5.162  12.736
19020PP      PP29124  12.479  13.615   4.043
19021PP      PP29125  13.850   3.791   8.469
19022PP      PP29126   1.775   2.291  12.881
19023PP      PP29127   5.620   7.785  10.578
19024PP      PP29128   9.877   4.401  12.013
19025PP      PP29129   1.782   4.785   9.503
19026PP      PP29130   6.048  11.985   0.635
19027PP      PP29131  13.398   8.753   8.672
19028PP      PP29132   5.070   4.651  12.661
19029PP      PP29133   8.673   0.139  10.554
19030PP      PP29134   1.145   2.082   0.229
19031PP      PP29135   1.663   3.398   0.179
19032PP      PP29136   8.407  11.689   4.403
19033PP      PP29137  12.060   7.809   0.856
19034PP      PP29138   3.896  13.188   8.270
19035PP      PP29139   9.196   0.507   4.444
19036PP      PP29140  10.067   4.847   2.256
19037PP      PP29141   4.531  15.181   3.111
19038PP      PP29142   6.168  15.535   3.711
19039PP      PP29143  14.161   3.679   2.158
19040PP      PP29144   6.417   9.746  12.529
19041PP      PP29145   3.373   8.137   9.888
19042PP      PP29146   8.991   1.063   0.868
19043PP      PP29147   0.602  11.473  10.093
19044PP      PP29148  15.461  15.405   1.223
19045PP      PP29149   6.028   0.855   3.438
19046PP      PP29150  10.729   1.070   0.344
19047PP      PP29151   8.445   3.716  11.178
19048PP      PP29152   3.750   7.758   2.702
19049PP      PP29153  13.187  10.787  12.861
19050PP      PP29154  14.419   2.659  13.207
19051PP      PP29155  14.112  11.676  10.347
19052PP      PP29156  11.204   7.474  13.315
19053PP      PP29157   8.649   5.140   0.447
19054PP      PP29158   1.522   3.295   4.219
19055PP      PP29159   9.514  12.679   1.984
19056PP      PP29160  14.529   4.938  12.553
19057PP      PP29161   8.339   5.438  10.223
19058PP      PP29162   0.657   4.840   3.508
19059PP      PP29163   5.399   6.398   2.798
19060PP      PP29164  10.322   6.967  12.091
19061PP      PP29165   1.956  14.838   3.598
19062PP      PP29166   0.957   5.621   9.617
19063PP      PP29167   6.120  11.312  13.072
19064PP      PP29168   8.188  15.290   4.813
19065PP      PP29169  13.754   7.506   1.845
19066PP      PP29170   7.482   8.112   3.733
19067PP      PP29171  10.400  10.057   3.307
19068PP      PP29172  13.400  10.536  11.461
19069PP      PP29173   2.532   5.479   9.497
19070PP      PP29174   9.060  10.201   1.010
19071PP      PP29175   1.666   2.698   2.495
19072PP      PP29176   6.093   9.169  10.664
19073PP      PP29177   2.899  14.828  12.529
19074PP      PP29178  12.267   0.623   0.885
19075PP      PP29179  12.764  11.365   2.145
19076PP      PP29180   6.131   6.387  11.029
19077PP      PP29181  14.818   0.561   2.326
19078PP      PP29182   2.784   9.129   9.008
19079PP      PP29183  11.703  14.461  11.179
19080PP      PP29184  12.503  15.730   9.958
19081PP      PP29185   3.445  15.619   0.431
19082PP      PP29186   1.972   7.260   3.776
19083PP      PP29187  14.645  12.937  12.873
19084PP      PP29188   3.228  12.822  11.224
19085PP      PP29189   9.862  14.283   2.008
19086PP      PP29190   5.487   4.267  10.894
19087PP      PP29191  14.556   1.990   9.376
19088PP      PP29192  10.727  13.145  10.944
19089PP      PP29193  15.225  14.090  11.088
19090PP      PP29194   5.221  14.369   3.277
19091PP      PP29195  13.206  13.377  10.757
19092PP      PP29196   0.687   6.501   0.716
19093PP      PP29197  15.382   3.393   3.965
19094PP      PP29198  10.276   6.651  12.999
19095PP      PP29199  11.693   3.693   1.559
19096PP      PP29200   0.541  13.972   3.369
19097PP      PP29201   4.295   2.726  11.278
19098PP      PP29202  10.379   5.585   2.680
19099PP      PP29203   7.874   3.157   1.767
19100PP      PP29204   6.029   5.611  12.128
19101PP      PP29205  15.446   3.715   4.378
19102PP      PP29206  15.614   8.087   1.314
19103PP      PP29207   8.475  10.661  10.370
19104PP      PP29208  15.199  13.373  11.663
19105PP      PP29209  15.648  14.972   2.634
19106PP      PP29210  10.401  13.333  12.505
19107PP      PP29211  14.709   1.458  12.950
19108PP      PP29212  13.100   1.819  11.076
19109PP      PP29213   8.069  10.646   3.402
19110PP      PP29214   0.126  14.299  10.282
19111PP      PP29215   3.683   7.157   9.675
19112PP      PP29216  11.152   7.898   0.756
19113PP      PP29217  12.646  12.817  13.033
19114PP      PP29218  12.582   9.966  11.358
19115PP      PP29219  11.250  15.142   0.017
19116PP      PP29220  11.237   8.508   3.756
19117PP      PP29221   1.080  11.725   2.261
19118PP      PP29222   1.054   2.844  12.222
19119PP      PP29223   1.576   6.490  10.676
19120PP      PP29224   7.579  13.018   4.465
19121PP      PP29225   3.909   7.266   2.639
19122PP      PP29226   3.266  12.441   2.336
19123PP      PP29227   7.412   8.619  10.019
19124PP      PP29228   9.851   8.831   9.395
19125PP      PP29229   9.214   1.797   2.440
19126PP      PP29230  12.127   4.427   1.880
19127PP      PP29231  11.397   9.228  12.209
19128PP      PP29232  10.174   2.871   2.002
19129PP      PP29233  15.451   5.997  13.157
19130PP      PP29234  14.550  15.687  12.139
19131PP      PP29235   1.246  15.160   9.106
19132PP      PP29236  12.084   2.733   1.367
19133PP      PP29237   1.285   3.697   9.949
19134PP      PP29238  15.140   9.105   9.127
19135PP      PP29239   3.027   5.276   1.259
19136PP      PP29240  11.857   2.227   2.705
19137PP      PP29241  13.715   5.065  11.022
19138PP      PP29242  10.528   1.037   3.037
19139PP      PP29243   6.559   9.452   2.244
19140PP      PP29244   4.668   7.646   2.166
19141PP      PP29245   8.172   8.994   2.766
19142PP      PP29246  11.468   4.277   3.404
19143PP      PP29247  14.392   2.808   2.561
19144PP      PP29248  14.475   0.099  11.012
19145PP      PP29249   2.451   6.159  12.683
19146PP      PP29250   1.274   8.276   0.130
19147PP      PP29251   4.894  10.739   8.733
19148PP      PP29252  15.600  13.386  13.459
19149PP      PP29253   6.401  10.027   3.138
19150PP      PP29254   8.258  11.053   0.584
19151PP      PP29255   1.912  13.232  13.262
19152PP      PP29256   8.746   3.711  10.286
19153PP      PP29257  15.798   9.509   8.451
19154PP      PP29258   0.102   7.488  13.076
19155PP      PP29259   6.023  15.610   0.446
19156PP      PP29260  13.904   9.684  11.652
19157PP      PP29261   1.158   1.237   3.776
19158PP      PP29262   0.893   1.004  11.002
19159PP      PP29263   4.515  13.462  12.317
19160PP      PP29264   6.642  13.213  11.230
19161PP      PP29265   4.426   3.475   3.301
19162PP      PP29266  14.621  15.746   3.181
19163PP      PP29267   1.029  11.208   4.631
19164PP      PP29268   6.381   1.091  12.577
19165PP      PP29269   1.833  14.361   0.174
19166PP      PP29270   6.036   8.625   2.576
19167PP      PP29271   4.485  14.820  12.778
19168PP      PP29272  10.223   1.545   2.529
19169PP      PP29273  12.006   6.643   2.140
19170PP      PP29274  11.496   2.399   9.893
19171PP      PP29275  12.698   1.151   2.336
19172PP      PP29276   9.121   9.404   0.621
19173PP      PP29277  13.234   3.128   8.223
19174PP      PP29278  15.089  12.915   9.233
19175PP      PP29279   6.894   0.263  10.229
19176PP      PP29280   7.565  14.571   0.028
19177PP      PP29281   5.301  14.792  12.016
19178PP      PP29282   9.073   6.065   3.625
19179PP      PP29283  15.371   1.503   4.181
19180PP      PP29284   2.959  10.414   0.826
19181PP      PP29285   0.597  14.954   9.839
19182PP      PP29286   2.735   9.969   0.447
19183PP      PP29287   4.992   7.501   8.740
19184PP      PP29288  11.093   2.181  12.098
19185PP      PP29289  15.077   6.429   1.192
19186PP      PP29290   9.632   9.828  10.925
19187PP      PP29291   7.331   9.979   3.416
19188PP      PP29292   6.217   8.545  12.503
19189PP      PP29293   4.780   7.721   9.165
19190PP      PP29294   4.723  14.667   9.451
19191PP      PP29295   7.425   4.591  12.473
19192PP      PP29296  12.339   3.309  12.345
19193PP      PP29297   8.472   8.949  11.111
19194PP      PP29298   4.596   1.625  13.484
19195PP      PP29299   7.741  14.740   3.809
19196PP      PP29300   1.652   1.795  12.712
19197PP      PP29301  12.843   2.513   4.130
19198PP      PP29302   5.244   1.402   3.700
19199PP      PP29303   1.878   7.739  10.930
19200PP      PP29304   0.656  11.139   0.138
19201PP      PP29305  14.565  13.000  12.352
19202PP      PP29306  15.199  14.745   0.789
19203PP      PP29307   2.468  11.525  13.336
19204PP      PP29308  13.613   7.246   9.154
19205PP      PP29309  11.026   9.262   2.932
19206PP      PP29310  13.953   5.436  10.167
19207PP      PP29311  13.270  14.536   0.954
19208PP      PP29312   7.864   8.837  10.206
19209PP      PP29313  14.064  14.645  12.396
19210PP      PP29314   1.468  15.663   9.266
19211PP      PP29315   7.871   6.045   9.060
19212PP      PP29316  13.740   2.617  12.225
19213PP      PP29317   9.835   1.397   0.732
19214PP      PP29318  12.802   6.074  13.337
19215PP      PP29319   0.506   1.569   1.190
19216PP      PP29320   2.086   7.368   8.258
19217PP      PP29321   5.559   7.868  12.914
19218PP      PP29322  11.025   2.605   9.880
19219PP      PP29323  15.171   3.476   3.491
19220PP      PP29324   8.581   4.019   4.535
19221PP      PP29325   0.399   2.406  12.340
19222PP      PP29326  13.297   3.654  12.521
19223PP      PP29327  13.148  15.433  10.754
19224PP      PP29328   4.844  11.691   1.409
19225PP      PP29329   1.538  15.088  10.112
19226PP      PP29330  13.156  12.419   0.698
19227PP      PP29331  11.621   9.375  11.185
19228PP      PP29332  10.641   8.495   8.779
19229PP      PP29333   6.772   5.842   0.816
19230PP      PP29334   7.046  10.788   2.402
19231PP      PP29335   8.273   6.541   4.288
19232PP      PP29336  11.733   3.167  10.484
19233PP      PP29337  13.438  13.265  12.356
19234PP      PP29338   7.592   6.411   1.281
19235PP      PP29339   8.891  12.149  10.258
19236PP      PP29340   9.451   4.602  12.279
19237PP      PP29341   0.799  10.793   3.341
19238PP      PP29342  11.977   8.426   1.260
19239PP      PP29343   1.512  13.691   4.097
19240PP      PP29344   0.056   6.282   2.512
19241PP      PP29345   2.231   8.811   1.185
19242PP      PP29346   0.684   9.350   2.241
19243PP      PP29347  10.561   6.040   9.402
19244PP      PP29348   4.526   0.814  10.681
19245PP      PP29349   7.815   6.389  13.590
19246PP      PP29350  10.727   6.302  12.958
19247PP      PP29351   5.332   7.674  13.353
19248PP      PP29352  10.630   9.938   9.274
19249PP      PP29353  10.407   3.198   2.342
19250PP      PP29354   7.049   1.068  11.387
19251PP      PP29355  12.904   6.433   9.842
19252PP      PP29356   3.362  13.744   0.580
19253PP      PP29357  13.453  12.890  10.809
19254PP      PP29358  11.178  14.743  13.269
19255PP      PP29359  12.110   8.059   2.213
19256PP      PP29360   6.978   9.776   1.669
19257PP      PP29361  13.127  10.262  12.832
19258PP      PP29362   6.452   5.551  10.503
19259PP      PP29363   4.027   7.534   9.625
19260PP      PP29364   4.977   6.561   9.899
19261PP      PP29365   7.596  12.214   9.675
19262PP      PP29366   2.384   1.965  11.792
19263PP      PP29367   5.924   0.132  10.993
19264PP      PP29368   4.234  12.770   3.741
19265PP      PP29369   1.995   9.058  11.751
19266PP      PP29370  11.006   7.009  13.406
19267PP      PP29371   4.350   8.928  10.808
19268PP      PP29372   4.556  13.974   2.565
19269PP      PP29373   2.941   7.839  10.261
19270PP      PP29374   3.985   5.843   2.387
19271PP      PP29375   8.806   1.240  12.712
19272PP      PP29376  14.390  14.987   9.825
19273PP      PP29377   5.565  13.019   3.459
19274PP      PP29378   6.132  10.360   2.829
19275PP      PP29379  11.202   0.827  11.309
19276PP      PP29380  14.817   5.818   3.031
19277PP      PP29381  13.413   1.497   1.913
19278PP      PP29382   9.509  10.077   1.196
19279PP      PP29383  15.145   5.140   4.000
19280PP      PP29384   1.195   2.061   3.500
19281PP      PP29385   8.872  10.739  12.116
19282PP      PP29386   6.824   6.353   0.921
19283PP      PP29387   6.733   6.520   8.513
19284PP      PP29388   3.895   0.772   2.997
19285PP      PP29389   3.299   5.092   9.876
19286PP      PP29390   3.478   8.825  11.875
19287PP      PP29391   3.806   3.538   1.943
19288PP      PP29392  13.201  15.683   1.429
19289PP      PP29393   8.560   4.435   9.946
19290PP      PP29394  12.447  12.969  12.578
19291PP      PP29395  11.857   6.861  10.966
19292PP      PP29396   0.789   9.023   1.415
19293PP      PP29397   4.390   3.523   8.805
19294PP      PP29398   8.755  15.493  11.350
19295PP      PP29399  12.040  11.223  12.827
19296PP      PP29400   8.433  13.758   2.616
19297PP      PP29401  12.488  12.321  13.115
19298PP      PP29402   8.578   2.369   1.001
19299PP      PP29403   0.604   8.174   3.684
19300PP      PP29404  15.070  10.211   8.231
19301PP      PP29405  12.784   0.433   2.984
19302PP      PP29406   8.190  14.778   2.429
19303PP      PP29407  13.498   4.453   1.896
19304PP      PP29408   3.871  12.528  10.441
19305PP      PP29409   5.916   0.512  11.585
19306PP      PP29410  13.336   8.621  13.554
19307PP      PP29411   8.220   1.569  11.097
19308PP      PP29412   6.916   3.639   3.337
19309PP      PP29413  14.344  14.160   4.597
19310PP      PP29414  15.763  10.018   1.960
19311PP      PP29415   9.234   2.286   2.915
19312PP      PP29416   6.226  12.002   2.616
19313PP      PP29417   5.647  10.363   1.748
19314PP      PP29418   3.316   7.523  11.481
19315PP      PP29419   5.368   8.502   3.270
19316PP      PP29420   4.354   7.635   1.282
19317PP      PP29421   3.974   0.051   4.670
19318PP      PP29422  15.112   8.598   2.875
19319PP      PP29423   6.383   4.730  11.023
19320PP      PP29424   9.796   8.842  11.018
19321PP      PP29425   0.867   1.814   9.783
19322PP      PP29426   0.367  13.699   4.676
19323PP      PP29427   4.578   2.106  12.692
19324PP      PP29428   8.225   1.335   9.083
19325PP      PP29429  10.608  14.085  13.594
19326PP      PP29430   1.212  13.007  11.863
19327PP      PP29431   1.675   4.034   1.936
19328PP      PP29432   2.541  10.582  10.699
19329PP      PP29433   2.461   0.835   1.431
19330PP      PP29434  15.377  15.273  12.322
19331PP      PP29435   0.071   8.498   1.913
19332PP      PP29436   8.858   3.789  10.817
19333PP      PP29437  11.763  10.016   9.710
19334PP      PP29438   2.851   6.060  11.842
19335PP      PP29439   6.702  10.790   1.159
19336PP      PP29440   4.837  14.762  10.651
19337PP      PP29441  14.205   6.639   2.938
19338PP      PP29442   3.209  12.876   8.273
19339PP      PP29443   2.701   6.936  12.278
19340PP      PP29444  13.253   3.803  11.298
19341PP      PP29445  11.397   8.499   3.268
19342PP      PP29446  13.268   7.518  12.177
19343PP      PP29447  13.711  11.991  10.446
19344PP      PP29448  10.386   7.083  13.325
19345PP      PP29449  12.993   8.416   9.583
19346PP      PP29450   8.548   4.456   1.046
19347PP      PP29451   2.068   1.741  12.188
19348PP      PP29452   7.251   6.272   3.191
19349PP      PP29453   4.648  15.038   0.924
19350PP      PP29454   6.811  14.707   2.873
19351PP      PP29455   4.615   2.853   4.494
19352PP      PP29456   5.093   4.299   3.055
19353PP      PP29457  14.288  10.796  10.651
19354PP      PP29458   4.792   7.962   2.560
19355PP      PP29459  13.802  10.632  10.644
19356PP      PP29460  12.319  12.359  11.807
19357PP      PP29461   9.176  10.371   1.493
19358PP      PP29462   6.304   6.686   9.753
19359PP      PP29463   2.411   4.758   2.888
19360PP      PP29464   9.905  11.875   3.064
19361PP      PP29465   5.801   2.258   5.030
19362PP      PP29466   2.858  10.242   3.736
19363PP      PP29467   8.498   4.887  12.482
19364PP      PP29468   6.395   9.678   0.769
19365PP      PP29469   8.516  14.862  12.150
19366PP      PP29470   4.675  13.680   3.891
19367PP      PP29471   8.432   9.631   1.970
19368PP      PP29472   1.615   4.471  11.416
19369PP      PP29473  13.324   0.261  11.545
19370PP      PP29474  14.894  11.528   9.663
19371PP      PP29475   7.003   3.219  12.337
19372PP      PP29476   3.375   4.935  13.009
19373PP      PP29477  15.576  14.310   3.274
19374PP      PP29478   4.875   6.477   9.372
19375PP      PP29479   1.275   0.075   2.138
19376PP      PP29480   4.926   1.009   4.342
19377PP      PP29481  13.236   1.338  12.647
19378PP      PP29482  14.733   4.442  10.856
19379PP      PP29483   4.449   3.121  11.591
19380PP      PP29484   5.318   8.034  11.669
19381PP      PP29485  10.159  10.482   1.784
19382PP      PP29486  11.780   2.527   8.735
19383PP      PP29487   5.598  14.132  10.464
19384PP      PP29488   1.535  12.682  11.516
19385PP      PP29489  11.745  10.582   9.332
19386PP      PP29490   2.551   9.078  10.313
19387PP      PP29491   0.679   1.220   0.137
19388PP      PP29492   1.717   1.326  13.558
19389PP      PP29493   8.716   8.868  10.603
19390PP      PP29494   7.654   0.548   0.008
19391PP      PP29495  13.184   1.549   9.410
19392PP      PP29496   5.254  13.858  10.195
19393PP      PP29497   6.610   0.496   9.614
19394PP      PP29498   7.469   4.198   2.848
19395PP      PP29499   9.017  10.183  13.583
19396PP      PP29500   9.014   4.997   8.748
19397PP      PP29501   0.977  10.750   0.298
19398PP      PP29502  11.351   3.244   0.606
19399PP      PP29503  13.853  11.512  13.263
19400PP      PP29504   8.068  11.639   1.188
19401PP      PP29505   9.984   6.532   0.524
19402PP      PP29506   9.949   8.981  10.531
19403PP      PP29507  11.443   2.931   9.970
19404PP      PP29508  12.883   6.751   4.204
19405PP      PP29509   4.005  15.541   1.391
19406PP      PP29510   2.152  15.768   1.816
19407PP      PP29511   4.929  10.054   9.493
19408PP      PP29512  15.811   4.959  13.238
19409PP      PP29513   3.939  14.436  11.180
19410PP      PP29514   2.035  10.460  10.784
19411PP      PP29515  13.083   4.819   1.601
19412PP      PP29516   5.743   6.856  12.250
19413PP      PP29517  10.990   6.410   0.605
19414PP      PP29518  10.127  13.039   5.142
19415PP      PP29519   2.556   1.134  11.520
19416PP      PP29520   3.987   5.596  13.274
19417PP      PP29521  12.530  10.436  11.141
19418PP      PP29522   0.152  15.425  13.435
19419PP      PP29523   0.914   1.099  12.813
19420PP      PP29524  12.076   1.212   1.742
19421PP      PP29525   5.917  11.115   1.164
19422PP      PP29526   5.381   0.744   4.336
19423PP      PP29527   1.112   6.726  11.493
19424PP      PP29528   2.134   3.654   1.427
19425PP      PP29529   1.624   8.735   9.956
19426PP      PP29530   1.521  12.292   0.362
19427PP      PP29531  13.600   2.694   8.990
19428PP      PP29532  14.753   6.783   0.623
19429PP      PP29533  14.018   5.352   8.756
19430PP      PP29534  11.520   6.417   8.540
19431PP      PP29535  11.317   6.105  13.314
19432PP      PP29536   6.292   3.649   4.015
19433PP      PP29537   2.721  12.406   3.472
19434PP      PP29538   7.444  14.463  10.613
19435PP      PP29539   6.375   4.370   1.404
19436PP      PP29540   3.056   9.558  11.142
19437PP      PP29541   4.190   8.186  11.406
19438PP      PP29542  10.100   0.444  13.491
19439PP      PP29543  12.369   0.230  10.694
19440PP      PP29544   8.071   6.966   3.950
19441PP      PP29545   3.378   5.966  11.251
19442PP      PP29546   2.968  12.195  10.307
19443PP      PP29547  14.774  15.426   4.660
19444PP      PP29548  13.970  12.036  13.151
19445PP      PP29549   8.248   2.082   9.709
19446PP      PP29550   0.902   1.129   4.606
19447PP      PP29551  15.556  10.363  13.042
19448PP      PP29552   6.623   7.930  10.413
19449PP      PP29553   8.865   8.933  11.507
19450PP      PP29554   5.802   0.360  12.758
19451PP      PP29555  15.255   6.538   9.139
19452PP      PP29556  12.000   4.105   1.469
19453PP      PP29557   1.590   1.348  12.456
19454PP      PP29558   6.990   1.889   1.228
19455PP      PP29559   5.372   5.555   4.260
19456PP      PP29560   3.864   9.641   8.998
19457PP      PP29561   3.971  13.462   2.296
19458PP      PP29562   6.864  12.632  13.463
19459PP      PP29563  12.763   8.545   0.996
19460PP      PP29564   1.989   3.071   1.571
19461PP      PP29565  13.821  15.534  12.802
19462PP      PP29566   9.229   0.262   2.162
19463PP      PP29567   6.066   2.564   9.976
19464PP      PP29568   2.201   8.568  13.485
19465PP      PP29569  13.735   1.082   3.835
19466PP      PP29570  13.638   4.837  11.493
19467PP      PP29571   9.824   9.861   0.849
19468PP      PP29572  14.488  12.193  13.156
19469PP      PP29573  14.452   6.348  12.395
19470PP      PP29574   5.783   9.686  10.466
19471PP      PP29575   9.373  14.173   0.723
19472PP      PP29576   1.821   4.508  11.928
19473PP      PP29577   7.250   0.072   1.458
19474PP      PP29578   7.471  15.161   3.932
19475PP      PP29579   9.478   1.318   1.097
19476PP      PP29580   6.440  12.876   9.936
19477PP      PP29581  11.689   8.277   3.659
19478PP      PP29582   5.912  11.009  10.460
19479PP      PP29583   3.888  12.183  12.107
19480PP      PP29584  10.074  13.024   0.850
19481PP      PP29585  14.555   1.327   0.702
19482PP      PP29586  13.834  13.502  11.916
19483PP      PP29587   9.513   6.807  10.126
19484PP      PP29588   9.037   0.280  11.700
19485PP      PP29589   6.008   4.317   3.436
19486PP      PP29590   5.613   2.657  12.513
19487PP      PP29591   7.272   8.877   4.345
19488PP      PP29592  12.626  13.241  11.465
19489PP      PP29593   2.271   6.522   2.642
19490PP      PP29594   9.094   3.793   3.484
19491PP      PP29595   2.950  15.661  13.288
19492PP      PP29596   9.232   2.397  10.533
19493PP      PP29597   1.660   7.708   9.146
19494PP      PP29598   2.761   6.921   1.363
19495PP      PP29599  10.283  15.054   2.135
19496PP      PP29600   2.926   0.615   0.299
19497PP      PP29601  14.754  10.023  11.625
19498PP      PP29602   4.006   3.817   0.692
19499PP      PP29603   1.130   6.167   9.477
19500PP      PP29604   0.902   7.563   2.978
19501PP      PP29605   2.990   4.569  10.456
19502PP      PP29606   9.484   5.677  10.900
19503PP      PP29607   3.316   2.206  11.394
19504PP      PP29608   0.250   3.953   1.971
19505PP      PP29609  13.542   2.708  12.704
19506PP      PP29610  12.769   9.148   8.631
19507PP      PP29611   5.657   6.690  10.899
19508PP      PP29612   3.284   8.517  10.442
19509PP      PP29613  15.747   4.924  10.448
19510PP      PP29614   3.266  10.146   0.536
19511PP      PP29615  15.498  15.181  13.434
19512PP      PP29616   1.442   9.078  10.779
19513PP      PP29617  13.407  12.940   4.864
19514PP      PP29618  14.798  13.264  11.960
19515PP      PP29619   1.302   5.339  10.834
19516PP      PP29620  12.079   4.309  12.008
19517PP      PP29621  14.753   5.914  13.298
19518PP      PP29622  13.390   1.451   3.165
19519PP      PP29623  13.910  13.012  10.569
19520PP      PP29624   2.236   2.958   9.463
19521PP      PP29625   3.347   0.914   1.053
19522PP      PP29626   7.470   0.911   1.823
19523PP      PP29627   4.502   1.976   1.784
19524PP      PP29628   2.907   0.661   1.195
19525PP      PP29629   1.975   4.932   2.030
19526PP      PP29630  13.434   2.913   0.745
19527PP      PP29631   9.907  13.047  10.422
19528PP      PP29632   5.628   2.810   1.208
19529PP      PP29633   7.324   3.301   3.411
19530PP      PP29634   4.299  15.241   1.870
19531PP      PP29635   9.696   3.881   9.716
19532PP      PP29636  11.788   3.551   0.546
19533PP      PP29637   0.807  10.336  13.188
19534PP      PP29638  11.880   7.952  11.694
19535PP      PP29639   3.880   9.150  10.674
19536PP      PP29640  11.277   9.020  10.990
19537PP      PP29641   7.181   0.551   4.968
19538PP      PP29642   9.060  10.186   2.026
19539PP      PP29643   8.978  13.913  12.304
19540PP      PP29644  14.080   8.070  13.243
19541PP      PP29645   4.391  14.648   0.661
19542PP      PP29646   9.483   0.251   2.638
19543PP      PP29647   7.521   4.037  10.743
19544PP      PP29648  12.024   8.298   0.658
19545PP      PP29649   0.752   0.936   3.053
19546PP      PP29650   6.757   1.168  10.353
19547PP      PP29651   1.910   8.169   0.672
19548PP      PP29652   8.096   2.589   9.864
19549PP      PP29653   0.486   8.929  12.981
19550PP      PP29654   5.717   3.020   4.565
19551PP      PP29655   2.545   3.763   1.058
19552PP      PP29656   6.089  13.787  10.570
19553PP      PP29657   3.919   6.462  12.653
19554PP      PP29658   2.798  11.382  11.838
19555PP      PP29659   7.526   7.254   9.286
19556PP      PP29660   3.403   0.344   0.307
19557PP      PP29661  12.970   4.834   0.727
19558PP      PP29662  13.878   7.137  10.522
19559PP      PP29663   8.284   1.365   9.969
19560PP      PP29664   1.262   5.817   1.299
19561PP      PP29665   9.485   4.874   9.606
19562PP      PP29666   8.086   6.942   9.659
19563PP      PP29667  15.631  11.477   1.112
19564PP      PP29668  15.340   8.659   9.288
19565PP      PP29669   5.986  13.461   9.039
19566PP      PP29670   5.076  14.488   1.951
19567PP      PP29671   8.435  14.036   3.072
19568PP      PP29672   3.875   1.647   3.945
19569PP      PP29673   7.579  12.524   4.638
19570PP      PP29674   9.245   0.192  12.528
19571PP      PP29675   8.790   5.620   8.273
19572PP      PP29676   6.291   2.264  10.409
19573PP      PP29677   0.659  14.320   3.750
19574PP      PP29678   6.253  11.568   3.376
19575PP      PP29679   4.831  11.899  12.924
19576PP      PP29680  15.501   5.390  13.099
19577PP      PP29681   9.381   4.768  10.122
19578PP      PP29682  13.456   2.266   0.049
19579PP      PP29683   6.380   8.221   8.868
19580PP      PP29684  12.701   9.523   2.308
19581PP      PP29685   1.988  15.191   2.050
19582PP      PP29686  13.104   4.980  10.045
19583PP      PP29687   5.182   8.715  12.439
19584PP      PP29688  13.933   2.852   2.803
19585PP      PP29689  13.676   5.390   4.776
19586PP      PP29690  10.502   6.612   0.597
19587PP      PP29691   2.549  13.471  11.488
19588PP      PP29692   3.146   1.400   1.960
19589PP      PP29693   1.903  11.134  11.830
19590PP      PP29694   5.518  10.954   2.384
19591PP      PP29695  14.096   6.114  11.252
19592PP      PP29696   2.626  14.445   4.233
19593PP      PP29697  15.784   3.500  12.442
19594PP      PP29698   1.428   3.181  10.905
19595PP      PP29699  15.726   5.823   8.949
19596PP      PP29700  11.936  10.458  13.513
19597PP      PP29701   1.906  13.654  10.612
19598PP      PP29702   9.829   6.639   4.001
19599PP      PP29703  13.696  14.097   1.027
19600PP      PP29704   8.490   6.311  12.457
19601PP      PP29705  12.446   2.201   4.061
19602PP      PP29706   4.691  14.345  12.876
19603PP      PP29707  13.940   4.685   8.359
19604PP      PP29708  15.044   1.704   8.609
19605PP      PP29709   4.029   9.453  12.037
19606PP      PP29710   6.521  11.054   2.953
19607PP      PP29711   9.506  11.781   2.390
19608PP      PP29712  11.391   7.476   0.575
19609PP      PP29713   1.644  12.802   0.996
19610PP      PP29714   4.970   1.903   0.197
19611PP      PP29715  10.130   6.667   3.575
19612PP      PP29716   6.945   5.383   1.771
19613PP      PP29717   6.707  14.958   3.549
19614PP      PP29718   5.759   0.146  11.909
19615PP      PP29719   5.633   3.118  11.197
19616PP      PP29720  13.558   6.452   0.991
19617PP      PP29721   2.991   6.610  10.242
19618PP      PP29722   1.553   9.395   0.087
19619PP      PP29723   3.071  14.466  11.231
19620PP      PP29724   7.068   6.929   9.333
19621PP      PP29725   6.959   8.007   2.111
19622PP      PP29726  15.349  14.227   0.873
19623PP      PP29727   0.914   8.528  11.295
19624PP      PP29728   3.960  15.011   3.940
19625PP      PP29729   2.155   3.058   4.400
19626PP      PP29730  14.497   5.267  12.137
19627PP      PP29731  11.887  14.538   2.268
19628PP      PP29732   5.838   7.965  11.691
19629PP      PP29733  10.883   3.749   9.406
19630PP      PP29734   5.042  11.429   8.148
19631PP      PP29735   3.486   5.079  12.500
19632PP      PP29736  10.316  10.401  10.729
19633PP      PP29737   4.682   0.233   1.790
19634PP      PP29738   4.324   7.149  10.465
19635PP      PP29739   8.494   0.600   2.605
19636PP      PP29740   2.232   6.021   0.195
19637PP      PP29741   3.113  15.324  12.444
19638PP      PP29742  10.487   7.805   3.784
19639PP      PP29743  15.825  10.742   9.072
19640PP      PP29744   2.620  11.621   9.824
19641PP      PP29745  13.626   1.711  10.212
19642PP      PP29746   5.090   0.554   3.455
19643PP      PP29747  11.995   2.496  11.752
19644PP      PP29748   2.091   1.048  11.012
19645PP      PP29749   1.397  15.782  13.153
19646PP      PP29750   2.742  15.189   9.434
19647PP      PP29751  12.074   0.136   1.842
19648PP      PP29752   7.130  14.808   2.388
19649PP      PP29753   1.284   3.759   0.043
19650PP      PP29754   4.437   8.739  12.794
19651PP      PP29755  12.966   4.942   9.504
19652PP      PP29756   8.069   5.382  11.122
19653PP      PP29757   0.090  12.517   1.879
19654PP      PP29758   8.110   7.124   1.655
19655PP      PP29759   9.085   1.437   9.529
19656PP      PP29760  13.844  14.506  11.827
19657PP      PP29761   0.927   1.315  13.298
19658PP      PP29762  10.640   7.861  10.352
19659PP      PP29763  13.128   6.791   9.424
19660PP      PP29764   2.148   6.194  11.249
19661PP      PP29765   2.974  10.857  10.710
19662PP      PP29766   4.710   2.430  11.536
19663PP      PP29767   9.011  13.098   1.033
19664PP      PP29768   6.262   1.985   9.971
19665PP      PP29769   9.931  13.169  12.605
19666PP      PP29770   6.823   1.760   9.114
19667PP      PP29771   2.065   4.262   0.027
19668PP      PP29772  10.933   3.199  10.840
19669PP      PP29773  12.094  12.368   3.218
19670PP      PP29774  11.470   0.317   2.515
19671PP      PP29775   2.555  13.951   9.954
19672PP      PP29776  12.944   3.077   2.550
19673PP      PP29777  10.353   4.491   2.551
19674PP      PP29778  10.114  14.502  11.804
19675PP      PP29779   0.670   6.755  10.228
19676PP      PP29780   9.715   5.632   8.782
19677PP      PP29781   3.201   3.785  10.004
19678PP      PP29782   0.388  12.078   3.148
19679PP      PP29783   0.972   9.992  12.796
19680PP      PP29784  11.695   8.647   0.876
19681PP      PP29785  12.177  10.846   0.829
19682PP      PP29786  11.109   2.501  13.052
19683PP      PP29787   5.657  14.592  10.110
19684PP      PP29788   9.934   3.751   4.606
19685PP      PP29789   3.219  13.306   0.326
19686PP      PP29790   8.602   0.310   9.812
19687PP      PP29791   2.100  10.316  11.563
19688PP      PP29792   8.814   3.958   1.793
19689PP      PP29793  14.067   8.407   8.786
19690PP      PP29794   6.319   9.566   8.779
19691PP      PP29795   6.628   5.081  10.712
19692PP      PP29796   6.608  11.573  12.957
19693PP      PP29797  15.500   8.536   1.529
19694PP      PP29798   1.371   4.877   4.032
19695PP      PP29799   7.252   7.931   3.232
19696PP      PP29800   1.810   4.117   3.358
19697PP      PP29801   7.663   5.627  10.839
19698PP      PP29802   3.667   7.249   8.652
19699PP      PP29803  12.892   4.259   3.170
19700PP      PP29804   6.877   7.502  12.842
19701PP      PP29805   9.031  11.460  11.348
19702PP      PP29806   3.633   9.953   9.359
19703PP      PP29807   2.026  11.625   4.808
19704PP      PP29808   2.024   2.022   1.932
19705PP      PP29809  13.079   5.359   9.034
19706PP      PP29810  11.984   0.494  10.315
19707PP      PP29811  15.060   0.399  10.328
19708PP      PP29812   5.653   2.324   1.412
19709PP      PP29813  10.529   1.799  10.127
19710PP      PP29814  10.559  13.097   4.297
19711PP      PP29815   5.695  15.585  13.149
19712PP      PP29816   0.458  15.798   1.854
19713PP      PP29817   9.877   0.938   0.994
19714PP      PP29818   2.646   9.602  11.505
19715PP      PP29819   7.675   5.190   8.772
19716PP      PP29820   0.152   6.888  12.780
19717PP      PP29821   8.965  14.096  10.037
19718PP      PP29822   1.263  14.875   9.702
19719PP      PP29823   8.535   2.525   9.585
19720PP      PP29824   4.974   0.613   4.677
19721PP      PP29825   6.323  11.697   9.001
19722PP      PP29826  14.480   8.104   8.763
19723PP      PP29827  14.867   4.886  12.144
19724PP      PP29828   0.456   4.392  12.673
19725PP      PP29829   4.153   8.766   8.931
19726PP      PP29830   1.844   0.500   0.291
19727PP      PP29831   8.254  12.241   1.592
19728PP      PP29832  12.118  15.624   2.406
19729PP      PP29833   4.398   7.167  12.840
19730PP      PP29834   3.177   6.211  10.526
19731PP      PP29835   6.093   0.185   3.894
19732PP      PP29836   9.236  11.942  11.199
19733PP      PP29837   6.093   4.017  13.043
19734PP      PP29838  10.978  14.664   4.138
19735PP      PP29839   5.004   3.898  11.118
19736PP      PP29840  14.182   0.545  13.241
19737PP      PP29841  12.878   2.559  11.381
19738PP      PP29842   5.452   9.398  13.574
19739PP      PP29843   5.112   7.842  10.587
19740PP      PP29844  12.501   4.334  10.412
19741PP      PP29845   7.612   4.310  12.862
19742PP      PP29846   0.336   3.639   9.764
19743PP      PP29847   8.505  12.927   4.179
19744PP      PP29848   6.982  11.958  10.498
19745PP      PP29849   1.981  12.444   3.125
19746PP      PP29850  15.806   8.083  10.075
19747PP      PP29851  10.197  12.375  13.468
19748PP      PP29852  15.499   4.242  12.713
19749PP      PP29853   8.259  12.678   5.029
19750PP      PP29854   4.033   0.972  11.508
19751PP      PP29855   0.690   3.057   9.551
19752PP      PP29856   6.093   2.471   3.773
19753PP      PP29857  15.387   5.461  12.564
19754PP      PP29858   0.227  15.070   4.434
19755PP      PP29859  14.572  11.579   2.289
19756PP      PP29860   6.157   9.992  12.131
19757PP      PP29861  10.471  11.862   4.454
19758PP      PP29862   0.169   1.401   0.119
19759PP      PP29863  15.688   6.706  12.392
19760PP      PP29864   5.816   0.648  11.095
19761PP      PP29865  10.696   3.727   9.893
19762PP      PP29866   0.293   3.539   3.406
19763PP      PP29867   7.555   7.093  11.857
19764PP      PP29868  13.744  13.355   1.844
19765PP      PP29869  14.088   2.976  11.894
19766PP      PP29870  15.691   1.383  10.124
19767PP      PP29871   7.905  13.809  13.162
19768PP      PP29872   2.881  15.346  11.566
19769PP      PP29873   8.730  12.939   3.108
19770PP      PP29874   1.246  10.641  11.509
19771PP      PP29875   1.360   2.052  13.078
19772PP      PP29876   5.089   6.913   3.371
19773PP      PP29877  13.678  14.233  11.392
19774PP      PP29878  11.335  10.584   3.266
19775PP      PP29879   6.595   3.135   1.282
19776CNL    PA129880  10.579  10.942   5.306
19776CNL    PA229881  10.739  11.148   5.471
19776CNL    PA329882  10.622  11.162   5.227
19776CNL    PA429883  10.511  11.210   5.407
19777CNL    PA129884   1.082   9.540  10.790
19777CNL    PA229885   0.838   9.610  10.609
19777CNL    PA329886   0.874   9.616  10.878
19777CNL    PA429887   0.921   9.783  10.751
19778CNL    PA129888   8.724   9.843   1.560
19778CNL    PA229889   8.652  10.030   1.797
19778CNL    PA329890   8.881   9.910   1.725
19778CNL    PA429891   8.829  10.105   1.647
19779CNL    PA129892  10.638   5.604   5.794
19779CNL    PA229893  10.520   5.568   5.511
19779CNL    PA329894  10.712   5.730   5.607
19779CNL    PA429895  10.759   5.532   5.534
19780CNL    PA129896   9.470   4.368   6.628
19780CNL    PA229897   9.196   4.396   6.485
19780CNL    PA329898   9.300   4.204   6.643
19780CNL    PA429899   9.191   4.369   6.721
19781CNL    PA129900   2.127   8.563   8.508
19781CNL    PA229901   2.179   8.691   8.229
19781CNL    PA329902   2.206   8.785   8.481
19781CNL    PA429903   2.364   8.683   8.380
19782CNL    PA129904   1.474   2.033   7.728
19782CNL    PA229905   1.686   1.827   7.626
19782CNL    PA329906   1.639   1.940   7.865
19782CNL    PA429907   1.546   1.755   7.804
19783CNL    PA129908  14.772   6.490   9.384
19783CNL    PA229909  14.561   6.326   9.546
19783CNL    PA329910  14.640   6.587   9.557
19783CNL    PA429911  14.481   6.522   9.425
19784CNL    PA129912  10.365  10.397   4.449
19784CNL    PA229913  10.578  10.619   4.486
19784CNL    PA329914  10.362  10.541   4.636
19784CNL    PA429915  10.558  10.453   4.659
19785CNL    PA129916  11.700  12.987   6.880
19785CNL    PA229917  11.690  13.289   6.958
19785CNL    PA329918  11.595  13.068   7.077
19785CNL    PA429919  11.797  13.136   7.114
19786CNL    PA129920   5.831   0.998   9.372
19786CNL    PA229921   5.847   0.960   9.062
19786CNL    PA329922   5.637   0.982   9.234
19786CNL    PA429923   5.729   1.156   9.144
19787CNL    PA129924  12.597   3.606  12.003
19787CNL    PA229925  12.803   3.558  11.774
19787CNL    PA329926  12.536   3.584  11.775
19787CNL    PA429927  12.667   3.757  11.757
19788CNL    PA129928  15.396   2.401   2.819
19788CNL    PA229929  15.323   2.109   2.899
19788CNL    PA329930  15.541   2.216   2.783
19788CNL    PA429931  15.522   2.200   2.998
19789CNL    PA129932   0.644   4.287   5.179
19789CNL    PA229933   0.560   3.987   5.179
19789CNL    PA329934   0.564   4.177   5.374
19789CNL    PA429935   0.390   4.145   5.249
19790CNL    PA129936   5.876  10.964   7.825
19790CNL    PA229937   5.907  11.114   7.555
19790CNL    PA329938   5.898  11.196   7.813
19790CNL    PA429939   6.079  11.144   7.710
19791CNL    PA129940   7.084  14.363   9.361
19791CNL    PA229941   7.269  14.117   9.410
19791CNL    PA329942   7.143  14.210   9.187
19791CNL    PA429943   7.342  14.271   9.244
19792CNL    PA129944   1.689   6.137   4.311
19792CNL    PA229945   1.789   5.851   4.372
19792CNL    PA329946   1.656   6.032   4.522
19792CNL    PA429947   1.551   5.888   4.399
19793CNL    PA129948  14.886  14.046   7.970
19793CNL    PA229949  14.597  14.164   7.949
19793CNL    PA329950  14.796  14.127   7.766
19793CNL    PA429951  14.650  13.974   7.812
19794CNL    PA129952  13.618   5.889   4.653
19794CNL    PA229953  13.838   6.026   4.480
19794CNL    PA329954  13.659   6.123   4.661
19794CNL    PA429955  13.852   6.048   4.721
19795CNL    PA129956  11.583   9.098   5.202
19795CNL    PA229957  11.409   9.282   5.020
19795CNL    PA329958  11.473   9.290   5.282
19795CNL    PA429959  11.598   9.386   5.134
19796CNL    PA129960  12.173   6.093   2.385
19796CNL    PA229961  12.073   6.235   2.644
19796CNL    PA329962  11.951   6.073   2.465
19796CNL    PA429963  12.056   5.992   2.636
19797CNL    PA129964   6.608  11.062  10.745
19797CNL    PA229965   6.432  10.936  10.525
19797CNL    PA329966   6.428  10.913  10.796
19797CNL    PA429967   6.319  11.069  10.691
19798CNL    PA129968  14.991   0.346   8.866
19798CNL    PA229969  14.762   0.153   8.788
19798CNL    PA329970  14.937   0.296   8.641
19798CNL    PA429971  14.980   0.095   8.708
19799CNL    PA129972   7.179   2.462   0.799
19799CNL    PA229973   6.985   2.589   1.005
19799CNL    PA329974   6.947   2.489   0.755
19799CNL    PA429975   6.936   2.363   0.933
19800CNL    PA129976  11.138   8.892   5.180
19800CNL    PA229977  11.049   8.686   5.391
19800CNL    PA329978  11.185   8.921   5.411
19800CNL    PA429979  10.969   8.912   5.418
19801CNL    PA129980  15.709   1.403   7.317
19801CNL    PA229981  15.507   1.225   7.473
19801CNL    PA329982  15.775   1.269   7.501
19801CNL    PA429983  15.629   1.391   7.598
19802CNL    PA129984  11.269  13.840   6.059
19802CNL    PA229985  11.154  13.701   5.810
19802CNL    PA329986  11.407  13.717   5.910
19802CNL    PA429987  11.272  13.559   5.973
19803CNL    PA129988   3.834   8.944   0.729
19803CNL    PA229989   3.616   8.803   0.556
19803CNL    PA329990   3.689   8.775   0.817
19803CNL    PA429991   3.541   8.919   0.753
19804CNL    PA129992   2.212   7.606   6.828
19804CNL    PA229993   2.234   7.881   6.683
19804CNL    PA329994   2.325   7.633   6.622
19804CNL    PA429995   2.127   7.706   6.562
19805CNL    PA129996   8.050  13.144   9.638
19805CNL    PA229997   7.904  13.139   9.363
19805CNL    PA329998   8.163  13.176   9.434
19805CNL    PA429999   8.083  12.982   9.393
19806CNL    PA130000  12.359  15.593   5.768
19806CNL    PA230001  12.498  15.627   5.492
19806CNL    PA330002  12.273  15.734   5.596
19806CNL    PA430003  12.468  15.825   5.617
19807CNL    PA130004   0.014  15.770   7.241
19807CNL    PA230005   0.066  15.607   6.987
19807CNL    PA330006  15.810  15.533   7.233
19807CNL    PA430007  15.673  15.595   7.077
19808CNL    PA130008  15.280  11.813   8.776
19808CNL    PA230009  15.331  12.117   8.815
19808CNL    PA330010  15.295  11.967   8.596
19808CNL    PA430011  15.130  12.057   8.698
19809CNL    PA130012   5.381   5.025   4.489
19809CNL    PA230013   5.634   5.207   4.471
19809CNL    PA330014   5.600   4.939   4.472
19809CNL    PA430015   5.595   5.051   4.287
19810CNL    PA130016   0.790  13.094  11.498
19810CNL    PA230017   0.572  12.877  11.562
19810CNL    PA330018   0.596  13.064  11.366
19810CNL    PA430019   0.677  12.866  11.344
19811CNL    PA130020   0.688   3.450   4.900
19811CNL    PA230021   0.485   3.345   5.117
19811CNL    PA330022   0.629   3.222   4.926
19811CNL    PA430023   0.706   3.255   5.125
19812CNL    PA130024   8.415  12.406   6.671
19812CNL    PA230025   8.325  12.110   6.671
19812CNL    PA330026   8.547  12.233   6.576
19812CNL    PA430027   8.535  12.157   6.777
19813CNL    PA130028  10.443  11.671   7.921
19813CNL    PA230029  10.389  11.963   8.010
19813CNL    PA330030  10.396  11.841   7.768
19813CNL    PA430031  10.213  11.852   7.883
19814CNL    PA130032   5.924  15.548   4.678
19814CNL    PA230033   6.124  15.786   4.700
19814CNL    PA330034   6.110  15.546   4.826
19814CNL    PA430035   6.217  15.570   4.641
19815CNL    PA130036   7.392   4.876   1.815
19815CNL    PA230037   7.416   5.186   1.829
19815CNL    PA330038   7.300   5.005   1.994
19815CNL    PA430039   7.509   5.058   2.015
19816CNL    PA130040  13.784   1.156   7.754
19816CNL    PA230041  13.992   1.386   7.737
19816CNL    PA330042  13.913   1.196   7.558
19816CNL    PA430043  13.811   1.387   7.573
19817CNL    PA130044   7.461   7.754   5.764
19817CNL    PA230045   7.351   8.043   5.766
19817CNL    PA330046   7.231   7.804   5.804
19817CNL    PA430047   7.319   7.913   5.969
19818CNL    PA130048   4.809  10.534   7.747
19818CNL    PA230049   4.889  10.743   7.964
19818CNL    PA330050   5.029  10.623   7.765
19818CNL    PA430051   4.920  10.808   7.736
19819CNL    PA130052   7.548   2.926   6.364
19819CNL    PA230053   7.423   3.011   6.633
19819CNL    PA330054   7.487   2.768   6.532
19819CNL    PA430055   7.630   2.886   6.640
19820CNL    PA130056   3.854  15.317   7.003
19820CNL    PA230057   3.684  15.125   6.822
19820CNL    PA330058   3.654  15.386   6.897
19820CNL    PA430059   3.765  15.325   6.727
19821CNL    PA130060   5.405   9.999   3.298
19821CNL    PA230061   5.215   9.949   3.542
19821CNL    PA330062   5.481   9.906   3.502
19821CNL    PA430063   5.406  10.095   3.577
19822CNL    PA130064   2.288  14.582   5.770
19822CNL    PA230065   2.545  14.760   5.767
19822CNL    PA330066   2.285  14.810   5.703
19822CNL    PA430067   2.359  14.835   5.905
19823CNL    PA130068   6.687   9.016   8.035
19823CNL    PA230069   6.604   9.044   8.335
19823CNL    PA330070   6.735   8.851   8.200
19823CNL    PA430071   6.835   9.021   8.291
19824CNL    PA130072   7.525   4.217   6.305
19824CNL    PA230073   7.246   4.125   6.206
19824CNL    PA330074   7.331   4.236   6.437
19824CNL    PA430075   7.267   4.357   6.270
19825CNL    PA130076   0.848  12.185   8.378
19825CNL    PA230077   0.562  12.119   8.270
19825CNL    PA330078   0.681  12.352   8.344
19825CNL    PA430079   0.692  12.273   8.144
19826CNL    PA130080   3.990  11.442   5.579
19826CNL    PA230081   3.983  11.172   5.733
19826CNL    PA330082   3.913  11.243   5.482
19826CNL    PA430083   4.114  11.177   5.530
19827CNL    PA130084  10.693   8.093   6.448
19827CNL    PA230085  10.540   8.206   6.692
19827CNL    PA330086  10.532   7.967   6.566
19827CNL    PA430087  10.673   8.005   6.727
19828CNL    PA130088   5.103   7.886   5.564
19828CNL    PA230089   5.180   7.693   5.792
19828CNL    PA330090   4.953   7.723   5.645
19828CNL    PA430091   5.114   7.593   5.580
19829CNL    PA130092   4.761   7.697   5.260
19829CNL    PA230093   4.673   7.399   5.257
19829CNL    PA330094   4.918   7.519   5.241
19829CNL    PA430095   4.827   7.465   5.430
19830CNL    PA130096   1.697   8.458  13.408
19830CNL    PA230097   1.874   8.205  13.456
19830CNL    PA330098   1.652   8.301  13.577
19830CNL    PA430099   1.639   8.169  13.408
19831CNL    PA130100   0.848  11.070   8.209
19831CNL    PA230101   1.032  10.831   8.120
19831CNL    PA330102   0.915  11.035   7.983
19831CNL    PA430103   1.108  11.056   8.073
19832CNL    PA130104   8.640   9.603   5.012
19832CNL    PA230105   8.602   9.901   4.930
19832CNL    PA330106   8.823   9.749   4.973
19832CNL    PA430107   8.730   9.761   4.778
19833CNL    PA130108   7.493  10.963   5.750
19833CNL    PA230109   7.187  10.982   5.708
19833CNL    PA330110   7.343  10.805   5.844
19833CNL    PA430111   7.270  10.987   5.938
19834CNL    PA130112  10.146  14.797   7.982
19834CNL    PA230113  10.073  14.594   8.210
19834CNL    PA330114  10.122  14.566   7.945
19834CNL    PA430115  10.279  14.558   8.091
19835CNL    PA130116   4.078   7.350   6.221
19835CNL    PA230117   3.789   7.230   6.223
19835CNL    PA330118   3.905   7.430   6.079
19835CNL    PA430119   3.909   7.225   6.013
19836CNL    PA130120   8.283   7.830   5.590
19836CNL    PA230121   8.350   8.105   5.717
19836CNL    PA330122   8.446   7.976   5.503
19836CNL    PA430123   8.275   8.109   5.490
19837CNL    PA130124  11.911  14.308   0.636
19837CNL    PA230125  11.682  14.293   0.848
19837CNL    PA330126  11.767  14.122   0.655
19837CNL    PA430127  11.850  14.119   0.855
19838CNL    PA130128   9.939   0.249   9.061
19838CNL    PA230129  10.139   0.055   8.915
19838CNL    PA330130  10.105   0.127   9.176
19838CNL    PA430131  10.002  15.790   9.087
19839CNL    PA130132   5.816  10.571  13.178
19839CNL    PA230133   5.813  10.465  13.471
19839CNL    PA330134   5.892  10.354  13.235
19839CNL    PA430135   6.027  10.470  13.359
19840CNL    PA130136   7.238   7.959   8.085
19840CNL    PA230137   7.442   8.093   7.897
19840CNL    PA330138   7.324   7.850   7.890
19840CNL    PA430139   7.235   8.025   7.797
19841CNL    PA130140  15.243   9.393   5.714
19841CNL    PA230141  15.018   9.600   5.761
19841CNL    PA330142  15.016   9.329   5.757
19841CNL    PA430143  15.055   9.439   5.940
19842CNL    PA130144  10.786  10.459   5.578
19842CNL    PA230145  10.736  10.328   5.307
19842CNL    PA330146  10.587  10.498   5.455
19842CNL    PA430147  10.732  10.566   5.310
19843CNL    PA130148  10.964   5.681   5.090
19843CNL    PA230149  11.254   5.625   5.003
19843CNL    PA330150  11.017   5.588   4.876
19843CNL    PA430151  11.123   5.775   4.861
19844CNL    PA130152   7.285   7.841   4.601
19844CNL    PA230153   7.298   7.553   4.480
19844CNL    PA330154   7.437   7.675   4.679
19844CNL    PA430155   7.252   7.569   4.713
19845CNL    PA130156   2.333  12.209  11.729
19845CNL    PA230157   2.234  12.224  11.433
19845CNL    PA330158   2.428  12.357  11.569
19845CNL    PA430159   2.466  12.169  11.469
19846CNL    PA130160  14.747  15.764   7.508
19846CNL    PA230161  14.971   0.060   7.680
19846CNL    PA330162  14.973  15.789   7.430
19846CNL    PA430163  14.932   0.166   7.471
19847CNL    PA130164  11.987   7.951   6.311
19847CNL    PA230165  11.895   8.109   6.061
19847CNL    PA330166  11.798   8.090   6.312
19847CNL    PA430167  11.946   8.239   6.261
19848CNL    PA130168   4.024   0.750   8.364
19848CNL    PA230169   4.025   0.441   8.373
19848CNL    PA330170   4.221   0.621   8.324
19848CNL    PA430171   4.174   0.556   8.525
19849CNL    PA130172   5.391   9.790   6.050
19849CNL    PA230173   5.609   9.858   6.255
19849CNL    PA330174   5.385   9.707   6.273
19849CNL    PA430175   5.574   9.622   6.208
19850CNL    PA130176   4.870  14.748   3.508
19850CNL    PA230177   4.762  14.508   3.339
19850CNL    PA330178   4.671  14.761   3.379
19850CNL    PA430179   4.809  14.713   3.220
19851CNL    PA130180   4.076   6.253   9.574
19851CNL    PA230181   4.235   6.379   9.336
19851CNL    PA330182   3.972   6.332   9.378
19851CNL    PA430183   4.065   6.517   9.440
19852CNL    PA130184   1.207   2.671   4.777
19852CNL    PA230185   1.315   2.905   4.949
19852CNL    PA330186   1.437   2.723   4.788
19852CNL    PA430187   1.359   2.912   4.713
19853CNL    PA130188   0.929  14.128   7.811
19853CNL    PA230189   1.110  13.915   7.946
19853CNL    PA330190   0.872  14.024   8.017
19853CNL    PA430191   0.886  13.850   7.892
19854CNL    PA130192   0.770  11.718   8.560
19854CNL    PA230193   1.061  11.622   8.512
19854CNL    PA330194   0.827  11.577   8.378
19854CNL    PA430195   0.953  11.748   8.333
19855CNL    PA130196  10.174   1.117   5.534
19855CNL    PA230197   9.952   1.191   5.327
19855CNL    PA330198  10.222   1.172   5.307
19855CNL    PA430199  10.092   1.000   5.275
19856OST    PA130200  11.515   4.637   8.541
19856OST    PA230201  11.558   4.297   8.435
19856OST    PA330202  11.265   4.309   8.395
19856OST    PA430203  11.562   4.102   8.483
19856OST    PA530204  11.855   4.108   8.600
19856OST    PA630205  11.894   4.335   8.558
19857OST    PA130206   6.752   4.706   2.989
19857OST    PA230207   6.987   4.482   2.838
19857OST    PA330208   7.204   4.664   2.925
19857OST    PA430209   7.074   4.430   2.666
19857OST    PA530210   6.828   4.256   2.566
19857OST    PA630211   6.692   4.292   2.757
19858OST    PA130212   4.246   2.928  12.324
19858OST    PA230213   4.013   3.119  12.134
19858OST    PA330214   4.166   3.005  11.908
19858OST    PA430215   3.992   3.299  12.054
19858OST    PA530216   3.884   3.431  12.320
19858OST    PA630217   3.890   3.235  12.452
19859OST    PA130218  13.585  15.403   3.344
19859OST    PA230219  13.332  15.612   3.208
19859OST    PA330220  13.127  15.402   3.244
19859OST    PA430221  13.211  15.767   3.245
19859OST    PA530222  13.433   0.150   3.155
19859OST    PA630223  13.601  15.821   3.104
19860OST    PA130224   4.287  13.866   3.587
19860OST    PA230225   4.032  14.052   3.417
19860OST    PA330226   4.013  13.849   3.204
19860OST    PA430227   3.993  14.207   3.299
19860OST    PA530228   4.001  14.423   3.532
19860OST    PA630229   4.046  14.266   3.705
19861OST    PA130230  13.840   0.324   2.154
19861OST    PA230231  13.733   0.578   2.385
19861OST    PA330232  13.917   0.736   2.216
19861OST    PA430233  13.753   0.696   2.547
19861OST    PA530234  13.710   0.468   2.759
19861OST    PA630235  13.678   0.295   2.602
19862OST    PA130236   8.076  11.980  12.030
19862OST    PA230237   8.157  11.687  12.215
19862OST    PA330238   8.090  11.538  11.970
19862OST    PA430239   8.300  11.561  12.278
19862OST    PA530240   8.279  11.668  12.578
19862OST    PA630241   8.108  11.831  12.537
19863OST    PA130242  10.738   1.813   9.130
19863OST    PA230243  10.425   1.900   9.281
19863OST    PA330244  10.361   1.614   9.287
19863OST    PA430245  10.235   1.964   9.281
19863OST    PA530246  10.317   2.270   9.284
19863OST    PA630247  10.553   2.233   9.287
19864OST    PA130248  11.248   5.794  11.584
19864OST    PA230249  11.217   6.006  11.297
19864OST    PA330250  11.493   5.960  11.199
19864OST    PA430251  11.202   6.192  11.232
19864OST    PA530252  10.884   6.186  11.239
19864OST    PA630253  10.863   5.960  11.315
19865OST    PA130254   0.955   1.381   1.308
19865OST    PA230255   1.155   1.188   1.529
19865OST    PA330256   0.897   1.119   1.647
19865OST    PA430257   1.230   1.004   1.536
19865OST    PA530258   1.492   1.093   1.381
19865OST    PA630259   1.435   1.321   1.351
19866OST    PA130260  13.575   8.158   8.806
19866OST    PA230261  13.236   8.059   8.847
19866OST    PA330262  13.213   7.838   8.652
19866OST    PA430263  13.112   7.980   8.983
19866OST    PA530264  13.033   8.269   9.097
19866OST    PA630265  13.173   8.394   8.950
19867OST    PA130266   8.296   0.349   3.494
19867OST    PA230267   8.367   0.455   3.828
19867OST    PA330268   8.107   0.320   3.874
19867OST    PA430269   8.362   0.562   3.996
19867OST    PA530270   8.530   0.806   3.884
19867OST    PA630271   8.563   0.712   3.671
19868OST    PA130272   2.199   1.450   0.111
19868OST    PA230273   2.183   1.673   0.389
19868OST    PA330274   2.425   1.831   0.325
19868OST    PA430275   2.207   1.680   0.588
19868OST    PA530276   1.914   1.572   0.642
19868OST    PA630277   1.847   1.553   0.416
19869OST    PA130278   0.704  13.053  11.994
19869OST    PA230279   0.348  13.042  11.961
19869OST    PA330280   0.380  12.747  11.982
19869OST    PA430281   0.178  13.051  12.065
19869OST    PA530282   0.183  13.366  12.104
19869OST    PA630283   0.387  13.398  11.989
19870OST    PA130284   7.033  10.100  12.561
19870OST    PA230285   7.378  10.041  12.628
19870OST    PA330286   7.386  10.335  12.663
19870OST    PA430287   7.505   9.999  12.778
19870OST    PA530288   7.445   9.687  12.753
19870OST    PA630289   7.286   9.700  12.576
19871OST    PA130290   7.075   1.151  13.148
19871OST    PA230291   6.888   1.136  13.454
19871OST    PA330292   6.969   1.420  13.455
19871OST    PA430293   6.717   1.164  13.552
19871OST    PA530294   6.594   0.882  13.476
19871OST    PA630295   6.781   0.811  13.346
19872OST    PA130296   5.950  11.190   2.050
19872OST    PA230297   5.596  11.219   2.004
19872OST    PA330298   5.515  10.938   1.951
19872OST    PA430299   5.444  11.302   1.904
19872OST    PA530300   5.457  11.576   2.065
19872OST    PA630301   5.634  11.513   2.204
19873OST    PA130302   0.434   7.267   2.832
19873OST    PA230303   0.603   7.339   2.524
19873OST    PA330304   0.843   7.253   2.676
19873OST    PA430305   0.701   7.461   2.400
19873OST    PA530306   0.433   7.580   2.273
19873OST    PA630307   0.286   7.447   2.405
19874OST    PA130308   4.293  14.803   3.576
19874OST    PA230309   4.497  14.541   3.711
19874OST    PA330310   4.593  14.764   3.882
19874OST    PA430311   4.641  14.412   3.764
19874OST    PA530312   4.565  14.209   3.530
19874OST    PA630313   4.385  14.337   3.442
19875OST    PA130314   5.326  12.346   4.264
19875OST    PA230315   5.375  12.623   4.486
19875OST    PA330316   5.320  12.767   4.234
19875OST    PA430317   5.288  12.761   4.608
19875OST    PA530318   5.264  12.566   4.856
19875OST    PA630319   5.360  12.378   4.747
19876OST    PA130320  15.037   9.748  10.380
19876OST    PA230321  14.913  10.004  10.597
19876OST    PA330322  14.650   9.875  10.560
19876OST    PA430323  14.878  10.066  10.785
19876OST    PA530324  15.169  10.191  10.820
19876OST    PA630325  15.248  10.131  10.604
19877OST    PA130326  10.652   6.025   0.765
19877OST    PA230327  10.836   5.758   0.612
19877OST    PA330328  10.875   5.649   0.882
19877OST    PA430329  11.012   5.694   0.538
19877OST    PA530330  10.916   5.748   0.237
19877OST    PA630331  10.698   5.828   0.291
19878OST    PA130332  10.611  14.727   4.892
19878OST    PA230333  10.482  14.447   4.709
19878OST    PA330334  10.683  14.552   4.518
19878OST    PA430335  10.360  14.370   4.569
19878OST    PA530336  10.097  14.374   4.747
19878OST    PA630337  10.205  14.463   4.936
19879OST    PA130338  11.537   1.770  12.806
19879OST    PA230339  11.277   1.658  12.588
19879OST    PA330340  11.120   1.607  12.835
19879OST    PA430341  11.120   1.724  12.480
19879OST    PA530342  11.292   1.805  12.226
19879OST    PA630343  11.500   1.741  12.321
19880OST    PA130344  12.720   8.685  12.786
19880OST    PA230345  12.945   8.583  13.045
19880OST    PA330346  12.929   8.325  12.899
19880OST    PA430347  13.130   8.555  13.117
19880OST    PA530348  13.151   8.857  13.220
19880OST    PA630349  12.937   8.925  13.144
19881OST    PA130350   6.810   7.067   2.988
19881OST    PA230351   6.967   7.318   3.194
19881OST    PA330352   7.013   7.184   3.453
19881OST    PA430353   7.125   7.445   3.210
19881OST    PA530354   7.014   7.651   2.994
19881OST    PA630355   6.817   7.528   2.945
19882OST    PA130356   6.259   5.594   3.140
19882OST    PA230357   5.979   5.414   3.011
19882OST    PA330358   6.030   5.166   3.165
19882OST    PA430359   5.904   5.323   2.851
19882OST    PA530360   5.789   5.589   2.720
19882OST    PA630361   5.861   5.732   2.895
19883OST    PA130362   2.646   1.368   0.686
19883OST    PA230363   2.618   1.492   0.352
19883OST    PA330364   2.497   1.221   0.325
19883OST    PA430365   2.677   1.505   0.160
19883OST    PA530366   2.924   1.694   0.213
19883OST    PA630367   2.888   1.707   0.448
19884OST    PA130368   1.335  14.224   3.896
19884OST    PA230369   1.685  14.166   3.858
19884OST    PA330370   1.805  14.395   3.992
19884OST    PA430371   1.839  14.038   3.893
19884OST    PA530372   1.793  13.888   3.617
19884OST    PA630373   1.608  14.017   3.545
19885OST    PA130374   3.483  11.349  11.251
19885OST    PA230375   3.539  11.027  11.105
19885OST    PA330376   3.821  11.100  11.089
19885OST    PA430377   3.559  10.849  11.008
19885OST    PA530378   3.249  10.796  11.014
19885OST    PA630379   3.185  10.995  11.130
19886OST    PA130380   7.411  12.876   9.366
19886OST    PA230381   7.213  13.083   9.580
19886OST    PA330382   7.332  13.302   9.419
19886OST    PA430383   7.032  13.166   9.594
19886OST    PA530384   6.895  12.919   9.741
19886OST    PA630385   7.093  12.787   9.741
19887OST    PA130386   7.594   1.394  13.212
19887OST    PA230387   7.462   1.287  13.527
19887OST    PA330388   7.594   1.481   0.102
19887OST    PA430389   7.290   1.279   0.024
19887OST    PA530390   7.236   0.978  13.533
19887OST    PA630391   7.432   0.954  13.401
19888OST    PA130392  10.103   7.836   3.450
19888OST    PA230393  10.053   8.146   3.279
19888OST    PA330394  10.295   8.108   3.116
19888OST    PA430395  10.064   8.345   3.285
19888OST    PA530396   9.778   8.370   3.421
19888OST    PA630397   9.728   8.140   3.429
19889OST    PA130398   0.735   9.380   9.917
19889OST    PA230399   0.905   9.390  10.233
19889OST    PA330400   0.840   9.122  10.338
19889OST    PA430401   1.087   9.403  10.320
19889OST    PA530402   1.086   9.722  10.316
19889OST    PA630403   0.872   9.743  10.211
19890OST    PA130404   2.962   8.960   8.503
19890OST    PA230405   2.724   8.694   8.520
19890OST    PA330406   2.888   8.547   8.326
19890OST    PA430407   2.651   8.532   8.612
19890OST    PA530408   2.438   8.696   8.782
19890OST    PA630409   2.501   8.910   8.696
19891OST    PA130410  14.554   1.759  11.351
19891OST    PA230411  14.646   1.433  11.468
19891OST    PA330412  14.430   1.324  11.300
19891OST    PA430413  14.609   1.314  11.627
19891OST    PA530414  14.842   1.447  11.797
19891OST    PA630415  14.916   1.599  11.632
19892OST    PA130416   9.555  12.680  10.927
19892OST    PA230417   9.879  12.818  10.974
19892OST    PA330418   9.766  13.030  11.150
19892OST    PA430419   9.990  12.939  10.867
19892OST    PA530420  10.097  12.710  10.677
19892OST    PA630421   9.980  12.532  10.782
19893OST    PA130422  11.208   0.535   1.983
19893OST    PA230423  11.235   0.774   2.248
19893OST    PA330424  11.366   0.948   2.047
19893OST    PA430425  11.335   0.847   2.406
19893OST    PA530426  11.185   0.651   2.607
19893OST    PA630427  11.047   0.543   2.446
19894OST    PA130428   6.529   7.422   0.421
19894OST    PA230429   6.488   7.722   0.228
19894OST    PA330430   6.477   7.519   0.011
19894OST    PA430431   6.574   7.864   0.116
19894OST    PA530432   6.694   8.016   0.367
19894OST    PA630433   6.606   7.871   0.531
19895OST    PA130434   8.738  12.566   2.735
19895OST    PA230435   8.826  12.226   2.804
19895OST    PA330436   9.102  12.304   2.731
19895OST    PA430437   8.881  12.091   2.943
19895OST    PA530438   8.584  12.025   3.035
19895OST    PA630439   8.480  12.178   2.885
19896OST    PA130440  10.175  10.616  12.423
19896OST    PA230441  10.187  10.928  12.598
19896OST    PA330442   9.904  10.858  12.662
19896OST    PA430443  10.221  11.029  12.769
19896OST    PA530444  10.538  11.027  12.732
19896OST    PA630445  10.539  10.905  12.529
19897OST    PA130446   9.215   4.467   0.999
19897OST    PA230447   9.517   4.298   0.912
19897OST    PA330448   9.651   4.485   1.100
19897OST    PA430449   9.663   4.296   0.779
19897OST    PA530450   9.505   4.114   0.569
19897OST    PA630451   9.311   4.091   0.705
19898OST    PA130452  13.619   7.634  11.376
19898OST    PA230453  13.859   7.835  11.546
19898OST    PA330454  13.744   8.062  11.392
19898OST    PA430455  14.040   7.916  11.570
19898OST    PA530456  14.160   7.654  11.703
19898OST    PA630457  13.963   7.525  11.695
19899OST    PA130458   2.933  10.004  11.865
19899OST    PA230459   3.085  10.070  11.548
19899OST    PA330460   2.915   9.899  11.383
19899OST    PA430461   3.126  10.202  11.403
19899OST    PA530462   3.405  10.278  11.534
19899OST    PA630463   3.388  10.135  11.720
19900OST    PA130464  12.214  11.271  10.807
19900OST    PA230465  12.501  11.060  10.818
19900OST    PA330466  12.432  10.898  10.579
19900OST    PA430467  12.566  10.907  10.927
19900OST    PA530468  12.684  11.093  11.156
19900OST    PA630469  12.625  11.299  11.054
19901OST    PA130470   3.569   2.008   0.545
19901OST    PA230471   3.865   1.852   0.671
19901OST    PA330472   3.770   1.833   0.951
19901OST    PA430473   3.993   1.698   0.685
19901OST    PA530474   4.162   1.781   0.428
19901OST    PA630475   4.030   1.973   0.378
19902OST    PA130476   9.226   7.969   9.496
19902OST    PA230477   9.286   8.313   9.427
19902OST    PA330478   8.997   8.339   9.479
19902OST    PA430479   9.339   8.486   9.513
19902OST    PA530480   9.649   8.433   9.455
19902OST    PA630481   9.619   8.221   9.349
19903OST    PA130482  13.060  10.095  12.261
19903OST    PA230483  12.982   9.839  12.022
19903OST    PA330484  13.118   9.673  12.226
19903OST    PA430485  13.012   9.711  11.868
19903OST    PA530486  12.929   9.929  11.651
19903OST    PA630487  12.882  10.103  11.804
19904OST    PA130488   3.966   5.599  12.590
19904OST    PA230489   3.979   5.856  12.840
19904OST    PA330490   3.694   5.786  12.876
19904OST    PA430491   3.955   6.052  12.870
19904OST    PA530492   4.239   6.137  12.756
19904OST    PA630493   4.307   5.913  12.707
19905OST    PA130494   8.017   0.700   3.195
19905OST    PA230495   7.831   0.996   3.264
19905OST    PA330496   7.713   0.831   3.480
19905OST    PA430497   7.842   1.164   3.370
19905OST    PA530498   7.990   1.324   3.142
19905OST    PA630499   7.999   1.145   2.986
19906OST    PA130500  11.698  12.966   7.796
19906OST    PA230501  11.663  12.804   8.113
19906OST    PA330502  11.808  12.563   8.026
19906OST    PA430503  11.730  12.801   8.301
19906OST    PA530504  11.536  13.028   8.405
19906OST    PA630505  11.433  13.062   8.191
19907OST    PA130506  11.472   7.500  12.644
19907OST    PA230507  11.169   7.349  12.755
19907OST    PA330508  11.060   7.494  12.519
19907OST    PA430509  11.037   7.200  12.749
19907OST    PA530510  11.188   7.011  12.954
19907OST    PA630511  11.368   7.162  12.989
19908OST    PA130512  14.985   0.735   8.536
19908OST    PA230513  14.671   0.566   8.556
19908OST    PA330514  14.633   0.568   8.264
19908OST    PA430515  14.523   0.435   8.595
19908OST    PA530516  14.486   0.537   8.894
19908OST    PA630517  14.657   0.703   8.887
19909OST    PA130518   7.869   7.770   4.718
19909OST    PA230519   7.775   7.454   4.584
19909OST    PA330520   7.684   7.587   4.337
19909OST    PA430521   7.635   7.314   4.585
19909OST    PA530522   7.806   7.120   4.769
19909OST    PA630523   7.994   7.260   4.789
19910OST    PA130524  13.849  10.507   9.390
19910OST    PA230525  13.931  10.716   9.665
19910OST    PA330526  13.665  10.845   9.691
19910OST    PA430527  13.992  10.759   9.848
19910OST    PA530528  14.303  10.749   9.784
19910OST    PA630529  14.270  10.694   9.555
19911OST    PA130530   9.730   9.542   4.592
19911OST    PA230531   9.882   9.839   4.462
19911OST    PA330532   9.784   9.955   4.714
19911OST    PA430533  10.048   9.956   4.448
19911OST    PA530534  10.145   9.805   4.186
19911OST    PA630535   9.965   9.648   4.172
19912OST    PA130536   4.856  13.396   0.398
19912OST    PA230537   4.888  13.544   0.075
19912OST    PA330538   4.605  13.466   0.045
19912OST    PA430539   4.935  13.520  13.488
19912OST    PA530540   5.237  13.606  13.528
19912OST    PA630541   5.221  13.647   0.155
19913OST    PA130542   9.940   2.228   3.679
19913OST    PA230543  10.213   2.452   3.735
19913OST    PA330544  10.353   2.235   3.880
19913OST    PA430545  10.283   2.602   3.851
19913OST    PA530546  10.115   2.822   3.696
19913OST    PA630547  10.016   2.677   3.541
19914OST    PA130548  12.486   0.384   0.018
19914OST    PA230549  12.672   0.086   0.084
19914OST    PA330550  12.553  15.730  13.489
19914OST    PA430551  12.695  15.780   0.227
19914OST    PA530552  12.933   0.101   0.373
19914OST    PA630553  12.938   0.282   0.219
19915OST    PA130554   9.081   8.282   8.254
19915OST    PA230555   9.041   8.051   8.524
19915OST    PA330556   8.763   8.133   8.580
19915OST    PA430557   9.012   7.855   8.552
19915OST    PA530558   9.321   7.789   8.587
19915OST    PA630559   9.394   8.015   8.555
19916OST    PA130560  12.555   7.784   8.108
19916OST    PA230561  12.517   8.059   8.334
19916OST    PA330562  12.247   7.980   8.423
19916OST    PA430563  12.484   8.260   8.342
19916OST    PA530564  12.787   8.324   8.270
19916OST    PA630565  12.861   8.102   8.256
19917OST    PA130566   1.321  10.694   8.522
19917OST    PA230567   1.255  11.033   8.441
19917OST    PA330568   1.420  11.000   8.199
19917OST    PA430569   1.263  11.232   8.445
19917OST    PA530570   1.011  11.244   8.641
19917OST    PA630571   0.971  11.008   8.658
19918OST    PA130572   4.342  14.430   2.469
19918OST    PA230573   4.351  14.243   2.167
19918OST    PA330574   4.566  14.431   2.090
19918OST    PA430575   4.274  14.223   1.985
19918OST    PA530576   4.097  13.970   2.066
19918OST    PA630577   4.170  13.962   2.293
19919OST    PA130578  11.985   6.481   9.437
19919OST    PA230579  12.206   6.305   9.223
19919OST    PA330580  12.165   6.470   8.982
19919OST    PA430581  12.398   6.262   9.189
19919OST    PA530582  12.391   6.001   9.367
19919OST    PA630583  12.162   6.022   9.432
19920OST    PA130584  13.388   1.751   1.411
19920OST    PA230585  13.724   1.683   1.317
19920OST    PA330586  13.796   1.867   1.536
19920OST    PA430587  13.903   1.687   1.224
19920OST    PA530588  13.850   1.402   1.089
19920OST    PA630589  13.635   1.367   1.186
19921OST    PA130590   0.672   3.600   8.807
19921OST    PA230591   0.505   3.509   9.112
19921OST    PA330592   0.572   3.768   9.239
19921OST    PA430593   0.517   3.403   9.282
19921OST    PA530594   0.433   3.125   9.153
19921OST    PA630595   0.405   3.214   8.934
19922OST    PA130596   2.379   1.806   1.621
19922OST    PA230597   2.368   2.151   1.530
19922OST    PA330598   2.651   2.134   1.613
19922OST    PA430599   2.333   2.333   1.609
19922OST    PA530600   2.017   2.311   1.562
19922OST    PA630601   2.023   2.097   1.461
19923OST    PA130602   0.774   5.905   7.968
19923OST    PA230603   0.782   6.179   8.196
19923OST    PA330604   0.510   6.121   8.297
19923OST    PA430605   0.852   6.252   8.367
19923OST    PA530606   1.139   6.327   8.256
19923OST    PA630607   1.094   6.246   8.038
19924OST    PA130608   6.680   0.702   4.917
19924OST    PA230609   6.781   0.688   5.260
19924OST    PA330610   7.014   0.868   5.241
19924OST    PA430611   6.867   0.557   5.388
19924OST    PA530612   6.586   0.416   5.447
19924OST    PA630613   6.454   0.557   5.304
19925OST    PA130614  12.119  11.408  11.854
19925OST    PA230615  12.363  11.404  11.595
19925OST    PA330616  12.562  11.476  11.802
19925OST    PA430617  12.492  11.304  11.476
19925OST    PA530618  12.270  11.256  11.251
19925OST    PA630619  12.093  11.365  11.367
19926OST    PA130620   6.060   1.374   8.935
19926OST    PA230621   6.154   1.393   9.277
19926OST    PA330622   5.865   1.425   9.333
19926OST    PA430623   6.200   1.303   9.451
19926OST    PA530624   6.511   1.283   9.385
19926OST    PA630625   6.495   1.385   9.169
19927OST    PA130626   3.570   6.302   9.547
19927OST    PA230627   3.609   6.405   9.207
19927OST    PA330628   3.425   6.248   9.037
19927OST    PA430629   3.758   6.416   9.070
19927OST    PA530630   3.865   6.694   9.179
19927OST    PA630631   3.704   6.716   9.348
19928OST    PA130632   7.272   7.281   0.406
19928OST    PA230633   6.966   7.370   0.248
19928OST    PA330634   6.860   7.099   0.196
19928OST    PA430635   6.902   7.450   0.076
19928OST    PA530636   6.926   7.747   0.185
19928OST    PA630637   7.000   7.692   0.399
19929OST    PA130638  11.549   6.251  11.555
19929OST    PA230639  11.570   6.601  11.496
19929OST    PA330640  11.634   6.654  11.778
19929OST    PA430641  11.678   6.752  11.420
19929OST    PA530642  11.483   6.773  11.168
19929OST    PA630643  11.336   6.596  11.229
19930OST    PA130644  10.515  11.663   8.906
19930OST    PA230645  10.513  11.918   8.656
19930OST    PA330646  10.541  12.111   8.878
19930OST    PA430647  10.626  12.019   8.526
19930OST    PA530648  10.614  11.802   8.297
19930OST    PA630649  10.479  11.649   8.422
19931OST    PA130650   3.112   6.436   9.742
19931OST    PA230651   3.311   6.689   9.582
19931OST    PA330652   3.250   6.541   9.331
19931OST    PA430653   3.321   6.869   9.495
19931OST    PA530654   3.298   7.031   9.768
19931OST    PA630655   3.281   6.838   9.905
19932OST    PA130656   9.287  15.003   9.772
19932OST    PA230657   9.345  14.650   9.770
19932OST    PA330658   9.198  14.642  10.027
19932OST    PA430659   9.479  14.511   9.819
19932OST    PA530660   9.635  14.534   9.543
19932OST    PA630661   9.494  14.700   9.450
19933OST    PA130662  15.740  10.857  11.654
19933OST    PA230663  15.633  11.107  11.426
19933OST    PA330664  15.758  11.337  11.562
19933OST    PA430665  15.485  11.211  11.340
19933OST    PA530666  15.452  10.993  11.111
19933OST    PA630667  15.621  10.845  11.180
19934OST    PA130668  15.658   4.902   9.064
19934OST    PA230669  15.479   4.996   8.768
19934OST    PA330670  15.254   4.808   8.821
19934OST    PA430671  15.464   4.986   8.566
19934OST    PA530672  15.706   5.182   8.520
19934OST    PA630673  15.758   5.224   8.742
19935OST    PA130674   0.565  10.365   0.384
19935OST    PA230675   0.459  10.687   0.275
19935OST    PA330676   0.316  10.680   0.534
19935OST    PA430677   0.313  10.779   0.174
19935OST    PA530678   0.453  10.730  13.497
19935OST    PA630679   0.643  10.619  13.579
19936OST    PA130680   2.612   6.239   0.444
19936OST    PA230681   2.533   6.587   0.462
19936OST    PA330682   2.272   6.521   0.335
19936OST    PA430683   2.509   6.786   0.455
19936OST    PA530684   2.818   6.855   0.483
19936OST    PA630685   2.886   6.630   0.497
19937OST    PA130686   7.734  13.959  10.515
19937OST    PA230687   7.430  13.941  10.695
19937OST    PA330688   7.323  13.695  10.576
19937OST    PA430689   7.254  14.025  10.733
19937OST    PA530690   7.372  14.210  10.961
19937OST    PA630691   7.599  14.130  10.944
19938OST    PA130692   6.907   0.823   0.295
19938OST    PA230693   7.011   0.634   0.585
19938OST    PA330694   7.285   0.698   0.676
19938OST    PA430695   6.938   0.600   0.769
19938OST    PA530696   6.751   0.358   0.678
19938OST    PA630697   6.812   0.370   0.449
19939OST    PA130698   4.390   3.981  11.786
19939OST    PA230699   4.304   3.642  11.710
19939OST    PA330700   4.162   3.759  11.479
19939OST    PA430701   4.192   3.478  11.722
19939OST    PA530702   4.363   3.360  11.967
19939OST    PA630703   4.515   3.541  11.978
19940OST    PA130704   4.574  15.785   0.165
19940OST    PA230705   4.342  15.642   0.399
19940OST    PA330706   4.535  15.762   0.592
19940OST    PA430707   4.183  15.659   0.518
19940OST    PA530708   3.962  15.652   0.292
19940OST    PA630709   4.121  15.633   0.116
19941OST    PA130710   8.278  15.702  10.305
19941OST    PA230711   8.092  15.410  10.217
19941OST    PA330712   7.948  15.552  10.002
19941OST    PA430713   7.939  15.288  10.268
19941OST    PA530714   8.131  15.080  10.417
19941OST    PA630715   8.333  15.199  10.372
19942OST    PA130716   7.220   0.644  12.748
19942OST    PA230717   7.422   0.520  13.018
19942OST    PA330718   7.221   0.671  13.177
19942OST    PA430719   7.570   0.540  13.152
19942OST    PA530720   7.812   0.499  12.952
19942OST    PA630721   7.672   0.466  12.763
19943OST    PA130722  11.185   6.540  10.444
19943OST    PA230723  11.035   6.217  10.487
19943OST    PA330724  11.026   6.206  10.192
19943OST    PA430725  11.072   6.021  10.513
19943OST    PA530726  11.122   6.043  10.828
19943OST    PA630727  11.088   6.279  10.834
19944OST    PA130728   8.297   0.709   9.670
19944OST    PA230729   8.153   0.490   9.915
19944OST    PA330730   8.086   0.703  10.106
19944OST    PA430731   8.193   0.349  10.056
19944OST    PA530732   8.187   0.109   9.846
19944OST    PA630733   8.137   0.245   9.654
19945OST    PA130734  10.026   8.424   3.759
19945OST    PA230735  10.347   8.465   3.616
19945OST    PA330736  10.354   8.173   3.578
19945OST    PA430737  10.429   8.511   3.439
19945OST    PA530738  10.398   8.824   3.496
19945OST    PA630739  10.296   8.807   3.708
19946OST    PA130740   8.314   3.819  13.418
19946OST    PA230741   8.495   3.649  13.166
19946OST    PA330742   8.753   3.740  13.271
19946OST    PA430743   8.548   3.461  13.141
19946OST    PA530744   8.298   3.399  12.954
19946OST    PA630745   8.204   3.616  12.965
19947OST    PA130746   1.669  13.168   0.637
19947OST    PA230747   1.652  13.412   0.377
19947OST    PA330748   1.395  13.532   0.456
19947OST    PA430749   1.735  13.582   0.309
19947OST    PA530750   1.923  13.431   0.100
19947OST    PA630751   1.848  13.210   0.158
19948OST    PA130752   0.721  12.734   9.813
19948OST    PA230753   0.898  12.504  10.026
19948OST    PA330754   0.647  12.519  10.180
19948OST    PA430755   1.011  12.443  10.181
19948OST    PA530756   1.274  12.592  10.091
19948OST    PA630757   1.181  12.682   9.895
19949OST    PA130758   5.415  14.247   8.381
19949OST    PA230759   5.416  14.063   8.688
19949OST    PA330760   5.679  14.133   8.803
19949OST    PA430761   5.324  14.037   8.864
19949OST    PA530762   5.109  13.836   8.747
19949OST    PA630763   5.190  13.842   8.523
19950OST    PA130764  11.760   7.092   2.211
19950OST    PA230765  11.600   7.373   2.066
19950OST    PA330766  11.860   7.516   2.080
19950OST    PA430767  11.511   7.504   1.948
19950OST    PA530768  11.219   7.404   2.016
19950OST    PA630769  11.285   7.231   2.164
19951OST    PA130770  11.797   6.185  12.867
19951OST    PA230771  11.853   6.454  13.094
19951OST    PA330772  12.086   6.288  13.168
19951OST    PA430773  11.811   6.514  13.279
19951OST    PA530774  11.535   6.642  13.184
19951OST    PA630775  11.551   6.591  12.957
19952OST    PA130776   8.139  13.959   9.592
19952OST    PA230777   8.010  14.184   9.839
19952OST    PA330778   7.913  14.404   9.671
19952OST    PA430779   8.051  14.297   9.999
19952OST    PA530780   8.002  14.056  10.200
19952OST    PA630781   7.945  13.892  10.039
19953OST    PA130782   6.013   1.108  11.225
19953OST    PA230783   5.687   1.242  11.291
19953OST    PA330784   5.553   0.992  11.210
19953OST    PA430785   5.525   1.360  11.269
19953OST    PA530786   5.650   1.596  11.440
19953OST    PA630787   5.852   1.486  11.489
19954OST    PA130788  15.048   4.700   2.070
19954OST    PA230789  15.060   4.390   1.892
19954OST    PA330790  15.345   4.353   1.953
19954OST    PA430791  15.017   4.194   1.876
19954OST    PA530792  14.712   4.240   1.799
19954OST    PA630793  14.724   4.474   1.812
19955OST    PA130794   3.593  14.683   0.019
19955OST    PA230795   3.812  14.423   0.127
19955OST    PA330796   3.657  14.227  13.573
19955OST    PA430797   3.993  14.347   0.083
19955OST    PA530798   4.137  14.525   0.304
19955OST    PA630799   3.943  14.639   0.381
19956OST    PA130800  10.720  12.789  11.309
19956OST    PA230801  10.578  12.946  11.596
19956OST    PA330802  10.594  12.692  11.746
19956OST    PA430803  10.415  13.018  11.692
19956OST    PA530804  10.463  13.304  11.560
19956OST    PA630805  10.659  13.254  11.435
19957OST    PA130806   5.330   4.100   4.408
19957OST    PA230807   5.300   4.365   4.170
19957OST    PA330808   5.200   4.171   3.969
19957OST    PA430809   5.390   4.484   4.038
19957OST    PA530810   5.524   4.675   4.251
19957OST    PA630811   5.432   4.561   4.440
19958OST    PA130812  11.661   3.980   9.370
19958OST    PA230813  11.894   3.737   9.491
19958OST    PA330814  12.117   3.680   9.305
19958OST    PA430815  11.886   3.552   9.564
19958OST    PA530816  11.805   3.643   9.855
19958OST    PA630817  11.806   3.875   9.811
19959OST    PA130818  12.976   8.509   0.510
19959OST    PA230819  13.230   8.739   0.619
19959OST    PA330820  13.173   8.609   0.877
19959OST    PA430821  13.282   8.916   0.699
19959OST    PA530822  13.234   9.083   0.438
19959OST    PA630823  13.169   8.901   0.304
19960OST    PA130824   2.776  13.799   8.356
19960OST    PA230825   3.109  13.929   8.360
19960OST    PA330826   3.121  13.813   8.087
19960OST    PA430827   3.209  14.095   8.315
19960OST    PA530828   3.181  14.219   8.608
19960OST    PA630829   3.057  14.037   8.696
19961OST    PA130830   7.288   1.748  13.404
19961OST    PA230831   7.598   1.896  13.308
19961OST    PA330832   7.756   1.716  13.482
19961OST    PA430833   7.727   1.895  13.156
19961OST    PA530834   7.592   2.141  13.009
19961OST    PA630835   7.418   2.173  13.169
19962OST    PA130836  10.249  13.960   9.699
19962OST    PA230837  10.408  14.093   9.991
19962OST    PA330838  10.283  14.359   9.993
19962OST    PA430839  10.413  14.070  10.191
19962OST    PA530840  10.659  13.865  10.165
19962OST    PA630841  10.678  13.868   9.928
19963OST    PA130842  14.623  15.754   2.218
19963OST    PA230843  14.924  15.789   2.032
19963OST    PA330844  14.925   0.254   2.037
19963OST    PA430845  15.004  15.769   1.850
19963OST    PA530846  15.080  15.464   1.907
19963OST    PA630847  14.995  15.456   2.130
19964OST    PA130848   6.925   6.756   3.385
19964OST    PA230849   7.165   6.800   3.123
19964OST    PA330850   7.276   7.003   3.304
19964OST    PA430851   7.342   6.742   3.045
19964OST    PA530852   7.190   6.538   2.851
19964OST    PA630853   6.966   6.583   2.924
19965OST    PA130854   2.946  13.319   9.405
19965OST    PA230855   3.224  13.299   9.628
19965OST    PA330856   3.058  13.379   9.859
19965OST    PA430857   3.385  13.406   9.679
19965OST    PA530858   3.571  13.272   9.457
19965OST    PA630859   3.400  13.127   9.373
19966OST    PA130860   7.716  15.347  12.321
19966OST    PA230861   7.468  15.089  12.299
19966OST    PA330862   7.354  15.267  12.089
19966OST    PA430863   7.292  15.015  12.360
19966OST    PA530864   7.392  14.881  12.629
19966OST    PA630865   7.619  14.948  12.593
19967OST    PA130866   1.661   6.182   1.291
19967OST    PA230867   2.013   6.194   1.347
19967OST    PA330868   2.020   6.017   1.581
19967OST    PA430869   2.185   6.134   1.270
19967OST    PA530870   2.224   6.395   1.092
19967OST    PA630871   2.020   6.498   1.162
19968OST    PA130872   1.133   5.731   4.464
19968OST    PA230873   1.364   5.467   4.416
19968OST    PA330874   1.191   5.299   4.241
19968OST    PA430875   1.533   5.420   4.328
19968OST    PA530876   1.719   5.522   4.564
19968OST    PA630877   1.538   5.595   4.701
19969OST    PA130878   8.402   8.057  10.645
19969OST    PA230879   8.733   8.175  10.703
19969OST    PA330880   8.648   8.455  10.734
19969OST    PA430881   8.881   8.183  10.837
19969OST    PA530882   9.022   7.920  10.723
19969OST    PA630883   8.858   7.880  10.551
19970OST    PA130884   6.259   8.064  13.436
19970OST    PA230885   6.210   8.129   0.179
19970OST    PA330886   5.949   7.990   0.170
19970OST    PA430887   6.233   8.119   0.377
19970OST    PA530888   6.496   8.295   0.382
19970OST    PA630889   6.504   8.327   0.148
19971OST    PA130890   8.229  10.313  12.387
19971OST    PA230891   8.461  10.230  12.645
19971OST    PA330892   8.264  10.018  12.711
19971OST    PA430893   8.582  10.192  12.799
19971OST    PA530894   8.813  10.383  12.689
19971OST    PA630895   8.698  10.449  12.490
19972OST    PA130896  11.618   4.301   8.949
19972OST    PA230897  11.632   3.951   8.877
19972OST    PA330898  11.348   4.000   8.806
19972OST    PA430899  11.603   3.771   8.950
19972OST    PA530900  11.897   3.743   9.058
19972OST    PA630901  11.975   3.956   8.983
19973OST    PA130902   6.607   1.644   0.059
19973OST    PA230903   6.950   1.646   0.157
19973OST    PA330904   6.947   1.889  13.591
19973OST    PA430905   7.122   1.685   0.247
19973OST    PA530906   7.142   1.400   0.385
19973OST    PA630907   6.935   1.317   0.295
19974OST    PA130908  11.145   9.995   3.972
19974OST    PA230909  11.483   9.913   4.051
19974OST    PA330910  11.439   9.844   4.333
19974OST    PA430911  11.625   9.775   4.016
19974OST    PA530912  11.761   9.951   3.787
19974OST    PA630913  11.607  10.132   3.801
19975OST    PA130914   0.115  10.447   9.540
19975OST    PA230915   0.093  10.774   9.680
19975OST    PA330916  15.679  10.657   9.800
19975OST    PA430917   0.017  10.954   9.654
19975OST    PA530918   0.256  11.053   9.468
19975OST    PA630919   0.379  10.849   9.478
19976OST    PA130920   7.055   4.911  12.637
19976OST    PA230921   7.059   4.969  12.286
19976OST    PA330922   7.336   4.915  12.202
19976OST    PA430923   7.018   5.097  12.139
19976OST    PA530924   6.706   5.036  12.148
19976OST    PA630925   6.714   4.877  12.320
19977OST    PA130926   7.121   4.976   3.227
19977OST    PA230927   7.020   4.928   3.567
19977OST    PA330928   7.312   4.946   3.620
19977OST    PA430929   6.988   4.777   3.693
19977OST    PA530930   6.693   4.720   3.595
19977OST    PA630931   6.691   4.894   3.432
19978OST    PA130932  11.733  15.000   9.462
19978OST    PA230933  11.995  15.204   9.587
19978OST    PA330934  12.123  15.003   9.763
19978OST    PA430935  12.163  15.309   9.550
19978OST    PA530936  11.998  15.566   9.468
19978OST    PA630937  11.782  15.476   9.499
19979OST    PA130938   1.524  10.184   8.588
19979OST    PA230939   1.174  10.226   8.527
19979OST    PA330940   1.093  10.118   8.790
19979OST    PA430941   1.016  10.345   8.505
19979OST    PA530942   1.089  10.443   8.214
19979OST    PA630943   1.289  10.317   8.201
19980OST    PA130944  14.041   0.521   1.695
19980OST    PA230945  14.043   0.837   1.863
19980OST    PA330946  14.316   0.856   1.747
19980OST    PA430947  14.022   1.034   1.893
19980OST    PA530948  13.708   1.029   1.932
19980OST    PA630949  13.688   0.793   1.900
19981OST    PA130950   7.960   5.647   9.409
19981OST    PA230951   7.779   5.339   9.442
19981OST    PA330952   7.588   5.517   9.582
19981OST    PA430953   7.640   5.204   9.387
19981OST    PA530954   7.818   5.075   9.159
19981OST    PA630955   8.003   5.217   9.189
19982OST    PA130956   6.288   1.933   0.360
19982OST    PA230957   6.231   2.217   0.152
19982OST    PA330958   6.354   2.366   0.375
19982OST    PA430959   6.168   2.378   0.052
19982OST    PA530960   5.963   2.212  13.478
19982OST    PA630961   6.014   1.999  13.572
19983OST    PA130962   7.749   7.165   8.346
19983OST    PA230963   7.820   7.440   8.563
19983OST    PA330964   7.672   7.338   8.794
19983OST    PA430965   7.787   7.638   8.602
19983OST    PA530966   8.016   7.734   8.402
19983OST    PA630967   8.080   7.517   8.339
19984OST    PA130968   0.367   3.676   2.735
19984OST    PA230969   0.178   3.979   2.733
19984OST    PA330970   0.207   3.956   2.438
19984OST    PA430971   0.117   4.170   2.730
19984OST    PA530972   0.256   4.249   3.004
19984OST    PA630973   0.345   4.033   3.047
19985OST    PA130974   0.003   9.829  12.545
19985OST    PA230975   0.107  10.121  12.725
19985OST    PA330976   0.282  10.164  12.490
19985OST    PA430977   0.175  10.279  12.830
19985OST    PA530978   0.103  10.157  13.115
19985OST    PA630979   0.009   9.954  13.025
19986OST    PA130980  14.931  11.009  13.097
19986OST    PA230981  14.828  11.096  13.426
19986OST    PA330982  14.689  11.325  13.297
19986OST    PA430983  14.685  11.058  13.558
19986OST    PA530984  14.825  10.792   0.054
19986OST    PA630985  15.011  10.801  13.515
19987OST    PA130986   8.500  14.294   9.861
19987OST    PA230987   8.360  14.439   9.564
19987OST    PA330988   8.224  14.628   9.749
19987OST    PA430989   8.213  14.435   9.430
19987OST    PA530990   8.327  14.194   9.262
19987OST    PA630991   8.522  14.165   9.398
19988OST    PA130992   9.358   7.785  13.529
19988OST    PA230993   9.467   7.456   0.011
19988OST    PA330994   9.285   7.500   0.243
19988OST    PA430995   9.440   7.258   0.001
19988OST    PA530996   9.587   7.227  13.324
19988OST    PA630997   9.634   7.460  13.302
19989OST    PA130998  12.072   1.115  12.341
19989OST    PA230999  11.719   1.130  12.360
19989OST    PA331000  11.702   0.902  12.171
19989OST    PA431001  11.559   1.081  12.468
19989OST    PA531002  11.576   1.361  12.625
19989OST    PA631003  11.767   1.447  12.517
19990OST    PA131004   1.032   0.900   1.120
19990OST    PA231005   1.143   0.886   0.781
19990OST    PA331006   1.083   0.600   0.741
19990OST    PA431007   1.099   0.944   0.592
19990OST    PA531008   1.232   1.231   0.636
19990OST    PA631009   1.297   1.195   0.863
19991OST    PA131010  13.593   1.448   2.668
19991OST    PA231011  13.813   1.418   2.385
19991OST    PA331012  13.615   1.614   2.286
19991OST    PA431013  13.857   1.341   2.202
19991OST    PA531014  13.964   1.067   2.319
19991OST    PA631015  13.930   1.122   2.548
19992OST    PA131016  10.934  10.570   9.977
19992OST    PA231017  10.639  10.595  10.176
19992OST    PA331018  10.567  10.843  10.036
19992OST    PA431019  10.450  10.532  10.207
19992OST    PA531020  10.552  10.288  10.385
19992OST    PA631021  10.785  10.332  10.366
19993OST    PA131022  14.813   7.158   8.653
19993OST    PA231023  14.669   7.255   8.965
19993OST    PA331024  14.886   7.451   8.994
19993OST    PA431025  14.533   7.362   9.065
19993OST    PA531026  14.304   7.147   9.024
19993OST    PA631027  14.431   6.998   8.901
19994OST    PA131028  13.353   8.227   0.865
19994OST    PA231029  13.599   8.044   1.051
19994OST    PA331030  13.694   8.321   1.099
19994OST    PA431031  13.685   7.965   1.216
19994OST    PA531032  13.496   7.710   1.226
19994OST    PA631033  13.366   7.771   1.034
19995OST    PA131034  10.981   6.564   2.243
19995OST    PA231035  10.810   6.870   2.178
19995OST    PA331036  10.992   6.918   1.947
19995OST    PA431037  10.788   7.061   2.225
19995OST    PA531038  10.611   7.009   2.483
19995OST    PA631039  10.612   6.772   2.460
19996OST    PA131040  12.356  11.840  10.341
19996OST    PA231041  12.633  11.884  10.121
19996OST    PA331042  12.606  11.671   9.918
19996OST    PA431043  12.831  11.879  10.127
19996OST    PA531044  12.858  12.192  10.178
19996OST    PA631045  12.626  12.237  10.173
19997OST    PA131046   9.406  13.519   0.268
19997OST    PA231047   9.475  13.854   0.370
19997OST    PA331048   9.222  13.911   0.231
19997OST    PA431049   9.568  14.020   0.313
19997OST    PA531050   9.812  13.976   0.508
19997OST    PA631051   9.735  13.775   0.605
19998OST    PA131052   9.754  13.913   9.525
19998OST    PA231053   9.953  13.713   9.311
19998OST    PA331054   9.838  13.859   9.084
19998OST    PA431055  10.137  13.698   9.238
19998OST    PA531056  10.222  13.488   9.460
19998OST    PA631057  10.015  13.484   9.574
19999OST    PA131058   7.816   0.742  11.433
19999OST    PA231059   7.977   0.485  11.246
19999OST    PA331060   8.240   0.574  11.349
19999OST    PA431061   8.050   0.339  11.133
19999OST    PA531062   7.797   0.324  10.942
19999OST    PA631063   7.675   0.493  11.050
20000OST    PA131064  13.372  15.642  13.047
20000OST    PA231065  13.527  15.648  13.369
20000OST    PA331066  13.532  15.351  13.358
20000OST    PA431067  13.690  15.666  13.482
20000OST    PA531068  13.677   0.156  13.491
20000OST    PA631069  13.483   0.174  13.357
20001OST    PA131070   7.293  11.884   0.044
20001OST    PA231071   7.072  12.131   0.181
20001OST    PA331072   7.259  12.144   0.410
20001OST    PA431073   6.908  12.181   0.287
20001OST    PA531074   6.720  12.186   0.029
20001OST    PA631075   6.890  12.130  13.477
20002OST    PA131076   6.867   9.315   1.502
20002OST    PA231077   7.020   8.996   1.539
20002OST    PA331078   7.141   9.090   1.792
20002OST    PA431079   7.045   8.802   1.576
20002OST    PA531080   6.953   8.726   1.280
20002OST    PA631081   6.911   8.944   1.200
20003OST    PA131082   5.185   3.603   4.509
20003OST    PA231083   4.992   3.555   4.806
20003OST    PA331084   5.141   3.304   4.857
20003OST    PA431085   4.979   3.610   4.998
20003OST    PA531086   4.801   3.864   4.918
20003OST    PA631087   4.798   3.829   4.684
20004OST    PA131088  14.381   9.890   2.007
20004OST    PA231089  14.152   9.669   1.848
20004OST    PA331090  14.173   9.394   1.954
20004OST    PA431091  14.104   9.615   1.666
20004OST    PA531092  13.917   9.864   1.610
20004OST    PA631093  13.948   9.961   1.825
20005OST    PA131094   0.099   8.230  13.207
20005OST    PA231095  15.825   7.971  12.987
20005OST    PA331096  15.549   8.037  13.068
20005OST    PA431097  15.783   7.942  12.799
20005OST    PA531098   0.256   7.891  12.712
20005OST    PA631099   0.347   7.922  12.926
20006OST    PA131100  13.086   3.073  10.556
20006OST    PA231101  12.884   3.367  10.535
20006OST    PA331102  13.005   3.431  10.274
20006OST    PA431103  12.835   3.557  10.583
20006OST    PA531104  12.616   3.458  10.792
20006OST    PA631105  12.646   3.224  10.757
20007OST    PA131106   3.699   9.220  13.384
20007OST    PA231107   3.388   9.346  13.264
20007OST    PA331108   3.370   9.089  13.116
20007OST    PA431109   3.192   9.380  13.267
20007OST    PA531110   3.212   9.604  13.490
20007OST    PA631111   3.444   9.591  13.517
20008OST    PA131112  14.918   1.201  12.542
20008OST    PA231113  14.976   1.044  12.229
20008OST    PA331114  14.961   1.301  12.088
20008OST    PA431115  14.890   0.935  12.083
20008OST    PA531116  15.005   0.663  12.203
20008OST    PA631117  15.121   0.762  12.386
20009OST    PA131118   0.353  15.243  10.218
20009OST    PA231119   0.122  15.433  10.417
20009OST    PA331120   0.361  15.523  10.566
20009OST    PA431121  15.820  15.476  10.565
20009OST    PA531122  15.590  15.291  10.455
20009OST    PA631123  15.709  15.216  10.265
20010OST    PA131124   6.489  11.384  13.452
20010OST    PA231125   6.687  11.087  13.452
20010OST    PA331126   6.512  10.972   0.057
20010OST    PA431127   6.853  10.993  13.511
20010OST    PA531128   7.026  11.084  13.262
20010OST    PA631129   6.850  11.206  13.157
20011OST    PA131130   8.163  11.500   0.309
20011OST    PA231131   8.084  11.841   0.239
20011OST    PA331132   8.281  11.938   0.434
20011OST    PA431133   7.946  11.982   0.276
20011OST    PA531134   7.778  11.912   0.013
20011OST    PA631135   7.926  11.738  13.543
20012OST    PA131136   6.465  15.697   8.207
20012OST    PA231137   6.689   0.066   8.405
20012OST    PA331138   6.799   0.152   8.146
20012OST    PA431139   6.866   0.046   8.497
20012OST    PA531140   6.732   0.011   8.785
20012OST    PA631141   6.507   0.033   8.710
20013OST    PA131142   7.873   9.693  12.851
20013OST    PA231143   7.818   9.825  12.522
20013OST    PA331144   7.903  10.076  12.657
20013OST    PA431145   7.718   9.917  12.374
20013OST    PA531146   7.560   9.660  12.285
20013OST    PA631147   7.655   9.513  12.444
20014OST    PA131148   2.944   1.854   4.677
20014OST    PA231149   2.669   1.859   4.907
20014OST    PA331150   2.893   1.848   5.101
20014OST    PA431151   2.533   1.778   5.030
20014OST    PA531152   2.294   1.779   4.822
20014OST    PA631153   2.422   1.877   4.647
20015OST    PA131154   3.266   8.221   1.127
20015OST    PA231155   3.027   8.351   0.895
20015OST    PA331156   3.054   8.143   0.690
20015OST    PA431157   3.013   8.508   0.767
20015OST    PA531158   2.888   8.692   0.997
20015OST    PA631159   2.890   8.527   1.168
  15.82912  15.82912  13.60418
