Martini system
31159
    1CHOL   ROH    1   0.803   8.902   4.337  0.0670  0.1606  0.1014
    1CHOL    R1    2   0.859   8.927   4.614 -0.0184  0.0472  0.1287
    1CHOL    R2    3   0.660   8.935   4.805 -0.0740 -0.1243  0.0785
    1CHOL    R3    4   0.800   8.729   4.914 -0.0234 -0.1227  0.0164
    1CHOL    R4    5   0.587   8.785   5.108 -0.1167 -0.3219 -0.0291
    1CHOL    R5    6   0.801   8.776   5.149 -0.1276 -0.2503  0.0422
    1CHOL    C1    7   0.677   8.504   5.386 -0.0942 -0.4339 -0.1503
    1CHOL    C2    8   0.787   8.574   5.785 -0.0608 -0.0823 -0.0414
    2XCA    COO    9  14.556   8.052   3.647  0.0600 -0.2948 -0.0856
    2XCA     C1   10  14.512   8.210   4.105  0.2418 -0.0619  0.1426
    2XCA     C2   11  14.605   8.272   4.486 -0.1041 -0.2921 -0.0779
    2XCA     C3   12  14.718   8.261   4.878  0.2317  0.2343 -0.1526
    2XCA     C4   13  14.470   8.500   5.120 -0.3282  0.1389 -0.0684
    2XCA     C5   14  14.256   8.396   5.466  0.2737 -0.0454  0.0984
    2XCA     C6   15  14.025   8.229   5.809  0.3021 -0.1347  0.1470
    3XCA    COO   16   3.859   3.126   8.334  0.2052  0.1704 -0.0940
    3XCA     C1   17   3.924   2.971   7.907  0.3541  0.2130 -0.3876
    3XCA     C2   18   3.881   2.829   7.437 -0.2844 -0.1376  0.0553
    3XCA     C3   19   3.730   2.614   7.141  0.0560 -0.3965  0.2443
    3XCA     C4   20   3.749   2.214   6.912 -0.0294  0.2597  0.0222
    3XCA     C5   21   3.734   2.080   6.526 -0.2171  0.4332 -0.1749
    3XCA     C6   22   3.562   2.192   6.200 -0.0554  0.1256 -0.3286
    4XCA    COO   23  13.872  10.710   4.735  0.1481  0.0426 -0.1479
    4XCA     C1   24  14.225  10.774   5.117  0.1516  0.2168  0.3268
    4XCA     C2   25  14.528  11.023   5.290  0.0362  0.6061  0.1218
    4XCA     C3   26  14.583  11.342   5.581 -0.0768  0.0658  0.0804
    4XCA     C4   27  14.645  11.554   5.966  0.2526  0.2271 -0.3028
    4XCA     C5   28  14.860  11.763   6.349 -0.1754  0.2674 -0.1257
    4XCA     C6   29  14.870  12.175   6.364  0.0984  0.1239  0.0257
    5CHOL   ROH   30   1.044   6.842   4.186 -0.0061 -0.2692 -0.0319
    5CHOL    R1   31   0.826   6.711   4.311 -0.1329 -0.0224  0.0069
    5CHOL    R2   32   0.857   6.482   4.462 -0.3824 -0.1286 -0.1026
    5CHOL    R3   33   0.727   6.627   4.651 -0.1012 -0.0283  0.0145
    5CHOL    R4   34   0.735   6.355   4.759 -0.4053 -0.0803 -0.0908
    5CHOL    R5   35   0.558   6.479   4.734 -0.2552  0.1612  0.0405
    5CHOL    C1   36   0.542   6.418   5.110 -0.1546  0.0416  0.0254
    5CHOL    C2   37   0.204   6.574   5.245 -0.0951  0.0251  0.2979
    6CHOL   ROH   38   8.098  15.352   5.316  0.2218 -0.1069  0.0604
    6CHOL    R1   39   8.142  15.306   5.592  0.3252 -0.0439  0.0544
    6CHOL    R2   40   8.332  15.444   5.738  0.1113  0.2675  0.0402
    6CHOL    R3   41   8.120  15.501   5.899  0.0317 -0.0886  0.0628
    6CHOL    R4   42   8.354  15.601   6.045 -0.1249  0.3433  0.0188
    6CHOL    R5   43   8.203  15.463   6.121  0.1283  0.0834  0.0553
    6CHOL    C1   44   8.169  15.745   6.375 -0.3363  0.0536  0.0280
    6CHOL    C2   45   8.438  15.623   6.502  0.0133  0.5213 -0.1078
    7XCA    COO   46   8.673   0.075   4.925 -0.0099 -0.1404 -0.1811
    7XCA     C1   47   8.972   0.213   5.185  0.0998 -0.1971  0.0960
    7XCA     C2   48   9.373   0.261   5.429  0.3259 -0.0775 -0.0369
    7XCA     C3   49   9.501   0.234   5.864  0.0701  0.0318  0.1228
    7XCA     C4   50   9.546   0.059   6.330  0.0765  0.3899 -0.2159
    7XCA     C5   51   9.315  -0.299   6.348 -0.1417 -0.3476 -0.1701
    7XCA     C6   52   9.081  -0.677   6.336  0.2869  0.0808  0.3182
    8CHOL   ROH   53  16.221   9.814   6.082 -0.1500 -0.1371 -0.2091
    8CHOL    R1   54  16.412   9.758   5.881 -0.0106 -0.1364 -0.0765
    8CHOL    R2   55  16.632   9.597   5.926 -0.0953 -0.2190  0.0465
    8CHOL    R3   56  16.537   9.462   5.710  0.0305 -0.1232 -0.0689
    8CHOL    R4   57  16.828   9.469   5.672  0.0502 -0.0772  0.0861
    8CHOL    R5   58  16.676   9.534   5.529  0.1187 -0.0215  0.0391
    8CHOL    C1   59  16.853   9.267   5.321  0.2531  0.0960  0.0014
    8CHOL    C2   60  17.103   9.326   5.073  0.0941 -0.0777  0.0635
    9PNCE   AM1   61  14.706   2.125   8.062 -0.0425  0.4142 -0.2767
    9PNCE   AM2   62  14.526   1.925   8.020 -0.0230 -0.0459  0.3423
    9PNCE   T1A   63  14.752   2.240   7.719  0.0403  0.0209 -0.2338
    9PNCE   C2A   64  14.611   2.333   7.329  0.0800 -0.3223 -0.1212
    9PNCE   C3A   65  14.496   2.252   6.851 -0.0584  0.0490 -0.2412
    9PNCE   C1B   66  14.386   1.963   7.577  0.1958  0.3387  0.1790
    9PNCE   C2B   67  14.459   1.860   7.179 -0.2210  0.0696  0.1293
    9PNCE   C3B   68  14.422   1.818   6.745  0.1093  0.3515 -0.1388
    9PNCE   D4B   69  14.636   1.963   6.241 -0.0620 -0.3243  0.1412
    9PNCE   C5B   70  14.425   1.876   5.910 -0.0903 -0.2084 -0.1307
    9PNCE   C6B   71  14.457   1.588   5.559  0.2705 -0.0231 -0.1377
   10PNCE   AM1   72  14.215   0.021   7.666  0.3275  0.0333  0.0025
   10PNCE   AM2   73  14.337   0.097   8.078 -0.0041 -0.0585 -0.1438
   10PNCE   T1A   74  13.960   0.130   7.314  0.0198 -0.3357 -0.3086
   10PNCE   C2A   75  13.722   0.058   6.893 -0.1307  0.0283 -0.3847
   10PNCE   C3A   76  13.575  -0.116   6.451 -0.1422  0.2029  0.3500
   10PNCE   C1B   77  14.775  -0.033   7.837  0.0275 -0.0747  0.1894
   10PNCE   C2B   78  14.998  -0.048   7.471 -0.0207  0.1061 -0.1250
   10PNCE   C3B   79  15.058  -0.054   7.056  0.1092 -0.2191  0.1193
   10PNCE   D4B   80  14.821   0.058   6.679 -0.1893 -0.1273  0.1735
   10PNCE   C5B   81  14.557  -0.162   6.375 -0.0852 -0.1045  0.0296
   10PNCE   C6B   82  14.486  -0.540   6.376 -0.3450 -0.0218  0.2013
   11XCA    COO   83   4.664   0.264   8.069 -0.1240  0.4523  0.0287
   11XCA     C1   84   4.920   0.601   7.922 -0.1175  0.2756  0.1691
   11XCA     C2   85   5.252   0.598   7.516  0.3832  0.1318 -0.0284
   11XCA     C3   86   5.544   0.476   7.116 -0.1061 -0.2052 -0.2351
   11XCA     C4   87   5.685   0.241   6.739 -0.1083 -0.2715 -0.0750
   11XCA     C5   88   5.922   0.441   6.406  0.0171 -0.1259  0.4129
   11XCA     C6   89   6.152   0.803   6.333 -0.2485 -0.1207  0.1381
   12CHOL   ROH   90   2.182   7.828   7.175 -0.3320 -0.0621 -0.1317
   12CHOL    R1   91   2.290   7.744   6.927 -0.2407  0.0162 -0.1183
   12CHOL    R2   92   2.225   7.866   6.688 -0.0908  0.1442 -0.0941
   12CHOL    R3   93   2.495   7.892   6.665 -0.0720  0.0722  0.0449
   12CHOL    R4   94   2.387   8.023   6.426  0.0987 -0.1664 -0.1633
   12CHOL    R5   95   2.538   7.865   6.431  0.0683 -0.1874  0.0999
   12CHOL    C1   96   2.734   8.138   6.252  0.2268 -0.4154 -0.0735
   12CHOL    C2   97   3.024   8.069   6.014  0.3176 -0.2342 -0.0372
   13PNCE   AM1   98  11.187  15.195   9.094 -0.0548 -0.2229 -0.0013
   13PNCE   AM2   99  11.540  15.274   9.191  0.1113  0.0371  0.0263
   13PNCE   T1A  100  10.917  14.985   8.874  0.2533 -0.2214  0.1342
   13PNCE   C2A  101  10.742  14.788   8.458  0.0039 -0.2207  0.1616
   13PNCE   C3A  102  10.918  14.574   8.191 -0.3931  0.0223  0.0028
   13PNCE   C1B  103  11.627  15.433   8.823  0.2408 -0.2676  0.0606
   13PNCE   C2B  104  11.613  15.837   8.523 -0.0464  0.0873  0.2240
   13PNCE   C3B  105  11.331  16.002   8.139  0.0702  0.1540  0.1024
   13PNCE   D4B  106  11.155  16.189   7.818 -0.0800 -0.1475 -0.1780
   13PNCE   C5B  107  10.999  16.089   7.441 -0.3424  0.1104 -0.1996
   13PNCE   C6B  108  10.771  15.943   7.116 -0.1262  0.3341 -0.2077
   14XCA    COO  109  11.766  14.347   4.687 -0.0041  0.1206  0.1785
   14XCA     C1  110  11.626  14.221   5.174  0.0279  0.1684  0.3141
   14XCA     C2  111  11.466  14.270   5.608  0.3216 -0.1505  0.0869
   14XCA     C3  112  11.280  14.337   6.065 -0.0136 -0.0768  0.0494
   14XCA     C4  113  11.262  14.241   6.492  0.0122 -0.0571 -0.1217
   14XCA     C5  114  11.310  14.436   6.886 -0.1427  0.0636 -0.0419
   14XCA     C6  115  11.650  14.840   7.052 -0.2746 -0.0383  0.0116
   15CHOL   ROH  116  11.496   0.609   7.705  0.0227 -0.1315 -0.2795
   15CHOL    R1  117  11.342   0.656   7.473 -0.1216  0.1684 -0.1235
   15CHOL    R2  118  11.274   0.910   7.388  0.2579  0.3000 -0.0354
   15CHOL    R3  119  11.388   0.829   7.155 -0.1207  0.1111 -0.1545
   15CHOL    R4  120  11.282   1.096   7.097  0.2565  0.2851 -0.0448
   15CHOL    R5  121  11.242   0.913   6.985 -0.1612  0.3496 -0.0019
   15CHOL    C1  122  11.393   1.127   6.708 -0.0993  0.0991 -0.1623
   15CHOL    C2  123  11.631   1.049   6.427 -0.0023  0.0741 -0.5219
   16PNCE   AM1  124  16.137   0.353   8.535 -0.2582  0.3557 -0.2023
   16PNCE   AM2  125  16.146  -0.100   8.621 -0.0199  0.2309  0.0800
   16PNCE   T1A  126  16.228   0.665   8.173  0.1802 -0.0867 -0.0343
   16PNCE   C2A  127  16.106   0.641   7.710 -0.0272  0.2312 -0.0443
   16PNCE   C3A  128  16.268   0.715   7.283 -0.1033 -0.0303  0.1151
   16PNCE   C1B  129  16.136  -0.348   8.201  0.0691 -0.0011 -0.2288
   16PNCE   C2B  130  16.150  -0.245   7.758 -0.0084 -0.0934  0.1515
   16PNCE   C3B  131  15.947  -0.203   7.386  0.0241  0.2403 -0.2413
   16PNCE   D4B  132  15.816  -0.368   7.032  0.1481  0.0658 -0.1890
   16PNCE   C5B  133  16.095  -0.549   6.803  0.1063  0.0917 -0.3464
   16PNCE   C6B  134  15.875  -0.795   6.474 -0.0885 -0.1004  0.2908
   17XCA    COO  135   7.724  13.298   4.482 -0.0767  0.0213  0.0293
   17XCA     C1  136   7.652  13.143   4.999  0.2091 -0.1097 -0.0490
   17XCA     C2  137   7.736  12.844   5.417  0.0675  0.0847 -0.2004
   17XCA     C3  138   7.623  12.524   5.695  0.1658 -0.3325 -0.0106
   17XCA     C4  139   7.495  12.353   6.167 -0.1764  0.2032 -0.0828
   17XCA     C5  140   7.247  11.992   6.171 -0.1903  0.1924 -0.1372
   17XCA     C6  141   7.028  11.641   5.869  0.3121 -0.1369 -0.0571
   18PNCE   AM1  142   3.823   9.303   7.635  0.0662  0.1556  0.1404
   18PNCE   AM2  143   3.995   9.560   7.518 -0.0759  0.3470 -0.0709
   18PNCE   T1A  144   4.227   9.075   7.508  0.1118 -0.1014  0.2312
   18PNCE   C2A  145   4.364   8.826   7.282  0.2740 -0.0859  0.0169
   18PNCE   C3A  146   4.688   8.684   6.896 -0.0604  0.2300 -0.2949
   18PNCE   C1B  147   3.961   9.401   7.110  0.0220  0.1609 -0.0911
   18PNCE   C2B  148   3.867   9.436   6.648  0.0826  0.0896 -0.0695
   18PNCE   C3B  149   3.790   9.697   6.288  0.0517 -0.1037 -0.0578
   18PNCE   D4B  150   3.553  10.034   6.093  0.1044 -0.0510  0.6282
   18PNCE   C5B  151   3.398  10.237   6.519  0.3424  0.2220  0.1104
   18PNCE   C6B  152   3.359  10.548   6.785 -0.0944 -0.1340  0.0590
   19PNCE   AM1  153   3.704   7.738   7.982 -0.1940 -0.0804  0.3815
   19PNCE   AM2  154   4.079   7.862   7.845  0.2422 -0.1760  0.0263
   19PNCE   T1A  155   3.641   7.516   7.624 -0.1179 -0.4009  0.0539
   19PNCE   C2A  156   3.740   7.371   7.273 -0.0375  0.1261 -0.2422
   19PNCE   C3A  157   4.060   7.389   6.925  0.1473 -0.1379  0.0776
   19PNCE   C1B  158   4.011   7.881   7.382  0.2519  0.2175  0.2864
   19PNCE   C2B  159   3.778   7.843   6.991  0.0650 -0.0456 -0.0524
   19PNCE   C3B  160   3.373   8.054   6.874 -0.0920 -0.0735 -0.0876
   19PNCE   D4B  161   2.890   8.226   6.653 -0.4254 -0.0149 -0.2562
   19PNCE   C5B  162   2.662   8.712   6.832 -0.2465 -0.1044  0.0981
   19PNCE   C6B  163   2.451   9.009   7.081  0.0223  0.0697 -0.0258
   20PNCE   AM1  164   3.144   2.057   8.397  0.2277 -0.1458 -0.1282
   20PNCE   AM2  165   2.891   1.903   8.294 -0.0322  0.0486  0.0560
   20PNCE   T1A  166   3.146   2.145   7.911 -0.1184  0.3048 -0.3993
   20PNCE   C2A  167   2.869   2.199   7.559  0.2471 -0.0231  0.0907
   20PNCE   C3A  168   2.631   2.308   7.303  0.2150  0.1944 -0.0890
   20PNCE   C1B  169   2.673   1.790   7.804 -0.0497 -0.2928 -0.0549
   20PNCE   C2B  170   2.443   1.688   7.351 -0.3128  0.0995 -0.2285
   20PNCE   C3B  171   2.352   1.304   7.061 -0.0724 -0.0780 -0.0686
   20PNCE   D4B  172   2.085   1.119   6.670  0.5306  0.2019  0.1384
   20PNCE   C5B  173   2.315   1.031   6.338  0.2030 -0.1721 -0.1034
   20PNCE   C6B  174   2.489   0.882   5.887 -0.1025 -0.0343 -0.0436
   21XCA    COO  175  14.158   5.423   4.880  0.1841 -0.1867 -0.0904
   21XCA     C1  176  14.067   5.500   5.342  0.1581  0.1491 -0.1997
   21XCA     C2  177  14.125   5.390   5.741 -0.3637  0.0588  0.0543
   21XCA     C3  178  14.163   5.534   6.191 -0.0492  0.1613 -0.3037
   21XCA     C4  179  14.257   5.610   6.560 -0.1192  0.2877  0.2253
   21XCA     C5  180  14.602   5.534   6.763 -0.2156  0.4179  0.0732
   21XCA     C6  181  14.747   5.439   7.100  0.1269  0.0504  0.2998
   22PNCE   AM1  182   9.711   4.606   7.872 -0.0612 -0.2112  0.1401
   22PNCE   AM2  183   9.691   4.878   7.899  0.1902  0.2329 -0.3141
   22PNCE   T1A  184   9.526   4.522   7.483 -0.2563  0.0127  0.0189
   22PNCE   C2A  185   9.290   4.408   7.044 -0.0085 -0.0475  0.0161
   22PNCE   C3A  186   9.324   4.141   6.734 -0.2929 -0.0049  0.1535
   22PNCE   C1B  187   9.638   5.044   7.441  0.2269 -0.2599  0.1848
   22PNCE   C2B  188   9.690   5.061   6.943  0.1082  0.0114  0.0178
   22PNCE   C3B  189   9.655   5.133   6.486 -0.1666 -0.2329 -0.0408
   22PNCE   D4B  190   9.787   4.824   6.081  0.4338 -0.0755 -0.0367
   22PNCE   C5B  191   9.574   4.880   5.671  0.0970 -0.1546  0.2752
   22PNCE   C6B  192   9.618   5.080   5.321 -0.1246  0.3326  0.1759
   23PNCE   AM1  193  12.151   4.945   7.940 -0.0134  0.0113 -0.0348
   23PNCE   AM2  194  12.469   4.655   7.974  0.1413  0.2822  0.0858
   23PNCE   T1A  195  12.112   5.085   7.563  0.3134  0.0840  0.3418
   23PNCE   C2A  196  12.113   5.184   7.089 -0.1474 -0.0373  0.2092
   23PNCE   C3A  197  12.057   5.217   6.607 -0.0014  0.1384  0.0739
   23PNCE   C1B  198  12.263   4.548   7.590 -0.0833  0.1095  0.1355
   23PNCE   C2B  199  12.230   4.712   7.271 -0.2445  0.3081  0.0943
   23PNCE   C3B  200  11.915   4.749   6.948  0.1322  0.1241 -0.1546
   23PNCE   D4B  201  11.622   5.058   6.837 -0.0279  0.2149  0.2590
   23PNCE   C5B  202  11.752   5.503   6.933  0.1190  0.0969 -0.0545
   23PNCE   C6B  203  11.681   5.858   6.983 -0.1478 -0.1174 -0.1279
   24PNCE   AM1  204   4.255  10.077   7.530  0.0111  0.1217  0.0095
   24PNCE   AM2  205   3.998  10.210   7.605  0.2237 -0.2711 -0.4155
   24PNCE   T1A  206   4.380   9.844   7.083  0.2077 -0.4272  0.2863
   24PNCE   C2A  207   4.426   9.638   6.753 -0.1306  0.1235 -0.4828
   24PNCE   C3A  208   4.325   9.316   6.369 -0.0699 -0.2018 -0.0432
   24PNCE   C1B  209   3.841   9.949   7.192 -0.1318 -0.0362 -0.0957
   24PNCE   C2B  210   3.959   9.933   6.694 -0.1515 -0.0221  0.3486
   24PNCE   C3B  211   4.104  10.074   6.298  0.1919  0.1532 -0.1975
   24PNCE   D4B  212   4.057  10.356   6.089 -0.3107  0.0690 -0.1698
   24PNCE   C5B  213   4.256  10.649   5.993 -0.0181  0.0833 -0.0621
   24PNCE   C6B  214   4.528  10.691   5.813  0.0514 -0.1167 -0.0999
   25XCA    COO  215   0.965   8.454   4.207 -0.2492 -0.2883  0.1691
   25XCA     C1  216   1.108   8.537   4.602 -0.0236 -0.2525 -0.1096
   25XCA     C2  217   1.333   8.652   4.858 -0.1523 -0.0347 -0.1130
   25XCA     C3  218   1.513   8.678   5.321 -0.3261 -0.0640  0.7059
   25XCA     C4  219   1.520   8.755   5.744 -0.2580 -0.2218 -0.2349
   25XCA     C5  220   1.711   8.646   6.192 -0.1071 -0.4219  0.2364
   25XCA     C6  221   2.126   8.342   6.206  0.4604 -0.0522  0.2802
   26CHOL   ROH  222   8.933  14.281   8.586 -0.1584 -0.0351  0.2344
   26CHOL    R1  223   8.750  14.322   8.374  0.0191  0.1116  0.1092
   26CHOL    R2  224   8.831  14.366   8.114  0.2273 -0.1753  0.1249
   26CHOL    R3  225   8.666  14.156   8.061 -0.0634  0.0429  0.1668
   26CHOL    R4  226   8.634  14.335   7.832  0.2089  0.0281  0.1168
   26CHOL    R5  227   8.475  14.255   7.958  0.0854  0.2856  0.1245
   26CHOL    C1  228   8.364  14.121   7.618 -0.0752  0.3515  0.1511
   26CHOL    C2  229   8.018  14.153   7.478  0.0229 -0.1039 -0.1216
   27PNCE   AM1  230  15.058   9.164   7.308 -0.3921 -0.1962  0.0340
   27PNCE   AM2  231  14.753   9.194   7.385  0.0569 -0.0700 -0.3506
   27PNCE   T1A  232  15.037   9.050   6.929  0.0464  0.0960  0.1274
   27PNCE   C2A  233  14.896   8.752   6.644 -0.2952 -0.1510  0.1587
   27PNCE   C3A  234  15.029   8.842   6.350  0.3921 -0.1355 -0.0099
   27PNCE   C1B  235  14.768   9.434   6.915 -0.2568  0.0742  0.1780
   27PNCE   C2B  236  14.598   9.844   6.700 -0.0103  0.0136  0.0665
   27PNCE   C3B  237  14.788  10.021   6.266 -0.1376  0.1966  0.0374
   27PNCE   D4B  238  15.160   9.861   6.184 -0.0071 -0.0236 -0.3334
   27PNCE   C5B  239  15.546   9.917   5.910 -0.0245 -0.1558  0.0714
   27PNCE   C6B  240  15.853   9.570   5.819 -0.5117  0.0880  0.0286
   28CHOL   ROH  241  14.622  15.346   8.652 -0.3982 -0.1698 -0.0211
   28CHOL    R1  242  14.671  15.442   8.390 -0.2537 -0.1411  0.0162
   28CHOL    R2  243  14.892  15.367   8.242 -0.2271 -0.2088  0.0897
   28CHOL    R3  244  14.705  15.298   8.057 -0.1844 -0.0925  0.0026
   28CHOL    R4  245  14.962  15.264   7.920 -0.1416 -0.2627  0.1245
   28CHOL    R5  246  14.792  15.382   7.850 -0.0319 -0.1545  0.0412
   28CHOL    C1  247  14.827  15.138   7.559 -0.0512 -0.1840  0.0643
   28CHOL    C2  248  14.762  14.876   7.179  0.0022 -0.1594  0.2616
   29PNCE   AM1  249   9.498   1.497   8.345 -0.0946  0.0864  0.1019
   29PNCE   AM2  250   9.601   1.750   8.066  0.0903 -0.2529  0.1040
   29PNCE   T1A  251   9.289   1.383   7.862 -0.2249 -0.4490  0.1157
   29PNCE   C2A  252   9.266   1.217   7.395 -0.3307  0.2456 -0.1968
   29PNCE   C3A  253   9.619   1.475   7.094  0.1472 -0.0129 -0.0729
   29PNCE   C1B  254   9.652   1.804   7.656  0.1101  0.0224 -0.4218
   29PNCE   C2B  255   9.869   2.092   7.397  0.3650 -0.1199  0.0526
   29PNCE   C3B  256   9.986   2.288   7.079  0.2323  0.0007 -0.2635
   29PNCE   D4B  257  10.139   2.315   6.637 -0.1038 -0.2419 -0.2719
   29PNCE   C5B  258  10.400   2.571   6.426  0.0090  0.1012  0.0889
   29PNCE   C6B  259  10.934   2.545   6.437 -0.0771 -0.1430 -0.0246
   30XCA    COO  260  16.332  11.558   4.523 -0.0512 -0.0031  0.0078
   30XCA     C1  261  16.194  11.340   4.869  0.2286 -0.0862  0.0195
   30XCA     C2  262  16.089  11.204   5.303  0.0574  0.0456  0.4022
   30XCA     C3  263  15.919  11.228   5.735 -0.2526  0.0310 -0.2024
   30XCA     C4  264  16.036  11.238   6.176  0.0635  0.3334 -0.0055
   30XCA     C5  265  16.316  10.929   6.411 -0.2024 -0.3743 -0.0512
   30XCA     C6  266  16.612  10.507   6.482 -0.0119  0.0332 -0.0834
   31PNCE   AM1  267  15.744   1.836   8.364  0.4080 -0.0353 -0.0294
   31PNCE   AM2  268  16.008   2.194   8.405 -0.1546  0.2504  0.1312
   31PNCE   T1A  269  16.170   1.748   8.274 -0.2637  0.1553  0.3853
   31PNCE   C2A  270  16.471   1.739   7.869  0.0064  0.2075  0.0250
   31PNCE   C3A  271  16.336   1.993   7.468 -0.0308  0.0114 -0.1576
   31PNCE   C1B  272  16.232   2.184   7.983  0.1766  0.0083  0.0384
   31PNCE   C2B  273  16.025   2.395   7.633 -0.0686  0.0612 -0.0092
   31PNCE   C3B  274  15.640   2.278   7.422 -0.0038 -0.1055 -0.3844
   31PNCE   D4B  275  15.606   2.255   7.044 -0.1088 -0.1666 -0.2123
   31PNCE   C5B  276  15.923   2.427   6.691 -0.1432  0.0434  0.2656
   31PNCE   C6B  277  16.044   2.617   6.358  0.2816  0.1277  0.2057
   32XCA    COO  278   7.337   2.958   7.798 -0.2196 -0.1027  0.0883
   32XCA     C1  279   7.672   2.956   7.505  0.1132  0.2215 -0.3585
   32XCA     C2  280   7.811   3.077   7.192 -0.1070 -0.1992 -0.3908
   32XCA     C3  281   8.197   3.104   7.054  0.2534  0.1101  0.0574
   32XCA     C4  282   8.546   3.007   6.896  0.2395 -0.2621 -0.0923
   32XCA     C5  283   8.932   2.701   6.938 -0.0805  0.4646  0.0383
   32XCA     C6  284   9.294   2.873   7.033  0.0323 -0.1202  0.0158
   33CHOL   ROH  285   1.904   6.592   7.690  0.1705  0.1349 -0.0921
   33CHOL    R1  286   2.051   6.579   7.448  0.1240  0.1166 -0.1197
   33CHOL    R2  287   2.032   6.366   7.274  0.1791  0.0493 -0.0426
   33CHOL    R3  288   1.974   6.560   7.093  0.0558 -0.0373 -0.0965
   33CHOL    R4  289   2.050   6.327   6.931  0.2815 -0.0093 -0.0308
   33CHOL    R5  290   2.135   6.527   6.918  0.1183  0.0579 -0.0567
   33CHOL    C1  291   2.006   6.486   6.561  0.2251 -0.1252 -0.0743
   33CHOL    C2  292   2.204   6.192   6.360  0.0073  0.1330  0.0908
   34PNCE   AM1  293   8.607   8.158   3.997 -0.0768 -0.0012  0.1636
   34PNCE   AM2  294   8.608   7.864   4.119 -0.1481  0.0147  0.0056
   34PNCE   T1A  295   8.513   8.454   4.337 -0.0381 -0.4295  0.1137
   34PNCE   C2A  296   8.848   8.614   4.629  0.0075  0.4411  0.0187
   34PNCE   C3A  297   8.810   9.061   4.811  0.0120  0.1422  0.0584
   34PNCE   C1B  298   8.433   7.786   4.566 -0.1671  0.0212 -0.0870
   34PNCE   C2B  299   8.244   7.662   4.905  0.1130  0.0661 -0.0905
   34PNCE   C3B  300   7.981   7.254   5.064 -0.0019  0.2770 -0.2152
   34PNCE   D4B  301   7.874   6.847   5.255 -0.0601 -0.2460 -0.0689
   34PNCE   C5B  302   7.592   6.868   5.700 -0.0102 -0.1866  0.1040
   34PNCE   C6B  303   7.734   7.051   6.126  0.0525  0.4231 -0.3581
   35PNCE   AM1  304  14.532  10.452   4.270 -0.1961 -0.2256 -0.1182
   35PNCE   AM2  305  14.757  10.206   4.249  0.1009  0.1639 -0.0749
   35PNCE   T1A  306  14.301  10.433   4.656  0.1461 -0.0225  0.0090
   35PNCE   C2A  307  14.216  10.182   5.002 -0.1086  0.0008  0.2904
   35PNCE   C3A  308  14.158  10.071   5.508  0.2148 -0.2222  0.0084
   35PNCE   C1B  309  14.709  10.125   4.731 -0.4369  0.0724 -0.1015
   35PNCE   C2B  310  14.737   9.851   5.027  0.2197  0.2540 -0.1899
   35PNCE   C3B  311  14.581   9.415   5.125 -0.0574 -0.1265  0.0480
   35PNCE   D4B  312  14.404   9.016   5.083 -0.0793  0.1958 -0.1307
   35PNCE   C5B  313  14.491   8.789   4.654 -0.1343 -0.1186 -0.1386
   35PNCE   C6B  314  14.328   8.907   4.166  0.3378 -0.0731 -0.0469
   36PNCE   AM1  315   3.149   5.755   7.990 -0.0486  0.1653 -0.1104
   36PNCE   AM2  316   3.477   5.808   7.999 -0.1840  0.3969 -0.3796
   36PNCE   T1A  317   2.803   5.671   7.707  0.0274  0.3875 -0.0143
   36PNCE   C2A  318   2.566   5.510   7.292  0.0230 -0.0583 -0.0506
   36PNCE   C3A  319   2.117   5.385   7.023 -0.0734 -0.0874  0.0039
   36PNCE   C1B  320   3.657   5.682   7.574 -0.0781 -0.1154  0.0737
   36PNCE   C2B  321   3.556   5.503   7.249 -0.1828 -0.1537  0.0476
   36PNCE   C3B  322   3.466   5.307   6.901 -0.0556 -0.0343 -0.2088
   36PNCE   D4B  323   3.772   5.199   6.528 -0.0962  0.0554  0.2066
   36PNCE   C5B  324   3.704   4.785   6.349  0.1904 -0.2889 -0.2043
   36PNCE   C6B  325   4.004   4.492   6.524 -0.0383 -0.1883  0.2543
   37XCA    COO  326   8.261  13.009   8.602  0.1053 -0.2778 -0.0119
   37XCA     C1  327   8.587  12.995   8.181 -0.1568  0.3107 -0.2288
   37XCA     C2  328   8.736  13.257   7.772  0.0653 -0.0053  0.1063
   37XCA     C3  329   8.695  13.397   7.411 -0.3001  0.0745 -0.0042
   37XCA     C4  330   8.823  13.485   6.868 -0.1447 -0.2644  0.2353
   37XCA     C5  331   8.742  13.569   6.425  0.5106  0.1476 -0.0494
   37XCA     C6  332   8.648  13.555   6.024 -0.1858  0.1721  0.0080
   38CHOL   ROH  333   9.736   2.136   8.338  0.1428 -0.0458 -0.1516
   38CHOL    R1  334   9.591   2.251   8.124 -0.0253 -0.2662 -0.1564
   38CHOL    R2  335   9.706   2.422   7.940 -0.3277  0.0810 -0.0261
   38CHOL    R3  336   9.605   2.245   7.761  0.1413 -0.0583 -0.1542
   38CHOL    R4  337   9.643   2.492   7.608 -0.3123  0.0908 -0.0272
   38CHOL    R5  338   9.459   2.376   7.623 -0.0720 -0.3102 -0.1695
   38CHOL    C1  339   9.512   2.367   7.245  0.1372 -0.0340 -0.1476
   38CHOL    C2  340   9.340   2.278   6.813  0.3544 -0.0941 -0.1432
   39PNCE   AM1  341  15.599  16.032   4.424  0.1462 -0.1496 -0.0616
   39PNCE   AM2  342  15.697  15.805   4.362 -0.0104 -0.0658 -0.3059
   39PNCE   T1A  343  15.240  16.071   4.777 -0.1025  0.2465 -0.0015
   39PNCE   C2A  344  15.093  16.287   5.065  0.1064 -0.0131 -0.0949
   39PNCE   C3A  345  15.423  16.295   5.415  0.0806 -0.0996 -0.0216
   39PNCE   C1B  346  15.850  15.692   4.750  0.2010  0.1597 -0.1458
   39PNCE   C2B  347  15.970  15.567   5.209 -0.0043  0.1669  0.1280
   39PNCE   C3B  348  16.190  15.502   5.587  0.1959  0.1788  0.1153
   39PNCE   D4B  349  16.252  15.511   6.079  0.1160  0.0052 -0.2087
   39PNCE   C5B  350  16.405  15.535   6.406  0.0631 -0.1835  0.1370
   39PNCE   C6B  351  16.618  15.813   6.657 -0.0358 -0.0763 -0.1088
   40PNCE   AM1  352   3.879   0.792   8.386 -0.0702  0.2139  0.1580
   40PNCE   AM2  353   3.637   0.998   8.096 -0.1249 -0.2762 -0.0649
   40PNCE   T1A  354   4.299   0.739   8.278  0.1698 -0.0164 -0.0231
   40PNCE   C2A  355   4.748   1.031   8.215  0.1655 -0.0472  0.1142
   40PNCE   C3A  356   5.054   1.326   8.373  0.0635  0.2654  0.3499
   40PNCE   C1B  357   3.898   1.006   7.722 -0.1294 -0.1694  0.1630
   40PNCE   C2B  358   4.123   0.803   7.422 -0.5907  0.0200  0.0274
   40PNCE   C3B  359   4.401   1.035   7.158 -0.1267  0.1936 -0.0921
   40PNCE   D4B  360   4.675   0.961   6.916  0.1337  0.1907 -0.0059
   40PNCE   C5B  361   4.729   0.560   6.676 -0.0849 -0.0867  0.1513
   40PNCE   C6B  362   4.810   0.185   6.852  0.3464  0.0008  0.1565
   41CHOL   ROH  363   2.384  15.380   5.042 -0.1295  0.1267  0.2136
   41CHOL    R1  364   2.516  15.530   5.243  0.1684  0.0262  0.0944
   41CHOL    R2  365   2.440  15.521   5.508  0.1616  0.3715  0.1047
   41CHOL    R3  366   2.702  15.459   5.547  0.0437 -0.1039  0.1405
   41CHOL    R4  367   2.591  15.488   5.817  0.1428  0.4458  0.1216
   41CHOL    R5  368   2.767  15.590   5.737  0.3346 -0.0014 -0.0291
   41CHOL    C1  369   2.925  15.411   6.034  0.0215  0.0425  0.1652
   41CHOL    C2  370   3.025  15.765   6.294  0.0916  0.1980  0.2379
   42PNCE   AM1  371   8.423   0.167   9.003  0.2300  0.1040  0.0331
   42PNCE   AM2  372   8.671  -0.101   9.011  0.1858  0.0331 -0.0656
   42PNCE   T1A  373   8.143   0.117   8.662  0.0063 -0.2257  0.0456
   42PNCE   C2A  374   8.036  -0.078   8.243  0.1277 -0.1856  0.0363
   42PNCE   C3A  375   7.662  -0.278   8.097 -0.0122 -0.0436 -0.1307
   42PNCE   C1B  376   8.392  -0.319   8.644 -0.1278 -0.0062  0.2201
   42PNCE   C2B  377   8.125  -0.520   8.523 -0.1476 -0.2432  0.2857
   42PNCE   C3B  378   8.116  -0.619   8.127 -0.1366  0.2866  0.1571
   42PNCE   D4B  379   8.080  -0.380   7.737  0.1471  0.0999 -0.0483
   42PNCE   C5B  380   7.596  -0.348   7.536  0.1891  0.1164 -0.1226
   42PNCE   C6B  381   7.292  -0.096   7.720 -0.3385 -0.2911 -0.0581
   43PNCE   AM1  382  12.706   2.619   7.860 -0.2057  0.0757  0.0864
   43PNCE   AM2  383  12.441   2.486   8.106 -0.2120 -0.0304  0.0395
   43PNCE   T1A  384  12.829   2.839   7.455 -0.0926  0.4595 -0.1930
   43PNCE   C2A  385  12.708   3.160   7.190 -0.2662  0.4029 -0.0372
   43PNCE   C3A  386  12.615   3.424   6.772  0.0870 -0.0859 -0.1239
   43PNCE   C1B  387  12.285   2.383   7.695 -0.4210 -0.2043  0.1669
   43PNCE   C2B  388  12.575   2.412   7.411 -0.0157 -0.1380  0.2212
   43PNCE   C3B  389  12.870   2.164   7.329  0.0595 -0.2287  0.3901
   43PNCE   D4B  390  12.859   1.770   7.494  0.0574 -0.0445  0.0648
   43PNCE   C5B  391  12.489   1.482   7.340 -0.1132 -0.0828 -0.0149
   43PNCE   C6B  392  12.086   1.506   7.341  0.1539 -0.0709  0.3816
   44XCA    COO  393  15.643  14.039   4.843  0.2396  0.3033  0.0355
   44XCA     C1  394  15.511  14.276   5.250  0.1834 -0.0406 -0.1002
   44XCA     C2  395  15.557  14.361   5.660 -0.0543 -0.0591  0.3132
   44XCA     C3  396  15.504  14.526   6.030 -0.2888  0.0708 -0.0530
   44XCA     C4  397  15.575  14.854   6.279  0.1406 -0.2217 -0.1586
   44XCA     C5  398  15.466  15.189   6.394 -0.1100  0.4924 -0.0217
   44XCA     C6  399  15.185  15.483   6.545 -0.1826  0.1184  0.1858
   45CHOL   ROH  400   7.662  15.319   5.087 -0.1722 -0.0730 -0.0585
   45CHOL    R1  401   7.616  15.369   5.362 -0.2246 -0.0448 -0.0727
   45CHOL    R2  402   7.773  15.543   5.509 -0.1391 -0.1701 -0.0160
   45CHOL    R3  403   7.533  15.658   5.567 -0.0696  0.0138 -0.0931
   45CHOL    R4  404   7.692  15.689   5.811 -0.1833 -0.2604  0.0162
   45CHOL    R5  405   7.494  15.600   5.796 -0.2542 -0.0734 -0.1466
   45CHOL    C1  406   7.421  15.883   6.042 -0.1431 -0.1405 -0.0372
   45CHOL    C2  407   7.334  15.937   6.349 -0.0964 -0.1585  0.0236
   46CHOL   ROH  408   9.133  12.786   4.963 -0.0877 -0.1490  0.0298
   46CHOL    R1  409   9.292  12.871   5.181 -0.0224 -0.1106 -0.0322
   46CHOL    R2  410   9.231  13.093   5.332  0.0575 -0.0473 -0.0936
   46CHOL    R3  411   9.247  12.917   5.539  0.0639  0.0187 -0.0383
   46CHOL    R4  412   9.239  13.182   5.666  0.0162  0.0572 -0.1199
   46CHOL    R5  413   9.389  13.026   5.699  0.0353  0.0868 -0.0596
   46CHOL    C1  414   9.259  13.068   6.055 -0.0016  0.1784 -0.0836
   46CHOL    C2  415   9.265  13.175   6.442  0.1017  0.2110 -0.0223
   47XCA    COO  416   9.417   8.722   7.994  0.2197  0.0754  0.5181
   47XCA     C1  417   9.259   8.966   7.663 -0.0182  0.0596 -0.0359
   47XCA     C2  418   9.255   9.439   7.474 -0.1711 -0.1676  0.0466
   47XCA     C3  419   9.469   9.804   7.386 -0.0660  0.1311 -0.1323
   47XCA     C4  420   9.889   9.970   7.268 -0.2416  0.1298 -0.0432
   47XCA     C5  421  10.288   9.897   7.045 -0.0045 -0.1247 -0.3943
   47XCA     C6  422  10.560   9.979   6.789  0.0457  0.5193  0.1855
   48CHOL   ROH  423   1.178  10.627   4.606  0.0983  0.2689  0.2169
   48CHOL    R1  424   1.266  10.581   4.871 -0.0306 -0.0730  0.2007
   48CHOL    R2  425   1.268  10.779   5.064  0.4477 -0.1681  0.2946
   48CHOL    R3  426   1.121  10.599   5.205 -0.0062  0.1288  0.2007
   48CHOL    R4  427   1.301  10.719   5.402  0.3892 -0.5240  0.2372
   48CHOL    R5  428   1.275  10.506   5.362 -0.2125 -0.4234  0.0796
   48CHOL    C1  429   1.182  10.516   5.732 -0.0709 -0.4541  0.1160
   48CHOL    C2  430   1.426  10.261   5.987 -0.1685 -0.1498  0.0205
   49PNCE   AM1  431  14.904   3.349   8.093  0.1256  0.3994 -0.0816
   49PNCE   AM2  432  14.590   3.508   8.068 -0.1075 -0.1841  0.1219
   49PNCE   T1A  433  15.123   3.409   7.655 -0.0010  0.3484 -0.1373
   49PNCE   C2A  434  15.517   3.281   7.514  0.2134 -0.1658 -0.3178
   49PNCE   C3A  435  15.748   3.124   7.092 -0.1558 -0.1396 -0.3277
   49PNCE   C1B  436  14.629   3.293   7.671  0.1640  0.1862  0.0223
   49PNCE   C2B  437  14.838   3.243   7.310 -0.1156 -0.0486  0.0004
   49PNCE   C3B  438  15.099   3.221   6.981  0.0009  0.2763  0.1774
   49PNCE   D4B  439  15.213   3.080   6.623  0.2943  0.0406 -0.2044
   49PNCE   C5B  440  14.997   2.754   6.595  0.0342  0.3351  0.3572
   49PNCE   C6B  441  14.825   2.364   6.552  0.0169  0.1492  0.1177
   50PNCE   AM1  442   0.243  16.010   8.366 -0.1511  0.0122 -0.1538
   50PNCE   AM2  443   0.297  16.245   8.591 -0.1098 -0.1856  0.2891
   50PNCE   T1A  444   0.267  15.972   7.983  0.2238 -0.2383  0.3897
   50PNCE   C2A  445   0.155  15.717   7.620  0.2775 -0.0426 -0.0867
   50PNCE   C3A  446   0.097  15.749   7.162  0.0699  0.1860  0.2110
   50PNCE   C1B  447   0.217  16.467   8.147 -0.0464  0.1539 -0.1119
   50PNCE   C2B  448   0.063  16.604   7.850  0.0827 -0.0191 -0.0438
   50PNCE   C3B  449  -0.139  16.550   7.516 -0.0265  0.1482 -0.5798
   50PNCE   D4B  450  -0.471  16.615   7.328  0.1966 -0.3235  0.2851
   50PNCE   C5B  451  -0.612  17.017   7.277  0.0412 -0.4295  0.0933
   50PNCE   C6B  452  -0.720  17.461   7.417 -0.1355  0.0680 -0.2794
   51CHOL   ROH  453   6.275  15.226   8.100  0.2956 -0.0631  0.0224
   51CHOL    R1  454   6.335  15.454   7.943  0.1724 -0.0787 -0.0474
   51CHOL    R2  455   6.579  15.488   7.818  0.1296 -0.0165 -0.1134
   51CHOL    R3  456   6.425  15.519   7.596  0.0658 -0.1286 -0.0846
   51CHOL    R4  457   6.701  15.533   7.498  0.0377  0.0753 -0.1364
   51CHOL    R5  458   6.544  15.680   7.464 -0.0772 -0.0410 -0.1056
   51CHOL    C1  459   6.628  15.588   7.103 -0.0760  0.0243 -0.1219
   51CHOL    C2  460   6.737  15.393   6.762 -0.1884  0.0225  0.0983
   52PNCE   AM1  461   4.290  14.523   3.931 -0.0421  0.0904  0.1948
   52PNCE   AM2  462   4.560  14.568   4.039  0.0653  0.0382  0.1347
   52PNCE   T1A  463   3.900  14.528   4.003 -0.2567  0.2512 -0.3294
   52PNCE   C2A  464   3.746  14.417   4.514 -0.0437 -0.0656  0.0458
   52PNCE   C3A  465   3.875  14.021   4.935  0.1666  0.3471  0.2734
   52PNCE   C1B  466   4.434  14.686   4.511  0.2478 -0.0237  0.1906
   52PNCE   C2B  467   4.614  14.666   4.914 -0.0068  0.0333  0.0512
   52PNCE   C3B  468   4.529  14.567   5.306 -0.2182  0.0520  0.0492
   52PNCE   D4B  469   4.464  14.366   5.651  0.3455 -0.1235  0.1436
   52PNCE   C5B  470   4.690  14.169   5.932 -0.0404  0.0585  0.2175
   52PNCE   C6B  471   5.075  14.129   6.140 -0.4119  0.0141 -0.0384
   53PNCE   AM1  472   3.704   6.492   7.935 -0.1420 -0.2506  0.1207
   53PNCE   AM2  473   3.763   6.245   8.092  0.2998  0.4730  0.0415
   53PNCE   T1A  474   3.409   6.527   7.558  0.3327 -0.1827  0.2589
   53PNCE   C2A  475   3.406   6.388   7.180 -0.1197  0.1054  0.0379
   53PNCE   C3A  476   3.295   6.453   6.729 -0.2911  0.7069  0.3325
   53PNCE   C1B  477   3.834   6.162   7.618 -0.0383  0.0723  0.1765
   53PNCE   C2B  478   3.832   5.971   7.206 -0.1637 -0.1208  0.1378
   53PNCE   C3B  479   3.908   5.646   6.793 -0.2558 -0.0479  0.1703
   53PNCE   D4B  480   3.990   5.737   6.455 -0.1642  0.2070 -0.5502
   53PNCE   C5B  481   3.834   6.005   6.088 -0.0886 -0.0191 -0.1994
   53PNCE   C6B  482   3.429   6.118   5.990  0.2783  0.2634  0.0965
   54CHOL   ROH  483  10.084   7.750   7.720  0.1733  0.0394 -0.0504
   54CHOL    R1  484   9.928   7.741   7.483  0.3185 -0.0908 -0.1416
   54CHOL    R2  485   9.824   7.969   7.366 -0.0806 -0.2079 -0.0186
   54CHOL    R3  486   9.953   7.875   7.146  0.2327  0.2274 -0.0231
   54CHOL    R4  487   9.684   7.943   7.051  0.0367 -0.5610 -0.0420
   54CHOL    R5  488   9.786   7.751   7.027  0.6175 -0.2522 -0.0720
   54CHOL    C1  489   9.724   7.840   6.661  0.3976 -0.3579 -0.0600
   54CHOL    C2  490   9.466   8.149   6.551  0.1161 -0.2123  0.2310
   55XCA    COO  491   4.127   8.427   7.847  0.0734  0.1239  0.2365
   55XCA     C1  492   4.102   8.434   7.433  0.1918  0.1996 -0.0579
   55XCA     C2  493   4.202   8.296   6.985  0.1649 -0.0658 -0.1308
   55XCA     C3  494   4.384   8.344   6.663  0.0732 -0.0141  0.2573
   55XCA     C4  495   4.330   8.141   6.193 -0.2237  0.1128  0.1598
   55XCA     C5  496   4.027   7.834   6.069 -0.2783  0.0951 -0.1876
   55XCA     C6  497   3.749   7.523   5.961 -0.2350  0.0859 -0.3946
   56XCA    COO  498  15.612  14.799   4.351 -0.1274  0.0175  0.3903
   56XCA     C1  499  15.442  15.070   4.600  0.1217  0.2440  0.1546
   56XCA     C2  500  15.510  15.363   4.881  0.0870 -0.2067  0.2322
   56XCA     C3  501  15.348  15.641   5.053  0.1200 -0.1594  0.0221
   56XCA     C4  502  15.025  15.876   5.257  0.0831 -0.1592  0.1409
   56XCA     C5  503  14.905  15.831   5.649  0.0016  0.0346  0.0292
   56XCA     C6  504  14.872  16.110   5.998 -0.1226  0.1519  0.1494
   57CHOL   ROH  505   8.489   1.422   5.198  0.1474 -0.0873 -0.0681
   57CHOL    R1  506   8.465   1.430   5.480  0.2003 -0.2511 -0.0589
   57CHOL    R2  507   8.681   1.400   5.648  0.2749 -0.0681 -0.1219
   57CHOL    R3  508   8.594   1.636   5.750  0.0095 -0.2228  0.0106
   57CHOL    R4  509   8.788   1.538   5.947  0.3352  0.0244 -0.1860
   57CHOL    R5  510   8.583   1.598   5.986  0.2785 -0.2947  0.0124
   57CHOL    C1  511   8.769   1.840   6.216  0.1214 -0.0669 -0.0994
   57CHOL    C2  512   8.577   1.871   6.641  0.0907 -0.0464 -0.1015
   58CHOL   ROH  513  13.853  14.117   5.024 -0.2598  0.0251  0.1340
   58CHOL    R1  514  13.760  14.118   5.292 -0.0744  0.0138  0.1986
   58CHOL    R2  515  13.912  14.216   5.501  0.0349  0.0871  0.0848
   58CHOL    R3  516  13.692  14.369   5.547  0.0117  0.0118  0.2244
   58CHOL    R4  517  13.839  14.373   5.801  0.0811 -0.0858  0.1867
   58CHOL    R5  518  13.629  14.318   5.772  0.0858 -0.1211  0.2146
   58CHOL    C1  519  13.589  14.607   6.018  0.0834 -0.2575  0.3761
   58CHOL    C2  520  13.643  14.704   6.358  0.1048  0.1877  0.1472
   59CHOL   ROH  521   4.520   1.456   5.503  0.0999  0.2034 -0.1218
   59CHOL    R1  522   4.370   1.497   5.740  0.1109 -0.0916 -0.0639
   59CHOL    R2  523   4.473   1.450   5.991  0.2776  0.0486 -0.1066
   59CHOL    R3  524   4.394   1.706   6.036 -0.1490 -0.0940 -0.0410
   59CHOL    R4  525   4.361   1.572   6.295  0.5078 -0.1033  0.0403
   59CHOL    R5  526   4.209   1.686   6.187  0.1214 -0.4191  0.2480
   59CHOL    C1  527   4.221   1.884   6.513  0.2409 -0.3256  0.1873
   59CHOL    C2  528   4.238   2.191   6.761 -0.4300  0.2480  0.1805
   60PNCE   AM1  529  15.499   0.418   7.638  0.2971 -0.0663 -0.1709
   60PNCE   AM2  530  15.240   0.463   7.780  0.1818 -0.1479  0.3487
   60PNCE   T1A  531  15.466  -0.029   7.527  0.2458 -0.0601 -0.3308
   60PNCE   C2A  532  15.379  -0.360   7.255 -0.2143  0.0689  0.3136
   60PNCE   C3A  533  15.015  -0.569   6.999  0.0856  0.2509 -0.2637
   60PNCE   C1B  534  15.253   0.767   7.418  0.2999  0.0064  0.7024
   60PNCE   C2B  535  15.364   0.864   6.978 -0.0378 -0.3601  0.1155
   60PNCE   C3B  536  15.629   1.019   6.646 -0.0042 -0.0757  0.1044
   60PNCE   D4B  537  15.944   0.767   6.286  0.1860  0.1645  0.0714
   60PNCE   C5B  538  16.043   0.328   6.364  0.1992 -0.1758  0.2508
   60PNCE   C6B  539  15.896  -0.029   6.623 -0.1383 -0.0565  0.1085
   61PNCE   AM1  540  12.203   6.101   7.774 -0.2074 -0.0497  0.3205
   61PNCE   AM2  541  12.570   6.206   7.779 -0.1446 -0.0191 -0.2278
   61PNCE   T1A  542  11.853   6.020   7.486 -0.0677  0.0368 -0.0586
   61PNCE   C2A  543  11.562   5.637   7.395  0.2505  0.1674 -0.0642
   61PNCE   C3A  544  11.655   5.150   7.341  0.2306 -0.0898  0.0944
   61PNCE   C1B  545  12.322   6.348   7.393  0.0726  0.2860  0.1684
   61PNCE   C2B  546  11.981   6.261   6.995  0.3451 -0.0605  0.0070
   61PNCE   C3B  547  11.786   6.233   6.633  0.1588 -0.0409  0.0943
   61PNCE   D4B  548  11.505   6.014   6.396  0.1060  0.1097  0.0281
   61PNCE   C5B  549  11.465   5.713   6.042  0.0036 -0.1222 -0.1078
   61PNCE   C6B  550  11.128   5.548   5.791 -0.2232 -0.1994  0.2282
   62PNCE   AM1  551  11.616  11.634   8.388 -0.2763 -0.0398  0.1656
   62PNCE   AM2  552  11.481  11.369   8.477 -0.0510 -0.0129 -0.2842
   62PNCE   T1A  553  11.606  11.926   8.104  0.1195  0.0201  0.1051
   62PNCE   C2A  554  11.597  12.080   7.806 -0.1088 -0.1256  0.3032
   62PNCE   C3A  555  11.609  12.363   7.500 -0.6197 -0.0188 -0.1944
   62PNCE   C1B  556  11.177  11.500   8.127  0.0709 -0.2989  0.0160
   62PNCE   C2B  557  11.118  11.902   7.939 -0.0085  0.0977  0.1764
   62PNCE   C3B  558  10.915  12.331   7.860  0.2335  0.0959 -0.0060
   62PNCE   D4B  559  10.600  12.516   7.976  0.0819  0.0080  0.0856
   62PNCE   C5B  560  10.469  12.860   7.836 -0.0892  0.1021  0.0559
   62PNCE   C6B  561  10.378  13.036   7.452 -0.2528  0.1582  0.2408
   63PNCE   AM1  562   1.559   0.275   8.717  0.0278  0.0568  0.1208
   63PNCE   AM2  563   1.843   0.270   8.579 -0.2442  0.3219  0.0517
   63PNCE   T1A  564   1.379   0.444   8.333 -0.1341 -0.0274 -0.2207
   63PNCE   C2A  565   1.430   0.835   8.162 -0.1726 -0.1742 -0.3001
   63PNCE   C3A  566   1.121   1.238   8.053  0.3051 -0.3312 -0.0471
   63PNCE   C1B  567   1.840   0.488   8.214  0.2664 -0.1563 -0.0893
   63PNCE   C2B  568   1.639   0.496   7.785  0.0882  0.0399  0.0039
   63PNCE   C3B  569   1.390   0.500   7.361 -0.1010 -0.3428  0.3887
   63PNCE   D4B  570   1.042   0.744   7.113 -0.1597  0.0436 -0.0980
   63PNCE   C5B  571   0.604   0.745   7.122 -0.2381  0.0171 -0.0040
   63PNCE   C6B  572   0.203   0.887   6.917 -0.1773 -0.1832 -0.0694
   64PNCE   AM1  573  10.606   1.690   8.301 -0.0885  0.0367  0.2612
   64PNCE   AM2  574  10.701   1.932   8.206  0.0496  0.3374  0.0090
   64PNCE   T1A  575  10.439   1.325   8.031 -0.1410 -0.2501  0.0737
   64PNCE   C2A  576  10.341   1.162   7.627  0.0309  0.0044 -0.4829
   64PNCE   C3A  577  10.265   0.871   7.162  0.0563 -0.0915 -0.1767
   64PNCE   C1B  578  10.530   2.098   7.740  0.2340 -0.0924 -0.2942
   64PNCE   C2B  579  10.435   2.025   7.321  0.0695 -0.0065 -0.5070
   64PNCE   C3B  580  10.246   1.875   6.927  0.0480  0.1419  0.0337
   64PNCE   D4B  581  10.274   1.911   6.407 -0.2689  0.1018 -0.2421
   64PNCE   C5B  582  10.183   1.537   6.108 -0.0889  0.1186 -0.2638
   64PNCE   C6B  583  10.475   1.237   6.056  0.0877 -0.0874 -0.1347
   65PNCE   AM1  584   7.360   5.405   7.518  0.3359 -0.2482 -0.2575
   65PNCE   AM2  585   7.628   5.275   7.455 -0.4588 -0.1358 -0.1488
   65PNCE   T1A  586   7.387   5.560   7.115 -0.0387  0.0120  0.1364
   65PNCE   C2A  587   7.072   5.622   6.852 -0.0896 -0.1145  0.1108
   65PNCE   C3A  588   7.152   5.433   6.471 -0.2287 -0.0387 -0.0072
   65PNCE   C1B  589   7.551   5.053   7.075 -0.0694  0.0780 -0.1659
   65PNCE   C2B  590   7.523   5.289   6.731  0.1741  0.0561  0.0124
   65PNCE   C3B  591   7.528   5.764   6.579  0.3380  0.4730 -0.0950
   65PNCE   D4B  592   7.606   5.947   6.152  0.0463  0.2453  0.1024
   65PNCE   C5B  593   7.714   6.064   5.756 -0.0488  0.0013 -0.2852
   65PNCE   C6B  594   7.984   6.354   5.555 -0.1868 -0.1761  0.0772
   66CHOL   ROH  595   7.966   0.753   7.891  0.2582 -0.1091  0.0195
   66CHOL    R1  596   7.900   0.645   7.638  0.1647  0.0009 -0.0031
   66CHOL    R2  597   8.038   0.711   7.408  0.3107 -0.1772  0.0330
   66CHOL    R3  598   8.066   0.442   7.386 -0.0635 -0.2155  0.0211
   66CHOL    R4  599   8.089   0.542   7.111  0.2689 -0.2162  0.0482
   66CHOL    R5  600   7.953   0.387   7.181 -0.0043 -0.0282 -0.0629
   66CHOL    C1  601   8.145   0.190   6.917 -0.1078 -0.2749  0.0457
   66CHOL    C2  602   7.895   0.068   6.701 -0.1505  0.0816 -0.2664
   67PNCE   AM1  603   7.486   0.783   8.146  0.2332 -0.1796 -0.0394
   67PNCE   AM2  604   7.284   0.512   8.254 -0.0776 -0.2861  0.2793
   67PNCE   T1A  605   7.509   0.839   7.685 -0.0061 -0.2315 -0.0767
   67PNCE   C2A  606   7.569   0.693   7.249  0.1456  0.2872  0.1879
   67PNCE   C3A  607   7.325   0.543   6.908 -0.0927 -0.2153  0.2221
   67PNCE   C1B  608   7.615   0.352   7.875  0.1684  0.0853 -0.0795
   67PNCE   C2B  609   7.686   0.156   7.483  0.1498  0.0174 -0.0403
   67PNCE   C3B  610   7.779  -0.063   7.115  0.0377 -0.0003  0.1467
   67PNCE   D4B  611   7.569  -0.499   7.063  0.0006  0.3576  0.1118
   67PNCE   C5B  612   7.162  -0.525   6.867 -0.0352  0.4145 -0.0444
   67PNCE   C6B  613   6.872  -0.559   6.465  0.0790  0.1312 -0.2122
   68CHOL   ROH  614  12.917  13.278   4.795 -0.0013  0.0185  0.0567
   68CHOL    R1  615  12.837  13.138   5.028 -0.0310 -0.0176  0.0246
   68CHOL    R2  616  13.002  13.109   5.247 -0.0680 -0.0306  0.0502
   68CHOL    R3  617  12.790  13.215   5.380 -0.1010 -0.0672  0.0259
   68CHOL    R4  618  12.929  13.052   5.580 -0.0482  0.0253  0.0639
   68CHOL    R5  619  12.718  13.040   5.527 -0.0443 -0.0553  0.0679
   68CHOL    C1  620  12.687  13.119   5.899 -0.0680  0.0233  0.0495
   68CHOL    C2  621  12.760  12.988   6.307  0.1592 -0.0215 -0.0049
   69CHOL   ROH  622   3.545   2.739   7.991  0.0056 -0.1088  0.1937
   69CHOL    R1  623   3.477   2.675   7.724  0.1034  0.1367  0.1090
   69CHOL    R2  624   3.245   2.540   7.658  0.3098 -0.1347 -0.0654
   69CHOL    R3  625   3.206   2.753   7.494 -0.0197  0.0221  0.2150
   69CHOL    R4  626   3.099   2.523   7.346  0.7689 -0.0255 -0.2863
   69CHOL    R5  627   3.247   2.667   7.274  0.4965  0.4699  0.1340
   69CHOL    C1  628   2.977   2.714   7.009  0.7264  0.1855 -0.1520
   69CHOL    C2  629   2.751   2.433   6.886 -0.2502 -0.1141  0.3034
   70PNCE   AM1  630  14.192  15.291   8.320  0.2037  0.0391  0.3175
   70PNCE   AM2  631  14.534  14.990   8.362  0.1454  0.1280 -0.0324
   70PNCE   T1A  632  13.864  15.307   7.981 -0.0369 -0.0406 -0.0195
   70PNCE   C2A  633  13.791  15.477   7.639 -0.1279 -0.1557 -0.0656
   70PNCE   C3A  634  13.420  15.353   7.754 -0.0417 -0.2033  0.0653
   70PNCE   C1B  635  14.573  14.627   8.086  0.1171  0.0099 -0.3031
   70PNCE   C2B  636  14.695  14.285   7.827 -0.2409  0.0667 -0.1651
   70PNCE   C3B  637  14.509  14.157   7.495  0.0554  0.2189 -0.0289
   70PNCE   D4B  638  14.511  13.933   7.178  0.3038  0.1063 -0.0505
   70PNCE   C5B  639  14.853  13.609   7.018 -0.1456 -0.0979  0.4169
   70PNCE   C6B  640  14.921  13.262   6.665 -0.1683 -0.0454 -0.2610
   71PNCE   AM1  641   0.521   7.637   7.644 -0.2329  0.1426 -0.1191
   71PNCE   AM2  642   0.455   8.028   7.659 -0.0922 -0.1899 -0.0290
   71PNCE   T1A  643   0.687   7.732   7.334  0.1215  0.0138  0.0677
   71PNCE   C2A  644   0.630   7.827   6.926 -0.0671  0.0660  0.2245
   71PNCE   C3A  645   0.567   7.739   6.497 -0.2427 -0.1607 -0.1235
   71PNCE   C1B  646   0.452   8.288   7.278  0.1933 -0.1440 -0.0276
   71PNCE   C2B  647   0.490   8.551   6.947  0.0213 -0.2211 -0.1904
   71PNCE   C3B  648   0.592   8.956   6.951  0.0763  0.0387 -0.0433
   71PNCE   D4B  649   0.617   9.217   7.198 -0.4968 -0.3423 -0.1186
   71PNCE   C5B  650   0.320   9.316   7.529  0.1132 -0.1716  0.2961
   71PNCE   C6B  651  -0.074   9.377   7.856 -0.3184  0.1471 -0.2020
   72PNCE   AM1  652   3.461   3.622   7.905  0.1227 -0.0989  0.2488
   72PNCE   AM2  653   3.686   3.433   7.930 -0.0115 -0.0235 -0.0447
   72PNCE   T1A  654   3.194   3.938   7.766  0.0016  0.0316 -0.1014
   72PNCE   C2A  655   2.973   4.098   7.449  0.3837 -0.1593  0.1376
   72PNCE   C3A  656   2.609   3.874   7.279 -0.3201  0.1765 -0.1852
   72PNCE   C1B  657   3.794   3.398   7.551 -0.3464  0.3656 -0.0190
   72PNCE   C2B  658   3.951   3.736   7.122 -0.0777 -0.1243 -0.0760
   72PNCE   C3B  659   3.800   3.939   6.737 -0.2428 -0.1356  0.1382
   72PNCE   D4B  660   3.436   4.022   6.517  0.1215  0.0104 -0.1387
   72PNCE   C5B  661   3.575   4.360   6.295 -0.2150 -0.0102  0.1453
   72PNCE   C6B  662   3.204   4.631   6.092  0.0831 -0.2039  0.1345
   73CHOL   ROH  663   5.412   4.469   7.493 -0.0380  0.2071 -0.0881
   73CHOL    R1  664   5.270   4.487   7.248  0.0477  0.2646 -0.1338
   73CHOL    R2  665   5.391   4.564   7.012  0.2158 -0.0449 -0.1487
   73CHOL    R3  666   5.288   4.329   6.921 -0.0943  0.0474 -0.0368
   73CHOL    R4  667   5.315   4.497   6.681 -0.0451 -0.0362 -0.0901
   73CHOL    R5  668   5.134   4.395   6.749 -0.1197  0.1776  0.0358
   73CHOL    C1  669   5.173   4.238   6.403 -0.4886  0.0554  0.0489
   73CHOL    C2  670   4.946   4.266   6.126 -0.1449 -0.1540  0.1476
   74CHOL   ROH  671   0.937   7.958   4.360  0.2344  0.1443 -0.0573
   74CHOL    R1  672   0.896   8.110   4.595  0.2301  0.1183 -0.0415
   74CHOL    R2  673   0.906   7.999   4.848  0.1614  0.0793 -0.0565
   74CHOL    R3  674   1.089   8.195   4.892  0.1998  0.0297  0.0035
   74CHOL    R4  675   0.940   8.174   5.144  0.1844 -0.0057 -0.0083
   74CHOL    R5  676   0.972   8.355   5.027  0.2269  0.0172  0.0410
   74CHOL    C1  677   1.131   8.461   5.357  0.2341 -0.1021  0.0762
   74CHOL    C2  678   1.218   8.335   5.724 -0.0912  0.3337  0.2410
   75PNCE   AM1  679   3.369  11.409   7.404  0.2529 -0.1055  0.2859
   75PNCE   AM2  680   3.496  11.197   7.192  0.0513 -0.1930 -0.0533
   75PNCE   T1A  681   3.461  11.694   7.097 -0.0313  0.0473  0.0318
   75PNCE   C2A  682   3.802  11.848   6.773  0.1194 -0.1449  0.1149
   75PNCE   C3A  683   3.978  12.202   6.564  0.0441 -0.3067  0.2677
   75PNCE   C1B  684   3.519  11.329   6.758 -0.3260  0.0195 -0.2105
   75PNCE   C2B  685   3.571  11.428   6.312  0.1359 -0.0603  0.0627
   75PNCE   C3B  686   3.344  11.619   5.907 -0.4254  0.1022 -0.1270
   75PNCE   D4B  687   3.015  11.752   5.673 -0.0035  0.1869 -0.0639
   75PNCE   C5B  688   2.723  11.599   5.565 -0.2185  0.3751 -0.1330
   75PNCE   C6B  689   2.888  11.180   5.369  0.2381 -0.0189  0.2365
   76XCA    COO  690   2.396  12.876   3.956  0.1601 -0.1355 -0.1543
   76XCA     C1  691   2.684  13.149   4.142  0.1409 -0.2218  0.0952
   76XCA     C2  692   2.879  13.048   4.552 -0.0160 -0.0432 -0.0477
   76XCA     C3  693   2.779  12.819   4.865 -0.0934 -0.2602 -0.1083
   76XCA     C4  694   2.854  12.705   5.230 -0.0067  0.0703 -0.0913
   76XCA     C5  695   3.032  12.608   5.677 -0.1239 -0.0477 -0.0112
   76XCA     C6  696   3.264  12.707   6.073  0.0925  0.0562 -0.2255
   77CHOL   ROH  697  14.743   6.713   7.442  0.1824  0.4109 -0.1527
   77CHOL    R1  698  14.820   6.690   7.170  0.2322  0.1736 -0.1187
   77CHOL    R2  699  14.949   6.467   7.071  0.0014 -0.0319  0.0390
   77CHOL    R3  700  14.745   6.468   6.892  0.0529  0.1084 -0.0187
   77CHOL    R4  701  14.949   6.296   6.771 -0.1550 -0.2792  0.1807
   77CHOL    R5  702  14.853   6.468   6.678  0.1135 -0.2201  0.0112
   77CHOL    C1  703  14.756   6.196   6.428 -0.1982 -0.2917  0.2088
   77CHOL    C2  704  14.676   5.768   6.286 -0.0670 -0.4082  0.1024
   78PNCE   AM1  705   7.084  14.170   8.651  0.3467 -0.1566  0.0734
   78PNCE   AM2  706   7.229  13.995   8.719 -0.2327  0.3688 -0.1630
   78PNCE   T1A  707   7.129  14.244   8.169  0.2395 -0.2540  0.0353
   78PNCE   C2A  708   6.989  14.473   7.778  0.0751 -0.2429 -0.4266
   78PNCE   C3A  709   7.086  14.377   7.423  0.2616  0.2681 -0.1312
   78PNCE   C1B  710   7.568  13.865   8.677  0.2994 -0.0262 -0.3046
   78PNCE   C2B  711   7.949  13.933   8.574  0.2684  0.3396  0.0888
   78PNCE   C3B  712   8.235  13.819   8.278 -0.0575  0.2339  0.0272
   78PNCE   D4B  713   8.350  13.640   7.895 -0.0005  0.0436  0.2894
   78PNCE   C5B  714   8.727  13.829   7.672 -0.3151  0.1647 -0.0900
   78PNCE   C6B  715   9.089  13.707   7.661 -0.1603  0.5478  0.0964
   79XCA    COO  716  16.296   0.678   4.492  0.1593  0.1569  0.1471
   79XCA     C1  717  16.148   0.864   4.948  0.2079  0.3358  0.0395
   79XCA     C2  718  16.091   0.808   5.418  0.2435  0.0816  0.2765
   79XCA     C3  719  15.927   0.804   5.748  0.1276 -0.2076 -0.1006
   79XCA     C4  720  15.522   0.821   6.005 -0.2510 -0.3179 -0.0272
   79XCA     C5  721  15.188   0.998   5.857 -0.3045 -0.5366 -0.2983
   79XCA     C6  722  15.101   1.101   5.485  0.1057  0.1959 -0.0523
   80PNCE   AM1  723  11.007   5.733   7.967  0.2458  0.0885 -0.4618
   80PNCE   AM2  724  10.734   5.862   7.819  0.1587 -0.3700  0.0629
   80PNCE   T1A  725  11.125   5.512   7.630 -0.2758 -0.0290 -0.1287
   80PNCE   C2A  726  11.175   5.325   7.210 -0.2229 -0.0394  0.2187
   80PNCE   C3A  727  11.129   5.184   6.821 -0.0187 -0.3031  0.2209
   80PNCE   C1B  728  10.707   5.816   7.359  0.1660  0.3204 -0.1801
   80PNCE   C2B  729  10.693   5.511   7.005 -0.0907 -0.1297  0.1720
   80PNCE   C3B  730  10.644   5.361   6.695 -0.1992 -0.0667  0.0750
   80PNCE   D4B  731  10.584   5.467   6.298  0.1570 -0.3316  0.3747
   80PNCE   C5B  732  10.696   5.292   5.899 -0.0709  0.1068  0.0179
   80PNCE   C6B  733  10.807   5.426   5.430  0.3312  0.1166 -0.1954
   81XCA    COO  734  13.821   9.529   7.728  0.2113 -0.0376 -0.1470
   81XCA     C1  735  13.850   9.334   7.347  0.0687 -0.1491 -0.2451
   81XCA     C2  736  13.712   9.227   6.948 -0.1442  0.2272 -0.1220
   81XCA     C3  737  13.696   9.114   6.488  0.0783  0.1135 -0.3339
   81XCA     C4  738  13.558   9.007   6.224 -0.1818  0.0736  0.1002
   81XCA     C5  739  13.172   9.129   6.329  0.0284  0.0720  0.0936
   81XCA     C6  740  12.969   9.315   6.015 -0.0774  0.1004 -0.3008
   82CHOL   ROH  741   2.540   3.301   6.569  0.1882  0.1344  0.0785
   82CHOL    R1  742   2.547   3.018   6.584  0.1558  0.1284 -0.0184
   82CHOL    R2  743   2.533   2.882   6.824  0.1570  0.0483 -0.0636
   82CHOL    R3  744   2.327   2.754   6.702  0.1328  0.1143 -0.0923
   82CHOL    R4  745   2.304   2.681   6.985  0.0982  0.0839 -0.1025
   82CHOL    R5  746   2.312   2.544   6.816  0.0747  0.1034 -0.1197
   82CHOL    C1  747   1.976   2.444   6.966  0.0413  0.1664 -0.1526
   82CHOL    C2  748   1.808   2.086   6.900  0.2182  0.1189 -0.0324
   83CHOL   ROH  749  12.776  13.602   8.477 -0.1328 -0.1467  0.1240
   83CHOL    R1  750  12.718  13.606   8.200 -0.0572 -0.0973  0.1087
   83CHOL    R2  751  12.855  13.766   8.021  0.0616 -0.1410  0.1593
   83CHOL    R3  752  12.895  13.530   7.891 -0.0065 -0.1478  0.1498
   83CHOL    R4  753  12.944  13.737   7.688  0.3119 -0.1459  0.2272
   83CHOL    R5  754  12.807  13.568   7.672  0.2007 -0.0420  0.0842
   83CHOL    C1  755  13.033  13.499   7.372  0.3947 -0.1548  0.2568
   83CHOL    C2  756  13.059  13.312   7.036 -0.2782 -0.0333  0.1376
   84PNCE   AM1  757  11.627   7.891   7.884  0.1372 -0.0584  0.0646
   84PNCE   AM2  758  11.971   7.773   7.759 -0.0867  0.0696  0.0856
   84PNCE   T1A  759  11.141   8.006   7.842 -0.2191 -0.0771 -0.3655
   84PNCE   C2A  760  10.787   8.247   7.628 -0.0331 -0.1215  0.2645
   84PNCE   C3A  761  10.273   8.190   7.624 -0.1661 -0.4135  0.3045
   84PNCE   C1B  762  12.232   8.082   7.477 -0.1532 -0.1331  0.3626
   84PNCE   C2B  763  12.474   8.079   7.113  0.1069  0.0216  0.0972
   84PNCE   C3B  764  12.647   8.017   6.734  0.3298  0.0013 -0.1745
   84PNCE   D4B  765  12.898   7.784   6.411 -0.4222 -0.3976 -0.1586
   84PNCE   C5B  766  12.766   7.360   6.194  0.0481 -0.5379 -0.0323
   84PNCE   C6B  767  12.621   7.247   5.827  0.1314 -0.0615  0.0030
   85PNCE   AM1  768  13.067   4.058   7.705  0.0095 -0.0054 -0.0918
   85PNCE   AM2  769  12.966   3.783   7.989 -0.2429  0.2492  0.1060
   85PNCE   T1A  770  13.128   4.157   7.308 -0.0376 -0.0073 -0.0770
   85PNCE   C2A  771  13.198   4.272   6.863 -0.2480  0.0387  0.1473
   85PNCE   C3A  772  13.044   4.307   6.451  0.0018  0.1085 -0.0611
   85PNCE   C1B  773  12.685   3.709   7.621 -0.0600 -0.4574  0.0949
   85PNCE   C2B  774  12.793   3.681   7.274  0.5534 -0.0439  0.2117
   85PNCE   C3B  775  12.701   3.970   6.926  0.0315 -0.0913 -0.2580
   85PNCE   D4B  776  12.426   4.057   6.585 -0.1669 -0.1384  0.0269
   85PNCE   C5B  777  12.556   4.123   6.203 -0.1902  0.0211  0.1601
   85PNCE   C6B  778  13.037   4.013   5.986 -0.0599 -0.0005  0.0005
   86CHOL   ROH  779  13.438  13.728   6.634  0.1277  0.0214  0.1754
   86CHOL    R1  780  13.351  13.793   6.895  0.0515 -0.0372  0.1643
   86CHOL    R2  781  13.396  13.628   7.113  0.0440 -0.0561  0.1519
   86CHOL    R3  782  13.506  13.853   7.219 -0.0369 -0.0434  0.2082
   86CHOL    R4  783  13.380  13.717   7.446  0.1140 -0.2065  0.1950
   86CHOL    R5  784  13.348  13.924   7.384 -0.0176 -0.1969  0.2937
   86CHOL    C1  785  13.474  13.980   7.740  0.0778 -0.2820  0.2736
   86CHOL    C2  786  13.303  13.756   7.936 -0.2317  0.1852 -0.0110
   87PNCE   AM1  787   9.795   0.615   8.324  0.1527 -0.1105  0.1811
   87PNCE   AM2  788   9.966   0.974   8.390  0.1177 -0.0487 -0.0825
   87PNCE   T1A  789   9.727   0.304   8.104 -0.2427  0.1025 -0.1672
   87PNCE   C2A  790   9.509  -0.097   7.940  0.0887 -0.3750 -0.5535
   87PNCE   C3A  791   9.444  -0.455   7.642 -0.4296  0.0226  0.0603
   87PNCE   C1B  792  10.027   0.885   7.936 -0.1334 -0.1098  0.1877
   87PNCE   C2B  793  10.100   0.654   7.601  0.4505 -0.1329 -0.2790
   87PNCE   C3B  794   9.829   0.213   7.606 -0.0748 -0.2515 -0.0492
   87PNCE   D4B  795   9.621  -0.101   7.432  0.1807 -0.1400 -0.2360
   87PNCE   C5B  796   9.554  -0.401   7.093  0.0070  0.0873 -0.1528
   87PNCE   C6B  797   9.194  -0.588   6.887 -0.1092  0.2214  0.2261
   88XCA    COO  798   3.168   5.840   4.532  0.3121  0.2729 -0.1260
   88XCA     C1  799   3.045   5.784   4.970 -0.0398  0.3056  0.2181
   88XCA     C2  800   3.287   5.942   5.337 -0.1831 -0.1947  0.1531
   88XCA     C3  801   3.660   5.943   5.554 -0.1487  0.0822  0.1141
   88XCA     C4  802   3.964   6.123   5.485 -0.6007 -0.0655  0.3578
   88XCA     C5  803   4.387   6.390   5.584 -0.0981 -0.2632  0.0375
   88XCA     C6  804   4.860   6.448   5.651 -0.2089  0.0333 -0.0812
   89CHOL   ROH  805   2.565   7.654   4.127 -0.1794 -0.1785  0.1525
   89CHOL    R1  806   2.494   7.761   4.379 -0.2108  0.0548  0.0451
   89CHOL    R2  807   2.679   7.876   4.549 -0.1755 -0.0852  0.1027
   89CHOL    R3  808   2.506   8.086   4.541  0.0979  0.1317 -0.1311
   89CHOL    R4  809   2.688   8.147   4.764 -0.2700 -0.2103  0.2644
   89CHOL    R5  810   2.470   8.142   4.772 -0.2939  0.0539 -0.1736
   89CHOL    C1  811   2.531   8.502   4.882 -0.0686 -0.0798  0.1394
   89CHOL    C2  812   2.692   8.800   5.093 -0.0097 -0.3409  0.1252
   90CHOL   ROH  813   5.076   6.772   7.309 -0.0527 -0.3137  0.0956
   90CHOL    R1  814   4.947   6.638   7.095 -0.1574 -0.1547  0.0587
   90CHOL    R2  815   4.813   6.772   6.895  0.0437  0.0102  0.0342
   90CHOL    R3  816   4.977   6.628   6.733 -0.0850 -0.1707  0.0648
   90CHOL    R4  817   4.766   6.727   6.555  0.1605  0.2177 -0.0093
   90CHOL    R5  818   4.828   6.520   6.579 -0.1640  0.1142 -0.0589
   90CHOL    C1  819   4.892   6.566   6.206  0.1071  0.1688 -0.0060
   90CHOL    C2  820   4.823   6.908   5.949 -0.1059  0.1128 -0.2095
   91CHOL   ROH  821  10.541  13.973   7.417  0.1753  0.4504 -0.2256
   91CHOL    R1  822  10.305  14.014   7.266  0.0424  0.1907 -0.0882
   91CHOL    R2  823  10.106  13.824   7.245  0.1507  0.0473  0.1870
   91CHOL    R3  824   9.947  14.027   7.331  0.0803  0.0048  0.1553
   91CHOL    R4  825   9.777  13.869   7.152  0.1616 -0.0315  0.1092
   91CHOL    R5  826   9.815  14.083   7.140  0.1125 -0.0224  0.1249
   91CHOL    C1  827   9.435  14.086   7.178  0.1021 -0.1174  0.0340
   91CHOL    C2  828   9.221  13.884   7.153  0.3776 -0.0977  0.1358
   92PNCE   AM1  829  11.383   9.665   7.809 -0.3819  0.2587  0.1161
   92PNCE   AM2  830  11.314   9.979   7.941  0.1839 -0.2386  0.3550
   92PNCE   T1A  831  11.665   9.897   7.427 -0.0641 -0.1385 -0.0555
   92PNCE   C2A  832  11.881   9.826   7.024  0.2476 -0.1995  0.1893
   92PNCE   C3A  833  11.832   9.697   6.542  0.1188 -0.2206 -0.1099
   92PNCE   C1B  834  11.589  10.379   7.772 -0.0605  0.0033  0.0139
   92PNCE   C2B  835  11.526  10.720   7.529  0.3291 -0.1530  0.0394
   92PNCE   C3B  836  11.307  11.052   7.401 -0.0019  0.0791 -0.0514
   92PNCE   D4B  837  10.917  11.345   7.201 -0.3387  0.1396  0.1529
   92PNCE   C5B  838  10.615  11.649   7.351  0.2810  0.1141 -0.0392
   92PNCE   C6B  839  10.181  11.852   7.429 -0.2024  0.0078  0.2325
   93CHOL   ROH  840   9.444   5.485   7.509 -0.0626 -0.2713  0.0811
   93CHOL    R1  841   9.311   5.394   7.276 -0.0539 -0.1433  0.0262
   93CHOL    R2  842   9.198   5.567   7.093  0.0861 -0.0379  0.0395
   93CHOL    R3  843   9.354   5.431   6.916  0.0563 -0.0798  0.0453
   93CHOL    R4  844   9.170   5.586   6.749  0.0978 -0.0377  0.0384
   93CHOL    R5  845   9.204   5.371   6.739  0.0448 -0.0463  0.0436
   93CHOL    C1  846   9.299   5.469   6.383  0.0770 -0.0765  0.0434
   93CHOL    C2  847   9.028   5.594   6.303 -0.0666 -0.0346 -0.1454
   94XCA    COO  848  13.894  11.035   7.851 -0.4503  0.0051  0.2978
   94XCA     C1  849  13.719  10.540   7.742 -0.1078  0.1960  0.3069
   94XCA     C2  850  13.297  10.359   7.548 -0.0928  0.1200  0.1874
   94XCA     C3  851  13.341  10.103   7.239 -0.2529 -0.3923 -0.2860
   94XCA     C4  852  13.190   9.991   6.894 -0.1733  0.0228  0.0101
   94XCA     C5  853  13.232  10.088   6.401  0.1664  0.1691 -0.2337
   94XCA     C6  854  13.249  10.264   6.057 -0.0943 -0.0949  0.1382
   95CHOL   ROH  855  11.959   5.614   4.322  0.2176 -0.0006  0.2104
   95CHOL    R1  856  11.753   5.654   4.512  0.1106  0.0968  0.0741
   95CHOL    R2  857  11.522   5.794   4.455  0.1261  0.0356 -0.1391
   95CHOL    R3  858  11.401   5.567   4.544  0.1023  0.0783 -0.0625
   95CHOL    R4  859  11.188   5.769   4.538  0.1602  0.1423  0.0305
   95CHOL    R5  860  11.244   5.644   4.708  0.2084  0.1371  0.0107
   95CHOL    C1  861  10.879   5.542   4.670  0.1580  0.2445  0.2013
   95CHOL    C2  862  10.699   5.433   4.971  0.1196  0.0271  0.1096
   96XCA    COO  863  14.268   4.073   7.693  0.1127  0.1398  0.1248
   96XCA     C1  864  14.395   3.771   7.379 -0.1663  0.2933 -0.1157
   96XCA     C2  865  14.711   3.630   7.038  0.1134 -0.0640 -0.2558
   96XCA     C3  866  15.028   3.533   6.595  0.0329  0.4751 -0.1632
   96XCA     C4  867  14.896   3.601   6.196  0.1543  0.0092  0.0025
   96XCA     C5  868  14.891   3.646   5.793  0.0271 -0.1703  0.0635
   96XCA     C6  869  14.663   3.521   5.485  0.2117  0.2104 -0.0691
   97PNCE   AM1  870  14.150  14.106   8.606  0.4054 -0.2295  0.3251
   97PNCE   AM2  871  14.169  13.752   8.555  0.0949 -0.2000  0.0273
   97PNCE   T1A  872  14.186  13.986   8.152 -0.0432  0.4093 -0.2066
   97PNCE   C2A  873  14.246  13.729   7.724 -0.2186 -0.0839  0.2016
   97PNCE   C3A  874  14.337  13.408   7.393 -0.2048  0.0700 -0.1324
   97PNCE   C1B  875  14.074  13.447   8.331  0.1660 -0.0945 -0.0338
   97PNCE   C2B  876  14.147  13.271   7.872 -0.2454 -0.3444  0.2082
   97PNCE   C3B  877  14.251  12.936   7.665 -0.0612  0.0098  0.1594
   97PNCE   D4B  878  14.367  12.620   7.367 -0.1703 -0.2032  0.0334
   97PNCE   C5B  879  14.119  12.501   6.978 -0.3171  0.0684 -0.0701
   97PNCE   C6B  880  13.775  12.331   6.823 -0.1276 -0.3855 -0.2307
   98PNCE   AM1  881  11.702   6.933   7.442  0.0957  0.0861  0.0363
   98PNCE   AM2  882  11.391   6.709   7.504  0.1807 -0.0765 -0.1576
   98PNCE   T1A  883  11.624   6.914   7.040  0.1701  0.1377 -0.0221
   98PNCE   C2A  884  11.201   6.828   6.707 -0.3583 -0.2073 -0.1994
   98PNCE   C3A  885  10.969   6.709   6.301  0.0615 -0.0321  0.0163
   98PNCE   C1B  886  11.048   6.734   7.198 -0.3743 -0.1401  0.2552
   98PNCE   C2B  887  10.627   6.612   6.992  0.0365  0.1240  0.1520
   98PNCE   C3B  888  10.328   6.417   7.190 -0.2305  0.1999  0.1568
   98PNCE   D4B  889   9.941   6.181   7.022  0.1528  0.3416 -0.2498
   98PNCE   C5B  890   9.956   6.061   6.618 -0.2544 -0.2098  0.0068
   98PNCE   C6B  891   9.785   6.048   6.313  0.0795  0.1102  0.2251
   99PNCE   AM1  892   6.852  16.321   8.925 -0.2700  0.0088  0.0933
   99PNCE   AM2  893   7.168  16.228   8.939 -0.1544 -0.0633  0.1019
   99PNCE   T1A  894   6.802  16.390   8.492 -0.0061 -0.1235 -0.0795
   99PNCE   C2A  895   6.910  16.464   8.066  0.2447  0.2396  0.0188
   99PNCE   C3A  896   6.710  16.569   7.701  0.3970  0.0157 -0.0248
   99PNCE   C1B  897   7.042  15.960   8.580 -0.1011  0.1388 -0.1123
   99PNCE   C2B  898   7.154  15.943   8.124  0.0338 -0.0631 -0.1666
   99PNCE   C3B  899   7.066  15.585   7.819  0.0251 -0.0895  0.2413
   99PNCE   D4B  900   6.967  15.185   7.538 -0.1378 -0.0576  0.0464
   99PNCE   C5B  901   6.513  15.168   7.241 -0.2742 -0.0322 -0.0755
   99PNCE   C6B  902   6.407  14.915   6.962  0.4597  0.0020 -0.4108
  100CHOL   ROH  903   0.247   0.200   4.927  0.0362 -0.1641  0.0700
  100CHOL    R1  904   0.486   0.151   5.071  0.1551 -0.0357 -0.0834
  100CHOL    R2  905   0.663   0.352   5.138 -0.0365  0.0973  0.0259
  100CHOL    R3  906   0.629   0.254   5.389  0.1839 -0.1767 -0.0504
  100CHOL    R4  907   0.851   0.444   5.412  0.0077  0.0222  0.0203
  100CHOL    R5  908   0.851   0.235   5.476  0.2459 -0.0393 -0.1781
  100CHOL    C1  909   0.929   0.406   5.808  0.2403 -0.2787 -0.0542
  100CHOL    C2  910   1.224   0.495   6.070  0.0903 -0.0043  0.1045
  101XCA    COO  911   0.035   7.742   7.484 -0.2224  0.0810 -0.0769
  101XCA     C1  912   0.235   7.566   7.151  0.1372 -0.2846  0.0731
  101XCA     C2  913   0.422   7.323   6.873  0.5284 -0.1756 -0.1226
  101XCA     C3  914   0.604   7.268   6.418  0.0122  0.0781 -0.0233
  101XCA     C4  915   0.516   7.275   6.102 -0.0465  0.0418 -0.0687
  101XCA     C5  916   0.559   7.013   5.789 -0.2733  0.1316  0.0817
  101XCA     C6  917   0.641   6.691   5.467  0.0480  0.0717  0.0548
  102PNCE   AM1  918   7.267  12.364   8.396  0.0763  0.3240 -0.0849
  102PNCE   AM2  919   7.010  12.233   8.252 -0.2095 -0.0460 -0.1188
  102PNCE   T1A  920   7.661  12.532   8.323  0.1023  0.2513  0.3565
  102PNCE   C2A  921   7.971  12.724   8.085 -0.3295 -0.0385 -0.4648
  102PNCE   C3A  922   8.030  12.509   7.720  0.0752 -0.1911 -0.0182
  102PNCE   C1B  923   6.994  12.252   7.898  0.0669 -0.0941 -0.1709
  102PNCE   C2B  924   7.084  12.098   7.488 -0.0043  0.2068  0.0198
  102PNCE   C3B  925   7.127  12.013   7.058 -0.1836  0.0778 -0.1628
  102PNCE   D4B  926   6.907  11.960   6.682 -0.1888 -0.2062 -0.2108
  102PNCE   C5B  927   6.948  11.573   6.440  0.0214  0.0406  0.1998
  102PNCE   C6B  928   6.795  11.237   6.102 -0.2096  0.0300  0.0870
  103PNCE   AM1  929   0.107  11.302   8.090  0.1909  0.0365  0.0807
  103PNCE   AM2  930   0.130  11.023   7.852 -0.2925 -0.1562  0.0849
  103PNCE   T1A  931   0.538  11.272   7.954  0.0768  0.0610  0.1017
  103PNCE   C2A  932   0.751  11.439   7.667  0.1680  0.1264 -0.0466
  103PNCE   C3A  933   0.844  11.678   7.287 -0.4754 -0.1507  0.1196
  103PNCE   C1B  934   0.043  11.079   7.416 -0.0132  0.0384 -0.2669
  103PNCE   C2B  935   0.067  11.254   7.052  0.2781  0.0251  0.2555
  103PNCE   C3B  936  -0.094  11.620   6.943  0.2875  0.2559  0.1443
  103PNCE   D4B  937  -0.435  11.772   7.015  0.0354 -0.0344 -0.2788
  103PNCE   C5B  938  -0.791  11.464   6.858  0.0505  0.0365 -0.0791
  103PNCE   C6B  939  -0.928  11.081   6.853  0.0899 -0.0756 -0.0290
  104PNCE   AM1  940  14.780   5.655   7.793  0.0871  0.2783  0.0186
  104PNCE   AM2  941  14.560   5.920   7.561  0.0553  0.0829  0.0293
  104PNCE   T1A  942  14.644   5.262   7.640 -0.1044 -0.1166  0.0923
  104PNCE   C2A  943  14.611   5.019   7.301  0.1359  0.2147 -0.1222
  104PNCE   C3A  944  14.670   4.945   6.871  0.0364 -0.0588  0.0851
  104PNCE   C1B  945  14.359   5.827   7.213 -0.1778  0.1266 -0.0874
  104PNCE   C2B  946  14.182   5.491   7.098 -0.0906  0.0750 -0.0197
  104PNCE   C3B  947  14.147   5.042   6.961  0.3063 -0.0238 -0.0108
  104PNCE   D4B  948  14.221   4.564   6.877  0.1341 -0.0545  0.2115
  104PNCE   C5B  949  14.715   4.557   7.152 -0.0959 -0.2122 -0.1634
  104PNCE   C6B  950  15.140   4.450   7.227  0.2879 -0.3556  0.0563
  105CHOL   ROH  951   7.902  11.509   8.082  0.3950 -0.0481 -0.0698
  105CHOL    R1  952   7.804  11.498   7.817  0.2861  0.0448 -0.0334
  105CHOL    R2  953   7.970  11.495   7.597  0.2019 -0.1474 -0.0949
  105CHOL    R3  954   7.830  11.271   7.534 -0.0645  0.0010 -0.0320
  105CHOL    R4  955   7.888  11.398   7.276  0.0050 -0.0911 -0.0613
  105CHOL    R5  956   7.692  11.337   7.350 -0.0420  0.1349 -0.0007
  105CHOL    C1  957   7.708  11.130   7.030 -0.3604  0.0814  0.0173
  105CHOL    C2  958   7.822  11.171   6.662 -0.0160 -0.1095  0.0866
  106PNCE   AM1  959   4.682   5.324   8.102 -0.1756 -0.1007 -0.0296
  106PNCE   AM2  960   4.369   5.445   7.932 -0.3016 -0.1710 -0.1911
  106PNCE   T1A  961   4.923   5.540   7.760  0.3199  0.2047 -0.0895
  106PNCE   C2A  962   5.183   5.385   7.384 -0.0585  0.1200  0.1278
  106PNCE   C3A  963   5.046   5.356   6.984  0.0366  0.1109 -0.1037
  106PNCE   C1B  964   4.248   5.229   7.537  0.1922 -0.0589 -0.1723
  106PNCE   C2B  965   3.792   5.166   7.535  0.1571  0.1364 -0.0701
  106PNCE   C3B  966   3.400   5.024   7.441  0.1424 -0.2047 -0.2188
  106PNCE   D4B  967   2.949   4.937   7.475 -0.2667  0.2568  0.1963
  106PNCE   C5B  968   2.650   5.026   7.195  0.1089  0.1192  0.0083
  106PNCE   C6B  969   2.239   4.821   6.925  0.0073  0.0300 -0.1713
  107PNCE   AM1  970  14.102   1.190   7.975 -0.0756  0.2201 -0.2998
  107PNCE   AM2  971  14.122   1.565   7.991  0.1724 -0.2630  0.1439
  107PNCE   T1A  972  14.205   0.990   7.551  0.3015  0.1315 -0.0913
  107PNCE   C2A  973  14.376   0.715   7.200 -0.0431  0.0625  0.1992
  107PNCE   C3A  974  14.171   0.421   6.931 -0.2757 -0.0370 -0.1532
  107PNCE   C1B  975  14.124   1.531   7.557  0.0534  0.0401 -0.3434
  107PNCE   C2B  976  14.171   1.509   7.213  0.1251 -0.2092  0.1610
  107PNCE   C3B  977  13.974   1.639   6.743 -0.0551  0.3049 -0.3113
  107PNCE   D4B  978  14.018   1.886   6.363  0.0327  0.1287  0.0849
  107PNCE   C5B  979  13.742   1.773   6.011  0.2219 -0.1876  0.2861
  107PNCE   C6B  980  13.524   1.429   5.873 -0.0315 -0.1470 -0.0343
  108PNCE   AM1  981  14.878   8.053   7.767 -0.2466  0.0259 -0.1593
  108PNCE   AM2  982  15.236   7.986   7.843 -0.1964  0.0525  0.0951
  108PNCE   T1A  983  14.553   8.325   7.677  0.4379 -0.0556 -0.1822
  108PNCE   C2A  984  14.233   8.399   7.376  0.0774 -0.1952 -0.0402
  108PNCE   C3A  985  13.955   8.339   6.971  0.0762 -0.2183  0.0476
  108PNCE   C1B  986  15.102   8.127   7.356  0.3736  0.1893  0.0238
  108PNCE   C2B  987  14.738   8.255   7.242 -0.1777  0.0423  0.1684
  108PNCE   C3B  988  14.426   8.108   6.967 -0.0229  0.1922  0.3805
  108PNCE   D4B  989  14.126   7.849   7.161  0.2767 -0.2085  0.0310
  108PNCE   C5B  990  13.729   8.139   7.405  0.2159 -0.0681  0.0500
  108PNCE   C6B  991  13.399   8.504   7.367 -0.0055  0.4282 -0.1373
  109CHOL   ROH  992  12.198   7.084   4.542 -0.2408 -0.0584 -0.0338
  109CHOL    R1  993  12.141   6.867   4.715 -0.2260  0.0634  0.1247
  109CHOL    R2  994  12.338   6.699   4.812 -0.2644 -0.1018 -0.0836
  109CHOL    R3  995  12.233   6.767   5.053  0.1363  0.0955  0.0366
  109CHOL    R4  996  12.368   6.511   5.100 -0.2060 -0.1104 -0.0951
  109CHOL    R5  997  12.160   6.559   5.147 -0.0744  0.2213  0.1526
  109CHOL    C1  998  12.286   6.466   5.495  0.2051  0.0701  0.0113
  109CHOL    C2  999  11.943   6.608   5.749 -0.1408 -0.0118 -0.1234
  110CHOL   ROH 1000  13.845   8.831   3.884  0.1052 -0.1502  0.0908
  110CHOL    R1 1001  13.808   8.908   4.154  0.0548 -0.0157  0.0463
  110CHOL    R2 1002  13.684   9.143   4.226  0.0361  0.0172 -0.0940
  110CHOL    R3 1003  13.527   8.977   4.374  0.0141  0.0864 -0.0393
  110CHOL    R4 1004  13.506   9.238   4.508  0.0210  0.1426 -0.1454
  110CHOL    R5 1005  13.561   9.048   4.600  0.0019  0.1760 -0.0648
  110CHOL    C1 1006  13.255   9.137   4.810 -0.0084  0.2803 -0.1235
  110CHOL    C2 1007  13.186   9.089   5.121  0.3833 -0.1957  0.0678
  111PNCE   AM1 1008   4.184   3.880   7.845  0.1361 -0.1712 -0.0436
  111PNCE   AM2 1009   3.778   4.006   8.001 -0.0913 -0.1240 -0.0851
  111PNCE   T1A 1010   4.311   3.616   7.474 -0.3781  0.1320  0.2968
  111PNCE   C2A 1011   4.371   3.503   7.095  0.0506 -0.4233  0.0354
  111PNCE   C3A 1012   4.221   3.647   6.742 -0.2465 -0.0159  0.0321
  111PNCE   C1B 1013   3.729   3.874   7.509 -0.0411 -0.1601  0.1055
  111PNCE   C2B 1014   3.473   3.974   7.179  0.0526 -0.2327 -0.3873
  111PNCE   C3B 1015   3.073   3.746   6.866 -0.0034  0.1160 -0.1009
  111PNCE   D4B 1016   2.891   3.829   6.363 -0.1410  0.3907 -0.1758
  111PNCE   C5B 1017   3.134   4.137   6.101 -0.1616  0.0499  0.0857
  111PNCE   C6B 1018   3.140   4.353   5.667  0.1151 -0.0831 -0.0916
  112CHOL   ROH 1019   9.208  12.355   8.681 -0.2621 -0.0271 -0.1483
  112CHOL    R1 1020   9.365  12.394   8.450 -0.1540 -0.0076 -0.0710
  112CHOL    R2 1021   9.262  12.494   8.214 -0.0399  0.0313 -0.1050
  112CHOL    R3 1022   9.463  12.675   8.240 -0.0373  0.0117  0.0097
  112CHOL    R4 1023   9.361  12.715   7.968  0.0935  0.0520 -0.0334
  112CHOL    R5 1024   9.568  12.678   8.025  0.0634  0.0286  0.0596
  112CHOL    C1 1025   9.608  13.014   7.848  0.1730  0.0462  0.1169
  112CHOL    C2 1026   9.548  13.128   7.469 -0.3161  0.1569  0.0911
  113CHOL   ROH 1027   6.986  16.251   6.547  0.0009  0.1631 -0.1252
  113CHOL    R1 1028   6.906  16.355   6.798 -0.0951  0.0057 -0.0901
  113CHOL    R2 1029   6.994  16.598   6.893  0.0202 -0.1413  0.1809
  113CHOL    R3 1030   6.728  16.648   6.919  0.0391  0.0326  0.0419
  113CHOL    R4 1031   6.852  16.789   7.144 -0.0024 -0.1826  0.1993
  113CHOL    R5 1032   6.689  16.644   7.155 -0.1121 -0.0737  0.0153
  113CHOL    C1 1033   6.520  16.947   7.314  0.0023 -0.0433  0.0795
  113CHOL    C2 1034   6.266  16.737   7.492 -0.3424 -0.3904 -0.2016
  114XCA    COO 1035  16.156  15.722   8.680  0.1285  0.0230 -0.0828
  114XCA     C1 1036  16.382  15.622   8.298 -0.1101  0.2905 -0.1159
  114XCA     C2 1037  16.538  15.351   8.075 -0.0376 -0.0859  0.2104
  114XCA     C3 1038  16.672  14.945   7.807  0.0567 -0.1029 -0.1061
  114XCA     C4 1039  16.520  14.785   7.439  0.2226 -0.1084  0.2102
  114XCA     C5 1040  16.258  14.947   7.084 -0.0356  0.2815 -0.1610
  114XCA     C6 1041  16.348  15.294   6.850 -0.2374  0.1364  0.3845
  115XCA    COO 1042   3.780   1.481   7.965  0.0295  0.2660  0.2225
  115XCA     C1 1043   3.681   1.452   7.520  0.1532 -0.1668 -0.0319
  115XCA     C2 1044   3.817   1.138   7.230  0.1840  0.1948 -0.1998
  115XCA     C3 1045   3.861   1.106   6.760  0.0920  0.0689 -0.1034
  115XCA     C4 1046   3.762   0.789   6.493  0.0654  0.0001 -0.0075
  115XCA     C5 1047   3.982   0.515   6.248 -0.0378  0.1540 -0.1622
  115XCA     C6 1048   4.464   0.476   6.290 -0.1701  0.0606  0.0356
  116XCA    COO 1049   7.271   8.539   4.015 -0.1524 -0.0812  0.1469
  116XCA     C1 1050   7.448   8.526   4.447  0.0662  0.1298  0.1780
  116XCA     C2 1051   7.401   8.877   4.701  0.1583  0.0178  0.1221
  116XCA     C3 1052   7.300   8.871   5.160  0.2204 -0.4609  0.0674
  116XCA     C4 1053   7.240   9.076   5.548  0.2821 -0.0060  0.1619
  116XCA     C5 1054   7.333   8.979   6.013  0.0014 -0.2605 -0.1023
  116XCA     C6 1055   7.001   8.771   6.295 -0.0812  0.2305  0.1415
  117CHOL   ROH 1056  13.767  13.967   8.428 -0.1511  0.0041 -0.1149
  117CHOL    R1 1057  13.695  13.822   8.196 -0.0539  0.0925 -0.2012
  117CHOL    R2 1058  13.798  13.880   7.947  0.1685  0.0902 -0.1101
  117CHOL    R3 1059  13.866  13.617   7.949  0.0237  0.0512 -0.1136
  117CHOL    R4 1060  13.767  13.666   7.677  0.1717  0.1416 -0.1516
  117CHOL    R5 1061  13.699  13.511   7.815  0.0243  0.1612 -0.2022
  117CHOL    C1 1062  13.814  13.294   7.522  0.0367  0.1359 -0.1788
  117CHOL    C2 1063  13.875  13.522   7.209  0.2074 -0.0396  0.1659
  118CHOL   ROH 1064   0.369   2.250   4.756 -0.0134 -0.2906  0.0395
  118CHOL    R1 1065   0.445   2.195   5.023 -0.0733 -0.1388  0.0880
  118CHOL    R2 1066   0.498   2.394   5.207 -0.1265 -0.0342 -0.0101
  118CHOL    R3 1067   0.312   2.262   5.355 -0.1547  0.0386  0.0199
  118CHOL    R4 1068   0.402   2.483   5.527  0.0904 -0.1023  0.0741
  118CHOL    R5 1069   0.398   2.271   5.579 -0.0422 -0.1229 -0.0167
  118CHOL    C1 1070   0.171   2.411   5.852  0.1902 -0.0736  0.1516
  118CHOL    C2 1071   0.202   2.857   5.995 -0.1731  0.2894 -0.1575
  119CHOL   ROH 1072   7.343   1.310   6.658  0.0894 -0.1698 -0.0805
  119CHOL    R1 1073   7.320   1.067   6.802  0.0639 -0.1163  0.0052
  119CHOL    R2 1074   7.354   1.053   7.076  0.0914 -0.0280  0.0069
  119CHOL    R3 1075   7.108   0.937   7.069  0.0706  0.0113  0.0730
  119CHOL    R4 1076   7.159   0.988   7.353  0.0172  0.3001  0.0319
  119CHOL    R5 1077   7.103   0.797   7.263  0.0007  0.2156  0.2191
  119CHOL    C1 1078   6.814   0.841   7.508 -0.0455  0.5279  0.1091
  119CHOL    C2 1079   6.550   0.733   7.792  0.1801 -0.2317 -0.0508
  120PNCE   AM1 1080   8.162  15.831   9.049 -0.1348  0.0057  0.2071
  120PNCE   AM2 1081   8.339  15.522   8.875  0.0661 -0.0732 -0.0848
  120PNCE   T1A 1082   7.854  15.619   8.838 -0.3716  0.1732 -0.0187
  120PNCE   C2A 1083   7.729  15.412   8.471 -0.1949 -0.0449 -0.1748
  120PNCE   C3A 1084   7.637  15.005   8.277  0.2724  0.1729 -0.2673
  120PNCE   C1B 1085   8.300  15.392   8.473 -0.3146  0.0017 -0.0449
  120PNCE   C2B 1086   8.107  15.186   8.125 -0.0745  0.1989  0.0312
  120PNCE   C3B 1087   7.954  15.006   7.871 -0.3251 -0.1273  0.0055
  120PNCE   D4B 1088   7.808  14.964   7.460 -0.1705 -0.1473 -0.1462
  120PNCE   C5B 1089   8.086  15.239   7.218  0.0181  0.4039 -0.1946
  120PNCE   C6B 1090   8.423  15.346   6.920 -0.1109  0.1723  0.1694
  121CHOL   ROH 1091   3.670  14.172   4.084 -0.1184 -0.0376 -0.0205
  121CHOL    R1 1092   3.772  13.916   4.018  0.0187  0.0024  0.0336
  121CHOL    R2 1093   4.036  13.846   4.062  0.0632  0.1635  0.0253
  121CHOL    R3 1094   3.924  13.638   4.197  0.1939  0.1341  0.0891
  121CHOL    R4 1095   4.201  13.554   4.147  0.1283  0.1197 -0.2511
  121CHOL    R5 1096   4.020  13.443   4.096  0.0582  0.1540 -0.0799
  121CHOL    C1 1097   4.192  13.189   4.323  0.2896  0.0663 -0.3520
  121CHOL    C2 1098   4.637  13.137   4.248  0.1809  0.0392 -0.2890
  122XCA    COO 1099   4.827  13.865   7.957  0.1797 -0.2230 -0.2923
  122XCA     C1 1100   4.881  13.797   7.499 -0.2144  0.3795 -0.0338
  122XCA     C2 1101   4.693  13.909   7.039 -0.1549  0.3547  0.1346
  122XCA     C3 1102   4.421  14.019   6.708 -0.1368  0.2433  0.0703
  122XCA     C4 1103   4.269  13.902   6.281  0.1503 -0.1438  0.0678
  122XCA     C5 1104   4.132  14.062   5.894 -0.2767 -0.0407 -0.1104
  122XCA     C6 1105   4.028  14.180   5.451 -0.4030  0.0758 -0.3949
  123XCA    COO 1106  13.493   3.917   4.491  0.0281 -0.0664  0.0717
  123XCA     C1 1107  13.528   4.217   4.870 -0.6239 -0.1467  0.0837
  123XCA     C2 1108  13.789   4.398   5.147  0.4995  0.2671 -0.0939
  123XCA     C3 1109  13.864   4.383   5.609  0.1708  0.4213 -0.3054
  123XCA     C4 1110  13.943   4.047   5.906 -0.1593  0.0504  0.1037
  123XCA     C5 1111  13.913   3.784   6.234  0.1615  0.1500 -0.0567
  123XCA     C6 1112  14.099   3.392   6.103  0.0948  0.0889  0.0200
  124PNCE   AM1 1113   0.172   3.280   8.432  0.0392 -0.0049 -0.2767
  124PNCE   AM2 1114  -0.163   3.302   8.460 -0.0397 -0.0326 -0.3815
  124PNCE   T1A 1115   0.289   3.152   8.008  0.0312 -0.0983 -0.1381
  124PNCE   C2A 1116   0.155   2.984   7.516 -0.2365 -0.1615  0.0496
  124PNCE   C3A 1117   0.114   2.730   7.152 -0.1827  0.0566  0.3569
  124PNCE   C1B 1118  -0.170   3.023   8.070  0.2370  0.0855  0.0547
  124PNCE   C2B 1119  -0.412   2.638   8.111 -0.0050 -0.2194  0.2094
  124PNCE   C3B 1120  -0.707   2.412   8.065  0.2425 -0.3473  0.1465
  124PNCE   D4B 1121  -1.098   2.412   7.849 -0.1393 -0.0390  0.2686
  124PNCE   C5B 1122  -1.229   2.363   7.407  0.0888 -0.0710  0.0549
  124PNCE   C6B 1123  -1.395   2.310   7.028  0.1093 -0.0611  0.0420
  125CHOL   ROH 1124   9.471   5.473   4.993 -0.3140 -0.0861  0.1160
  125CHOL    R1 1125   9.317   5.235   4.974 -0.1798 -0.1729  0.1202
  125CHOL    R2 1126   9.363   5.044   4.780 -0.0876 -0.1392  0.1083
  125CHOL    R3 1127   9.380   4.877   4.994  0.0273 -0.1381  0.0999
  125CHOL    R4 1128   9.388   4.700   4.760 -0.2604 -0.1509  0.0999
  125CHOL    R5 1129   9.252   4.686   4.930 -0.1168 -0.0830  0.2213
  125CHOL    C1 1130   9.419   4.343   4.950 -0.2530 -0.1573  0.0866
  125CHOL    C2 1131   9.315   3.938   5.137  0.0888  0.1860  0.3099
  126CHOL   ROH 1132   4.597   9.735   7.615 -0.0879 -0.1445 -0.1089
  126CHOL    R1 1133   4.705   9.553   7.428 -0.1273 -0.0076 -0.2646
  126CHOL    R2 1134   4.790   9.630   7.177  0.0478  0.2172 -0.1357
  126CHOL    R3 1135   5.021   9.509   7.253 -0.0745 -0.0330 -0.1627
  126CHOL    R4 1136   5.031   9.510   6.960  0.0660  0.2928 -0.1574
  126CHOL    R5 1137   5.054   9.337   7.090 -0.1190  0.1287 -0.3424
  126CHOL    C1 1138   5.388   9.326   6.905 -0.0381  0.1012 -0.1953
  126CHOL    C2 1139   5.652   9.424   6.642  0.3039  0.3915  0.1368
  127CHOL   ROH 1140  14.963   4.877   7.850  0.4901  0.1042  0.2629
  127CHOL    R1 1141  14.966   4.886   7.568  0.1554  0.0882  0.2575
  127CHOL    R2 1142  15.070   5.099   7.427  0.2113 -0.0271  0.1228
  127CHOL    R3 1143  15.220   4.906   7.307 -0.1376 -0.1903 -0.0514
  127CHOL    R4 1144  15.151   5.093   7.091  0.2666  0.1726  0.1318
  127CHOL    R5 1145  15.118   4.877   7.092 -0.1521  0.2351 -0.1037
  127CHOL    C1 1146  15.339   4.908   6.783 -0.0297  0.1352 -0.0264
  127CHOL    C2 1147  15.575   4.868   6.629  0.0706 -0.0181  0.0616
  128PNCE   AM1 1148  12.823   8.974   7.557 -0.1410  0.2992  0.1510
  128PNCE   AM2 1149  13.061   8.777   7.591 -0.0467  0.2778  0.4567
  128PNCE   T1A 1150  12.608   8.950   7.090 -0.0711 -0.0712  0.1050
  128PNCE   C2A 1151  12.369   8.935   6.645 -0.1147 -0.2714  0.0417
  128PNCE   C3A 1152  12.129   8.682   6.445 -0.1090 -0.1236 -0.0796
  128PNCE   C1B 1153  12.828   8.559   7.151 -0.1356 -0.0806  0.3927
  128PNCE   C2B 1154  12.956   8.363   6.776 -0.0549 -0.2588  0.2035
  128PNCE   C3B 1155  12.788   8.285   6.294 -0.0695  0.1765  0.0991
  128PNCE   D4B 1156  12.382   8.320   6.235 -0.3085  0.0886 -0.0400
  128PNCE   C5B 1157  12.236   7.961   6.169 -0.2410 -0.0600 -0.1713
  128PNCE   C6B 1158  12.261   7.531   6.036 -0.0771 -0.0447  0.2325
  129PNCE   AM1 1159  12.382  12.173   8.317  0.1895  0.1203  0.0277
  129PNCE   AM2 1160  12.585  12.508   8.371  0.1963 -0.0966  0.2476
  129PNCE   T1A 1161  12.659  11.948   8.045  0.0107  0.3195  0.0715
  129PNCE   C2A 1162  12.615  11.854   7.600 -0.2729 -0.4246 -0.1362
  129PNCE   C3A 1163  12.709  11.694   7.159 -0.0509  0.1816 -0.0654
  129PNCE   C1B 1164  12.222  12.788   8.073 -0.1680  0.3375 -0.1168
  129PNCE   C2B 1165  12.022  12.629   7.735  0.1239 -0.2282  0.0470
  129PNCE   C3B 1166  12.074  12.589   7.279 -0.4834 -0.0557  0.4093
  129PNCE   D4B 1167  12.522  12.791   7.042 -0.3202 -0.0901 -0.0117
  129PNCE   C5B 1168  12.574  12.648   6.678 -0.0990 -0.4998 -0.1258
  129PNCE   C6B 1169  12.559  12.250   6.418  0.0043  0.1926 -0.1767
  130XCA    COO 1170   8.215   2.926   5.236  0.2526  0.0692  0.2163
  130XCA     C1 1171   8.610   2.777   5.350 -0.2595  0.2551 -0.1646
  130XCA     C2 1172   8.858   2.498   5.698 -0.2020 -0.1419  0.0069
  130XCA     C3 1173   9.014   2.178   6.004 -0.0172  0.0970 -0.0946
  130XCA     C4 1174   8.951   2.185   6.486 -0.1886 -0.1177 -0.2059
  130XCA     C5 1175   8.878   2.181   6.867 -0.2230  0.1343  0.1319
  130XCA     C6 1176   9.037   2.403   7.295  0.3450 -0.2037  0.0974
  131PNCE   AM1 1177   8.846  10.027   8.074  0.0424  0.0685  0.2406
  131PNCE   AM2 1178   8.727  10.253   8.104 -0.0312 -0.0946 -0.1014
  131PNCE   T1A 1179   9.032  10.010   7.552 -0.2147  0.2818 -0.3591
  131PNCE   C2A 1180   9.002   9.736   7.202 -0.1045  0.2219  0.0501
  131PNCE   C3A 1181   8.893   9.672   6.733  0.1123  0.2537 -0.0588
  131PNCE   C1B 1182   8.725  10.462   7.740  0.4042  0.0992 -0.0925
  131PNCE   C2B 1183   8.967  10.494   7.410 -0.1037  0.0852  0.1499
  131PNCE   C3B 1184   9.322  10.291   7.265  0.2327 -0.0809 -0.1543
  131PNCE   D4B 1185   9.415   9.962   6.901 -0.3499  0.0115 -0.1213
  131PNCE   C5B 1186   9.548  10.058   6.479  0.0529 -0.1747  0.0592
  131PNCE   C6B 1187   9.857  10.173   6.199 -0.0698 -0.3719  0.0020
  132PNCE   AM1 1188   3.975  16.228   8.371  0.0176 -0.0425  0.0957
  132PNCE   AM2 1189   4.177  16.120   8.166  0.0707  0.2981 -0.1064
  132PNCE   T1A 1190   4.184  16.646   8.129 -0.2243  0.0029 -0.2264
  132PNCE   C2A 1191   4.362  16.932   7.748  0.2554 -0.2210  0.0345
  132PNCE   C3A 1192   4.630  17.080   7.504  0.0409 -0.1939 -0.0009
  132PNCE   C1B 1193   4.417  16.210   8.032 -0.1677  0.3287  0.2235
  132PNCE   C2B 1194   4.725  16.118   7.805 -0.1997  0.1372 -0.1640
  132PNCE   C3B 1195   4.719  15.983   7.438 -0.4573 -0.0713 -0.3842
  132PNCE   D4B 1196   4.795  16.077   6.994  0.0894 -0.0539 -0.2035
  132PNCE   C5B 1197   4.598  16.027   6.612  0.1522 -0.2036  0.0887
  132PNCE   C6B 1198   4.402  15.728   6.450 -0.0497  0.0657  0.1437
  133PNCE   AM1 1199  15.137  12.064   8.794  0.2477  0.0784 -0.1488
  133PNCE   AM2 1200  15.385  11.815   8.532 -0.0186 -0.1350 -0.3425
  133PNCE   T1A 1201  15.345  12.504   8.814 -0.1623  0.0506  0.0248
  133PNCE   C2A 1202  15.571  12.819   8.653 -0.2222 -0.1247 -0.1798
  133PNCE   C3A 1203  15.812  13.181   8.727  0.1141 -0.3588 -0.1541
  133PNCE   C1B 1204  15.237  11.975   8.185 -0.3651  0.2330 -0.0384
  133PNCE   C2B 1205  15.553  12.020   7.914 -0.0374  0.0981 -0.1397
  133PNCE   C3B 1206  15.698  12.193   7.539  0.2740 -0.2982 -0.1556
  133PNCE   D4B 1207  15.851  12.212   7.168  0.2542 -0.0492  0.2253
  133PNCE   C5B 1208  15.902  12.653   7.354  0.0401  0.0783  0.2434
  133PNCE   C6B 1209  15.682  13.049   7.250 -0.2205 -0.1182  0.0260
  134CHOL   ROH 1210   9.329   1.695   4.836 -0.0509 -0.1915  0.0300
  134CHOL    R1 1211   9.348   1.670   5.118 -0.0138 -0.1572  0.0308
  134CHOL    R2 1212   9.542   1.517   5.241 -0.0302 -0.1864  0.0215
  134CHOL    R3 1213   9.593   1.748   5.375  0.0447 -0.1800 -0.0184
  134CHOL    R4 1214   9.669   1.536   5.562 -0.1373 -0.1739  0.0632
  134CHOL    R5 1215   9.532   1.700   5.601 -0.0639 -0.0901 -0.0284
  134CHOL    C1 1216   9.790   1.763   5.875 -0.1290 -0.1604  0.0496
  134CHOL    C2 1217   9.810   1.913   6.180 -0.1890 -0.2166  0.0472
  135CHOL   ROH 1218   2.231   7.151   4.345  0.2652  0.2299 -0.0826
  135CHOL    R1 1219   2.371   7.362   4.471  0.1150  0.2453  0.0572
  135CHOL    R2 1220   2.243   7.559   4.617 -0.0371  0.1329  0.0757
  135CHOL    R3 1221   2.417   7.483   4.811 -0.0873  0.1383  0.1228
  135CHOL    R4 1222   2.305   7.737   4.906  0.0074  0.2213  0.0117
  135CHOL    R5 1223   2.516   7.688   4.885 -0.0106  0.1266  0.0522
  135CHOL    C1 1224   2.504   7.770   5.258 -0.0139  0.2782  0.0187
  135CHOL    C2 1225   2.823   7.835   5.632 -0.0537 -0.0794 -0.0727
  136CHOL   ROH 1226   1.057   9.637   7.372  0.1451 -0.2702  0.1360
  136CHOL    R1 1227   0.944   9.545   7.129  0.0104 -0.2937  0.2077
  136CHOL    R2 1228   1.066   9.582   6.885 -0.2571 -0.0755  0.1058
  136CHOL    R3 1229   1.036   9.312   6.866  0.0000 -0.0994  0.0317
  136CHOL    R4 1230   0.993   9.411   6.593 -0.0498 -0.0710  0.0505
  136CHOL    R5 1231   0.859   9.283   6.708  0.0527 -0.2270 -0.0043
  136CHOL    C1 1232   0.922   9.059   6.405  0.3121 -0.0898 -0.0516
  136CHOL    C2 1233   0.721   9.117   6.094  0.1946 -0.0290  0.2919
  137XCA    COO 1234   7.097  11.398   8.091  0.0162  0.0947 -0.1541
  137XCA     C1 1235   7.355  11.506   7.704 -0.1022 -0.0139 -0.2050
  137XCA     C2 1236   7.572  11.773   7.458  0.1330 -0.0130  0.0394
  137XCA     C3 1237   7.690  12.047   7.230  0.0097 -0.1251  0.1166
  137XCA     C4 1238   7.847  12.158   6.782  0.0727 -0.0788  0.2974
  137XCA     C5 1239   7.785  11.962   6.342 -0.0816 -0.0689 -0.1543
  137XCA     C6 1240   7.506  11.560   6.096  0.0124 -0.0629  0.1256
  138CHOL   ROH 1241  10.547   7.666   6.262  0.0359  0.0168 -0.0639
  138CHOL    R1 1242  10.591   7.387   6.256  0.0968  0.0253 -0.0262
  138CHOL    R2 1243  10.402   7.209   6.162  0.1425 -0.0267 -0.0191
  138CHOL    R3 1244  10.606   7.127   6.001  0.1723 -0.0027  0.0068
  138CHOL    R4 1245  10.409   6.911   5.987  0.0849  0.0918 -0.2229
  138CHOL    R5 1246  10.620   6.891   6.038  0.0558 -0.0346 -0.1512
  138CHOL    C1 1247  10.603   6.661   5.734  0.0792  0.1829 -0.3176
  138CHOL    C2 1248  10.628   6.279   5.704  0.0875  0.1820  0.1260
  139PNCE   AM1 1249  10.533  14.758   9.067  0.3106 -0.2778 -0.0257
  139PNCE   AM2 1250  10.345  14.571   8.851 -0.0570  0.0872  0.0548
  139PNCE   T1A 1251  10.387  15.114   8.851  0.0069 -0.0654 -0.0363
  139PNCE   C2A 1252  10.283  15.096   8.357  0.1269  0.2110  0.0659
  139PNCE   C3A 1253  10.254  15.329   8.075  0.3325 -0.2775  0.1959
  139PNCE   C1B 1254  10.329  14.613   8.404 -0.1045  0.0534  0.1153
  139PNCE   C2B 1255  10.444  14.789   8.027  0.2664 -0.0219 -0.2868
  139PNCE   C3B 1256  10.742  14.497   7.706  0.1020  0.1936  0.2089
  139PNCE   D4B 1257  11.020  14.177   7.793  0.0236 -0.0082  0.2041
  139PNCE   C5B 1258  11.329  14.179   7.604  0.0607  0.0278  0.0664
  139PNCE   C6B 1259  11.569  13.923   7.502 -0.1580  0.1365 -0.0510
  140PNCE   AM1 1260   3.787   0.017   7.927 -0.1210 -0.1528  0.0320
  140PNCE   AM2 1261   3.758  -0.181   7.603 -0.1884  0.0516  0.1603
  140PNCE   T1A 1262   4.196   0.100   7.633 -0.1638 -0.0297  0.3854
  140PNCE   C2A 1263   4.420  -0.054   7.232 -0.1436  0.1350 -0.0482
  140PNCE   C3A 1264   4.236  -0.318   6.960  0.0885 -0.1133  0.0081
  140PNCE   C1B 1265   3.397   0.056   7.489 -0.0086  0.0788  0.1000
  140PNCE   C2B 1266   3.046   0.219   7.158 -0.2265 -0.1316 -0.1571
  140PNCE   C3B 1267   2.904   0.075   6.905 -0.1666  0.2062  0.1533
  140PNCE   D4B 1268   3.080  -0.338   6.718 -0.1676 -0.3664 -0.0947
  140PNCE   C5B 1269   3.346  -0.191   6.275  0.3453 -0.1805  0.0338
  140PNCE   C6B 1270   3.773   0.023   6.080  0.1892 -0.0492  0.1417
  141CHOL   ROH 1271   2.290   0.074   5.991  0.0594 -0.0305 -0.1310
  141CHOL    R1 1272   2.483   0.209   6.148 -0.0650 -0.0075  0.0021
  141CHOL    R2 1273   2.674   0.376   6.038  0.0589 -0.0697  0.1225
  141CHOL    R3 1274   2.573   0.554   6.217 -0.0794  0.0020 -0.0267
  141CHOL    R4 1275   2.809   0.687   6.104  0.1956 -0.1748  0.3381
  141CHOL    R5 1276   2.767   0.655   6.316 -0.1528 -0.1486  0.2730
  141CHOL    C1 1277   2.794   1.036   6.311  0.1455 -0.1687  0.3237
  141CHOL    C2 1278   3.041   1.296   6.241  0.0432  0.1402  0.0101
  142CHOL   ROH 1279  14.062  11.041   6.942 -0.0885 -0.2501 -0.2670
  142CHOL    R1 1280  14.167  11.220   6.750 -0.0439 -0.0725 -0.0780
  142CHOL    R2 1281  14.190  11.154   6.482  0.1791  0.1102 -0.1040
  142CHOL    R3 1282  14.048  11.383   6.447  0.0867  0.0603 -0.0580
  142CHOL    R4 1283  14.194  11.346   6.195 -0.0248  0.0811 -0.1261
  142CHOL    R5 1284  14.194  11.525   6.320 -0.0210  0.0944 -0.1450
  142CHOL    C1 1285  14.063  11.673   5.994 -0.2300  0.0169 -0.0959
  142CHOL    C2 1286  14.086  11.520   5.649  0.0604  0.1964 -0.0274
  143CHOL   ROH 1287  15.066   2.994   7.811  0.2701  0.0943  0.0728
  143CHOL    R1 1288  15.175   2.825   7.611  0.4182  0.1023  0.1466
  143CHOL    R2 1289  15.094   2.835   7.347  0.1196 -0.3638  0.2198
  143CHOL    R3 1290  15.359   2.868   7.300  0.0011  0.1483 -0.0951
  143CHOL    R4 1291  15.251   2.766   7.047 -0.0205 -0.5245  0.1829
  143CHOL    R5 1292  15.418   2.683   7.160  0.2766  0.0392  0.1628
  143CHOL    C1 1293  15.592   2.757   6.829 -0.2123 -0.1371 -0.1340
  143CHOL    C2 1294  15.668   2.990   6.487 -0.3342 -0.1553  0.3098
  144PNCE   AM1 1295   0.742   4.695   8.206  0.1472  0.1220 -0.0550
  144PNCE   AM2 1296   0.608   4.489   8.430 -0.6837  0.2147  0.0972
  144PNCE   T1A 1297   1.007   4.691   7.767 -0.0628 -0.1077  0.0173
  144PNCE   C2A 1298   1.170   4.591   7.341 -0.1904 -0.2352  0.0255
  144PNCE   C3A 1299   1.078   4.342   6.981  0.0400  0.1519 -0.2700
  144PNCE   C1B 1300   0.652   4.294   7.885  0.4253  0.1480 -0.0933
  144PNCE   C2B 1301   0.807   4.263   7.454  0.0248 -0.4457  0.3326
  144PNCE   C3B 1302   0.769   3.983   7.072 -0.2608  0.1684 -0.2018
  144PNCE   D4B 1303   0.489   3.973   6.696  0.3222 -0.6075 -0.0193
  144PNCE   C5B 1304   0.352   3.614   6.507  0.2723 -0.3139  0.1859
  144PNCE   C6B 1305   0.235   3.309   6.336  0.1480 -0.1875  0.2556
  145PNCE   AM1 1306   1.625   2.299   8.646  0.2162  0.0020 -0.2098
  145PNCE   AM2 1307   1.663   1.896   8.600 -0.2007  0.2031 -0.1213
  145PNCE   T1A 1308   1.401   2.279   8.283  0.2018  0.0852  0.1777
  145PNCE   C2A 1309   1.135   2.075   8.026  0.0530  0.3386 -0.2915
  145PNCE   C3A 1310   1.045   1.702   7.818  0.0624  0.3865  0.0900
  145PNCE   C1B 1311   1.987   1.711   8.380 -0.1638 -0.0706  0.0419
  145PNCE   C2B 1312   2.197   1.532   8.122 -0.0218  0.1123  0.0673
  145PNCE   C3B 1313   2.295   1.431   7.724  0.2818 -0.0398  0.0815
  145PNCE   D4B 1314   1.969   1.408   7.349  0.0251 -0.1693 -0.1281
  145PNCE   C5B 1315   1.923   1.110   7.211 -0.0992 -0.1036  0.0992
  145PNCE   C6B 1316   1.750   0.779   6.925  0.1423 -0.0359 -0.0236
  146CHOL   ROH 1317  15.188   5.184   4.449 -0.0558 -0.2222  0.1094
  146CHOL    R1 1318  15.271   5.199   4.719  0.0439 -0.1872  0.0765
  146CHOL    R2 1319  15.217   5.417   4.880  0.0408 -0.1980  0.0895
  146CHOL    R3 1320  15.110   5.228   5.045  0.1630 -0.2248  0.1383
  146CHOL    R4 1321  15.192   5.446   5.224  0.1755 -0.1981  0.0997
  146CHOL    R5 1322  15.248   5.235   5.241  0.2427 -0.1822  0.0808
  146CHOL    C1 1323  15.077   5.286   5.578  0.3685 -0.2233  0.1513
  146CHOL    C2 1324  15.287   5.160   5.810 -0.2604  0.2456 -0.2236
  147XCA    COO 1325   3.660   2.169   8.165 -0.1601  0.2846 -0.2992
  147XCA     C1 1326   3.816   2.384   7.829 -0.1222  0.2251  0.0311
  147XCA     C2 1327   3.721   2.167   7.409 -0.1491 -0.3367 -0.0209
  147XCA     C3 1328   3.395   2.228   7.224  0.1127  0.0266 -0.0155
  147XCA     C4 1329   2.950   1.996   7.092  0.0180 -0.2965  0.0141
  147XCA     C5 1330   2.617   1.818   6.790  0.0703 -0.0602  0.0985
  147XCA     C6 1331   2.606   1.427   6.588 -0.1528  0.1111  0.0178
  148PNCE   AM1 1332  14.698  15.824   8.830 -0.3244  0.0132  0.0707
  148PNCE   AM2 1333  14.538  15.910   8.616  0.0671 -0.0281 -0.0605
  148PNCE   T1A 1334  15.101  15.454   8.712  0.1017 -0.1453  0.2215
  148PNCE   C2A 1335  15.241  15.095   8.410  0.0277  0.1468  0.1004
  148PNCE   C3A 1336  15.548  15.004   8.044  0.0871  0.0479 -0.1260
  148PNCE   C1B 1337  14.987  15.909   8.379  0.0943  0.1248  0.0792
  148PNCE   C2B 1338  15.019  15.800   7.978  0.1540  0.2613  0.1185
  148PNCE   C3B 1339  15.093  15.717   7.545 -0.4636 -0.2402  0.1503
  148PNCE   D4B 1340  15.382  15.424   7.366 -0.2820  0.1487  0.0281
  148PNCE   C5B 1341  15.526  15.544   6.991 -0.3261 -0.0250 -0.3482
  148PNCE   C6B 1342  15.492  15.905   6.744  0.0769 -0.4696  0.0698
  149PNCE   AM1 1343  15.032   1.689   7.988 -0.2872  0.3441  0.2144
  149PNCE   AM2 1344  14.962   1.794   7.652  0.0266  0.1285 -0.0197
  149PNCE   T1A 1345  15.405   1.948   7.872  0.2079 -0.3635  0.2340
  149PNCE   C2A 1346  15.831   1.934   7.738 -0.0600  0.1781 -0.2099
  149PNCE   C3A 1347  16.009   1.543   7.829 -0.0156 -0.1206 -0.1314
  149PNCE   C1B 1348  15.056   1.886   7.273  0.0473  0.0944  0.0353
  149PNCE   C2B 1349  14.883   1.847   6.839 -0.3481  0.0351  0.1870
  149PNCE   C3B 1350  14.877   1.587   6.502 -0.1311 -0.2054 -0.0315
  149PNCE   D4B 1351  14.863   1.227   6.285  0.1263  0.2592 -0.1947
  149PNCE   C5B 1352  15.148   0.828   6.377 -0.2177  0.3396  0.2696
  149PNCE   C6B 1353  15.163   0.506   6.720  0.2050 -0.0439 -0.0690
  150XCA    COO 1354   2.274   9.189   7.537 -0.0848 -0.1077 -0.1367
  150XCA     C1 1355   2.616   9.486   7.251 -0.2689  0.1861  0.0286
  150XCA     C2 1356   2.782   9.787   7.034 -0.0353 -0.4197  0.3077
  150XCA     C3 1357   2.971   9.996   6.672 -0.1602  0.0141  0.2603
  150XCA     C4 1358   2.619  10.145   6.381 -0.0957  0.2880 -0.0191
  150XCA     C5 1359   2.210  10.133   6.115  0.0757 -0.2850 -0.0609
  150XCA     C6 1360   1.825   9.893   5.962  0.0834  0.0744  0.2107
  151PNCE   AM1 1361   8.810  11.089   8.511 -0.1196  0.4081 -0.3225
  151PNCE   AM2 1362   9.109  11.398   8.437  0.1622 -0.0526  0.4254
  151PNCE   T1A 1363   8.678  11.121   8.111  0.3279  0.0966  0.0442
  151PNCE   C2A 1364   8.777  11.321   7.740  0.3839  0.0529 -0.3193
  151PNCE   C3A 1365   8.889  11.690   7.570 -0.1174 -0.1276  0.0417
  151PNCE   C1B 1366   8.850  11.608   8.175 -0.3748 -0.2855 -0.1487
  151PNCE   C2B 1367   8.414  11.582   7.881  0.3453  0.1419 -0.0552
  151PNCE   C3B 1368   8.461  11.541   7.442 -0.1313 -0.0094 -0.2535
  151PNCE   D4B 1369   8.553  11.315   7.159 -0.0898 -0.0689 -0.4365
  151PNCE   C5B 1370   8.477  11.417   6.708 -0.1522 -0.2464  0.1434
  151PNCE   C6B 1371   8.098  11.528   6.441  0.0920  0.3075  0.2824
  152PNCE   AM1 1372   3.275   0.713   8.188  0.0007 -0.4021  0.0893
  152PNCE   AM2 1373   3.138   1.110   8.233 -0.2378 -0.1148  0.0977
  152PNCE   T1A 1374   3.701   0.532   8.005  0.0422  0.2141 -0.2703
  152PNCE   C2A 1375   3.859   0.448   7.600 -0.1127 -0.0280 -0.1002
  152PNCE   C3A 1376   3.966   0.172   7.203  0.1530 -0.0693  0.2157
  152PNCE   C1B 1377   3.012   1.081   7.782  0.0709  0.0408  0.0094
  152PNCE   C2B 1378   2.756   1.319   7.442 -0.2085 -0.0030 -0.1330
  152PNCE   C3B 1379   2.854   1.526   7.133  0.0136  0.1337 -0.3703
  152PNCE   D4B 1380   3.093   1.642   6.705  0.2641  0.4084 -0.0542
  152PNCE   C5B 1381   3.275   2.066   6.677  0.4423  0.3417 -0.0352
  152PNCE   C6B 1382   3.305   2.525   6.737 -0.0295 -0.2532 -0.1053
  153XCA    COO 1383   1.520   6.440   7.417 -0.2435 -0.1991 -0.0434
  153XCA     C1 1384   1.296   6.076   7.288  0.3151  0.0558 -0.2373
  153XCA     C2 1385   1.035   5.757   7.154 -0.3285  0.1608 -0.0174
  153XCA     C3 1386   1.008   5.382   7.038 -0.2885 -0.2631  0.2153
  153XCA     C4 1387   0.820   4.968   6.681  0.0071 -0.3993  0.0090
  153XCA     C5 1388   0.857   4.482   6.586 -0.1439  0.1085  0.0717
  153XCA     C6 1389   0.974   4.018   6.553 -0.1380  0.0037 -0.5017
  154CHOL   ROH 1390   2.548   7.090   7.353  0.0714 -0.1718  0.0054
  154CHOL    R1 1391   2.549   6.932   7.118  0.0640 -0.1454 -0.0124
  154CHOL    R2 1392   2.324   6.897   6.962  0.0613 -0.1213 -0.0137
  154CHOL    R3 1393   2.487   6.986   6.763  0.0613 -0.1033 -0.0056
  154CHOL    R4 1394   2.296   6.809   6.629  0.0002 -0.0131 -0.0374
  154CHOL    R5 1395   2.513   6.797   6.618 -0.0042 -0.0665 -0.0663
  154CHOL    C1 1396   2.432   6.842   6.248 -0.0352  0.0667 -0.0429
  154CHOL    C2 1397   2.421   6.998   5.881  0.0402 -0.0700  0.0382
  155PNCE   AM1 1398  11.342   1.773   7.677  0.0013  0.1865  0.0926
  155PNCE   AM2 1399  11.614   1.676   7.607  0.0097  0.1086  0.1544
  155PNCE   T1A 1400  11.133   1.395   7.656  0.2808  0.1032 -0.1379
  155PNCE   C2A 1401  10.816   1.178   7.485  0.0707  0.0080 -0.2260
  155PNCE   C3A 1402  10.790   1.158   7.091  0.1001  0.0825  0.0749
  155PNCE   C1B 1403  11.361   1.546   7.228  0.0558 -0.0423  0.0433
  155PNCE   C2B 1404  11.110   1.469   6.877  0.1933  0.1113 -0.2299
  155PNCE   C3B 1405  10.932   1.221   6.483 -0.1517  0.0855 -0.2121
  155PNCE   D4B 1406  11.038   1.327   6.086  0.1382  0.0951  0.1113
  155PNCE   C5B 1407  11.253   0.984   5.875 -0.0096 -0.3803 -0.1639
  155PNCE   C6B 1408  11.704   0.911   5.674 -0.0163 -0.2357  0.0178
  156PNCE   AM1 1409   4.980   8.725   7.742 -0.1579 -0.0006  0.1023
  156PNCE   AM2 1410   5.076   8.416   7.640 -0.1068 -0.1470  0.2055
  156PNCE   T1A 1411   4.877   8.893   7.354  0.1351 -0.0738  0.1204
  156PNCE   C2A 1412   4.623   9.227   7.135 -0.2970 -0.1938 -0.5342
  156PNCE   C3A 1413   4.348   9.145   6.852 -0.1638 -0.0972 -0.3239
  156PNCE   C1B 1414   5.127   8.452   7.067 -0.0647  0.3907  0.1710
  156PNCE   C2B 1415   5.092   8.489   6.586 -0.0507 -0.0246  0.4166
  156PNCE   C3B 1416   4.878   8.586   6.247 -0.0201  0.0593 -0.1407
  156PNCE   D4B 1417   4.513   8.628   6.145 -0.0280  0.0862 -0.0769
  156PNCE   C5B 1418   4.520   8.999   6.019  0.0906 -0.2789 -0.1599
  156PNCE   C6B 1419   4.459   9.251   5.749  0.1543  0.3100  0.1492
  157CHOL   ROH 1420  12.049  11.929   7.982 -0.3069  0.1243 -0.1871
  157CHOL    R1 1421  12.127  12.158   7.835 -0.1550  0.2270  0.0515
  157CHOL    R2 1422  12.305  12.345   7.934  0.2035 -0.1510  0.1267
  157CHOL    R3 1423  12.438  12.294   7.702 -0.1124 -0.0066 -0.0878
  157CHOL    R4 1424  12.504  12.572   7.766  0.4187 -0.2174  0.2930
  157CHOL    R5 1425  12.422  12.498   7.578  0.1063  0.2203  0.2539
  157CHOL    C1 1426  12.745  12.656   7.451  0.2481 -0.1199  0.1881
  157CHOL    C2 1427  13.176  12.762   7.496  0.0414  0.3321  0.0014
  158XCA    COO 1428   7.348  10.284   8.082  0.2388 -0.2181 -0.2029
  158XCA     C1 1429   7.501  10.560   7.811  0.1542  0.1073  0.0087
  158XCA     C2 1430   7.424  10.483   7.398  0.1899  0.2182 -0.2502
  158XCA     C3 1431   7.289  10.302   6.940 -0.2062 -0.0705  0.1715
  158XCA     C4 1432   7.277  10.060   6.601  0.1184  0.1586  0.1042
  158XCA     C5 1433   7.206   9.789   6.391  0.1346  0.0624 -0.0115
  158XCA     C6 1434   6.725   9.635   6.209  0.1357  0.1119 -0.3612
  159PNCE   AM1 1435   9.513  13.689   8.684 -0.1050 -0.2504  0.0616
  159PNCE   AM2 1436   9.283  13.954   8.587  0.0407  0.1621 -0.0137
  159PNCE   T1A 1437   9.786  13.744   8.405 -0.1508 -0.0496 -0.2745
  159PNCE   C2A 1438  10.187  13.682   8.287 -0.1489 -0.2344 -0.2189
  159PNCE   C3A 1439  10.525  13.660   7.976 -0.1116  0.3458 -0.2369
  159PNCE   C1B 1440   9.095  13.972   8.161  0.3246 -0.2121  0.1399
  159PNCE   C2B 1441   9.092  14.163   7.786 -0.0187 -0.2940 -0.0956
  159PNCE   C3B 1442   8.965  14.233   7.470  0.0744  0.1695 -0.0154
  159PNCE   D4B 1443   8.560  14.328   7.241 -0.3368 -0.0071 -0.0556
  159PNCE   C5B 1444   8.162  14.183   6.922 -0.1870 -0.0483 -0.1926
  159PNCE   C6B 1445   7.903  14.003   6.546 -0.0516 -0.3266  0.2879
  160XCA    COO 1446   4.116  12.066   7.417 -0.0320 -0.0539 -0.1265
  160XCA     C1 1447   4.182  12.029   6.971 -0.2789 -0.1395  0.5905
  160XCA     C2 1448   4.455  12.202   6.567  0.1815  0.0401 -0.1773
  160XCA     C3 1449   4.290  12.496   6.304 -0.0591  0.0707  0.0274
  160XCA     C4 1450   4.334  12.907   6.148 -0.0524 -0.0962 -0.1569
  160XCA     C5 1451   4.022  13.040   5.920  0.1909  0.1452  0.1408
  160XCA     C6 1452   3.629  13.091   6.015  0.4423  0.0599 -0.0797
  161CHOL   ROH 1453  14.620   8.826   7.175  0.2400 -0.0466 -0.0692
  161CHOL    R1 1454  14.583   8.607   6.999  0.1054 -0.0348 -0.0553
  161CHOL    R2 1455  14.343   8.558   6.871  0.0686  0.0918 -0.0343
  161CHOL    R3 1456  14.499   8.561   6.648  0.0530 -0.0063 -0.0467
  161CHOL    R4 1457  14.254   8.421   6.567  0.0515 -0.0496  0.0346
  161CHOL    R5 1458  14.458   8.348   6.545  0.0515 -0.0544  0.0532
  161CHOL    C1 1459  14.348   8.344   6.180  0.0260 -0.2241  0.0630
  161CHOL    C2 1460  14.478   8.042   5.900 -0.1272 -0.0881  0.2888
  162CHOL   ROH 1461  13.294   7.163   3.935  0.0575  0.1485 -0.2902
  162CHOL    R1 1462  13.273   7.149   4.217 -0.0491 -0.0865 -0.3099
  162CHOL    R2 1463  13.341   7.359   4.382  0.1400 -0.3151 -0.0949
  162CHOL    R3 1464  13.089   7.323   4.478  0.0678 -0.1145 -0.2084
  162CHOL    R4 1465  13.247   7.401   4.712  0.0429 -0.3269 -0.1211
  162CHOL    R5 1466  13.121   7.224   4.693 -0.1101 -0.2065 -0.2244
  162CHOL    C1 1467  12.956   7.391   4.994 -0.0821 -0.1450 -0.2431
  162CHOL    C2 1468  12.929   7.311   5.378  0.1130 -0.1075 -0.3540
  163CHOL   ROH 1469   8.891   7.621   4.550 -0.2524  0.0793 -0.0846
  163CHOL    R1 1470   8.902   7.665   4.829 -0.2165  0.1152 -0.0916
  163CHOL    R2 1471   8.677   7.661   4.989 -0.1840  0.0359 -0.0479
  163CHOL    R3 1472   8.819   7.477   5.129 -0.0776  0.1125 -0.0550
  163CHOL    R4 1473   8.646   7.605   5.329 -0.0157  0.1359 -0.0155
  163CHOL    R5 1474   8.863   7.583   5.340 -0.0048  0.1886 -0.1082
  163CHOL    C1 1475   8.761   7.399   5.658  0.1832  0.2653 -0.0036
  163CHOL    C2 1476   9.025   7.200   5.960 -0.0369  0.2962  0.0438
  164CHOL   ROH 1477  13.212   6.783   4.476 -0.0803 -0.0588 -0.0465
  164CHOL    R1 1478  13.028   6.745   4.689 -0.0963 -0.0172 -0.0529
  164CHOL    R2 1479  13.085   6.818   4.949 -0.0255 -0.1783 -0.0229
  164CHOL    R3 1480  12.852   6.957   4.926  0.0776  0.0072  0.0544
  164CHOL    R4 1481  12.838   6.829   5.190 -0.0010 -0.0985 -0.0014
  164CHOL    R5 1482  12.689   6.816   5.032 -0.0215  0.0839  0.0031
  164CHOL    C1 1483  12.476   6.966   5.310  0.1104  0.1219  0.0832
  164CHOL    C2 1484  12.212   6.973   5.643  0.0632 -0.4420  0.1254
  165CHOL   ROH 1485   1.930   0.155   6.213 -0.2061 -0.0986 -0.0717
  165CHOL    R1 1486   1.696   0.307   6.261 -0.2511 -0.2566  0.2108
  165CHOL    R2 1487   1.575   0.320   6.509  0.2731 -0.0116  0.4561
  165CHOL    R3 1488   1.602   0.588   6.473 -0.0652 -0.0372  0.0039
  165CHOL    R4 1489   1.375   0.559   6.658  0.3648  0.0116  0.5424
  165CHOL    R5 1490   1.376   0.670   6.469 -0.1544 -0.2620  0.3760
  165CHOL    C1 1491   1.284   0.951   6.710  0.1007  0.0012  0.1677
  165CHOL    C2 1492   1.068   1.224   6.794 -0.0559  0.1760  0.1123
  166CHOL   ROH 1493  10.314   7.282   7.453  0.1453 -0.1278 -0.1514
  166CHOL    R1 1494  10.452   7.499   7.334  0.1264  0.0212  0.0978
  166CHOL    R2 1495  10.328   7.681   7.167  0.2220 -0.0881 -0.0927
  166CHOL    R3 1496  10.431   7.862   7.341 -0.2497  0.0002  0.0958
  166CHOL    R4 1497  10.371   8.017   7.099  0.3543 -0.1116 -0.1271
  166CHOL    R5 1498  10.562   8.008   7.204  0.0873 -0.0429  0.3703
  166CHOL    C1 1499  10.492   8.383   7.223 -0.0106 -0.0437  0.0295
  166CHOL    C2 1500  10.420   8.526   6.865  0.0517  0.0929 -0.2355
  167PNCE   AM1 1501   4.497  14.633   7.820 -0.0041 -0.0310  0.2302
  167PNCE   AM2 1502   4.874  14.631   8.005  0.1788 -0.2201 -0.0380
  167PNCE   T1A 1503   4.570  14.664   7.383 -0.2293 -0.0904 -0.0894
  167PNCE   C2A 1504   4.546  14.683   6.973 -0.3461 -0.0997  0.1175
  167PNCE   C3A 1505   4.408  14.691   6.658 -0.1269 -0.0208  0.0280
  167PNCE   C1B 1506   5.058  14.753   7.652 -0.0166  0.0975 -0.0088
  167PNCE   C2B 1507   4.944  14.909   7.178 -0.0029  0.0546 -0.6553
  167PNCE   C3B 1508   5.024  14.861   6.814 -0.1514  0.0519  0.0628
  167PNCE   D4B 1509   4.801  15.091   6.573  0.1887  0.0844  0.1077
  167PNCE   C5B 1510   4.827  14.880   6.211 -0.1738 -0.2118  0.1920
  167PNCE   C6B 1511   4.717  14.773   5.814  0.2084 -0.0738 -0.1402
  168CHOL   ROH 1512   8.907  12.818   8.409  0.0278  0.0384  0.0729
  168CHOL    R1 1513   9.013  12.787   8.148 -0.0510  0.1502  0.0267
  168CHOL    R2 1514   8.926  12.590   7.975 -0.0141  0.1443  0.0149
  168CHOL    R3 1515   8.886  12.800   7.807 -0.1810  0.1611  0.0761
  168CHOL    R4 1516   8.935  12.572   7.630  0.1864  0.2894  0.0124
  168CHOL    R5 1517   9.040  12.763   7.628 -0.0429  0.4177  0.1411
  168CHOL    C1 1518   8.903  12.759   7.272  0.1465  0.3902  0.0682
  168CHOL    C2 1519   9.031  12.407   7.051 -0.0303  0.0811 -0.1277
  169XCA    COO 1520   2.488   7.685   5.979  0.0875 -0.1269 -0.3986
  169XCA     C1 1521   2.533   8.150   5.862 -0.1790 -0.0488 -0.3205
  169XCA     C2 1522   2.862   8.394   5.642  0.0970  0.0057 -0.1719
  169XCA     C3 1523   3.200   8.285   5.444 -0.1070  0.0746  0.2220
  169XCA     C4 1524   3.464   7.975   5.197  0.1793  0.1725  0.1942
  169XCA     C5 1525   3.475   7.632   4.867  0.4096 -0.0940  0.0674
  169XCA     C6 1526   3.471   7.714   4.508 -0.2453  0.0134 -0.2413
  170CHOL   ROH 1527   4.346   3.139   4.420  0.0155 -0.1556  0.2096
  170CHOL    R1 1528   4.475   3.301   4.613  0.1321 -0.1184  0.1011
  170CHOL    R2 1529   4.743   3.276   4.674  0.1593 -0.1357 -0.0249
  170CHOL    R3 1530   4.748   3.542   4.617  0.1649 -0.1522 -0.1014
  170CHOL    R4 1531   4.955   3.506   4.821  0.0482 -0.0696  0.0315
  170CHOL    R5 1532   4.789   3.647   4.828  0.0291 -0.0848 -0.1087
  170CHOL    C1 1533   5.083   3.889   4.854 -0.0115 -0.0464 -0.0076
  170CHOL    C2 1534   5.140   4.139   5.110 -0.1524  0.1988  0.1736
  171XCA    COO 1535   9.498   5.882   7.740  0.1074  0.1014  0.2272
  171XCA     C1 1536   9.558   6.304   7.536 -0.1081  0.1182  0.0134
  171XCA     C2 1537   9.586   6.460   7.180 -0.4135  0.3195  0.0085
  171XCA     C3 1538   9.614   6.793   6.918 -0.1107  0.0145  0.0718
  171XCA     C4 1539   9.329   7.001   6.469  0.2585  0.1175  0.1371
  171XCA     C5 1540   9.101   6.738   6.199 -0.3878 -0.1888 -0.2595
  171XCA     C6 1541   8.867   6.409   6.092 -0.1154 -0.2474 -0.1995
  172PNCE   AM1 1542   2.531  15.362   7.820 -0.0989 -0.1270  0.0499
  172PNCE   AM2 1543   2.895  15.251   7.744  0.0264  0.2631 -0.2632
  172PNCE   T1A 1544   2.149  15.213   7.755  0.4932  0.0079  0.0059
  172PNCE   C2A 1545   1.725  15.110   7.401 -0.0166 -0.0520 -0.1589
  172PNCE   C3A 1546   1.397  14.890   7.119  0.1656  0.0834 -0.0923
  172PNCE   C1B 1547   3.167  15.019   7.472  0.2691 -0.3016 -0.0373
  172PNCE   C2B 1548   3.519  14.864   7.197 -0.3566 -0.1250  0.4118
  172PNCE   C3B 1549   3.406  14.953   6.737  0.1249 -0.2481  0.0070
  172PNCE   D4B 1550   3.276  14.789   6.346 -0.2293 -0.2951  0.2592
  172PNCE   C5B 1551   2.931  14.956   6.147  0.2568  0.0281  0.1365
  172PNCE   C6B 1552   2.862  15.070   5.730 -0.1584 -0.1226  0.0437
  173PNCE   AM1 1553   6.894   5.293   7.490  0.0502  0.1233 -0.1208
  173PNCE   AM2 1554   6.976   5.245   7.191  0.2943  0.2835 -0.0453
  173PNCE   T1A 1555   6.605   5.632   7.269 -0.2330 -0.0148 -0.0863
  173PNCE   C2A 1556   6.336   5.954   7.095 -0.1686 -0.0583  0.3640
  173PNCE   C3A 1557   6.403   6.488   7.121 -0.2175  0.0207 -0.0913
  173PNCE   C1B 1558   7.076   5.077   6.882  0.1373  0.1316  0.0251
  173PNCE   C2B 1559   7.180   4.888   6.696 -0.0403  0.2202 -0.0790
  173PNCE   C3B 1560   7.221   4.542   6.492  0.0404 -0.1222  0.0176
  173PNCE   D4B 1561   7.405   4.164   6.392  0.2568  0.0680 -0.0050
  173PNCE   C5B 1562   7.630   3.764   6.606  0.1509 -0.2589 -0.0835
  173PNCE   C6B 1563   7.987   3.722   6.814  0.2056 -0.1815  0.1511
  174CHOL   ROH 1564  10.312   5.624   7.677  0.1221  0.0908 -0.1156
  174CHOL    R1 1565  10.224   5.436   7.485 -0.0405  0.1109 -0.0606
  174CHOL    R2 1566  10.091   5.511   7.254  0.1294  0.1669 -0.1397
  174CHOL    R3 1567  10.288   5.367   7.133 -0.0039 -0.1277 -0.0070
  174CHOL    R4 1568  10.056   5.338   6.957  0.0744  0.2277 -0.1686
  174CHOL    R5 1569  10.175   5.177   7.042 -0.2279  0.0443 -0.0894
  174CHOL    C1 1570  10.220   5.103   6.670 -0.0827 -0.0134 -0.0606
  174CHOL    C2 1571  10.006   4.808   6.515  0.2424 -0.1194 -0.0708
  175XCA    COO 1572   0.605   6.326   7.848 -0.3529  0.0988  0.0517
  175XCA     C1 1573   0.896   6.253   7.492  0.1718  0.3745  0.0192
  175XCA     C2 1574   0.938   6.199   6.982  0.4331  0.2146  0.1398
  175XCA     C3 1575   0.789   6.288   6.589 -0.1551  0.2202  0.2671
  175XCA     C4 1576   0.665   6.309   6.112 -0.2078  0.5420  0.1925
  175XCA     C5 1577   0.850   6.318   5.721 -0.0200 -0.0444 -0.1083
  175XCA     C6 1578   1.160   6.601   5.570  0.0124 -0.5085  0.0831
  176CHOL   ROH 1579   5.156   8.754   3.835  0.2235  0.0047 -0.1110
  176CHOL    R1 1580   5.244   8.798   4.101  0.2604  0.1063 -0.1402
  176CHOL    R2 1581   5.307   9.050   4.197 -0.1539  0.1998 -0.1135
  176CHOL    R3 1582   5.127   8.985   4.390  0.0477 -0.1690 -0.0480
  176CHOL    R4 1583   5.318   9.164   4.523 -0.2108  0.1411 -0.0911
  176CHOL    R5 1584   5.259   8.965   4.590  0.1745  0.0172 -0.1125
  176CHOL    C1 1585   5.156   9.170   4.895 -0.0555 -0.2401 -0.0161
  176CHOL    C2 1586   5.356   9.502   5.017 -0.2525 -0.0482  0.1161
  177CHOL   ROH 1587   9.385  16.113   8.567 -0.2164 -0.0937  0.0099
  177CHOL    R1 1588   9.444  15.894   8.398 -0.0310  0.0339 -0.0916
  177CHOL    R2 1589   9.264  15.691   8.350  0.1558 -0.1190 -0.1500
  177CHOL    R3 1590   9.310  15.755   8.090  0.0566  0.0365 -0.1299
  177CHOL    R4 1591   9.209  15.479   8.082  0.2074 -0.0162 -0.2413
  177CHOL    R5 1592   9.395  15.552   7.993  0.1454  0.1297 -0.2513
  177CHOL    C1 1593   9.222  15.416   7.682  0.1434  0.1882 -0.2756
  177CHOL    C2 1594   8.881  15.380   7.672 -0.1145  0.0829 -0.2128
  178CHOL   ROH 1595   3.124   1.812   7.463 -0.4048  0.0477 -0.1289
  178CHOL    R1 1596   3.306   1.674   7.296 -0.3448 -0.0237 -0.0055
  178CHOL    R2 1597   3.361   1.755   7.038 -0.2278 -0.1145 -0.0090
  178CHOL    R3 1598   3.619   1.749   7.126 -0.2657 -0.1065  0.1025
  178CHOL    R4 1599   3.637   1.699   6.837 -0.1400 -0.1222  0.1135
  178CHOL    R5 1600   3.721   1.576   6.996 -0.2075 -0.1125  0.1571
  178CHOL    C1 1601   4.039   1.661   6.803 -0.1247 -0.1192  0.2901
  178CHOL    C2 1602   4.258   1.385   6.831 -0.0677  0.2834  0.3294
  179XCA    COO 1603   7.862   6.169   7.716 -0.1223  0.2884 -0.1162
  179XCA     C1 1604   7.863   6.345   7.272 -0.1154 -0.0161 -0.0956
  179XCA     C2 1605   8.169   6.413   7.060 -0.3282  0.0187  0.0176
  179XCA     C3 1606   8.214   6.640   6.690  0.3458  0.3990  0.1255
  179XCA     C4 1607   8.173   6.930   6.463 -0.2599 -0.0231 -0.4885
  179XCA     C5 1608   8.105   7.258   6.364 -0.2318 -0.0021 -0.2008
  179XCA     C6 1609   8.147   7.240   6.013 -0.2382 -0.0520  0.0810
  180XCA    COO 1610   8.597   8.950   4.347  0.1954  0.0890 -0.1633
  180XCA     C1 1611   8.343   8.685   4.717 -0.0170  0.1303 -0.4062
  180XCA     C2 1612   8.410   8.531   5.039 -0.3063 -0.2926 -0.0648
  180XCA     C3 1613   8.422   8.460   5.481 -0.0692  0.0919  0.1229
  180XCA     C4 1614   8.128   8.376   5.809  0.1684 -0.2427  0.0134
  180XCA     C5 1615   8.021   8.105   6.151  0.3238 -0.0112  0.0162
  180XCA     C6 1616   7.521   7.918   6.275  0.0072  0.2138  0.2213
  181CHOL   ROH 1617   2.574  10.167   7.683 -0.0344 -0.0035  0.1688
  181CHOL    R1 1618   2.545  10.245   7.412  0.0324 -0.0238  0.1559
  181CHOL    R2 1619   2.321  10.183   7.263 -0.0104  0.1238  0.1595
  181CHOL    R3 1620   2.316  10.451   7.219  0.1955  0.1209  0.1174
  181CHOL    R4 1621   2.089  10.346   7.066  0.1819  0.2580  0.0436
  181CHOL    R5 1622   2.249  10.473   6.990  0.3008  0.1335  0.0875
  181CHOL    C1 1623   1.949  10.693   6.910  0.4869  0.3336 -0.0633
  181CHOL    C2 1624   1.768  10.851   6.631 -0.1943  0.3248 -0.2176
  182CHOL   ROH 1625   0.328  10.779   7.205  0.2370 -0.0268  0.1731
  182CHOL    R1 1626   0.527  10.616   7.086  0.0531 -0.1607  0.0486
  182CHOL    R2 1627   0.466  10.412   6.910 -0.1749  0.0671 -0.1389
  182CHOL    R3 1628   0.642  10.542   6.749 -0.0018 -0.0004 -0.0051
  182CHOL    R4 1629   0.670  10.259   6.676 -0.0247 -0.0153  0.0451
  182CHOL    R5 1630   0.831  10.395   6.735 -0.0335 -0.0567  0.1659
  182CHOL    C1 1631   0.953  10.293   6.388  0.2253 -0.1268  0.2777
  182CHOL    C2 1632   0.861  10.249   6.007  0.2770 -0.0985  0.0646
  183PNCE   AM1 1633   3.830   7.085   8.092  0.0225  0.0752 -0.3839
  183PNCE   AM2 1634   4.026   7.248   7.964  0.2755 -0.1646 -0.3198
  183PNCE   T1A 1635   3.620   6.961   7.665  0.0032  0.0182 -0.1014
  183PNCE   C2A 1636   3.588   6.853   7.234  0.2720 -0.2250 -0.3545
  183PNCE   C3A 1637   3.628   6.976   6.751 -0.1673  0.5757 -0.0603
  183PNCE   C1B 1638   4.139   7.163   7.463 -0.1261 -0.2267  0.0668
  183PNCE   C2B 1639   4.112   6.962   7.112  0.0811  0.1161  0.1277
  183PNCE   C3B 1640   4.311   6.718   6.736  0.0499 -0.0351 -0.0011
  183PNCE   D4B 1641   4.407   6.659   6.223 -0.1056 -0.1378  0.1724
  183PNCE   C5B 1642   4.311   6.302   6.115  0.1314 -0.0256 -0.1821
  183PNCE   C6B 1643   4.418   5.820   6.178 -0.0037 -0.3051 -0.4176
  184PNCE   AM1 1644   5.427  13.381   7.975 -0.1912  0.0005 -0.1196
  184PNCE   AM2 1645   5.057  13.393   7.831  0.0587  0.0945  0.1794
  184PNCE   T1A 1646   5.892  13.386   7.984  0.2496 -0.0892 -0.2814
  184PNCE   C2A 1647   6.216  13.438   7.725 -0.0248  0.0092  0.4702
  184PNCE   C3A 1648   6.373  13.045   7.477  0.0596  0.2436 -0.0108
  184PNCE   C1B 1649   5.252  13.140   7.509  0.1937  0.0985 -0.1951
  184PNCE   C2B 1650   5.249  13.082   7.012  0.1875  0.1639  0.0292
  184PNCE   C3B 1651   5.491  13.104   6.691  0.1855  0.0029 -0.0336
  184PNCE   D4B 1652   5.552  13.436   6.469  0.1394  0.0780  0.0936
  184PNCE   C5B 1653   5.414  13.540   6.053  0.0876  0.0282  0.2577
  184PNCE   C6B 1654   5.535  13.676   5.627 -0.1906  0.3219  0.2245
  185PNCE   AM1 1655   3.173   4.649   7.824 -0.0148 -0.1971  0.1892
  185PNCE   AM2 1656   2.971   4.587   8.114  0.0105  0.3025 -0.2385
  185PNCE   T1A 1657   2.723   4.449   7.672 -0.0533  0.1303  0.1115
  185PNCE   C2A 1658   2.385   4.249   7.635 -0.2230  0.1426  0.3289
  185PNCE   C3A 1659   2.012   4.132   7.430 -0.0992  0.4471 -0.2425
  185PNCE   C1B 1660   2.822   4.084   8.034  0.1699  0.3012  0.1470
  185PNCE   C2B 1661   2.705   3.725   7.758 -0.2770 -0.2338 -0.0698
  185PNCE   C3B 1662   2.639   3.414   7.416 -0.0840  0.2756  0.1112
  185PNCE   D4B 1663   2.867   3.201   7.088 -0.0376 -0.0032  0.0527
  185PNCE   C5B 1664   2.977   3.300   6.685 -0.1171  0.1613 -0.0735
  185PNCE   C6B 1665   2.794   3.169   6.193  0.0817 -0.2568  0.1922
  186PNCE   AM1 1666   2.403  15.809   8.572  0.3539 -0.1695 -0.1451
  186PNCE   AM2 1667   2.508  16.086   8.479 -0.0253  0.2043 -0.1556
  186PNCE   T1A 1668   2.201  15.718   8.141 -0.3842  0.3987 -0.2392
  186PNCE   C2A 1669   2.084  15.878   7.751  0.2118  0.2097  0.0078
  186PNCE   C3A 1670   2.069  16.090   7.456 -0.2741 -0.0480  0.1540
  186PNCE   C1B 1671   2.543  16.027   7.967 -0.1058  0.1526  0.2662
  186PNCE   C2B 1672   2.521  15.867   7.581  0.1118 -0.2355 -0.1082
  186PNCE   C3B 1673   2.426  15.705   7.399 -0.0907 -0.0500  0.0670
  186PNCE   D4B 1674   2.109  15.777   7.080 -0.2127 -0.1669  0.2092
  186PNCE   C5B 1675   1.881  16.140   6.847 -0.5730 -0.1499  0.1617
  186PNCE   C6B 1676   1.708  16.250   6.498 -0.2763 -0.1409 -0.1608
  187PNCE   AM1 1677  12.538  14.712   4.820 -0.4165 -0.2516  0.2186
  187PNCE   AM2 1678  12.808  14.841   4.862 -0.2322  0.3210 -0.0154
  187PNCE   T1A 1679  12.318  14.477   5.032  0.2129  0.0166  0.4342
  187PNCE   C2A 1680  12.134  14.037   5.165  0.0215  0.0105 -0.1672
  187PNCE   C3A 1681  12.284  13.658   5.201 -0.1364  0.0627  0.1482
  187PNCE   C1B 1682  12.792  14.687   5.270 -0.4505  0.2328 -0.2118
  187PNCE   C2B 1683  12.608  14.676   5.601  0.0586  0.0095  0.0845
  187PNCE   C3B 1684  12.417  14.444   5.857  0.1442 -0.2340 -0.1121
  187PNCE   D4B 1685  12.277  14.466   6.285  0.1505  0.2232  0.1568
  187PNCE   C5B 1686  12.629  14.500   6.578 -0.0781  0.0068 -0.1166
  187PNCE   C6B 1687  12.839  14.671   6.825  0.0198 -0.1153  0.0126
  188XCA    COO 1688  15.854  13.644   8.842 -0.1145 -0.2333  0.1231
  188XCA     C1 1689  15.599  13.881   8.513  0.0149  0.0448  0.3610
  188XCA     C2 1690  15.550  13.929   8.082 -0.1017 -0.0686  0.0728
  188XCA     C3 1691  15.271  13.606   7.820 -0.0321  0.1760 -0.0119
  188XCA     C4 1692  15.114  13.430   7.452  0.6340  0.1003 -0.0625
  188XCA     C5 1693  15.339  13.378   7.031  0.5297  0.1022 -0.2606
  188XCA     C6 1694  15.460  13.428   6.631 -0.1224 -0.0810  0.4273
  189PNCE   AM1 1695  12.285   8.521   7.939 -0.0346  0.2072 -0.0304
  189PNCE   AM2 1696  12.030   8.237   7.884  0.2434  0.4404 -0.1046
  189PNCE   T1A 1697  12.120   8.576   7.470 -0.0798 -0.1806 -0.2723
  189PNCE   C2A 1698  12.126   8.434   7.110  0.4213 -0.1135 -0.1260
  189PNCE   C3A 1699  12.423   8.442   6.756 -0.0174 -0.1035 -0.1067
  189PNCE   C1B 1700  11.780   8.199   7.459  0.0957  0.2255  0.0773
  189PNCE   C2B 1701  11.559   8.281   7.012 -0.1005  0.3055 -0.2158
  189PNCE   C3B 1702  11.501   8.312   6.591  0.1146  0.1456  0.0620
  189PNCE   D4B 1703  11.150   8.389   6.310  0.2238 -0.5034 -0.1250
  189PNCE   C5B 1704  10.944   8.324   5.957 -0.0001  0.2699 -0.2746
  189PNCE   C6B 1705  11.158   8.099   5.762  0.1476  0.3062 -0.0496
  190PNCE   AM1 1706  12.180  11.599   8.388 -0.2718  0.1051  0.4882
  190PNCE   AM2 1707  12.341  11.550   8.109  0.0404  0.0634 -0.0895
  190PNCE   T1A 1708  11.917  11.443   8.037  0.1853 -0.0555  0.0754
  190PNCE   C2A 1709  11.482  11.586   7.741  0.1384  0.0277 -0.2772
  190PNCE   C3A 1710  11.009  11.502   7.673  0.2903 -0.0415  0.1913
  190PNCE   C1B 1711  12.132  11.611   7.608 -0.1790  0.0256  0.2630
  190PNCE   C2B 1712  11.744  11.805   7.343  0.0642  0.2505  0.0315
  190PNCE   C3B 1713  11.334  11.671   7.213  0.1852 -0.1174  0.0747
  190PNCE   D4B 1714  11.022  11.851   7.302 -0.1865  0.2898  0.2622
  190PNCE   C5B 1715  11.035  12.284   7.319 -0.1311  0.3462 -0.1622
  190PNCE   C6B 1716  10.797  12.676   7.447  0.0694 -0.0450 -0.3183
  191CHOL   ROH 1717   5.085  15.962   5.101  0.2344  0.1011 -0.1995
  191CHOL    R1 1718   5.272  15.791   5.227  0.2539  0.0424 -0.3066
  191CHOL    R2 1719   5.545  15.832   5.213  0.2345  0.2876  0.0187
  191CHOL    R3 1720   5.528  15.823   5.485 -0.0142 -0.1748 -0.0130
  191CHOL    R4 1721   5.791  15.710   5.423  0.1905  0.2623  0.0556
  191CHOL    R5 1722   5.635  15.617   5.544  0.1919 -0.1345 -0.2446
  191CHOL    C1 1723   5.919  15.629   5.799 -0.0683 -0.1868  0.0476
  191CHOL    C2 1724   6.184  15.388   6.022 -0.0615 -0.1584 -0.1050
  192CHOL   ROH 1725  12.445   5.785   7.604 -0.1111 -0.1414 -0.1775
  192CHOL    R1 1726  12.520   5.910   7.361 -0.0110 -0.0334 -0.0906
  192CHOL    R2 1727  12.738   6.079   7.342  0.0829 -0.1396  0.0420
  192CHOL    R3 1728  12.810   5.909   7.142  0.0183 -0.0560 -0.0523
  192CHOL    R4 1729  13.002   6.131   7.125 -0.0091 -0.0324 -0.0439
  192CHOL    R5 1730  12.878   6.054   6.963 -0.0663  0.0181 -0.0236
  192CHOL    C1 1731  13.224   6.002   6.811 -0.1224  0.1083 -0.1816
  192CHOL    C2 1732  13.395   6.278   6.624 -0.1365  0.1135 -0.1330
  193XCA    COO 1733  13.108   6.442   3.797  0.1706  0.1959  0.1589
  193XCA     C1 1734  13.144   6.381   4.269 -0.0678 -0.0435 -0.0982
  193XCA     C2 1735  13.256   6.307   4.791  0.0308  0.2733 -0.2061
  193XCA     C3 1736  13.139   6.043   5.089  0.0453  0.0023 -0.2603
  193XCA     C4 1737  13.196   5.941   5.422  0.1603  0.2009  0.1695
  193XCA     C5 1738  13.128   5.554   5.512 -0.0964  0.0496 -0.3113
  193XCA     C6 1739  13.201   5.119   5.520  0.4198 -0.2060 -0.1311
  194CHOL   ROH 1740  11.785   3.701   7.796  0.2320 -0.1677 -0.0613
  194CHOL    R1 1741  11.678   3.645   7.541  0.0434 -0.0684 -0.0048
  194CHOL    R2 1742  11.544   3.834   7.390  0.1093  0.0467  0.0808
  194CHOL    R3 1743  11.727   3.766   7.201 -0.0505 -0.0878 -0.0250
  194CHOL    R4 1744  11.525   3.923   7.057 -0.0038  0.0839  0.0973
  194CHOL    R5 1745  11.596   3.724   7.005 -0.1941  0.0306  0.0451
  194CHOL    C1 1746  11.685   3.912   6.685 -0.2192 -0.0204  0.0074
  194CHOL    C2 1747  11.557   3.719   6.364 -0.0847 -0.0887 -0.0346
  195PNCE   AM1 1748  12.496   5.310   7.782  0.0970 -0.0255  0.0966
  195PNCE   AM2 1749  12.731   5.136   7.945 -0.1577 -0.0210  0.3030
  195PNCE   T1A 1750  12.674   5.454   7.382 -0.2167 -0.2889 -0.1255
  195PNCE   C2A 1751  12.602   5.471   6.983 -0.2220 -0.0989 -0.1565
  195PNCE   C3A 1752  12.444   5.513   6.608 -0.0852 -0.1968  0.0887
  195PNCE   C1B 1753  12.638   4.963   7.502 -0.1990 -0.0392 -0.1608
  195PNCE   C2B 1754  12.603   5.005   7.096 -0.1317 -0.2057 -0.2663
  195PNCE   C3B 1755  12.415   4.912   6.657 -0.0376  0.0476 -0.2832
  195PNCE   D4B 1756  12.322   5.134   6.223 -0.0166  0.2208  0.1333
  195PNCE   C5B 1757  11.944   5.328   6.169 -0.1401  0.2649 -0.0045
  195PNCE   C6B 1758  11.609   5.358   6.393 -0.2257 -0.2945  0.1977
  196XCA    COO 1759  15.236  14.488   4.456  0.2442  0.0468 -0.0507
  196XCA     C1 1760  15.508  14.599   4.842 -0.1000  0.1616 -0.0977
  196XCA     C2 1761  15.729  14.706   5.254 -0.1956  0.0446 -0.0528
  196XCA     C3 1762  15.818  14.762   5.736  0.1030  0.2619  0.3053
  196XCA     C4 1763  16.020  14.689   6.042  0.3520  0.4109 -0.2172
  196XCA     C5 1764  16.107  14.650   6.447  0.2117  0.3499  0.0626
  196XCA     C6 1765  16.415  14.842   6.607 -0.2407 -0.3708  0.0395
  197CHOL   ROH 1766   2.828  12.193   6.267  0.0163 -0.0802  0.0136
  197CHOL    R1 1767   3.093  12.197   6.167 -0.0015  0.0148 -0.0300
  197CHOL    R2 1768   3.186  12.010   5.986  0.0807 -0.0421  0.0707
  197CHOL    R3 1769   3.252  12.231   5.842 -0.0728 -0.0918 -0.0770
  197CHOL    R4 1770   3.452  12.030   5.766  0.1810  0.0544  0.2005
  197CHOL    R5 1771   3.492  12.231   5.840 -0.0712  0.1593  0.0553
  197CHOL    C1 1772   3.669  12.249   5.502  0.0951  0.0636  0.1370
  197CHOL    C2 1773   3.980  12.336   5.431  0.1254  0.0212  0.0301
  198CHOL   ROH 1774   9.931   4.194   7.697 -0.2428  0.2496 -0.0823
  198CHOL    R1 1775   9.996   4.304   7.445 -0.0777  0.2403 -0.0443
  198CHOL    R2 1776  10.254   4.366   7.371 -0.0202  0.1546  0.0886
  198CHOL    R3 1777  10.198   4.208   7.158  0.0327  0.1856  0.0518
  198CHOL    R4 1778  10.447   4.344   7.085  0.0920  0.1364  0.1659
  198CHOL    R5 1779  10.264   4.338   6.968  0.1388  0.1872  0.0899
  198CHOL    C1 1780  10.506   4.182   6.718  0.2071  0.1547  0.1760
  198CHOL    C2 1781  10.611   4.009   6.301  0.0518  0.1573  0.0159
  199PNCE   AM1 1782   5.299  10.849   7.644  0.0034 -0.1738 -0.1640
  199PNCE   AM2 1783   5.024  10.600   7.546 -0.0549  0.1030 -0.0459
  199PNCE   T1A 1784   5.650  10.655   7.640  0.0539 -0.1770  0.1077
  199PNCE   C2A 1785   6.037  10.572   7.426  0.0768 -0.1216 -0.0193
  199PNCE   C3A 1786   6.100  10.192   7.120  0.0319  0.0542 -0.3160
  199PNCE   C1B 1787   5.293  10.271   7.530  0.3434  0.0336  0.0881
  199PNCE   C2B 1788   5.567  10.206   7.119  0.1039 -0.1895 -0.1793
  199PNCE   C3B 1789   5.751  10.567   6.969 -0.3236 -0.0836  0.0869
  199PNCE   D4B 1790   5.636  10.730   6.604 -0.0655  0.3156  0.3326
  199PNCE   C5B 1791   5.958  10.951   6.392  0.1168  0.3029 -0.2939
  199PNCE   C6B 1792   5.970  11.415   6.436 -0.3138 -0.1927 -0.0767
  200PNCE   AM1 1793  13.963   7.083   7.483 -0.4045  0.3513  0.4363
  200PNCE   AM2 1794  13.655   6.973   7.626  0.1596  0.0727 -0.0072
  200PNCE   T1A 1795  13.887   7.226   7.044 -0.0522  0.2079 -0.0846
  200PNCE   C2A 1796  13.905   7.413   6.547  0.2153  0.1257 -0.0955
  200PNCE   C3A 1797  13.743   7.720   6.279  0.2189 -0.2805 -0.1584
  200PNCE   C1B 1798  13.617   6.822   7.177  0.1179 -0.1206 -0.5197
  200PNCE   C2B 1799  13.500   7.063   6.799  0.2480 -0.0018  0.2432
  200PNCE   C3B 1800  13.646   7.044   6.313  0.0660  0.0123 -0.0742
  200PNCE   D4B 1801  13.792   7.299   5.969  0.1603 -0.1665  0.0059
  200PNCE   C5B 1802  13.591   7.665   5.803  0.3200 -0.2285 -0.0585
  200PNCE   C6B 1803  13.519   8.027   5.545  0.1503 -0.1628  0.2130
  201CHOL   ROH 1804   7.420   8.110   7.892 -0.0561  0.0964  0.0158
  201CHOL    R1 1805   7.518   8.347   7.773  0.0560  0.0744  0.0634
  201CHOL    R2 1806   7.710   8.346   7.575  0.0549  0.0225  0.0637
  201CHOL    R3 1807   7.526   8.492   7.439  0.1244  0.1379  0.0931
  201CHOL    R4 1808   7.777   8.536   7.295  0.1621  0.1149  0.1519
  201CHOL    R5 1809   7.643   8.690   7.374  0.1993  0.1259  0.1922
  201CHOL    C1 1810   7.643   8.784   7.004  0.2888  0.2768  0.2301
  201CHOL    C2 1811   7.595   9.009   6.690  0.1433  0.1606 -0.0677
  202CHOL   ROH 1812   3.313   0.312   7.831  0.0555 -0.2653 -0.3014
  202CHOL    R1 1813   3.125   0.396   7.637 -0.1717 -0.0617  0.0060
  202CHOL    R2 1814   2.951   0.605   7.680  0.1987  0.1979  0.2516
  202CHOL    R3 1815   3.057   0.700   7.449 -0.0787 -0.0248  0.0318
  202CHOL    R4 1816   2.782   0.800   7.450 -0.0123  0.1550  0.3698
  202CHOL    R5 1817   2.878   0.686   7.290 -0.3194 -0.0131  0.3035
  202CHOL    C1 1818   2.784   1.002   7.098 -0.3954 -0.0790  0.2325
  202CHOL    C2 1819   2.980   1.101   6.777 -0.0942  0.0938  0.1099
  203CHOL   ROH 1820   5.225   6.423   4.552  0.0203 -0.0737 -0.1004
  203CHOL    R1 1821   5.172   6.433   4.830  0.0937 -0.2680 -0.0789
  203CHOL    R2 1822   5.342   6.324   5.018  0.3463 -0.0429 -0.1762
  203CHOL    R3 1823   5.333   6.574   5.125 -0.0520 -0.0978 -0.0807
  203CHOL    R4 1824   5.454   6.408   5.334  0.4029  0.0541 -0.2215
  203CHOL    R5 1825   5.280   6.538   5.355  0.1719 -0.2804 -0.0570
  203CHOL    C1 1826   5.510   6.692   5.618  0.0623  0.0586 -0.1587
  203CHOL    C2 1827   5.278   6.690   5.985 -0.2738 -0.1597  0.5904
  204PNCE   AM1 1828   7.305  13.411   8.449 -0.0056 -0.0485  0.0479
  204PNCE   AM2 1829   7.455  13.379   8.788 -0.0024  0.2281  0.0390
  204PNCE   T1A 1830   7.445  13.664   8.282  0.1045  0.0023 -0.0411
  204PNCE   C2A 1831   7.538  14.021   8.091  0.2064  0.3659  0.0873
  204PNCE   C3A 1832   7.975  14.134   8.003  0.2205  0.1956  0.2578
  204PNCE   C1B 1833   7.781  13.391   8.533 -0.0546  0.0842 -0.0534
  204PNCE   C2B 1834   8.120  13.269   8.194  0.0591 -0.0262  0.1053
  204PNCE   C3B 1835   8.262  13.104   7.807 -0.1319 -0.0399  0.0236
  204PNCE   D4B 1836   8.313  13.076   7.330  0.1183  0.1693 -0.2668
  204PNCE   C5B 1837   8.552  13.047   7.105 -0.2238  0.2710  0.0265
  204PNCE   C6B 1838   8.923  12.858   6.842 -0.1019  0.0491 -0.2266
  205CHOL   ROH 1839   6.653  11.139   8.039 -0.0686  0.0778  0.0029
  205CHOL    R1 1840   6.674  11.010   7.788 -0.1581  0.0539  0.0079
  205CHOL    R2 1841   6.569  11.119   7.557 -0.0030  0.1612 -0.0126
  205CHOL    R3 1842   6.822  11.084   7.464 -0.0225 -0.1046  0.0338
  205CHOL    R4 1843   6.667  11.164   7.228  0.2120  0.5794  0.1080
  205CHOL    R5 1844   6.793  10.987   7.247 -0.0963  0.3295 -0.1523
  205CHOL    C1 1845   6.962  11.157   6.950  0.3193  0.5729  0.2216
  205CHOL    C2 1846   6.905  11.037   6.513  0.0759  0.2554  0.3832
  206XCA    COO 1847  16.153   1.276   8.573 -0.1752  0.0917 -0.1325
  206XCA     C1 1848  16.265   1.189   8.171 -0.0719 -0.1212 -0.0767
  206XCA     C2 1849  16.560   1.179   7.874  0.0375  0.0607 -0.0964
  206XCA     C3 1850  16.665   1.055   7.438 -0.4514  0.3052  0.2134
  206XCA     C4 1851  16.946   1.249   7.169 -0.2108 -0.2991  0.3973
  206XCA     C5 1852  17.164   1.605   7.020 -0.0432 -0.1454 -0.2815
  206XCA     C6 1853  16.959   1.631   6.816  0.2316  0.2189  0.1759
  207CHOL   ROH 1854  13.290   8.465   3.692  0.1649 -0.1283  0.0412
  207CHOL    R1 1855  13.380   8.416   3.956  0.0982 -0.0958  0.0700
  207CHOL    R2 1856  13.586   8.559   4.072  0.0683 -0.0812  0.1050
  207CHOL    R3 1857  13.402   8.605   4.267  0.0190 -0.0582  0.0525
  207CHOL    R4 1858  13.656   8.575   4.410 -0.0358 -0.1550  0.1307
  207CHOL    R5 1859  13.472   8.465   4.449 -0.0806 -0.1068  0.0534
  207CHOL    C1 1860  13.524   8.627   4.790 -0.1434 -0.1752  0.0958
  207CHOL    C2 1861  13.610   8.868   5.017  0.0550  0.2737 -0.0681
  208CHOL   ROH 1862   9.544  14.096   5.304  0.1258  0.1480 -0.0381
  208CHOL    R1 1863   9.389  14.153   5.534  0.1354  0.0463 -0.0060
  208CHOL    R2 1864   9.170  14.003   5.607  0.1327  0.0208 -0.0679
  208CHOL    R3 1865   9.302  13.982   5.844  0.1400 -0.0949 -0.0826
  208CHOL    R4 1866   9.019  13.993   5.918  0.1411 -0.1521 -0.0696
  208CHOL    R5 1867   9.178  14.121   5.994  0.1345 -0.1817 -0.0062
  208CHOL    C1 1868   9.055  13.968   6.321  0.1532 -0.3610 -0.0837
  208CHOL    C2 1869   9.051  14.076   6.745  0.1759  0.0429 -0.3498
  209PNCE   AM1 1870  12.338  16.089   8.282  0.1143  0.1484 -0.0171
  209PNCE   AM2 1871  12.602  15.874   8.394 -0.4385  0.0730 -0.3030
  209PNCE   T1A 1872  12.245  15.935   7.843 -0.0993  0.0072  0.4960
  209PNCE   C2A 1873  12.055  16.138   7.531 -0.0198 -0.4590  0.2433
  209PNCE   C3A 1874  11.838  15.901   7.179  0.3028 -0.0665 -0.0986
  209PNCE   C1B 1875  12.760  15.843   7.960 -0.0888  0.0999 -0.1154
  209PNCE   C2B 1876  12.727  15.786   7.530  0.1169  0.3582 -0.6191
  209PNCE   C3B 1877  12.453  15.950   7.249  0.0411  0.0072  0.1382
  209PNCE   D4B 1878  12.222  15.660   6.960  0.0606  0.2302  0.3051
  209PNCE   C5B 1879  12.037  15.268   6.978 -0.1397 -0.0654  0.1460
  209PNCE   C6B 1880  11.844  15.118   6.664  0.5468 -0.1905  0.2635
  210CHOL   ROH 1881   0.597   9.514   4.526 -0.0379 -0.2163 -0.2730
  210CHOL    R1 1882   0.812   9.332   4.548 -0.0159 -0.1736 -0.1369
  210CHOL    R2 1883   1.076   9.408   4.515 -0.0296 -0.1806 -0.2631
  210CHOL    R3 1884   1.106   9.294   4.760  0.0292  0.0624 -0.1567
  210CHOL    R4 1885   1.374   9.289   4.642  0.0254  0.0610 -0.1659
  210CHOL    R5 1886   1.266   9.119   4.725  0.0989  0.0939 -0.0010
  210CHOL    C1 1887   1.576   9.113   4.946  0.1127  0.4288 -0.0101
  210CHOL    C2 1888   1.728   9.242   5.144  0.2034 -0.0867 -0.1903
  211PNCE   AM1 1889  11.781  10.883   8.163  0.2285 -0.0668  0.0849
  211PNCE   AM2 1890  12.096  11.044   8.250  0.1024  0.0109  0.4977
  211PNCE   T1A 1891  11.404  11.090   7.978  0.1488  0.0046 -0.1292
  211PNCE   C2A 1892  10.948  11.074   7.919 -0.1305 -0.0130  0.3357
  211PNCE   C3A 1893  10.560  11.187   7.641 -0.1225 -0.0889 -0.3750
  211PNCE   C1B 1894  11.996  11.040   7.757  0.2119  0.1538 -0.1002
  211PNCE   C2B 1895  11.727  11.271   7.500  0.1113 -0.1315 -0.0421
  211PNCE   C3B 1896  11.687  11.282   7.045 -0.0191  0.0436  0.0773
  211PNCE   D4B 1897  11.441  11.495   6.797  0.0482  0.0886  0.0517
  211PNCE   C5B 1898  11.576  11.841   6.839 -0.0950  0.3377 -0.2430
  211PNCE   C6B 1899  11.786  12.182   7.026 -0.0250  0.2590 -0.0985
  212CHOL   ROH 1900   3.909  12.722   4.787 -0.0715  0.0050 -0.3140
  212CHOL    R1 1901   4.174  12.770   4.699 -0.0343  0.0148 -0.1965
  212CHOL    R2 1902   4.275  13.025   4.663  0.0128  0.0198 -0.0296
  212CHOL    R3 1903   4.470  12.936   4.831 -0.0578 -0.0941 -0.0066
  212CHOL    R4 1904   4.572  13.190   4.725 -0.0014 -0.0353  0.1879
  212CHOL    R5 1905   4.674  12.998   4.721 -0.0112 -0.0386  0.1111
  212CHOL    C1 1906   4.928  13.203   4.918 -0.0764 -0.1728  0.3357
  212CHOL    C2 1907   5.369  13.284   5.157 -0.1841 -0.0746  0.0177
  213PNCE   AM1 1908  15.502   5.024   7.680  0.1154 -0.0921  0.1344
  213PNCE   AM2 1909  15.756   4.960   7.522  0.1285  0.0770  0.2618
  213PNCE   T1A 1910  15.402   4.518   7.686  0.0746 -0.0107  0.0383
  213PNCE   C2A 1911  15.288   4.040   7.445  0.0279 -0.1660  0.0526
  213PNCE   C3A 1912  15.178   3.615   7.236  0.0600 -0.0967  0.2786
  213PNCE   C1B 1913  15.622   4.652   7.212 -0.0363 -0.0525 -0.0296
  213PNCE   C2B 1914  15.479   4.431   6.867 -0.2790  0.1615  0.1159
  213PNCE   C3B 1915  15.542   4.313   6.429 -0.0582  0.0446  0.1536
  213PNCE   D4B 1916  15.478   4.392   5.999  0.1685  0.1820  0.1799
  213PNCE   C5B 1917  15.199   4.718   6.025  0.2235  0.0118  0.3420
  213PNCE   C6B 1918  14.774   4.955   5.828  0.0736  0.1683 -0.1857
  214CHOL   ROH 1919   5.872   1.939   8.033 -0.1628  0.0736 -0.0427
  214CHOL    R1 1920   6.103   2.025   7.894 -0.1876  0.1158 -0.0577
  214CHOL    R2 1921   6.114   2.038   7.618 -0.1929  0.0741 -0.0598
  214CHOL    R3 1922   6.189   2.295   7.666 -0.2642  0.1028 -0.1023
  214CHOL    R4 1923   6.276   2.242   7.391 -0.0646  0.0148 -0.0222
  214CHOL    R5 1924   6.400   2.317   7.554 -0.1895  0.0932  0.0362
  214CHOL    C1 1925   6.441   2.602   7.303 -0.0575  0.0074 -0.0392
  214CHOL    C2 1926   6.549   2.592   7.008 -0.0070 -0.1247  0.1364
  215CHOL   ROH 1927   2.360   1.933   8.156 -0.1790  0.0810 -0.0095
  215CHOL    R1 1928   2.190   2.010   7.943 -0.0583  0.1024 -0.0982
  215CHOL    R2 1929   2.248   1.955   7.679 -0.0282 -0.0846 -0.0526
  215CHOL    R3 1930   2.000   1.842   7.682 -0.1186  0.1130 -0.0615
  215CHOL    R4 1931   2.052   1.902   7.399  0.0303 -0.1283 -0.0854
  215CHOL    R5 1932   1.878   1.964   7.515  0.0374  0.0919 -0.1917
  215CHOL    C1 1933   1.705   1.765   7.239 -0.0204  0.0321 -0.1130
  215CHOL    C2 1934   1.308   1.556   7.120 -0.1850  0.0867 -0.3670
  216PNCE   AM1 1935   4.655   6.045   7.736  0.1823  0.0772 -0.0028
  216PNCE   AM2 1936   4.731   6.251   7.485  0.0335 -0.2043  0.1160
  216PNCE   T1A 1937   5.139   5.948   7.603  0.1532  0.2031 -0.1127
  216PNCE   C2A 1938   5.389   5.791   7.233 -0.1238  0.3119  0.1016
  216PNCE   C3A 1939   5.528   5.490   6.839  0.0278 -0.4204 -0.2755
  216PNCE   C1B 1940   4.425   6.074   7.308  0.2853  0.0383 -0.2917
  216PNCE   C2B 1941   4.309   6.028   6.839  0.1613  0.0522  0.4035
  216PNCE   C3B 1942   4.123   6.245   6.530  0.0029 -0.0187  0.0829
  216PNCE   D4B 1943   3.798   6.621   6.423 -0.1013  0.4215  0.3363
  216PNCE   C5B 1944   4.113   7.046   6.421  0.2503  0.0803  0.0684
  216PNCE   C6B 1945   3.976   7.478   6.472  0.2678  0.0304 -0.2508
  217PNCE   AM1 1946   7.545   0.608   4.986  0.0808 -0.1975 -0.1677
  217PNCE   AM2 1947   7.721   0.788   4.797 -0.1426  0.3207  0.2055
  217PNCE   T1A 1948   7.229   0.398   5.192  0.1460  0.0975 -0.4981
  217PNCE   C2A 1949   7.239   0.035   5.495 -0.2439  0.1308 -0.1034
  217PNCE   C3A 1950   7.060  -0.179   5.948  0.0669 -0.0167 -0.3729
  217PNCE   C1B 1951   7.924   1.017   5.108 -0.2186 -0.1525  0.1902
  217PNCE   C2B 1952   8.132   1.075   5.581 -0.0253  0.0081 -0.2695
  217PNCE   C3B 1953   8.312   1.180   5.893  0.1628  0.1579  0.1061
  217PNCE   D4B 1954   8.311   1.308   6.198  0.1755  0.0639 -0.4931
  217PNCE   C5B 1955   8.525   1.418   6.497 -0.0572  0.2213  0.1288
  217PNCE   C6B 1956   8.505   1.497   6.936  0.1174  0.1229 -0.0598
  218PNCE   AM1 1957  13.136   1.645   7.889  0.3959 -0.0168  0.1077
  218PNCE   AM2 1958  13.093   1.376   7.783  0.0250 -0.0881 -0.1662
  218PNCE   T1A 1959  13.314   1.959   7.613 -0.0385 -0.0155 -0.1023
  218PNCE   C2A 1960  13.470   2.129   7.279 -0.0217 -0.0054  0.2488
  218PNCE   C3A 1961  13.487   2.344   6.936 -0.3862 -0.2526 -0.0782
  218PNCE   C1B 1962  13.119   1.369   7.310  0.0277  0.0764 -0.1142
  218PNCE   C2B 1963  13.094   1.396   6.717  0.0384 -0.1407  0.3660
  218PNCE   C3B 1964  13.163   1.591   6.397 -0.0677 -0.4565  0.3592
  218PNCE   D4B 1965  13.164   1.835   5.984 -0.4559 -0.3772  0.0673
  218PNCE   C5B 1966  12.906   2.245   5.895 -0.1112 -0.2364  0.0077
  218PNCE   C6B 1967  12.823   2.660   5.852 -0.1394  0.1552  0.1786
  219CHOL   ROH 1968   6.746  15.689   5.151 -0.0896 -0.1199 -0.1015
  219CHOL    R1 1969   6.693  15.609   5.417 -0.0429 -0.0548 -0.0725
  219CHOL    R2 1970   6.527  15.397   5.479 -0.0287 -0.0421  0.0093
  219CHOL    R3 1971   6.743  15.310   5.619 -0.0035 -0.0032 -0.0064
  219CHOL    R4 1972   6.513  15.249   5.790  0.0532  0.3152  0.1836
  219CHOL    R5 1973   6.691  15.362   5.847  0.1447  0.2809 -0.0370
  219CHOL    C1 1974   6.708  15.081   6.103  0.1244  0.5599  0.2702
  219CHOL    C2 1975   6.802  14.954   6.474 -0.1080  0.0093  0.0773
  220PNCE   AM1 1976  12.767   0.821   8.210  0.0166  0.1349 -0.1017
  220PNCE   AM2 1977  12.651   1.109   8.016  0.2203  0.0956 -0.1654
  220PNCE   T1A 1978  13.089   0.837   7.851  0.2988  0.2186 -0.1620
  220PNCE   C2A 1979  13.338   0.919   7.464 -0.1936  0.0469 -0.1035
  220PNCE   C3A 1980  13.369   0.929   7.077  0.1756 -0.0860 -0.1526
  220PNCE   C1B 1981  12.661   1.054   7.580 -0.0908  0.0957  0.0064
  220PNCE   C2B 1982  12.800   1.054   7.118 -0.0305  0.1334  0.1770
  220PNCE   C3B 1983  13.009   0.919   6.692 -0.0513  0.0961  0.1573
  220PNCE   D4B 1984  12.695   1.092   6.392  0.1711  0.0447 -0.1036
  220PNCE   C5B 1985  12.580   0.872   6.142  0.2609 -0.4626  0.2905
  220PNCE   C6B 1986  12.554   0.546   5.979  0.0481  0.2210  0.0732
  221CHOL   ROH 1987   1.022   2.795   6.446  0.1542 -0.1754 -0.2922
  221CHOL    R1 1988   0.842   2.613   6.327  0.0334 -0.2037 -0.0668
  221CHOL    R2 1989   0.701   2.425   6.473 -0.0629  0.0453  0.1611
  221CHOL    R3 1990   0.486   2.538   6.352 -0.0084  0.0352  0.0549
  221CHOL    R4 1991   0.396   2.270   6.429 -0.0059 -0.0010 -0.0677
  221CHOL    R5 1992   0.386   2.358   6.229  0.1014  0.0466 -0.0517
  221CHOL    C1 1993   0.016   2.286   6.288  0.0784 -0.0377 -0.3001
  221CHOL    C2 1994  -0.229   2.031   6.386 -0.0571 -0.2292 -0.0626
  222CHOL   ROH 1995  15.746  10.644   7.266 -0.1043 -0.0292 -0.1793
  222CHOL    R1 1996  15.929  10.800   7.117 -0.0315 -0.0229 -0.0849
  222CHOL    R2 1997  15.900  10.844   6.846  0.0581  0.0494 -0.0826
  222CHOL    R3 1998  15.917  11.105   6.921  0.0804  0.0275 -0.0125
  222CHOL    R4 1999  15.927  11.110   6.627 -0.1783  0.1249 -0.0203
  222CHOL    R5 2000  16.071  11.202   6.764 -0.0734  0.1044 -0.1166
  222CHOL    C1 2001  15.959  11.510   6.569 -0.2961  0.1494  0.0820
  222CHOL    C2 2002  15.814  11.836   6.495  0.0624  0.0686  0.0567
  223PNCE   AM1 2003   6.145  14.270   8.299  0.3908 -0.3063  0.2880
  223PNCE   AM2 2004   5.878  14.332   8.101 -0.4843  0.0410 -0.2031
  223PNCE   T1A 2005   6.240  14.027   7.882  0.2421 -0.0504 -0.0559
  223PNCE   C2A 2006   6.475  13.888   7.601 -0.3080  0.2181 -0.2184
  223PNCE   C3A 2007   6.716  13.525   7.713 -0.3226 -0.1913  0.0258
  223PNCE   C1B 2008   5.640  14.493   7.667 -0.0609  0.1038  0.0217
  223PNCE   C2B 2009   5.660  14.693   7.331 -0.0749 -0.0220  0.0304
  223PNCE   C3B 2010   5.571  14.876   7.016  0.0546 -0.1532 -0.2088
  223PNCE   D4B 2011   5.896  15.081   6.787 -0.3713 -0.2866  0.0760
  223PNCE   C5B 2012   6.235  15.452   6.900  0.2199  0.0423 -0.3492
  223PNCE   C6B 2013   6.420  15.781   6.715 -0.2070 -0.0264  0.3327
  224XCA    COO 2014   7.928   9.365   6.078  0.3397  0.1006  0.7608
  224XCA     C1 2015   8.244   9.641   6.040  0.0981  0.0769  0.0820
  224XCA     C2 2016   8.539   9.824   6.156 -0.1777 -0.2526 -0.1630
  224XCA     C3 2017   8.801   9.789   6.185  0.2477  0.3146  0.0785
  224XCA     C4 2018   9.159   9.566   6.339 -0.1275 -0.0817  0.0365
  224XCA     C5 2019   9.117   9.185   6.562 -0.3519 -0.0865  0.0390
  224XCA     C6 2020   8.962   8.851   6.573  0.2030 -0.3977  0.2451
  225CHOL   ROH 2021  12.797   8.890   6.682  0.0975 -0.4825  0.1708
  225CHOL    R1 2022  12.772   8.722   6.456 -0.1502 -0.2828  0.0477
  225CHOL    R2 2023  12.564   8.744   6.275 -0.1730  0.0855  0.1201
  225CHOL    R3 2024  12.766   8.763   6.094 -0.2007  0.0020  0.0811
  225CHOL    R4 2025  12.540   8.652   5.943 -0.1807 -0.1988  0.1998
  225CHOL    R5 2026  12.741   8.568   5.957 -0.1516 -0.1211  0.2468
  225CHOL    C1 2027  12.716   8.616   5.579 -0.2103 -0.4449  0.2097
  225CHOL    C2 2028  12.927   8.451   5.321 -0.2415  0.0800  0.2244
  226PNCE   AM1 2029   4.727   7.208   7.534  0.0458  0.1789  0.0051
  226PNCE   AM2 2030   4.896   7.117   7.754  0.2598 -0.0464  0.4092
  226PNCE   T1A 2031   4.682   7.128   7.205 -0.1613 -0.2394  0.1121
  226PNCE   C2A 2032   4.502   7.190   6.749  0.0700 -0.0180 -0.1752
  226PNCE   C3A 2033   4.649   7.157   6.331 -0.1265 -0.1601 -0.2879
  226PNCE   C1B 2034   5.231   7.314   7.413  0.3416  0.0087  0.0819
  226PNCE   C2B 2035   5.529   7.368   7.007 -0.0965  0.2329  0.2056
  226PNCE   C3B 2036   5.661   7.676   6.949 -0.2208 -0.2215  0.1724
  226PNCE   D4B 2037   5.964   7.965   7.042  0.1632 -0.0835  0.2391
  226PNCE   C5B 2038   5.795   8.266   6.879 -0.0409  0.0753  0.1246
  226PNCE   C6B 2039   5.522   8.575   6.859 -0.2932 -0.1584 -0.0930
  227XCA    COO 2040   9.294  14.155   4.900  0.0615 -0.0950 -0.1292
  227XCA     C1 2041   8.939  13.952   5.225 -0.1039  0.4071 -0.1275
  227XCA     C2 2042   8.652  13.955   5.607  0.0296 -0.0838 -0.0121
  227XCA     C3 2043   8.423  14.147   5.958  0.0750  0.0661  0.0163
  227XCA     C4 2044   8.370  13.917   6.313 -0.0753 -0.0072  0.0352
  227XCA     C5 2045   8.578  13.918   6.760 -0.1516 -0.0703 -0.0774
  227XCA     C6 2046   8.735  13.907   7.159 -0.2803 -0.1469 -0.1587
  228PNCE   AM1 2047  12.601  11.140   8.010  0.3000 -0.1303 -0.2923
  228PNCE   AM2 2048  12.753  10.885   8.015 -0.1433  0.1244  0.1019
  228PNCE   T1A 2049  12.610  11.332   7.673  0.0119  0.1393 -0.0680
  228PNCE   C2A 2050  12.437  11.246   7.331  0.1115  0.1260 -0.1761
  228PNCE   C3A 2051  12.104  11.038   7.230 -0.3019 -0.0854 -0.3618
  228PNCE   C1B 2052  12.822  10.498   7.888  0.1432 -0.0557 -0.0237
  228PNCE   C2B 2053  12.724  10.365   7.546  0.1981  0.1229  0.2082
  228PNCE   C3B 2054  12.873  10.377   7.105  0.0015 -0.3536 -0.0798
  228PNCE   D4B 2055  13.168  10.485   6.825  0.3209 -0.1768 -0.0579
  228PNCE   C5B 2056  13.585  10.218   6.719 -0.1505  0.0267  0.1450
  228PNCE   C6B 2057  13.720   9.969   6.432 -0.0270  0.1227  0.0617
  229CHOL   ROH 2058   4.590  11.871   6.832 -0.0637  0.4004  0.0481
  229CHOL    R1 2059   4.462  11.726   6.626  0.1342  0.3095 -0.0124
  229CHOL    R2 2060   4.192  11.665   6.632  0.2264 -0.0980 -0.0172
  229CHOL    R3 2061   4.192  11.786   6.389  0.0215  0.0226  0.0433
  229CHOL    R4 2062   3.933  11.647   6.404  0.0681 -0.0510  0.1590
  229CHOL    R5 2063   4.082  11.629   6.245 -0.0410  0.0663  0.0439
  229CHOL    C1 2064   3.782  11.751   6.043 -0.2170  0.0899  0.3184
  229CHOL    C2 2065   3.853  11.464   5.891 -0.2161 -0.1208 -0.1088
  230XCA    COO 2066   4.418  15.733   7.955 -0.1134 -0.2475 -0.2286
  230XCA     C1 2067   4.463  15.529   7.549  0.1929  0.1141  0.0072
  230XCA     C2 2068   4.465  15.649   7.163 -0.2972 -0.1422 -0.0504
  230XCA     C3 2069   4.704  15.606   6.835  0.1824 -0.0338  0.1860
  230XCA     C4 2070   5.144  15.741   6.687 -0.0464 -0.1047  0.0098
  230XCA     C5 2071   5.343  16.194   6.687 -0.1256  0.2855  0.2082
  230XCA     C6 2072   5.655  16.377   6.289  0.0477  0.1839  0.2137
  231CHOL   ROH 2073  13.428   0.833   4.635  0.2757  0.0091  0.1284
  231CHOL    R1 2074  13.291   0.800   4.881  0.2079  0.0083  0.0908
  231CHOL    R2 2075  13.418   0.718   5.112  0.1506  0.0397  0.1334
  231CHOL    R3 2076  13.309   0.944   5.214  0.0926  0.0328  0.0865
  231CHOL    R4 2077  13.383   0.784   5.449  0.1612  0.1138  0.1199
  231CHOL    R5 2078  13.186   0.870   5.406  0.1321  0.0442  0.1163
  231CHOL    C1 2079  13.259   1.036   5.742  0.1133  0.1504  0.0675
  231CHOL    C2 2080  13.010   1.135   6.013 -0.2096  0.0852 -0.0781
  232PNCE   AM1 2081  13.386   9.421   7.982  0.1986  0.0114  0.0992
  232PNCE   AM2 2082  13.382   9.742   7.830  0.2772 -0.2037  0.0525
  232PNCE   T1A 2083  13.584   9.080   7.722  0.1886  0.1394 -0.1778
  232PNCE   C2A 2084  13.809   8.779   7.375 -0.0107 -0.0076  0.0642
  232PNCE   C3A 2085  13.899   8.799   6.840 -0.0075  0.2054  0.1203
  232PNCE   C1B 2086  13.498   9.677   7.389 -0.0435  0.0639 -0.1298
  232PNCE   C2B 2087  13.271   9.533   6.980  0.0675  0.3340 -0.1806
  232PNCE   C3B 2088  13.420   9.576   6.552  0.1926 -0.2018  0.5962
  232PNCE   D4B 2089  13.361   9.623   6.169  0.2700  0.0094  0.2533
  232PNCE   C5B 2090  13.551   9.358   5.793 -0.0272  0.0018  0.1107
  232PNCE   C6B 2091  13.655   9.079   5.523  0.0010  0.0466  0.2013
  233PNCE   AM1 2092  15.492   5.423   7.333 -0.1475  0.1348  0.0140
  233PNCE   AM2 2093  15.665   5.181   7.117  0.0237  0.1616  0.2680
  233PNCE   T1A 2094  15.863   5.577   7.039 -0.1388 -0.2772 -0.1169
  233PNCE   C2A 2095  16.127   5.643   6.646 -0.1268 -0.0479  0.1658
  233PNCE   C3A 2096  16.419   5.694   6.364  0.0377  0.1899 -0.0433
  233PNCE   C1B 2097  15.927   5.155   6.800 -0.2479 -0.0813  0.2492
  233PNCE   C2B 2098  16.084   4.866   6.458 -0.1580  0.0023  0.2897
  233PNCE   C3B 2099  16.437   4.538   6.314 -0.0818  0.1670  0.1810
  233PNCE   D4B 2100  16.506   4.304   6.561  0.1085 -0.2727  0.0955
  233PNCE   C5B 2101  16.344   3.914   6.662  0.1158  0.1244 -0.0411
  233PNCE   C6B 2102  16.131   3.559   6.876 -0.3287  0.2146  0.1955
  234CHOL   ROH 2103   1.208   4.253   8.062  0.2326 -0.1082  0.0397
  234CHOL    R1 2104   1.159   4.227   7.784  0.0834 -0.0601  0.0603
  234CHOL    R2 2105   1.358   4.258   7.595 -0.0145 -0.0430 -0.0397
  234CHOL    R3 2106   1.276   4.012   7.515 -0.0744 -0.0245 -0.0359
  234CHOL    R4 2107   1.448   4.108   7.297  0.0009 -0.0961 -0.0081
  234CHOL    R5 2108   1.243   4.035   7.278 -0.0183 -0.0343 -0.0443
  234CHOL    C1 2109   1.423   3.789   7.048 -0.0461 -0.1093  0.0136
  234CHOL    C2 2110   1.457   4.056   6.738  0.1722 -0.0550 -0.0883
  235PNCE   AM1 2111   7.828   2.680   8.295 -0.0285 -0.0569 -0.0640
  235PNCE   AM2 2112   7.493   2.806   8.250  0.1019 -0.2903  0.1458
  235PNCE   T1A 2113   8.026   2.733   7.909  0.0049  0.1599  0.2306
  235PNCE   C2A 2114   8.177   2.814   7.469 -0.1622 -0.1742 -0.0594
  235PNCE   C3A 2115   8.559   2.646   7.249  0.0031 -0.5179 -0.0239
  235PNCE   C1B 2116   7.512   2.553   7.806  0.1062 -0.0289 -0.2510
  235PNCE   C2B 2117   7.337   2.439   7.337 -0.0365 -0.4215 -0.1045
  235PNCE   C3B 2118   7.627   2.651   7.136  0.1489  0.0956 -0.0801
  235PNCE   D4B 2119   7.679   2.749   6.673 -0.4615  0.0064  0.1580
  235PNCE   C5B 2120   7.865   3.066   6.617  0.0504  0.0940 -0.1215
  235PNCE   C6B 2121   8.158   3.318   6.597 -0.1025 -0.1078 -0.3384
  236XCA    COO 2122   9.903   3.712   7.898  0.0205  0.2363 -0.0113
  236XCA     C1 2123  10.231   3.456   7.817  0.1107  0.2410 -0.0415
  236XCA     C2 2124  10.487   3.037   7.684  0.2875 -0.0103  0.4097
  236XCA     C3 2125  10.894   3.023   7.464  0.0525 -0.1406  0.0372
  236XCA     C4 2126  10.935   3.052   7.152 -0.3282  0.5123 -0.1023
  236XCA     C5 2127  11.087   2.740   6.851 -0.0850 -0.1945  0.1869
  236XCA     C6 2128  11.417   2.735   6.646 -0.1045  0.2143 -0.2591
  237CHOL   ROH 2129   4.295   2.764   7.916 -0.0262  0.1392 -0.1601
  237CHOL    R1 2130   4.279   2.689   7.644  0.2193  0.0032 -0.1376
  237CHOL    R2 2131   4.403   2.464   7.544  0.1806 -0.1328  0.1181
  237CHOL    R3 2132   4.154   2.405   7.454  0.2376 -0.0170 -0.1190
  237CHOL    R4 2133   4.317   2.173   7.379  0.1516 -0.2000  0.2515
  237CHOL    R5 2134   4.190   2.292   7.246  0.3905 -0.2100  0.0124
  237CHOL    C1 2135   4.032   1.948   7.199  0.1885 -0.1300  0.1060
  237CHOL    C2 2136   4.093   1.575   7.265  0.2498  0.2075  0.1394
  238CHOL   ROH 2137   5.378  13.627   7.569  0.1621  0.0337 -0.0632
  238CHOL    R1 2138   5.337  13.524   7.309 -0.0193  0.0749 -0.0508
  238CHOL    R2 2139   5.088  13.518   7.189 -0.0538  0.3655  0.0063
  238CHOL    R3 2140   5.217  13.652   6.990  0.0578  0.2071 -0.0268
  238CHOL    R4 2141   4.987  13.525   6.858 -0.0343  0.3467  0.0002
  238CHOL    R5 2142   5.197  13.508   6.799 -0.0451  0.1674  0.0141
  238CHOL    C1 2143   5.050  13.654   6.479  0.0821  0.1873 -0.0347
  238CHOL    C2 2144   4.722  13.761   6.255  0.2089 -0.2029 -0.2807
  239CHOL   ROH 2145   9.508   0.993   8.218  0.0903  0.0542 -0.0651
  239CHOL    R1 2146   9.512   0.810   8.002  0.1621  0.0358 -0.0486
  239CHOL    R2 2147   9.369   0.851   7.770  0.0585 -0.0960 -0.0077
  239CHOL    R3 2148   9.611   0.816   7.652  0.0483  0.0765 -0.0799
  239CHOL    R4 2149   9.418   0.708   7.459  0.0682 -0.0679 -0.0191
  239CHOL    R5 2150   9.593   0.606   7.540  0.1678  0.0603 -0.0687
  239CHOL    C1 2151   9.675   0.593   7.167  0.0644  0.1104 -0.0936
  239CHOL    C2 2152   9.801   0.660   6.752  0.2256  0.0465 -0.0129
  240XCA    COO 2153   9.677   8.029   4.233  0.4317  0.2190 -0.1098
  240XCA     C1 2154   9.940   7.805   4.603 -0.1270  0.1838  0.3297
  240XCA     C2 2155   9.722   7.526   4.928  0.1051 -0.0615 -0.0117
  240XCA     C3 2156   9.309   7.576   5.143 -0.0090  0.0620  0.2214
  240XCA     C4 2157   9.082   7.926   5.181 -0.1399  0.1208  0.0785
  240XCA     C5 2158   8.919   8.053   5.524 -0.1736 -0.1425  0.1058
  240XCA     C6 2159   8.570   8.048   5.656 -0.0736 -0.0889 -0.1666
  241PNCE   AM1 2160   7.882   0.989   8.274 -0.2029 -0.1891 -0.0896
  241PNCE   AM2 2161   8.045   0.807   8.488  0.2720 -0.0377 -0.2735
  241PNCE   T1A 2162   7.841   1.166   7.776  0.1508  0.1099  0.0348
  241PNCE   C2A 2163   7.797   1.169   7.351  0.0277  0.2544  0.0203
  241PNCE   C3A 2164   7.721   1.392   6.900  0.1607 -0.1382 -0.0334
  241PNCE   C1B 2165   8.122   0.452   8.167  0.1035 -0.0591 -0.2228
  241PNCE   C2B 2166   8.087   0.250   7.795 -0.0567  0.2909  0.0582
  241PNCE   C3B 2167   8.170  -0.007   7.453 -0.1564  0.0972  0.4534
  241PNCE   D4B 2168   8.361  -0.111   7.134  0.1545 -0.1618 -0.0081
  241PNCE   C5B 2169   8.581  -0.352   7.334  0.2810 -0.2820 -0.0728
  241PNCE   C6B 2170   8.976  -0.501   7.560 -0.0131 -0.1495  0.2947
  242CHOL   ROH 2171  15.401  14.361   6.460 -0.1338 -0.2229 -0.1462
  242CHOL    R1 2172  15.672  14.418   6.517 -0.1521 -0.1612 -0.1218
  242CHOL    R2 2173  15.749  14.587   6.722 -0.2115 -0.0855 -0.1624
  242CHOL    R3 2174  15.898  14.373   6.799 -0.1882 -0.0374 -0.0726
  242CHOL    R4 2175  15.993  14.594   6.967 -0.3133  0.0091 -0.0632
  242CHOL    R5 2176  16.115  14.465   6.841 -0.2289  0.0238  0.0041
  242CHOL    C1 2177  16.276  14.399   7.181 -0.3518  0.1095  0.0788
  242CHOL    C2 2178  16.523  14.194   7.278  0.0424  0.0497 -0.1211
  243XCA    COO 2179  13.220  15.337   8.617 -0.0631  0.2496  0.2937
  243XCA     C1 2180  13.324  15.196   8.215 -0.0566 -0.1247 -0.1188
  243XCA     C2 2181  13.234  14.846   7.946  0.0767  0.0053  0.4521
  243XCA     C3 2182  13.142  14.850   7.581  0.0248 -0.2337  0.1354
  243XCA     C4 2183  12.841  14.985   7.294  0.2528 -0.0240  0.3154
  243XCA     C5 2184  12.439  14.729   7.257 -0.2338  0.0336 -0.3361
  243XCA     C6 2185  12.300  14.401   7.062 -0.0455 -0.0702 -0.0576
  244PNCE   AM1 2186   9.264  12.915   8.632  0.1203 -0.1651 -0.2734
  244PNCE   AM2 2187   9.561  12.725   8.771  0.0102 -0.4405  0.0995
  244PNCE   T1A 2188   9.639  13.019   8.390 -0.1074 -0.0927 -0.1121
  244PNCE   C2A 2189   9.747  13.340   8.092 -0.0191  0.0540  0.3046
  244PNCE   C3A 2190   9.467  13.696   8.000  0.2136 -0.0273 -0.3437
  244PNCE   C1B 2191   9.827  12.516   8.504  0.1033  0.1466 -0.0290
  244PNCE   C2B 2192   9.684  12.175   8.207 -0.0491  0.1063 -0.0069
  244PNCE   C3B 2193   9.427  12.261   7.858  0.3119  0.0528 -0.0804
  244PNCE   D4B 2194   9.196  12.145   7.623  0.2080 -0.4351 -0.4518
  244PNCE   C5B 2195   9.366  11.827   7.305  0.1106 -0.4742  0.1085
  244PNCE   C6B 2196   9.823  11.757   7.139  0.1452 -0.1936  0.1615
  245PNCE   AM1 2197   1.658  15.539   8.349 -0.0509  0.0280 -0.1260
  245PNCE   AM2 2198   1.884  15.400   8.216  0.0960 -0.2452  0.0808
  245PNCE   T1A 2199   1.591  15.858   8.081 -0.0065  0.0331  0.3322
  245PNCE   C2A 2200   1.589  16.057   7.687 -0.2571  0.1619  0.1508
  245PNCE   C3A 2201   1.694  16.426   7.512 -0.3725 -0.2938 -0.2461
  245PNCE   C1B 2202   1.658  15.399   7.839  0.2612 -0.3455  0.5677
  245PNCE   C2B 2203   1.772  15.638   7.483  0.2783  0.1487 -0.2637
  245PNCE   C3B 2204   1.612  16.008   7.197  0.0493  0.0913  0.1072
  245PNCE   D4B 2205   1.413  16.187   6.904  0.2595 -0.0700 -0.0983
  245PNCE   C5B 2206   1.212  15.908   6.574  0.1128 -0.1327  0.1711
  245PNCE   C6B 2207   1.150  15.593   6.344 -0.2821 -0.3112 -0.0270
  246CHOL   ROH 2208   5.659  11.068   4.303  0.1000  0.0747  0.0527
  246CHOL    R1 2209   5.626  10.936   4.552  0.1571 -0.0653 -0.0141
  246CHOL    R2 2210   5.840  10.846   4.701  0.2091  0.2229  0.0853
  246CHOL    R3 2211   5.724  10.995   4.897 -0.1484 -0.0318  0.0673
  246CHOL    R4 2212   5.892  10.801   5.040  0.1965  0.2880  0.0958
  246CHOL    R5 2213   5.680  10.838   5.072  0.1130 -0.1416  0.0358
  246CHOL    C1 2214   5.814  10.915   5.421 -0.1465  0.0880  0.0853
  246CHOL    C2 2215   5.583  10.693   5.649 -0.0021  0.1141  0.3166
  247XCA    COO 2216   1.519  13.134   4.262  0.0946  0.0564 -0.0565
  247XCA     C1 2217   1.652  13.347   4.635 -0.0932 -0.1238  0.1283
  247XCA     C2 2218   1.906  13.359   4.942 -0.1588 -0.0245 -0.2291
  247XCA     C3 2219   2.197  13.255   5.313 -0.1551  0.3020  0.0657
  247XCA     C4 2220   2.386  13.250   5.657  0.0389 -0.1471 -0.3784
  247XCA     C5 2221   2.802  13.105   5.639  0.1306 -0.0597  0.1415
  247XCA     C6 2222   3.096  13.175   5.858 -0.0627 -0.0495 -0.0195
  248CHOL   ROH 2223   8.559  14.137   5.052 -0.3036 -0.0682 -0.0719
  248CHOL    R1 2224   8.539  14.312   5.273 -0.0739 -0.0291 -0.0818
  248CHOL    R2 2225   8.317  14.469   5.319  0.0051  0.0368  0.0794
  248CHOL    R3 2226   8.322  14.349   5.563  0.1770  0.0713  0.0937
  248CHOL    R4 2227   8.133  14.572   5.593  0.0515 -0.0401  0.1395
  248CHOL    R5 2228   8.307  14.531   5.718  0.1273  0.0834  0.0751
  248CHOL    C1 2229   8.031  14.520   5.982  0.2394 -0.0513  0.1868
  248CHOL    C2 2230   7.849  14.467   6.344  0.0433 -0.1703  0.1530
  249XCA    COO 2231  14.398   8.585   3.505  0.1648  0.1763 -0.0970
  249XCA     C1 2232  14.211   8.518   3.856 -0.1016  0.0557 -0.0948
  249XCA     C2 2233  14.168   8.483   4.303 -0.0165 -0.0629 -0.0354
  249XCA     C3 2234  14.046   8.475   4.809  0.1391  0.3252 -0.0125
  249XCA     C4 2235  13.880   8.280   5.218 -0.3434  0.0685 -0.2403
  249XCA     C5 2236  13.685   8.544   5.499  0.0815  0.4161  0.0744
  249XCA     C6 2237  13.667   8.595   5.964 -0.0785 -0.2746  0.1461
  250CHOL   ROH 2238  11.938   3.632   6.015 -0.0127 -0.0293  0.0213
  250CHOL    R1 2239  11.829   3.406   6.147 -0.0234 -0.0800 -0.0746
  250CHOL    R2 2240  11.784   3.166   6.017  0.1668 -0.0893 -0.1246
  250CHOL    R3 2241  11.936   3.065   6.219  0.0550 -0.0428 -0.0165
  250CHOL    R4 2242  11.772   2.839   6.130 -0.1550  0.0291  0.1874
  250CHOL    R5 2243  11.790   2.914   6.334 -0.0987  0.2067  0.1168
  250CHOL    C1 2244  11.908   2.555   6.384 -0.4473  0.1417  0.4701
  250CHOL    C2 2245  11.909   2.229   6.800  0.0384  0.1810 -0.2152
  251XCA    COO 2246   5.917   0.669   8.842  0.0574  0.0087 -0.1124
  251XCA     C1 2247   5.745   0.585   8.450 -0.1186 -0.3960  0.1148
  251XCA     C2 2248   5.427   0.724   8.001  0.0710 -0.0571 -0.2071
  251XCA     C3 2249   5.612   0.952   7.588 -0.1898 -0.3822 -0.1584
  251XCA     C4 2250   5.583   0.972   7.219 -0.0006 -0.3013  0.3171
  251XCA     C5 2251   5.773   0.944   6.809  0.0354 -0.1242 -0.0045
  251XCA     C6 2252   5.585   0.801   6.403  0.0283 -0.0498 -0.2754
  252XCA    COO 2253  10.260   9.043   7.957  0.0518 -0.0413  0.0746
  252XCA     C1 2254  10.170   9.044   7.497 -0.0441  0.1264 -0.0030
  252XCA     C2 2255  10.165   8.890   7.095 -0.1193 -0.0369  0.1901
  252XCA     C3 2256  10.008   8.811   6.748 -0.0608 -0.0108  0.0870
  252XCA     C4 2257   9.943   8.471   6.426  0.2803 -0.3438 -0.0537
  252XCA     C5 2258  10.194   8.176   6.172  0.1670 -0.0966 -0.0285
  252XCA     C6 2259  10.468   7.933   5.886  0.0045 -0.1989  0.2045
  253PNCE   AM1 2260  10.967   6.906   7.653  0.2282 -0.4598 -0.2494
  253PNCE   AM2 2261  10.868   7.266   7.587  0.1223 -0.2057 -0.2901
  253PNCE   T1A 2262  10.593   6.754   7.477  0.0513  0.0937  0.5329
  253PNCE   C2A 2263  10.231   6.881   7.193  0.0547  0.1202 -0.1172
  253PNCE   C3A 2264   9.818   6.888   7.342 -0.1566 -0.2559  0.2864
  253PNCE   C1B 2265  10.837   7.157   7.082 -0.1293  0.3650 -0.0797
  253PNCE   C2B 2266  10.837   7.168   6.603 -0.2108  0.0622  0.1398
  253PNCE   C3B 2267  11.001   7.231   6.203 -0.0323 -0.2530  0.1999
  253PNCE   D4B 2268  10.997   6.943   5.806 -0.3825 -0.0384  0.0902
  253PNCE   C5B 2269  11.053   6.582   5.745 -0.0287  0.1628  0.2005
  253PNCE   C6B 2270  11.033   6.346   5.434 -0.2350 -0.0168 -0.1764
  254XCA    COO 2271   2.015   0.636   4.346 -0.3384  0.1373  0.1982
  254XCA     C1 2272   1.849   0.666   4.715 -0.0057  0.1858  0.0110
  254XCA     C2 2273   2.126   0.630   5.087  0.0537  0.0061 -0.1127
  254XCA     C3 2274   2.530   0.695   5.333 -0.0280 -0.3431  0.1923
  254XCA     C4 2275   2.854   0.725   5.619  0.2047  0.1522 -0.3157
  254XCA     C5 2276   2.954   1.016   5.856 -0.4413  0.1043  0.2904
  254XCA     C6 2277   3.081   1.401   5.735 -0.0351  0.4180 -0.2921
  255CHOL   ROH 2278  13.824   5.579   7.368 -0.0482  0.1736  0.0822
  255CHOL    R1 2279  13.822   5.747   7.140 -0.1955  0.1416  0.0606
  255CHOL    R2 2280  13.816   5.649   6.883 -0.0592  0.1023  0.0723
  255CHOL    R3 2281  13.598   5.810   6.860 -0.2262 -0.1289  0.0243
  255CHOL    R4 2282  13.641   5.706   6.589  0.0634  0.0718 -0.0069
  255CHOL    R5 2283  13.623   5.915   6.647 -0.2069  0.0198  0.0997
  255CHOL    C1 2284  13.335   5.890   6.398 -0.0207 -0.1627 -0.0981
  255CHOL    C2 2285  13.255   5.836   5.938 -0.1488 -0.1717 -0.0868
  256PNCE   AM1 2286   2.642  12.899   7.939  0.0146 -0.1455 -0.3580
  256PNCE   AM2 2287   2.846  13.156   7.871  0.0037  0.0803  0.2643
  256PNCE   T1A 2288   2.505  12.596   7.637  0.2202  0.0133 -0.0536
  256PNCE   C2A 2289   2.523  12.251   7.328  0.0362  0.0862 -0.1964
  256PNCE   C3A 2290   2.339  12.324   7.068 -0.0777 -0.1407 -0.2330
  256PNCE   C1B 2291   2.851  13.088   7.453  0.0473 -0.1238 -0.0300
  256PNCE   C2B 2292   2.603  12.785   7.202  0.2512  0.0962  0.0178
  256PNCE   C3B 2293   2.304  12.732   6.862 -0.0918 -0.0293 -0.0063
  256PNCE   D4B 2294   2.035  12.846   6.512  0.0182  0.0466  0.1766
  256PNCE   C5B 2295   2.104  12.568   6.264  0.1135 -0.1213  0.0646
  256PNCE   C6B 2296   2.181  12.388   5.851 -0.1655  0.0304  0.0155
  257PNCE   AM1 2297  12.314  14.616   8.952  0.0469  0.0801  0.0557
  257PNCE   AM2 2298  12.007  14.465   9.050  0.3890  0.1588  0.0114
  257PNCE   T1A 2299  12.732  14.648   8.652  0.0607 -0.2590  0.0013
  257PNCE   C2A 2300  12.840  14.657   8.175 -0.0717  0.1943 -0.3294
  257PNCE   C3A 2301  13.139  14.256   7.873  0.4321  0.1973  0.1608
  257PNCE   C1B 2302  11.867  14.702   8.533  0.1406  0.1080 -0.3067
  257PNCE   C2B 2303  11.599  14.849   8.173 -0.4025  0.1088  0.2351
  257PNCE   C3B 2304  11.269  14.617   7.876 -0.0833 -0.0884 -0.1090
  257PNCE   D4B 2305  11.184  14.667   7.425 -0.1032  0.2060  0.1109
  257PNCE   C5B 2306  10.901  14.694   7.014  0.1395  0.0918  0.1019
  257PNCE   C6B 2307  10.493  14.419   7.115 -0.5765 -0.0659  0.1987
  258PNCE   AM1 2308   4.658  15.396   8.195  0.2252  0.0652 -0.1092
  258PNCE   AM2 2309   4.783  15.670   8.351  0.1917  0.1401 -0.0947
  258PNCE   T1A 2310   4.900  15.621   7.892  0.0093  0.0194  0.2038
  258PNCE   C2A 2311   5.273  15.897   7.782  0.1382  0.0699  0.0306
  258PNCE   C3A 2312   5.588  16.107   7.599  0.0541  0.1347 -0.0868
  258PNCE   C1B 2313   5.236  15.783   8.316  0.0169  0.0242 -0.1145
  258PNCE   C2B 2314   5.572  16.027   8.148  0.1247 -0.3666 -0.4554
  258PNCE   C3B 2315   5.564  16.585   7.980 -0.0396  0.1963  0.1521
  258PNCE   D4B 2316   5.721  16.716   7.585  0.4152  0.1514  0.0715
  258PNCE   C5B 2317   5.877  16.451   7.250  0.0348  0.1619 -0.2895
  258PNCE   C6B 2318   5.699  16.112   7.053 -0.1350  0.1203  0.3383
  259CHOL   ROH 2319  13.112   5.727   7.388 -0.1173 -0.1424 -0.0018
  259CHOL    R1 2320  13.201   5.730   7.119 -0.1612 -0.0882 -0.0160
  259CHOL    R2 2321  13.359   5.530   7.013 -0.0333  0.0228 -0.0341
  259CHOL    R3 2322  13.162   5.518   6.826 -0.0544 -0.1268 -0.0024
  259CHOL    R4 2323  13.391   5.384   6.701  0.0730  0.1795 -0.0968
  259CHOL    R5 2324  13.275   5.549   6.618 -0.1278  0.0820 -0.0112
  259CHOL    C1 2325  13.225   5.287   6.344  0.1160  0.1303 -0.1029
  259CHOL    C2 2326  13.335   5.358   5.965  0.3278 -0.2573  0.0212
  260XCA    COO 2327  10.633   8.047   3.975 -0.1472  0.1338 -0.0195
  260XCA     C1 2328  10.634   8.282   4.357 -0.0506  0.2025 -0.0948
  260XCA     C2 2329  10.505   8.460   4.746 -0.3288  0.1490  0.0190
  260XCA     C3 2330  10.192   8.481   5.174 -0.0480  0.0845 -0.0975
  260XCA     C4 2331   9.818   8.318   5.506  0.0587  0.5480 -0.0043
  260XCA     C5 2332   9.642   8.179   5.866 -0.0642  0.1192  0.4014
  260XCA     C6 2333   9.712   7.911   6.195 -0.1266  0.2981  0.2568
  261PNCE   AM1 2334   4.173  10.359   7.051 -0.1154  0.2888 -0.0368
  261PNCE   AM2 2335   4.324  10.645   7.310  0.1163  0.1504 -0.2960
  261PNCE   T1A 2336   4.434  10.289   6.696 -0.2089 -0.2558 -0.1322
  261PNCE   C2A 2337   4.569  10.311   6.323 -0.0426 -0.2798  0.1288
  261PNCE   C3A 2338   4.591  10.092   5.961 -0.0403  0.2295 -0.0172
  261PNCE   C1B 2339   4.629  10.546   7.123  0.0367  0.0026  0.2927
  261PNCE   C2B 2340   4.893  10.533   6.695  0.0665 -0.3385 -0.2235
  261PNCE   C3B 2341   5.188  10.858   6.538  0.0009 -0.0478 -0.5493
  261PNCE   D4B 2342   5.408  11.251   6.707 -0.0347  0.0735 -0.1100
  261PNCE   C5B 2343   5.467  11.449   6.441 -0.0786  0.1195  0.0662
  261PNCE   C6B 2344   5.583  11.823   6.203 -0.0937  0.0388 -0.0678
  262CHOL   ROH 2345   4.424   4.004   6.924  0.1622 -0.1014  0.0192
  262CHOL    R1 2346   4.389   4.255   6.797  0.1886 -0.0648  0.0844
  262CHOL    R2 2347   4.601   4.412   6.716  0.2046 -0.1085  0.0419
  262CHOL    R3 2348   4.475   4.403   6.475  0.1168 -0.0217  0.0851
  262CHOL    R4 2349   4.686   4.604   6.441  0.1686 -0.0818  0.0494
  262CHOL    R5 2350   4.473   4.630   6.401  0.1626 -0.0067  0.1297
  262CHOL    C1 2351   4.616   4.707   6.055  0.0651  0.0149  0.0941
  262CHOL    C2 2352   4.387   4.966   5.831  0.0624  0.0586 -0.2727
  263PNCE   AM1 2353  14.517  15.813   6.978 -0.1952  0.0674 -0.2730
  263PNCE   AM2 2354  14.304  15.639   7.254 -0.0062  0.1365 -0.1492
  263PNCE   T1A 2355  14.400  16.238   6.933  0.0359 -0.2257 -0.1831
  263PNCE   C2A 2356  14.597  16.611   7.170  0.0740 -0.1668  0.0190
  263PNCE   C3A 2357  14.857  17.022   7.025 -0.0132  0.0858 -0.1839
  263PNCE   C1B 2358  14.727  15.536   7.296 -0.0393 -0.3458  0.0583
  263PNCE   C2B 2359  15.056  15.276   7.034  0.0981 -0.1067  0.2540
  263PNCE   C3B 2360  15.026  14.965   6.711 -0.0807 -0.4785 -0.1993
  263PNCE   D4B 2361  15.269  14.723   6.716  0.0375  0.0724  0.2104
  263PNCE   C5B 2362  15.463  14.461   7.057 -0.5061 -0.0321  0.1493
  263PNCE   C6B 2363  15.684  14.235   7.427 -0.2051 -0.1148  0.0228
  264CHOL   ROH 2364   7.667  12.036   8.340  0.2747  0.1980  0.0511
  264CHOL    R1 2365   7.797  12.099   8.097  0.0656  0.0801 -0.0920
  264CHOL    R2 2366   8.022  11.964   8.009  0.1294  0.1936 -0.1047
  264CHOL    R3 2367   7.872  11.928   7.785  0.0183 -0.1519  0.0245
  264CHOL    R4 2368   8.150  11.915   7.693 -0.0286  0.2360 -0.1757
  264CHOL    R5 2369   7.993  12.044   7.614 -0.2894 -0.0486 -0.1240
  264CHOL    C1 2370   8.086  11.851   7.297 -0.2238 -0.0634 -0.0960
  264CHOL    C2 2371   8.173  11.648   6.987  0.0999  0.2125  0.1263
  265XCA    COO 2372   0.424   3.881   8.420  0.2050  0.0234  0.0038
  265XCA     C1 2373   0.497   3.611   8.072 -0.0589  0.2290 -0.1351
  265XCA     C2 2374   0.749   3.281   7.907 -0.1553  0.1915 -0.1033
  265XCA     C3 2375   1.106   3.165   7.715  0.0205  0.2705  0.0217
  265XCA     C4 2376   1.184   2.905   7.292 -0.0615 -0.1862  0.1561
  265XCA     C5 2377   1.359   2.973   6.937 -0.0343 -0.0846 -0.1486
  265XCA     C6 2378   1.428   2.886   6.597  0.4340 -0.1476  0.3946
  266PNCE   AM1 2379  13.247   2.986   7.929  0.2386 -0.1635 -0.1075
  266PNCE   AM2 2380  13.235   2.622   7.983  0.2254  0.1274 -0.0751
  266PNCE   T1A 2381  13.335   3.114   7.493 -0.0886  0.1463 -0.3020
  266PNCE   C2A 2382  13.180   3.161   7.182 -0.0642  0.1981  0.1978
  266PNCE   C3A 2383  13.120   3.302   6.814 -0.0589 -0.1266 -0.2687
  266PNCE   C1B 2384  13.215   2.513   7.483 -0.2316  0.0218  0.1338
  266PNCE   C2B 2385  13.080   2.609   7.099  0.2851  0.0516  0.3147
  266PNCE   C3B 2386  12.732   2.786   6.885 -0.3755 -0.1559 -0.0033
  266PNCE   D4B 2387  12.824   2.969   6.526 -0.1872  0.1915  0.0353
  266PNCE   C5B 2388  12.776   3.053   6.157  0.0673 -0.0568 -0.0268
  266PNCE   C6B 2389  12.673   3.159   5.842  0.0971 -0.1815 -0.1083
  267PNCE   AM1 2390   7.305   7.510   7.641 -0.1884 -0.2096  0.0570
  267PNCE   AM2 2391   7.100   7.307   7.742 -0.1832 -0.0221  0.1104
  267PNCE   T1A 2392   7.296   7.647   7.210 -0.0343  0.0812 -0.2205
  267PNCE   C2A 2393   7.333   7.710   6.728  0.1484 -0.0648 -0.1638
  267PNCE   C3A 2394   7.018   7.895   6.376 -0.1134  0.2646  0.1982
  267PNCE   C1B 2395   6.876   7.385   7.350  0.0817  0.0021 -0.1940
  267PNCE   C2B 2396   6.950   7.274   6.958  0.1689  0.0721 -0.2143
  267PNCE   C3B 2397   6.944   7.427   6.528 -0.1896 -0.0351  0.0630
  267PNCE   D4B 2398   6.726   7.497   6.202  0.3362 -0.1177 -0.4872
  267PNCE   C5B 2399   6.441   7.306   6.023  0.2094 -0.0830 -0.1892
  267PNCE   C6B 2400   5.982   7.120   6.101  0.0013 -0.1402  0.0887
  268CHOL   ROH 2401   5.378  12.378   4.849 -0.0349  0.2697  0.0682
  268CHOL    R1 2402   5.317  12.413   5.123 -0.0310  0.1521  0.0842
  268CHOL    R2 2403   5.072  12.343   5.231 -0.0252  0.0953  0.0601
  268CHOL    R3 2404   5.226  12.199   5.404 -0.0150  0.0314 -0.0034
  268CHOL    R4 2405   4.997  12.288   5.564  0.2115  0.3333  0.1535
  268CHOL    R5 2406   5.208  12.317   5.612  0.2816  0.1512 -0.0455
  268CHOL    C1 2407   5.097  12.121   5.920  0.3593  0.4113  0.1484
  268CHOL    C2 2408   5.020  12.246   6.329  0.4346 -0.0916  0.0469
  269XCA    COO 2409   8.700   3.137   8.266 -0.2915  0.2768 -0.1859
  269XCA     C1 2410   8.896   3.340   7.893  0.1966  0.0797  0.2080
  269XCA     C2 2411   9.044   3.267   7.505  0.0923  0.0078 -0.0748
  269XCA     C3 2412   9.028   3.276   7.107 -0.0682  0.3350 -0.0027
  269XCA     C4 2413   9.020   3.122   6.690  0.1524 -0.0932  0.0721
  269XCA     C5 2414   9.275   3.212   6.331 -0.2678 -0.0428 -0.4534
  269XCA     C6 2415   9.611   2.954   6.072 -0.1983 -0.2465  0.0853
  270CHOL   ROH 2416   0.933  14.897   8.229  0.1327  0.1069 -0.0231
  270CHOL    R1 2417   1.006  14.910   7.956  0.3142 -0.0134  0.0203
  270CHOL    R2 2418   0.918  15.110   7.788  0.1058 -0.3093 -0.2233
  270CHOL    R3 2419   1.183  15.143   7.741  0.0871  0.0896 -0.0551
  270CHOL    R4 2420   1.052  15.246   7.500  0.0969 -0.4091 -0.2739
  270CHOL    R5 2421   1.209  15.095   7.507  0.3492 -0.1330  0.0188
  270CHOL    C1 2422   1.379  15.356   7.287  0.0742 -0.0923 -0.1463
  270CHOL    C2 2423   1.475  15.579   6.988 -0.0612 -0.3215 -0.0038
  271XCA    COO 2424   4.002  11.024   7.237 -0.0703 -0.1233  0.1772
  271XCA     C1 2425   3.789  10.907   6.912  0.0643 -0.2695  0.1132
  271XCA     C2 2426   3.523  10.890   6.483  0.1083  0.0994 -0.0030
  271XCA     C3 2427   3.278  10.613   6.166  0.1379  0.2445 -0.0480
  271XCA     C4 2428   2.866  10.695   6.119 -0.3144 -0.1258 -0.2267
  271XCA     C5 2429   2.337  10.683   6.024  0.0512  0.3474  0.1092
  271XCA     C6 2430   2.075  10.397   5.704  0.2758 -0.0862  0.2137
  272PNCE   AM1 2431   6.732   2.268   8.430 -0.0725 -0.2143  0.0270
  272PNCE   AM2 2432   6.991   2.358   8.605  0.1351  0.0458  0.3052
  272PNCE   T1A 2433   6.569   2.424   8.078 -0.2900  0.2480  0.0020
  272PNCE   C2A 2434   6.282   2.682   7.852 -0.1745 -0.1462  0.0121
  272PNCE   C3A 2435   5.970   2.892   7.498  0.0977  0.1449  0.2174
  272PNCE   C1B 2436   7.202   2.328   8.243  0.1418  0.6196  0.3125
  272PNCE   C2B 2437   7.062   2.164   7.916 -0.0736 -0.0184 -0.1293
  272PNCE   C3B 2438   6.833   2.298   7.445 -0.0051  0.0270  0.1502
  272PNCE   D4B 2439   6.547   2.079   7.068 -0.1242 -0.2478  0.0523
  272PNCE   C5B 2440   6.168   1.781   7.269 -0.2114  0.3162  0.0472
  272PNCE   C6B 2441   5.784   1.711   7.593 -0.1614  0.0727 -0.2140
  273CHOL   ROH 2442  11.484  12.730   5.186 -0.3510  0.2086  0.1618
  273CHOL    R1 2443  11.382  12.657   5.440 -0.3095 -0.0129  0.1147
  273CHOL    R2 2444  11.340  12.394   5.513 -0.1464 -0.0852 -0.0500
  273CHOL    R3 2445  11.497  12.461   5.725 -0.1927 -0.1187 -0.0057
  273CHOL    R4 2446  11.374  12.206   5.801  0.0544 -0.3014 -0.2146
  273CHOL    R5 2447  11.372  12.391   5.916 -0.1106 -0.4029 -0.0551
  273CHOL    C1 2448  11.541  12.159   6.167  0.1288 -0.4584 -0.2687
  273CHOL    C2 2449  11.399  12.193   6.560  0.0750  0.0354 -0.1785
  274CHOL   ROH 2450   4.284  10.393   3.738 -0.3385 -0.0590 -0.1909
  274CHOL    R1 2451   4.275  10.482   4.006 -0.1848 -0.1922 -0.1416
  274CHOL    R2 2452   4.174  10.729   4.078  0.0851 -0.1253  0.0119
  274CHOL    R3 2453   4.018  10.580   4.245 -0.0294 -0.0532 -0.0309
  274CHOL    R4 2454   4.027  10.847   4.368  0.1566 -0.0887  0.0339
  274CHOL    R5 2455   4.076  10.657   4.464  0.0165 -0.1478 -0.0095
  274CHOL    C1 2456   3.795  10.776   4.693  0.0907 -0.0008  0.0061
  274CHOL    C2 2457   3.502  10.594   4.877 -0.0183  0.3564  0.0079
  275CHOL   ROH 2458   5.056   8.180   5.414 -0.0986  0.0553 -0.2920
  275CHOL    R1 2459   5.317   8.290   5.404 -0.1044  0.0877 -0.0837
  275CHOL    R2 2460   5.439   8.401   5.625 -0.1950 -0.1289  0.0759
  275CHOL    R3 2461   5.637   8.225   5.564 -0.1572 -0.0498 -0.0332
  275CHOL    R4 2462   5.772   8.441   5.708 -0.1693 -0.0072 -0.0873
  275CHOL    R5 2463   5.826   8.363   5.512 -0.2363  0.0253 -0.1187
  275CHOL    C1 2464   6.152   8.299   5.700 -0.1187  0.1391 -0.2848
  275CHOL    C2 2465   6.407   8.184   5.917 -0.1915  0.1083 -0.1813
  276PNCE   AM1 2466   9.057   4.219   7.934  0.1583 -0.0493  0.2509
  276PNCE   AM2 2467   9.166   4.451   7.817 -0.0540  0.1315  0.0653
  276PNCE   T1A 2468   8.674   4.262   7.677  0.0676 -0.1638  0.1789
  276PNCE   C2A 2469   8.315   3.992   7.599 -0.0386  0.0913 -0.1428
  276PNCE   C3A 2470   8.133   3.722   7.313  0.1325 -0.0805  0.0658
  276PNCE   C1B 2471   9.123   4.217   7.446  0.2976 -0.3511 -0.2437
  276PNCE   C2B 2472   9.004   3.930   7.153  0.1342 -0.1496 -0.1059
  276PNCE   C3B 2473   9.320   3.672   6.911  0.2465 -0.2335  0.2767
  276PNCE   D4B 2474   9.501   3.681   6.530 -0.2656  0.0011  0.2207
  276PNCE   C5B 2475   9.367   3.696   6.159  0.0278 -0.0234  0.1027
  276PNCE   C6B 2476   9.019   3.540   6.002  0.2052 -0.2405 -0.1199
  277PNCE   AM1 2477  10.145   1.519   8.334  0.4552 -0.0458  0.0819
  277PNCE   AM2 2478  10.147   1.868   8.068  0.1913  0.2620 -0.0107
  277PNCE   T1A 2479   9.896   1.353   8.020  0.4052  0.0183 -0.0195
  277PNCE   C2A 2480   9.707   1.296   7.593 -0.1400  0.1219 -0.0828
  277PNCE   C3A 2481   9.913   1.135   7.390  0.1932 -0.0099 -0.2105
  277PNCE   C1B 2482  10.145   1.657   7.749 -0.3515  0.1752  0.0805
  277PNCE   C2B 2483  10.154   1.557   7.332 -0.2790 -0.0062 -0.0746
  277PNCE   C3B 2484  10.197   1.366   7.035  0.0673  0.0810 -0.1990
  277PNCE   D4B 2485  10.121   1.517   6.595  0.1081  0.2346  0.3529
  277PNCE   C5B 2486   9.857   1.801   6.643 -0.0976  0.1658  0.3284
  277PNCE   C6B 2487   9.668   1.921   6.968  0.3004 -0.1433 -0.0065
  278PNCE   AM1 2488   2.385  11.554   7.849 -0.0168  0.1098 -0.2797
  278PNCE   AM2 2489   2.387  11.358   8.160  0.2184 -0.0485  0.2228
  278PNCE   T1A 2490   2.689  11.430   7.554  0.0013  0.1768 -0.0145
  278PNCE   C2A 2491   2.904  11.393   7.150 -0.4155  0.1296  0.2616
  278PNCE   C3A 2492   3.083  11.548   6.737  0.1305 -0.1376  0.2986
  278PNCE   C1B 2493   2.349  10.999   7.704  0.0476 -0.1341 -0.0386
  278PNCE   C2B 2494   2.058  11.059   7.263 -0.3858  0.2405 -0.1979
  278PNCE   C3B 2495   1.692  11.268   7.028 -0.1145 -0.0154 -0.1123
  278PNCE   D4B 2496   1.621  11.439   6.627 -0.0607  0.1792 -0.2339
  278PNCE   C5B 2497   1.229  11.722   6.622 -0.1028 -0.1752 -0.0706
  278PNCE   C6B 2498   1.065  11.732   6.212 -0.2153  0.3659 -0.1734
  279CHOL   ROH 2499  16.130   7.830   7.102  0.1252 -0.0274 -0.0349
  279CHOL    R1 2500  16.267   7.992   6.914 -0.0076 -0.0646 -0.1640
  279CHOL    R2 2501  16.535   8.053   6.938 -0.1029  0.3364 -0.1074
  279CHOL    R3 2502  16.548   7.952   6.686  0.1593  0.0471  0.0213
  279CHOL    R4 2503  16.745   8.169   6.690 -0.2224  0.3996 -0.1788
  279CHOL    R5 2504  16.582   8.144   6.547 -0.1312 -0.0634 -0.2038
  279CHOL    C1 2505  16.880   8.142   6.308 -0.0458  0.1645 -0.1004
  279CHOL    C2 2506  17.249   8.192   6.143  0.0539  0.2192  0.2464
  280PNCE   AM1 2507   4.966   2.406   8.339 -0.1587 -0.0964  0.3425
  280PNCE   AM2 2508   5.168   2.056   8.479  0.2152 -0.4740 -0.0775
  280PNCE   T1A 2509   4.509   2.372   8.109 -0.1761  0.1741  0.0476
  280PNCE   C2A 2510   4.253   2.063   7.856  0.0093  0.0519  0.1997
  280PNCE   C3A 2511   4.064   1.823   7.698  0.2424  0.1703 -0.0165
  280PNCE   C1B 2512   5.358   1.726   8.151  0.1456  0.1000  0.0536
  280PNCE   C2B 2513   5.448   1.270   8.034  0.0673  0.0712 -0.0843
  280PNCE   C3B 2514   5.137   1.081   7.737  0.1514 -0.1742  0.0978
  280PNCE   D4B 2515   4.982   1.016   7.367  0.0170  0.0530  0.0745
  280PNCE   C5B 2516   5.156   1.120   7.022 -0.3286  0.1286 -0.3231
  280PNCE   C6B 2517   5.415   1.351   6.708  0.1049  0.2271 -0.2847
  281XCA    COO 2518   4.859   2.548   4.910  0.1354 -0.0107 -0.1874
  281XCA     C1 2519   4.655   2.907   5.143 -0.2146 -0.2069 -0.0919
  281XCA     C2 2520   4.454   3.059   5.556  0.2304  0.0369 -0.1508
  281XCA     C3 2521   4.547   3.449   5.754  0.1617  0.1405  0.1752
  281XCA     C4 2522   5.031   3.489   5.842 -0.2553  0.2215  0.3182
  281XCA     C5 2523   5.330   3.721   5.816 -0.0300 -0.0738 -0.0909
  281XCA     C6 2524   5.794   3.640   5.869 -0.1348 -0.1809 -0.1224
  282CHOL   ROH 2525  10.447   3.620   5.489  0.0625  0.0904  0.0022
  282CHOL    R1 2526  10.199   3.751   5.452  0.0238 -0.0103 -0.0942
  282CHOL    R2 2527   9.971   3.616   5.374  0.0217 -0.1644  0.1796
  282CHOL    R3 2528   9.866   3.732   5.597  0.0804  0.1329  0.0530
  282CHOL    R4 2529   9.636   3.693   5.418 -0.0100 -0.3608  0.2768
  282CHOL    R5 2530   9.697   3.880   5.513 -0.0973 -0.1483 -0.0856
  282CHOL    C1 2531   9.343   3.846   5.653  0.0254 -0.1959  0.2141
  282CHOL    C2 2532   9.016   4.092   5.745  0.0101 -0.2024  0.2644
  283CHOL   ROH 2533   5.696   7.715   4.378 -0.2404  0.0947  0.3393
  283CHOL    R1 2534   5.734   7.538   4.596 -0.2010  0.0021  0.2580
  283CHOL    R2 2535   5.717   7.264   4.570 -0.1355  0.0096  0.1301
  283CHOL    R3 2536   5.964   7.270   4.682 -0.1382  0.0165  0.1353
  283CHOL    R4 2537   5.850   7.014   4.768 -0.1543  0.0374  0.1783
  283CHOL    R5 2538   5.935   7.168   4.897 -0.1495  0.0565  0.1531
  283CHOL    C1 2539   6.160   6.874   4.988 -0.1672  0.0604  0.2112
  283CHOL    C2 2540   6.129   6.684   5.262 -0.0620 -0.0753 -0.1963
  284CHOL   ROH 2541   6.136  15.921   7.980 -0.0867 -0.0688  0.1351
  284CHOL    R1 2542   6.215  15.866   7.714 -0.1390 -0.1621  0.1392
  284CHOL    R2 2543   6.079  15.688   7.552 -0.2869 -0.0717  0.1639
  284CHOL    R3 2544   6.069  15.900   7.382 -0.1224 -0.0834  0.1403
  284CHOL    R4 2545   6.020  15.665   7.212 -0.2053 -0.0725  0.1497
  284CHOL    R5 2546   6.172  15.819   7.181 -0.1113 -0.1602  0.1767
  284CHOL    C1 2547   5.976  15.851   6.855 -0.0037 -0.0846  0.1195
  284CHOL    C2 2548   5.987  16.179   6.581  0.1226  0.0168 -0.0107
  285PNCE   AM1 2549   1.875  13.376   8.243  0.0894 -0.0481  0.0450
  285PNCE   AM2 2550   1.595  13.401   8.140 -0.1864  0.2449 -0.0844
  285PNCE   T1A 2551   2.032  13.465   7.924 -0.1264  0.0829  0.0397
  285PNCE   C2A 2552   2.063  13.820   7.593  0.1962 -0.1428  0.2991
  285PNCE   C3A 2553   1.907  13.751   7.213  0.3246  0.2091  0.0741
  285PNCE   C1B 2554   1.622  13.664   7.746  0.2600 -0.0758  0.0901
  285PNCE   C2B 2555   1.457  13.484   7.285 -0.1562 -0.1568 -0.2195
  285PNCE   C3B 2556   1.380  13.812   6.990 -0.1564 -0.5909 -0.0992
  285PNCE   D4B 2557   1.288  14.120   6.773  0.0685  0.2872  0.1170
  285PNCE   C5B 2558   0.979  14.232   6.624 -0.2392  0.0048  0.3267
  285PNCE   C6B 2559   0.722  14.597   6.675 -0.1654 -0.1429  0.2927
  286CHOL   ROH 2560  15.776   3.698   4.165 -0.1940  0.0828 -0.0063
  286CHOL    R1 2561  15.797   3.558   4.409 -0.2403  0.0062 -0.0460
  286CHOL    R2 2562  15.990   3.617   4.598 -0.1727 -0.1599 -0.0620
  286CHOL    R3 2563  15.775   3.639   4.764 -0.1333 -0.0706 -0.0216
  286CHOL    R4 2564  15.967   3.474   4.912 -0.1988 -0.2031 -0.0837
  286CHOL    R5 2565  15.760   3.425   4.869 -0.2341 -0.0808 -0.0575
  286CHOL    C1 2566  15.753   3.411   5.250 -0.1766 -0.1446 -0.0583
  286CHOL    C2 2567  15.777   3.570   5.650 -0.0972 -0.0857  0.1092
  287PNCE   AM1 2568   4.755  13.328   7.433 -0.0034 -0.0191 -0.0625
  287PNCE   AM2 2569   4.702  13.042   7.547 -0.2376 -0.0841  0.3197
  287PNCE   T1A 2570   4.677  13.209   6.990  0.0108  0.1563  0.1756
  287PNCE   C2A 2571   4.939  13.100   6.614 -0.0911  0.0211  0.1758
  287PNCE   C3A 2572   5.224  13.115   6.234 -0.0472  0.0371  0.1931
  287PNCE   C1B 2573   4.847  12.743   7.285  0.1320  0.2507 -0.0224
  287PNCE   C2B 2574   5.103  12.338   7.242  0.0137  0.2472 -0.3036
  287PNCE   C3B 2575   5.466  12.088   7.318  0.2742 -0.0889  0.1307
  287PNCE   D4B 2576   5.892  12.154   7.272  0.2129  0.0818  0.0594
  287PNCE   C5B 2577   6.260  12.246   7.033  0.0740  0.2667  0.1840
  287PNCE   C6B 2578   6.374  12.400   6.632 -0.2160 -0.2420  0.0962
  288XCA    COO 2579  10.285  12.381   8.399  0.2779  0.1612  0.2536
  288XCA     C1 2580  10.043  12.614   8.024  0.0309  0.0187  0.1286
  288XCA     C2 2581   9.992  12.858   7.727  0.1451  0.2037  0.1999
  288XCA     C3 2582   9.900  12.836   7.249  0.1374  0.1306 -0.1156
  288XCA     C4 2583   9.759  13.082   6.984 -0.2587  0.2008  0.1924
  288XCA     C5 2584   9.561  13.453   6.932  0.2757 -0.0174  0.3891
  288XCA     C6 2585   9.227  13.618   6.612 -0.0287 -0.2756  0.1473
  289CHOL   ROH 2586   4.792   9.556   5.380  0.1251  0.0179  0.0022
  289CHOL    R1 2587   4.961   9.768   5.458  0.1457  0.0463 -0.1221
  289CHOL    R2 2588   5.237   9.752   5.442  0.1388  0.0679 -0.2542
  289CHOL    R3 2589   5.210   9.981   5.299  0.0487  0.0378 -0.2844
  289CHOL    R4 2590   5.463  10.013   5.443 -0.0243  0.2093 -0.1938
  289CHOL    R5 2591   5.295  10.152   5.443 -0.1113  0.1040 -0.2685
  289CHOL    C1 2592   5.569  10.380   5.309 -0.2040  0.2636 -0.1870
  289CHOL    C2 2593   5.965  10.419   5.357  0.1348 -0.0277 -0.2307
  290PNCE   AM1 2594  11.049   6.415   7.661  0.0187 -0.1450  0.2045
  290PNCE   AM2 2595  11.390   6.310   7.823  0.1694 -0.0088 -0.2401
  290PNCE   T1A 2596  10.919   6.260   7.351 -0.1827 -0.2458 -0.2552
  290PNCE   C2A 2597  10.735   6.058   6.934 -0.0872 -0.4299  0.2461
  290PNCE   C3A 2598  10.657   5.895   6.645  0.0446 -0.1203  0.1978
  290PNCE   C1B 2599  11.356   6.060   7.451 -0.3546 -0.3371  0.4015
  290PNCE   C2B 2600  11.137   5.850   7.105 -0.0348 -0.0039  0.2080
  290PNCE   C3B 2601  11.162   5.631   6.693 -0.1885  0.2289 -0.0715
  290PNCE   D4B 2602  11.110   5.670   6.364 -0.2189  0.3422  0.0260
  290PNCE   C5B 2603  11.051   5.310   6.238 -0.1491  0.0716  0.2868
  290PNCE   C6B 2604  11.266   4.932   6.383 -0.2085  0.3650 -0.3289
  291XCA    COO 2605  10.181   5.098   7.945  0.3106 -0.0366  0.0821
  291XCA     C1 2606  10.052   4.892   7.549 -0.0266  0.0995  0.0755
  291XCA     C2 2607   9.936   4.634   7.139 -0.1379 -0.0407  0.4451
  291XCA     C3 2608   9.723   4.563   6.827  0.0575 -0.3026 -0.5416
  291XCA     C4 2609   9.520   4.663   6.497  0.0896  0.0628  0.0811
  291XCA     C5 2610   9.239   4.600   6.268 -0.3094 -0.1197 -0.2182
  291XCA     C6 2611   9.196   4.552   5.884  0.0381  0.1666 -0.2847
  292CHOL   ROH 2612  11.210  13.715   8.372 -0.0387  0.0636  0.0448
  292CHOL    R1 2613  11.092  13.785   8.125  0.0353  0.1721  0.0396
  292CHOL    R2 2614  11.231  13.775   7.886  0.0424  0.0633  0.0478
  292CHOL    R3 2615  11.023  13.618   7.808 -0.0860  0.2420  0.0293
  292CHOL    R4 2616  11.121  13.740   7.560  0.1626  0.0095  0.0131
  292CHOL    R5 2617  10.916  13.744   7.634  0.1302  0.2646 -0.0875
  292CHOL    C1 2618  10.862  13.573   7.298  0.1118  0.1467 -0.0246
  292CHOL    C2 2619  10.692  13.711   6.986  0.1201  0.0981  0.0179
  293CHOL   ROH 2620   8.492   7.838   7.828  0.1732 -0.0082  0.0397
  293CHOL    R1 2621   8.569   7.835   7.556  0.1631 -0.0324  0.0372
  293CHOL    R2 2622   8.551   8.058   7.393  0.1612 -0.0461  0.0192
  293CHOL    R3 2623   8.814   8.008   7.349  0.1584 -0.0549  0.0130
  293CHOL    R4 2624   8.722   8.144   7.106  0.1674 -0.0176  0.0310
  293CHOL    R5 2625   8.826   7.952   7.116  0.1559 -0.0248  0.0057
  293CHOL    C1 2626   9.070   8.146   6.896  0.1680 -0.0093  0.0323
  293CHOL    C2 2627   8.948   8.321   6.465  0.1212 -0.2172  0.1435
  294PNCE   AM1 2628   8.647   1.147   8.323 -0.0418 -0.2074 -0.0197
  294PNCE   AM2 2629   8.347   1.170   8.302 -0.0419  0.1977 -0.2714
  294PNCE   T1A 2630   8.680   1.441   7.963  0.2544  0.0382  0.0474
  294PNCE   C2A 2631   8.828   1.445   7.467 -0.2952 -0.1123  0.1373
  294PNCE   C3A 2632   8.774   1.856   7.234 -0.0364 -0.2333 -0.1418
  294PNCE   C1B 2633   8.396   0.836   8.020 -0.0825 -0.1698 -0.0238
  294PNCE   C2B 2634   8.543   0.492   7.659  0.2818  0.0369  0.0150
  294PNCE   C3B 2635   8.559   0.347   7.187  0.0935 -0.0262  0.0224
  294PNCE   D4B 2636   8.456   0.640   6.839 -0.0375 -0.0245 -0.5760
  294PNCE   C5B 2637   7.991   0.557   6.666  0.0305  0.2137 -0.0121
  294PNCE   C6B 2638   7.668   0.512   6.530  0.1007  0.3241  0.0916
  295CHOL   ROH 2639   1.907   3.330   7.733  0.0722  0.0031  0.0426
  295CHOL    R1 2640   1.956   3.128   7.540  0.0125 -0.0230  0.0544
  295CHOL    R2 2641   2.196   2.991   7.526  0.0419  0.0403 -0.0601
  295CHOL    R3 2642   2.035   2.773   7.543  0.1120 -0.0007  0.0809
  295CHOL    R4 2643   2.290   2.669   7.443 -0.0225  0.1007 -0.3705
  295CHOL    R5 2644   2.094   2.640   7.353 -0.1582  0.1070 -0.0792
  295CHOL    C1 2645   2.194   2.277   7.411  0.0062  0.0974 -0.4185
  295CHOL    C2 2646   2.261   2.086   7.077  0.2016  0.0180 -0.0106
  296PNCE   AM1 2647   1.622   7.251   3.918 -0.3728  0.0320  0.1478
  296PNCE   AM2 2648   1.915   7.245   3.759  0.0354 -0.1056  0.0180
  296PNCE   T1A 2649   1.772   7.169   4.384 -0.1741 -0.3305  0.1714
  296PNCE   C2A 2650   2.086   7.177   4.777 -0.1593 -0.1692 -0.0139
  296PNCE   C3A 2651   2.033   7.412   5.117 -0.0672  0.0390  0.4083
  296PNCE   C1B 2652   2.042   7.502   4.101 -0.2877  0.2636 -0.2187
  296PNCE   C2B 2653   2.069   7.875   4.240  0.0042 -0.2030 -0.2038
  296PNCE   C3B 2654   2.002   8.027   4.662  0.0178  0.1513  0.1972
  296PNCE   D4B 2655   2.072   8.129   5.077 -0.1362  0.2187 -0.0938
  296PNCE   C5B 2656   2.049   7.868   5.356  0.2736 -0.0667  0.1696
  296PNCE   C6B 2657   2.052   7.872   5.811  0.2089 -0.1807 -0.0198
  297XCA    COO 2658   3.251   5.964   7.471  0.1307 -0.0758 -0.0235
  297XCA     C1 2659   2.926   6.096   7.222  0.0918  0.0066 -0.0124
  297XCA     C2 2660   3.010   6.116   6.826 -0.1306  0.1582  0.1506
  297XCA     C3 2661   3.141   6.062   6.403 -0.2809  0.1836  0.3868
  297XCA     C4 2662   3.127   5.589   6.080  0.0950  0.0635 -0.2241
  297XCA     C5 2663   2.988   5.571   5.736  0.2828  0.0563 -0.2059
  297XCA     C6 2664   2.847   5.781   5.424  0.1788  0.1906 -0.1007
  298CHOL   ROH 2665   1.551   1.552   4.858  0.0184 -0.1590  0.0429
  298CHOL    R1 2666   1.534   1.514   5.138  0.0964 -0.0488  0.0620
  298CHOL    R2 2667   1.725   1.611   5.313  0.0915  0.1093 -0.0205
  298CHOL    R3 2668   1.510   1.726   5.433  0.0665  0.0642 -0.0218
  298CHOL    R4 2669   1.714   1.713   5.643  0.0964  0.1840 -0.0432
  298CHOL    R5 2670   1.511   1.636   5.655  0.1241  0.1171 -0.0007
  298CHOL    C1 2671   1.506   1.880   5.948  0.0758  0.1853 -0.0577
  298CHOL    C2 2672   1.167   2.014   6.264 -0.0844 -0.0011  0.0735
  299PNCE   AM1 2673   1.301  15.887   8.633  0.1689  0.1185 -0.0184
  299PNCE   AM2 2674   1.572  16.126   8.492 -0.1411 -0.2442 -0.4178
  299PNCE   T1A 2675   1.143  15.995   8.250  0.1685 -0.1824  0.2112
  299PNCE   C2A 2676   1.107  16.242   7.834 -0.3665  0.1278  0.4400
  299PNCE   C3A 2677   1.150  16.312   7.473 -0.0693  0.2742  0.1528
  299PNCE   C1B 2678   1.539  16.445   8.070 -0.2435 -0.1246 -0.3478
  299PNCE   C2B 2679   1.142  16.724   7.764  0.2428  0.1449 -0.0749
  299PNCE   C3B 2680   0.808  17.083   7.600 -0.1489 -0.2275 -0.1917
  299PNCE   D4B 2681   0.708  17.377   7.864  0.0137  0.1122  0.0170
  299PNCE   C5B 2682   0.556  17.801   7.641  0.0338  0.4298 -0.0149
  299PNCE   C6B 2683   0.454  18.155   7.342  0.1657 -0.0767  0.1036
  300XCA    COO 2684   6.198   8.542   7.917  0.1725  0.1706  0.0234
  300XCA     C1 2685   6.067   8.165   7.609  0.1755 -0.0428 -0.2776
  300XCA     C2 2686   6.283   7.835   7.427 -0.0390  0.0441  0.1423
  300XCA     C3 2687   6.552   7.665   7.138  0.2387  0.1400  0.0707
  300XCA     C4 2688   6.862   7.816   6.893 -0.0125 -0.2939 -0.1877
  300XCA     C5 2689   7.036   8.189   6.801 -0.0711 -0.0936  0.0912
  300XCA     C6 2690   7.489   8.373   6.997 -0.0632 -0.0582 -0.0188
  301CHOL   ROH 2691   0.948  15.026   5.582  0.2141  0.0368 -0.0090
  301CHOL    R1 2692   0.914  14.998   5.862  0.1478 -0.0715 -0.0279
  301CHOL    R2 2693   1.127  14.998   6.038  0.1077 -0.1601  0.0206
  301CHOL    R3 2694   0.986  15.197   6.158  0.0973 -0.1964  0.0678
  301CHOL    R4 2695   1.088  15.033   6.379  0.3266 -0.0925  0.0393
  301CHOL    R5 2696   0.880  15.089   6.345  0.2759 -0.1988  0.1683
  301CHOL    C1 2697   0.932  15.240   6.691  0.4442 -0.0860  0.0941
  301CHOL    C2 2698   1.014  15.279   7.017 -0.2866  0.2746  0.1479
  302CHOL   ROH 2699   8.874  11.543   4.847  0.2004  0.3209 -0.2499
  302CHOL    R1 2700   8.779  11.480   5.106  0.1130  0.1822 -0.3154
  302CHOL    R2 2701   8.870  11.263   5.249  0.0460  0.0909 -0.4114
  302CHOL    R3 2702   8.920  11.450   5.440  0.0058 -0.0227 -0.2887
  302CHOL    R4 2703   8.814  11.220   5.588  0.2146 -0.2036 -0.4210
  302CHOL    R5 2704   8.740  11.425   5.597  0.0868 -0.2580 -0.2327
  302CHOL    C1 2705   8.828  11.370   5.964  0.2754 -0.4838 -0.3111
  302CHOL    C2 2706   8.750  11.196   6.371  0.0731  0.5105  0.1557
  303XCA    COO 2707   4.796   4.636   7.955 -0.2365  0.1274  0.1678
  303XCA     C1 2708   4.700   4.621   7.526 -0.1426 -0.2062 -0.2032
  303XCA     C2 2709   4.750   4.509   7.140 -0.1022 -0.0904 -0.1177
  303XCA     C3 2710   4.917   4.805   6.837  0.2992  0.3062 -0.0989
  303XCA     C4 2711   4.783   5.052   6.633  0.2108 -0.1555  0.0272
  303XCA     C5 2712   4.579   5.196   6.254 -0.1749 -0.0631  0.2717
  303XCA     C6 2713   4.469   5.478   5.824  0.1747  0.1604 -0.1791
  304PNCE   AM1 2714   5.664   3.456   8.255 -0.1288 -0.0648  0.3603
  304PNCE   AM2 2715   5.998   3.506   8.175  0.3568 -0.3079 -0.1445
  304PNCE   T1A 2716   5.421   3.264   7.825  0.0846  0.3043  0.1652
  304PNCE   C2A 2717   5.127   3.209   7.576  0.0130  0.1153  0.2318
  304PNCE   C3A 2718   4.850   3.507   7.327  0.1175 -0.2669 -0.0334
  304PNCE   C1B 2719   5.893   3.063   8.019  0.0705  0.2141  0.0341
  304PNCE   C2B 2720   5.503   2.814   8.068  0.0290 -0.3382  0.0790
  304PNCE   C3B 2721   5.380   2.695   7.746 -0.0515 -0.0846  0.0885
  304PNCE   D4B 2722   5.529   2.792   7.319  0.1400 -0.3216 -0.0946
  304PNCE   C5B 2723   5.911   2.635   7.110 -0.3012 -0.4427 -0.0401
  304PNCE   C6B 2724   6.116   2.343   6.909  0.0692  0.3956 -0.4179
  305CHOL   ROH 2725   7.634  14.374   8.414  0.0284  0.0679  0.0045
  305CHOL    R1 2726   7.564  14.482   8.162  0.0088  0.0362 -0.0043
  305CHOL    R2 2727   7.750  14.527   7.963  0.0053  0.0855  0.0046
  305CHOL    R3 2728   7.580  14.376   7.815  0.0608  0.0263  0.0013
  305CHOL    R4 2729   7.770  14.485   7.620 -0.0150  0.1469 -0.0041
  305CHOL    R5 2730   7.553  14.499   7.611 -0.0222  0.0439  0.0234
  305CHOL    C1 2731   7.622  14.319   7.282  0.0252  0.1283 -0.0125
  305CHOL    C2 2732   7.297  14.121   7.027 -0.0856  0.0370  0.1107
  306CHOL   ROH 2733   9.685  11.130   4.412  0.0613  0.1797 -0.1058
  306CHOL    R1 2734   9.799  11.207   4.659 -0.0334  0.1531 -0.0536
  306CHOL    R2 2735   9.653  11.222   4.892 -0.0890 -0.0237 -0.0767
  306CHOL    R3 2736   9.847  11.056   4.987 -0.0096  0.0548 -0.1021
  306CHOL    R4 2737   9.691  11.131   5.224 -0.0453 -0.0553 -0.0904
  306CHOL    R5 2738   9.907  11.150   5.199 -0.0548  0.0520 -0.0877
  306CHOL    C1 2739   9.896  10.923   5.505  0.0543 -0.0010 -0.1224
  306CHOL    C2 2740   9.905  10.691   5.859 -0.3089 -0.0996  0.0782
  307CHOL   ROH 2741  12.560   4.147   7.762 -0.1738  0.0023 -0.1016
  307CHOL    R1 2742  12.563   4.204   7.484 -0.0472 -0.0777 -0.1168
  307CHOL    R2 2743  12.446   4.038   7.297 -0.1131 -0.0434 -0.1062
  307CHOL    R3 2744  12.316   4.266   7.224  0.0764  0.0318 -0.2092
  307CHOL    R4 2745  12.280   4.083   6.998  0.1159  0.0379 -0.2208
  307CHOL    R5 2746  12.360   4.286   6.990  0.2470 -0.0122 -0.1819
  307CHOL    C1 2747  12.061   4.323   6.754  0.4272  0.1559 -0.3843
  307CHOL    C2 2748  11.956   4.252   6.467  0.0553 -0.2744  0.0291
  308XCA    COO 2749   1.736   5.343   7.772 -0.3002 -0.2416  0.4097
  308XCA     C1 2750   1.894   5.627   7.630  0.2820 -0.1868 -0.2256
  308XCA     C2 2751   1.875   5.850   7.246 -0.0914 -0.0587  0.1612
  308XCA     C3 2752   1.641   6.053   6.965  0.0570 -0.0258 -0.2813
  308XCA     C4 2753   1.563   6.496   6.866 -0.2119 -0.2672 -0.1138
  308XCA     C5 2754   1.253   6.656   6.810 -0.1293  0.3222 -0.1348
  308XCA     C6 2755   1.213   7.010   6.606 -0.1430  0.3156  0.0081
  309CHOL   ROH 2756  15.787  13.951   6.402  0.1472 -0.3729 -0.1197
  309CHOL    R1 2757  15.526  13.916   6.300  0.1197 -0.2384 -0.0968
  309CHOL    R2 2758  15.414  14.086   6.113  0.1850 -0.1730 -0.0758
  309CHOL    R3 2759  15.374  13.855   5.975  0.0590 -0.1453 -0.0855
  309CHOL    R4 2760  15.255  14.064   5.807 -0.0286 -0.1011  0.0312
  309CHOL    R5 2761  15.157  13.882   5.877 -0.0048 -0.0992  0.0687
  309CHOL    C1 2762  15.124  13.835   5.500 -0.2721 -0.0343  0.0842
  309CHOL    C2 2763  14.832  13.754   5.215  0.0853 -0.2689  0.1149
  310CHOL   ROH 2764   1.339   1.912   4.827  0.1625  0.0230  0.0164
  310CHOL    R1 2765   1.435   1.945   5.091  0.0451 -0.0032  0.0625
  310CHOL    R2 2766   1.461   2.193   5.210  0.0391 -0.0113  0.0809
  310CHOL    R3 2767   1.308   2.080   5.404 -0.0749  0.0147  0.0055
  310CHOL    R4 2768   1.372   2.348   5.506  0.0521 -0.0541  0.1073
  310CHOL    R5 2769   1.404   2.159   5.609 -0.0824 -0.1057  0.0553
  310CHOL    C1 2770   1.176   2.332   5.860 -0.0473 -0.0546  0.0522
  310CHOL    C2 2771   1.486   2.565   6.019 -0.3537  0.0109  0.1209
  311XCA    COO 2772   1.262  13.951   8.497 -0.1128  0.2882  0.0985
  311XCA     C1 2773   1.068  13.847   8.099  0.1068  0.1482  0.1121
  311XCA     C2 2774   0.765  13.941   7.776 -0.0946  0.0863  0.1200
  311XCA     C3 2775   0.701  14.243   7.466 -0.4175 -0.3034  0.0544
  311XCA     C4 2776   0.503  14.584   7.231  0.0608 -0.0675 -0.4008
  311XCA     C5 2777   0.380  14.895   7.050  0.0688  0.2706  0.0273
  311XCA     C6 2778   0.497  15.256   6.813 -0.2260  0.3515 -0.1427
  312PNCE   AM1 2779   7.106   1.272   8.301 -0.1687  0.3881 -0.2825
  312PNCE   AM2 2780   7.416   1.232   8.360 -0.0695 -0.0397  0.0469
  312PNCE   T1A 2781   7.039   0.979   7.922  0.1878  0.2321 -0.0400
  312PNCE   C2A 2782   7.116   0.554   7.764 -0.1657  0.1110 -0.0183
  312PNCE   C3A 2783   7.247   0.402   7.433 -0.0088  0.1060  0.1394
  312PNCE   C1B 2784   7.396   1.300   7.899 -0.1525 -0.0396  0.0446
  312PNCE   C2B 2785   7.386   1.346   7.562  0.0894 -0.1895 -0.1789
  312PNCE   C3B 2786   7.283   1.496   7.116  0.0313  0.0390  0.0208
  312PNCE   D4B 2787   7.415   1.770   6.745 -0.2862  0.2095 -0.1068
  312PNCE   C5B 2788   7.225   1.695   6.359 -0.0707  0.4194 -0.1967
  312PNCE   C6B 2789   7.013   1.998   6.213  0.1139  0.2914 -0.0867
  313PNCE   AM1 2790   9.350  10.488   8.300  0.2017  0.2496  0.2185
  313PNCE   AM2 2791   9.198  10.406   7.967  0.0871  0.0825 -0.0717
  313PNCE   T1A 2792   9.737  10.248   8.185  0.0636  0.1912  0.2663
  313PNCE   C2A 2793  10.039  10.082   7.839  0.1025 -0.0328 -0.1342
  313PNCE   C3A 2794  10.393   9.861   7.547 -0.1831  0.0679 -0.2531
  313PNCE   C1B 2795   9.483  10.170   7.741 -0.2011 -0.1764 -0.2193
  313PNCE   C2B 2796   9.878  10.383   7.501 -0.1615  0.1821 -0.1078
  313PNCE   C3B 2797  10.261  10.396   7.433  0.2626  0.1361  0.0926
  313PNCE   D4B 2798  10.391  10.401   7.017 -0.0706  0.0292 -0.1035
  313PNCE   C5B 2799  10.158  10.708   6.827  0.2704  0.1603  0.1332
  313PNCE   C6B 2800   9.784  10.628   6.487  0.0230 -0.0394  0.0936
  314PNCE   AM1 2801   8.529  14.422   8.841 -0.2574 -0.0780  0.0626
  314PNCE   AM2 2802   8.770  14.701   8.763  0.3298 -0.2026 -0.0417
  314PNCE   T1A 2803   8.287  14.302   8.452 -0.1496 -0.0652  0.1409
  314PNCE   C2A 2804   8.157  14.630   8.140 -0.2727 -0.0027 -0.0099
  314PNCE   C3A 2805   8.273  14.619   7.685  0.0536 -0.0446 -0.0398
  314PNCE   C1B 2806   9.065  14.694   8.401  0.1037 -0.0342  0.3113
  314PNCE   C2B 2807   9.281  14.558   8.069 -0.2313 -0.0151 -0.0001
  314PNCE   C3B 2808   9.274  14.619   7.585  0.3359  0.0661  0.0935
  314PNCE   D4B 2809   9.121  14.989   7.373  0.3481  0.2318  0.0118
  314PNCE   C5B 2810   9.322  15.187   6.995 -0.0013 -0.1169  0.1212
  314PNCE   C6B 2811   9.396  15.322   6.628 -0.1552  0.0923  0.0990
  315XCA    COO 2812  13.105  14.332   8.636  0.0396 -0.2325 -0.1149
  315XCA     C1 2813  12.861  14.220   8.318  0.0521 -0.0554 -0.2441
  315XCA     C2 2814  12.536  14.297   8.036  0.1792 -0.0370 -0.0636
  315XCA     C3 2815  12.288  14.564   7.686 -0.1130 -0.0459  0.2122
  315XCA     C4 2816  12.049  14.969   7.470  0.0070 -0.0669  0.2553
  315XCA     C5 2817  11.560  15.037   7.584 -0.2319 -0.1396  0.1790
  315XCA     C6 2818  11.206  15.174   7.308 -0.0809  0.2171  0.1221
  316PNCE   AM1 2819   2.341   0.529   8.891  0.1695 -0.2140  0.2557
  316PNCE   AM2 2820   2.594   0.605   8.751  0.3346 -0.0324 -0.2256
  316PNCE   T1A 2821   2.071   0.733   8.566 -0.1341 -0.1551 -0.1250
  316PNCE   C2A 2822   2.038   0.864   8.147 -0.0580  0.1473  0.2635
  316PNCE   C3A 2823   1.816   0.983   7.740 -0.0108  0.0880  0.2062
  316PNCE   C1B 2824   2.689   0.757   8.306  0.0304 -0.1957 -0.1064
  316PNCE   C2B 2825   2.473   0.869   7.870 -0.2588  0.1228 -0.0337
  316PNCE   C3B 2826   2.319   0.970   7.501  0.0538  0.0098 -0.0023
  316PNCE   D4B 2827   2.259   0.781   7.081  0.1301  0.1153  0.1381
  316PNCE   C5B 2828   2.586   0.811   6.708  0.2973  0.0678 -0.0602
  316PNCE   C6B 2829   2.942   0.588   6.761  0.0087  0.1211  0.0353
  317XCA    COO 2830   8.796   3.794   7.654 -0.0989  0.3385  0.2817
  317XCA     C1 2831   9.192   3.806   7.693  0.0528  0.4288  0.1734
  317XCA     C2 2832   9.419   3.625   7.427 -0.0599  0.1392  0.3671
  317XCA     C3 2833   9.537   3.300   7.126  0.0183 -0.0141  0.0569
  317XCA     C4 2834   9.544   3.191   6.783  0.1007  0.1609  0.0775
  317XCA     C5 2835   9.758   3.239   6.430 -0.0215  0.1780  0.2902
  317XCA     C6 2836   9.922   3.458   6.250 -0.2564 -0.3611  0.0284
  318PNCE   AM1 2837  10.094  13.200   8.410  0.3094  0.2937  0.1703
  318PNCE   AM2 2838  10.103  12.886   8.487  0.1292 -0.0588 -0.1296
  318PNCE   T1A 2839  10.197  13.269   7.921 -0.2214  0.1190 -0.3579
  318PNCE   C2A 2840  10.006  13.306   7.401 -0.1666 -0.1243  0.0810
  318PNCE   C3A 2841  10.196  13.417   7.013 -0.0381 -0.0765 -0.0006
  318PNCE   C1B 2842  10.557  12.870   8.358 -0.0659  0.2148 -0.0738
  318PNCE   C2B 2843  10.971  12.755   8.270  0.0578 -0.0626  0.0124
  318PNCE   C3B 2844  11.131  12.786   7.938  0.1344  0.2339 -0.0808
  318PNCE   D4B 2845  11.546  12.800   7.662 -0.0147 -0.5625  0.2461
  318PNCE   C5B 2846  11.912  13.092   7.553 -0.0510 -0.0378 -0.0797
  318PNCE   C6B 2847  12.344  12.950   7.471 -0.0972  0.0375  0.0902
  319PNCE   AM1 2848  11.183   2.649   7.824 -0.0188  0.1537 -0.0710
  319PNCE   AM2 2849  10.990   2.486   8.156 -0.3323 -0.1404 -0.1565
  319PNCE   T1A 2850  11.396   2.887   7.567 -0.0751 -0.0842 -0.2253
  319PNCE   C2A 2851  11.520   2.914   7.109 -0.2328 -0.0639 -0.0594
  319PNCE   C3A 2852  11.849   2.789   6.831  0.0493  0.2380 -0.0192
  319PNCE   C1B 2853  11.060   2.172   7.724  0.1701  0.0153 -0.0199
  319PNCE   C2B 2854  10.990   1.923   7.371 -0.1072  0.1735 -0.4303
  319PNCE   C3B 2855  10.666   1.609   7.267 -0.1989 -0.2308  0.1090
  319PNCE   D4B 2856  10.640   1.562   6.773  0.2406  0.2090  0.0043
  319PNCE   C5B 2857  10.434   1.160   6.627 -0.2137  0.1263  0.4091
  319PNCE   C6B 2858  10.043   1.041   6.425  0.2520  0.3460 -0.0309
  320CHOL   ROH 2859   9.204   2.548   7.897 -0.1239  0.1340  0.0471
  320CHOL    R1 2860   9.048   2.385   7.726 -0.0758  0.1397 -0.0021
  320CHOL    R2 2861   8.817   2.260   7.811 -0.0111  0.0053 -0.0261
  320CHOL    R3 2862   8.708   2.387   7.597 -0.0927  0.0483  0.0414
  320CHOL    R4 2863   8.484   2.242   7.720 -0.0668  0.1068  0.1574
  320CHOL    R5 2864   8.547   2.232   7.511 -0.1860  0.0998  0.1218
  320CHOL    C1 2865   8.188   2.352   7.466 -0.1760  0.2065  0.3274
  320CHOL    C2 2866   7.886   2.392   7.481 -0.0488 -0.1934 -0.0555
  321CHOL   ROH 2867  10.099  11.223   4.425  0.1341  0.2227 -0.0447
  321CHOL    R1 2868  10.180  11.217   4.696 -0.0157  0.1059 -0.0029
  321CHOL    R2 2869  10.375  11.384   4.797  0.0368 -0.0430  0.1429
  321CHOL    R3 2870  10.181  11.448   4.977 -0.0178  0.0358  0.0546
  321CHOL    R4 2871  10.434  11.512   5.113 -0.0587  0.0205  0.1349
  321CHOL    R5 2872  10.274  11.384   5.189 -0.1101  0.0682  0.1044
  321CHOL    C1 2873  10.286  11.647   5.466 -0.1648  0.1311  0.0473
  321CHOL    C2 2874  10.560  11.676   5.657 -0.2631  0.1766 -0.0945
  322CHOL   ROH 2875   3.054   1.427   4.823 -0.0836  0.3360 -0.0564
  322CHOL    R1 2876   3.007   1.575   5.059 -0.0628  0.2230  0.0193
  322CHOL    R2 2877   3.162   1.548   5.286 -0.0680  0.0848  0.0060
  322CHOL    R3 2878   3.190   1.817   5.261 -0.0286  0.0935  0.1426
  322CHOL    R4 2879   3.230   1.764   5.547  0.0737 -0.0706  0.0978
  322CHOL    R5 2880   3.089   1.906   5.459  0.0656  0.0032  0.2310
  322CHOL    C1 2881   3.296   2.143   5.675  0.1931 -0.1530  0.2805
  322CHOL    C2 2882   3.168   2.338   5.887  0.0798 -0.1028 -0.1656
  323XCA    COO 2883   1.334   4.715   4.747 -0.0796 -0.1631 -0.2625
  323XCA     C1 2884   1.361   4.469   5.053 -0.3121 -0.0391  0.2240
  323XCA     C2 2885   1.464   4.531   5.402  0.1595 -0.0986 -0.2271
  323XCA     C3 2886   1.519   4.266   5.832 -0.3301  0.0785  0.2665
  323XCA     C4 2887   1.947   4.201   6.069 -0.2950 -0.0127 -0.0994
  323XCA     C5 2888   2.146   4.420   6.302  0.4401 -0.2152 -0.1159
  323XCA     C6 2889   2.381   4.515   6.503 -0.1523  0.0309  0.0596
  324XCA    COO 2890  13.658   5.327   4.700 -0.1079  0.2849  0.0873
  324XCA     C1 2891  13.577   5.204   5.173  0.0645  0.3043  0.1969
  324XCA     C2 2892  13.714   5.199   5.651  0.2891 -0.2078  0.0823
  324XCA     C3 2893  13.801   4.848   5.948 -0.1060 -0.2341  0.2097
  324XCA     C4 2894  13.882   4.479   6.132  0.0179 -0.4549  0.4824
  324XCA     C5 2895  14.070   4.230   6.482  0.0791  0.0831 -0.2215
  324XCA     C6 2896  14.348   4.043   6.891 -0.0507 -0.1074  0.0327
  325CHOL   ROH 2897   0.151   2.457   4.419  0.2336 -0.0253  0.1220
  325CHOL    R1 2898   0.003   2.489   4.658  0.0849 -0.0247  0.0300
  325CHOL    R2 2899  -0.127   2.279   4.782  0.0344 -0.0294 -0.0334
  325CHOL    R3 2900   0.018   2.358   4.998 -0.1058  0.0021  0.0485
  325CHOL    R4 2901  -0.226   2.240   5.111 -0.0076 -0.3259 -0.0803
  325CHOL    R5 2902  -0.146   2.439   5.153 -0.2317 -0.2642  0.0544
  325CHOL    C1 2903  -0.148   2.293   5.505 -0.1626 -0.4692 -0.0305
  325CHOL    C2 2904  -0.203   2.098   5.886 -0.2059  0.2202  0.1466
  326PNCE   AM1 2905   6.165  11.318   7.682 -0.0357  0.0449 -0.0653
  326PNCE   AM2 2906   6.288  11.579   7.918  0.4398  0.1035 -0.4450
  326PNCE   T1A 2907   6.240  10.864   7.817 -0.1888 -0.2615 -0.1242
  326PNCE   C2A 2908   6.426  10.428   7.760  0.2083 -0.0953 -0.1182
  326PNCE   C3A 2909   6.675  10.032   7.598  0.0397  0.4462 -0.0859
  326PNCE   C1B 2910   6.733  11.642   7.677 -0.4604 -0.3163 -0.0484
  326PNCE   C2B 2911   7.048  11.555   7.343 -0.0741 -0.1621  0.4513
  326PNCE   C3B 2912   7.383  11.476   7.062  0.0127 -0.0939 -0.0798
  326PNCE   D4B 2913   7.386  11.403   6.655  0.0204 -0.0136 -0.1619
  326PNCE   C5B 2914   7.299  11.140   6.256 -0.0553 -0.1488 -0.3257
  326PNCE   C6B 2915   7.647  10.862   6.271  0.2339  0.0657  0.1106
  327PNCE   AM1 2916  11.700   0.909   8.114  0.1613 -0.0454  0.1689
  327PNCE   AM2 2917  12.081   0.899   8.136 -0.2170 -0.1303  0.1255
  327PNCE   T1A 2918  11.652   1.060   7.732 -0.1894 -0.3231  0.1102
  327PNCE   C2A 2919  11.673   1.229   7.361 -0.1189 -0.0702  0.1667
  327PNCE   C3A 2920  11.762   1.187   6.961 -0.0469  0.2648  0.0577
  327PNCE   C1B 2921  11.941   0.648   7.745 -0.0409 -0.0993 -0.0776
  327PNCE   C2B 2922  11.865   0.646   7.310  0.2025 -0.1536  0.0706
  327PNCE   C3B 2923  11.823   0.671   6.886  0.2108  0.1082  0.0160
  327PNCE   D4B 2924  11.499   0.636   6.602  0.0344  0.3288 -0.0865
  327PNCE   C5B 2925  11.050   0.496   6.649  0.3451 -0.0436  0.1859
  327PNCE   C6B 2926  10.690   0.330   6.654  0.0340  0.3927  0.1568
  328CHOL   ROH 2927   6.985  14.687   8.316  0.0209  0.0431  0.0990
  328CHOL    R1 2928   7.153  14.870   8.178  0.1559 -0.0968  0.0768
  328CHOL    R2 2929   7.307  14.796   7.962 -0.1751 -0.1540 -0.1406
  328CHOL    R3 2930   7.178  15.002   7.840  0.0108  0.1371  0.1571
  328CHOL    R4 2931   7.455  15.022   7.747 -0.0584 -0.2179 -0.1268
  328CHOL    R5 2932   7.338  15.181   7.841  0.2859 -0.1097  0.1216
  328CHOL    C1 2933   7.421  15.348   7.508  0.1839  0.0185  0.1608
  328CHOL    C2 2934   7.656  15.447   7.267 -0.0500  0.2267 -0.2076
  329CHOL   ROH 2935  11.342   4.036   6.101 -0.1883 -0.0539 -0.1120
  329CHOL    R1 2936  11.593   4.153   6.160 -0.2174 -0.0629  0.0298
  329CHOL    R2 2937  11.833   4.035   6.091 -0.1846 -0.0174  0.0671
  329CHOL    R3 2938  11.880   4.275   5.972 -0.1575  0.0364  0.1864
  329CHOL    R4 2939  12.142   4.145   5.984 -0.2089 -0.0932 -0.0818
  329CHOL    R5 2940  12.092   4.343   6.059 -0.0629 -0.1178  0.0803
  329CHOL    C1 2941  12.367   4.434   5.810 -0.1966 -0.0872 -0.0562
  329CHOL    C2 2942  12.781   4.447   5.881  0.0841 -0.2089  0.1287
  330PNCE   AM1 2943  10.620  11.545   8.111  0.0632  0.0671  0.2306
  330PNCE   AM2 2944  10.370  11.428   8.180  0.2953  0.1376  0.0069
  330PNCE   T1A 2945  10.679  11.853   7.842  0.1302  0.0144  0.0724
  330PNCE   C2A 2946  10.633  12.107   7.513 -0.4142  0.0982 -0.0431
  330PNCE   C3A 2947  10.627  12.108   7.090  0.0479 -0.3037  0.0394
  330PNCE   C1B 2948  10.189  11.474   7.807 -0.3148  0.2562 -0.1796
  330PNCE   C2B 2949  10.151  11.391   7.314  0.0825  0.0290 -0.1462
  330PNCE   C3B 2950  10.311  11.555   7.004  0.0827  0.2390 -0.0991
  330PNCE   D4B 2951  10.300  11.703   6.552  0.3167  0.0087 -0.1127
  330PNCE   C5B 2952   9.964  11.516   6.266 -0.3372 -0.2929  0.0969
  330PNCE   C6B 2953   9.650  11.738   6.045 -0.0317 -0.0990  0.0787
  331PNCE   AM1 2954  15.425   1.018   8.217 -0.2504  0.0616 -0.1147
  331PNCE   AM2 2955  15.074   1.210   8.251  0.0184  0.0330  0.0112
  331PNCE   T1A 2956  15.704   1.050   7.889 -0.5135 -0.2105  0.0365
  331PNCE   C2A 2957  16.106   1.100   7.557  0.0326 -0.1201  0.1003
  331PNCE   C3A 2958  16.363   1.474   7.445 -0.1050 -0.0688  0.2472
  331PNCE   C1B 2959  15.213   1.190   7.766 -0.2342  0.0277 -0.4515
  331PNCE   C2B 2960  15.477   1.485   7.592  0.2823 -0.1591  0.0572
  331PNCE   C3B 2961  15.534   1.803   7.246 -0.2548 -0.1886 -0.1798
  331PNCE   D4B 2962  15.936   1.928   6.924  0.0424 -0.1434 -0.2312
  331PNCE   C5B 2963  16.285   1.790   7.019 -0.2431 -0.0584 -0.0959
  331PNCE   C6B 2964  16.536   1.385   6.948 -0.0253  0.2692  0.1480
  332PNCE   AM1 2965  13.044   5.266   7.633 -0.0778  0.1829  0.1931
  332PNCE   AM2 2966  13.104   4.916   7.519 -0.0559 -0.1317 -0.1186
  332PNCE   T1A 2967  13.060   5.222   7.168  0.3336  0.0926 -0.2178
  332PNCE   C2A 2968  12.902   5.183   6.688  0.0683 -0.0721 -0.5109
  332PNCE   C3A 2969  12.918   4.888   6.415 -0.0065 -0.0862 -0.0211
  332PNCE   C1B 2970  13.332   4.862   7.025 -0.2116 -0.1503  0.1961
  332PNCE   C2B 2971  13.331   4.842   6.646  0.1879  0.0346  0.1611
  332PNCE   C3B 2972  13.366   4.719   6.293 -0.2884  0.1289  0.0376
  332PNCE   D4B 2973  13.179   4.783   5.889 -0.1853 -0.1618 -0.2824
  332PNCE   C5B 2974  13.344   4.605   5.493 -0.0903 -0.1243  0.2268
  332PNCE   C6B 2975  13.717   4.826   5.373 -0.2692 -0.2880 -0.0696
  333PNCE   AM1 2976  10.460   0.941   8.296 -0.0108  0.3983 -0.1230
  333PNCE   AM2 2977  10.342   0.676   8.436 -0.1234 -0.0378  0.1994
  333PNCE   T1A 2978  10.575   0.781   7.843 -0.1207 -0.0463 -0.1267
  333PNCE   C2A 2979  10.603   0.652   7.392  0.0115 -0.0870  0.1906
  333PNCE   C3A 2980  10.909   0.473   7.131 -0.0860  0.0913 -0.3353
  333PNCE   C1B 2981  10.746   0.511   8.272 -0.0910 -0.3521  0.0098
  333PNCE   C2B 2982  10.942   0.402   7.827  0.0475  0.1674 -0.2715
  333PNCE   C3B 2983  11.141   0.200   7.483 -0.3815 -0.1339  0.0655
  333PNCE   D4B 2984  11.428  -0.080   7.240  0.1257 -0.0782 -0.0452
  333PNCE   C5B 2985  11.383  -0.392   6.958 -0.4345 -0.1601 -0.3613
  333PNCE   C6B 2986  11.100  -0.820   6.921  0.1826 -0.1685  0.3076
  334PNCE   AM1 2987   9.137   7.695   7.828  0.0370  0.1641 -0.1755
  334PNCE   AM2 2988   9.497   7.786   7.720 -0.2266  0.3261  0.1235
  334PNCE   T1A 2989   8.981   7.560   7.414 -0.1386  0.1818 -0.2601
  334PNCE   C2A 2990   8.855   7.404   7.058  0.0846  0.3554  0.0335
  334PNCE   C3A 2991   9.082   7.346   6.707  0.0123 -0.2999  0.1759
  334PNCE   C1B 2992   9.365   8.035   7.360 -0.2394 -0.0783  0.0906
  334PNCE   C2B 2993   9.445   8.359   7.022  0.1253 -0.0690  0.0572
  334PNCE   C3B 2994   9.437   8.574   6.744 -0.1055  0.1171 -0.4854
  334PNCE   D4B 2995   9.435   8.793   6.352 -0.2291  0.1875  0.3018
  334PNCE   C5B 2996   9.179   9.018   6.128  0.2014 -0.2458 -0.0639
  334PNCE   C6B 2997   8.934   9.067   5.747  0.3720  0.0473 -0.1649
  335PNCE   AM1 2998   0.523   2.413   8.682  0.2391 -0.1540 -0.1372
  335PNCE   AM2 2999   0.202   2.556   8.629  0.3517 -0.3867  0.0798
  335PNCE   T1A 3000   0.767   2.237   8.394  0.2054  0.0625 -0.0308
  335PNCE   C2A 3001   0.697   1.783   8.244  0.0460  0.0939 -0.0743
  335PNCE   C3A 3002   0.511   1.375   8.193  0.3112 -0.1132 -0.1655
  335PNCE   C1B 3003   0.230   2.632   8.230 -0.3511 -0.2150  0.3731
  335PNCE   C2B 3004   0.140   2.532   7.765 -0.0852 -0.3889  0.5272
  335PNCE   C3B 3005   0.399   2.357   7.402 -0.1395  0.2855 -0.1190
  335PNCE   D4B 3006   0.255   2.180   7.036 -0.2058 -0.0623 -0.0733
  335PNCE   C5B 3007   0.074   2.402   6.728  0.0641 -0.0797  0.0415
  335PNCE   C6B 3008   0.119   2.806   6.500 -0.1370 -0.1122  0.1644
  336CHOL   ROH 3009   5.040  14.733   4.677  0.1545  0.2588  0.4172
  336CHOL    R1 3010   5.090  14.487   4.807 -0.0341  0.1163  0.2236
  336CHOL    R2 3011   5.092  14.462   5.082 -0.1057 -0.1130  0.2037
  336CHOL    R3 3012   4.910  14.266   5.034 -0.2255  0.0471  0.0040
  336CHOL    R4 3013   4.900  14.306   5.324 -0.4594  0.0062  0.0021
  336CHOL    R5 3014   4.932  14.117   5.220 -0.5219 -0.0029 -0.0002
  336CHOL    C1 3015   4.619  14.031   5.419 -0.7774  0.2263 -0.3034
  336CHOL    C2 3016   4.564  13.698   5.634 -0.2344 -0.0999 -0.1962
  337XCA    COO 3017   9.140   8.051   4.195 -0.0334  0.4420 -0.1789
  337XCA     C1 3018   8.928   8.060   4.566  0.0109  0.1978 -0.1553
  337XCA     C2 3019   8.683   8.112   4.864  0.1839  0.0747 -0.1246
  337XCA     C3 3020   8.486   8.074   5.184  0.1822  0.0050 -0.0224
  337XCA     C4 3021   8.205   7.866   5.461  0.0957 -0.0211 -0.0082
  337XCA     C5 3022   8.263   7.716   5.870 -0.0499 -0.3394  0.0497
  337XCA     C6 3023   7.854   7.594   6.092  0.0107 -0.0630 -0.0540
  338PNCE   AM1 3024  12.309  13.647   8.402 -0.0095 -0.4796  0.1659
  338PNCE   AM2 3025  12.317  13.984   8.360  0.4997  0.2542  0.0756
  338PNCE   T1A 3026  12.466  13.238   8.114 -0.1365 -0.0119 -0.2096
  338PNCE   C2A 3027  12.730  13.117   7.806 -0.0428 -0.0782  0.2201
  338PNCE   C3A 3028  12.801  13.125   7.428  0.1983 -0.1603 -0.0829
  338PNCE   C1B 3029  12.405  13.861   7.927 -0.2554  0.0177  0.2075
  338PNCE   C2B 3030  12.525  13.938   7.628  0.1867 -0.2259  0.2219
  338PNCE   C3B 3031  12.747  13.917   7.262  0.1253 -0.0359  0.0374
  338PNCE   D4B 3032  12.856  13.734   6.909 -0.0095  0.1928  0.1360
  338PNCE   C5B 3033  12.630  14.034   6.658  0.0555  0.2935  0.0060
  338PNCE   C6B 3034  12.889  14.230   6.240  0.0426  0.1481  0.0415
  339CHOL   ROH 3035   5.950   9.150   5.714  0.1301  0.1265  0.1623
  339CHOL    R1 3036   5.908   8.883   5.799  0.1700  0.0939  0.0792
  339CHOL    R2 3037   6.103   8.735   5.926  0.1393  0.1376  0.1769
  339CHOL    R3 3038   5.910   8.703   6.115  0.0266  0.0287  0.0431
  339CHOL    R4 3039   6.069   8.457   6.128  0.2966  0.2170  0.3128
  339CHOL    R5 3040   5.853   8.470   6.102  0.3009 -0.0429  0.1335
  339CHOL    C1 3041   5.868   8.264   6.423  0.2825  0.1614  0.2663
  339CHOL    C2 3042   5.759   7.841   6.439  0.2852 -0.0321  0.3026
  340PNCE   AM1 3043   6.695   8.158   7.952 -0.1499  0.2166 -0.1319
  340PNCE   AM2 3044   6.862   8.325   8.119  0.0558  0.0483  0.0269
  340PNCE   T1A 3045   6.582   8.344   7.510 -0.1168 -0.1826  0.2199
  340PNCE   C2A 3046   6.272   8.449   7.242 -0.1266  0.0887  0.2002
  340PNCE   C3A 3047   6.278   8.440   6.829  0.0245  0.0510  0.0503
  340PNCE   C1B 3048   7.032   8.478   7.698  0.1009  0.2366 -0.0347
  340PNCE   C2B 3049   7.085   8.475   7.279  0.3426  0.2481  0.1525
  340PNCE   C3B 3050   7.221   8.741   6.825 -0.0865 -0.1051 -0.0204
  340PNCE   D4B 3051   7.416   8.574   6.453  0.0527  0.1581  0.0952
  340PNCE   C5B 3052   7.546   8.460   6.084 -0.0896  0.0739  0.1290
  340PNCE   C6B 3053   7.254   8.550   5.789  0.0814 -0.0877 -0.1405
  341PNCE   AM1 3054   5.635   6.547   7.568  0.2475 -0.1218 -0.2221
  341PNCE   AM2 3055   5.961   6.543   7.415 -0.4562  0.1877 -0.1181
  341PNCE   T1A 3056   5.334   6.361   7.259  0.0938  0.0828 -0.0695
  341PNCE   C2A 3057   5.320   6.304   6.785 -0.0446 -0.2529  0.1927
  341PNCE   C3A 3058   5.246   6.352   6.307  0.2055 -0.3921  0.0024
  341PNCE   C1B 3059   5.852   6.429   7.011  0.0565 -0.1192 -0.0087
  341PNCE   C2B 3060   6.148   6.275   6.731  0.0357 -0.0962  0.1242
  341PNCE   C3B 3061   6.314   5.922   6.571  0.2564 -0.0559  0.0989
  341PNCE   D4B 3062   6.647   5.826   6.443 -0.1785 -0.1685 -0.1348
  341PNCE   C5B 3063   6.713   5.969   6.075 -0.0470  0.0565  0.1304
  341PNCE   C6B 3064   6.627   5.944   5.726  0.0994 -0.2768  0.0172
  342PNCE   AM1 3065  16.136   8.837   7.407  0.1509 -0.1521  0.1334
  342PNCE   AM2 3066  16.331   8.932   7.566  0.0637 -0.3087  0.0234
  342PNCE   T1A 3067  15.970   8.817   6.948 -0.2880 -0.1651 -0.4258
  342PNCE   C2A 3068  15.709   8.694   6.626 -0.0238 -0.1529 -0.0839
  342PNCE   C3A 3069  15.506   8.909   6.377  0.1696  0.2792 -0.3311
  342PNCE   C1B 3070  16.703   8.807   7.347 -0.3117  0.1512 -0.0851
  342PNCE   C2B 3071  17.174   8.706   7.309 -0.1929  0.0471 -0.0237
  342PNCE   C3B 3072  17.463   8.946   7.321  0.3504 -0.0684  0.3067
  342PNCE   D4B 3073  17.747   9.285   7.370  0.0415 -0.2789  0.0961
  342PNCE   C5B 3074  17.820   9.728   7.165  0.0254  0.0554 -0.1874
  342PNCE   C6B 3075  18.173   9.856   6.906  0.2493  0.1547 -0.0305
  343CHOL   ROH 3076  14.367   0.282   6.275 -0.0108 -0.0248 -0.0017
  343CHOL    R1 3077  14.452   0.538   6.359  0.1025 -0.0387 -0.0720
  343CHOL    R2 3078  14.444   0.618   6.623 -0.0909  0.1223 -0.1259
  343CHOL    R3 3079  14.707   0.674   6.580 -0.0073 -0.1010  0.0930
  343CHOL    R4 3080  14.614   0.886   6.760 -0.0176  0.0684 -0.1113
  343CHOL    R5 3081  14.716   0.913   6.569  0.1845 -0.1137 -0.0300
  343CHOL    C1 3082  14.960   1.095   6.799  0.1038 -0.1726  0.1024
  343CHOL    C2 3083  15.240   1.260   6.625  0.0111  0.0042 -0.0427
  344CHOL   ROH 3084   0.228   9.363   4.919  0.0382 -0.0291 -0.1435
  344CHOL    R1 3085   0.089   9.391   5.164  0.0267 -0.0024 -0.1528
  344CHOL    R2 3086  -0.181   9.340   5.189  0.0179  0.0381 -0.1677
  344CHOL    R3 3087  -0.099   9.174   5.388 -0.0185  0.0306 -0.1588
  344CHOL    R4 3088  -0.383   9.220   5.443  0.0148  0.1702 -0.1082
  344CHOL    R5 3089  -0.218   9.249   5.582  0.0563  0.1159 -0.1466
  344CHOL    C1 3090  -0.424   8.994   5.777 -0.0234  0.2409 -0.0656
  344CHOL    C2 3091  -0.683   8.766   5.899 -0.1187  0.1683  0.1046
  345PNCE   AM1 3092   8.486  15.028   8.995 -0.0361 -0.2414  0.2659
  345PNCE   AM2 3093   8.267  14.901   8.962 -0.0447 -0.0498  0.0204
  345PNCE   T1A 3094   8.767  15.260   8.750  0.2817  0.0537  0.1683
  345PNCE   C2A 3095   9.091  15.168   8.376 -0.2437  0.0642  0.0662
  345PNCE   C3A 3096   9.456  14.963   8.323  0.1564  0.2208 -0.3787
  345PNCE   C1B 3097   8.421  14.906   8.449 -0.2484  0.0070 -0.0973
  345PNCE   C2B 3098   8.626  14.755   8.013  0.0112  0.2769 -0.0057
  345PNCE   C3B 3099   8.758  14.731   7.560  0.3647 -0.1936  0.2459
  345PNCE   D4B 3100   8.583  14.869   7.221 -0.1435  0.0173  0.0189
  345PNCE   C5B 3101   8.794  15.013   6.885  0.3880 -0.2760 -0.1011
  345PNCE   C6B 3102   8.872  15.345   6.594  0.1100 -0.0180  0.4100
  346PNCE   AM1 3103   1.586  12.123   4.020  0.2396 -0.0916 -0.2310
  346PNCE   AM2 3104   1.847  11.842   3.958 -0.2092  0.0915  0.3014
  346PNCE   T1A 3105   1.431  12.120   4.495 -0.0199  0.2769  0.2290
  346PNCE   C2A 3106   1.135  12.039   4.804  0.2674  0.0200  0.1174
  346PNCE   C3A 3107   1.137  11.921   5.202  0.0330 -0.2457 -0.0017
  346PNCE   C1B 3108   1.940  11.882   4.422  0.0324  0.2389  0.1263
  346PNCE   C2B 3109   2.333  11.959   4.749 -0.1240  0.1191 -0.0024
  346PNCE   C3B 3110   2.646  11.659   5.014 -0.3728  0.5202 -0.0832
  346PNCE   D4B 3111   3.172  11.557   5.061 -0.1829  0.2188  0.4509
  346PNCE   C5B 3112   3.318  11.379   5.438  0.0410  0.2987  0.1374
  346PNCE   C6B 3113   3.529  11.112   5.808  0.1368 -0.1613  0.0290
  347PNCE   AM1 3114   6.565   1.452   8.368 -0.0605 -0.0721  0.2618
  347PNCE   AM2 3115   6.507   1.426   8.737  0.2898  0.1327  0.1314
  347PNCE   T1A 3116   6.521   1.216   7.974  0.3471 -0.0335 -0.1545
  347PNCE   C2A 3117   6.402   1.126   7.509 -0.0720 -0.0960  0.2088
  347PNCE   C3A 3118   6.257   1.311   7.173  0.2082 -0.2032 -0.1289
  347PNCE   C1B 3119   6.170   1.060   8.546 -0.1825  0.2209  0.1006
  347PNCE   C2B 3120   6.217   0.723   8.222  0.1413 -0.0414 -0.1658
  347PNCE   C3B 3121   6.124   0.359   7.999 -0.0321 -0.0266  0.0716
  347PNCE   D4B 3122   6.104  -0.032   7.715  0.5290 -0.1430 -0.0059
  347PNCE   C5B 3123   6.395  -0.125   7.436 -0.0886  0.0662 -0.1739
  347PNCE   C6B 3124   6.616  -0.247   7.026 -0.4162  0.4490  0.0709
  348XCA    COO 3125  14.295   9.330   7.539 -0.2487 -0.0911 -0.0967
  348XCA     C1 3126  14.252   9.087   7.174 -0.2520 -0.2039  0.0431
  348XCA     C2 3127  14.388   9.174   6.773  0.1714 -0.2530  0.3189
  348XCA     C3 3128  14.374   9.315   6.279  0.1695  0.1112 -0.0690
  348XCA     C4 3129  14.412   9.770   6.131 -0.1456 -0.3369  0.1250
  348XCA     C5 3130  14.373  10.259   6.014 -0.1222  0.0910 -0.2307
  348XCA     C6 3131  14.249  10.550   5.658 -0.0587  0.3509 -0.0236
  349XCA    COO 3132   9.047   5.657   4.124  0.1171  0.0258  0.0830
  349XCA     C1 3133   8.755   5.687   4.437 -0.5856  0.1501 -0.1301
  349XCA     C2 3134   8.444   5.778   4.772 -0.4470 -0.2006  0.0382
  349XCA     C3 3135   8.344   5.847   5.194 -0.2294 -0.2079 -0.1461
  349XCA     C4 3136   8.401   6.103   5.403 -0.1567  0.1813  0.0289
  349XCA     C5 3137   8.443   6.423   5.775  0.2421 -0.0716 -0.1722
  349XCA     C6 3138   8.347   6.592   6.105 -0.4289  0.0263 -0.0080
  350XCA    COO 3139   3.904  15.778   5.053 -0.0957 -0.0862 -0.3507
  350XCA     C1 3140   3.822  15.722   5.467 -0.1529  0.0478  0.1810
  350XCA     C2 3141   3.734  15.799   5.972  0.2484 -0.2720  0.0404
  350XCA     C3 3142   3.951  15.977   6.257 -0.0018  0.0544  0.2945
  350XCA     C4 3143   3.872  16.274   6.590 -0.1082 -0.2271 -0.2120
  350XCA     C5 3144   3.892  16.681   6.665 -0.0663  0.1543 -0.0407
  350XCA     C6 3145   3.909  16.992   6.986  0.1199 -0.0495 -0.0926
  351CHOL   ROH 3146   6.183   9.861   5.527  0.1030  0.1716 -0.1520
  351CHOL    R1 3147   5.925   9.972   5.562  0.0250 -0.0319 -0.0746
  351CHOL    R2 3148   5.778   9.937   5.793  0.2407  0.0901  0.0823
  351CHOL    R3 3149   5.768  10.209   5.789 -0.0177  0.0768 -0.2178
  351CHOL    R4 3150   5.586  10.130   6.006  0.5143  0.1640  0.2606
  351CHOL    R5 3151   5.539  10.260   5.837  0.0367 -0.0792  0.2069
  351CHOL    C1 3152   5.466  10.498   6.127  0.4308  0.1950  0.0828
  351CHOL    C2 3153   5.147  10.518   6.214  0.1085  0.2629  0.2665
  352PNCE   AM1 3154   3.428  13.945   7.656 -0.1353 -0.1372 -0.4120
  352PNCE   AM2 3155   3.267  13.653   7.894 -0.1806 -0.2213 -0.3567
  352PNCE   T1A 3156   3.174  13.862   7.260 -0.2587 -0.0820 -0.0406
  352PNCE   C2A 3157   2.845  14.103   7.094 -0.0840  0.1252  0.0242
  352PNCE   C3A 3158   2.528  14.289   6.961 -0.0085 -0.0110  0.3334
  352PNCE   C1B 3159   2.996  13.524   7.588  0.0619 -0.1803  0.0178
  352PNCE   C2B 3160   2.854  13.482   7.093 -0.0851  0.1144  0.0414
  352PNCE   C3B 3161   2.603  13.157   6.967  0.0958 -0.2729 -0.1830
  352PNCE   D4B 3162   2.315  13.229   6.537 -0.1925  0.4282 -0.0866
  352PNCE   C5B 3163   2.254  13.041   6.135  0.0890 -0.0631 -0.3588
  352PNCE   C6B 3164   2.029  12.911   5.879  0.0362 -0.0684 -0.0878
  353PNCE   AM1 3165  12.552   7.914   7.803  0.1285  0.0121  0.1427
  353PNCE   AM2 3166  12.684   8.143   7.824 -0.2000  0.2128 -0.0772
  353PNCE   T1A 3167  12.472   7.642   7.503  0.3909 -0.1865 -0.0568
  353PNCE   C2A 3168  12.422   7.538   7.071 -0.3504  0.0343 -0.0320
  353PNCE   C3A 3169  12.405   7.546   6.526 -0.1906  0.0908 -0.0460
  353PNCE   C1B 3170  12.898   8.161   7.443 -0.0854 -0.0673 -0.1320
  353PNCE   C2B 3171  13.208   8.095   7.155  0.0522  0.1599 -0.2445
  353PNCE   C3B 3172  13.456   8.352   6.855  0.1674  0.2948  0.1193
  353PNCE   D4B 3173  13.590   8.554   6.450 -0.1393 -0.1208 -0.0155
  353PNCE   C5B 3174  14.099   8.768   6.334  0.1755  0.1885  0.0791
  353PNCE   C6B 3175  14.485   8.810   6.267  0.2190 -0.2639 -0.0063
  354PNCE   AM1 3176  11.226  14.040   8.732 -0.2269 -0.0861 -0.1218
  354PNCE   AM2 3177  10.915  13.911   8.699 -0.1240  0.0208 -0.0787
  354PNCE   T1A 3178  11.296  14.216   8.325 -0.0155  0.2961 -0.2968
  354PNCE   C2A 3179  11.612  14.232   8.024 -0.2141 -0.0801 -0.3465
  354PNCE   C3A 3180  11.974  14.429   8.107 -0.1093 -0.0011 -0.1481
  354PNCE   C1B 3181  10.798  14.119   8.321  0.1101 -0.1762  0.1992
  354PNCE   C2B 3182  10.438  14.145   8.148 -0.1692  0.0417 -0.1360
  354PNCE   C3B 3183  10.028  14.216   8.227 -0.1811 -0.1325  0.0947
  354PNCE   D4B 3184   9.652  14.249   7.916  0.2509 -0.2031  0.4036
  354PNCE   C5B 3185   9.576  14.024   7.611  0.1243  0.0768 -0.2605
  354PNCE   C6B 3186   9.540  13.661   7.463  0.0699  0.0464  0.0338
  355XCA    COO 3187  15.919  16.302   4.135  0.1448  0.0041 -0.1984
  355XCA     C1 3188  16.038  16.134   4.613 -0.0821 -0.1048 -0.3518
  355XCA     C2 3189  16.228  16.041   4.992  0.0209  0.2384 -0.2558
  355XCA     C3 3190  16.547  16.149   5.241 -0.2410 -0.1329 -0.0415
  355XCA     C4 3191  16.551  16.334   5.630 -0.1539  0.0810 -0.1293
  355XCA     C5 3192  16.891  16.504   5.866 -0.0169 -0.0143  0.1971
  355XCA     C6 3193  17.203  16.421   6.143  0.1372  0.1620 -0.0177
  356CHOL   ROH 3194  15.480  16.080   8.254  0.0008 -0.0093  0.1554
  356CHOL    R1 3195  15.599  15.917   8.055 -0.0114 -0.0739  0.2003
  356CHOL    R2 3196  15.503  15.904   7.797 -0.0712 -0.2114  0.2296
  356CHOL    R3 3197  15.759  15.968   7.732 -0.1011 -0.1842  0.1391
  356CHOL    R4 3198  15.692  15.744   7.556  0.0000 -0.4597  0.4492
  356CHOL    R5 3199  15.864  15.757   7.689 -0.0057 -0.1979  0.4294
  356CHOL    C1 3200  16.042  15.711   7.354  0.0128 -0.5793  0.4910
  356CHOL    C2 3201  15.967  15.364   7.191 -0.0913 -0.0287  0.1710
  357PNCE   AM1 3202  15.241  13.845   8.950  0.0185  0.1194 -0.2431
  357PNCE   AM2 3203  14.946  13.767   9.064  0.1790  0.0482  0.0005
  357PNCE   T1A 3204  15.094  14.076   8.568  0.0192  0.0947 -0.0852
  357PNCE   C2A 3205  15.075  14.080   8.148  0.4248 -0.0064 -0.1542
  357PNCE   C3A 3206  15.280  14.179   7.768 -0.0833 -0.1608 -0.0784
  357PNCE   C1B 3207  14.812  13.630   8.640  0.0782 -0.1968  0.3828
  357PNCE   C2B 3208  14.794  13.753   8.356 -0.2841 -0.3050  0.2785
  357PNCE   C3B 3209  14.670  13.784   7.977 -0.2807 -0.1342  0.1826
  357PNCE   D4B 3210  14.828  13.781   7.542 -0.0908 -0.1691  0.2043
  357PNCE   C5B 3211  15.195  13.930   7.235 -0.3446 -0.1464  0.1737
  357PNCE   C6B 3212  15.229  14.027   6.720 -0.1072 -0.0136 -0.1362
  358CHOL   ROH 3213   3.253  14.206   4.243 -0.2649  0.0379 -0.0449
  358CHOL    R1 3214   3.248  14.213   4.525 -0.2009  0.0200 -0.0434
  358CHOL    R2 3215   3.223  13.985   4.679 -0.0163 -0.0038 -0.0493
  358CHOL    R3 3216   3.450  14.078   4.797 -0.0479  0.1366 -0.0994
  358CHOL    R4 3217   3.304  13.942   5.012  0.2447 -0.2494 -0.1445
  358CHOL    R5 3218   3.379  14.146   5.015  0.0120 -0.1664  0.0155
  358CHOL    C1 3219   3.565  14.004   5.317  0.3673 -0.2596 -0.2473
  358CHOL    C2 3220   3.677  14.027   5.746  0.0811  0.0991  0.0335
  359XCA    COO 3221   8.666  11.524   8.653  0.0599 -0.1226  0.1642
  359XCA     C1 3222   8.316  11.380   8.425  0.1386 -0.0632  0.0020
  359XCA     C2 3223   8.126  11.042   8.167 -0.0152 -0.3548 -0.1086
  359XCA     C3 3224   7.839  10.898   7.780  0.1809  0.3997 -0.1036
  359XCA     C4 3225   7.798  10.828   7.384 -0.2512  0.1068  0.0451
  359XCA     C5 3226   7.724  10.613   6.975 -0.1502 -0.0327  0.2509
  359XCA     C6 3227   7.737  10.253   6.678 -0.0179 -0.0193 -0.0646
  360PNCE   AM1 3228   4.459  14.139   7.419 -0.1042 -0.0993 -0.0100
  360PNCE   AM2 3229   4.801  14.274   7.605  0.2986 -0.3191  0.1169
  360PNCE   T1A 3230   4.166  14.372   7.127 -0.1587 -0.1036 -0.0841
  360PNCE   C2A 3231   3.766  14.519   6.891  0.0509  0.0597 -0.3387
  360PNCE   C3A 3232   3.488  14.405   6.509 -0.0252  0.0538 -0.2075
  360PNCE   C1B 3233   5.180  14.462   7.277  0.0224  0.0803  0.2671
  360PNCE   C2B 3234   5.317  14.443   6.884  0.3921  0.2457 -0.2225
  360PNCE   C3B 3235   5.156  14.546   6.487 -0.0911  0.3520  0.0294
  360PNCE   D4B 3236   5.417  14.503   6.153  0.0358 -0.1861 -0.1742
  360PNCE   C5B 3237   5.560  14.084   5.995 -0.1063  0.2457  0.1191
  360PNCE   C6B 3238   5.891  13.706   6.097  0.0353  0.2350 -0.1950
  361XCA    COO 3239  15.518   2.728   4.378  0.4513 -0.0980  0.1962
  361XCA     C1 3240  15.510   2.733   4.840 -0.3882  0.0671  0.1465
  361XCA     C2 3241  15.362   2.656   5.280 -0.2326 -0.0463 -0.0534
  361XCA     C3 3242  15.259   2.563   5.669 -0.1013  0.1208  0.0341
  361XCA     C4 3243  15.065   2.520   6.115 -0.1234  0.2789  0.1866
  361XCA     C5 3244  15.190   2.118   6.278  0.2440  0.1501  0.1593
  361XCA     C6 3245  15.334   1.945   6.633 -0.2489 -0.0742  0.0173
  362CHOL   ROH 3246   0.997   2.969   8.340 -0.0578  0.1513  0.0878
  362CHOL    R1 3247   1.151   2.802   8.171 -0.0591  0.1135  0.1235
  362CHOL    R2 3248   1.048   2.577   8.050 -0.0690  0.1042  0.1493
  362CHOL    R3 3249   1.140   2.695   7.824 -0.0420  0.0631  0.1389
  362CHOL    R4 3250   1.101   2.414   7.750  0.0158  0.0393  0.2000
  362CHOL    R5 3251   1.283   2.530   7.725  0.0030  0.0612  0.2077
  362CHOL    C1 3252   1.218   2.430   7.363  0.0905 -0.0373  0.2193
  362CHOL    C2 3253   1.260   2.103   7.016  0.2150  0.0292 -0.1413
  363CHOL   ROH 3254   9.680  10.659   7.926  0.1940  0.1790 -0.0136
  363CHOL    R1 3255   9.489  10.710   7.723  0.1402  0.1974  0.0417
  363CHOL    R2 3256   9.496  10.936   7.566  0.1162  0.1970  0.0396
  363CHOL    R3 3257   9.494  10.756   7.362  0.0398  0.1974  0.0405
  363CHOL    R4 3258   9.425  11.012   7.236 -0.0691  0.1874  0.0775
  363CHOL    R5 3259   9.311  10.826   7.224 -0.0453  0.1683  0.1361
  363CHOL    C1 3260   9.380  10.886   6.853 -0.2478  0.1812  0.1002
  363CHOL    C2 3261   9.201  11.022   6.520  0.0239  0.1011  0.1334
  364CHOL   ROH 3262   9.782  16.071   5.010  0.1109  0.0810  0.1977
  364CHOL    R1 3263   9.952  15.907   5.165  0.0839  0.1035  0.2520
  364CHOL    R2 3264  10.106  16.007   5.372 -0.0942  0.1009  0.3862
  364CHOL    R3 3265   9.981  15.813   5.516 -0.1020 -0.0036  0.2391
  364CHOL    R4 3266  10.213  15.888   5.678 -0.2236  0.0238  0.4013
  364CHOL    R5 3267  10.159  15.687   5.614 -0.1082  0.0277  0.2911
  364CHOL    C1 3268  10.158  15.637   5.992 -0.3055 -0.1212  0.2711
  364CHOL    C2 3269  10.262  15.753   6.456 -0.0900  0.2734 -0.1504
  365CHOL   ROH 3270   9.971   7.127   4.793 -0.0696  0.1243  0.0002
  365CHOL    R1 3271   9.892   7.108   5.064  0.1097  0.0496  0.0479
  365CHOL    R2 3272   9.629   7.129   5.144  0.1881  0.2754  0.2517
  365CHOL    R3 3273   9.680   6.890   5.263  0.0307  0.1538  0.0773
  365CHOL    R4 3274   9.499   7.029   5.448  0.2198  0.1876  0.2363
  365CHOL    R5 3275   9.694   6.942   5.497  0.1640 -0.0098  0.1061
  365CHOL    C1 3276   9.472   6.746   5.738  0.0887  0.0226  0.0629
  365CHOL    C2 3277   9.563   6.816   6.046 -0.4473  0.0337  0.2741
  366PNCE   AM1 3278  11.574   3.396   8.061  0.0468 -0.1824  0.1701
  366PNCE   AM2 3279  11.779   3.176   7.908  0.0658 -0.2126  0.1460
  366PNCE   T1A 3280  11.275   3.718   7.805  0.3436  0.0566  0.0933
  366PNCE   C2A 3281  10.885   3.946   7.697  0.1305 -0.1720  0.0920
  366PNCE   C3A 3282  10.708   4.320   7.568  0.4878  0.0626  0.0213
  366PNCE   C1B 3283  11.798   3.215   7.462  0.1233 -0.0752  0.1668
  366PNCE   C2B 3284  11.822   3.321   7.043 -0.3065  0.4029  0.2494
  366PNCE   C3B 3285  11.740   3.400   6.686  0.1028 -0.1279 -0.1875
  366PNCE   D4B 3286  11.479   3.230   6.422 -0.0932  0.1553 -0.3109
  366PNCE   C5B 3287  11.029   3.171   6.598  0.1310  0.3627  0.1906
  366PNCE   C6B 3288  10.652   2.948   6.640 -0.4395  0.3200  0.0524
  367CHOL   ROH 3289   3.189   5.439   7.596 -0.1670  0.3611  0.1822
  367CHOL    R1 3290   3.010   5.464   7.378 -0.0739  0.0129  0.0648
  367CHOL    R2 3291   3.064   5.623   7.159 -0.1540 -0.0312  0.0128
  367CHOL    R3 3292   3.016   5.393   7.021  0.2253 -0.1667  0.1051
  367CHOL    R4 3293   2.988   5.607   6.822 -0.4073 -0.2720  0.0820
  367CHOL    R5 3294   2.842   5.452   6.868 -0.0324 -0.5789  0.2408
  367CHOL    C1 3295   2.898   5.383   6.497 -0.1989 -0.5395  0.2083
  367CHOL    C2 3296   2.625   5.379   6.140  0.1985  0.0910 -0.1345
  368CHOL   ROH 3297   8.545   0.353   5.300 -0.1580  0.1632  0.1198
  368CHOL    R1 3298   8.590   0.509   5.532 -0.0329  0.1879  0.0789
  368CHOL    R2 3299   8.386   0.635   5.668  0.0445  0.2302  0.1571
  368CHOL    R3 3300   8.488   0.499   5.881  0.1266  0.2453  0.1273
  368CHOL    R4 3301   8.359   0.735   5.998  0.0558  0.1848  0.1717
  368CHOL    R5 3302   8.565   0.671   6.029  0.0834  0.2580  0.1349
  368CHOL    C1 3303   8.439   0.667   6.389  0.1373  0.1725  0.1523
  368CHOL    C2 3304   8.548   0.909   6.485  0.0711  0.2577 -0.1663
  369PNCE   AM1 3305   9.901   9.379   8.184 -0.2497 -0.1844 -0.2083
  369PNCE   AM2 3306   9.771   9.047   8.325 -0.3405  0.0261 -0.0860
  369PNCE   T1A 3307  10.192   9.532   7.839 -0.0108  0.1118 -0.1184
  369PNCE   C2A 3308  10.133   9.489   7.333 -0.0730  0.0810  0.2757
  369PNCE   C3A 3309  10.151   9.407   6.868 -0.1021  0.0948 -0.1750
  369PNCE   C1B 3310   9.779   9.089   7.851  0.0872 -0.3931  0.0808
  369PNCE   C2B 3311   9.725   9.251   7.400  0.1320 -0.0090 -0.0974
  369PNCE   C3B 3312   9.690   9.562   7.013  0.1193 -0.0955 -0.2578
  369PNCE   D4B 3313   9.930   9.774   6.624 -0.4698 -0.3240  0.0069
  369PNCE   C5B 3314   9.973  10.229   6.756  0.0459 -0.2949  0.0984
  369PNCE   C6B 3315   9.651  10.497   6.915  0.1455 -0.0734 -0.0876
  370PNCE   AM1 3316  13.675   3.761   7.561 -0.3153 -0.0557 -0.2256
  370PNCE   AM2 3317  13.430   3.695   7.826 -0.2607  0.1035 -0.0660
  370PNCE   T1A 3318  13.992   3.749   7.131  0.0556  0.0689 -0.0069
  370PNCE   C2A 3319  14.016   3.592   6.705  0.1909  0.2359 -0.3493
  370PNCE   C3A 3320  14.355   3.568   6.512 -0.0772 -0.0379  0.4100
  370PNCE   C1B 3321  13.278   3.616   7.399 -0.3645 -0.4574  0.0163
  370PNCE   C2B 3322  13.191   3.757   6.916 -0.1348  0.1742 -0.0963
  370PNCE   C3B 3323  13.023   3.845   6.563  0.1564  0.2757  0.0103
  370PNCE   D4B 3324  12.817   3.562   6.253 -0.0032  0.1006 -0.1304
  370PNCE   C5B 3325  13.172   3.323   6.052  0.0804 -0.1192  0.0796
  370PNCE   C6B 3326  13.631   3.221   6.137 -0.3274 -0.0260  0.2517
  371CHOL   ROH 3327  15.018   1.657   6.115 -0.0622 -0.0059  0.2457
  371CHOL    R1 3328  14.824   1.560   5.934  0.0525  0.0066  0.1147
  371CHOL    R2 3329  14.859   1.329   5.787  0.0837 -0.0605  0.2287
  371CHOL    R3 3330  14.621   1.260   5.898 -0.0378  0.0761  0.0504
  371CHOL    R4 3331  14.673   1.051   5.700  0.0734 -0.0477  0.2098
  371CHOL    R5 3332  14.493   1.173   5.716  0.0992  0.0189 -0.0184
  371CHOL    C1 3333  14.341   0.825   5.753 -0.0470  0.0881  0.0305
  371CHOL    C2 3334  14.291   0.432   5.815 -0.0854  0.1900 -0.0242
  372CHOL   ROH 3335  11.445   8.377   7.804  0.0181 -0.1188  0.1118
  372CHOL    R1 3336  11.395   8.369   7.526 -0.0467  0.0424  0.1185
  372CHOL    R2 3337  11.273   8.153   7.403  0.0097  0.0736  0.0073
  372CHOL    R3 3338  11.102   8.343   7.311 -0.0900  0.0640  0.1740
  372CHOL    R4 3339  11.076   8.121   7.121  0.0682  0.2389 -0.0525
  372CHOL    R5 3340  11.120   8.329   7.073 -0.0482  0.3147  0.1624
  372CHOL    C1 3341  10.800   8.280   6.870  0.0090  0.3275  0.0695
  372CHOL    C2 3342  10.620   8.190   6.473  0.1876 -0.5081  0.2664
  373CHOL   ROH 3343   7.404  11.848   4.404  0.0143  0.3728  0.2495
  373CHOL    R1 3344   7.369  12.008   4.634 -0.1121  0.2651  0.3057
  373CHOL    R2 3345   7.125  12.119   4.702 -0.1641  0.1823  0.2571
  373CHOL    R3 3346   7.171  11.993   4.939 -0.2304  0.0888  0.2203
  373CHOL    R4 3347   6.961  12.189   4.998 -0.2081  0.1040  0.2503
  373CHOL    R5 3348   7.150  12.166   5.103 -0.2317  0.0334  0.2787
  373CHOL    C1 3349   6.907  12.111   5.392 -0.2965 -0.0294  0.2129
  373CHOL    C2 3350   6.540  11.981   5.630 -0.0794 -0.1306  0.3356
  374XCA    COO 3351   1.833   3.795   4.661  0.0990 -0.0016  0.0757
  374XCA     C1 3352   1.670   3.531   5.034 -0.0485 -0.0926 -0.1852
  374XCA     C2 3353   1.423   3.172   5.213  0.1390  0.0909  0.1136
  374XCA     C3 3354   1.287   3.286   5.629 -0.1124 -0.1286  0.1619
  374XCA     C4 3355   0.929   3.322   5.761  0.1842  0.1093  0.1103
  374XCA     C5 3356   0.746   3.076   6.006 -0.1128  0.0352  0.1537
  374XCA     C6 3357   0.574   2.949   6.341  0.2239  0.0101  0.1243
  375CHOL   ROH 3358   4.240  15.990   7.607  0.1308  0.0016 -0.0711
  375CHOL    R1 3359   4.110  15.916   7.367  0.1085  0.0343 -0.0691
  375CHOL    R2 3360   3.845  15.838   7.359  0.1214 -0.0119 -0.0488
  375CHOL    R3 3361   3.825  16.035   7.173  0.0588  0.0286 -0.0002
  375CHOL    R4 3362   3.660  15.816   7.068  0.1950 -0.0291 -0.0939
  375CHOL    R5 3363   3.822  15.918   6.964  0.1639  0.0825 -0.0317
  375CHOL    C1 3364   3.534  15.988   6.724  0.1790 -0.0021 -0.0744
  375CHOL    C2 3365   3.510  15.740   6.442  0.2638 -0.0656  0.0756
  376PNCE   AM1 3366   2.458   1.506   5.100  0.1748 -0.0146 -0.0807
  376PNCE   AM2 3367   2.337   1.087   5.082  0.0934  0.0986 -0.2602
  376PNCE   T1A 3368   2.166   1.479   5.411 -0.0996 -0.1465  0.1272
  376PNCE   C2A 3369   2.017   1.421   5.871 -0.2479 -0.0594 -0.1827
  376PNCE   C3A 3370   2.009   1.403   6.319  0.0355  0.4734  0.0764
  376PNCE   C1B 3371   2.174   0.975   5.556  0.4226  0.2279 -0.0381
  376PNCE   C2B 3372   1.972   0.962   6.006 -0.1108  0.0951 -0.1344
  376PNCE   C3B 3373   1.635   1.065   6.443  0.1115  0.2879 -0.1255
  376PNCE   D4B 3374   1.603   1.236   6.840  0.1457 -0.0415 -0.2220
  376PNCE   C5B 3375   1.461   1.023   7.254 -0.1039 -0.4119  0.2546
  376PNCE   C6B 3376   1.286   0.897   7.672  0.0596 -0.0271 -0.1218
  377XCA    COO 3377   8.569  13.315   5.524 -0.3056 -0.1646 -0.0472
  377XCA     C1 3378   8.392  13.170   5.838 -0.0573 -0.0036 -0.1293
  377XCA     C2 3379   8.417  12.827   6.067  0.0717 -0.0903  0.1418
  377XCA     C3 3380   8.400  12.858   6.550  0.2595  0.1716 -0.0361
  377XCA     C4 3381   8.094  12.932   6.769  0.0604 -0.0702 -0.1549
  377XCA     C5 3382   7.875  13.180   7.048  0.0412  0.0535  0.0917
  377XCA     C6 3383   7.711  13.380   7.324 -0.1732 -0.1214  0.0480
  378PNCE   AM1 3384   9.171  10.945   8.117  0.0774  0.0724  0.0267
  378PNCE   AM2 3385   9.560  11.133   8.278  0.2187  0.0990  0.2537
  378PNCE   T1A 3386   9.068  10.890   7.750  0.0103  0.0931  0.0906
  378PNCE   C2A 3387   8.761  10.938   7.506  0.6343  0.0059  0.0282
  378PNCE   C3A 3388   8.537  10.672   7.191 -0.0661 -0.0271  0.1375
  378PNCE   C1B 3389   9.301  11.342   7.747  0.0706  0.0346  0.3053
  378PNCE   C2B 3390   9.043  11.297   7.321  0.1560 -0.2766 -0.1972
  378PNCE   C3B 3391   8.929  11.024   7.000 -0.1349  0.2560  0.1323
  378PNCE   D4B 3392   8.678  10.735   6.686 -0.2460 -0.4485 -0.0017
  378PNCE   C5B 3393   8.898  10.685   6.252 -0.0594  0.0496 -0.0305
  378PNCE   C6B 3394   8.567  10.397   6.107 -0.1082 -0.1905 -0.5550
  379CHOL   ROH 3395   7.575   5.933   7.260 -0.0556 -0.1081 -0.1447
  379CHOL    R1 3396   7.679   5.966   6.999  0.0057 -0.0145 -0.1085
  379CHOL    R2 3397   7.565   6.137   6.814  0.0266  0.0238 -0.0862
  379CHOL    R3 3398   7.817   6.239   6.802  0.0145  0.0651  0.0086
  379CHOL    R4 3399   7.743   6.188   6.522  0.0131  0.3326 -0.0408
  379CHOL    R5 3400   7.922   6.116   6.625  0.0246  0.2520 -0.1156
  379CHOL    C1 3401   8.083   6.314   6.341 -0.0060  0.5518  0.0747
  379CHOL    C2 3402   8.099   6.068   6.062  0.0784  0.0283  0.0282
  380CHOL   ROH 3403   5.131   9.179   5.337  0.1810  0.2363  0.0931
  380CHOL    R1 3404   5.098   9.284   5.598  0.0992  0.0930  0.1409
  380CHOL    R2 3405   4.941   9.161   5.789  0.2153 -0.1295  0.0935
  380CHOL    R3 3406   5.167   9.174   5.938  0.2098  0.0048  0.0898
  380CHOL    R4 3407   4.964   9.069   6.121  0.2329  0.0510  0.1428
  380CHOL    R5 3408   5.092   9.242   6.155  0.1898  0.1001  0.0532
  380CHOL    C1 3409   5.190   9.028   6.455  0.2376  0.2830  0.1678
  380CHOL    C2 3410   5.107   8.972   6.811 -0.0001  0.0007  0.0592
  381CHOL   ROH 3411   2.980   7.610   5.245  0.1325 -0.0465 -0.0750
  381CHOL    R1 3412   3.069   7.377   5.379  0.0288 -0.0148  0.0472
  381CHOL    R2 3413   3.018   7.332   5.647 -0.0156  0.1351  0.0642
  381CHOL    R3 3414   2.914   7.098   5.554 -0.0966  0.1302  0.1679
  381CHOL    R4 3415   2.927   7.064   5.845  0.1190  0.1624  0.1621
  381CHOL    R5 3416   3.011   6.930   5.695 -0.0001  0.1409  0.1142
  381CHOL    C1 3417   2.777   6.688   5.874  0.1212  0.1731  0.3164
  381CHOL    C2 3418   2.560   6.362   6.078  0.0952 -0.1819 -0.0115
  382PNCE   AM1 3419   5.455  13.946   7.908  0.1614  0.2696  0.2525
  382PNCE   AM2 3420   5.276  14.219   7.838 -0.0348 -0.0284 -0.1786
  382PNCE   T1A 3421   5.766  13.797   7.704  0.3848 -0.2267  0.1653
  382PNCE   C2A 3422   5.975  13.712   7.290 -0.1300  0.0411 -0.0864
  382PNCE   C3A 3423   6.338  13.734   7.153  0.0472 -0.4298 -0.2289
  382PNCE   C1B 3424   5.305  14.021   7.444 -0.1559 -0.0056  0.0692
  382PNCE   C2B 3425   5.541  13.983   7.073 -0.1235 -0.0101 -0.0157
  382PNCE   C3B 3426   5.972  14.064   6.916  0.1126 -0.2826 -0.1178
  382PNCE   D4B 3427   6.388  14.064   6.728 -0.2355  0.0063 -0.0888
  382PNCE   C5B 3428   6.666  13.729   6.792 -0.2699 -0.3872  0.2091
  382PNCE   C6B 3429   6.812  13.329   6.614 -0.2508  0.2891  0.1820
  383PNCE   AM1 3430   0.839   9.682   8.058 -0.2696 -0.3518 -0.1181
  383PNCE   AM2 3431   1.040   9.911   8.031  0.1039  0.1142 -0.0252
  383PNCE   T1A 3432   0.618   9.754   7.643 -0.0669  0.1413 -0.0311
  383PNCE   C2A 3433   0.508   9.682   7.241  0.1422 -0.5400 -0.0355
  383PNCE   C3A 3434   0.239   9.421   6.903 -0.0207 -0.1967 -0.0165
  383PNCE   C1B 3435   0.991  10.078   7.547 -0.1660 -0.2365  0.4057
  383PNCE   C2B 3436   0.971  10.149   7.094 -0.2447  0.0800 -0.0769
  383PNCE   C3B 3437   1.219  10.049   6.737 -0.2877 -0.1419 -0.1272
  383PNCE   D4B 3438   1.381   9.870   6.354 -0.3172 -0.0772  0.1249
  383PNCE   C5B 3439   1.318   9.468   6.163  0.2231  0.0329 -0.0354
  383PNCE   C6B 3440   1.375   9.080   6.081  0.6896 -0.1271 -0.2299
  384PNCE   AM1 3441  16.223   4.231   8.076 -0.0903 -0.3293  0.1403
  384PNCE   AM2 3442  16.558   4.214   8.030 -0.0948 -0.1606  0.4142
  384PNCE   T1A 3443  16.138   3.895   7.688 -0.0832  0.0524  0.3008
  384PNCE   C2A 3444  16.250   3.829   7.285 -0.1589 -0.3347  0.0046
  384PNCE   C3A 3445  16.589   3.633   7.073  0.2847 -0.1393 -0.0134
  384PNCE   C1B 3446  16.491   4.372   7.650  0.2232 -0.5106 -0.1324
  384PNCE   C2B 3447  16.605   4.642   7.472 -0.1582  0.0187 -0.2450
  384PNCE   C3B 3448  16.578   5.063   7.345  0.1194  0.1293 -0.2566
  384PNCE   D4B 3449  16.417   5.396   7.051  0.0260  0.0652 -0.0089
  384PNCE   C5B 3450  16.632   5.681   6.828 -0.0761 -0.1275 -0.1783
  384PNCE   C6B 3451  17.021   5.775   6.826 -0.0829 -0.2912  0.0860
  385CHOL   ROH 3452  12.459  11.831   6.212 -0.0908  0.1271  0.0487
  385CHOL    R1 3453  12.737  11.824   6.159 -0.0806 -0.2317  0.1504
  385CHOL    R2 3454  12.895  12.050   6.161  0.1191 -0.3677 -0.2738
  385CHOL    R3 3455  13.043  11.907   6.338 -0.0629 -0.1292  0.0733
  385CHOL    R4 3456  13.233  12.097   6.219  0.0877 -0.3772 -0.0832
  385CHOL    R5 3457  13.256  11.880   6.230  0.0134 -0.3676  0.2820
  385CHOL    C1 3458  13.568  11.988   6.419 -0.1019 -0.1597  0.3540
  385CHOL    C2 3459  13.918  11.993   6.343 -0.4922  0.1059 -0.0269
  386PNCE   AM1 3460   5.000  12.267   7.907 -0.1428 -0.2082 -0.2524
  386PNCE   AM2 3461   5.366  12.227   7.900 -0.2145 -0.2638  0.0265
  386PNCE   T1A 3462   4.854  12.038   7.611 -0.1271 -0.2133 -0.2581
  386PNCE   C2A 3463   4.567  12.020   7.273  0.0803  0.0669 -0.1950
  386PNCE   C3A 3464   4.504  12.421   7.036  0.1862 -0.0579 -0.2660
  386PNCE   C1B 3465   5.425  12.589   7.669  0.0458 -0.0308  0.0615
  386PNCE   C2B 3466   5.650  12.625   7.279  0.1751  0.2237  0.0517
  386PNCE   C3B 3467   6.028  12.952   7.088 -0.0151 -0.0666 -0.0244
  386PNCE   D4B 3468   6.331  13.188   6.908  0.5851 -0.0990  0.0075
  386PNCE   C5B 3469   6.637  12.873   6.592  0.1768  0.0959 -0.2078
  386PNCE   C6B 3470   7.147  12.743   6.631 -0.3417 -0.0862  0.1124
  387CHOL   ROH 3471  10.625  14.067   5.355  0.2666 -0.0481  0.0322
  387CHOL    R1 3472  10.609  13.949   5.612  0.1945 -0.0386  0.0319
  387CHOL    R2 3473  10.561  14.097   5.841  0.1069 -0.0328  0.0099
  387CHOL    R3 3474  10.358  13.919   5.874  0.1133 -0.0519 -0.0481
  387CHOL    R4 3475  10.388  14.047   6.136 -0.1068  0.0920 -0.0932
  387CHOL    R5 3476  10.390  13.833   6.096 -0.0381  0.0715  0.0219
  387CHOL    C1 3477  10.098  13.851   6.340 -0.2251  0.1477 -0.2076
  387CHOL    C2 3478   9.797  13.841   6.676  0.0498 -0.2747  0.3803
  388CHOL   ROH 3479   4.147   1.190   8.168 -0.0713 -0.2916  0.0565
  388CHOL    R1 3480   4.305   1.324   7.975 -0.1230 -0.1292  0.1261
  388CHOL    R2 3481   4.487   1.192   7.815  0.0818  0.0567  0.2045
  388CHOL    R3 3482   4.348   1.311   7.614  0.0470 -0.0831  0.1447
  388CHOL    R4 3483   4.629   1.332   7.533  0.0639  0.2252  0.2792
  388CHOL    R5 3484   4.486   1.496   7.548 -0.1211  0.0700  0.2201
  388CHOL    C1 3485   4.582   1.526   7.180  0.0207  0.1922  0.2665
  388CHOL    C2 3486   4.503   1.839   7.057 -0.2323  0.1764  0.0027
  389PNCE   AM1 3487  14.153  15.407   6.630 -0.0117 -0.2268 -0.0108
  389PNCE   AM2 3488  14.111  15.285   6.967 -0.0326 -0.2171  0.1001
  389PNCE   T1A 3489  14.350  15.301   6.334  0.1433 -0.0995 -0.0812
  389PNCE   C2A 3490  14.407  15.459   5.951 -0.1690  0.0210 -0.1427
  389PNCE   C3A 3491  14.445  15.614   5.544 -0.2568  0.0153 -0.0362
  389PNCE   C1B 3492  14.237  14.910   7.202 -0.0233  0.0261 -0.2118
  389PNCE   C2B 3493  14.400  14.523   6.967 -0.1604 -0.2563 -0.3182
  389PNCE   C3B 3494  14.407  14.259   6.721  0.0896  0.5003  0.4221
  389PNCE   D4B 3495  14.221  14.181   6.290  0.1682 -0.0901  0.3320
  389PNCE   C5B 3496  13.796  14.184   6.300  0.2109 -0.1707  0.0977
  389PNCE   C6B 3497  13.381  14.133   6.343  0.2977  0.3604 -0.0393
  390CHOL   ROH 3498   2.521   7.430   7.625 -0.0281  0.2556  0.0425
  390CHOL    R1 3499   2.544   7.512   7.356 -0.2040  0.0114 -0.0479
  390CHOL    R2 3500   2.763   7.450   7.199 -0.1852  0.0927 -0.0543
  390CHOL    R3 3501   2.573   7.350   7.031 -0.1309 -0.2816  0.1051
  390CHOL    R4 3502   2.805   7.405   6.859 -0.2694 -0.1371 -0.0348
  390CHOL    R5 3503   2.601   7.477   6.830 -0.3707 -0.4148 -0.0110
  390CHOL    C1 3504   2.652   7.286   6.503 -0.2674 -0.6225  0.1262
  390CHOL    C2 3505   2.571   7.315   6.250 -0.0728 -0.0861  0.3718
  391XCA    COO 3506   6.835  15.539   8.296 -0.0192 -0.0447 -0.1425
  391XCA     C1 3507   6.603  15.851   8.079 -0.0627  0.1074  0.0209
  391XCA     C2 3508   6.776  16.047   7.768  0.0693  0.1670  0.2470
  391XCA     C3 3509   6.892  16.207   7.412 -0.0340 -0.1933  0.2144
  391XCA     C4 3510   7.253  16.309   7.141 -0.0336  0.1153 -0.3707
  391XCA     C5 3511   7.409  16.317   6.707 -0.2609 -0.1331 -0.1883
  391XCA     C6 3512   7.284  16.607   6.409  0.0942  0.1654 -0.1097
  392CHOL   ROH 3513   3.539   2.150   5.028 -0.3067 -0.2722 -0.0636
  392CHOL    R1 3514   3.528   2.192   5.307 -0.0077 -0.3392 -0.0420
  392CHOL    R2 3515   3.754   2.194   5.466  0.2109  0.1343 -0.3568
  392CHOL    R3 3516   3.659   2.436   5.544 -0.2158 -0.0878 -0.1863
  392CHOL    R4 3517   3.816   2.341   5.772  0.3811  0.2589 -0.4511
  392CHOL    R5 3518   3.609   2.408   5.776  0.2326 -0.2155 -0.1040
  392CHOL    C1 3519   3.762   2.655   6.024  0.0795  0.1231 -0.3460
  392CHOL    C2 3520   3.475   2.646   6.308 -0.0262 -0.0230 -0.1827
  393XCA    COO 3521   2.950  15.939   8.309 -0.0040 -0.1265 -0.0078
  393XCA     C1 3522   2.970  15.802   7.830 -0.0099 -0.2929 -0.3636
  393XCA     C2 3523   2.974  15.680   7.473 -0.2917 -0.2029 -0.2740
  393XCA     C3 3524   3.249  16.010   7.300  0.3183 -0.1043  0.0146
  393XCA     C4 3525   3.440  16.284   7.027  0.2021 -0.4025  0.1685
  393XCA     C5 3526   3.409  16.472   6.668 -0.3313 -0.2305  0.0143
  393XCA     C6 3527   3.510  16.753   6.297  0.1519  0.1492  0.0001
  394PNCE   AM1 3528   2.227   8.301   7.760  0.0220 -0.1190  0.0431
  394PNCE   AM2 3529   2.410   7.989   7.723 -0.0934 -0.0122 -0.0223
  394PNCE   T1A 3530   1.951   8.313   7.318 -0.0798 -0.0780  0.2456
  394PNCE   C2A 3531   1.993   8.204   6.896 -0.2224  0.0451 -0.1423
  394PNCE   C3A 3532   1.803   8.112   6.516 -0.0254 -0.1070 -0.2450
  394PNCE   C1B 3533   2.596   7.977   7.410 -0.0081 -0.0403 -0.1265
  394PNCE   C2B 3534   2.928   7.910   6.996  0.0927 -0.3445  0.0839
  394PNCE   C3B 3535   2.993   7.724   6.586  0.0514 -0.1491  0.1681
  394PNCE   D4B 3536   3.302   7.928   6.367  0.2429 -0.0806  0.0964
  394PNCE   C5B 3537   3.395   8.362   6.402 -0.1119 -0.2572 -0.0298
  394PNCE   C6B 3538   3.669   8.693   6.345 -0.2367  0.1576  0.2309
  395CHOL   ROH 3539   8.925  12.014   6.711 -0.1242 -0.0560  0.1684
  395CHOL    R1 3540   8.743  11.904   6.525 -0.0992 -0.1354  0.1903
  395CHOL    R2 3541   8.793  11.901   6.253 -0.2838  0.1948  0.1521
  395CHOL    R3 3542   8.745  11.635   6.280  0.1133  0.1011 -0.0697
  395CHOL    R4 3543   8.551  11.725   6.080 -0.2890  0.0582  0.2997
  395CHOL    R5 3544   8.507  11.614   6.263  0.1159 -0.1998  0.2429
  395CHOL    C1 3545   8.366  11.372   6.004  0.0803 -0.1098  0.1781
  395CHOL    C2 3546   7.922  11.220   6.027 -0.1671 -0.3226  0.1004
  396CHOL   ROH 3547   9.941  11.462   8.460  0.2856 -0.0388  0.0045
  396CHOL    R1 3548   9.935  11.515   8.182  0.1922 -0.0696  0.0014
  396CHOL    R2 3549   9.701  11.573   8.047  0.1384 -0.1403  0.0641
  396CHOL    R3 3550   9.839  11.793   7.967  0.0618 -0.1146  0.0002
  396CHOL    R4 3551   9.643  11.747   7.754  0.0720 -0.2403  0.0184
  396CHOL    R5 3552   9.858  11.768   7.729  0.0644 -0.1726  0.0069
  396CHOL    C1 3553   9.739  12.055   7.508 -0.0394 -0.2741 -0.0691
  396CHOL    C2 3554   9.690  12.289   7.174  0.1905 -0.4427  0.1866
  397PNCE   AM1 3555  15.391   3.802   7.979 -0.1312 -0.0705 -0.1328
  397PNCE   AM2 3556  15.046   3.777   7.961 -0.0607 -0.0629  0.0717
  397PNCE   T1A 3557  15.669   3.728   7.659  0.0566 -0.1013  0.0936
  397PNCE   C2A 3558  15.665   3.662   7.227 -0.0377  0.1024 -0.1866
  397PNCE   C3A 3559  15.529   3.463   6.760 -0.1982 -0.3697  0.3926
  397PNCE   C1B 3560  14.790   3.833   7.666 -0.1545  0.0150 -0.0801
  397PNCE   C2B 3561  14.796   4.074   7.228 -0.1098  0.1462  0.0462
  397PNCE   C3B 3562  15.159   4.032   6.978  0.0928 -0.1534  0.1906
  397PNCE   D4B 3563  15.220   3.994   6.536  0.0047 -0.2505 -0.1730
  397PNCE   C5B 3564  15.420   3.576   6.262 -0.1980  0.1380 -0.0158
  397PNCE   C6B 3565  15.854   3.505   6.132 -0.0905  0.0586  0.2128
  398CHOL   ROH 3566  16.062   4.893   7.132 -0.0281  0.0621 -0.1779
  398CHOL    R1 3567  16.316   4.939   7.015 -0.0067  0.0749 -0.1290
  398CHOL    R2 3568  16.505   4.740   6.985  0.0274  0.0948 -0.0481
  398CHOL    R3 3569  16.500   4.818   6.725  0.0760  0.0444 -0.0637
  398CHOL    R4 3570  16.746   4.661   6.751  0.1671  0.2069  0.0582
  398CHOL    R5 3571  16.729   4.864   6.672  0.0668  0.1824  0.0150
  398CHOL    C1 3572  16.882   4.688   6.370  0.2940  0.2250  0.1044
  398CHOL    C2 3573  16.934   4.265   6.262 -0.1943 -0.2790  0.3120
  399CHOL   ROH 3574   8.742  11.909   5.165 -0.0128 -0.0474  0.0699
  399CHOL    R1 3575   8.979  11.856   5.311  0.1025  0.0768 -0.0730
  399CHOL    R2 3576   9.227  11.944   5.227 -0.0077  0.3012 -0.1660
  399CHOL    R3 3577   9.236  12.053   5.476  0.0365  0.2093 -0.1274
  399CHOL    R4 3578   9.517  12.019   5.398  0.0234  0.3128 -0.2222
  399CHOL    R5 3579   9.423  11.945   5.581  0.0954  0.2193 -0.2227
  399CHOL    C1 3580   9.696  12.166   5.732  0.0816  0.2340 -0.2192
  399CHOL    C2 3581   9.702  12.382   6.110  0.1221 -0.2089  0.2833
  400XCA    COO 3582  14.139   6.801   3.958 -0.0491  0.0257  0.0840
  400XCA     C1 3583  13.832   7.074   4.266  0.0952  0.3084 -0.0730
  400XCA     C2 3584  13.546   7.044   4.647  0.2242  0.1964 -0.2173
  400XCA     C3 3585  13.516   6.754   4.972  0.2533 -0.0877 -0.0183
  400XCA     C4 3586  13.182   6.514   5.292  0.0881 -0.0053  0.0738
  400XCA     C5 3587  13.141   6.290   5.794  0.0730 -0.1552  0.0162
  400XCA     C6 3588  13.066   6.245   6.233  0.0286  0.0054  0.2357
  401CHOL   ROH 3589   5.877   8.093   4.605 -0.1272  0.1125  0.2117
  401CHOL    R1 3590   6.054   8.314   4.608 -0.0172  0.0272  0.1066
  401CHOL    R2 3591   5.981   8.561   4.708  0.1193  0.0991  0.0312
  401CHOL    R3 3592   6.204   8.529   4.861  0.1274  0.0428  0.0082
  401CHOL    R4 3593   6.158   8.819   4.856  0.0589  0.0362  0.2136
  401CHOL    R5 3594   6.343   8.716   4.803  0.0834  0.1168  0.1400
  401CHOL    C1 3595   6.470   8.939   5.085  0.0312 -0.0535  0.2982
  401CHOL    C2 3596   6.530   9.188   5.419 -0.1637  0.2656  0.1652
  402CHOL   ROH 3597   1.678   2.701   8.363  0.1454  0.2008  0.1747
  402CHOL    R1 3598   1.596   2.653   8.096  0.1231  0.0888  0.2017
  402CHOL    R2 3599   1.504   2.854   7.931  0.0241  0.0040  0.1539
  402CHOL    R3 3600   1.698   2.762   7.765  0.0332  0.0250  0.1530
  402CHOL    R4 3601   1.531   2.935   7.596 -0.0298 -0.0523  0.1354
  402CHOL    R5 3602   1.586   2.728   7.556  0.0224 -0.0454  0.1705
  402CHOL    C1 3603   1.730   2.897   7.245 -0.0527 -0.0657  0.1240
  402CHOL    C2 3604   1.799   3.243   7.081  0.0601  0.2007  0.0410
  403XCA    COO 3605  12.650   7.733   3.765 -0.2116  0.1533  0.0466
  403XCA     C1 3606  12.529   7.962   4.186 -0.0295  0.3597  0.1244
  403XCA     C2 3607  12.446   7.914   4.578 -0.0206  0.3231  0.1162
  403XCA     C3 3608  12.261   8.028   4.908 -0.4055  0.0769 -0.4438
  403XCA     C4 3609  11.961   8.004   5.256 -0.2266  0.1157  0.2385
  403XCA     C5 3610  11.855   8.250   5.528  0.3772  0.2646 -0.1231
  403XCA     C6 3611  11.600   8.381   5.753 -0.1582 -0.1899  0.0947
  404XCA    COO 3612  14.200  11.370   5.136 -0.0883 -0.1246  0.3099
  404XCA     C1 3613  14.382  11.767   5.267 -0.1045  0.3759 -0.0575
  404XCA     C2 3614  14.572  11.981   5.600  0.0147 -0.3165 -0.0808
  404XCA     C3 3615  14.538  12.048   6.026 -0.0070 -0.0102 -0.0866
  404XCA     C4 3616  14.381  12.024   6.414 -0.1139 -0.4756  0.2631
  404XCA     C5 3617  14.251  11.981   6.904 -0.0265  0.1624 -0.4802
  404XCA     C6 3618  14.366  12.116   7.319  0.0760  0.1095  0.0537
  405PNCE   AM1 3619   5.578  14.982   8.112 -0.0124 -0.0228  0.1627
  405PNCE   AM2 3620   5.851  14.894   8.175 -0.0496  0.0299 -0.3538
  405PNCE   T1A 3621   5.536  15.018   7.703 -0.2221 -0.0841  0.0444
  405PNCE   C2A 3622   5.310  15.208   7.283  0.1203  0.0210  0.1187
  405PNCE   C3A 3623   5.248  15.263   6.926  0.0465  0.0362 -0.0770
  405PNCE   C1B 3624   6.012  14.738   7.904  0.1087 -0.3662  0.3834
  405PNCE   C2B 3625   6.149  14.738   7.439  0.1875  0.1207  0.0533
  405PNCE   C3B 3626   6.045  14.602   6.982 -0.0467  0.2269  0.0105
  405PNCE   D4B 3627   5.740  14.567   6.638  0.1342  0.2053 -0.1315
  405PNCE   C5B 3628   5.512  14.918   6.544 -0.1114 -0.0146 -0.1676
  405PNCE   C6B 3629   5.252  15.235   6.475 -0.0880 -0.1934 -0.5667
  406PNCE   AM1 3630   2.688   6.734   7.988  0.1584 -0.2044 -0.2105
  406PNCE   AM2 3631   2.940   6.871   7.707  0.0092  0.1474  0.0297
  406PNCE   T1A 3632   2.450   6.694   7.580 -0.0149 -0.0380  0.1040
  406PNCE   C2A 3633   2.507   6.424   7.244  0.1897  0.1549 -0.0100
  406PNCE   C3A 3634   2.560   6.274   6.763 -0.0193  0.1608 -0.0955
  406PNCE   C1B 3635   2.984   6.648   7.340 -0.0268  0.0633 -0.1286
  406PNCE   C2B 3636   2.853   6.615   6.934  0.1467 -0.1041 -0.3179
  406PNCE   C3B 3637   2.926   6.539   6.473 -0.1667 -0.1969 -0.0681
  406PNCE   D4B 3638   3.109   6.484   6.077 -0.0768 -0.2034  0.3041
  406PNCE   C5B 3639   3.397   6.754   6.075  0.0794  0.1101  0.0488
  406PNCE   C6B 3640   3.636   7.059   6.163 -0.0653  0.4118 -0.1565
  407PNCE   AM1 3641  15.530   8.571   7.391  0.1600 -0.0787  0.1369
  407PNCE   AM2 3642  15.480   8.911   7.462  0.0330 -0.3535 -0.0032
  407PNCE   T1A 3643  15.170   8.508   7.082  0.2515 -0.1957 -0.0961
  407PNCE   C2A 3644  14.929   8.311   6.773 -0.2297  0.4936  0.0039
  407PNCE   C3A 3645  14.832   8.335   6.302 -0.0838  0.4656 -0.0311
  407PNCE   C1B 3646  15.497   9.013   7.058 -0.1309 -0.1190 -0.2227
  407PNCE   C2B 3647  15.656   9.243   6.723  0.0878  0.0565  0.4460
  407PNCE   C3B 3648  15.357   9.408   6.274  0.6260 -0.1871 -0.0123
  407PNCE   D4B 3649  15.314   9.129   5.944 -0.2480 -0.0165  0.2474
  407PNCE   C5B 3650  15.524   9.243   5.504  0.0496 -0.1342 -0.1430
  407PNCE   C6B 3651  15.493   9.117   5.046 -0.0441 -0.2283 -0.0501
  408XCA    COO 3652   8.395   1.890   5.007 -0.0349  0.1317  0.1710
  408XCA     C1 3653   8.374   1.926   5.434 -0.2110 -0.0256 -0.3202
  408XCA     C2 3654   8.442   2.094   5.836 -0.2233  0.1226  0.1833
  408XCA     C3 3655   8.598   2.464   6.167  0.1470  0.3764 -0.0764
  408XCA     C4 3656   8.854   2.706   6.392  0.1255 -0.0225  0.3171
  408XCA     C5 3657   9.354   2.759   6.462  0.1648 -0.0205 -0.0252
  408XCA     C6 3658   9.730   2.412   6.340 -0.0416 -0.0492  0.2474
  409XCA    COO 3659   7.639   2.192   8.047 -0.0040 -0.2801  0.0183
  409XCA     C1 3660   7.985   2.127   7.840 -0.0727  0.0308  0.0190
  409XCA     C2 3661   8.196   1.875   7.497 -0.0654 -0.3063 -0.2055
  409XCA     C3 3662   8.079   1.565   7.220 -0.0643 -0.2022  0.1580
  409XCA     C4 3663   8.119   1.619   6.680 -0.0070  0.1878  0.1207
  409XCA     C5 3664   7.765   1.437   6.384  0.0786  0.2281  0.0188
  409XCA     C6 3665   7.320   1.219   6.203 -0.0723  0.0784 -0.4252
  410CHOL   ROH 3666   6.193  14.677   6.583 -0.1102 -0.1472 -0.0726
  410CHOL    R1 3667   6.414  14.534   6.687  0.0143 -0.1221 -0.3016
  410CHOL    R2 3668   6.654  14.514   6.553  0.0692  0.3965 -0.2818
  410CHOL    R3 3669   6.756  14.610   6.786 -0.0901  0.0409 -0.0655
  410CHOL    R4 3670   6.988  14.502   6.643  0.0384  0.4449 -0.1621
  410CHOL    R5 3671   6.926  14.452   6.846 -0.0162  0.0405 -0.2766
  410CHOL    C1 3672   7.277  14.585   6.915 -0.1289  0.1385  0.1105
  410CHOL    C2 3673   7.633  14.527   6.817  0.2058 -0.0018  0.4511
  411PNCE   AM1 3674   2.645   1.226   8.447  0.2054  0.1100  0.0665
  411PNCE   AM2 3675   2.353   1.127   8.741  0.4303 -0.1642 -0.0489
  411PNCE   T1A 3676   2.784   1.395   8.155  0.2146  0.1623  0.0274
  411PNCE   C2A 3677   3.147   1.567   7.921  0.1074  0.2796  0.0568
  411PNCE   C3A 3678   3.498   1.868   7.723 -0.0861  0.0497  0.3733
  411PNCE   C1B 3679   1.933   1.190   8.478  0.0717  0.1911 -0.1310
  411PNCE   C2B 3680   1.747   1.425   8.014  0.1253  0.3122  0.0751
  411PNCE   C3B 3681   1.495   1.578   7.597  0.0239  0.0876  0.1358
  411PNCE   D4B 3682   1.397   2.001   7.533  0.1355  0.3491  0.3765
  411PNCE   C5B 3683   1.645   2.275   7.301 -0.3420 -0.1450 -0.0024
  411PNCE   C6B 3684   1.555   2.532   6.970 -0.0239  0.1008  0.2281
  412CHOL   ROH 3685  14.112  12.908   4.764  0.2075  0.0774 -0.0088
  412CHOL    R1 3686  14.116  13.126   4.944  0.0324  0.0548  0.0231
  412CHOL    R2 3687  13.895  13.202   5.092 -0.0489 -0.1005 -0.0188
  412CHOL    R3 3688  14.067  13.176   5.301 -0.0828 -0.0262  0.0182
  412CHOL    R4 3689  13.811  13.251   5.423 -0.1059  0.0067 -0.0491
  412CHOL    R5 3690  14.002  13.351   5.452 -0.1135  0.0224 -0.0503
  412CHOL    C1 3691  13.922  13.256   5.813 -0.1710  0.1386 -0.0324
  412CHOL    C2 3692  13.807  13.262   6.145 -0.0081  0.1635 -0.3088
  413CHOL   ROH 3693  14.216  14.381   7.880  0.0728  0.1346 -0.0469
  413CHOL    R1 3694  14.048  14.373   7.652  0.0095  0.0987  0.0010
  413CHOL    R2 3695  14.011  14.591   7.487 -0.0065  0.0616 -0.0437
  413CHOL    R3 3696  14.088  14.417   7.293 -0.0835  0.0026 -0.0206
  413CHOL    R4 3697  13.871  14.573   7.171 -0.0634  0.0319 -0.0176
  413CHOL    R5 3698  13.883  14.356   7.184 -0.1168  0.0310  0.0257
  413CHOL    C1 3699  13.862  14.399   6.805 -0.1677 -0.0414  0.0200
  413CHOL    C2 3700  13.650  14.148   6.738  0.2056 -0.0922 -0.0904
  414CHOL   ROH 3701   4.403   0.108   5.492 -0.0112  0.0529  0.3661
  414CHOL    R1 3702   4.153   0.241   5.485  0.0496  0.1526  0.0713
  414CHOL    R2 3703   3.956   0.196   5.673 -0.2814  0.0502 -0.2988
  414CHOL    R3 3704   3.967   0.467   5.701 -0.2274  0.0203 -0.0290
  414CHOL    R4 3705   3.705   0.391   5.810 -0.3077 -0.0198 -0.2475
  414CHOL    R5 3706   3.743   0.540   5.656 -0.1836  0.1217 -0.0811
  414CHOL    C1 3707   3.570   0.758   5.917 -0.2721 -0.0886  0.0362
  414CHOL    C2 3708   3.572   1.150   6.026 -0.2445  0.1073 -0.0485
  415XCA    COO 3709  10.047   8.650   8.086  0.1431  0.2078  0.3344
  415XCA     C1 3710   9.966   8.603   7.607 -0.0357  0.0353 -0.1815
  415XCA     C2 3711  10.032   8.362   7.242 -0.1461 -0.2348  0.1403
  415XCA     C3 3712  10.013   8.207   6.843  0.0192  0.1395  0.0812
  415XCA     C4 3713  10.214   7.902   6.567  0.0151  0.0270  0.1532
  415XCA     C5 3714   9.984   7.533   6.360 -0.0499  0.1501  0.0691
  415XCA     C6 3715   9.825   7.116   6.392 -0.0559 -0.2423  0.0399
  416PNCE   AM1 3716   5.456   9.082   7.899  0.0684 -0.1665  0.0052
  416PNCE   AM2 3717   5.705   9.252   7.757 -0.0591 -0.2746 -0.5610
  416PNCE   T1A 3718   5.620   8.762   7.713 -0.0196  0.0992  0.0351
  416PNCE   C2A 3719   5.763   8.562   7.401  0.2179 -0.1084  0.3056
  416PNCE   C3A 3720   5.585   8.225   7.273 -0.4949 -0.0828  0.0305
  416PNCE   C1B 3721   5.781   9.275   7.338  0.1491  0.0969 -0.1422
  416PNCE   C2B 3722   5.930   9.629   7.042  0.1737 -0.0118  0.2271
  416PNCE   C3B 3723   5.831   9.902   6.827  0.0665 -0.2828  0.0122
  416PNCE   D4B 3724   5.808  10.160   6.632 -0.0135 -0.1898  0.1626
  416PNCE   C5B 3725   6.076  10.209   6.357 -0.0591 -0.2050 -0.0744
  416PNCE   C6B 3726   6.388   9.981   6.288  0.1726 -0.0499 -0.0505
  417CHOL   ROH 3727   3.230   2.366   4.558 -0.1987  0.1706 -0.1761
  417CHOL    R1 3728   3.151   2.425   4.823  0.0637  0.0917 -0.0796
  417CHOL    R2 3729   2.886   2.439   4.900  0.1365  0.2362  0.1481
  417CHOL    R3 3730   2.964   2.258   5.087  0.1686  0.0875 -0.0079
  417CHOL    R4 3731   2.760   2.421   5.221  0.1531 -0.0530  0.1392
  417CHOL    R5 3732   2.962   2.382   5.293  0.1616 -0.0867  0.0963
  417CHOL    C1 3733   2.761   2.241   5.585  0.1933 -0.3609 -0.0129
  417CHOL    C2 3734   2.624   2.258   5.987  0.1371 -0.1090  0.3702
  418CHOL   ROH 3735   4.945   7.682   5.643  0.0571  0.0617 -0.0065
  418CHOL    R1 3736   4.752   7.859   5.537  0.0002  0.0467  0.0720
  418CHOL    R2 3737   4.744   7.928   5.270  0.1116  0.3314  0.1411
  418CHOL    R3 3738   4.486   7.843   5.288  0.1572  0.1371 -0.1025
  418CHOL    R4 3739   4.494   8.004   5.043  0.1791  0.4601  0.1099
  418CHOL    R5 3740   4.357   8.029   5.211  0.0751  0.1531  0.0720
  418CHOL    C1 3741   4.107   7.969   4.929  0.2610  0.3532 -0.1366
  418CHOL    C2 3742   3.893   7.811   4.724 -0.0321 -0.1876 -0.0815
  419XCA    COO 3743   6.618  12.818   3.894 -0.0248 -0.2450 -0.1497
  419XCA     C1 3744   6.270  12.571   4.077  0.1903  0.0102  0.0427
  419XCA     C2 3745   6.041  12.144   3.911 -0.0468 -0.3577  0.0111
  419XCA     C3 3746   5.811  11.760   3.834 -0.1198 -0.0164  0.0178
  419XCA     C4 3747   5.718  11.454   4.121  0.1668 -0.0462 -0.2219
  419XCA     C5 3748   5.562  11.456   4.614 -0.0246  0.0888 -0.3131
  419XCA     C6 3749   5.456  11.431   5.030 -0.1822 -0.2741  0.0740
  420PNCE   AM1 3750  15.941   8.125   7.435 -0.0545  0.1823 -0.0107
  420PNCE   AM2 3751  15.654   7.925   7.376  0.0973  0.1757  0.0088
  420PNCE   T1A 3752  15.978   8.311   7.007  0.0671 -0.1744  0.2129
  420PNCE   C2A 3753  16.090   8.354   6.559  0.0044 -0.1986 -0.1988
  420PNCE   C3A 3754  15.881   8.294   6.159 -0.0730  0.0982  0.0368
  420PNCE   C1B 3755  15.690   7.718   7.065 -0.1721  0.2033 -0.0177
  420PNCE   C2B 3756  15.876   7.872   6.699  0.0381  0.1913 -0.0088
  420PNCE   C3B 3757  16.130   7.877   6.392  0.1565 -0.1752  0.2301
  420PNCE   D4B 3758  16.527   7.734   6.238  0.1578  0.0640  0.3475
  420PNCE   C5B 3759  16.438   7.298   6.356 -0.2027 -0.0545 -0.0395
  420PNCE   C6B 3760  16.569   6.989   6.542 -0.0889  0.0949  0.0772
  421CHOL   ROH 3761   3.597   6.002   4.299  0.0856 -0.3331 -0.0209
  421CHOL    R1 3762   3.698   6.041   4.560 -0.0912 -0.1311  0.0176
  421CHOL    R2 3763   3.563   5.958   4.786 -0.0150 -0.3941 -0.0331
  421CHOL    R3 3764   3.797   5.830   4.840  0.2153  0.0649  0.0585
  421CHOL    R4 3765   3.639   5.804   5.086  0.0173 -0.5772 -0.1352
  421CHOL    R5 3766   3.841   5.883   5.069 -0.1410 -0.1040  0.1678
  421CHOL    C1 3767   3.903   5.594   5.311  0.2524 -0.2529 -0.1088
  421CHOL    C2 3768   4.090   5.306   5.365 -0.1435  0.0219  0.0532
  422PNCE   AM1 3769  14.817  14.729   4.514  0.2329  0.1376 -0.1693
  422PNCE   AM2 3770  14.534  14.684   4.796 -0.4807 -0.0305  0.1229
  422PNCE   T1A 3771  15.065  14.997   4.905  0.1322  0.2309  0.1801
  422PNCE   C2A 3772  15.423  15.055   5.259 -0.0267  0.1756 -0.5673
  422PNCE   C3A 3773  15.716  15.241   5.537 -0.2227 -0.1594 -0.0501
  422PNCE   C1B 3774  14.662  14.465   5.059 -0.1475  0.2726  0.1264
  422PNCE   C2B 3775  15.172  14.645   5.261 -0.0849  0.2379 -0.0130
  422PNCE   C3B 3776  15.053  14.609   5.734 -0.0342  0.0721  0.1075
  422PNCE   D4B 3777  15.026  14.737   6.218 -0.0878  0.2791 -0.2687
  422PNCE   C5B 3778  14.875  15.175   6.299  0.1065 -0.2576  0.0997
  422PNCE   C6B 3779  14.907  15.614   6.127 -0.0518  0.2565 -0.1608
  423PNCE   AM1 3780  12.655  15.688   8.848  0.1150 -0.1431 -0.1622
  423PNCE   AM2 3781  12.697  15.414   8.613  0.1663 -0.3027  0.0571
  423PNCE   T1A 3782  12.207  15.358   8.763  0.1942  0.1101  0.2086
  423PNCE   C2A 3783  11.921  15.208   8.465 -0.1597 -0.1736  0.0329
  423PNCE   C3A 3784  11.395  15.053   8.576  0.1278 -0.1551 -0.1626
  423PNCE   C1B 3785  12.447  15.429   8.272  0.1017  0.2638  0.0353
  423PNCE   C2B 3786  12.422  15.455   7.780  0.0693  0.1774  0.1209
  423PNCE   C3B 3787  12.435  15.285   7.418 -0.0672  0.1510 -0.0815
  423PNCE   D4B 3788  12.682  15.476   7.059 -0.1082  0.0386  0.0739
  423PNCE   C5B 3789  13.022  15.228   6.901 -0.0903 -0.0885 -0.1209
  423PNCE   C6B 3790  13.227  15.024   6.661 -0.1348  0.2213  0.2136
  424CHOL   ROH 3791  15.229   4.338   4.374  0.1254 -0.1177  0.0508
  424CHOL    R1 3792  15.430   4.284   4.566  0.2799  0.1252 -0.0436
  424CHOL    R2 3793  15.654   4.442   4.594  0.0164  0.4984 -0.0304
  424CHOL    R3 3794  15.574   4.454   4.853  0.0790  0.2167  0.0027
  424CHOL    R4 3795  15.781   4.661   4.830 -0.1078  0.4172  0.1113
  424CHOL    R5 3796  15.775   4.499   4.976  0.0744  0.2925 -0.0179
  424CHOL    C1 3797  15.779   4.799   5.211 -0.1218  0.1061  0.2251
  424CHOL    C2 3798  15.683   5.100   5.482  0.1517 -0.0367  0.3151
  425PNCE   AM1 3799   3.388  13.179   7.612  0.2134  0.0855 -0.1416
  425PNCE   AM2 3800   3.467  13.405   7.398 -0.0400  0.1420 -0.0330
  425PNCE   T1A 3801   3.274  12.777   7.363  0.0409  0.3979  0.0824
  425PNCE   C2A 3802   3.396  12.454   7.121 -0.0195 -0.1102 -0.2657
  425PNCE   C3A 3803   3.260  12.114   6.773 -0.2035  0.0985  0.0027
  425PNCE   C1B 3804   3.281  13.210   7.072  0.0751 -0.2076  0.3064
  425PNCE   C2B 3805   3.117  13.004   6.801  0.0841  0.1429  0.1550
  425PNCE   C3B 3806   2.904  13.109   6.384 -0.0324 -0.0423  0.0671
  425PNCE   D4B 3807   2.667  13.293   6.089  0.0509  0.1482  0.2103
  425PNCE   C5B 3808   2.305  13.535   6.095  0.3134 -0.0438 -0.1630
  425PNCE   C6B 3809   2.119  13.874   6.185 -0.0651 -0.3180 -0.1484
  426PNCE   AM1 3810  15.889  11.589   8.893 -0.1975  0.2797  0.3236
  426PNCE   AM2 3811  15.689  11.394   8.672 -0.0216 -0.1118 -0.1884
  426PNCE   T1A 3812  15.841  11.951   8.593  0.1100 -0.0336 -0.0479
  426PNCE   C2A 3813  15.582  12.244   8.442  0.2349 -0.1380  0.4806
  426PNCE   C3A 3814  15.429  12.565   8.221  0.1231 -0.2802 -0.1668
  426PNCE   C1B 3815  15.575  11.485   8.207 -0.1185 -0.3278 -0.2189
  426PNCE   C2B 3816  15.732  11.624   7.683  0.0623 -0.0043 -0.0783
  426PNCE   C3B 3817  15.550  11.660   7.330 -0.0373 -0.1675  0.3093
  426PNCE   D4B 3818  15.431  11.946   7.067  0.0452  0.0602 -0.0668
  426PNCE   C5B 3819  15.280  11.824   6.565 -0.0395 -0.2162  0.0797
  426PNCE   C6B 3820  15.360  11.978   6.182  0.1617 -0.1391  0.1105
  427PNCE   AM1 3821  11.510   4.697   8.181 -0.0375  0.2372 -0.0414
  427PNCE   AM2 3822  11.835   4.451   8.137  0.2779  0.0244  0.0523
  427PNCE   T1A 3823  11.347   4.905   7.751 -0.0217 -0.3020 -0.3051
  427PNCE   C2A 3824  11.098   4.872   7.389  0.0526 -0.0999 -0.2655
  427PNCE   C3A 3825  10.923   4.474   7.176  0.0554 -0.2127  0.2962
  427PNCE   C1B 3826  11.765   4.687   7.623 -0.3298 -0.0146 -0.2435
  427PNCE   C2B 3827  11.535   4.671   7.315 -0.1076 -0.0852  0.2291
  427PNCE   C3B 3828  11.292   4.700   6.951  0.3400  0.2737 -0.2559
  427PNCE   D4B 3829  10.907   4.585   6.685 -0.1823  0.2246  0.0890
  427PNCE   C5B 3830  10.696   4.914   6.451 -0.1332  0.2517 -0.0133
  427PNCE   C6B 3831  10.384   4.946   6.164 -0.0615 -0.1094  0.0258
  428PNCE   AM1 3832   3.207  12.221   7.772  0.0392 -0.1624  0.0241
  428PNCE   AM2 3833   3.095  11.987   8.020  0.2098 -0.0626 -0.0582
  428PNCE   T1A 3834   2.974  12.299   7.405  0.4296  0.2474 -0.1585
  428PNCE   C2A 3835   2.927  12.518   6.932  0.0426 -0.0253  0.2602
  428PNCE   C3A 3836   2.981  12.595   6.507  0.1839 -0.1623  0.0758
  428PNCE   C1B 3837   2.670  11.883   7.730  0.0158  0.3014 -0.0746
  428PNCE   C2B 3838   2.352  11.819   7.394  0.2698  0.0630  0.0286
  428PNCE   C3B 3839   2.354  11.523   7.109 -0.0473  0.2229  0.1333
  428PNCE   D4B 3840   2.175  11.446   6.775  0.0998 -0.1738  0.0075
  428PNCE   C5B 3841   2.040  11.642   6.295 -0.2860  0.0503  0.0110
  428PNCE   C6B 3842   1.573  11.808   6.217 -0.1256 -0.0578 -0.0945
  429CHOL   ROH 3843   2.174   9.249   4.065 -0.3553  0.2883 -0.1637
  429CHOL    R1 3844   2.262   9.327   4.323 -0.3418  0.1845 -0.1371
  429CHOL    R2 3845   2.466   9.508   4.362 -0.1372 -0.0581 -0.0751
  429CHOL    R3 3846   2.280   9.636   4.514 -0.0321  0.1637 -0.1325
  429CHOL    R4 3847   2.532   9.669   4.661 -0.0893 -0.3872  0.0908
  429CHOL    R5 3848   2.346   9.588   4.740 -0.2949 -0.1121 -0.1137
  429CHOL    C1 3849   2.397   9.882   4.978  0.0373 -0.3699  0.1347
  429CHOL    C2 3850   2.164   9.918   5.370  0.2462  0.1991  0.0831
  430PNCE   AM1 3851   5.871  12.413   7.713 -0.2076 -0.0750 -0.0213
  430PNCE   AM2 3852   5.883  12.488   7.992 -0.1369  0.1337 -0.1447
  430PNCE   T1A 3853   6.187  12.531   7.390  0.0482  0.2579 -0.0206
  430PNCE   C2A 3854   6.473  12.654   7.131 -0.0265 -0.0260 -0.1350
  430PNCE   C3A 3855   6.831  12.943   7.022 -0.1045  0.0210 -0.0651
  430PNCE   C1B 3856   5.961  12.934   7.716  0.0920  0.0786 -0.3497
  430PNCE   C2B 3857   5.758  13.144   7.420  0.2151 -0.1790  0.0063
  430PNCE   C3B 3858   5.716  13.391   6.990  0.1225  0.2138  0.0425
  430PNCE   D4B 3859   6.025  13.548   6.705  0.4238 -0.2621  0.0418
  430PNCE   C5B 3860   6.043  13.247   6.416 -0.0726  0.1949  0.2231
  430PNCE   C6B 3861   6.421  13.215   6.286  0.1904  0.1369  0.2190
  431PNCE   AM1 3862  11.480   7.704   7.409 -0.1949  0.1891 -0.0877
  431PNCE   AM2 3863  11.306   7.587   7.658 -0.1109  0.0892 -0.0048
  431PNCE   T1A 3864  11.457   7.817   7.096 -0.1499  0.3638  0.0132
  431PNCE   C2A 3865  11.315   7.873   6.764 -0.1561 -0.4112  0.1849
  431PNCE   C3A 3866  11.002   7.675   6.467 -0.3263  0.2723 -0.0912
  431PNCE   C1B 3867  10.928   7.690   7.352 -0.4614  0.1368  0.2016
  431PNCE   C2B 3868  10.782   7.594   6.919 -0.0734 -0.3392 -0.0323
  431PNCE   C3B 3869  10.444   7.463   6.745 -0.0145  0.1664 -0.1305
  431PNCE   D4B 3870  10.217   7.131   6.701  0.0731  0.0309  0.1090
  431PNCE   C5B 3871  10.483   6.784   6.546  0.1083 -0.0041  0.1818
  431PNCE   C6B 3872  10.364   6.338   6.663  0.2833 -0.1659 -0.2090
  432XCA    COO 3873   7.366  15.744   5.040  0.1935  0.0931  0.2504
  432XCA     C1 3874   7.165  15.544   5.322  0.1087 -0.0644  0.2091
  432XCA     C2 3875   7.249  15.213   5.613  0.4621  0.0936  0.2332
  432XCA     C3 3876   7.050  14.990   5.837  0.0402  0.0297  0.2282
  432XCA     C4 3877   6.921  14.617   6.008  0.1243  0.1866 -0.0929
  432XCA     C5 3878   7.224  14.373   6.221  0.1959  0.1127 -0.1567
  432XCA     C6 3879   7.400  14.248   6.501 -0.2713 -0.2820  0.2724
  433XCA    COO 3880   3.495  10.391   3.397 -0.3548 -0.2520  0.0452
  433XCA     C1 3881   3.467  10.148   3.809 -0.2429  0.2996  0.0021
  433XCA     C2 3882   3.477  10.124   4.168 -0.2931 -0.0042 -0.2650
  433XCA     C3 3883   3.767  10.297   4.532  0.2983  0.0706  0.0272
  433XCA     C4 3884   3.894  10.289   4.929  0.0545 -0.0004 -0.0918
  433XCA     C5 3885   4.223   9.876   5.031 -0.4237  0.0444 -0.0267
  433XCA     C6 3886   4.367   9.444   5.017 -0.1166 -0.1132 -0.1472
  434CHOL   ROH 3887  14.979   5.830   6.609  0.1114 -0.0380 -0.1265
  434CHOL    R1 3888  15.197   5.918   6.452 -0.0072  0.1070 -0.2096
  434CHOL    R2 3889  15.188   6.149   6.302 -0.0720  0.3147  0.1149
  434CHOL    R3 3890  15.414   6.209   6.440  0.0760  0.0532 -0.0132
  434CHOL    R4 3891  15.439   6.359   6.189 -0.1202  0.4051  0.1767
  434CHOL    R5 3892  15.585   6.220   6.273 -0.0792  0.2439 -0.1595
  434CHOL    C1 3893  15.797   6.537   6.254 -0.0088  0.2120  0.0923
  434CHOL    C2 3894  15.918   6.702   5.814  0.0394  0.0172  0.0845
  435CHOL   ROH 3895  12.260  14.442   8.470  0.1812 -0.0648 -0.1262
  435CHOL    R1 3896  12.287  14.710   8.383 -0.1421  0.0196  0.0324
  435CHOL    R2 3897  12.322  14.778   8.118 -0.0312  0.2073  0.0946
  435CHOL    R3 3898  12.106  14.936   8.163 -0.2993 -0.1318  0.0069
  435CHOL    R4 3899  12.200  15.013   7.896  0.1097  0.5031  0.3304
  435CHOL    R5 3900  12.165  15.147   8.065 -0.3591  0.1311  0.5302
  435CHOL    C1 3901  11.926  15.299   7.809 -0.0607  0.3574  0.3847
  435CHOL    C2 3902  11.841  15.599   7.630  0.0770 -0.1755 -0.1720
  436XCA    COO 3903  15.452   3.259   8.118 -0.1537  0.1077 -0.2020
  436XCA     C1 3904  15.848   3.386   7.978  0.0333 -0.2068  0.2994
  436XCA     C2 3905  16.037   3.245   7.596  0.1898  0.0111 -0.5416
  436XCA     C3 3906  16.241   3.227   7.221 -0.1899  0.1353  0.0213
  436XCA     C4 3907  16.539   3.173   6.837 -0.3460 -0.0380  0.4658
  436XCA     C5 3908  16.864   3.202   6.787  0.2621 -0.1589 -0.0795
  436XCA     C6 3909  17.269   3.087   6.758  0.0072 -0.0824 -0.2385
  437CHOL   ROH 3910  10.944   9.734   4.051 -0.0439  0.0568  0.0014
  437CHOL    R1 3911  10.978   9.800   4.324  0.0324  0.0076  0.0043
  437CHOL    R2 3912  11.094  10.037   4.406 -0.0666  0.0521  0.0161
  437CHOL    R3 3913  10.864  10.063   4.548 -0.0226 -0.1134  0.1181
  437CHOL    R4 3914  11.076  10.154   4.731 -0.0048  0.0176  0.0317
  437CHOL    R5 3915  10.925  10.001   4.772  0.1173 -0.0863  0.0877
  437CHOL    C1 3916  10.849  10.246   5.054  0.0738 -0.1566  0.1370
  437CHOL    C2 3917  11.140  10.288   5.272  0.3114  0.3369 -0.0498
  438PNCE   AM1 3918   9.186   7.145   7.843  0.0690 -0.0778 -0.0523
  438PNCE   AM2 3919   8.965   7.191   7.975 -0.0695 -0.0811 -0.2838
  438PNCE   T1A 3920   9.508   7.337   7.511 -0.1157  0.1596  0.3105
  438PNCE   C2A 3921   9.508   7.534   7.277 -0.2810 -0.1232  0.1601
  438PNCE   C3A 3922   9.318   7.735   6.930 -0.1393  0.2430  0.2290
  438PNCE   C1B 3923   8.669   7.374   7.798  0.1808 -0.0381  0.2093
  438PNCE   C2B 3924   8.428   7.320   7.395  0.1016  0.0427  0.0701
  438PNCE   C3B 3925   8.365   7.691   7.123 -0.3090 -0.0557 -0.1350
  438PNCE   D4B 3926   8.200   7.990   6.799  0.1497  0.3040  0.0811
  438PNCE   C5B 3927   8.359   8.248   6.508  0.1583  0.1339 -0.3271
  438PNCE   C6B 3928   8.551   8.130   6.154 -0.0129  0.1860  0.1159
  439XCA    COO 3929  14.955  11.401   8.048  0.2371  0.1450  0.2180
  439XCA     C1 3930  15.222  11.615   7.783  0.0017 -0.1620  0.1434
  439XCA     C2 3931  15.150  12.000   7.532  0.2441 -0.0212 -0.1190
  439XCA     C3 3932  15.289  12.387   7.293  0.0374 -0.2176  0.0056
  439XCA     C4 3933  15.483  12.643   7.053 -0.1153  0.1106  0.0640
  439XCA     C5 3934  15.832  12.779   6.858 -0.0310 -0.0456  0.0791
  439XCA     C6 3935  15.962  13.140   6.580 -0.1861  0.2573  0.0064
  440CHOL   ROH 3936   6.768   2.354   5.274 -0.1155  0.1146 -0.0061
  440CHOL    R1 3937   6.723   2.263   5.538 -0.2260  0.0994 -0.0300
  440CHOL    R2 3938   6.485   2.148   5.617 -0.1398 -0.2092 -0.2203
  440CHOL    R3 3939   6.647   1.946   5.700  0.0611  0.0246 -0.0418
  440CHOL    R4 3940   6.443   1.968   5.909 -0.1462 -0.2050 -0.2186
  440CHOL    R5 3941   6.659   1.973   5.937 -0.1755  0.0900 -0.0374
  440CHOL    C1 3942   6.571   1.674   6.157  0.0393  0.0169 -0.0500
  440CHOL    C2 3943   6.424   1.299   6.269 -0.3279  0.0812  0.0198
  441CHOL   ROH 3944  11.914   5.372   7.826  0.3465  0.2499  0.2250
  441CHOL    R1 3945  12.018   5.569   7.651 -0.0257  0.3119  0.0732
  441CHOL    R2 3946  12.186   5.507   7.440  0.2200  0.4851  0.2178
  441CHOL    R3 3947  12.000   5.641   7.294 -0.0233 -0.0955 -0.0105
  441CHOL    R4 3948  12.241   5.640   7.126  0.1464  0.5310  0.2246
  441CHOL    R5 3949  12.125   5.815   7.186 -0.4125  0.2224  0.0503
  441CHOL    C1 3950  12.099   5.844   6.806 -0.1261  0.0123  0.0136
  441CHOL    C2 3951  11.978   5.782   6.452  0.5117  0.0303  0.0001
  442CHOL   ROH 3952  11.345   0.387   4.669 -0.2476  0.1246  0.2006
  442CHOL    R1 3953  11.450   0.535   4.886 -0.1616  0.0949  0.1793
  442CHOL    R2 3954  11.362   0.501   5.145 -0.0174  0.0190  0.2180
  442CHOL    R3 3955  11.626   0.461   5.196  0.0168  0.0579  0.0691
  442CHOL    R4 3956  11.499   0.462   5.460  0.1326 -0.2012  0.1256
  442CHOL    R5 3957  11.668   0.585   5.397  0.0663 -0.0971  0.1543
  442CHOL    C1 3958  11.827   0.402   5.691  0.2512 -0.2930 -0.0679
  442CHOL    C2 3959  12.071   0.351   5.933 -0.0454 -0.2412  0.3276
  443CHOL   ROH 3960  11.109  12.913   5.247 -0.1448  0.0483  0.0809
  443CHOL    R1 3961  11.028  12.959   5.514 -0.1211 -0.0310  0.1018
  443CHOL    R2 3962  10.960  12.754   5.686  0.0367 -0.0924  0.0919
  443CHOL    R3 3963  11.148  12.869   5.846 -0.0012  0.0031  0.0683
  443CHOL    R4 3964  11.010  12.675   6.018  0.1898 -0.1431  0.0565
  443CHOL    R5 3965  11.040  12.888   6.059  0.0453 -0.1311  0.1040
  443CHOL    C1 3966  11.216  12.737   6.362  0.2429 -0.0828  0.0143
  443CHOL    C2 3967  11.333  12.643   6.725  0.0883  0.3663  0.0317
  444CHOL   ROH 3968   2.281   9.765   7.044 -0.1538 -0.2683  0.3364
  444CHOL    R1 3969   2.311   9.565   6.845 -0.0993 -0.2213  0.2971
  444CHOL    R2 3970   2.490   9.588   6.637 -0.2847 -0.0171  0.1599
  444CHOL    R3 3971   2.577   9.347   6.727  0.0364  0.0655  0.0724
  444CHOL    R4 3972   2.543   9.310   6.438 -0.1229  0.0625  0.0916
  444CHOL    R5 3973   2.456   9.187   6.596  0.1174 -0.0491  0.1373
  444CHOL    C1 3974   2.656   8.922   6.408  0.2727  0.1865 -0.0304
  444CHOL    C2 3975   2.640   8.591   6.147 -0.2985  0.3052 -0.0281
  445CHOL   ROH 3976  13.878  12.102   5.018  0.0282 -0.0771  0.0355
  445CHOL    R1 3977  13.847  12.105   5.299  0.0739 -0.1583  0.0415
  445CHOL    R2 3978  14.028  11.984   5.470  0.2063 -0.0397 -0.0132
  445CHOL    R3 3979  14.035  12.231   5.584  0.0173 -0.0558  0.0335
  445CHOL    R4 3980  14.102  12.046   5.802  0.1593 -0.0467 -0.0017
  445CHOL    R5 3981  13.945  12.197   5.804  0.0424 -0.1669  0.0272
  445CHOL    C1 3982  14.152  12.313   6.103 -0.0454 -0.0659  0.0489
  445CHOL    C2 3983  14.076  12.450   6.433  0.2414  0.0526  0.2417
  446XCA    COO 3984   7.302   4.476   7.922  0.0569  0.2097  0.0180
  446XCA     C1 3985   7.471   4.448   7.514  0.3952 -0.0495 -0.0272
  446XCA     C2 3986   7.736   4.514   7.193  0.1186  0.0714 -0.3236
  446XCA     C3 3987   8.015   4.639   6.923  0.3389 -0.0349  0.2576
  446XCA     C4 3988   8.299   4.506   6.633 -0.1547  0.2441 -0.1804
  446XCA     C5 3989   8.522   4.255   6.413 -0.2236  0.0898  0.2014
  446XCA     C6 3990   8.917   4.165   6.282 -0.0835 -0.1571 -0.0024
  447PNCE   AM1 3991   5.870  11.643   7.273 -0.1787  0.0915  0.1615
  447PNCE   AM2 3992   6.223  11.785   7.474 -0.0365 -0.1555 -0.2128
  447PNCE   T1A 3993   6.189  11.617   6.892 -0.2049  0.2485  0.0570
  447PNCE   C2A 3994   6.415  11.843   6.544 -0.1325 -0.2207 -0.1627
  447PNCE   C3A 3995   6.229  11.737   6.104 -0.0593 -0.0347 -0.2679
  447PNCE   C1B 3996   6.519  11.572   7.255 -0.1243 -0.0233 -0.1249
  447PNCE   C2B 3997   6.682  11.527   6.901 -0.0760 -0.1916 -0.0969
  447PNCE   C3B 3998   6.471  11.349   6.451 -0.1448  0.0558 -0.4266
  447PNCE   D4B 3999   6.332  11.255   6.010 -0.0293 -0.1197 -0.0178
  447PNCE   C5B 4000   6.560  11.438   5.733 -0.0822 -0.2323  0.7100
  447PNCE   C6B 4001   6.791  11.474   5.418 -0.1061  0.0929 -0.1376
  448PNCE   AM1 4002   5.990   5.265   7.562  0.1595 -0.1533 -0.2300
  448PNCE   AM2 4003   5.688   5.365   7.315 -0.0074  0.0343 -0.0208
  448PNCE   T1A 4004   5.786   4.888   7.481 -0.2065 -0.0883  0.2947
  448PNCE   C2A 4005   5.868   4.459   7.292  0.0223 -0.2839 -0.0518
  448PNCE   C3A 4006   6.010   3.985   7.273 -0.1764 -0.2272  0.2380
  448PNCE   C1B 4007   5.813   5.002   7.030  0.3055  0.1805  0.0822
  448PNCE   C2B 4008   5.789   4.630   6.736 -0.0982  0.0817  0.0797
  448PNCE   C3B 4009   5.778   4.218   6.880  0.1444  0.0774  0.2659
  448PNCE   D4B 4010   5.479   3.869   6.746  0.2474 -0.2625  0.2374
  448PNCE   C5B 4011   5.216   3.621   6.794 -0.1796  0.1068 -0.3469
  448PNCE   C6B 4012   5.196   3.317   6.490  0.2883  0.0352 -0.2323
  449CHOL   ROH 4013   8.259  13.786   7.299  0.1263  0.1299 -0.0393
  449CHOL    R1 4014   8.202  13.606   7.088  0.0877 -0.0038  0.0856
  449CHOL    R2 4015   8.160  13.690   6.829  0.0119 -0.1668  0.0458
  449CHOL    R3 4016   8.356  13.511   6.773  0.0140 -0.1821  0.1034
  449CHOL    R4 4017   8.212  13.544   6.520 -0.0825 -0.3839  0.1318
  449CHOL    R5 4018   8.254  13.355   6.621 -0.0215 -0.3052  0.2525
  449CHOL    C1 4019   8.427  13.290   6.288 -0.1351 -0.5237  0.2364
  449CHOL    C2 4020   8.784  13.080   6.237  0.1493  0.0400  0.0183
  450PNCE   AM1 4021  12.488  13.057   4.813  0.3611 -0.1455  0.0717
  450PNCE   AM2 4022  12.190  13.209   4.971 -0.0931 -0.0563  0.3271
  450PNCE   T1A 4023  12.484  12.791   5.197  0.1718  0.1437 -0.0393
  450PNCE   C2A 4024  12.421  12.415   5.527 -0.2613  0.0941 -0.0656
  450PNCE   C3A 4025  12.492  12.149   5.898 -0.1137 -0.0758  0.1036
  450PNCE   C1B 4026  12.295  13.234   5.405 -0.0356 -0.1212 -0.0576
  450PNCE   C2B 4027  12.338  12.869   5.721  0.1140  0.1528 -0.1999
  450PNCE   C3B 4028  12.450  12.635   6.103  0.0945 -0.1067  0.0663
  450PNCE   D4B 4029  12.134  12.669   6.413 -0.0782  0.2414 -0.0963
  450PNCE   C5B 4030  11.988  12.568   6.752 -0.2556  0.3048 -0.2487
  450PNCE   C6B 4031  11.681  12.861   7.012 -0.2232  0.2229 -0.1206
  451PNCE   AM1 4032  10.484   2.863   8.141  0.3551  0.1070  0.1644
  451PNCE   AM2 4033  10.819   2.988   8.024 -0.3507 -0.1221 -0.0897
  451PNCE   T1A 4034  10.071   3.116   8.191 -0.0320 -0.0584 -0.0453
  451PNCE   C2A 4035   9.643   3.342   8.179  0.2488  0.0910  0.2028
  451PNCE   C3A 4036   9.504   3.307   7.807 -0.0211  0.0843 -0.2629
  451PNCE   C1B 4037  11.134   3.245   7.845  0.1624 -0.0839  0.3310
  451PNCE   C2B 4038  11.324   3.352   7.454 -0.2392 -0.0235 -0.3570
  451PNCE   C3B 4039  11.318   3.299   6.992 -0.1537 -0.0133 -0.2213
  451PNCE   D4B 4040  11.159   3.632   6.693  0.1286 -0.1451  0.1406
  451PNCE   C5B 4041  10.784   3.762   6.808  0.1869 -0.4758 -0.2068
  451PNCE   C6B 4042  10.640   3.957   7.196  0.1853 -0.0962 -0.1849
  452PNCE   AM1 4043   6.124   9.873   7.752  0.2336 -0.2451  0.0964
  452PNCE   AM2 4044   6.126   9.532   7.939 -0.0255  0.0512 -0.1363
  452PNCE   T1A 4045   5.735   9.801   7.621 -0.0779 -0.1694  0.0777
  452PNCE   C2A 4046   5.457   9.615   7.326 -0.1093 -0.0799 -0.1165
  452PNCE   C3A 4047   5.341   9.812   6.918 -0.1839 -0.0917  0.0876
  452PNCE   C1B 4048   6.264   9.467   7.514  0.1053 -0.1383 -0.2738
  452PNCE   C2B 4049   6.376   9.776   7.147  0.2537  0.3217  0.2376
  452PNCE   C3B 4050   6.430   9.595   6.746 -0.0277 -0.3379 -0.2658
  452PNCE   D4B 4051   6.352   9.233   6.421  0.0774 -0.0210  0.0298
  452PNCE   C5B 4052   5.977   9.223   6.189 -0.1046  0.2521 -0.2696
  452PNCE   C6B 4053   5.536   9.173   6.191  0.0114 -0.0059  0.0302
  453PNCE   AM1 4054   8.753   0.544   8.737 -0.1058 -0.5328  0.1104
  453PNCE   AM2 4055   8.541   0.661   8.522 -0.0812 -0.4025 -0.1490
  453PNCE   T1A 4056   8.762   0.105   8.581  0.2185  0.0416 -0.1320
  453PNCE   C2A 4057   8.733  -0.204   8.301  0.2007  0.0722  0.0377
  453PNCE   C3A 4058   8.858  -0.563   8.033 -0.1855  0.0367 -0.0571
  453PNCE   C1B 4059   8.705   0.510   8.262 -0.0245  0.2782 -0.4841
  453PNCE   C2B 4060   8.575   0.226   8.041  0.0320 -0.0211 -0.3097
  453PNCE   C3B 4061   8.555  -0.206   7.788 -0.1565 -0.0577 -0.0158
  453PNCE   D4B 4062   8.489  -0.697   7.754 -0.5567 -0.0998 -0.1738
  453PNCE   C5B 4063   8.513  -0.863   7.356  0.0670 -0.1155 -0.0590
  453PNCE   C6B 4064   8.870  -0.923   7.198  0.0696 -0.0937  0.0725
  454CHOL   ROH 4065  11.236  10.158   7.524 -0.0418 -0.1730 -0.0286
  454CHOL    R1 4066  11.344  10.270   7.287 -0.0477 -0.0935  0.0057
  454CHOL    R2 4067  11.614  10.311   7.251 -0.0328 -0.2452 -0.0565
  454CHOL    R3 4068  11.574  10.164   7.026 -0.2004 -0.0788 -0.1352
  454CHOL    R4 4069  11.804  10.335   6.963 -0.0467 -0.2599 -0.0670
  454CHOL    R5 4070  11.620  10.316   6.847 -0.0792 -0.0210 -0.0548
  454CHOL    C1 4071  11.877  10.211   6.584 -0.2118 -0.1131 -0.1469
  454CHOL    C2 4072  11.744  10.174   6.262 -0.1288  0.0396  0.0836
  455PNCE   AM1 4073  15.538  15.545   8.800  0.0500 -0.1137 -0.3690
  455PNCE   AM2 4074  15.729  15.359   8.796 -0.4375 -0.0956 -0.0801
  455PNCE   T1A 4075  15.390  15.587   8.329  0.1479  0.0324  0.0517
  455PNCE   C2A 4076  15.419  15.485   7.881 -0.2790  0.0907 -0.1511
  455PNCE   C3A 4077  15.737  15.170   7.532 -0.1229  0.0227 -0.0472
  455PNCE   C1B 4078  15.862  15.460   8.338 -0.1713  0.0559 -0.2087
  455PNCE   C2B 4079  16.045  15.372   7.921 -0.1066  0.1678  0.0232
  455PNCE   C3B 4080  16.314  15.263   7.566 -0.2435 -0.3666 -0.0094
  455PNCE   D4B 4081  16.609  15.290   7.320  0.1500  0.1607 -0.1336
  455PNCE   C5B 4082  17.049  15.049   7.415  0.2330 -0.2775  0.0770
  455PNCE   C6B 4083  17.284  14.712   7.530 -0.0197 -0.1557  0.1524
  456PNCE   AM1 4084  15.188  10.703   8.154 -0.1696  0.3848 -0.1286
  456PNCE   AM2 4085  15.092  10.522   7.979 -0.0746  0.1157 -0.4144
  456PNCE   T1A 4086  15.323  11.076   7.921 -0.1391  0.1806  0.1140
  456PNCE   C2A 4087  15.572  11.138   7.535 -0.1888 -0.1801  0.1129
  456PNCE   C3A 4088  15.820  11.296   7.313  0.1162  0.1004  0.1226
  456PNCE   C1B 4089  15.194  10.701   7.552  0.1448  0.0925  0.0179
  456PNCE   C2B 4090  15.068  10.848   7.177  0.0362 -0.1661 -0.1839
  456PNCE   C3B 4091  14.793  10.601   7.013  0.0289 -0.0013 -0.0524
  456PNCE   D4B 4092  14.698  10.502   6.630 -0.0653 -0.0564  0.2177
  456PNCE   C5B 4093  14.672  10.648   6.288 -0.1045 -0.3654  0.0637
  456PNCE   C6B 4094  14.723  10.756   5.908  0.2327  0.1297  0.2749
  457PNCE   AM1 4095   6.279   4.755   7.576  0.1014  0.0659 -0.0305
  457PNCE   AM2 4096   6.453   5.077   7.751 -0.1296  0.1715  0.0741
  457PNCE   T1A 4097   6.276   4.665   7.186 -0.2080  0.2198  0.1922
  457PNCE   C2A 4098   6.295   4.406   6.746 -0.0402 -0.0791 -0.3754
  457PNCE   C3A 4099   6.342   4.390   6.310 -0.0138  0.0910  0.1351
  457PNCE   C1B 4100   6.383   5.126   7.233  0.1021  0.1722  0.2114
  457PNCE   C2B 4101   6.364   4.948   6.802 -0.1741 -0.2275 -0.0711
  457PNCE   C3B 4102   6.226   4.836   6.385 -0.0486  0.1062 -0.1033
  457PNCE   D4B 4103   5.969   4.577   6.055 -0.0716 -0.2759 -0.1112
  457PNCE   C5B 4104   5.471   4.528   6.069 -0.1385 -0.0138  0.0134
  457PNCE   C6B 4105   5.123   4.741   6.325  0.1941 -0.2754 -0.1416
  458PNCE   AM1 4106  13.637  13.533   8.591  0.1115  0.1285 -0.0356
  458PNCE   AM2 4107  13.360  13.413   8.574  0.1947 -0.1556 -0.0662
  458PNCE   T1A 4108  13.598  13.325   8.194 -0.1805  0.3151 -0.0710
  458PNCE   C2A 4109  13.747  12.911   8.002  0.0058 -0.1314  0.1170
  458PNCE   C3A 4110  13.883  12.607   7.932  0.0782 -0.2355 -0.2194
  458PNCE   C1B 4111  13.196  13.758   8.414 -0.1001  0.0168  0.1426
  458PNCE   C2B 4112  13.388  14.141   8.306  0.4773  0.0099 -0.0061
  458PNCE   C3B 4113  13.412  14.594   8.318  0.1958  0.0095 -0.4223
  458PNCE   D4B 4114  13.695  14.898   8.183 -0.1133 -0.0794  0.1208
  458PNCE   C5B 4115  13.706  14.908   7.727  0.2232  0.0510  0.3025
  458PNCE   C6B 4116  13.768  14.978   7.364  0.2084 -0.2056  0.1187
  459XCA    COO 4117   4.816   1.725   8.391  0.0286 -0.0664 -0.0681
  459XCA     C1 4118   4.753   1.488   7.991  0.1969 -0.0044 -0.3066
  459XCA     C2 4119   5.030   1.625   7.672  0.2569 -0.1267  0.0992
  459XCA     C3 4120   5.409   1.437   7.423  0.2106  0.0423 -0.3902
  459XCA     C4 4121   5.781   1.444   7.117  0.1378 -0.1927 -0.2395
  459XCA     C5 4122   5.906   1.425   6.666  0.0464  0.0992  0.1200
  459XCA     C6 4123   5.893   1.282   6.256 -0.1852  0.1074 -0.2442
  460CHOL   ROH 4124   7.632   7.153   7.554  0.0750 -0.0636  0.0981
  460CHOL    R1 4125   7.728   7.360   7.385  0.1681 -0.1121  0.0911
  460CHOL    R2 4126   7.908   7.314   7.181  0.0650 -0.2173  0.0238
  460CHOL    R3 4127   7.718   7.437   7.030  0.1023 -0.0603  0.1040
  460CHOL    R4 4128   7.968   7.473   6.880  0.0803 -0.2100  0.0308
  460CHOL    R5 4129   7.829   7.630   6.941  0.2089 -0.1230  0.1004
  460CHOL    C1 4130   7.826   7.681   6.563  0.1246 -0.0583  0.1098
  460CHOL    C2 4131   8.328   7.703   6.373 -0.0022 -0.3393  0.0340
  461CHOL   ROH 4132  12.894   4.113   4.317  0.2645 -0.0355  0.3812
  461CHOL    R1 4133  12.688   4.217   4.480  0.1678 -0.0546  0.2699
  461CHOL    R2 4134  12.459   4.074   4.540  0.1475 -0.0750  0.1458
  461CHOL    R3 4135  12.530   4.129   4.796  0.0040 -0.0691  0.1847
  461CHOL    R4 4136  12.255   4.029   4.815 -0.0305 -0.0041  0.0257
  461CHOL    R5 4137  12.331   4.217   4.896 -0.0358 -0.0148  0.0558
  461CHOL    C1 4138  12.203   4.055   5.216 -0.2683  0.0418 -0.0080
  461CHOL    C2 4139  12.030   4.229   5.540 -0.1851  0.1695 -0.1100
  462CHOL   ROH 4140   4.128  14.280   6.526 -0.1077 -0.0684 -0.0239
  462CHOL    R1 4141   3.994  14.482   6.380 -0.1661  0.0882  0.2451
  462CHOL    R2 4142   3.903  14.715   6.497  0.3285  0.1895  0.4300
  462CHOL    R3 4143   4.050  14.833   6.301  0.0767  0.0273  0.1442
  462CHOL    R4 4144   3.782  14.950   6.274  0.1006  0.1740  0.5369
  462CHOL    R5 4145   3.898  14.852   6.117 -0.2130  0.0453  0.3850
  462CHOL    C1 4146   3.849  15.197   5.960 -0.2683  0.0125  0.3314
  462CHOL    C2 4147   3.569  15.338   5.649  0.1063 -0.1178  0.2436
  463CHOL   ROH 4148   8.892   9.515   7.813 -0.0304 -0.2789  0.0156
  463CHOL    R1 4149   8.837   9.261   7.700 -0.0567 -0.2260 -0.0892
  463CHOL    R2 4150   8.607   9.210   7.556 -0.1166 -0.1730 -0.0141
  463CHOL    R3 4151   8.783   9.127   7.367 -0.1927 -0.0612 -0.1344
  463CHOL    R4 4152   8.522   9.027   7.275 -0.2332  0.0172 -0.1030
  463CHOL    R5 4153   8.704   8.909   7.304 -0.2308 -0.0138 -0.2480
  463CHOL    C1 4154   8.639   8.843   6.934 -0.3719  0.2330 -0.2676
  463CHOL    C2 4155   8.726   8.465   6.832  0.2089  0.0818 -0.0921
  464CHOL   ROH 4156  14.779  10.732   4.683  0.1598 -0.1271 -0.0738
  464CHOL    R1 4157  14.640  10.699   4.928  0.1044 -0.1078 -0.1020
  464CHOL    R2 4158  14.570  10.451   5.026  0.0975 -0.1018 -0.0902
  464CHOL    R3 4159  14.703  10.536   5.247  0.0409 -0.0675 -0.0691
  464CHOL    R4 4160  14.619  10.263   5.312 -0.0196 -0.0396 -0.0296
  464CHOL    R5 4161  14.581  10.442   5.431 -0.0305 -0.0057 -0.0842
  464CHOL    C1 4162  14.773  10.234   5.686 -0.1410  0.0278  0.0262
  464CHOL    C2 4163  15.054  10.226   5.920  0.0140  0.0439 -0.0235
  465XCA    COO 4164  14.635   6.977   3.823  0.2052  0.1853  0.0170
  465XCA     C1 4165  14.684   7.310   4.175  0.1620  0.2236 -0.0411
  465XCA     C2 4166  14.825   7.425   4.566  0.0842  0.5731 -0.0109
  465XCA     C3 4167  14.843   7.695   4.904 -0.2910 -0.1424  0.0991
  465XCA     C4 4168  14.712   7.930   5.242 -0.2271 -0.1418  0.0719
  465XCA     C5 4169  14.786   8.138   5.505 -0.0628 -0.1079  0.1073
  465XCA     C6 4170  14.772   8.552   5.877 -0.0554 -0.0727 -0.4250
  466PNCE   AM1 4171  11.356  13.257   8.059  0.1667  0.4433  0.0533
  466PNCE   AM2 4172  11.499  13.499   8.117  0.1581 -0.0327  0.1889
  466PNCE   T1A 4173  11.176  13.138   7.607 -0.0473 -0.0679  0.1413
  466PNCE   C2A 4174  11.225  12.820   7.277  0.2348  0.0643  0.2207
  466PNCE   C3A 4175  10.880  12.680   6.954 -0.0741  0.2218  0.0149
  466PNCE   C1B 4176  11.582  13.437   7.649 -0.0215  0.0785  0.1307
  466PNCE   C2B 4177  11.839  13.520   7.224 -0.0067  0.1060  0.1384
  466PNCE   C3B 4178  12.085  13.205   7.031  0.0277  0.2964  0.0669
  466PNCE   D4B 4179  12.242  13.116   6.555  0.1091 -0.2608 -0.1368
  466PNCE   C5B 4180  12.246  13.120   6.203  0.2521  0.1288 -0.2277
  466PNCE   C6B 4181  12.287  13.463   5.889  0.0580  0.3314 -0.2690
  467PNCE   AM1 4182  15.370   5.843   7.801 -0.0668  0.0669 -0.1017
  467PNCE   AM2 4183  15.203   6.092   7.864  0.2035 -0.0935 -0.4757
  467PNCE   T1A 4184  15.104   5.792   7.415 -0.0556 -0.1414 -0.0557
  467PNCE   C2A 4185  14.944   5.914   7.069  0.0817  0.0017 -0.0485
  467PNCE   C3A 4186  14.550   6.031   6.821  0.0714 -0.0070 -0.0388
  467PNCE   C1B 4187  15.089   6.319   7.500  0.0209  0.0244  0.5371
  467PNCE   C2B 4188  15.244   6.812   7.375 -0.0124 -0.0812 -0.2753
  467PNCE   C3B 4189  15.277   6.868   6.960  0.1931 -0.1560 -0.0923
  467PNCE   D4B 4190  15.257   6.681   6.582 -0.0517 -0.0228 -0.2891
  467PNCE   C5B 4191  15.000   6.608   6.250 -0.1066  0.0576 -0.2996
  467PNCE   C6B 4192  14.914   6.844   5.843 -0.0016  0.4348 -0.1243
  468XCA    COO 4193   4.757   4.070   7.968 -0.3426  0.0569 -0.1219
  468XCA     C1 4194   4.638   3.993   7.595 -0.3926 -0.3684 -0.1578
  468XCA     C2 4195   4.206   4.108   7.415  0.0114  0.0894 -0.3947
  468XCA     C3 4196   3.881   4.256   7.082 -0.1805  0.1503  0.4702
  468XCA     C4 4197   3.601   4.397   6.824 -0.0418  0.0015  0.1393
  468XCA     C5 4198   3.237   4.656   6.612 -0.1737 -0.0532  0.1350
  468XCA     C6 4199   3.261   5.044   6.428 -0.0430 -0.3613  0.1398
  469PNCE   AM1 4200   1.271  10.810   8.169 -0.1994 -0.0283 -0.0258
  469PNCE   AM2 4201   1.607  10.662   8.171 -0.1929 -0.1216 -0.0096
  469PNCE   T1A 4202   0.908  10.950   7.867 -0.2779 -0.2407 -0.1209
  469PNCE   C2A 4203   0.584  11.006   7.473 -0.0692 -0.3108 -0.1495
  469PNCE   C3A 4204   0.594  11.243   7.175 -0.3569  0.3486 -0.0775
  469PNCE   C1B 4205   1.853  10.901   7.830 -0.0126 -0.1346 -0.1083
  469PNCE   C2B 4206   1.641  11.121   7.521 -0.2650  0.1181  0.2205
  469PNCE   C3B 4207   1.490  11.534   7.448  0.0589 -0.1555  0.3917
  469PNCE   D4B 4208   1.458  11.788   7.055 -0.0056 -0.0921  0.3502
  469PNCE   C5B 4209   1.701  11.886   6.730 -0.1133  0.1064 -0.0096
  469PNCE   C6B 4210   2.116  12.033   6.676 -0.0060  0.3803  0.2010
  470XCA    COO 4211   9.096  10.996   4.594 -0.3113 -0.0103  0.0294
  470XCA     C1 4212   9.197  11.094   4.996 -0.2340 -0.0961 -0.2442
  470XCA     C2 4213   9.264  11.053   5.364 -0.0534 -0.1019 -0.1862
  470XCA     C3 4214   9.464  10.733   5.544  0.1059  0.0441  0.3616
  470XCA     C4 4215   9.516  10.278   5.822  0.2000  0.4850 -0.3644
  470XCA     C5 4216   9.214  10.203   6.147  0.0727  0.0172 -0.0167
  470XCA     C6 4217   8.941  10.211   6.473 -0.2061  0.2926  0.0467
  471XCA    COO 4218   0.393  10.538   4.370 -0.1046 -0.0792 -0.0213
  471XCA     C1 4219   0.159  10.376   4.797 -0.3024  0.1435 -0.1731
  471XCA     C2 4220   0.141  10.182   5.157  0.0081  0.1664 -0.1763
  471XCA     C3 4221   0.098  10.235   5.616 -0.1293 -0.0751 -0.4519
  471XCA     C4 4222   0.013  10.260   6.111 -0.1800 -0.3638  0.0673
  471XCA     C5 4223  -0.329  10.501   6.306 -0.2737 -0.0424  0.2585
  471XCA     C6 4224  -0.687  10.740   6.456  0.1587  0.1828 -0.4910
  472PNCE   AM1 4225  16.062  10.064   7.927  0.0682 -0.3665  0.1132
  472PNCE   AM2 4226  16.269   9.893   7.897  0.1751  0.0276  0.2931
  472PNCE   T1A 4227  16.257  10.270   7.579 -0.1353 -0.0449  0.2855
  472PNCE   C2A 4228  16.394  10.438   7.218  0.0508 -0.0351 -0.1817
  472PNCE   C3A 4229  16.327  10.684   6.845  0.1905  0.2975  0.0537
  472PNCE   C1B 4230  16.458   9.799   7.509 -0.0637  0.0137 -0.3901
  472PNCE   C2B 4231  16.305   9.407   7.297 -0.0061 -0.1469  0.1624
  472PNCE   C3B 4232  16.438   8.996   6.934 -0.1283 -0.1874  0.1034
  472PNCE   D4B 4233  16.135   9.089   6.604 -0.2473  0.0542 -0.0241
  472PNCE   C5B 4234  16.166   8.825   6.269  0.0580  0.0819 -0.2640
  472PNCE   C6B 4235  16.234   8.674   5.863 -0.0121 -0.3283  0.1759
  473PNCE   AM1 4236   6.323  14.748   8.320 -0.0473 -0.0081 -0.1857
  473PNCE   AM2 4237   6.520  15.059   8.420 -0.0634 -0.0874 -0.0447
  473PNCE   T1A 4238   6.461  14.536   7.968  0.0105  0.1304 -0.0682
  473PNCE   C2A 4239   6.466  14.355   7.597  0.2155 -0.2122  0.3786
  473PNCE   C3A 4240   6.012  14.193   7.381  0.1960 -0.1021  0.0618
  473PNCE   C1B 4241   6.682  15.042   7.927 -0.0341 -0.1592 -0.0402
  473PNCE   C2B 4242   6.633  14.825   7.530  0.1616  0.2306  0.3157
  473PNCE   C3B 4243   6.838  14.755   7.200  0.1036  0.2857 -0.0717
  473PNCE   D4B 4244   7.017  15.009   6.920  0.2191 -0.0657  0.1237
  473PNCE   C5B 4245   7.173  15.340   7.076  0.1015 -0.2780 -0.1719
  473PNCE   C6B 4246   7.165  15.753   7.356 -0.0166  0.2879 -0.0065
  474PNCE   AM1 4247  11.124   4.401   8.228  0.1455  0.0153 -0.2411
  474PNCE   AM2 4248  11.030   4.638   8.002 -0.0131 -0.0353 -0.2253
  474PNCE   T1A 4249  11.051   3.890   8.212  0.0884 -0.0873 -0.4420
  474PNCE   C2A 4250  10.770   3.549   8.044  0.1911 -0.1535  0.2262
  474PNCE   C3A 4251  10.695   3.507   7.557  0.3062 -0.1449  0.2785
  474PNCE   C1B 4252  11.366   4.382   7.783 -0.1515 -0.0577  0.2293
  474PNCE   C2B 4253  11.299   4.213   7.366 -0.1949  0.0855 -0.0393
  474PNCE   C3B 4254  11.205   4.192   6.869 -0.1704  0.0338  0.0471
  474PNCE   D4B 4255  11.075   4.106   6.522 -0.0697  0.2280 -0.1735
  474PNCE   C5B 4256  11.080   4.488   6.235 -0.1681  0.0610 -0.3099
  474PNCE   C6B 4257  10.773   4.768   5.981 -0.1537  0.1888  0.3123
  475XCA    COO 4258   9.936   7.257   7.680  0.0054 -0.1866 -0.0781
  475XCA     C1 4259   9.956   7.356   7.157 -0.1244 -0.0542 -0.0342
  475XCA     C2 4260   9.737   7.358   6.774  0.2273 -0.1146 -0.1004
  475XCA     C3 4261   9.437   7.542   6.421  0.3710  0.0172 -0.2022
  475XCA     C4 4262   9.213   7.634   6.151 -0.0641  0.5178  0.0005
  475XCA     C5 4263   9.196   7.616   5.721  0.1790  0.3735  0.1309
  475XCA     C6 4264   9.553   7.844   5.420  0.2304  0.4137 -0.1030
  476PNCE   AM1 4265   6.273   9.068   8.055  0.0085  0.2892 -0.0436
  476PNCE   AM2 4266   6.494   9.206   7.933  0.2611 -0.1405  0.3135
  476PNCE   T1A 4267   6.099   8.933   7.638  0.1379  0.0495  0.2953
  476PNCE   C2A 4268   6.165   8.973   7.229 -0.1924 -0.2830 -0.3298
  476PNCE   C3A 4269   6.281   9.113   6.877 -0.3832 -0.0486 -0.2279
  476PNCE   C1B 4270   6.816   9.491   7.791  0.0991 -0.0467  0.1887
  476PNCE   C2B 4271   6.975   9.618   7.392  0.3084 -0.0958 -0.0410
  476PNCE   C3B 4272   6.901   9.582   6.972  0.0054 -0.2085  0.1020
  476PNCE   D4B 4273   6.815   9.914   6.701 -0.1311 -0.2231  0.1271
  476PNCE   C5B 4274   6.522  10.261   6.730 -0.3157  0.1222  0.2019
  476PNCE   C6B 4275   6.213  10.497   6.715  0.1372 -0.0850 -0.1194
  477CHOL   ROH 4276   5.022   6.694   4.338  0.0806 -0.1696  0.0887
  477CHOL    R1 4277   4.888   6.700   4.587  0.2103  0.0842  0.1528
  477CHOL    R2 4278   4.867   6.930   4.739  0.0222  0.3131 -0.2170
  477CHOL    R3 4279   4.601   6.875   4.728  0.0815 -0.0212  0.0210
  477CHOL    R4 4280   4.632   7.045   4.965  0.0384  0.2496 -0.1683
  477CHOL    R5 4281   4.537   6.849   4.958  0.2706  0.1254  0.0908
  477CHOL    C1 4282   4.246   7.060   5.087  0.1030 -0.1010  0.0835
  477CHOL    C2 4283   3.972   7.218   5.529  0.1229 -0.0501 -0.2316
  478CHOL   ROH 4284   9.730  12.849   6.002  0.1359 -0.0636 -0.0745
  478CHOL    R1 4285   9.585  12.893   6.241  0.2561  0.0792 -0.0279
  478CHOL    R2 4286   9.446  12.692   6.370 -0.1303  0.2786 -0.1322
  478CHOL    R3 4287   9.597  12.769   6.583  0.0545 -0.1536 -0.1049
  478CHOL    R4 4288   9.353  12.655   6.701 -0.1984  0.3419 -0.1447
  478CHOL    R5 4289   9.437  12.853   6.741  0.2484  0.1369 -0.0610
  478CHOL    C1 4290   9.439  12.706   7.094 -0.0639 -0.0260 -0.1259
  478CHOL    C2 4291   9.579  12.630   7.536 -0.3524  0.0495 -0.0465
  479XCA    COO 4292  10.157   7.863   4.137 -0.1120  0.1479 -0.1625
  479XCA     C1 4293  10.128   8.268   4.340  0.0914  0.0995 -0.0833
  479XCA     C2 4294   9.991   8.365   4.707 -0.0384  0.2228  0.1061
  479XCA     C3 4295   9.732   8.543   5.050  0.1108 -0.0808 -0.1146
  479XCA     C4 4296   9.396   8.317   5.231  0.1081  0.3114 -0.1107
  479XCA     C5 4297   9.250   8.366   5.558 -0.0739 -0.0208 -0.0384
  479XCA     C6 4298   8.917   8.560   5.699 -0.0783 -0.1374  0.0181
  480CHOL   ROH 4299  15.352  16.200   5.815  0.0019  0.3837  0.0994
  480CHOL    R1 4300  15.384  16.339   6.059  0.0925  0.2012  0.1917
  480CHOL    R2 4301  15.218  16.298   6.276 -0.0322  0.2793  0.1114
  480CHOL    R3 4302  15.452  16.252   6.406 -0.1336 -0.0882  0.1641
  480CHOL    R4 4303  15.273  16.360   6.612  0.0534  0.3910  0.0768
  480CHOL    R5 4304  15.472  16.434   6.560  0.2031 -0.0257  0.0477
  480CHOL    C1 4305  15.525  16.352   6.929  0.0091  0.1095  0.1061
  480CHOL    C2 4306  15.397  16.636   7.143  0.0698 -0.0034 -0.0858
  481CHOL   ROH 4307   0.970   7.282   5.856 -0.0297  0.2265 -0.1560
  481CHOL    R1 4308   0.968   7.060   6.031 -0.1980  0.0942 -0.3257
  481CHOL    R2 4309   1.018   6.803   5.945  0.1517  0.1942 -0.4252
  481CHOL    R3 4310   1.206   6.808   6.141 -0.2202  0.1858 -0.0661
  481CHOL    R4 4311   1.124   6.527   6.124  0.1303  0.1104 -0.5414
  481CHOL    R5 4312   1.127   6.651   6.304 -0.3466 -0.0901 -0.3932
  481CHOL    C1 4313   1.363   6.371   6.412 -0.2313  0.0537 -0.2720
  481CHOL    C2 4314   1.661   6.162   6.400  0.1024 -0.0861  0.2932
  482PNCE   AM1 4315  12.277   0.195   8.613  0.2790 -0.0161 -0.0333
  482PNCE   AM2 4316  12.377   0.493   8.356 -0.0750  0.0001  0.2397
  482PNCE   T1A 4317  11.990  -0.048   8.475  0.1343  0.0778  0.1063
  482PNCE   C2A 4318  11.810  -0.303   8.089 -0.0918 -0.2045  0.2484
  482PNCE   C3A 4319  11.588  -0.305   7.689 -0.1047 -0.0271  0.0427
  482PNCE   C1B 4320  12.119   0.155   8.000 -0.1080 -0.0626  0.0370
  482PNCE   C2B 4321  12.310   0.211   7.579  0.1736  0.3209 -0.2242
  482PNCE   C3B 4322  12.333   0.033   7.213  0.0844  0.0718  0.1438
  482PNCE   D4B 4323  12.277  -0.231   6.829 -0.0547  0.1330 -0.3422
  482PNCE   C5B 4324  12.639  -0.443   6.712  0.1661  0.1862  0.2828
  482PNCE   C6B 4325  12.665  -0.903   6.536 -0.1547 -0.1187 -0.1419
  483PNCE   AM1 4326  14.082  15.878   7.891  0.1894  0.2106  0.3602
  483PNCE   AM2 4327  13.987  15.967   7.584 -0.1321  0.0928  0.0478
  483PNCE   T1A 4328  14.297  15.485   7.735 -0.1483  0.1575  0.0044
  483PNCE   C2A 4329  14.306  15.146   7.611  0.0530 -0.0650 -0.3768
  483PNCE   C3A 4330  14.461  14.736   7.594 -0.1512  0.2079  0.1147
  483PNCE   C1B 4331  13.702  16.001   7.226 -0.1332 -0.1284 -0.4965
  483PNCE   C2B 4332  13.502  15.904   6.807 -0.0082 -0.0680 -0.2311
  483PNCE   C3B 4333  13.615  15.711   6.436  0.0203 -0.3321 -0.3611
  483PNCE   D4B 4334  13.626  15.276   6.253  0.1476 -0.0129 -0.0515
  483PNCE   C5B 4335  13.981  15.193   5.980 -0.0328  0.1215 -0.1148
  483PNCE   C6B 4336  14.203  15.175   5.467  0.0812 -0.0610  0.1093
  484PNCE   AM1 4337  16.018  14.057   9.352  0.4530 -0.0775  0.0948
  484PNCE   AM2 4338  15.716  14.032   9.170 -0.0615  0.0106 -0.2253
  484PNCE   T1A 4339  16.298  13.994   8.861 -0.0236  0.2127 -0.0531
  484PNCE   C2A 4340  16.555  13.774   8.474  0.0438  0.0286  0.0219
  484PNCE   C3A 4341  16.697  13.339   8.497 -0.1594 -0.2275 -0.3835
  484PNCE   C1B 4342  15.620  14.251   8.810  0.0174 -0.1442  0.1349
  484PNCE   C2B 4343  15.497  14.425   8.511  0.0832 -0.2149  0.1714
  484PNCE   C3B 4344  15.314  14.498   8.116  0.0292  0.2426 -0.2048
  484PNCE   D4B 4345  14.985  14.701   7.838  0.0214  0.2704  0.1224
  484PNCE   C5B 4346  14.922  14.430   7.373 -0.1100  0.3278 -0.2642
  484PNCE   C6B 4347  14.904  14.320   6.915 -0.0109  0.1288 -0.2880
  485PNCE   AM1 4348   8.430   6.794   8.102 -0.0506  0.0155  0.1817
  485PNCE   AM2 4349   8.808   6.616   8.084 -0.0677  0.0615  0.2078
  485PNCE   T1A 4350   8.529   6.921   7.782 -0.1317  0.1020 -0.0417
  485PNCE   C2A 4351   8.900   7.064   7.453  0.2281  0.1843 -0.0711
  485PNCE   C3A 4352   9.218   7.074   7.196 -0.2591  0.0284  0.1221
  485PNCE   C1B 4353   8.977   6.682   7.755  0.0347  0.0879 -0.0011
  485PNCE   C2B 4354   9.139   6.582   7.333 -0.0968 -0.2098  0.0947
  485PNCE   C3B 4355   9.059   6.472   6.802 -0.2198 -0.0191  0.2142
  485PNCE   D4B 4356   9.018   6.153   6.529  0.0631  0.1559  0.0620
  485PNCE   C5B 4357   8.771   5.825   6.807 -0.0403 -0.2816  0.2077
  485PNCE   C6B 4358   8.820   5.394   7.032 -0.0846 -0.0366  0.0724
  486PNCE   AM1 4359  15.062   9.712   7.474 -0.0804 -0.2717 -0.0413
  486PNCE   AM2 4360  14.733   9.964   7.571  0.1055  0.0304 -0.2157
  486PNCE   T1A 4361  14.954   9.914   7.089  0.1541 -0.1324 -0.1746
  486PNCE   C2A 4362  15.033  10.215   6.746  0.2160  0.0209  0.1620
  486PNCE   C3A 4363  15.352  10.296   6.376 -0.0299  0.1851  0.0022
  486PNCE   C1B 4364  14.497   9.710   7.328 -0.0331  0.0488  0.0487
  486PNCE   C2B 4365  14.238   9.598   6.926 -0.2126  0.1415  0.0709
  486PNCE   C3B 4366  14.085   9.642   6.553 -0.2054 -0.3486  0.2558
  486PNCE   D4B 4367  13.845   9.490   6.194  0.0420 -0.4178 -0.0286
  486PNCE   C5B 4368  14.029   9.138   5.985 -0.2728  0.1646 -0.0984
  486PNCE   C6B 4369  14.382   8.825   5.771  0.0854  0.1313 -0.1893
  487PNCE   AM1 4370   5.701  15.427   8.463  0.2297 -0.1043  0.1946
  487PNCE   AM2 4371   5.369  15.344   8.306  0.0880  0.0730 -0.0231
  487PNCE   T1A 4372   5.833  15.544   8.050  0.0157 -0.1842  0.0001
  487PNCE   C2A 4373   5.970  15.252   7.719  0.1000 -0.1271  0.2193
  487PNCE   C3A 4374   5.990  15.188   7.278  0.1160  0.1167 -0.0033
  487PNCE   C1B 4375   5.347  15.426   7.911 -0.1505  0.1929  0.1391
  487PNCE   C2B 4376   5.604  15.538   7.495 -0.0441  0.1863 -0.2267
  487PNCE   C3B 4377   5.587  15.637   7.048  0.1855 -0.0301  0.2717
  487PNCE   D4B 4378   5.609  15.495   6.704 -0.2841 -0.6038  0.1682
  487PNCE   C5B 4379   5.561  15.816   6.400 -0.2139  0.3422 -0.4489
  487PNCE   C6B 4380   5.580  15.971   5.951  0.2188  0.2177  0.0106
  488PNCE   AM1 4381   0.308  12.737   8.305 -0.0645  0.1938  0.2492
  488PNCE   AM2 4382   0.089  12.641   8.399  0.2594  0.1339 -0.3146
  488PNCE   T1A 4383   0.483  13.124   8.016 -0.0494 -0.1202  0.1425
  488PNCE   C2A 4384   0.473  13.514   7.674 -0.1931 -0.3409  0.2184
  488PNCE   C3A 4385   0.538  13.739   7.356 -0.1226 -0.1256 -0.4749
  488PNCE   C1B 4386  -0.120  13.047   8.399 -0.0536 -0.1441 -0.1166
  488PNCE   C2B 4387  -0.273  13.444   8.354  0.1123 -0.2851 -0.0393
  488PNCE   C3B 4388  -0.286  13.910   8.275  0.1737  0.0799  0.0522
  488PNCE   D4B 4389  -0.106  14.243   8.412  0.2700  0.0814 -0.1083
  488PNCE   C5B 4390   0.065  14.579   8.073  0.2611 -0.0140 -0.1406
  488PNCE   C6B 4391  -0.167  14.902   7.908 -0.0226 -0.1356 -0.0650
  489XCA    COO 4392   2.394   0.175   8.478  0.2613 -0.2394  0.1776
  489XCA     C1 4393   2.321   0.424   8.035 -0.3027 -0.4502 -0.1074
  489XCA     C2 4394   2.114   0.558   7.693 -0.0905 -0.2400 -0.1432
  489XCA     C3 4395   2.006   0.412   7.372 -0.0651  0.1230  0.2274
  489XCA     C4 4396   1.743   0.273   7.019  0.1660  0.0075  0.1304
  489XCA     C5 4397   2.026   0.340   6.696  0.0110 -0.0602  0.1826
  489XCA     C6 4398   2.082   0.573   6.316 -0.0508  0.0364 -0.1686
  490CHOL   ROH 4399  11.815   8.671   7.825  0.1713  0.1695  0.0224
  490CHOL    R1 4400  11.616   8.715   7.628  0.1073  0.0815  0.0658
  490CHOL    R2 4401  11.658   8.874   7.406 -0.0391  0.1701  0.1011
  490CHOL    R3 4402  11.578   8.652   7.272  0.0954  0.1487  0.0552
  490CHOL    R4 4403  11.464   8.876   7.120 -0.3781  0.0968  0.3293
  490CHOL    R5 4404  11.356   8.704   7.198 -0.0601 -0.0973  0.3488
  490CHOL    C1 4405  11.276   8.668   6.827 -0.4489  0.0338  0.4191
  490CHOL    C2 4406  10.881   8.712   6.668 -0.3081 -0.4403 -0.1503
  491CHOL   ROH 4407  10.731   2.046   6.534  0.1983 -0.0608  0.2140
  491CHOL    R1 4408  10.991   2.026   6.424  0.1569  0.0511  0.0939
  491CHOL    R2 4409  11.066   1.820   6.256  0.2243 -0.0222  0.2130
  491CHOL    R3 4410  11.138   2.024   6.091 -0.0166 -0.0941  0.0187
  491CHOL    R4 4411  11.300   1.797   6.003  0.1221 -0.0349  0.1190
  491CHOL    R5 4412  11.373   1.994   6.059 -0.0072  0.0666 -0.0706
  491CHOL    C1 4413  11.505   1.974   5.701 -0.1639 -0.1101 -0.1182
  491CHOL    C2 4414  11.857   1.863   5.735  0.1212  0.0541 -0.0109
  492CHOL   ROH 4415   4.787   9.278   5.093  0.1545 -0.0420 -0.0616
  492CHOL    R1 4416   4.637   9.183   5.314  0.1171 -0.0396 -0.0861
  492CHOL    R2 4417   4.397   9.049   5.284  0.0691  0.0555 -0.1203
  492CHOL    R3 4418   4.520   8.859   5.433 -0.0020 -0.0258 -0.1643
  492CHOL    R4 4419   4.238   8.781   5.432 -0.0560  0.1659 -0.0541
  492CHOL    R5 4420   4.364   8.810   5.608  0.0317  0.0839 -0.1028
  492CHOL    C1 4421   4.261   8.446   5.659 -0.1952  0.1535 -0.0567
  492CHOL    C2 4422   4.228   8.137   5.696 -0.0655 -0.2519  0.1024
  493PNCE   AM1 4423   3.774  14.064   7.192  0.3254  0.1541  0.1357
  493PNCE   AM2 4424   3.920  13.864   7.406 -0.0512  0.0157  0.3028
  493PNCE   T1A 4425   3.456  13.865   6.892  0.0486  0.3006 -0.0920
  493PNCE   C2A 4426   3.171  13.585   6.694  0.2737 -0.0966  0.1950
  493PNCE   C3A 4427   2.677  13.595   6.597  0.0277  0.1534 -0.1944
  493PNCE   C1B 4428   3.969  13.607   7.075  0.3571  0.1323  0.4098
  493PNCE   C2B 4429   3.722  13.355   6.831  0.2399  0.1688  0.3478
  493PNCE   C3B 4430   3.527  13.166   6.517  0.1700  0.0124  0.0489
  493PNCE   D4B 4431   3.532  12.710   6.634 -0.2548  0.1990 -0.0511
  493PNCE   C5B 4432   3.425  12.421   6.436 -0.0417 -0.1527  0.1074
  493PNCE   C6B 4433   3.518  11.993   6.307  0.0237 -0.3153 -0.1361
  494XCA    COO 4434   2.315   4.924   4.403  0.3884 -0.2149  0.0574
  494XCA     C1 4435   2.475   5.030   4.814  0.0757  0.2023  0.1899
  494XCA     C2 4436   2.370   4.950   5.237  0.1146 -0.1898 -0.0161
  494XCA     C3 4437   2.264   4.917   5.651 -0.2790 -0.0449  0.0871
  494XCA     C4 4438   2.327   4.950   6.102  0.0629 -0.3241 -0.0897
  494XCA     C5 4439   2.088   4.972   6.374  0.1888 -0.0123 -0.1077
  494XCA     C6 4440   2.023   5.284   6.516  0.0519  0.2149  0.0439
  495CHOL   ROH 4441   9.700   0.893   4.593 -0.0804  0.0314  0.0109
  495CHOL    R1 4442   9.894   1.037   4.740 -0.1373  0.0520  0.0653
  495CHOL    R2 4443   9.973   0.963   4.994 -0.0325 -0.0723 -0.0030
  495CHOL    R3 4444  10.222   0.970   4.884 -0.0615  0.1588 -0.0557
  495CHOL    R4 4445  10.250   1.109   5.141 -0.1168  0.1081 -0.0219
  495CHOL    R5 4446  10.308   1.185   4.945 -0.2213  0.2106 -0.0129
  495CHOL    C1 4447  10.645   1.200   5.122 -0.1938  0.4301 -0.0828
  495CHOL    C2 4448  10.535   1.466   5.344  0.1036 -0.0761 -0.1643
  496XCA    COO 4449  14.474   7.865   7.516 -0.0127  0.1842  0.2004
  496XCA     C1 4450  14.715   7.759   7.106  0.2938 -0.2816  0.0161
  496XCA     C2 4451  14.749   7.654   6.750 -0.3207 -0.1554 -0.1856
  496XCA     C3 4452  14.544   7.930   6.385  0.1407  0.2607 -0.2690
  496XCA     C4 4453  14.217   7.731   6.214  0.1353 -0.1631 -0.1895
  496XCA     C5 4454  14.207   7.526   5.812 -0.0084 -0.1966 -0.2137
  496XCA     C6 4455  14.177   7.280   5.501 -0.1909  0.1057 -0.0637
  497PNCE   AM1 4456  12.710   0.090   8.224 -0.0288 -0.1970  0.0670
  497PNCE   AM2 4457  12.924  -0.112   8.243 -0.1014 -0.4284 -0.2157
  497PNCE   T1A 4458  12.637  -0.098   7.776  0.1683 -0.1372 -0.1113
  497PNCE   C2A 4459  12.770   0.008   7.453 -0.0942  0.1534 -0.0269
  497PNCE   C3A 4460  12.821   0.026   7.103 -0.3371  0.0692  0.0924
  497PNCE   C1B 4461  13.123   0.049   7.879 -0.1520 -0.0829 -0.1077
  497PNCE   C2B 4462  13.259   0.422   7.628 -0.4377  0.2818  0.3190
  497PNCE   C3B 4463  13.462   0.476   7.166 -0.0847  0.0891 -0.0021
  497PNCE   D4B 4464  13.726   0.649   6.860  0.1104  0.0666 -0.2951
  497PNCE   C5B 4465  13.573   0.849   6.470 -0.0468 -0.1233 -0.3688
  497PNCE   C6B 4466  13.394   1.101   6.298  0.1306 -0.2309 -0.1763
  498CHOL   ROH 4467  14.515  13.326   8.538  0.1926 -0.0863  0.2296
  498CHOL    R1 4468  14.546  13.387   8.263  0.0992  0.0482  0.2494
  498CHOL    R2 4469  14.776  13.325   8.123  0.0695  0.1623  0.1525
  498CHOL    R3 4470  14.602  13.200   7.956  0.0458  0.2038  0.1454
  498CHOL    R4 4471  14.824  13.283   7.783  0.0143  0.2618  0.1321
  498CHOL    R5 4472  14.613  13.327   7.753  0.0076  0.2627  0.1800
  498CHOL    C1 4473  14.689  13.141   7.429 -0.0398  0.3589  0.1136
  498CHOL    C2 4474  14.660  13.009   7.039  0.0360  0.3493  0.2029
  499PNCE   AM1 4475   1.850   7.778   7.617  0.1145 -0.0496 -0.0660
  499PNCE   AM2 4476   2.059   7.542   7.563 -0.3426  0.1019 -0.1990
  499PNCE   T1A 4477   1.699   7.827   7.173  0.2063 -0.0600  0.2424
  499PNCE   C2A 4478   1.802   7.709   6.786  0.0984 -0.1741  0.1223
  499PNCE   C3A 4479   2.008   7.658   6.352  0.1824 -0.1705 -0.0589
  499PNCE   C1B 4480   2.126   7.348   7.142  0.1086  0.0914  0.1007
  499PNCE   C2B 4481   2.161   7.332   6.708  0.1138  0.1087 -0.1907
  499PNCE   C3B 4482   2.084   7.164   6.358  0.1516  0.0592  0.0600
  499PNCE   D4B 4483   1.920   7.144   6.013  0.3019 -0.1324  0.3007
  499PNCE   C5B 4484   2.137   7.348   5.650  0.0060 -0.2207 -0.0638
  499PNCE   C6B 4485   2.518   7.423   5.537 -0.0899  0.2106 -0.1068
  500PNCE   AM1 4486   8.614   6.353   7.706  0.3727  0.2270  0.3002
  500PNCE   AM2 4487   8.250   6.568   7.636 -0.0526 -0.1650  0.1701
  500PNCE   T1A 4488   8.684   6.232   7.285 -0.1220  0.2321  0.1196
  500PNCE   C2A 4489   8.616   6.308   6.859  0.5434 -0.2968  0.1013
  500PNCE   C3A 4490   8.552   6.346   6.502 -0.0867  0.1992  0.1889
  500PNCE   C1B 4491   8.520   6.660   7.324 -0.0777 -0.1834  0.0994
  500PNCE   C2B 4492   8.700   6.801   7.001 -0.1267  0.2338 -0.0454
  500PNCE   C3B 4493   8.784   6.902   6.672 -0.1303 -0.1379 -0.2455
  500PNCE   D4B 4494   8.673   7.037   6.306 -0.1790  0.0480  0.1645
  500PNCE   C5B 4495   8.587   7.364   6.192  0.2268  0.2175  0.1288
  500PNCE   C6B 4496   8.736   7.723   6.030 -0.1765 -0.2348 -0.1505
  501PNCE   AM1 4497   6.313   7.359   7.883  0.2209 -0.0426 -0.1074
  501PNCE   AM2 4498   6.423   7.253   7.657  0.1252 -0.0801 -0.1076
  501PNCE   T1A 4499   6.642   7.691   7.714 -0.0966 -0.1984  0.1600
  501PNCE   C2A 4500   6.909   7.881   7.463 -0.1206  0.1169 -0.0322
  501PNCE   C3A 4501   7.312   8.078   7.412 -0.1150 -0.0732 -0.2556
  501PNCE   C1B 4502   6.427   7.126   7.216  0.1431 -0.0960 -0.0396
  501PNCE   C2B 4503   6.470   7.199   6.804  0.0150  0.1791  0.2155
  501PNCE   C3B 4504   6.540   7.044   6.409  0.1805  0.4644  0.0822
  501PNCE   D4B 4505   6.337   6.742   6.176 -0.1539  0.0984  0.1327
  501PNCE   C5B 4506   6.369   6.332   6.279 -0.0023 -0.1928 -0.0098
  501PNCE   C6B 4507   6.152   6.023   6.057 -0.1053 -0.2507 -0.0192
  502PNCE   AM1 4508  14.487  10.067   7.954 -0.0270 -0.3371 -0.1632
  502PNCE   AM2 4509  14.485  10.311   8.194  0.0311 -0.4169 -0.1936
  502PNCE   T1A 4510  14.203   9.930   7.673 -0.1904  0.0152 -0.0642
  502PNCE   C2A 4511  14.016   9.854   7.267  0.0495 -0.1900 -0.0924
  502PNCE   C3A 4512  13.721   9.780   6.958  0.5963 -0.0556  0.0630
  502PNCE   C1B 4513  14.693  10.598   8.239  0.1136 -0.1203 -0.1490
  502PNCE   C2B 4514  14.800  10.919   7.902  0.0246 -0.0972  0.4569
  502PNCE   C3B 4515  14.914  11.244   7.607 -0.0333 -0.3007 -0.0693
  502PNCE   D4B 4516  15.181  11.325   7.313 -0.3131  0.0869 -0.0065
  502PNCE   C5B 4517  15.069  11.586   6.985  0.1984 -0.1261  0.0402
  502PNCE   C6B 4518  14.893  11.940   6.899  0.0248  0.1012 -0.2404
  503CHOL   ROH 4519   6.549  14.305   4.471  0.0206 -0.2899 -0.1699
  503CHOL    R1 4520   6.300  14.274   4.602  0.0453 -0.3376 -0.1340
  503CHOL    R2 4521   6.239  14.053   4.755  0.2392 -0.1921  0.1553
  503CHOL    R3 4522   6.185  14.239   4.946  0.0716  0.0100 -0.0891
  503CHOL    R4 4523   5.985  14.029   4.989  0.2794 -0.1287  0.2050
  503CHOL    R5 4524   5.946  14.241   4.961  0.0699 -0.2031 -0.0756
  503CHOL    C1 4525   5.787  14.189   5.303  0.1455  0.0979  0.0056
  503CHOL    C2 4526   5.386  14.241   5.386  0.0343  0.0256 -0.3491
  504CHOL   ROH 4527  13.957   6.083   6.998 -0.0084 -0.0790  0.0612
  504CHOL    R1 4528  14.014   5.979   6.741 -0.0558 -0.0067  0.0210
  504CHOL    R2 4529  13.985   6.128   6.510  0.0573  0.1098  0.0822
  504CHOL    R3 4530  14.244   6.055   6.469  0.0136 -0.0385  0.0709
  504CHOL    R4 4531  14.169   6.205   6.228  0.2179  0.3619  0.2553
  504CHOL    R5 4532  14.255   6.004   6.235  0.0558  0.2830  0.0024
  504CHOL    C1 4533  14.520   6.181   6.025  0.2709  0.3696  0.3455
  504CHOL    C2 4534  14.880   6.284   5.798  0.1385 -0.0129  0.1104
  505CHOL   ROH 4535  11.843  14.723   7.811 -0.1599  0.2806 -0.1017
  505CHOL    R1 4536  11.700  14.631   7.585 -0.0553  0.1945 -0.1333
  505CHOL    R2 4537  11.823  14.569   7.345  0.0541  0.1208 -0.0584
  505CHOL    R3 4538  11.696  14.331   7.378  0.0537  0.1247 -0.0334
  505CHOL    R4 4539  11.842  14.303   7.125  0.1507  0.0539  0.0300
  505CHOL    R5 4540  11.629  14.269   7.156  0.1407  0.0529 -0.0393
  505CHOL    C1 4541  11.734  13.925   7.027  0.2064  0.0187  0.1051
  505CHOL    C2 4542  11.634  13.982   6.654  0.1989  0.0174 -0.1756
  506CHOL   ROH 4543  11.571   5.144   6.015 -0.1449  0.0839 -0.1197
  506CHOL    R1 4544  11.396   5.013   5.836 -0.0730 -0.0293 -0.1070
  506CHOL    R2 4545  11.122   5.048   5.843 -0.0848 -0.1064 -0.1701
  506CHOL    R3 4546  11.155   5.111   5.581 -0.0544 -0.1876 -0.1854
  506CHOL    R4 4547  10.889   4.989   5.594 -0.0634 -0.1667 -0.1752
  506CHOL    R5 4548  11.052   4.931   5.462 -0.0544 -0.2162 -0.1419
  506CHOL    C1 4549  10.785   5.015   5.204 -0.0232 -0.2772 -0.1934
  506CHOL    C2 4550  10.563   4.840   5.004  0.0302  0.1689 -0.1832
  507CHOL   ROH 4551   9.806   5.771   7.403  0.2325  0.0651 -0.1271
  507CHOL    R1 4552   9.682   5.652   7.178  0.1645  0.0224 -0.0668
  507CHOL    R2 4553   9.578   5.802   6.970  0.2762 -0.0242 -0.1561
  507CHOL    R3 4554   9.739   5.643   6.819  0.1774 -0.2194 -0.0587
  507CHOL    R4 4555   9.567   5.781   6.626  0.2675 -0.2255 -0.1442
  507CHOL    R5 4556   9.597   5.565   6.643  0.1292 -0.2344 -0.0136
  507CHOL    C1 4557   9.711   5.620   6.283  0.1685 -0.5256 -0.0451
  507CHOL    C2 4558   9.577   5.354   5.979  0.0867 -0.0630 -0.0904
  508PNCE   AM1 4559   2.598  14.815   7.945 -0.1503  0.1805 -0.1310
  508PNCE   AM2 4560   2.250  14.770   8.075  0.0123 -0.3059 -0.0944
  508PNCE   T1A 4561   2.678  14.609   7.563  0.0886 -0.5871 -0.3238
  508PNCE   C2A 4562   2.927  14.551   7.294 -0.0113 -0.2646 -0.2899
  508PNCE   C3A 4563   3.303  14.350   7.001  0.1357  0.0191 -0.3541
  508PNCE   C1B 4564   1.804  14.806   7.879 -0.1475  0.1404 -0.0140
  508PNCE   C2B 4565   1.436  14.695   7.667  0.3736  0.0778 -0.0448
  508PNCE   C3B 4566   1.366  14.487   7.435  0.0006  0.0445 -0.2813
  508PNCE   D4B 4567   1.067  14.490   7.090  0.1824 -0.1738  0.2092
  508PNCE   C5B 4568   1.300  14.615   6.673 -0.0164 -0.4273  0.3223
  508PNCE   C6B 4569   1.525  14.749   6.298  0.1513 -0.1362  0.1823
  509CHOL   ROH 4570  11.295   2.119   6.902  0.3411  0.0737  0.0852
  509CHOL    R1 4571  11.317   2.307   6.692  0.0291 -0.0021 -0.0165
  509CHOL    R2 4572  11.539   2.322   6.529 -0.0165  0.2444 -0.0561
  509CHOL    R3 4573  11.355   2.296   6.330 -0.0076 -0.1346 -0.0161
  509CHOL    R4 4574  11.602   2.372   6.193 -0.2604  0.6539 -0.0424
  509CHOL    R5 4575  11.409   2.471   6.176 -0.5445  0.1249  0.0868
  509CHOL    C1 4576  11.466   2.377   5.811 -0.3937  0.5364  0.0035
  509CHOL    C2 4577  11.897   2.378   5.739 -0.1083  0.1108  0.2892
  510PNCE   AM1 4578  10.749   8.964   7.918 -0.0208 -0.0661  0.1586
  510PNCE   AM2 4579  10.945   8.817   8.002 -0.0630  0.0161  0.2697
  510PNCE   T1A 4580  10.646   9.221   7.447 -0.1516 -0.2685 -0.1932
  510PNCE   C2A 4581  10.699   9.525   7.013 -0.3324 -0.0792  0.2475
  510PNCE   C3A 4582  10.963   9.621   6.737 -0.0615 -0.0168 -0.1448
  510PNCE   C1B 4583  11.094   8.717   7.611  0.1205  0.1109 -0.1367
  510PNCE   C2B 4584  10.872   8.730   7.200 -0.2548  0.2161  0.3043
  510PNCE   C3B 4585  10.605   9.029   6.937  0.2811 -0.0166  0.0499
  510PNCE   D4B 4586  10.442   9.075   6.606  0.1674 -0.2671  0.4170
  510PNCE   C5B 4587  10.399   8.757   6.381 -0.0546 -0.0045 -0.0881
  510PNCE   C6B 4588  10.459   8.549   6.184  0.0823 -0.0927 -0.2049
  511PNCE   AM1 4589   7.846   7.270   4.000  0.0719  0.0492  0.1790
  511PNCE   AM2 4590   7.880   7.054   3.941  0.0955  0.2548  0.0597
  511PNCE   T1A 4591   7.412   7.420   4.100 -0.1382 -0.0927 -0.0773
  511PNCE   C2A 4592   7.301   7.683   4.412  0.1235 -0.0751  0.0311
  511PNCE   C3A 4593   7.535   8.004   4.594  0.2589  0.3842 -0.0831
  511PNCE   C1B 4594   7.686   7.059   4.417  0.0184  0.4843  0.2395
  511PNCE   C2B 4595   7.792   6.856   4.765 -0.1992  0.3319  0.0645
  511PNCE   C3B 4596   8.018   6.476   4.910  0.1542 -0.1582  0.2154
  511PNCE   D4B 4597   8.337   6.299   4.683  0.1030  0.4020 -0.1704
  511PNCE   C5B 4598   8.720   6.294   4.857  0.2469  0.2428 -0.1979
  511PNCE   C6B 4599   8.821   6.427   5.273 -0.0729  0.0686  0.3205
  512CHOL   ROH 4600   9.146   2.119   4.866 -0.0670 -0.0002  0.1226
  512CHOL    R1 4601   9.243   2.060   5.126 -0.1221  0.0203  0.1481
  512CHOL    R2 4602   9.476   2.170   5.225 -0.0400 -0.1244  0.1158
  512CHOL    R3 4603   9.314   2.247   5.430  0.0118  0.0783  0.0817
  512CHOL    R4 4604   9.565   2.166   5.560 -0.1464 -0.3159  0.1421
  512CHOL    R5 4605   9.364   2.094   5.607 -0.2685 -0.0286  0.0687
  512CHOL    C1 4606   9.464   2.237   5.946 -0.1586 -0.2370  0.1247
  512CHOL    C2 4607   9.407   1.998   6.446 -0.1715  0.1015  0.1442
  513CHOL   ROH 4608   1.090  12.793   7.670  0.1679 -0.0063 -0.0624
  513CHOL    R1 4609   0.938  13.005   7.560  0.1042 -0.0672 -0.0911
  513CHOL    R2 4610   0.862  13.011   7.294 -0.0300 -0.2027 -0.0555
  513CHOL    R3 4611   0.613  13.042   7.400  0.0220 -0.1594  0.0544
  513CHOL    R4 4612   0.582  13.105   7.115 -0.0843 -0.1130  0.0768
  513CHOL    R5 4613   0.522  13.231   7.284  0.0163 -0.1230  0.1194
  513CHOL    C1 4614   0.185  13.190   7.110 -0.0672 -0.0208  0.2570
  513CHOL    C2 4615  -0.178  13.147   7.112 -0.2027 -0.2158 -0.3585
  514PNCE   AM1 4616  14.285  10.664   7.913  0.0584  0.2227 -0.3145
  514PNCE   AM2 4617  14.257  10.442   7.681  0.1405  0.0109 -0.1864
  514PNCE   T1A 4618  14.389  11.154   7.839  0.0349  0.0547  0.0177
  514PNCE   C2A 4619  14.489  11.491   7.554 -0.1405  0.0165 -0.0887
  514PNCE   C3A 4620  14.771  11.782   7.319 -0.1465  0.2265  0.1488
  514PNCE   C1B 4621  14.036  10.769   7.420  0.1387  0.3503 -0.1434
  514PNCE   C2B 4622  14.123  11.193   7.358 -0.0459 -0.1035  0.1806
  514PNCE   C3B 4623  13.995  11.498   7.130  0.2545  0.1033 -0.0736
  514PNCE   D4B 4624  13.874  11.719   6.744 -0.1773 -0.0598 -0.2867
  514PNCE   C5B 4625  13.536  11.880   6.883 -0.3194 -0.0795  0.1348
  514PNCE   C6B 4626  13.155  11.817   7.079  0.3302  0.0478  0.0536
  515CHOL   ROH 4627   8.429  10.904   6.263  0.0209  0.0769 -0.1016
  515CHOL    R1 4628   8.284  11.004   6.485  0.1545  0.1965 -0.0689
  515CHOL    R2 4629   8.187  10.841   6.685 -0.0449  0.2622 -0.1119
  515CHOL    R3 4630   8.325  11.011   6.846  0.1748  0.0431 -0.0682
  515CHOL    R4 4631   8.112  10.903   7.017 -0.0434  0.3715 -0.1316
  515CHOL    R5 4632   8.156  11.114   6.982  0.2956  0.3037 -0.1144
  515CHOL    C1 4633   8.198  11.099   7.361  0.1639  0.2297 -0.1026
  515CHOL    C2 4634   8.299  11.133   7.691  0.0217  0.2047 -0.1692
  516CHOL   ROH 4635  11.270  12.248   6.977 -0.0529 -0.0327  0.1580
  516CHOL    R1 4636  11.040  12.096   6.910 -0.0200 -0.0758  0.1435
  516CHOL    R2 4637  11.005  11.982   6.661 -0.1126  0.1524  0.0517
  516CHOL    R3 4638  10.970  11.754   6.805  0.0794 -0.0058 -0.1510
  516CHOL    R4 4639  10.784  11.729   6.580 -0.1655  0.2065  0.0279
  516CHOL    R5 4640  10.735  11.711   6.792  0.0715 -0.0253  0.0632
  516CHOL    C1 4641  10.622  11.368   6.670 -0.0151  0.0885 -0.1769
  516CHOL    C2 4642  10.263  11.168   6.613 -0.1229  0.0598 -0.1380
  517PNCE   AM1 4643   6.799   3.331   8.188 -0.1246  0.2868  0.0593
  517PNCE   AM2 4644   7.145   3.351   8.107  0.1583  0.0534  0.0601
  517PNCE   T1A 4645   6.609   3.198   7.853  0.1993 -0.0389  0.0898
  517PNCE   C2A 4646   6.411   3.095   7.524  0.1937 -0.1118 -0.0697
  517PNCE   C3A 4647   6.324   3.027   7.094 -0.3272  0.2232 -0.1459
  517PNCE   C1B 4648   6.861   3.653   7.790 -0.0119  0.1602 -0.0541
  517PNCE   C2B 4649   6.689   3.566   7.441 -0.3264  0.0187 -0.3413
  517PNCE   C3B 4650   6.375   3.561   7.182  0.2719 -0.2189 -0.1664
  517PNCE   D4B 4651   6.045   3.592   6.986 -0.0625  0.1129 -0.2697
  517PNCE   C5B 4652   6.290   3.305   6.701 -0.1762 -0.0325 -0.1238
  517PNCE   C6B 4653   6.575   3.045   6.698 -0.1128  0.0035  0.1291
  518PNCE   AM1 4654   0.447  10.181   7.746 -0.2036  0.2663  0.2058
  518PNCE   AM2 4655   0.170  10.331   7.934  0.0131  0.3669  0.2190
  518PNCE   T1A 4656   0.528  10.194   7.305  0.3818 -0.0578  0.4570
  518PNCE   C2A 4657   0.217  10.010   7.010  0.0457  0.1855 -0.0489
  518PNCE   C3A 4658  -0.070  10.187   6.729  0.3042 -0.0752  0.2972
  518PNCE   C1B 4659   0.327  10.595   7.611 -0.1434  0.1099  0.0600
  518PNCE   C2B 4660   0.817  10.584   7.508  0.0153  0.0689 -0.0727
  518PNCE   C3B 4661   1.003  10.653   7.188 -0.0404  0.2857  0.2488
  518PNCE   D4B 4662   0.895  10.908   6.917  0.1580 -0.1789 -0.0401
  518PNCE   C5B 4663   0.916  10.841   6.487  0.3057  0.0870 -0.1337
  518PNCE   C6B 4664   0.879  10.730   6.037  0.0752  0.2720  0.0674
  519XCA    COO 4665   2.717  10.624   7.782  0.1355 -0.1557 -0.0143
  519XCA     C1 4666   2.647  10.737   7.377  0.0455 -0.0985  0.0724
  519XCA     C2 4667   2.504  10.988   7.061  0.3824 -0.1006 -0.2042
  519XCA     C3 4668   2.644  11.227   6.695  0.0882 -0.0662  0.0666
  519XCA     C4 4669   2.561  11.620   6.463  0.2490  0.0160  0.0709
  519XCA     C5 4670   2.435  12.018   6.269  0.1101  0.3093 -0.0952
  519XCA     C6 4671   1.979  12.126   6.224 -0.0298  0.2579 -0.0552
  520XCA    COO 4672   6.410   5.314   4.050 -0.1549  0.0537 -0.0445
  520XCA     C1 4673   6.077   5.364   4.367  0.1031 -0.1263  0.0422
  520XCA     C2 4674   5.790   5.690   4.652 -0.1224  0.1736 -0.0350
  520XCA     C3 4675   5.787   6.061   4.796  0.0493  0.0941 -0.3555
  520XCA     C4 4676   5.854   6.146   5.205  0.2792 -0.1642  0.0421
  520XCA     C5 4677   5.762   6.302   5.673  0.0072  0.1101 -0.0964
  520XCA     C6 4678   5.401   6.246   5.803  0.0635 -0.0027 -0.1497
  521XCA    COO 4679   5.485   1.586   8.626  0.0892  0.0622 -0.2030
  521XCA     C1 4680   5.693   1.261   8.466 -0.0829  0.0238  0.2164
  521XCA     C2 4681   5.866   0.997   8.107  0.1164 -0.1035 -0.1665
  521XCA     C3 4682   5.997   0.764   7.732  0.0513  0.3437  0.1151
  521XCA     C4 4683   6.091   0.843   7.270 -0.1677 -0.1352  0.2027
  521XCA     C5 4684   6.031   0.557   6.975  0.0209  0.0493  0.1348
  521XCA     C6 4685   6.203   0.139   6.900  0.1237  0.0639 -0.0618
  522PNCE   AM1 4686   8.247   9.442   8.347  0.0523  0.1239 -0.1892
  522PNCE   AM2 4687   8.473   9.609   8.204 -0.0969 -0.0991  0.0598
  522PNCE   T1A 4688   7.979   9.687   7.981 -0.1134 -0.2274  0.1916
  522PNCE   C2A 4689   7.799  10.042   7.831 -0.2344  0.2056  0.1719
  522PNCE   C3A 4690   7.906  10.400   8.078  0.1610  0.2064  0.3116
  522PNCE   C1B 4691   8.501   9.685   7.726  0.0274 -0.2671 -0.1274
  522PNCE   C2B 4692   8.582   9.639   7.313  0.0104 -0.1394 -0.0276
  522PNCE   C3B 4693   8.448   9.765   6.903  0.3611  0.0209  0.0370
  522PNCE   D4B 4694   8.280   9.590   6.581  0.2200  0.4569  0.1725
  522PNCE   C5B 4695   7.952   9.321   6.575  0.0391  0.1013 -0.2278
  522PNCE   C6B 4696   7.800   8.962   6.267  0.1952  0.1112  0.0034
  523CHOL   ROH 4697  10.157  10.647   7.796 -0.0290  0.2305 -0.0415
  523CHOL    R1 4698  10.016  10.808   7.611  0.0978  0.3753 -0.0117
  523CHOL    R2 4699  10.143  10.947   7.409  0.1697  0.0183 -0.2134
  523CHOL    R3 4700   9.966  10.815   7.251 -0.2203  0.2455  0.0299
  523CHOL    R4 4701  10.027  11.061   7.104  0.3366 -0.0982 -0.3195
  523CHOL    R5 4702   9.829  10.987   7.157  0.1717  0.4635 -0.1459
  523CHOL    C1 4703   9.794  11.003   6.778  0.0669  0.0478 -0.1537
  523CHOL    C2 4704   9.694  11.109   6.434 -0.3337 -0.2628  0.1637
  524XCA    COO 4705   8.871  15.939   8.714 -0.2096  0.2210 -0.0017
  524XCA     C1 4706   8.746  15.677   8.484 -0.0925  0.0350  0.2193
  524XCA     C2 4707   8.723  15.324   8.151 -0.1570 -0.1082  0.2364
  524XCA     C3 4708   9.089  14.977   7.885 -0.2081  0.2102  0.0515
  524XCA     C4 4709   9.544  15.031   7.711  0.5343  0.0969  0.1982
  524XCA     C5 4710   9.780  14.891   7.429  0.0791 -0.1339 -0.0063
  524XCA     C6 4711   9.813  14.495   7.512 -0.1821 -0.0065  0.3430
  525CHOL   ROH 4712  11.892   4.551   4.086  0.1757 -0.0385 -0.1042
  525CHOL    R1 4713  11.818   4.596   4.356  0.0582  0.0913 -0.1576
  525CHOL    R2 4714  11.835   4.399   4.549 -0.1813  0.1364 -0.0901
  525CHOL    R3 4715  11.982   4.586   4.680 -0.1261  0.0757 -0.0646
  525CHOL    R4 4716  11.941   4.373   4.877 -0.1287  0.0293 -0.1152
  525CHOL    R5 4717  11.895   4.584   4.904 -0.0882  0.0300 -0.0498
  525CHOL    C1 4718  12.141   4.533   5.191 -0.0478 -0.0907 -0.1065
  525CHOL    C2 4719  12.510   4.392   5.277  0.0183 -0.2444 -0.2953
  526PNCE   AM1 4720  10.637   0.040   9.026 -0.1967  0.0880  0.4106
  526PNCE   AM2 4721  10.533  -0.331   9.106 -0.1695 -0.2715  0.2999
  526PNCE   T1A 4722  10.658   0.106   8.596  0.2211 -0.0073 -0.0660
  526PNCE   C2A 4723  10.655   0.030   8.044  0.0563 -0.1571 -0.2015
  526PNCE   C3A 4724  10.459   0.262   7.652  0.1341 -0.1855 -0.0666
  526PNCE   C1B 4725  10.722  -0.374   8.748  0.1196  0.0915 -0.1559
  526PNCE   C2B 4726  10.873  -0.433   8.361  0.1008 -0.2692  0.2434
  526PNCE   C3B 4727  10.967  -0.593   7.920  0.1532  0.0332 -0.0928
  526PNCE   D4B 4728  11.243  -0.864   7.750  0.1405  0.2362 -0.1845
  526PNCE   C5B 4729  11.389  -0.612   7.375 -0.0193  0.1787 -0.0933
  526PNCE   C6B 4730  11.568  -0.990   7.078  0.2792 -0.1144  0.0840
  527XCA    COO 4731  13.319  10.853   8.092  0.0590 -0.0360  0.0258
  527XCA     C1 4732  13.075  11.019   7.652  0.1355 -0.1982 -0.0704
  527XCA     C2 4733  13.139  10.836   7.196  0.1299  0.1691  0.1211
  527XCA     C3 4734  13.105  10.983   6.692 -0.2473  0.1066  0.3582
  527XCA     C4 4735  13.275  11.110   6.362 -0.1145 -0.1320  0.1398
  527XCA     C5 4736  13.324  11.302   6.022 -0.0908 -0.1766  0.0905
  527XCA     C6 4737  13.191  11.657   5.864  0.2395  0.4846 -0.0802
  528CHOL   ROH 4738   6.413   9.036   4.333  0.0775 -0.0661 -0.1451
  528CHOL    R1 4739   6.656   8.953   4.452  0.0026  0.1111  0.1318
  528CHOL    R2 4740   6.698   8.961   4.725 -0.4484 -0.2080  0.2113
  528CHOL    R3 4741   6.761   8.698   4.690 -0.0238 -0.0731 -0.0524
  528CHOL    R4 4742   6.918   8.782   4.923 -0.5181 -0.1740  0.3197
  528CHOL    R5 4743   6.994   8.686   4.742 -0.0904  0.1822  0.3073
  528CHOL    C1 4744   7.105   8.432   5.005 -0.1601 -0.0263  0.1351
  528CHOL    C2 4745   7.503   8.349   5.062  0.2761 -0.2404 -0.1231
  529XCA    COO 4746  12.213   2.559   4.476  0.0383  0.0403  0.0417
  529XCA     C1 4747  12.453   2.516   4.765 -0.3293 -0.1545 -0.2568
  529XCA     C2 4748  12.795   2.687   5.045 -0.2985  0.0104 -0.0457
  529XCA     C3 4749  12.957   2.510   5.365  0.4236 -0.0963  0.3930
  529XCA     C4 4750  13.205   2.201   5.465 -0.1252  0.1998  0.1916
  529XCA     C5 4751  13.430   1.856   5.564  0.4148  0.1582 -0.1918
  529XCA     C6 4752  13.969   1.877   5.621 -0.0261 -0.2719 -0.3716
  530PNCE   AM1 4753  13.459   5.320   7.450 -0.0745 -0.0161 -0.1465
  530PNCE   AM2 4754  13.445   5.541   7.796 -0.0433  0.4307 -0.2847
  530PNCE   T1A 4755  13.699   5.246   7.082  0.4128 -0.1190 -0.2137
  530PNCE   C2A 4756  13.787   5.190   6.679 -0.0958 -0.1562  0.0618
  530PNCE   C3A 4757  13.698   5.312   6.338 -0.0259 -0.3486 -0.2336
  530PNCE   C1B 4758  13.510   5.859   7.483 -0.0406 -0.0366 -0.1387
  530PNCE   C2B 4759  13.501   6.192   7.140 -0.2054  0.2793  0.3610
  530PNCE   C3B 4760  13.766   6.468   6.871  0.3580  0.2228 -0.0750
  530PNCE   D4B 4761  14.011   6.815   6.776 -0.0218  0.2099 -0.1158
  530PNCE   C5B 4762  14.260   7.005   6.514 -0.0467 -0.1576  0.0708
  530PNCE   C6B 4763  14.494   7.317   6.390 -0.0305 -0.3785 -0.3962
  531CHOL   ROH 4764   7.402  14.965   5.164  0.0852  0.0314  0.2747
  531CHOL    R1 4765   7.347  14.782   5.373  0.1643 -0.1760  0.1137
  531CHOL    R2 4766   7.090  14.701   5.437  0.1521  0.0997  0.4172
  531CHOL    R3 4767   7.194  14.453   5.403 -0.2535 -0.0029 -0.0930
  531CHOL    R4 4768   7.018  14.429   5.636  0.3891  0.0238  0.3996
  531CHOL    R5 4769   7.228  14.372   5.626  0.2921 -0.2303 -0.2558
  531CHOL    C1 4770   7.073  14.036   5.721  0.1473 -0.1170 -0.0888
  531CHOL    C2 4771   6.798  14.099   5.936 -0.0335  0.1845  0.0256
  532PNCE   AM1 4772   2.623   8.838   7.809  0.0575 -0.1723 -0.1580
  532PNCE   AM2 4773   2.389   8.689   8.103  0.2742  0.1167  0.1361
  532PNCE   T1A 4774   2.791   8.901   7.404 -0.0999 -0.1703  0.1144
  532PNCE   C2A 4775   2.966   9.084   7.077  0.1207 -0.0427  0.2578
  532PNCE   C3A 4776   3.003   9.218   6.667  0.0367  0.0934 -0.0199
  532PNCE   C1B 4777   2.072   8.804   7.864 -0.0795  0.0888  0.2553
  532PNCE   C2B 4778   1.758   9.145   7.621  0.1044  0.2272 -0.3179
  532PNCE   C3B 4779   1.944   9.261   7.215 -0.0023  0.0875  0.1766
  532PNCE   D4B 4780   1.989   9.161   6.783  0.0793  0.0168 -0.0399
  532PNCE   C5B 4781   1.827   9.126   6.339  0.1051 -0.0596 -0.0038
  532PNCE   C6B 4782   1.862   9.290   5.978  0.0302 -0.1162  0.0229
  533PNCE   AM1 4783  16.328  12.035   8.474  0.0745 -0.0399  0.0548
  533PNCE   AM2 4784  16.513  11.863   8.797  0.1148  0.4047  0.3593
  533PNCE   T1A 4785  16.467  12.128   8.099 -0.2171 -0.2502 -0.2059
  533PNCE   C2A 4786  16.724  12.384   7.734 -0.0468 -0.4121 -0.0299
  533PNCE   C3A 4787  16.878  12.762   7.705  0.0795  0.1161  0.1457
  533PNCE   C1B 4788  16.723  11.684   8.291 -0.0737 -0.1090  0.0116
  533PNCE   C2B 4789  16.726  11.775   7.841  0.1033  0.1004 -0.3502
  533PNCE   C3B 4790  16.609  11.663   7.392  0.0124 -0.0051  0.1427
  533PNCE   D4B 4791  16.767  11.780   7.006 -0.0567  0.1933 -0.0853
  533PNCE   C5B 4792  17.030  11.483   6.793  0.1066  0.3182 -0.1032
  533PNCE   C6B 4793  17.089  11.295   6.414 -0.0359  0.0274 -0.1411
  534PNCE   AM1 4794   2.563   9.648   7.793 -0.2246  0.1532  0.1485
  534PNCE   AM2 4795   2.552   9.359   7.980  0.2183  0.3092  0.0481
  534PNCE   T1A 4796   2.885   9.794   7.500  0.0765 -0.0301  0.0358
  534PNCE   C2A 4797   3.132   9.526   7.195  0.3273  0.0491  0.0391
  534PNCE   C3A 4798   3.389   9.228   7.285 -0.1576 -0.3246 -0.1295
  534PNCE   C1B 4799   2.055   9.312   8.020 -0.0621 -0.1531  0.1250
  534PNCE   C2B 4800   1.624   9.484   8.001 -0.1363 -0.0928 -0.0178
  534PNCE   C3B 4801   1.245   9.494   7.827 -0.0821 -0.2151 -0.1155
  534PNCE   D4B 4802   0.829   9.246   7.696 -0.0322  0.0136  0.1270
  534PNCE   C5B 4803   0.727   8.919   7.784 -0.1950  0.1564 -0.0187
  534PNCE   C6B 4804   1.036   8.619   7.725  0.2591 -0.2383 -0.2866
  535PNCE   AM1 4805  13.077   7.164   7.552  0.0900  0.2097  0.1996
  535PNCE   AM2 4806  13.155   6.894   7.752 -0.0789 -0.0065  0.0452
  535PNCE   T1A 4807  13.172   7.084   7.162 -0.1486 -0.3684  0.0159
  535PNCE   C2A 4808  13.023   7.257   6.710 -0.0030 -0.0221  0.1531
  535PNCE   C3A 4809  13.380   7.484   6.469  0.1328 -0.1249 -0.1053
  535PNCE   C1B 4810  13.260   6.592   7.420 -0.3192 -0.1846 -0.1214
  535PNCE   C2B 4811  13.193   6.590   6.961  0.1728  0.0528  0.2284
  535PNCE   C3B 4812  13.138   6.715   6.575 -0.1493 -0.1942 -0.0342
  535PNCE   D4B 4813  13.428   6.624   6.233  0.2462 -0.0066  0.2006
  535PNCE   C5B 4814  13.643   6.243   6.160  0.0223  0.2295  0.1047
  535PNCE   C6B 4815  13.777   5.799   6.108  0.0692 -0.2059  0.0647
  536CHOL   ROH 4816  15.489   8.198   7.015 -0.3420  0.1847  0.1651
  536CHOL    R1 4817  15.525   8.282   6.747 -0.1578  0.1197  0.1693
  536CHOL    R2 4818  15.378   8.178   6.537  0.0231  0.0300  0.0863
  536CHOL    R3 4819  15.322   8.439   6.489  0.0031  0.0047 -0.0277
  536CHOL    R4 4820  15.311   8.311   6.226  0.1802 -0.0792  0.0062
  536CHOL    R5 4821  15.430   8.486   6.281  0.1163 -0.0405  0.0210
  536CHOL    C1 4822  15.220   8.635   5.999  0.2532 -0.1665 -0.1479
  536CHOL    C2 4823  15.283   8.451   5.707 -0.0257  0.1148 -0.0390
  537CHOL   ROH 4824  10.093   6.658   6.810  0.1986 -0.0021  0.1630
  537CHOL    R1 4825   9.957   6.590   6.572  0.1025  0.1230  0.1824
  537CHOL    R2 4826  10.022   6.700   6.327  0.1165  0.1227  0.1857
  537CHOL    R3 4827  10.042   6.440   6.252 -0.0633  0.1225  0.1379
  537CHOL    R4 4828  10.053   6.591   6.001 -0.1764  0.1483  0.1490
  537CHOL    R5 4829   9.917   6.427   6.048 -0.2198  0.2079  0.2282
  537CHOL    C1 4830  10.091   6.283   5.740 -0.5149  0.1634  0.0820
  537CHOL    C2 4831  10.151   5.964   5.464 -0.0555 -0.0086  0.0055
  538PNCE   AM1 4832   0.138   1.542   4.462 -0.0010  0.1238  0.0602
  538PNCE   AM2 4833   0.118   1.203   4.366  0.0887  0.0617  0.0475
  538PNCE   T1A 4834   0.378   1.663   4.767  0.2231  0.2947  0.3035
  538PNCE   C2A 4835   0.801   1.788   4.920 -0.0616  0.1782  0.0351
  538PNCE   C3A 4836   1.069   1.709   5.215  0.3378  0.1970 -0.3476
  538PNCE   C1B 4837   0.134   1.234   4.825  0.1636 -0.0869 -0.0305
  538PNCE   C2B 4838   0.129   1.205   5.232  0.0366 -0.0968  0.0540
  538PNCE   C3B 4839   0.425   1.363   5.639  0.0406 -0.0545 -0.1030
  538PNCE   D4B 4840   0.633   1.599   5.927  0.1097 -0.2712  0.1467
  538PNCE   C5B 4841   0.615   1.814   6.306  0.0800  0.1904  0.2111
  538PNCE   C6B 4842   0.823   2.043   6.713 -0.2473  0.1490  0.2179
  539XCA    COO 4843   6.672   8.753   4.040  0.0486 -0.3153  0.3043
  539XCA     C1 4844   6.882   8.507   4.291 -0.0515 -0.0553  0.2572
  539XCA     C2 4845   7.078   8.217   4.554  0.3650  0.0649 -0.0593
  539XCA     C3 4846   7.080   7.817   4.863  0.0521  0.2377  0.0958
  539XCA     C4 4847   7.098   7.549   5.160  0.4009  0.1244  0.1598
  539XCA     C5 4848   6.810   7.395   5.442 -0.1917  0.2259  0.2024
  539XCA     C6 4849   6.395   7.347   5.454  0.0770 -0.0222 -0.0621
  540CHOL   ROH 4850  13.630   6.095   4.964  0.2205 -0.0091  0.0461
  540CHOL    R1 4851  13.535   6.275   5.160  0.0601  0.0448 -0.0811
  540CHOL    R2 4852  13.544   6.219   5.430 -0.1887  0.1067 -0.0597
  540CHOL    R3 4853  13.676   6.456   5.443 -0.1791  0.0986  0.0039
  540CHOL    R4 4854  13.588   6.405   5.718 -0.1240 -0.0048  0.0024
  540CHOL    R5 4855  13.551   6.585   5.602 -0.1421  0.0412  0.0792
  540CHOL    C1 4856  13.738   6.736   5.898 -0.0773 -0.0781  0.0984
  540CHOL    C2 4857  13.924   6.588   6.332  0.3720 -0.0518  0.0468
  541PNCE   AM1 4858   1.320   8.100   7.384  0.0144 -0.1198  0.0097
  541PNCE   AM2 4859   0.986   8.036   7.621 -0.3051  0.1047  0.0293
  541PNCE   T1A 4860   1.442   8.226   6.886 -0.0552  0.0368 -0.0830
  541PNCE   C2A 4861   1.297   8.367   6.488 -0.0882  0.0385 -0.0094
  541PNCE   C3A 4862   1.130   8.622   6.128  0.2107  0.0756  0.0830
  541PNCE   C1B 4863   0.913   8.199   7.119  0.1841 -0.4093 -0.3601
  541PNCE   C2B 4864   0.860   8.276   6.649  0.0794 -0.3234  0.1205
  541PNCE   C3B 4865   0.617   8.674   6.417  0.0261 -0.0655  0.0270
  541PNCE   D4B 4866   0.403   8.720   6.086  0.0725  0.2418 -0.3586
  541PNCE   C5B 4867   0.225   9.100   5.969 -0.1210 -0.0017  0.0666
  541PNCE   C6B 4868  -0.040   9.353   6.215  0.0229 -0.1378 -0.1653
  542PNCE   AM1 4869  15.989   6.769   7.308 -0.1075  0.3232 -0.3038
  542PNCE   AM2 4870  15.754   6.669   7.303  0.2879 -0.1965  0.2527
  542PNCE   T1A 4871  16.154   6.990   6.988 -0.1351  0.0418  0.2020
  542PNCE   C2A 4872  16.105   7.037   6.623 -0.1847 -0.1989  0.3795
  542PNCE   C3A 4873  16.064   7.012   6.206 -0.3603 -0.2286  0.3291
  542PNCE   C1B 4874  15.430   6.350   7.158 -0.0093 -0.2460  0.0519
  542PNCE   C2B 4875  15.382   5.992   6.846  0.3198  0.3011  0.1090
  542PNCE   C3B 4876  15.343   5.568   6.864 -0.0874  0.1030  0.0931
  542PNCE   D4B 4877  15.574   5.418   6.496  0.4124 -0.1459  0.0198
  542PNCE   C5B 4878  15.615   5.737   6.282 -0.2650 -0.0490 -0.1078
  542PNCE   C6B 4879  15.331   5.910   5.920 -0.1104  0.3697  0.6083
  543PNCE   AM1 4880   8.423   8.869   8.212 -0.0557  0.2543  0.2082
  543PNCE   AM2 4881   8.697   8.678   8.192 -0.2988  0.0204  0.1058
  543PNCE   T1A 4882   8.278   9.177   7.881  0.0668 -0.0755  0.0872
  543PNCE   C2A 4883   8.156   9.360   7.536 -0.2055 -0.0485 -0.1921
  543PNCE   C3A 4884   8.132   9.506   7.155 -0.1312  0.2313 -0.1879
  543PNCE   C1B 4885   8.683   8.714   7.747  0.2704 -0.0231 -0.3150
  543PNCE   C2B 4886   8.537   8.536   7.399  0.1245  0.1570 -0.2194
  543PNCE   C3B 4887   8.187   8.575   7.084 -0.0942  0.1036  0.1283
  543PNCE   D4B 4888   7.847   8.561   6.679 -0.0298 -0.0251 -0.0415
  543PNCE   C5B 4889   8.061   8.555   6.275 -0.0081  0.1453 -0.4418
  543PNCE   C6B 4890   8.214   8.955   6.005  0.1249 -0.2720  0.0671
  544CHOL   ROH 4891   6.048  11.760   4.309 -0.0260 -0.4319  0.0668
  544CHOL    R1 4892   5.981  11.681   4.572 -0.1922 -0.2375  0.0832
  544CHOL    R2 4893   6.076  11.812   4.796 -0.0590 -0.2821  0.0530
  544CHOL    R3 4894   5.812  11.830   4.858 -0.0484  0.1074 -0.0101
  544CHOL    R4 4895   5.951  11.879   5.112 -0.0403 -0.3567  0.0761
  544CHOL    R5 4896   5.795  11.731   5.076 -0.2799 -0.0610 -0.1040
  544CHOL    C1 4897   5.631  11.935   5.354 -0.0193 -0.0340  0.0302
  544CHOL    C2 4898   5.448  11.929   5.731 -0.3294 -0.2438  0.0570
  545PNCE   AM1 4899  10.802  10.329   8.115  0.0543 -0.2412  0.2215
  545PNCE   AM2 4900  10.833  10.520   8.323  0.2434 -0.1241 -0.0247
  545PNCE   T1A 4901  10.715  10.272   7.665  0.2257 -0.1136 -0.1117
  545PNCE   C2A 4902  10.816  10.221   7.216 -0.3270  0.3581 -0.0138
  545PNCE   C3A 4903  11.008  10.077   6.938  0.0930 -0.1498 -0.1282
  545PNCE   C1B 4904  10.586  10.733   7.811  0.0085 -0.1655  0.1164
  545PNCE   C2B 4905  10.573  10.757   7.400  0.0786  0.2435 -0.2976
  545PNCE   C3B 4906  10.506  11.072   7.082 -0.3046 -0.2755  0.3586
  545PNCE   D4B 4907  10.563  10.744   6.651  0.1740  0.0567  0.2023
  545PNCE   C5B 4908  10.858  10.463   6.556 -0.0911 -0.2680  0.1610
  545PNCE   C6B 4909  10.887   9.992   6.400 -0.2869  0.0708 -0.4057
  546PNCE   AM1 4910   5.599   4.008   8.021 -0.1511 -0.0277 -0.1900
  546PNCE   AM2 4911   5.283   4.203   7.888 -0.0575 -0.0090 -0.4083
  546PNCE   T1A 4912   5.793   3.644   7.773 -0.1575  0.0576 -0.0455
  546PNCE   C2A 4913   5.998   3.372   7.458  0.2228  0.3433  0.2128
  546PNCE   C3A 4914   5.862   3.120   7.110 -0.0855  0.4183 -0.0632
  546PNCE   C1B 4915   5.541   4.025   7.473 -0.0756 -0.0449  0.0518
  546PNCE   C2B 4916   5.579   3.653   7.266  0.3192  0.0134 -0.1372
  546PNCE   C3B 4917   5.406   3.275   7.127 -0.1350 -0.1538 -0.0725
  546PNCE   D4B 4918   5.414   2.959   6.898  0.2526 -0.0681 -0.0109
  546PNCE   C5B 4919   5.698   2.833   6.691 -0.1239  0.0212 -0.1263
  546PNCE   C6B 4920   6.136   2.771   6.673 -0.0189  0.2288  0.0528
  547PNCE   AM1 4921   4.982   3.307   8.143  0.3437  0.2214  0.2873
  547PNCE   AM2 4922   5.118   3.560   8.022  0.2297 -0.1513  0.0594
  547PNCE   T1A 4923   4.985   2.882   7.951 -0.0621  0.1732  0.0583
  547PNCE   C2A 4924   4.972   2.450   7.786 -0.1422  0.1124  0.1722
  547PNCE   C3A 4925   5.017   2.048   7.952 -0.0739  0.4483  0.1038
  547PNCE   C1B 4926   5.148   3.739   7.610 -0.6318 -0.0685 -0.1358
  547PNCE   C2B 4927   5.077   3.960   7.261  0.0058  0.3396 -0.2288
  547PNCE   C3B 4928   4.880   4.076   6.898  0.1736  0.1527  0.1793
  547PNCE   D4B 4929   4.711   4.025   6.513 -0.2436 -0.2593  0.2504
  547PNCE   C5B 4930   5.060   3.789   6.364  0.2131  0.0388 -0.0446
  547PNCE   C6B 4931   5.491   3.693   6.287  0.4727  0.3119  0.3113
  548PNCE   AM1 4932   5.711   7.256   7.590 -0.1354  0.2958  0.2217
  548PNCE   AM2 4933   5.933   7.040   7.504  0.1813 -0.2616  0.1014
  548PNCE   T1A 4934   6.024   7.460   7.266 -0.1051  0.1323  0.2548
  548PNCE   C2A 4935   6.081   7.527   6.784 -0.0459  0.0324 -0.1956
  548PNCE   C3A 4936   6.091   7.412   6.466  0.2187  0.1292  0.1101
  548PNCE   C1B 4937   5.980   6.997   7.028  0.6259 -0.4612  0.2051
  548PNCE   C2B 4938   5.793   7.071   6.674 -0.0957  0.0310  0.1453
  548PNCE   C3B 4939   5.594   7.371   6.516  0.3484 -0.0846  0.0517
  548PNCE   D4B 4940   5.195   7.465   6.513 -0.3724 -0.0226 -0.1356
  548PNCE   C5B 4941   4.752   7.581   6.597  0.1790  0.0447  0.2427
  548PNCE   C6B 4942   4.417   7.660   6.272  0.1577 -0.2223 -0.2365
  549CHOL   ROH 4943  15.018  12.513   7.688  0.0555 -0.0313 -0.0163
  549CHOL    R1 4944  15.262  12.609   7.795  0.1330 -0.1631 -0.0741
  549CHOL    R2 4945  15.497  12.464   7.783  0.1217 -0.1547 -0.4105
  549CHOL    R3 4946  15.593  12.691   7.668  0.0456 -0.0193 -0.2104
  549CHOL    R4 4947  15.812  12.595   7.837  0.0486 -0.0505 -0.2310
  549CHOL    R5 4948  15.724  12.794   7.840 -0.0448 -0.0925 -0.0973
  549CHOL    C1 4949  16.086  12.883   7.760 -0.0666  0.1365  0.0605
  549CHOL    C2 4950  16.313  12.739   7.974 -0.1331 -0.1017 -0.2737
  550XCA    COO 4951  16.069   7.894   3.877 -0.0634  0.4223 -0.2212
  550XCA     C1 4952  15.792   7.649   4.137 -0.1413  0.0296 -0.2412
  550XCA     C2 4953  15.701   7.203   4.214 -0.0725  0.0866  0.0937
  550XCA     C3 4954  15.516   6.908   4.434 -0.0962  0.1419  0.1508
  550XCA     C4 4955  15.329   6.519   4.496  0.1516 -0.2660  0.0389
  550XCA     C5 4956  15.352   6.112   4.305 -0.0989 -0.2642 -0.0605
  550XCA     C6 4957  15.569   5.814   4.120 -0.2203  0.1773  0.0183
  551PNCE   AM1 4958  11.980   1.661   7.940 -0.0624 -0.3475 -0.1190
  551PNCE   AM2 4959  12.079   1.359   7.941 -0.2214  0.3182 -0.1224
  551PNCE   T1A 4960  12.253   1.892   7.651 -0.2691 -0.0575  0.2851
  551PNCE   C2A 4961  12.430   2.017   7.126  0.3427 -0.3019 -0.0153
  551PNCE   C3A 4962  12.773   2.243   6.876  0.3347 -0.0635 -0.0763
  551PNCE   C1B 4963  12.163   1.093   7.615  0.2705 -0.1571  0.0603
  551PNCE   C2B 4964  12.152   1.019   7.185  0.0553  0.1449  0.2612
  551PNCE   C3B 4965  12.275   0.992   6.808 -0.0676 -0.0605  0.1561
  551PNCE   D4B 4966  12.197   1.146   6.437  0.2898  0.0206  0.2944
  551PNCE   C5B 4967  11.900   1.533   6.349 -0.0271 -0.0422  0.3280
  551PNCE   C6B 4968  11.796   1.964   6.228 -0.1217 -0.1298 -0.1661
  552XCA    COO 4969  11.457  15.808   9.223 -0.0987 -0.1564 -0.1895
  552XCA     C1 4970  11.200  15.703   8.789  0.3694  0.0878  0.0648
  552XCA     C2 4971  11.203  15.500   8.345  0.0187 -0.3088  0.0071
  552XCA     C3 4972  11.131  15.034   8.131  0.1935  0.0840 -0.0477
  552XCA     C4 4973  10.928  14.993   7.780  0.0299  0.2409  0.3192
  552XCA     C5 4974  10.668  14.917   7.448  0.0938 -0.1141  0.3112
  552XCA     C6 4975  10.366  14.950   7.242  0.0063 -0.1040  0.0608
  553PNCE   AM1 4976   2.089  12.445   8.346  0.1253  0.0952 -0.0728
  553PNCE   AM2 4977   2.289  12.575   8.123 -0.1081  0.3930  0.1175
  553PNCE   T1A 4978   1.807  12.746   8.058 -0.1538  0.0859  0.3794
  553PNCE   C2A 4979   1.752  12.926   7.597 -0.0203 -0.0176 -0.1136
  553PNCE   C3A 4980   1.901  13.277   7.425 -0.1213 -0.2353  0.0868
  553PNCE   C1B 4981   2.193  12.975   7.836 -0.0557 -0.1190 -0.4404
  553PNCE   C2B 4982   2.390  13.197   7.555  0.1425  0.0408 -0.1383
  553PNCE   C3B 4983   2.364  13.484   7.318 -0.3003  0.3411  0.1414
  553PNCE   D4B 4984   2.382  13.794   7.012 -0.1607  0.0057  0.0776
  553PNCE   C5B 4985   2.182  13.697   6.650 -0.1113 -0.1004 -0.0556
  553PNCE   C6B 4986   1.741  13.801   6.658 -0.2845 -0.1791  0.0595
  554CHOL   ROH 4987   5.245   4.862   4.252 -0.1118  0.0004  0.0491
  554CHOL    R1 4988   5.326   4.786   4.512 -0.0031  0.0803  0.0386
  554CHOL    R2 4989   5.570   4.668   4.563 -0.0172  0.0185 -0.0391
  554CHOL    R3 4990   5.596   4.872   4.741  0.1447  0.0830 -0.1359
  554CHOL    R4 4991   5.787   4.670   4.832 -0.1512 -0.1056  0.0706
  554CHOL    R5 4992   5.631   4.764   4.952 -0.0970  0.1526 -0.0594
  554CHOL    C1 4993   5.937   4.863   5.156 -0.0782 -0.1168  0.0429
  554CHOL    C2 4994   6.175   5.155   5.396  0.2191  0.2199  0.0716
  555CHOL   ROH 4995   5.368   8.843   5.166  0.1760  0.3597 -0.2261
  555CHOL    R1 4996   5.600   8.717   5.267 -0.0119  0.1979  0.0033
  555CHOL    R2 4997   5.850   8.752   5.154  0.0781 -0.1981  0.0787
  555CHOL    R3 4998   5.919   8.823   5.407  0.0460 -0.0233  0.0385
  555CHOL    R4 4999   6.168   8.727   5.286  0.0722 -0.0591  0.1199
  555CHOL    R5 5000   6.080   8.658   5.473  0.0694  0.0463  0.1571
  555CHOL    C1 5001   6.419   8.779   5.600  0.0387  0.1862  0.1062
  555CHOL    C2 5002   6.640   8.664   5.886 -0.1535 -0.1224  0.4550
  556CHOL   ROH 5003  15.434   2.808   8.156 -0.3294 -0.0051 -0.2950
  556CHOL    R1 5004  15.493   2.863   7.884  0.1597  0.2587 -0.1369
  556CHOL    R2 5005  15.750   2.909   7.794  0.3958 -0.2825  0.2594
  556CHOL    R3 5006  15.690   2.709   7.620  0.0859  0.1441 -0.1252
  556CHOL    R4 5007  15.936   2.829   7.514  0.5293 -0.3331  0.3622
  556CHOL    R5 5008  15.750   2.798   7.405  0.5779  0.3232  0.0849
  556CHOL    C1 5009  15.989   2.594   7.188  0.3152  0.0381  0.0613
  556CHOL    C2 5010  16.151   2.345   7.113 -0.1696  0.1907 -0.0735
  557PNCE   AM1 5011  12.085   9.905   7.881  0.0693 -0.1005 -0.1083
  557PNCE   AM2 5012  11.931   9.589   7.929  0.0374  0.1402  0.1241
  557PNCE   T1A 5013  12.058  10.257   7.573  0.0525  0.0458  0.1701
  557PNCE   C2A 5014  12.033  10.593   7.270  0.0974 -0.1703  0.1181
  557PNCE   C3A 5015  11.680  10.768   6.999 -0.0663  0.2751 -0.2434
  557PNCE   C1B 5016  12.121   9.572   7.492  0.0226 -0.2092 -0.1616
  557PNCE   C2B 5017  12.285   9.492   7.102  0.1606  0.1071 -0.1800
  557PNCE   C3B 5018  12.296   9.568   6.724  0.1518 -0.1035  0.0603
  557PNCE   D4B 5019  12.302   9.973   6.565  0.3051  0.0245 -0.1609
  557PNCE   C5B 5020  12.218   9.897   6.165  0.0321 -0.2280  0.0757
  557PNCE   C6B 5021  12.405   9.675   5.880  0.0569  0.0791  0.0208
  558CHOL   ROH 5022  11.927  12.383   5.617  0.1307 -0.0779 -0.2584
  558CHOL    R1 5023  12.047  12.306   5.862 -0.0610  0.1597 -0.0877
  558CHOL    R2 5024  11.921  12.335   6.105 -0.4065  0.0440 -0.2522
  558CHOL    R3 5025  11.976  12.069   6.129 -0.0556  0.1275 -0.1152
  558CHOL    R4 5026  11.979  12.170   6.404 -0.3624  0.2408 -0.1521
  558CHOL    R5 5027  12.137  12.057   6.305 -0.1450  0.4201 -0.0117
  558CHOL    C1 5028  12.064  11.826   6.600 -0.0058  0.4331  0.0340
  558CHOL    C2 5029  12.282  11.707   6.962 -0.1434  0.0792 -0.0986
  559PNCE   AM1 5030   4.932   0.120   8.566 -0.1124 -0.1423 -0.0667
  559PNCE   AM2 5031   4.808  -0.155   8.307  0.0504  0.0555 -0.1833
  559PNCE   T1A 5032   5.240   0.410   8.399 -0.1475  0.0783  0.1830
  559PNCE   C2A 5033   5.307   0.873   8.485 -0.0222 -0.1448  0.1112
  559PNCE   C3A 5034   5.278   1.095   8.744 -0.0302 -0.1898  0.1983
  559PNCE   C1B 5035   5.106   0.037   8.006  0.0848  0.1602 -0.0621
  559PNCE   C2B 5036   5.160   0.074   7.603  0.1381 -0.2091 -0.0918
  559PNCE   C3B 5037   4.850   0.237   7.425 -0.0880 -0.1373 -0.1801
  559PNCE   D4B 5038   4.972   0.572   7.127 -0.2177 -0.1046  0.2712
  559PNCE   C5B 5039   5.226   0.650   6.760 -0.0298  0.3005 -0.0034
  559PNCE   C6B 5040   5.221   0.377   6.570  0.3362  0.1366 -0.0592
  560PNCE   AM1 5041  16.055   5.331   7.411 -0.6878  0.1266 -0.2745
  560PNCE   AM2 5042  16.073   5.705   7.459  0.0804 -0.0706  0.2835
  560PNCE   T1A 5043  16.517   5.535   7.465  0.2752  0.0475  0.3670
  560PNCE   C2A 5044  16.904   5.559   7.282 -0.0153 -0.1000 -0.0090
  560PNCE   C3A 5045  16.877   5.219   6.998 -0.4669 -0.2109 -0.0170
  560PNCE   C1B 5046  16.306   5.902   7.137 -0.0990  0.0621 -0.1527
  560PNCE   C2B 5047  16.398   6.115   6.749 -0.0758 -0.1974 -0.1394
  560PNCE   C3B 5048  16.702   6.051   6.489  0.2691  0.2911  0.0937
  560PNCE   D4B 5049  17.011   5.813   6.265  0.3869  0.3609  0.0278
  560PNCE   C5B 5050  17.384   5.554   6.532 -0.1543 -0.0108  0.1965
  560PNCE   C6B 5051  17.616   5.915   6.702 -0.1297 -0.2668  0.0980
  561PNCE   AM1 5052   7.652   3.405   8.165  0.2871 -0.1222  0.0679
  561PNCE   AM2 5053   7.881   3.153   8.111 -0.2009 -0.0365 -0.1395
  561PNCE   T1A 5054   7.442   3.479   7.767  0.3087  0.2145  0.1412
  561PNCE   C2A 5055   7.182   3.275   7.442  0.1301  0.0163 -0.0526
  561PNCE   C3A 5056   7.265   3.058   7.237 -0.1447  0.2762 -0.0070
  561PNCE   C1B 5057   7.943   3.435   7.672  0.0967  0.2261  0.2519
  561PNCE   C2B 5058   7.600   3.515   7.286  0.0110  0.0328 -0.1525
  561PNCE   C3B 5059   7.480   3.404   6.956 -0.1537  0.0764  0.1849
  561PNCE   D4B 5060   7.221   3.009   6.788 -0.2193  0.0057  0.4680
  561PNCE   C5B 5061   7.039   2.651   6.900 -0.1221  0.1712 -0.0259
  561PNCE   C6B 5062   7.018   2.219   6.867 -0.1129  0.1292 -0.1315
  562PNCE   AM1 5063  10.072   2.623   4.366  0.1964 -0.0397  0.0908
  562PNCE   AM2 5064   9.721   2.453   4.433 -0.1027  0.1312  0.1677
  562PNCE   T1A 5065  10.467   2.710   4.580 -0.0099 -0.0233  0.1077
  562PNCE   C2A 5066  10.603   2.958   4.866 -0.0226  0.3402 -0.0935
  562PNCE   C3A 5067  10.987   3.192   4.883  0.1118 -0.0382 -0.0879
  562PNCE   C1B 5068   9.991   2.302   4.781 -0.0480 -0.0164 -0.3640
  562PNCE   C2B 5069  10.288   2.422   5.064  0.2012  0.1767  0.0384
  562PNCE   C3B 5070  10.622   2.483   5.263 -0.1481 -0.0449 -0.2019
  562PNCE   D4B 5071  11.012   2.390   5.441  0.0230  0.1122 -0.1525
  562PNCE   C5B 5072  11.059   2.061   5.523  0.2742  0.1318  0.2533
  562PNCE   C6B 5073  10.813   1.771   5.831 -0.0953 -0.0257 -0.2359
  563PNCE   AM1 5074  16.357   6.287   7.428 -0.1364  0.0278 -0.0982
  563PNCE   AM2 5075  16.007   6.206   7.336 -0.0120 -0.1026  0.1218
  563PNCE   T1A 5076  16.329   6.506   7.040  0.2800 -0.3560 -0.0638
  563PNCE   C2A 5077  16.110   6.535   6.703  0.1771  0.0956  0.1263
  563PNCE   C3A 5078  15.719   6.657   6.709 -0.2251  0.2874 -0.1637
  563PNCE   C1B 5079  15.923   6.104   6.924  0.2344 -0.2460  0.2269
  563PNCE   C2B 5080  15.961   6.039   6.472  0.0589 -0.1451  0.3084
  563PNCE   C3B 5081  16.062   5.807   6.037  0.2069  0.0272 -0.2151
  563PNCE   D4B 5082  16.307   5.384   5.902  0.1154  0.0226  0.0647
  563PNCE   C5B 5083  16.163   5.261   5.579 -0.0912 -0.0140  0.1303
  563PNCE   C6B 5084  16.123   5.218   5.197  0.0108 -0.2013  0.1722
  564PNCE   AM1 5085   1.294  10.360   7.806 -0.0030 -0.2503 -0.0015
  564PNCE   AM2 5086   1.603  10.442   7.763  0.2089 -0.2407  0.0590
  564PNCE   T1A 5087   1.334  10.756   7.565  0.2049  0.1766 -0.0373
  564PNCE   C2A 5088   1.148  11.133   7.325 -0.1570 -0.1328  0.2889
  564PNCE   C3A 5089   1.186  11.395   7.058  0.1400 -0.2901 -0.1076
  564PNCE   C1B 5090   1.385  10.268   7.320 -0.1837 -0.1055 -0.0337
  564PNCE   C2B 5091   1.562  10.381   6.925  0.1732 -0.1920 -0.0025
  564PNCE   C3B 5092   1.861  10.304   6.622  0.4145 -0.1256 -0.0913
  564PNCE   D4B 5093   2.225  10.528   6.468  0.0195  0.0689  0.0227
  564PNCE   C5B 5094   2.609  10.777   6.574  0.1744  0.0186 -0.0382
  564PNCE   C6B 5095   2.941  10.478   6.561  0.2024  0.1405 -0.0403
  565CHOL   ROH 5096  14.412   4.748   4.516  0.0227  0.0957  0.0095
  565CHOL    R1 5097  14.379   4.797   4.792  0.0095  0.0758  0.0117
  565CHOL    R2 5098  14.202   4.654   4.949 -0.0112  0.0780 -0.0103
  565CHOL    R3 5099  14.422   4.609   5.101 -0.0250  0.0481 -0.0005
  565CHOL    R4 5100  14.196   4.549   5.278 -0.0377 -0.0741 -0.0598
  565CHOL    R5 5101  14.360   4.686   5.320 -0.0691 -0.0637  0.0257
  565CHOL    C1 5102  14.399   4.445   5.613 -0.0655 -0.1906 -0.0791
  565CHOL    C2 5103  14.322   4.301   6.058 -0.0812  0.2365  0.1730
  566CHOL   ROH 5104   1.133   1.184   4.701  0.0248  0.0067  0.1309
  566CHOL    R1 5105   1.161   1.306   4.954 -0.0142 -0.0625  0.1683
  566CHOL    R2 5106   0.975   1.276   5.156 -0.0601 -0.0935  0.1217
  566CHOL    R3 5107   1.191   1.196   5.300 -0.0996 -0.1560  0.1458
  566CHOL    R4 5108   1.003   1.301   5.499 -0.1515 -0.2357  0.1397
  566CHOL    R5 5109   1.212   1.360   5.473 -0.1435 -0.2275  0.2198
  566CHOL    C1 5110   1.223   1.240   5.835 -0.2417 -0.3772  0.1731
  566CHOL    C2 5111   1.507   1.437   6.081 -0.2407 -0.0264  0.0057
  567PNCE   AM1 5112  13.576   4.453   7.597 -0.0878 -0.0444  0.2876
  567PNCE   AM2 5113  13.775   4.246   7.622 -0.0545  0.1046  0.2038
  567PNCE   T1A 5114  13.762   4.802   7.363 -0.1761  0.1868  0.1999
  567PNCE   C2A 5115  14.078   5.101   7.479 -0.0885 -0.0112 -0.0276
  567PNCE   C3A 5116  14.223   5.534   7.628  0.4013  0.0998 -0.0273
  567PNCE   C1B 5117  13.656   4.408   7.110  0.1698  0.2878 -0.1516
  567PNCE   C2B 5118  13.748   4.599   6.614  0.0359 -0.0773 -0.0056
  567PNCE   C3B 5119  14.055   4.869   6.421  0.2134 -0.2710  0.0802
  567PNCE   D4B 5120  14.408   5.154   6.494  0.1982  0.1730 -0.3464
  567PNCE   C5B 5121  14.765   5.214   6.290  0.0604 -0.0527  0.0538
  567PNCE   C6B 5122  15.163   5.075   6.316 -0.0537 -0.0332 -0.1720
  568PNCE   AM1 5123   8.429   5.526   7.356 -0.0860 -0.1324 -0.1771
  568PNCE   AM2 5124   8.461   5.596   7.609 -0.1679 -0.2408 -0.0835
  568PNCE   T1A 5125   8.369   5.479   6.921  0.1740 -0.2609  0.1939
  568PNCE   C2A 5126   8.460   5.460   6.592 -0.2426  0.0331 -0.1511
  568PNCE   C3A 5127   8.743   5.219   6.519 -0.2512 -0.0130  0.1098
  568PNCE   C1B 5128   8.880   5.762   7.372  0.0774 -0.3111  0.0629
  568PNCE   C2B 5129   9.176   6.005   7.040  0.1245 -0.0877  0.0433
  568PNCE   C3B 5130   9.482   6.197   6.737 -0.0289 -0.0937 -0.1670
  568PNCE   D4B 5131   9.515   6.475   6.442 -0.0340 -0.1180 -0.0546
  568PNCE   C5B 5132   9.371   6.382   5.970  0.1038 -0.0451 -0.3567
  568PNCE   C6B 5133   8.993   6.674   5.713 -0.0472  0.1693 -0.2594
  569PNCE   AM1 5134   4.267  13.295   7.359  0.2278  0.2265 -0.1364
  569PNCE   AM2 5135   4.421  13.602   7.263  0.0458 -0.0351 -0.0128
  569PNCE   T1A 5136   4.258  12.992   7.025  0.0595  0.0324  0.1334
  569PNCE   C2A 5137   4.486  12.856   6.734  0.2394  0.0812 -0.1476
  569PNCE   C3A 5138   4.793  12.706   6.371 -0.1319 -0.2220  0.1526
  569PNCE   C1B 5139   4.385  13.517   6.793 -0.0111  0.2102 -0.1483
  569PNCE   C2B 5140   4.443  13.341   6.453  0.0516 -0.0318  0.1569
  569PNCE   C3B 5141   4.670  13.230   6.121 -0.1674 -0.1761 -0.1242
  569PNCE   D4B 5142   4.869  12.971   5.816 -0.0615  0.0661 -0.1161
  569PNCE   C5B 5143   5.315  12.707   6.002 -0.0236 -0.1202  0.1037
  569PNCE   C6B 5144   5.521  12.329   6.049  0.0194 -0.2501 -0.1007
  570CHOL   ROH 5145   8.329   3.209   8.010  0.0213 -0.0067 -0.0817
  570CHOL    R1 5146   8.444   3.311   7.773  0.0019  0.0151 -0.0823
  570CHOL    R2 5147   8.531   3.147   7.568 -0.1483  0.0398 -0.1663
  570CHOL    R3 5148   8.367   3.302   7.417 -0.1123  0.1800 -0.0611
  570CHOL    R4 5149   8.606   3.264   7.251 -0.3266 -0.1777 -0.2890
  570CHOL    R5 5150   8.514   3.454   7.305 -0.0396 -0.0443 -0.2713
  570CHOL    C1 5151   8.495   3.477   6.925 -0.3969 -0.1727 -0.2613
  570CHOL    C2 5152   8.499   3.854   7.021  0.0672  0.1773  0.0782
  571XCA    COO 5153   4.582   8.303   7.649  0.0185  0.2619  0.1725
  571XCA     C1 5154   4.637   8.188   7.172  0.0382 -0.1641  0.3007
  571XCA     C2 5155   4.777   8.136   6.814 -0.4278 -0.1023  0.1599
  571XCA     C3 5156   4.838   8.064   6.337  0.0023 -0.0050  0.1182
  571XCA     C4 5157   4.730   7.909   5.984 -0.0275  0.0618  0.0841
  571XCA     C5 5158   4.398   7.649   5.804 -0.0613  0.1034  0.3390
  571XCA     C6 5159   4.228   7.270   6.018 -0.1335  0.0057  0.1367
  572PNCE   AM1 5160   3.131   2.902   8.335  0.1518  0.1695 -0.0982
  572PNCE   AM2 5161   3.274   3.086   8.160 -0.2109  0.1993  0.0140
  572PNCE   T1A 5162   2.682   2.792   8.342 -0.0657  0.0961 -0.1740
  572PNCE   C2A 5163   2.459   2.923   8.033 -0.0948 -0.2853 -0.1790
  572PNCE   C3A 5164   1.942   2.971   8.117  0.1124 -0.0053  0.2576
  572PNCE   C1B 5165   3.262   3.249   7.689  0.0279 -0.2383  0.0632
  572PNCE   C2B 5166   3.337   3.556   7.410  0.0142 -0.2705 -0.1822
  572PNCE   C3B 5167   3.493   3.527   7.011  0.2039  0.4676 -0.2473
  572PNCE   D4B 5168   3.792   3.225   6.694  0.0889  0.1381 -0.3579
  572PNCE   C5B 5169   3.772   2.795   6.698  0.2673 -0.1955 -0.3744
  572PNCE   C6B 5170   3.927   2.488   6.452  0.3062  0.2480 -0.3392
  573CHOL   ROH 5171  15.271   1.368   4.730 -0.0053  0.0125  0.0693
  573CHOL    R1 5172  15.455   1.315   4.938  0.1168  0.2351  0.0191
  573CHOL    R2 5173  15.524   1.503   5.128 -0.3007  0.2182  0.1872
  573CHOL    R3 5174  15.449   1.308   5.302  0.1357 -0.1067  0.0128
  573CHOL    R4 5175  15.641   1.471   5.452 -0.3810  0.3098  0.2255
  573CHOL    R5 5176  15.649   1.255   5.422  0.2165  0.3501  0.0796
  573CHOL    C1 5177  15.639   1.270   5.804 -0.0198  0.0581  0.0845
  573CHOL    C2 5178  15.545   1.378   6.162  0.0675 -0.5881 -0.0667
  574PNCE   AM1 5179   6.674  12.600   8.142  0.0555 -0.0449 -0.2906
  574PNCE   AM2 5180   6.449  12.328   8.156  0.1144  0.1630  0.1336
  574PNCE   T1A 5181   7.112  12.787   8.092  0.0429  0.0463 -0.4500
  574PNCE   C2A 5182   7.270  12.971   7.828  0.0354  0.0016 -0.1271
  574PNCE   C3A 5183   7.723  13.012   7.679 -0.0593  0.1959 -0.1236
  574PNCE   C1B 5184   6.518  12.165   7.710  0.0182  0.3880 -0.0221
  574PNCE   C2B 5185   6.657  12.079   7.252  0.1738 -0.1669  0.0600
  574PNCE   C3B 5186   6.886  12.388   6.936  0.1567 -0.2133  0.0744
  574PNCE   D4B 5187   7.319  12.341   6.698 -0.0743  0.0420  0.0376
  574PNCE   C5B 5188   7.423  11.946   6.645  0.3459  0.0768  0.1680
  574PNCE   C6B 5189   7.769  11.677   6.778  0.0328 -0.2176  0.5260
  575PNCE   AM1 5190  14.110   2.497   8.019  0.0522  0.0686  0.0237
  575PNCE   AM2 5191  13.769   2.519   8.178 -0.2046 -0.1556 -0.1245
  575PNCE   T1A 5192  14.248   2.504   7.647 -0.1519  0.3787 -0.2378
  575PNCE   C2A 5193  14.225   2.540   7.205  0.1160  0.4686  0.0648
  575PNCE   C3A 5194  14.070   2.873   6.877  0.1159 -0.1482 -0.1190
  575PNCE   C1B 5195  13.694   2.576   7.689  0.0359 -0.0626 -0.0581
  575PNCE   C2B 5196  13.784   2.788   7.316 -0.2797 -0.1070  0.1830
  575PNCE   C3B 5197  13.795   3.158   7.123  0.0080 -0.0287 -0.1287
  575PNCE   D4B 5198  13.581   3.513   6.940  0.0650 -0.1404  0.0020
  575PNCE   C5B 5199  13.445   3.516   6.442  0.2689 -0.2323  0.2153
  575PNCE   C6B 5200  13.494   3.697   5.967 -0.2003  0.1835 -0.2964
  576XCA    COO 5201  11.068   4.759   4.175  0.1141 -0.1039 -0.0027
  576XCA     C1 5202  11.368   4.570   4.432 -0.1039 -0.4163 -0.0644
  576XCA     C2 5203  11.469   4.807   4.814  0.2126 -0.0463  0.2607
  576XCA     C3 5204  11.478   4.796   5.288 -0.0600 -0.1349 -0.1087
  576XCA     C4 5205  11.702   4.598   5.680  0.1165  0.0571 -0.0267
  576XCA     C5 5206  11.614   4.644   6.110  0.0159 -0.0837  0.2937
  576XCA     C6 5207  11.955   4.760   6.450  0.0740 -0.1544  0.0715
  577XCA    COO 5208   2.224   4.190   8.408  0.4190 -0.0033 -0.0893
  577XCA     C1 5209   2.256   3.944   7.980  0.0360 -0.0203 -0.0441
  577XCA     C2 5210   2.267   3.675   7.593 -0.1275  0.0119  0.2030
  577XCA     C3 5211   2.101   3.637   7.245  0.1180 -0.2436  0.1523
  577XCA     C4 5212   1.836   3.728   6.907 -0.0632 -0.1093 -0.2599
  577XCA     C5 5213   1.812   3.853   6.484  0.0925 -0.1673  0.2850
  577XCA     C6 5214   2.264   3.905   6.301 -0.4683  0.1203 -0.1121
  578PNCE   AM1 5215   4.510  11.165   7.178  0.1475  0.0649  0.0785
  578PNCE   AM2 5216   4.738  11.463   6.965 -0.1387 -0.0349 -0.0393
  578PNCE   T1A 5217   4.306  10.852   6.889 -0.2674 -0.0944  0.1328
  578PNCE   C2A 5218   4.402  10.788   6.499  0.0138 -0.1006 -0.6232
  578PNCE   C3A 5219   4.717  10.818   6.244  0.2656  0.1197 -0.5472
  578PNCE   C1B 5220   4.522  11.260   6.691 -0.2192 -0.1930 -0.1658
  578PNCE   C2B 5221   4.491  11.418   6.212  0.2954  0.1587  0.0767
  578PNCE   C3B 5222   4.412  11.625   5.913 -0.2076 -0.1927  0.0519
  578PNCE   D4B 5223   4.099  11.966   5.740  0.1131 -0.0747  0.2585
  578PNCE   C5B 5224   3.926  12.205   6.007 -0.0554 -0.0588  0.0348
  578PNCE   C6B 5225   3.832  12.598   6.161 -0.0011  0.0120 -0.1882
  579CHOL   ROH 5226   3.880   0.455   5.255  0.2411 -0.2151 -0.1698
  579CHOL    R1 5227   3.983   0.711   5.316  0.0271 -0.1517 -0.0751
  579CHOL    R2 5228   3.876   0.871   5.514 -0.0502 -0.3516  0.0451
  579CHOL    R3 5229   4.132   0.874   5.606 -0.0206 -0.1633 -0.0439
  579CHOL    R4 5230   3.966   0.900   5.846  0.0486 -0.0607 -0.0072
  579CHOL    R5 5231   4.128   1.033   5.786 -0.0334 -0.0302 -0.1614
  579CHOL    C1 5232   4.258   0.920   6.126  0.1342  0.2854 -0.1210
  579CHOL    C2 5233   4.063   1.183   6.256 -0.0491 -0.0956 -0.1129
  580PNCE   AM1 5234  12.291   6.915   7.386  0.2318 -0.0694 -0.1019
  580PNCE   AM2 5235  12.144   7.249   7.383  0.1386  0.0917  0.0130
  580PNCE   T1A 5236  12.169   6.697   7.123  0.2258 -0.1610 -0.4294
  580PNCE   C2A 5237  12.095   6.586   6.642 -0.0206 -0.0960 -0.1239
  580PNCE   C3A 5238  12.086   6.491   6.213  0.1224  0.0396  0.5787
  580PNCE   C1B 5239  12.067   7.164   6.932  0.0890  0.2338 -0.2485
  580PNCE   C2B 5240  11.865   7.033   6.591  0.3160  0.2534 -0.2006
  580PNCE   C3B 5241  11.619   6.710   6.438 -0.1265  0.1570  0.0551
  580PNCE   D4B 5242  11.539   6.441   6.073 -0.2841 -0.2793 -0.0784
  580PNCE   C5B 5243  11.848   6.109   6.037  0.0034  0.0164  0.1166
  580PNCE   C6B 5244  12.248   6.064   5.786 -0.0976 -0.1306 -0.2056
  581CHOL   ROH 5245   6.424   3.073   5.639 -0.1449 -0.1794 -0.0512
  581CHOL    R1 5246   6.478   3.341   5.567  0.1574 -0.2505 -0.0882
  581CHOL    R2 5247   6.346   3.555   5.680 -0.0314 -0.1169 -0.5590
  581CHOL    R3 5248   6.598   3.641   5.736 -0.1299 -0.1961  0.0194
  581CHOL    R4 5249   6.439   3.887   5.714  0.0112 -0.1423 -0.4237
  581CHOL    R5 5250   6.623   3.841   5.606  0.2534 -0.2387  0.0255
  581CHOL    C1 5251   6.730   4.160   5.785 -0.0563 -0.2315  0.1984
  581CHOL    C2 5252   6.606   4.487   5.817 -0.0322 -0.1131  0.0790
  582CHOL   ROH 5253  15.346   3.145   6.182 -0.0320 -0.1936 -0.1016
  582CHOL    R1 5254  15.067   3.186   6.160 -0.0243 -0.0814  0.0160
  582CHOL    R2 5255  14.884   2.982   6.188 -0.0881 -0.0348 -0.0537
  582CHOL    R3 5256  14.776   3.147   6.374  0.0322 -0.1157  0.0870
  582CHOL    R4 5257  14.549   2.991   6.273 -0.0587  0.0378  0.0522
  582CHOL    R5 5258  14.563   3.209   6.283  0.0281  0.0256  0.1905
  582CHOL    C1 5259  14.253   3.152   6.498  0.0705  0.0043  0.2463
  582CHOL    C2 5260  13.806   3.162   6.616 -0.1619  0.0880  0.3431
  583CHOL   ROH 5261   4.503   1.138   5.276  0.0954 -0.0110  0.0860
  583CHOL    R1 5262   4.591   1.004   5.508  0.2630  0.0769  0.0741
  583CHOL    R2 5263   4.737   1.129   5.706 -0.0335  0.2844  0.1634
  583CHOL    R3 5264   4.540   1.035   5.867  0.0820 -0.1288  0.0664
  583CHOL    R4 5265   4.740   1.144   6.051 -0.0932  0.0080  0.1767
  583CHOL    R5 5266   4.655   0.944   6.056  0.1922 -0.1177  0.0045
  583CHOL    C1 5267   4.556   1.065   6.404 -0.0194 -0.5409  0.0932
  583CHOL    C2 5268   4.249   0.792   6.581 -0.0478  0.0780 -0.0635
  584XCA    COO 5269  16.081   7.210   7.708  0.0182  0.3705 -0.2773
  584XCA     C1 5270  16.093   7.433   7.253 -0.1282  0.0548 -0.0618
  584XCA     C2 5271  16.217   7.450   6.845  0.1179 -0.0562  0.2617
  584XCA     C3 5272  15.953   7.452   6.420 -0.0975  0.2827 -0.2585
  584XCA     C4 5273  16.155   7.469   5.999 -0.4458  0.0208  0.0545
  584XCA     C5 5274  16.411   7.153   5.828 -0.3773  0.0303 -0.0232
  584XCA     C6 5275  16.439   6.752   5.669  0.0588 -0.2084 -0.0949
  585PNCE   AM1 5276   1.991  11.654   8.158 -0.1428  0.0251 -0.1733
  585PNCE   AM2 5277   1.793  11.478   7.909  0.0566 -0.1723  0.1092
  585PNCE   T1A 5278   2.040  11.982   7.812  0.1058  0.2745 -0.1153
  585PNCE   C2A 5279   2.021  12.410   7.507 -0.2958 -0.0263 -0.0945
  585PNCE   C3A 5280   2.112  12.805   7.323 -0.1012  0.1661  0.1702
  585PNCE   C1B 5281   2.001  11.478   7.478 -0.0178 -0.2803  0.0006
  585PNCE   C2B 5282   1.880  11.727   7.176 -0.0552 -0.1376 -0.0175
  585PNCE   C3B 5283   1.811  12.188   7.080 -0.0002 -0.1114 -0.1329
  585PNCE   D4B 5284   1.747  12.546   7.128  0.0945  0.1177 -0.1239
  585PNCE   C5B 5285   1.732  12.957   6.953  0.0575 -0.1062  0.0016
  585PNCE   C6B 5286   1.415  13.363   6.785  0.0053 -0.0209  0.0300
  586PNCE   AM1 5287   4.512   6.784   7.680 -0.1075 -0.1431 -0.0930
  586PNCE   AM2 5288   4.234   6.813   7.815 -0.1886  0.0200 -0.0136
  586PNCE   T1A 5289   4.489   6.567   7.232 -0.1040  0.1635  0.2417
  586PNCE   C2A 5290   4.713   6.287   6.964  0.0863 -0.2223 -0.2784
  586PNCE   C3A 5291   4.938   6.019   7.024 -0.1253 -0.0999  0.0515
  586PNCE   C1B 5292   3.973   6.583   7.424 -0.3848 -0.0260 -0.2575
  586PNCE   C2B 5293   3.952   6.467   7.075  0.1799 -0.2567  0.1902
  586PNCE   C3B 5294   3.699   6.188   6.749 -0.2335 -0.0131 -0.1987
  586PNCE   D4B 5295   3.387   5.836   6.918 -0.1451  0.1891 -0.4356
  586PNCE   C5B 5296   3.394   5.630   6.537 -0.3849 -0.3185  0.1686
  586PNCE   C6B 5297   3.616   5.508   6.152 -0.0754  0.3299 -0.1533
  587CHOL   ROH 5298   2.027  11.626   4.921 -0.0749  0.1555  0.0201
  587CHOL    R1 5299   2.086  11.789   5.145  0.0637  0.0091  0.0894
  587CHOL    R2 5300   2.045  11.704   5.405  0.1377 -0.1252  0.0578
  587CHOL    R3 5301   2.307  11.772   5.433  0.1703 -0.2238 -0.0054
  587CHOL    R4 5302   2.207  11.743   5.708  0.2204 -0.1678  0.0191
  587CHOL    R5 5303   2.311  11.916   5.625  0.2689 -0.2146 -0.0155
  587CHOL    C1 5304   2.547  11.828   5.911  0.2993 -0.2875 -0.0631
  587CHOL    C2 5305   2.895  11.594   6.137 -0.1225 -0.0896 -0.0245
  588PNCE   AM1 5306   0.586   1.328   9.059 -0.1196 -0.0768  0.0263
  588PNCE   AM2 5307   0.812   1.207   9.122  0.3953 -0.1059 -0.0478
  588PNCE   T1A 5308   0.403   1.016   8.693 -0.0887 -0.0861  0.2880
  588PNCE   C2A 5309   0.351   0.892   8.252 -0.1688  0.1338  0.1410
  588PNCE   C3A 5310   0.270   0.687   7.921 -0.0804 -0.0308  0.4804
  588PNCE   C1B 5311   0.970   1.156   8.720 -0.0930 -0.2279  0.0901
  588PNCE   C2B 5312   0.884   0.973   8.326  0.0728 -0.1169 -0.0561
  588PNCE   C3B 5313   0.868   0.594   8.112  0.1807 -0.0958  0.3369
  588PNCE   D4B 5314   0.586   0.267   7.834  0.0535  0.3171 -0.2724
  588PNCE   C5B 5315   0.348   0.454   7.459 -0.0960  0.1269  0.0129
  588PNCE   C6B 5316   0.307   0.309   7.120 -0.2640 -0.1860 -0.0705
  589CHOL   ROH 5317  11.500  11.239   5.538 -0.1285 -0.0290  0.0979
  589CHOL    R1 5318  11.600  11.218   5.802 -0.0935  0.0629  0.0918
  589CHOL    R2 5319  11.497  11.365   6.012 -0.2317 -0.0483  0.1024
  589CHOL    R3 5320  11.470  11.120   6.128  0.0234 -0.0801  0.0952
  589CHOL    R4 5321  11.524  11.303   6.351 -0.2022 -0.0253  0.1044
  589CHOL    R5 5322  11.633  11.120   6.304  0.0038  0.0944  0.1140
  589CHOL    C1 5323  11.514  11.037   6.657  0.0544 -0.0410  0.0987
  589CHOL    C2 5324  11.180  11.118   6.887  0.2260  0.1140  0.0820
  590XCA    COO 5325  14.892  11.167   4.325 -0.1061  0.3811  0.0576
  590XCA     C1 5326  14.798  11.164   4.727 -0.1614  0.2432 -0.0136
  590XCA     C2 5327  14.720  11.428   5.055 -0.0346 -0.2424 -0.1001
  590XCA     C3 5328  15.007  11.706   5.462  0.0007 -0.0726 -0.0326
  590XCA     C4 5329  15.060  12.014   5.770 -0.0869  0.1690 -0.2866
  590XCA     C5 5330  15.138  12.419   5.796 -0.0228  0.0598  0.0536
  590XCA     C6 5331  15.164  12.558   6.199 -0.0255  0.4498  0.0655
  591CHOL   ROH 5332   6.877   9.248   5.741  0.1780 -0.2563  0.1047
  591CHOL    R1 5333   6.866   9.118   5.992 -0.1237 -0.2489  0.0947
  591CHOL    R2 5334   7.016   9.200   6.209  0.0469 -0.5988  0.1093
  591CHOL    R3 5335   6.774   9.210   6.332  0.0586 -0.0693  0.0958
  591CHOL    R4 5336   6.970   9.198   6.551  0.0167 -0.6280  0.1049
  591CHOL    R5 5337   6.799   9.065   6.522 -0.3009 -0.2084  0.0381
  591CHOL    C1 5338   6.715   9.205   6.867  0.0103 -0.1489  0.0900
  591CHOL    C2 5339   6.621   9.298   7.242  0.2453  0.1009  0.1322
  592CHOL   ROH 5340   9.000  12.128   8.371  0.4367  0.0611 -0.2242
  592CHOL    R1 5341   8.987  12.167   8.091  0.1502 -0.0715 -0.2298
  592CHOL    R2 5342   8.848  11.997   7.924 -0.1026 -0.0949  0.0031
  592CHOL    R3 5343   8.726  12.227   7.845 -0.0912 -0.0830  0.0229
  592CHOL    R4 5344   8.611  12.018   7.674  0.0191 -0.0367 -0.1080
  592CHOL    R5 5345   8.704  12.204   7.607  0.0296 -0.0019  0.0038
  592CHOL    C1 5346   8.357  12.246   7.454  0.1009  0.0086 -0.1546
  592CHOL    C2 5347   8.049  12.378   7.238 -0.1262  0.0123  0.0760
  593CHOL   ROH 5348   7.112   5.861   7.326  0.1489  0.2537  0.1828
  593CHOL    R1 5349   7.073   6.040   7.111  0.1562  0.0854  0.0412
  593CHOL    R2 5350   6.864   6.016   6.933  0.0138  0.0963  0.2059
  593CHOL    R3 5351   6.815   6.273   7.004  0.2807  0.2050 -0.0009
  593CHOL    R4 5352   6.682   6.241   6.745 -0.3443 -0.0708  0.3510
  593CHOL    R5 5353   6.827   6.395   6.798 -0.1578 -0.0575 -0.1836
  593CHOL    C1 5354   6.530   6.615   6.702 -0.3019 -0.0659  0.2416
  593CHOL    C2 5355   6.202   6.818   6.676 -0.1906  0.1561 -0.0755
  594CHOL   ROH 5356   6.795  11.010   4.363  0.0260 -0.0381  0.0469
  594CHOL    R1 5357   6.747  10.918   4.626  0.0148 -0.1183  0.0169
  594CHOL    R2 5358   6.945  10.803   4.782  0.0653  0.0485  0.0757
  594CHOL    R3 5359   6.870  10.995   4.960 -0.1832 -0.0446  0.0729
  594CHOL    R4 5360   7.036  10.809   5.115  0.1009  0.1998  0.0639
  594CHOL    R5 5361   6.834  10.875   5.164  0.0131 -0.0825  0.0856
  594CHOL    C1 5362   7.019  10.992   5.476 -0.1118  0.2007  0.0541
  594CHOL    C2 5363   7.207  11.256   5.689 -0.1645  0.0305  0.1984
  595CHOL   ROH 5364  15.813  13.507   6.357  0.0533  0.1122 -0.0743
  595CHOL    R1 5365  15.787  13.315   6.151 -0.1230  0.0858 -0.0279
  595CHOL    R2 5366  15.613  13.347   5.939 -0.0986  0.1916 -0.0317
  595CHOL    R3 5367  15.837  13.305   5.790 -0.1390 -0.0443 -0.0265
  595CHOL    R4 5368  15.615  13.221   5.617 -0.2332  0.3138 -0.0808
  595CHOL    R5 5369  15.791  13.103   5.670 -0.3929  0.0625 -0.1104
  595CHOL    C1 5370  15.827  13.108   5.290 -0.3504  0.1642 -0.1049
  595CHOL    C2 5371  15.546  12.859   5.076 -0.0193 -0.0579 -0.0150
  596CHOL   ROH 5372   5.039   7.747   7.292 -0.4345  0.0070 -0.2425
  596CHOL    R1 5373   5.243   7.823   7.111 -0.2589  0.0196 -0.0393
  596CHOL    R2 5374   5.228   7.772   6.840  0.0350 -0.0213 -0.0485
  596CHOL    R3 5375   5.272   8.040   6.820  0.0054 -0.0161 -0.0403
  596CHOL    R4 5376   5.316   7.937   6.549 -0.1965  0.0288 -0.0899
  596CHOL    R5 5377   5.454   8.059   6.666 -0.1140  0.0186 -0.1762
  596CHOL    C1 5378   5.408   8.285   6.361 -0.3588  0.0635 -0.1062
  596CHOL    C2 5379   5.502   8.629   6.419 -0.1230 -0.3521 -0.3107
  597PNCE   AM1 5380   7.747   1.373   4.638 -0.0684  0.0043 -0.0836
  597PNCE   AM2 5381   8.039   1.435   4.794  0.2598 -0.0843  0.1801
  597PNCE   T1A 5382   7.616   1.516   5.066 -0.0191  0.1322 -0.2175
  597PNCE   C2A 5383   7.621   1.734   5.500  0.2304 -0.0899  0.1949
  597PNCE   C3A 5384   7.410   1.562   5.864 -0.0002  0.1614  0.3276
  597PNCE   C1B 5385   8.054   1.501   5.305 -0.0517 -0.4102  0.0342
  597PNCE   C2B 5386   8.019   1.590   5.763 -0.0455  0.3000  0.1097
  597PNCE   C3B 5387   8.052   1.827   5.991  0.1202  0.1783  0.0063
  597PNCE   D4B 5388   8.260   2.065   6.333 -0.2812  0.0817  0.2443
  597PNCE   C5B 5389   7.993   2.376   6.554 -0.0446 -0.0653 -0.3068
  597PNCE   C6B 5390   8.073   2.548   7.001 -0.0182  0.1015 -0.0446
  598XCA    COO 5391  13.623  14.890   4.831 -0.0215 -0.3323 -0.1300
  598XCA     C1 5392  13.811  14.884   5.274 -0.1704  0.0459 -0.0962
  598XCA     C2 5393  13.984  14.788   5.689  0.0351  0.2907 -0.1207
  598XCA     C3 5394  14.115  14.744   6.130  0.4156 -0.1909 -0.2043
  598XCA     C4 5395  14.034  14.904   6.652 -0.0038  0.0172  0.3632
  598XCA     C5 5396  13.738  14.893   6.876 -0.1745 -0.1394 -0.3737
  598XCA     C6 5397  13.348  14.945   7.122  0.0466 -0.1007 -0.1360
  599CHOL   ROH 5398   2.141  13.937   4.626 -0.0030  0.1171 -0.1254
  599CHOL    R1 5399   2.124  13.836   4.890 -0.0374  0.1054 -0.1326
  599CHOL    R2 5400   2.330  13.695   5.008 -0.1149 -0.0399 -0.1696
  599CHOL    R3 5401   2.303  13.882   5.203  0.0315 -0.0391 -0.1499
  599CHOL    R4 5402   2.456  13.666   5.329 -0.0815 -0.1431 -0.1922
  599CHOL    R5 5403   2.272  13.755   5.404 -0.0147 -0.0362 -0.1554
  599CHOL    C1 5404   2.504  13.825   5.699  0.0753 -0.2027 -0.1869
  599CHOL    C2 5405   2.812  13.643   5.717 -0.1686 -0.2413 -0.0936
  600PNCE   AM1 5406  13.950   6.532   7.370 -0.0936  0.1194  0.1299
  600PNCE   AM2 5407  14.345   6.326   7.289 -0.0834 -0.1477  0.1643
  600PNCE   T1A 5408  14.292   6.864   7.179  0.2904 -0.3583  0.0502
  600PNCE   C2A 5409  14.379   7.349   6.990  0.3934 -0.0174 -0.0380
  600PNCE   C3A 5410  14.285   7.644   6.727 -0.0624 -0.2187  0.2717
  600PNCE   C1B 5411  14.266   6.411   6.858 -0.2809 -0.0266  0.2233
  600PNCE   C2B 5412  14.440   6.544   6.491 -0.0282 -0.0189  0.2453
  600PNCE   C3B 5413  14.491   6.683   6.208  0.0901  0.0716  0.2004
  600PNCE   D4B 5414  14.491   6.607   5.776  0.1699  0.0615 -0.2816
  600PNCE   C5B 5415  14.615   6.897   5.393 -0.0107 -0.0220 -0.1015
  600PNCE   C6B 5416  14.347   7.018   5.061 -0.0226 -0.0491 -0.0272
  601XCA    COO 5417   5.036  11.752   7.263 -0.1783  0.2837  0.3353
  601XCA     C1 5418   4.920  12.136   6.856  0.1927 -0.2987  0.1035
  601XCA     C2 5419   5.031  12.611   6.783 -0.1662 -0.2711  0.3475
  601XCA     C3 5420   5.325  12.708   6.476 -0.2481 -0.2006  0.1837
  601XCA     C4 5421   5.686  12.875   6.260  0.3888 -0.1586  0.1077
  601XCA     C5 5422   5.813  12.769   5.887 -0.0866 -0.1019 -0.3901
  601XCA     C6 5423   5.680  12.376   5.567 -0.2027  0.0936  0.0208
  602CHOL   ROH 5424   3.767   6.895   3.993  0.1210  0.2055  0.0100
  602CHOL    R1 5425   3.848   7.019   4.233  0.1770  0.0763  0.0579
  602CHOL    R2 5426   3.673   7.159   4.395  0.2903  0.3013 -0.0133
  602CHOL    R3 5427   3.766   6.991   4.587 -0.0291  0.1589  0.0172
  602CHOL    R4 5428   3.667   7.225   4.734  0.3085  0.3247 -0.0176
  602CHOL    R5 5429   3.866   7.136   4.750  0.1627  0.0055  0.0367
  602CHOL    C1 5430   3.752   7.105   5.112  0.0196  0.2044  0.0088
  602CHOL    C2 5431   3.529   7.455   5.339 -0.3204 -0.3877 -0.2195
  603PNCE   AM1 5432  10.469   2.384   8.271 -0.2162 -0.0046  0.0090
  603PNCE   AM2 5433  10.180   2.350   8.300  0.3471  0.1251  0.2205
  603PNCE   T1A 5434  10.658   2.562   7.782 -0.2474  0.1002 -0.1178
  603PNCE   C2A 5435  10.706   2.426   7.432  0.0980  0.0275  0.1251
  603PNCE   C3A 5436  11.102   2.524   7.281  0.0040 -0.1827  0.0192
  603PNCE   C1B 5437  10.161   2.543   7.926 -0.1728  0.0498  0.0141
  603PNCE   C2B 5438  10.213   2.550   7.550 -0.3193  0.0677 -0.2714
  603PNCE   C3B 5439  10.267   2.910   7.262 -0.0741 -0.2039  0.1629
  603PNCE   D4B 5440  10.489   3.300   7.167 -0.2973 -0.3877  0.0202
  603PNCE   C5B 5441  10.275   3.626   6.905 -0.0931  0.0198 -0.1797
  603PNCE   C6B 5442   9.941   3.548   6.828 -0.0862  0.0163  0.1407
  604XCA    COO 5443  13.834   7.645   7.470 -0.0151 -0.4096 -0.0040
  604XCA     C1 5444  13.364   7.721   7.525 -0.2996  0.0659 -0.0218
  604XCA     C2 5445  12.989   7.692   7.358  0.1404  0.1737 -0.3343
  604XCA     C3 5446  12.920   7.613   7.060  0.0464 -0.1333 -0.3973
  604XCA     C4 5447  13.217   7.858   6.772  0.3274 -0.1606  0.0015
  604XCA     C5 5448  13.410   8.055   6.480  0.0148 -0.2202  0.1242
  604XCA     C6 5449  13.533   8.115   6.034 -0.3546 -0.0277  0.0620
  605PNCE   AM1 5450   2.689   8.395   7.703  0.1713 -0.1068  0.1039
  605PNCE   AM2 5451   2.830   8.192   7.983  0.0272 -0.0327  0.4565
  605PNCE   T1A 5452   2.302   8.664   7.413  0.4168  0.0150  0.0342
  605PNCE   C2A 5453   2.003   8.749   7.103 -0.1810 -0.2410 -0.0444
  605PNCE   C3A 5454   1.687   8.645   6.730 -0.0691 -0.2717 -0.2600
  605PNCE   C1B 5455   3.095   8.164   7.721 -0.0974 -0.1507  0.2474
  605PNCE   C2B 5456   3.107   8.206   7.381 -0.0360 -0.1299  0.1570
  605PNCE   C3B 5457   2.860   8.395   7.137  0.0069  0.2086 -0.1662
  605PNCE   D4B 5458   2.462   8.225   7.005  0.5430  0.3433  0.1318
  605PNCE   C5B 5459   2.245   8.579   6.658 -0.1272 -0.3048 -0.1730
  605PNCE   C6B 5460   2.249   8.849   6.285 -0.3269 -0.1226 -0.0137
  606CHOL   ROH 5461  12.559  10.338   4.353 -0.0376  0.0667  0.1304
  606CHOL    R1 5462  12.526  10.332   4.634 -0.0534  0.0749  0.1283
  606CHOL    R2 5463  12.462  10.557   4.781  0.0342  0.0990  0.1297
  606CHOL    R3 5464  12.258  10.401   4.871 -0.0351  0.1833  0.1169
  606CHOL    R4 5465  12.341  10.558   5.105  0.1173  0.0358  0.1609
  606CHOL    R5 5466  12.324  10.341   5.093 -0.0148  0.0520  0.0751
  606CHOL    C1 5467  12.080  10.412   5.378  0.1007  0.0792  0.1671
  606CHOL    C2 5468  12.073  10.296   5.806 -0.2364 -0.0234  0.1860
  607XCA    COO 5469  14.252   2.282   4.413  0.0775  0.1623 -0.1647
  607XCA     C1 5470  13.951   2.470   4.726 -0.2225  0.3088 -0.2828
  607XCA     C2 5471  13.860   2.348   5.199 -0.1977 -0.0499  0.1076
  607XCA     C3 5472  13.785   2.346   5.586  0.0513  0.0307 -0.4675
  607XCA     C4 5473  13.735   2.502   5.994  0.1316  0.1793 -0.0044
  607XCA     C5 5474  13.557   2.174   6.208  0.0988 -0.2699 -0.2933
  607XCA     C6 5475  13.169   2.105   6.530  0.0323  0.1796 -0.0374
  608XCA    COO 5476  12.623   8.991   8.053 -0.0130 -0.0308  0.1978
  608XCA     C1 5477  12.275   9.004   7.679  0.0437  0.2080  0.0090
  608XCA     C2 5478  12.069   8.943   7.172 -0.5049  0.3462  0.0657
  608XCA     C3 5479  11.796   8.700   6.835 -0.0649  0.2652 -0.1415
  608XCA     C4 5480  11.505   9.003   6.669 -0.0288  0.2806  0.1219
  608XCA     C5 5481  11.440   9.390   6.499 -0.0423  0.0378  0.0985
  608XCA     C6 5482  11.500   9.730   6.143  0.2732  0.3209 -0.3356
  609XCA    COO 5483  12.013  12.729   5.054  0.1325 -0.2567 -0.0226
  609XCA     C1 5484  11.926  12.826   5.442  0.1714 -0.0959 -0.0167
  609XCA     C2 5485  11.914  12.778   5.933 -0.0731 -0.0313  0.5704
  609XCA     C3 5486  11.613  12.841   6.168 -0.3567  0.1007  0.1695
  609XCA     C4 5487  11.660  13.049   6.561  0.0758  0.1210  0.2141
  609XCA     C5 5488  11.326  13.189   6.793  0.1950  0.0123 -0.2396
  609XCA     C6 5489  11.353  13.519   7.217  0.3761  0.0890  0.1990
  610CHOL   ROH 5490  12.589  13.560   4.902 -0.2150 -0.0750  0.0463
  610CHOL    R1 5491  12.714  13.534   5.155 -0.1521  0.0043  0.0241
  610CHOL    R2 5492  12.740  13.746   5.330 -0.0752  0.0682 -0.0645
  610CHOL    R3 5493  12.616  13.576   5.503 -0.0558  0.1528  0.0334
  610CHOL    R4 5494  12.816  13.716   5.666  0.1540  0.0319 -0.1199
  610CHOL    R5 5495  12.792  13.500   5.647  0.0029  0.0472 -0.0942
  610CHOL    C1 5496  12.744  13.539   6.024  0.3067  0.0906 -0.0600
  610CHOL    C2 5497  12.980  13.762   6.399  0.0197  0.0413  0.0930
  611CHOL   ROH 5498   5.963  14.581   6.261  0.0191  0.0112 -0.0551
  611CHOL    R1 5499   5.938  14.419   6.031  0.0396  0.0696 -0.0985
  611CHOL    R2 5500   6.133  14.405   5.836  0.1290 -0.0076 -0.0033
  611CHOL    R3 5501   6.116  14.138   5.884 -0.0511 -0.0070 -0.0620
  611CHOL    R4 5502   6.120  14.162   5.591 -0.1187  0.0615 -0.0579
  611CHOL    R5 5503   5.971  14.056   5.711 -0.1607  0.1397 -0.0396
  611CHOL    C1 5504   6.095  13.769   5.493 -0.4317  0.1013 -0.1443
  611CHOL    C2 5505   6.294  13.379   5.393 -0.1454  0.0936  0.1089
  612CHOL   ROH 5506  10.783  10.326   4.132  0.2666  0.0653  0.1055
  612CHOL    R1 5507  10.700  10.464   4.364  0.1836  0.0496  0.0856
  612CHOL    R2 5508  10.449  10.431   4.475  0.1066  0.1224 -0.0672
  612CHOL    R3 5509  10.591  10.375   4.700 -0.0457  0.0225  0.0041
  612CHOL    R4 5510  10.326  10.456   4.797 -0.0682  0.1130 -0.1333
  612CHOL    R5 5511  10.519  10.539   4.859 -0.0691  0.0229 -0.0074
  612CHOL    C1 5512  10.388  10.418   5.196 -0.3137  0.0145 -0.1045
  612CHOL    C2 5513  10.553  10.260   5.453  0.3062  0.1370  0.1747
  613CHOL   ROH 5514  15.227  13.670   8.385 -0.2379  0.1107 -0.1243
  613CHOL    R1 5515  15.327  13.441   8.252 -0.2837  0.0076  0.0191
  613CHOL    R2 5516  15.593  13.413   8.185 -0.3336  0.0284 -0.1942
  613CHOL    R3 5517  15.570  13.180   8.323 -0.1302  0.1612  0.0670
  613CHOL    R4 5518  15.781  13.129   8.126 -0.3352  0.0100 -0.1130
  613CHOL    R5 5519  15.601  13.009   8.157 -0.2737  0.0010  0.2055
  613CHOL    C1 5520  15.867  12.744   8.220 -0.1453  0.1245  0.1807
  613CHOL    C2 5521  16.058  12.313   8.139 -0.1138 -0.4382 -0.1155
  614CHOL   ROH 5522   0.132  13.987   5.181  0.0644 -0.2140 -0.0803
  614CHOL    R1 5523   0.202  13.873   5.431  0.0638 -0.0987 -0.0279
  614CHOL    R2 5524   0.175  14.010   5.669 -0.0352 -0.0259 -0.0806
  614CHOL    R3 5525   0.031  13.791   5.741  0.0393 -0.0593 -0.0309
  614CHOL    R4 5526   0.116  13.911   5.995 -0.0100  0.0339 -0.0579
  614CHOL    R5 5527   0.145  13.704   5.933  0.0644  0.0286 -0.0062
  614CHOL    C1 5528  -0.055  13.648   6.253  0.0742  0.0375  0.0018
  614CHOL    C2 5529  -0.158  13.602   6.697 -0.2291 -0.1724 -0.0218
  615PNCE   AM1 5530  15.702   9.968   7.582  0.1810  0.0823  0.1467
  615PNCE   AM2 5531  15.919   9.685   7.511  0.1594 -0.1674 -0.1601
  615PNCE   T1A 5532  15.957  10.132   7.173 -0.1588 -0.1436 -0.0421
  615PNCE   C2A 5533  15.844  10.354   6.750  0.2541 -0.0142 -0.0886
  615PNCE   C3A 5534  15.956  10.052   6.381 -0.1653 -0.3553 -0.1323
  615PNCE   C1B 5535  15.557   9.580   7.287 -0.1495  0.1659  0.0951
  615PNCE   C2B 5536  15.338   9.540   6.950  0.3618 -0.4569 -0.1815
  615PNCE   C3B 5537  15.116   9.709   6.667 -0.1243  0.1062  0.2215
  615PNCE   D4B 5538  14.844   9.336   6.412  0.0713 -0.2914  0.1197
  615PNCE   C5B 5539  14.825   9.511   5.999  0.0891  0.0706 -0.0312
  615PNCE   C6B 5540  15.209   9.587   5.737 -0.0981 -0.2566 -0.1283
  616CHOL   ROH 5541   5.724   5.753   5.113  0.0428  0.2392 -0.0091
  616CHOL    R1 5542   5.559   5.742   5.343  0.0730  0.1364  0.0072
  616CHOL    R2 5543   5.614   5.576   5.557  0.1598  0.1186 -0.0282
  616CHOL    R3 5544   5.598   5.807   5.699  0.0883  0.0875  0.0145
  616CHOL    R4 5545   5.462   5.608   5.866  0.2379 -0.0079  0.0231
  616CHOL    R5 5546   5.382   5.800   5.801  0.1228 -0.0370  0.0794
  616CHOL    C1 5547   5.360   5.843   6.180  0.2171 -0.1103  0.0935
  616CHOL    C2 5548   5.274   5.842   6.560  0.2449  0.0301 -0.0678
  617CHOL   ROH 5549   8.851   4.715   7.549  0.0373  0.0322  0.0105
  617CHOL    R1 5550   8.719   4.601   7.325 -0.0443  0.0267  0.0613
  617CHOL    R2 5551   8.830   4.599   7.073 -0.1488  0.0440  0.0156
  617CHOL    R3 5552   8.785   4.331   7.090 -0.1178  0.0394  0.0268
  617CHOL    R4 5553   8.902   4.370   6.824 -0.3223  0.0708 -0.0596
  617CHOL    R5 5554   8.714   4.269   6.869 -0.2809  0.0539  0.0746
  617CHOL    C1 5555   8.901   3.986   6.695 -0.3942  0.0822 -0.0928
  617CHOL    C2 5556   8.940   3.719   6.530 -0.0963 -0.2199 -0.1089
  618CHOL   ROH 5557  11.469  13.061   5.434  0.0572  0.0013 -0.0731
  618CHOL    R1 5558  11.529  13.083   5.709 -0.0381  0.0072 -0.0529
  618CHOL    R2 5559  11.765  13.194   5.802  0.0002 -0.1354  0.0218
  618CHOL    R3 5560  11.596  13.353   5.945  0.0501  0.0025 -0.0720
  618CHOL    R4 5561  11.843  13.343   6.103 -0.0210 -0.1392  0.0291
  618CHOL    R5 5562  11.641  13.296   6.173 -0.0811  0.0100 -0.0446
  618CHOL    C1 5563  11.730  13.579   6.414  0.0128 -0.0118 -0.0548
  618CHOL    C2 5564  11.713  13.512   6.749  0.1023  0.1842  0.1479
  619CHOL   ROH 5565   3.040   2.480   8.174 -0.2435 -0.2823 -0.0295
  619CHOL    R1 5566   2.864   2.631   8.012 -0.1671 -0.1349  0.0253
  619CHOL    R2 5567   2.952   2.836   7.848 -0.0482 -0.1998  0.0082
  619CHOL    R3 5568   2.822   2.695   7.656 -0.2163 -0.0882  0.0394
  619CHOL    R4 5569   2.786   2.976   7.579  0.1367 -0.0626 -0.0350
  619CHOL    R5 5570   2.628   2.827   7.606 -0.0499  0.1401 -0.0029
  619CHOL    C1 5571   2.567   2.925   7.242  0.0865  0.1221 -0.0310
  619CHOL    C2 5572   2.261   3.143   7.107 -0.0166 -0.0292 -0.1700
  620PNCE   AM1 5573   2.995  10.281   7.507  0.0079 -0.1104  0.0284
  620PNCE   AM2 5574   3.350  10.236   7.428  0.1086  0.0084  0.0987
  620PNCE   T1A 5575   2.828  10.370   7.093  0.3043  0.3766  0.2465
  620PNCE   C2A 5576   2.568  10.238   6.834  0.2446 -0.5861  0.0656
  620PNCE   C3A 5577   2.267  10.041   6.664  0.2053  0.3037  0.0494
  620PNCE   C1B 5578   3.227  10.088   7.078 -0.2689  0.2527 -0.2168
  620PNCE   C2B 5579   3.381   9.725   6.742  0.0243  0.1874 -0.1413
  620PNCE   C3B 5580   3.305   9.546   6.375  0.0912 -0.1184 -0.1751
  620PNCE   D4B 5581   3.300   9.408   5.959  0.0428  0.2628 -0.2041
  620PNCE   C5B 5582   3.049   9.265   5.567  0.0500  0.0713 -0.2812
  620PNCE   C6B 5583   2.603   9.143   5.502 -0.1187 -0.3161 -0.0913
  621XCA    COO 5584   5.443  10.930   7.165  0.1536  0.2649 -0.1859
  621XCA     C1 5585   5.217  10.613   7.039 -0.0265  0.1213  0.3229
  621XCA     C2 5586   5.354  10.353   6.707  0.0605 -0.2230 -0.0967
  621XCA     C3 5587   5.331   9.962   6.393  0.2525  0.2102 -0.1587
  621XCA     C4 5588   5.191   9.553   6.520 -0.0613  0.1760  0.1318
  621XCA     C5 5589   4.802   9.280   6.567 -0.0423 -0.0612 -0.0017
  621XCA     C6 5590   4.639   8.976   6.531 -0.0833 -0.0647  0.0028
  622PNCE   AM1 5591   0.531  15.149   8.607  0.3564  0.1326 -0.0497
  622PNCE   AM2 5592   0.260  15.125   8.830  0.0647 -0.0592  0.0003
  622PNCE   T1A 5593   0.661  15.228   8.157 -0.1710  0.3152  0.0565
  622PNCE   C2A 5594   0.625  15.489   7.733  0.0726  0.1764 -0.2328
  622PNCE   C3A 5595   0.626  15.695   7.344  0.1057 -0.1863 -0.2630
  622PNCE   C1B 5596  -0.057  15.097   8.430  0.0218 -0.2606  0.2224
  622PNCE   C2B 5597  -0.411  14.735   8.271 -0.1426  0.2099  0.0943
  622PNCE   C3B 5598  -0.524  14.387   7.984 -0.0544  0.2439 -0.3725
  622PNCE   D4B 5599  -0.432  13.970   7.768 -0.1458 -0.1814  0.1452
  622PNCE   C5B 5600  -0.731  13.689   7.378 -0.2601 -0.1404 -0.0704
  622PNCE   C6B 5601  -0.532  13.554   7.107 -0.1132 -0.0601  0.0960
  623CHOL   ROH 5602   7.366  14.517   4.925 -0.0838 -0.0424  0.0995
  623CHOL    R1 5603   7.145  14.365   5.016 -0.1175  0.0367  0.1497
  623CHOL    R2 5604   7.125  14.093   4.977 -0.3046  0.0714  0.0028
  623CHOL    R3 5605   7.091  14.089   5.247 -0.1372 -0.0660  0.0229
  623CHOL    R4 5606   7.024  13.817   5.160 -0.3486  0.0224 -0.0939
  623CHOL    R5 5607   6.899  13.949   5.280 -0.1972  0.0253  0.0610
  623CHOL    C1 5608   6.932  13.654   5.519 -0.2170 -0.1333 -0.1319
  623CHOL    C2 5609   6.653  13.698   5.651 -0.0213  0.0020 -0.1540
  624XCA    COO 5610   3.563  12.875   3.650 -0.1735  0.3411 -0.1987
  624XCA     C1 5611   3.895  12.982   3.928  0.2039  0.0538  0.3404
  624XCA     C2 5612   4.035  12.776   4.247 -0.3727  0.3431  0.0834
  624XCA     C3 5613   4.039  12.452   4.418 -0.1101  0.2040 -0.0150
  624XCA     C4 5614   4.095  12.243   4.825 -0.0004 -0.2149  0.0426
  624XCA     C5 5615   4.285  11.953   5.060 -0.0297 -0.4126 -0.0383
  624XCA     C6 5616   4.527  12.065   5.412 -0.1708  0.1893 -0.0265
  625XCA    COO 5617   6.924  12.682   4.378 -0.0672  0.0427 -0.0299
  625XCA     C1 5618   6.898  12.617   4.716  0.1885  0.1901 -0.0799
  625XCA     C2 5619   6.862  12.640   5.137 -0.0775  0.2677 -0.3768
  625XCA     C3 5620   6.667  12.556   5.474  0.1451 -0.3479  0.0631
  625XCA     C4 5621   6.643  12.715   5.833  0.1832 -0.3393 -0.0700
  625XCA     C5 5622   6.660  12.588   6.198  0.1971 -0.0505  0.1339
  625XCA     C6 5623   6.837  12.375   6.434 -0.2805 -0.1569 -0.2730
  626CHOL   ROH 5624   6.550   5.637   4.366 -0.2297 -0.0424 -0.0371
  626CHOL    R1 5625   6.461   5.529   4.612 -0.2251 -0.1347 -0.0758
  626CHOL    R2 5626   6.547   5.284   4.707 -0.0827 -0.0867 -0.0808
  626CHOL    R3 5627   6.612   5.428   4.928 -0.2465 -0.0683 -0.0445
  626CHOL    R4 5628   6.624   5.149   5.015 -0.0551 -0.0715 -0.0811
  626CHOL    R5 5629   6.510   5.309   5.109 -0.2000 -0.1717 -0.0861
  626CHOL    C1 5630   6.730   5.206   5.402 -0.1932 -0.0454 -0.0473
  626CHOL    C2 5631   6.718   4.882   5.383 -0.2118 -0.0839 -0.0485
  627CHOL   ROH 5632   0.877   5.217   7.680  0.0035 -0.0622  0.0737
  627CHOL    R1 5633   0.740   5.088   7.469 -0.0063 -0.0231  0.0558
  627CHOL    R2 5634   0.872   4.970   7.257 -0.0095 -0.1228  0.1091
  627CHOL    R3 5635   0.727   4.752   7.330 -0.1418 -0.0370  0.1027
  627CHOL    R4 5636   0.774   4.717   7.042  0.0514 -0.1824  0.1514
  627CHOL    R5 5637   0.581   4.713   7.144 -0.0233 -0.0668  0.0153
  627CHOL    C1 5638   0.581   4.365   6.986 -0.0373 -0.1368  0.1698
  627CHOL    C2 5639   0.272   4.079   7.172 -0.1708 -0.2437 -0.1869
  628CHOL   ROH 5640   1.982   1.519   6.788  0.3372 -0.1659 -0.2551
  628CHOL    R1 5641   2.178   1.712   6.719  0.2588 -0.1035 -0.3023
  628CHOL    R2 5642   2.211   1.804   6.461 -0.1127  0.2184 -0.2359
  628CHOL    R3 5643   2.180   2.047   6.579  0.0916  0.0745  0.1178
  628CHOL    R4 5644   2.389   2.088   6.377 -0.3865  0.3654 -0.3235
  628CHOL    R5 5645   2.402   2.136   6.589  0.0926  0.1234 -0.2952
  628CHOL    C1 5646   2.465   2.481   6.438 -0.3544  0.3156 -0.0431
  628CHOL    C2 5647   2.835   2.674   6.451 -0.1881 -0.1152  0.1394
  629XCA    COO 5648  11.613   5.657   3.627 -0.1406  0.1382  0.0274
  629XCA     C1 5649  11.480   5.414   4.108 -0.0040  0.4248  0.0443
  629XCA     C2 5650  11.188   5.156   4.402  0.0850  0.0709 -0.0772
  629XCA     C3 5651  11.184   5.169   4.735  0.1178  0.1505 -0.3731
  629XCA     C4 5652  11.200   5.280   5.096  0.0928 -0.1454  0.0682
  629XCA     C5 5653  11.512   5.405   5.343  0.2510  0.1446  0.0342
  629XCA     C6 5654  11.883   5.219   5.609 -0.0091  0.1480  0.0297
  630PNCE   AM1 5655   3.520   8.189   8.003 -0.0388 -0.2332 -0.0857
  630PNCE   AM2 5656   3.646   8.532   8.060 -0.0205  0.1964 -0.5614
  630PNCE   T1A 5657   3.646   8.230   7.649  0.2126 -0.1262 -0.1124
  630PNCE   C2A 5658   3.655   8.246   7.295  0.1122 -0.2035 -0.0318
  630PNCE   C3A 5659   3.723   8.466   6.868 -0.1660 -0.3132 -0.2798
  630PNCE   C1B 5660   3.747   8.692   7.609 -0.1370  0.1873 -0.3008
  630PNCE   C2B 5661   3.852   8.893   7.177  0.0637  0.1270 -0.0459
  630PNCE   C3B 5662   3.892   8.936   6.726 -0.0495 -0.3832  0.1308
  630PNCE   D4B 5663   4.153   8.754   6.474 -0.0319  0.3495 -0.1266
  630PNCE   C5B 5664   4.034   8.717   6.040  0.0969 -0.1233 -0.2065
  630PNCE   C6B 5665   3.850   8.733   5.738  0.0093  0.2629 -0.2977
  631PNCE   AM1 5666  15.379   7.492   7.734 -0.2916  0.0480 -0.2495
  631PNCE   AM2 5667  15.602   7.385   7.869  0.1519 -0.0298 -0.0546
  631PNCE   T1A 5668  15.207   7.615   7.292 -0.0526  0.2623  0.1507
  631PNCE   C2A 5669  15.184   7.896   6.936  0.0820 -0.0180 -0.0123
  631PNCE   C3A 5670  15.098   7.830   6.415  0.0393  0.0442  0.0481
  631PNCE   C1B 5671  15.580   7.245   7.391 -0.2114 -0.1782  0.0709
  631PNCE   C2B 5672  15.709   7.267   6.912  0.0159  0.2134  0.1114
  631PNCE   C3B 5673  15.583   7.084   6.484 -0.1242 -0.2320 -0.0277
  631PNCE   D4B 5674  15.207   7.155   6.342 -0.0747 -0.0414  0.2058
  631PNCE   C5B 5675  14.891   7.088   6.598 -0.2046 -0.0043  0.0605
  631PNCE   C6B 5676  14.640   6.887   6.838  0.2608 -0.1311 -0.3387
  632CHOL   ROH 5677   3.888  12.413   6.945 -0.1476 -0.1149 -0.2435
  632CHOL    R1 5678   4.019  12.643   6.844 -0.1485 -0.1073 -0.2289
  632CHOL    R2 5679   3.996  12.723   6.581 -0.2004 -0.0552 -0.2082
  632CHOL    R3 5680   3.919  12.959   6.693 -0.1530 -0.0702 -0.1454
  632CHOL    R4 5681   3.987  13.027   6.417 -0.0489  0.0067 -0.1006
  632CHOL    R5 5682   4.065  13.122   6.597 -0.0694 -0.0839 -0.0434
  632CHOL    C1 5683   3.909  13.425   6.426  0.0837  0.0306  0.0210
  632CHOL    C2 5684   3.888  13.870   6.562 -0.0106 -0.0666  0.2745
  633CHOL   ROH 5685   0.622  13.089   5.208 -0.0061  0.1045  0.0283
  633CHOL    R1 5686   0.801  13.145   5.420 -0.0269  0.1183  0.0427
  633CHOL    R2 5687   0.765  13.356   5.594 -0.1211  0.0438  0.1126
  633CHOL    R3 5688   0.785  13.162   5.783 -0.0262 -0.0088  0.0482
  633CHOL    R4 5689   0.871  13.407   5.919 -0.0919 -0.0219  0.1137
  633CHOL    R5 5690   0.981  13.219   5.908 -0.0282  0.0191  0.0379
  633CHOL    C1 5691   0.951  13.254   6.286  0.0142 -0.1111  0.0535
  633CHOL    C2 5692   0.837  13.157   6.725 -0.0058  0.1261  0.1219
  634CHOL   ROH 5693  10.634   6.498   4.007  0.0657 -0.0678  0.1170
  634CHOL    R1 5694  10.769   6.464   4.253 -0.0443 -0.1535  0.1659
  634CHOL    R2 5695  10.848   6.677   4.410  0.0792 -0.2031  0.1701
  634CHOL    R3 5696  10.707   6.547   4.602 -0.0925 -0.0670  0.1369
  634CHOL    R4 5697  10.865   6.747   4.748  0.1636 -0.3057  0.1872
  634CHOL    R5 5698  10.859   6.533   4.787 -0.1140 -0.3066  0.1359
  634CHOL    C1 5699  10.743   6.666   5.126  0.0521 -0.2377  0.1656
  634CHOL    C2 5700  11.015   6.817   5.307 -0.0249  0.2762  0.2317
  635PNCE   AM1 5701   8.465   5.029   7.584  0.1211  0.1416  0.0317
  635PNCE   AM2 5702   8.300   4.737   7.720 -0.1087 -0.1573  0.1329
  635PNCE   T1A 5703   8.525   4.995   7.177  0.5497 -0.1610  0.3372
  635PNCE   C2A 5704   8.587   4.856   6.807 -0.0004  0.0960 -0.0207
  635PNCE   C3A 5705   8.802   4.685   6.465 -0.2969  0.0679  0.1011
  635PNCE   C1B 5706   8.240   4.469   7.406 -0.3787  0.1320  0.1557
  635PNCE   C2B 5707   8.106   4.163   7.011  0.0246 -0.0491 -0.2899
  635PNCE   C3B 5708   8.069   4.051   6.460 -0.0537 -0.2568 -0.0536
  635PNCE   D4B 5709   8.050   3.678   6.232  0.0552 -0.0481 -0.1102
  635PNCE   C5B 5710   7.791   3.366   6.217  0.4850 -0.2019  0.3409
  635PNCE   C6B 5711   7.316   3.212   6.353 -0.1585 -0.1356  0.1312
  636XCA    COO 5712   6.413   6.809   4.219 -0.3377 -0.0483  0.0523
  636XCA     C1 5713   6.159   6.811   4.516  0.0787 -0.1566  0.0112
  636XCA     C2 5714   6.212   6.385   4.873 -0.1062  0.1625 -0.1543
  636XCA     C3 5715   6.326   6.216   5.265  0.2832 -0.0622 -0.1274
  636XCA     C4 5716   6.331   6.351   5.742 -0.0895  0.0131  0.0670
  636XCA     C5 5717   6.703   6.437   5.868  0.2449 -0.1821 -0.1309
  636XCA     C6 5718   6.870   6.465   6.273  0.1565  0.2367  0.2884
  637PNCE   AM1 5719  10.820  13.730   5.068 -0.0049 -0.0312 -0.0178
  637PNCE   AM2 5720  10.536  13.879   4.885  0.0993 -0.0361  0.1931
  637PNCE   T1A 5721  10.846  13.578   5.528  0.2192 -0.1481 -0.1810
  637PNCE   C2A 5722  11.112  13.374   5.816  0.1498 -0.0721 -0.0328
  637PNCE   C3A 5723  11.192  13.288   6.192  0.2578  0.5773  0.0134
  637PNCE   C1B 5724  10.243  14.032   5.054  0.1380 -0.2624 -0.0309
  637PNCE   C2B 5725  10.145  14.159   5.444  0.3192  0.1043 -0.3077
  637PNCE   C3B 5726   9.861  14.388   5.699  0.1157 -0.2052  0.0742
  637PNCE   D4B 5727   9.729  14.498   5.961  0.0772  0.3156  0.0086
  637PNCE   C5B 5728   9.842  14.237   6.380 -0.2944  0.0371 -0.1224
  637PNCE   C6B 5729   9.545  14.268   6.757  0.0580 -0.1184 -0.1256
  638CHOL   ROH 5730   3.166  10.747   7.204 -0.2525 -0.0874  0.0711
  638CHOL    R1 5731   3.027  10.856   6.983 -0.1653  0.0248  0.0718
  638CHOL    R2 5732   3.121  11.074   6.841 -0.0462  0.0159  0.1396
  638CHOL    R3 5733   3.093  10.908   6.628 -0.0807  0.0788  0.0953
  638CHOL    R4 5734   3.156  11.169   6.511 -0.1760  0.1297  0.1578
  638CHOL    R5 5735   2.986  11.042   6.461 -0.1649  0.1092  0.1738
  638CHOL    C1 5736   3.150  11.067   6.118 -0.2845  0.2543  0.1271
  638CHOL    C2 5737   2.987  11.155   5.855 -0.0841 -0.1879  0.0471
  639XCA    COO 5738   0.513   4.355   4.587  0.0195  0.2374  0.1259
  639XCA     C1 5739   0.393   4.082   4.894 -0.1437  0.1034 -0.1978
  639XCA     C2 5740   0.421   3.802   5.223  0.2030 -0.0343  0.2383
  639XCA     C3 5741   0.770   3.778   5.483  0.2751  0.0204  0.1253
  639XCA     C4 5742   0.943   3.828   5.764  0.2091  0.0591  0.2899
  639XCA     C5 5743   1.108   4.110   6.078 -0.2885 -0.0069  0.1206
  639XCA     C6 5744   1.502   4.286   6.347  0.0271 -0.0629  0.0462
  640XCA    COO 5745   7.345  12.848   8.587 -0.0659 -0.3209 -0.1417
  640XCA     C1 5746   7.608  13.035   8.209  0.3686 -0.1751 -0.2486
  640XCA     C2 5747   7.661  13.406   7.903 -0.1404  0.0915  0.1358
  640XCA     C3 5748   7.751  13.775   7.679 -0.2888  0.3757 -0.0121
  640XCA     C4 5749   7.386  13.963   7.509  0.2529 -0.3923  0.1146
  640XCA     C5 5750   7.020  13.927   7.776  0.2294 -0.3437  0.2771
  640XCA     C6 5751   6.703  14.082   7.996 -0.0773  0.0741  0.4399
  641XCA    COO 5752   1.562   0.844   8.683 -0.0888 -0.2695 -0.1052
  641XCA     C1 5753   1.457   1.290   8.555 -0.2357  0.0428 -0.0345
  641XCA     C2 5754   1.341   1.668   8.276 -0.3127  0.0162 -0.2412
  641XCA     C3 5755   1.625   1.915   8.012  0.2780 -0.2077  0.2549
  641XCA     C4 5756   1.771   2.220   7.989  0.0702  0.2456 -0.1291
  641XCA     C5 5757   2.079   2.532   7.919  0.3705  0.3306  0.2864
  641XCA     C6 5758   2.476   2.420   7.808  0.0294 -0.0290 -0.0005
  642PNCE   AM1 5759  14.640  15.289   4.641  0.1128  0.2298 -0.3178
  642PNCE   AM2 5760  14.673  15.453   4.957  0.1405 -0.0061 -0.0278
  642PNCE   T1A 5761  14.835  15.755   4.666 -0.2514  0.0666 -0.3248
  642PNCE   C2A 5762  14.698  16.157   4.668 -0.0832 -0.0129 -0.0395
  642PNCE   C3A 5763  14.725  16.546   4.899  0.1423 -0.0338 -0.4246
  642PNCE   C1B 5764  14.852  15.307   5.245  0.0124  0.1188  0.0407
  642PNCE   C2B 5765  14.840  15.207   5.676 -0.0220  0.1521 -0.0901
  642PNCE   C3B 5766  14.561  14.929   5.993  0.3327  0.1919 -0.2371
  642PNCE   D4B 5767  14.546  14.657   6.333 -0.1138  0.1448  0.0324
  642PNCE   C5B 5768  14.516  14.935   6.700  0.0531  0.1914 -0.2612
  642PNCE   C6B 5769  14.659  15.385   6.752 -0.0837 -0.1088  0.2437
  643CHOL   ROH 5770  14.510   1.495   7.725  0.0146  0.3272  0.0270
  643CHOL    R1 5771  14.669   1.377   7.524 -0.0024  0.1982  0.0894
  643CHOL    R2 5772  14.762   1.518   7.305  0.0406  0.0774  0.0293
  643CHOL    R3 5773  15.003   1.425   7.388  0.0151  0.0596  0.0838
  643CHOL    R4 5774  15.025   1.438   7.096  0.0882  0.0763  0.0901
  643CHOL    R5 5775  15.066   1.265   7.222  0.0482  0.0663  0.0901
  643CHOL    C1 5776  15.405   1.305   7.052  0.0924  0.0590  0.1766
  643CHOL    C2 5777  15.590   1.576   6.837  0.1088  0.0941  0.1526
  644PNCE   AM1 5778   4.484   7.952   3.814  0.0971 -0.1766  0.1849
  644PNCE   AM2 5779   4.132   8.006   3.799  0.0835  0.1333  0.1849
  644PNCE   T1A 5780   4.539   7.693   4.192  0.0592 -0.2077  0.0826
  644PNCE   C2A 5781   4.367   7.709   4.620 -0.1257  0.1835  0.1968
  644PNCE   C3A 5782   4.227   7.490   4.940  0.2970  0.3864  0.1016
  644PNCE   C1B 5783   4.307   8.334   4.063 -0.1258 -0.0289  0.3034
  644PNCE   C2B 5784   4.578   8.146   4.535 -0.0876 -0.0148 -0.0963
  644PNCE   C3B 5785   4.886   7.862   4.707 -0.2366 -0.0246  0.0687
  644PNCE   D4B 5786   4.830   7.496   5.006  0.3931  0.2608  0.1781
  644PNCE   C5B 5787   4.552   7.360   5.290  0.1303 -0.2289  0.0603
  644PNCE   C6B 5788   4.717   7.321   5.639  0.0293 -0.4314 -0.2419
  645CHOL   ROH 5789   4.140  15.199   5.516  0.0374 -0.0482 -0.1304
  645CHOL    R1 5790   4.228  15.069   5.752 -0.0935 -0.0420 -0.0777
  645CHOL    R2 5791   4.431  15.169   5.911  0.0875 -0.2417 -0.1819
  645CHOL    R3 5792   4.244  15.146   6.107  0.1007  0.1354 -0.1246
  645CHOL    R4 5793   4.492  15.216   6.248  0.2065 -0.0181 -0.2348
  645CHOL    R5 5794   4.362  15.045   6.290  0.0257  0.1621 -0.0615
  645CHOL    C1 5795   4.352  15.221   6.628  0.2884  0.4666 -0.2114
  645CHOL    C2 5796   4.492  15.158   6.984  0.1547  0.0101  0.2842
  646PNCE   AM1 5797   8.152   9.024   4.209  0.0361 -0.0226 -0.1342
  646PNCE   AM2 5798   8.033   9.287   4.089 -0.2223 -0.3460  0.1918
  646PNCE   T1A 5799   8.210   9.161   4.682 -0.0682 -0.2067  0.2345
  646PNCE   C2A 5800   8.377   9.022   5.108 -0.1285 -0.2995  0.1996
  646PNCE   C3A 5801   8.188   8.855   5.508  0.1443 -0.2492 -0.0435
  646PNCE   C1B 5802   8.135   9.580   4.392 -0.1359 -0.1323  0.1132
  646PNCE   C2B 5803   8.333   9.707   4.709  0.0126 -0.0351 -0.0150
  646PNCE   C3B 5804   8.551   9.582   5.002 -0.1856  0.0968 -0.0592
  646PNCE   D4B 5805   8.809   9.295   5.287  0.1196 -0.4183  0.1707
  646PNCE   C5B 5806   8.796   8.820   5.275  0.2577  0.1176  0.1628
  646PNCE   C6B 5807   8.885   8.470   5.182 -0.5049 -0.3314 -0.2695
  647XCA    COO 5808  13.873   7.624   3.699  0.0997 -0.3388  0.0710
  647XCA     C1 5809  13.701   7.532   4.146  0.3225  0.0838 -0.3511
  647XCA     C2 5810  13.815   7.622   4.516 -0.1419  0.0172  0.1166
  647XCA     C3 5811  13.756   7.412   4.876 -0.0632  0.3030  0.1072
  647XCA     C4 5812  13.870   7.172   5.142 -0.4402 -0.3372  0.0928
  647XCA     C5 5813  13.671   7.042   5.535 -0.3355  0.0805  0.1541
  647XCA     C6 5814  13.246   6.932   5.607 -0.3017  0.0875  0.2520
  648CHOL   ROH 5815   1.461  15.765   4.984  0.1208  0.0572  0.1410
  648CHOL    R1 5816   1.629  15.729   5.209  0.0644 -0.1020  0.1576
  648CHOL    R2 5817   1.637  15.908   5.419  0.2748 -0.0671  0.1198
  648CHOL    R3 5818   1.585  15.687   5.568 -0.0063  0.0290  0.1645
  648CHOL    R4 5819   1.613  15.904   5.764  0.3729  0.0134  0.1278
  648CHOL    R5 5820   1.720  15.714   5.764  0.0932 -0.1445  0.1199
  648CHOL    C1 5821   1.549  15.694   6.105  0.1661  0.1516  0.1746
  648CHOL    C2 5822   1.668  15.697   6.541  0.0655  0.0053  0.0135
  649PNCE   AM1 5823   3.937  15.298   4.793  0.0386 -0.0051 -0.1129
  649PNCE   AM2 5824   3.778  15.204   4.500  0.0519 -0.0821  0.1543
  649PNCE   T1A 5825   3.679  15.094   5.173 -0.1494  0.1297  0.2604
  649PNCE   C2A 5826   3.705  14.894   5.536  0.3967 -0.1977  0.1066
  649PNCE   C3A 5827   3.498  14.816   5.911 -0.0464 -0.0281  0.2166
  649PNCE   C1B 5828   3.860  14.828   4.693  0.0325  0.1191  0.0814
  649PNCE   C2B 5829   4.073  14.497   4.899 -0.1401 -0.2701  0.1437
  649PNCE   C3B 5830   4.378  14.161   5.045 -0.0731  0.0903  0.4212
  649PNCE   D4B 5831   4.214  13.809   5.152  0.3138  0.1795 -0.1184
  649PNCE   C5B 5832   4.080  13.655   5.568  0.1404  0.1100 -0.2548
  649PNCE   C6B 5833   4.234  13.500   6.026 -0.1436 -0.0234  0.1698
  650CHOL   ROH 5834   7.290  15.578   8.435  0.1699  0.2153  0.1816
  650CHOL    R1 5835   7.372  15.483   8.182  0.0272  0.2794  0.1116
  650CHOL    R2 5836   7.513  15.639   8.003  0.1936  0.2253  0.1951
  650CHOL    R3 5837   7.688  15.431   8.008 -0.0546  0.0125  0.0414
  650CHOL    R4 5838   7.777  15.598   7.783  0.0799  0.0143  0.0970
  650CHOL    R5 5839   7.731  15.385   7.777 -0.1783  0.0720  0.0062
  650CHOL    C1 5840   8.095  15.379   7.660 -0.2195 -0.3075 -0.1037
  650CHOL    C2 5841   8.402  15.106   7.732  0.0514  0.1869 -0.0764
  651PNCE   AM1 5842   2.035  14.640   4.616  0.5315 -0.2284 -0.2249
  651PNCE   AM2 5843   2.385  14.740   4.426  0.1178  0.1347  0.0735
  651PNCE   T1A 5844   1.961  14.748   5.027 -0.0400  0.0848  0.1622
  651PNCE   C2A 5845   1.844  14.598   5.484  0.0440 -0.1550 -0.4252
  651PNCE   C3A 5846   1.827  14.961   5.803  0.0680  0.1199 -0.1673
  651PNCE   C1B 5847   2.484  14.450   4.713  0.3085 -0.1609 -0.0706
  651PNCE   C2B 5848   2.566  14.041   4.804  0.4873 -0.4406  0.1281
  651PNCE   C3B 5849   2.844  13.803   5.091  0.4501  0.0547 -0.2108
  651PNCE   D4B 5850   3.067  13.498   5.312 -0.0794 -0.1338 -0.1667
  651PNCE   C5B 5851   3.366  13.577   5.684  0.0688 -0.2023 -0.1409
  651PNCE   C6B 5852   3.768  13.569   5.999  0.0411 -0.0148 -0.3126
  652PNCE   AM1 5853   8.086   4.738   4.462 -0.1980  0.1316 -0.1315
  652PNCE   AM2 5854   7.977   4.457   4.647  0.3651 -0.0232 -0.0546
  652PNCE   T1A 5855   7.866   5.038   4.721 -0.4677  0.0035 -0.1360
  652PNCE   C2A 5856   8.019   5.534   4.804 -0.2026 -0.1335 -0.0706
  652PNCE   C3A 5857   7.882   5.944   4.745  0.2360 -0.2975  0.0470
  652PNCE   C1B 5858   7.857   4.656   5.055 -0.2065  0.1359 -0.0220
  652PNCE   C2B 5859   7.478   4.708   5.400 -0.0843 -0.1207 -0.0282
  652PNCE   C3B 5860   7.127   4.805   5.676  0.3611  0.4023  0.0284
  652PNCE   D4B 5861   6.745   5.133   5.822  0.2372 -0.1706 -0.0990
  652PNCE   C5B 5862   6.644   5.157   6.300 -0.0888  0.0205 -0.1326
  652PNCE   C6B 5863   6.694   5.361   6.764 -0.0254 -0.0376  0.0687
  653PNCE   AM1 5864   9.905   6.029   4.380 -0.1436  0.0823  0.0511
  653PNCE   AM2 5865   9.946   5.748   4.252  0.0986 -0.3456  0.1463
  653PNCE   T1A 5866   9.840   6.172   4.836  0.0562 -0.0022 -0.0933
  653PNCE   C2A 5867   9.837   6.371   5.160  0.0146  0.1062 -0.2249
  653PNCE   C3A 5868   9.769   6.483   5.512 -0.1616  0.2439 -0.0507
  653PNCE   C1B 5869  10.277   5.613   4.430  0.3698  0.1093 -0.1095
  653PNCE   C2B 5870  10.332   5.867   4.825  0.0379 -0.0477 -0.0165
  653PNCE   C3B 5871  10.561   5.863   5.238 -0.1711  0.0438 -0.0289
  653PNCE   D4B 5872  10.856   5.897   5.562  0.0259 -0.3244  0.1524
  653PNCE   C5B 5873  10.709   5.941   6.054 -0.1018 -0.1023  0.1918
  653PNCE   C6B 5874  10.273   5.958   6.304  0.0921 -0.0117 -0.1144
  654PNCE   AM1 5875   7.501   5.867   4.266 -0.1680  0.0574  0.3039
  654PNCE   AM2 5876   7.706   5.519   4.293  0.3005 -0.2592 -0.2020
  654PNCE   T1A 5877   7.295   5.861   4.708  0.0712 -0.0866 -0.2993
  654PNCE   C2A 5878   7.065   6.018   5.055 -0.1510  0.1136  0.0968
  654PNCE   C3A 5879   6.850   6.219   5.379 -0.0473 -0.1354  0.0166
  654PNCE   C1B 5880   7.508   5.418   4.653 -0.0704 -0.0075  0.1432
  654PNCE   C2B 5881   7.545   5.682   5.067 -0.2041  0.0379  0.2652
  654PNCE   C3B 5882   7.368   5.752   5.514  0.1739 -0.1299  0.0766
  654PNCE   D4B 5883   6.944   5.585   5.600  0.1962 -0.2821 -0.0525
  654PNCE   C5B 5884   6.655   5.761   5.276  0.1220 -0.0330  0.0415
  654PNCE   C6B 5885   6.345   5.895   4.893  0.1734 -0.1631 -0.0878
  655CHOL   ROH 5886   1.108  15.305   8.144 -0.0758  0.1205  0.0124
  655CHOL    R1 5887   1.066  15.540   7.992 -0.1964  0.1082  0.0260
  655CHOL    R2 5888   1.252  15.635   7.811 -0.1697  0.3097  0.1590
  655CHOL    R3 5889   1.041  15.626   7.640 -0.0538  0.1445  0.0252
  655CHOL    R4 5890   1.263  15.733   7.480  0.0330  0.0677  0.0944
  655CHOL    R5 5891   1.066  15.823   7.505 -0.0004  0.0510 -0.1030
  655CHOL    C1 5892   1.072  15.781   7.126  0.2598 -0.2268 -0.0688
  655CHOL    C2 5893   0.964  16.118   7.005  0.2416 -0.2007 -0.0873
  656PNCE   AM1 5894   6.684   9.942   4.202 -0.1755  0.2338  0.2006
  656PNCE   AM2 5895   6.797   9.681   4.357 -0.2942 -0.0270 -0.0395
  656PNCE   T1A 5896   7.100  10.167   4.520 -0.2164 -0.1433 -0.1483
  656PNCE   C2A 5897   7.358  10.049   4.911  0.1472 -0.1982 -0.2432
  656PNCE   C3A 5898   7.782  10.147   5.224 -0.0096  0.0672  0.0313
  656PNCE   C1B 5899   6.694   9.473   4.702 -0.0021 -0.1966 -0.0491
  656PNCE   C2B 5900   6.886   9.199   5.108 -0.2081 -0.1352  0.5511
  656PNCE   C3B 5901   6.875   8.763   5.428  0.1817  0.0956 -0.2325
  656PNCE   D4B 5902   6.854   8.378   5.489  0.0379  0.0281  0.2402
  656PNCE   C5B 5903   7.267   8.010   5.379 -0.1201  0.1456  0.1338
  656PNCE   C6B 5904   7.612   7.761   5.180  0.5252  0.1078  0.0950
  657CHOL   ROH 5905   4.684   3.616   6.816 -0.2245 -0.1056  0.2683
  657CHOL    R1 5906   4.663   3.377   6.666 -0.1214 -0.0129  0.1063
  657CHOL    R2 5907   4.503   3.166   6.743  0.0142 -0.1578 -0.0066
  657CHOL    R3 5908   4.399   3.195   6.494 -0.0552 -0.0422  0.0357
  657CHOL    R4 5909   4.232   2.990   6.621 -0.1531  0.0535  0.0613
  657CHOL    R5 5910   4.335   2.973   6.430 -0.2344  0.0131  0.0207
  657CHOL    C1 5911   3.976   2.915   6.316 -0.3160  0.2850  0.1403
  657CHOL    C2 5912   3.648   3.072   6.086 -0.1658 -0.0047 -0.2920
  658CHOL   ROH 5913   7.767   6.709   7.525  0.1285 -0.1375  0.1347
  658CHOL    R1 5914   7.669   6.738   7.261  0.0937 -0.0267  0.1595
  658CHOL    R2 5915   7.811   6.869   7.063  0.1635 -0.1310  0.1407
  658CHOL    R3 5916   7.773   6.636   6.927 -0.0703 -0.0853  0.1265
  658CHOL    R4 5917   7.794   6.842   6.719  0.2811 -0.1130  0.1333
  658CHOL    R5 5918   7.633   6.697   6.743  0.0880  0.0908  0.0629
  658CHOL    C1 5919   7.749   6.607   6.391  0.1304 -0.0597  0.1159
  658CHOL    C2 5920   7.762   6.463   6.007 -0.2901 -0.0591 -0.0187
  659PNCE   AM1 5921  14.156   2.829   4.429  0.0643  0.1622  0.2510
  659PNCE   AM2 5922  13.868   3.015   4.424  0.1625  0.4314  0.1074
  659PNCE   T1A 5923  14.326   2.750   4.838 -0.0305  0.0308 -0.1266
  659PNCE   C2A 5924  14.514   2.523   5.107 -0.2407 -0.1695 -0.2508
  659PNCE   C3A 5925  14.879   2.507   5.352  0.0917 -0.1130  0.0956
  659PNCE   C1B 5926  13.869   2.980   4.896  0.1393  0.0113  0.0256
  659PNCE   C2B 5927  14.072   2.911   5.268  0.0297 -0.0409  0.1178
  659PNCE   C3B 5928  14.254   3.229   5.626  0.3827  0.2351 -0.2784
  659PNCE   D4B 5929  14.684   3.122   5.849  0.3078  0.1659  0.3351
  659PNCE   C5B 5930  14.819   2.763   5.809  0.4006 -0.2204 -0.0136
  659PNCE   C6B 5931  14.668   2.325   5.854 -0.3039 -0.2768  0.2554
  660CHOL   ROH 5932   3.840   2.701   4.983 -0.0787  0.0044 -0.2922
  660CHOL    R1 5933   3.663   2.715   5.203 -0.0075  0.0509 -0.2384
  660CHOL    R2 5934   3.435   2.870   5.201 -0.1110 -0.1017 -0.2702
  660CHOL    R3 5935   3.314   2.636   5.268  0.0681 -0.1328 -0.0526
  660CHOL    R4 5936   3.181   2.838   5.434 -0.1065 -0.0752 -0.2618
  660CHOL    R5 5937   3.275   2.654   5.504  0.0329  0.0666 -0.0737
  660CHOL    C1 5938   2.920   2.600   5.632  0.0644 -0.0891 -0.0521
  660CHOL    C2 5939   2.688   2.738   5.987 -0.2601 -0.0998 -0.2303
  661PNCE   AM1 5940   8.410   8.278   7.979  0.3716  0.2317 -0.1123
  661PNCE   AM2 5941   8.259   8.375   8.172  0.2716 -0.0225  0.1465
  661PNCE   T1A 5942   8.133   8.199   7.573  0.0232 -0.0887 -0.2255
  661PNCE   C2A 5943   7.828   8.054   7.182  0.2158  0.1409 -0.0186
  661PNCE   C3A 5944   7.700   8.074   6.727  0.0598  0.2634 -0.1597
  661PNCE   C1B 5945   8.203   8.671   7.761  0.1823 -0.0610 -0.2965
  661PNCE   C2B 5946   8.070   8.897   7.445 -0.2403 -0.0212 -0.1193
  661PNCE   C3B 5947   8.093   9.060   7.041  0.0800  0.0978 -0.0799
  661PNCE   D4B 5948   8.219   8.855   6.603  0.0747  0.0455  0.0392
  661PNCE   C5B 5949   8.502   8.689   6.451 -0.3032  0.1757 -0.1584
  661PNCE   C6B 5950   8.766   8.755   6.106 -0.1066  0.1618 -0.1132
  662PNCE   AM1 5951   6.048   8.537   4.006 -0.0705  0.0277  0.1569
  662PNCE   AM2 5952   5.975   8.181   4.146  0.0908  0.0826  0.1167
  662PNCE   T1A 5953   6.331   8.563   4.357  0.3408  0.0010 -0.2780
  662PNCE   C2A 5954   6.544   8.259   4.566  0.0302  0.1666 -0.0924
  662PNCE   C3A 5955   6.744   8.193   4.975  0.1507  0.0899 -0.0218
  662PNCE   C1B 5956   6.252   7.903   4.352  0.0010 -0.2097  0.1687
  662PNCE   C2B 5957   6.143   7.660   4.826 -0.0727  0.0186  0.0097
  662PNCE   C3B 5958   5.949   7.565   5.237  0.1761  0.0401  0.1738
  662PNCE   D4B 5959   5.572   7.739   5.460  0.3559 -0.1408 -0.1256
  662PNCE   C5B 5960   5.335   7.893   5.698  0.2337 -0.1680  0.1570
  662PNCE   C6B 5961   5.265   7.828   6.119 -0.0059 -0.1133  0.1828
  663CHOL   ROH 5962   9.263  11.854   6.842 -0.1857 -0.1752  0.1872
  663CHOL    R1 5963   9.248  11.792   6.566 -0.1092 -0.0944  0.1647
  663CHOL    R2 5964   9.402  11.594   6.451 -0.0431 -0.0285  0.1400
  663CHOL    R3 5965   9.161  11.501   6.366 -0.0048 -0.0509  0.0567
  663CHOL    R4 5966   9.359  11.333   6.228  0.0582 -0.0377  0.1307
  663CHOL    R5 5967   9.197  11.446   6.135  0.0815 -0.0534  0.0703
  663CHOL    C1 5968   9.107  11.093   6.019  0.1533 -0.0638  0.0470
  663CHOL    C2 5969   8.969  10.789   5.673 -0.0072 -0.0708  0.0677
  664XCA    COO 5970   6.342  13.005   8.121  0.0923 -0.0104 -0.2134
  664XCA     C1 5971   6.700  13.025   7.949  0.0800 -0.1965 -0.0858
  664XCA     C2 5972   6.897  13.079   7.499 -0.2126  0.1358 -0.0121
  664XCA     C3 5973   6.746  13.390   7.207  0.1079  0.0783  0.0418
  664XCA     C4 5974   6.843  13.849   7.270  0.2630  0.0060  0.0135
  664XCA     C5 5975   6.785  14.112   7.060 -0.2194 -0.5466 -0.1783
  664XCA     C6 5976   6.443  14.349   7.086  0.1542 -0.1457  0.0381
  665XCA    COO 5977  10.532   6.287   7.643 -0.2171  0.1708 -0.2217
  665XCA     C1 5978  10.247   5.966   7.364 -0.2166 -0.1146 -0.2305
  665XCA     C2 5979  10.241   5.776   6.919  0.0698 -0.1595  0.0295
  665XCA     C3 5980  10.189   5.578   6.584 -0.2447  0.1795 -0.2219
  665XCA     C4 5981  10.057   5.276   6.200  0.0637  0.0824  0.0296
  665XCA     C5 5982  10.080   5.095   5.770  0.2559 -0.1545 -0.0521
  665XCA     C6 5983  10.418   4.991   5.568  0.0231  0.0753 -0.0304
  666XCA    COO 5984   1.255   5.104   7.942 -0.0525 -0.1749 -0.2090
  666XCA     C1 5985   1.305   5.092   7.527  0.2721  0.0537 -0.1549
  666XCA     C2 5986   1.349   4.959   7.092  0.2300 -0.2777 -0.1661
  666XCA     C3 5987   1.275   5.169   6.667  0.2214 -0.0100 -0.2247
  666XCA     C4 5988   1.156   5.234   6.200  0.1674 -0.1359 -0.0020
  666XCA     C5 5989   0.908   5.498   6.009  0.1806  0.0527 -0.0414
  666XCA     C6 5990   0.419   5.449   5.941  0.1779 -0.0623  0.2798
  667CHOL   ROH 5991   2.897   2.159   6.398 -0.1148  0.1650 -0.1873
  667CHOL    R1 5992   2.859   1.880   6.374 -0.1756  0.1642 -0.0837
  667CHOL    R2 5993   2.611   1.767   6.328 -0.1779  0.2111 -0.1879
  667CHOL    R3 5994   2.738   1.650   6.118 -0.0780  0.0811 -0.0555
  667CHOL    R4 5995   2.460   1.559   6.097 -0.1231  0.2685 -0.2751
  667CHOL    R5 5996   2.638   1.433   6.102 -0.2131  0.1464 -0.0968
  667CHOL    C1 5997   2.492   1.329   5.765  0.0029  0.1799 -0.2019
  667CHOL    C2 5998   2.686   1.162   5.465 -0.0721 -0.0951 -0.0992
  668PNCE   AM1 5999   9.716   8.779   4.265 -0.0286  0.1692 -0.2256
  668PNCE   AM2 6000   9.440   8.573   4.339  0.2332 -0.2180  0.0188
  668PNCE   T1A 6001   9.702   8.879   4.609  0.0815 -0.2231 -0.0699
  668PNCE   C2A 6002   9.791   9.035   5.014  0.0681 -0.3947 -0.1223
  668PNCE   C3A 6003   9.926   8.830   5.422  0.0610 -0.0833  0.0416
  668PNCE   C1B 6004   9.322   8.532   4.720  0.0946 -0.3109  0.0963
  668PNCE   C2B 6005   9.232   8.834   5.020  0.1039 -0.2322  0.2684
  668PNCE   C3B 6006   9.336   8.852   5.400 -0.0794 -0.0756  0.1141
  668PNCE   D4B 6007   9.519   8.746   5.779 -0.1106  0.4940 -0.2660
  668PNCE   C5B 6008   9.282   8.480   6.002 -0.1158  0.0372 -0.2165
  668PNCE   C6B 6009   9.133   8.109   6.025  0.1953  0.0014 -0.1780
  669CHOL   ROH 6010  13.131  10.115   4.867  0.2691 -0.0436 -0.1633
  669CHOL    R1 6011  13.145  10.138   5.148  0.0377 -0.0577 -0.1512
  669CHOL    R2 6012  13.198   9.922   5.312  0.0435 -0.0376 -0.1272
  669CHOL    R3 6013  13.395  10.083   5.407 -0.1276  0.0759  0.0380
  669CHOL    R4 6014  13.346   9.891   5.623 -0.0491 -0.0863 -0.0880
  669CHOL    R5 6015  13.345  10.109   5.639 -0.2379 -0.0968  0.0331
  669CHOL    C1 6016  13.618  10.025   5.893 -0.2637 -0.0085  0.0903
  669CHOL    C2 6017  13.906  10.022   5.997  0.0511  0.0259  0.0726
  670XCA    COO 6018   0.175   3.278   4.336  0.0505 -0.0711  0.0475
  670XCA     C1 6019   0.086   3.224   4.729  0.0606  0.0115  0.3727
  670XCA     C2 6020  -0.050   3.247   5.169 -0.1200 -0.2015  0.1038
  670XCA     C3 6021  -0.306   3.137   5.573  0.0210  0.0705  0.1142
  670XCA     C4 6022  -0.221   3.112   6.080  0.2836  0.0549 -0.2647
  670XCA     C5 6023  -0.225   3.231   6.473 -0.0169  0.1489  0.1086
  670XCA     C6 6024  -0.225   2.887   6.828 -0.0526  0.0469  0.0663
  671PNCE   AM1 6025  13.755   4.628   3.854 -0.0703  0.2607  0.1041
  671PNCE   AM2 6026  13.413   4.741   3.994 -0.1099 -0.0780  0.2407
  671PNCE   T1A 6027  13.535   4.428   4.351 -0.1426 -0.1922 -0.1397
  671PNCE   C2A 6028  13.134   4.449   4.552 -0.0686  0.1433  0.0845
  671PNCE   C3A 6029  12.799   4.502   4.862  0.0546 -0.2205 -0.0418
  671PNCE   C1B 6030  13.072   4.674   3.912  0.0438  0.3255  0.1141
  671PNCE   C2B 6031  12.636   4.565   4.084  0.0974  0.0352  0.0098
  671PNCE   C3B 6032  12.291   4.479   4.384  0.2710 -0.2155 -0.3994
  671PNCE   D4B 6033  12.402   4.703   4.725 -0.3363 -0.3015 -0.0439
  671PNCE   C5B 6034  12.149   5.048   4.781 -0.1191 -0.1586  0.0390
  671PNCE   C6B 6035  11.907   5.004   5.143  0.2117  0.1989  0.1129
  672PNCE   AM1 6036   0.208   5.496   4.093 -0.0629 -0.1540 -0.0908
  672PNCE   AM2 6037   0.429   5.816   4.144  0.1590 -0.0977 -0.2403
  672PNCE   T1A 6038   0.224   5.569   4.637  0.1097  0.0551 -0.1811
  672PNCE   C2A 6039   0.152   5.641   5.038 -0.1681 -0.0729 -0.2836
  672PNCE   C3A 6040   0.137   5.661   5.484 -0.3377 -0.0887  0.2703
  672PNCE   C1B 6041   0.485   6.001   4.546 -0.0621  0.0151  0.1590
  672PNCE   C2B 6042   0.548   5.973   4.956 -0.0620  0.0915  0.0779
  672PNCE   C3B 6043   0.535   5.989   5.371 -0.0671 -0.2218  0.0640
  672PNCE   D4B 6044   0.603   5.910   5.789 -0.1814  0.0540 -0.0464
  672PNCE   C5B 6045   0.164   5.917   5.944  0.3784  0.1534 -0.2016
  672PNCE   C6B 6046  -0.110   6.244   5.914 -0.0142 -0.0915 -0.1903
  673CHOL   ROH 6047   3.487   3.149   7.343  0.2413 -0.0123  0.1185
  673CHOL    R1 6048   3.516   3.049   7.080  0.2226  0.0952  0.0756
  673CHOL    R2 6049   3.306   2.940   6.938  0.2762 -0.1080  0.1524
  673CHOL    R3 6050   3.378   3.124   6.752 -0.0321  0.0281  0.1667
  673CHOL    R4 6051   3.217   2.928   6.604  0.0235 -0.0558  0.2174
  673CHOL    R5 6052   3.418   2.995   6.554 -0.0751  0.1402  0.0851
  673CHOL    C1 6053   3.233   3.094   6.235 -0.4132  0.1026  0.2687
  673CHOL    C2 6054   3.173   2.902   5.915 -0.0844 -0.3937 -0.1502
  674CHOL   ROH 6055  10.805   0.057   7.101 -0.0163 -0.0147 -0.0422
  674CHOL    R1 6056  11.015   0.024   6.914  0.0105 -0.2632  0.0322
  674CHOL    R2 6057  11.025  -0.188   6.737 -0.2516 -0.1931 -0.0645
  674CHOL    R3 6058  11.048   0.010   6.552  0.1438 -0.1417  0.0398
  674CHOL    R4 6059  11.088  -0.238   6.401 -0.2060 -0.1354 -0.0646
  674CHOL    R5 6060  11.221  -0.066   6.405  0.0749 -0.3557  0.0696
  674CHOL    C1 6061  11.146  -0.082   6.032  0.1921 -0.0516  0.0331
  674CHOL    C2 6062  11.227  -0.306   5.747  0.0978 -0.0475  0.0489
  675CHOL   ROH 6063  10.520  12.570   5.785 -0.2743  0.1372  0.0926
  675CHOL    R1 6064  10.638  12.372   5.950 -0.2704  0.1602  0.1168
  675CHOL    R2 6065  10.489  12.204   6.110 -0.2790  0.0490 -0.0066
  675CHOL    R3 6066  10.626  12.010   5.978 -0.1053  0.1469  0.0296
  675CHOL    R4 6067  10.489  11.869   6.196 -0.1225  0.0362 -0.0513
  675CHOL    R5 6068  10.702  11.863   6.151 -0.0978  0.1683  0.0446
  675CHOL    C1 6069  10.617  11.492   6.122  0.1322  0.1219 -0.0439
  675CHOL    C2 6070  10.643  11.105   6.291 -0.1148  0.0557 -0.0154
  676PNCE   AM1 6071   6.768   4.639   4.268 -0.0103 -0.1551 -0.1498
  676PNCE   AM2 6072   7.045   4.655   4.512 -0.1063  0.3054  0.1989
  676PNCE   T1A 6073   6.540   4.823   4.666  0.0188  0.3510 -0.1282
  676PNCE   C2A 6074   6.352   4.753   5.065 -0.1136  0.1659 -0.3616
  676PNCE   C3A 6075   6.285   4.586   5.455 -0.0209 -0.0502  0.1202
  676PNCE   C1B 6076   7.072   4.991   4.764  0.2784  0.0943 -0.0029
  676PNCE   C2B 6077   7.493   5.034   4.998 -0.3098  0.1923  0.0078
  676PNCE   C3B 6078   7.741   5.192   5.190  0.3031  0.4359 -0.2335
  676PNCE   D4B 6079   7.971   5.508   5.334  0.0011  0.1543  0.1937
  676PNCE   C5B 6080   7.862   5.984   5.301  0.2055  0.1349 -0.1942
  676PNCE   C6B 6081   7.559   6.282   5.031 -0.0183  0.3372 -0.1723
  677PNCE   AM1 6082  14.416  12.624   4.427 -0.4329  0.1075 -0.3063
  677PNCE   AM2 6083  14.569  12.851   4.619  0.3469 -0.1275 -0.1432
  677PNCE   T1A 6084  14.345  12.401   4.863  0.0277 -0.0319 -0.6415
  677PNCE   C2A 6085  14.290  12.431   5.293  0.2132 -0.2116  0.2745
  677PNCE   C3A 6086  14.381  12.514   5.730 -0.2263  0.2095 -0.1375
  677PNCE   C1B 6087  14.589  12.907   5.167 -0.1282  0.1066  0.0461
  677PNCE   C2B 6088  14.433  13.022   5.581  0.4180 -0.3944  0.1743
  677PNCE   C3B 6089  14.402  13.281   6.000 -0.0145 -0.1880  0.1041
  677PNCE   D4B 6090  14.576  13.137   6.371 -0.0003 -0.1168 -0.0027
  677PNCE   C5B 6091  14.595  12.768   6.653 -0.1526 -0.2748  0.0889
  677PNCE   C6B 6092  14.545  12.414   6.729  0.0833 -0.3385 -0.2186
  678XCA    COO 6093  16.022   5.138   4.250  0.2284 -0.1514 -0.0588
  678XCA     C1 6094  16.171   5.041   4.693 -0.1156  0.1580 -0.1478
  678XCA     C2 6095  16.202   4.759   5.023 -0.1386  0.2280 -0.0715
  678XCA     C3 6096  16.202   4.707   5.463 -0.2102  0.0312  0.2946
  678XCA     C4 6097  16.245   4.844   5.871 -0.0830  0.0591  0.2167
  678XCA     C5 6098  16.518   5.014   6.191 -0.3963 -0.0806 -0.1222
  678XCA     C6 6099  16.390   5.212   6.594 -0.7688  0.1420  0.1992
  679CHOL   ROH 6100   3.951   3.214   7.154 -0.0269 -0.0282  0.1236
  679CHOL    R1 6101   4.081   2.983   7.054 -0.1364 -0.0907  0.1259
  679CHOL    R2 6102   4.355   2.964   7.032 -0.1599 -0.0966 -0.1804
  679CHOL    R3 6103   4.319   2.738   7.179  0.0163 -0.0009  0.0115
  679CHOL    R4 6104   4.577   2.700   7.046 -0.0393  0.0089 -0.0992
  679CHOL    R5 6105   4.407   2.563   7.041  0.0167 -0.0678  0.0968
  679CHOL    C1 6106   4.672   2.333   7.191  0.1966  0.1598  0.1279
  679CHOL    C2 6107   4.779   1.999   7.524  0.0259 -0.0728 -0.0597
  680XCA    COO 6108  10.049  15.924   9.106 -0.0926  0.1242  0.2460
  680XCA     C1 6109  10.223  15.649   8.836 -0.0648 -0.1274  0.0350
  680XCA     C2 6110  10.310  15.730   8.440  0.0324  0.1301  0.1450
  680XCA     C3 6111  10.486  15.834   7.989  0.2671  0.0722 -0.2836
  680XCA     C4 6112  10.296  15.610   7.529 -0.0661 -0.0472 -0.0245
  680XCA     C5 6113  10.436  15.449   7.091  0.0991  0.1185  0.1835
  680XCA     C6 6114  10.684  15.188   6.887  0.0193  0.3359  0.1187
  681CHOL   ROH 6115  15.230  14.904   7.183 -0.0171 -0.0564 -0.0787
  681CHOL    R1 6116  15.464  15.033   7.090 -0.0963  0.0687 -0.1030
  681CHOL    R2 6117  15.681  14.895   6.989  0.0790  0.1694  0.1345
  681CHOL    R3 6118  15.645  15.059   6.776  0.0232 -0.0797 -0.0470
  681CHOL    R4 6119  15.914  14.947   6.740  0.1159  0.0825  0.1516
  681CHOL    R5 6120  15.860  15.158   6.741 -0.0401  0.0443 -0.0844
  681CHOL    C1 6121  16.017  15.131   6.394  0.0859 -0.2000 -0.0086
  681CHOL    C2 6122  15.820  15.228   6.012 -0.2316 -0.4163  0.2198
  682PNCE   AM1 6123   4.685   4.746   4.216  0.0201  0.1425 -0.0926
  682PNCE   AM2 6124   4.446   4.775   4.132  0.0814 -0.2767 -0.0283
  682PNCE   T1A 6125   4.888   4.618   4.578 -0.5526  0.0465 -0.1082
  682PNCE   C2A 6126   5.152   4.667   4.951 -0.1563 -0.1090  0.4297
  682PNCE   C3A 6127   5.350   4.628   5.363  0.0315  0.0390  0.3079
  682PNCE   C1B 6128   4.290   4.806   4.592 -0.2463 -0.1750 -0.2559
  682PNCE   C2B 6129   4.103   5.025   4.828 -0.1916  0.0855 -0.0842
  682PNCE   C3B 6130   4.270   4.909   5.225 -0.0443 -0.2431 -0.4266
  682PNCE   D4B 6131   4.495   4.647   5.505  0.0204 -0.3952 -0.1431
  682PNCE   C5B 6132   4.886   4.572   5.407 -0.0779 -0.1990  0.1183
  682PNCE   C6B 6133   5.167   4.351   5.687  0.3359  0.1855 -0.2340
  683CHOL   ROH 6134  15.583   9.919   4.697  0.0370  0.2249 -0.0040
  683CHOL    R1 6135  15.389   9.866   4.897 -0.0687 -0.0172 -0.1707
  683CHOL    R2 6136  15.196   9.670   4.868  0.2187 -0.2785 -0.3240
  683CHOL    R3 6137  15.295   9.583   5.106  0.1258 -0.1238 -0.2284
  683CHOL    R4 6138  15.069   9.405   5.049  0.0515 -0.0634 -0.1252
  683CHOL    R5 6139  15.101   9.520   5.231  0.0687  0.0763 -0.2170
  683CHOL    C1 6140  15.088   9.168   5.378 -0.1328  0.2071  0.0797
  683CHOL    C2 6141  14.752   8.838   5.460  0.0071  0.1617 -0.0648
  684PNCE   AM1 6142  11.932  11.497   4.408 -0.2223 -0.0695 -0.0369
  684PNCE   AM2 6143  11.718  11.772   4.462  0.1738 -0.2616 -0.0915
  684PNCE   T1A 6144  11.869  11.155   4.627 -0.1877 -0.0542  0.1940
  684PNCE   C2A 6145  12.080  10.919   4.927  0.1458  0.0478  0.3237
  684PNCE   C3A 6146  12.524  10.997   4.949  0.0165  0.1868  0.1754
  684PNCE   C1B 6147  11.448  11.405   4.549 -0.0528 -0.0980 -0.1360
  684PNCE   C2B 6148  11.313  11.116   4.836  0.3147 -0.2050 -0.0665
  684PNCE   C3B 6149  11.610  10.978   5.162 -0.1123  0.0118  0.1467
  684PNCE   D4B 6150  11.928  10.829   5.366  0.0953  0.1067  0.1038
  684PNCE   C5B 6151  12.017  10.953   5.770 -0.3052  0.0062  0.2397
  684PNCE   C6B 6152  12.361  10.715   5.955  0.0859  0.0947 -0.1816
  685CHOL   ROH 6153  13.505   7.324   7.364  0.0745  0.0979  0.1662
  685CHOL    R1 6154  13.501   7.488   7.134 -0.1493  0.1471  0.2043
  685CHOL    R2 6155  13.553   7.759   7.144  0.1641  0.0895  0.1671
  685CHOL    R3 6156  13.738   7.698   6.955 -0.2327 -0.0770 -0.1699
  685CHOL    R4 6157  13.694   7.987   6.925  0.3152  0.0494  0.2224
  685CHOL    R5 6158  13.680   7.836   6.768 -0.2203  0.2551  0.0703
  685CHOL    C1 6159  13.951   8.062   6.621  0.0301 -0.1304 -0.0614
  685CHOL    C2 6160  13.923   8.244   6.295  0.1003  0.0948  0.2805
  686XCA    COO 6161   2.337  11.878   4.013 -0.1072 -0.1148 -0.1825
  686XCA     C1 6162   2.628  11.696   4.385 -0.2411 -0.1365 -0.5850
  686XCA     C2 6163   2.811  11.449   4.589 -0.1746 -0.0563  0.0669
  686XCA     C3 6164   2.831  11.129   4.893 -0.0610 -0.0469  0.1675
  686XCA     C4 6165   2.573  10.866   5.097  0.1175 -0.0417  0.2423
  686XCA     C5 6166   2.196  10.879   5.170  0.1541  0.0960 -0.1863
  686XCA     C6 6167   1.952  11.003   5.127  0.1248  0.2565 -0.0668
  687PNCE   AM1 6168   0.526   7.255   4.058  0.0919  0.2526 -0.1212
  687PNCE   AM2 6169   0.329   7.375   3.874 -0.1385 -0.0709 -0.1703
  687PNCE   T1A 6170   0.461   6.949   4.389 -0.3062  0.0042 -0.1969
  687PNCE   C2A 6171   0.259   6.844   4.829 -0.1392  0.2908 -0.2264
  687PNCE   C3A 6172   0.128   7.079   5.244 -0.2091 -0.3665 -0.0091
  687PNCE   C1B 6173   0.013   7.091   4.128  0.0609 -0.1929  0.0806
  687PNCE   C2B 6174  -0.285   7.060   4.511  0.1384 -0.0408  0.0065
  687PNCE   C3B 6175  -0.230   7.273   4.906  0.0483 -0.0730 -0.0515
  687PNCE   D4B 6176  -0.200   7.432   5.375 -0.0670  0.1210  0.0522
  687PNCE   C5B 6177  -0.443   7.289   5.605 -0.1245  0.0669 -0.3603
  687PNCE   C6B 6178  -0.741   7.397   6.041  0.0395  0.0430 -0.2003
  688CHOL   ROH 6179  13.908  11.642   5.000  0.0568  0.0051  0.0321
  688CHOL    R1 6180  13.732  11.641   5.221  0.1130  0.1054  0.0782
  688CHOL    R2 6181  13.497  11.495   5.223  0.0601  0.1916  0.1620
  688CHOL    R3 6182  13.600  11.393   5.453  0.0822  0.1892  0.1513
  688CHOL    R4 6183  13.380  11.212   5.383  0.1664  0.1087  0.0930
  688CHOL    R5 6184  13.409  11.314   5.574  0.1030  0.0830  0.1159
  688CHOL    C1 6185  13.408  10.951   5.692  0.2476  0.0594  0.0428
  688CHOL    C2 6186  13.274  10.757   5.884  0.1702 -0.3513 -0.1248
  689CHOL   ROH 6187   2.231  14.752   6.035 -0.0225 -0.0780  0.3283
  689CHOL    R1 6188   2.434  14.928   6.123  0.0529 -0.1516  0.3023
  689CHOL    R2 6189   2.425  15.200   6.077  0.2937 -0.1869  0.0393
  689CHOL    R3 6190   2.458  15.214   6.347  0.1185  0.0409  0.0491
  689CHOL    R4 6191   2.581  15.460   6.244  0.0627  0.0205 -0.0665
  689CHOL    R5 6192   2.674  15.313   6.375  0.0525  0.1693  0.1070
  689CHOL    C1 6193   2.702  15.624   6.594 -0.2364  0.3551 -0.1196
  689CHOL    C2 6194   2.734  15.707   6.976  0.0919  0.2915  0.0535
  690PNCE   AM1 6195   6.209  10.245   4.395 -0.0486 -0.0589  0.4170
  690PNCE   AM2 6196   5.882  10.432   4.413 -0.1815 -0.1872 -0.2410
  690PNCE   T1A 6197   6.437   9.919   4.640  0.3369 -0.4469 -0.0378
  690PNCE   C2A 6198   6.797   9.920   4.956 -0.0262 -0.1751 -0.0361
  690PNCE   C3A 6199   6.865   9.748   5.413 -0.0608 -0.0586  0.0566
  690PNCE   C1B 6200   5.917  10.330   4.841 -0.0031  0.1059 -0.1838
  690PNCE   C2B 6201   6.306  10.092   5.111 -0.2195  0.2185 -0.0796
  690PNCE   C3B 6202   6.586  10.120   5.403 -0.0474  0.0596 -0.0820
  690PNCE   D4B 6203   6.860  10.031   5.806  0.2373  0.0380 -0.2914
  690PNCE   C5B 6204   7.221  10.105   6.067 -0.1627 -0.1184  0.2706
  690PNCE   C6B 6205   7.612   9.838   5.991 -0.0558 -0.3240  0.1123
  691PNCE   AM1 6206  12.933  11.564   7.996  0.0479  0.0657 -0.0708
  691PNCE   AM2 6207  13.219  11.580   8.151  0.1027  0.0893 -0.0048
  691PNCE   T1A 6208  13.119  11.494   7.529  0.0704 -0.0240 -0.0608
  691PNCE   C2A 6209  13.022  11.296   7.097 -0.0887  0.1674 -0.4379
  691PNCE   C3A 6210  12.623  11.232   6.874  0.0634 -0.2343 -0.1186
  691PNCE   C1B 6211  13.167  11.926   7.755  0.1924  0.1211 -0.0598
  691PNCE   C2B 6212  13.364  12.194   7.590  0.1798  0.0254  0.0325
  691PNCE   C3B 6213  13.336  12.355   7.082 -0.1850  0.0069  0.1590
  691PNCE   D4B 6214  12.906  12.291   6.825  0.3667 -0.0758  0.0407
  691PNCE   C5B 6215  12.553  12.255   7.140  0.1506 -0.0486 -0.0152
  691PNCE   C6B 6216  12.201  12.025   7.294 -0.2699 -0.0298  0.0741
  692PNCE   AM1 6217   4.298  12.421   3.837 -0.1671 -0.0443 -0.1745
  692PNCE   AM2 6218   4.364  12.287   4.073 -0.1323  0.1936  0.2383
  692PNCE   T1A 6219   4.372  12.935   3.900  0.0950 -0.0755 -0.1340
  692PNCE   C2A 6220   4.374  13.305   3.781 -0.0398 -0.0724  0.0422
  692PNCE   C3A 6221   4.009  13.554   3.585  0.1826  0.0324 -0.1503
  692PNCE   C1B 6222   4.395  12.072   4.435  0.0838  0.3625 -0.2705
  692PNCE   C2B 6223   4.511  11.681   4.694 -0.1572 -0.2053  0.1855
  692PNCE   C3B 6224   4.624  11.169   4.883  0.1931 -0.0280  0.1576
  692PNCE   D4B 6225   4.395  11.003   5.276 -0.1776  0.0574 -0.0726
  692PNCE   C5B 6226   4.138  10.793   5.551  0.1426  0.1809 -0.5308
  692PNCE   C6B 6227   3.742  10.663   5.869  0.0717  0.0759  0.1121
  693CHOL   ROH 6228  10.889   3.341   4.462 -0.3371 -0.1398  0.0291
  693CHOL    R1 6229  10.988   3.577   4.584 -0.1822 -0.2136  0.0477
  693CHOL    R2 6230  10.861   3.821   4.558  0.0073 -0.1182  0.0233
  693CHOL    R3 6231  10.868   3.817   4.830 -0.0471 -0.1230  0.0248
  693CHOL    R4 6232  10.788   4.091   4.761 -0.1388 -0.1521  0.0155
  693CHOL    R5 6233  10.954   4.033   4.890 -0.1435 -0.0916  0.0482
  693CHOL    C1 6234  10.752   4.245   5.134 -0.2757 -0.1764  0.0118
  693CHOL    C2 6235  10.674   4.599   5.448  0.1543  0.2274  0.0692
  694PNCE   AM1 6236  12.657  10.765   4.051 -0.0652  0.1274  0.0096
  694PNCE   AM2 6237  12.348  10.687   3.873 -0.1486 -0.2812 -0.0273
  694PNCE   T1A 6238  12.302  10.737   4.382  0.0256  0.0461  0.3102
  694PNCE   C2A 6239  11.974  10.500   4.536 -0.1484  0.1776  0.1075
  694PNCE   C3A 6240  11.496  10.324   4.533 -0.2800  0.0766  0.2077
  694PNCE   C1B 6241  12.076  10.407   4.065  0.1043  0.0401 -0.0315
  694PNCE   C2B 6242  11.772  10.139   4.191 -0.1529 -0.1991 -0.0591
  694PNCE   C3B 6243  11.832  10.048   4.717 -0.0825 -0.0120 -0.0942
  694PNCE   D4B 6244  11.670   9.683   4.945  0.1898 -0.1320  0.0243
  694PNCE   C5B 6245  11.233   9.738   5.181  0.0921  0.2702 -0.2331
  694PNCE   C6B 6246  10.859   9.877   5.406 -0.3037  0.1035  0.3110
  695PNCE   AM1 6247   1.606   2.098   4.518  0.1542 -0.2123  0.0153
  695PNCE   AM2 6248   1.735   1.753   4.489  0.0918 -0.0126 -0.1579
  695PNCE   T1A 6249   1.666   2.316   4.827 -0.2091 -0.2702  0.1450
  695PNCE   C2A 6250   2.070   2.399   5.119 -0.3562  0.0736  0.1735
  695PNCE   C3A 6251   2.310   2.553   5.451 -0.0028  0.0820 -0.2524
  695PNCE   C1B 6252   1.927   1.868   4.963 -0.2353  0.1678  0.1221
  695PNCE   C2B 6253   1.842   2.073   5.383 -0.0225 -0.1635  0.0136
  695PNCE   C3B 6254   1.885   2.290   5.716 -0.0813  0.1234  0.0218
  695PNCE   D4B 6255   2.093   2.461   6.103 -0.1417 -0.0035  0.1885
  695PNCE   C5B 6256   1.965   2.519   6.494 -0.2442 -0.3451 -0.0051
  695PNCE   C6B 6257   1.891   2.879   6.760 -0.0101  0.1092 -0.0454
  696PNCE   AM1 6258   5.089  10.807   4.204  0.0785 -0.3245 -0.0622
  696PNCE   AM2 6259   5.399  10.577   4.198  0.1287  0.0358  0.3014
  696PNCE   T1A 6260   5.042  10.565   4.534  0.2410 -0.0787  0.0567
  696PNCE   C2A 6261   4.853  10.209   4.650 -0.2105 -0.0002 -0.0069
  696PNCE   C3A 6262   4.563   9.758   4.583 -0.0313  0.2165  0.1673
  696PNCE   C1B 6263   5.419  10.192   4.427 -0.0679  0.1441 -0.3233
  696PNCE   C2B 6264   5.526  10.003   4.954 -0.0010 -0.1134 -0.0586
  696PNCE   C3B 6265   5.743   9.688   5.238  0.1619  0.1369 -0.1522
  696PNCE   D4B 6266   5.566   9.475   5.628 -0.2762 -0.4320  0.0358
  696PNCE   C5B 6267   5.368   9.692   5.920  0.2625  0.1547 -0.1777
  696PNCE   C6B 6268   5.155  10.024   5.892  0.1168  0.0931  0.1348
  697PNCE   AM1 6269  11.967   4.143   3.854  0.0189  0.1757 -0.2339
  697PNCE   AM2 6270  11.683   3.840   3.726  0.1132 -0.1653  0.0881
  697PNCE   T1A 6271  12.016   4.028   4.280  0.1320  0.1652  0.4177
  697PNCE   C2A 6272  11.831   3.936   4.690  0.2694 -0.1448  0.1444
  697PNCE   C3A 6273  11.741   3.847   5.056  0.3000 -0.1293 -0.1415
  697PNCE   C1B 6274  11.424   3.824   4.106  0.1228 -0.0209  0.2517
  697PNCE   C2B 6275  11.386   3.759   4.574 -0.0550 -0.2245  0.0099
  697PNCE   C3B 6276  11.241   3.608   5.000 -0.1297  0.0239  0.0233
  697PNCE   D4B 6277  11.358   3.778   5.328 -0.0013 -0.0764  0.1584
  697PNCE   C5B 6278  11.179   4.168   5.292 -0.1925  0.3129 -0.1313
  697PNCE   C6B 6279  11.033   4.613   5.075  0.1759  0.1431 -0.1289
  698PNCE   AM1 6280  15.212   4.747   4.210 -0.1837 -0.4542  0.2279
  698PNCE   AM2 6281  15.636   4.724   4.168  0.1094 -0.0894 -0.0124
  698PNCE   T1A 6282  15.181   4.705   4.657 -0.1474 -0.0637 -0.1282
  698PNCE   C2A 6283  15.326   4.839   5.036 -0.0598  0.1932  0.0633
  698PNCE   C3A 6284  15.298   4.783   5.510  0.0763 -0.1799  0.2900
  698PNCE   C1B 6285  15.639   4.953   4.498 -0.2883  0.4553  0.4448
  698PNCE   C2B 6286  15.676   5.161   4.948  0.2735 -0.0739  0.0070
  698PNCE   C3B 6287  15.633   5.528   5.147 -0.0723 -0.0391  0.0180
  698PNCE   D4B 6288  15.476   5.630   5.544 -0.0928 -0.0236  0.2882
  698PNCE   C5B 6289  15.670   5.406   5.952 -0.1161 -0.1248 -0.1249
  698PNCE   C6B 6290  15.992   5.292   6.264  0.2435 -0.0859 -0.1147
  699XCA    COO 6291   1.207   5.592   3.934 -0.0422 -0.0941  0.1023
  699XCA     C1 6292   0.907   5.930   4.211  0.0673  0.0165 -0.0224
  699XCA     C2 6293   1.025   6.068   4.596  0.0077 -0.0317  0.0994
  699XCA     C3 6294   1.309   5.863   4.965  0.0033 -0.1984  0.4914
  699XCA     C4 6295   1.350   5.907   5.471 -0.0473  0.1480  0.1818
  699XCA     C5 6296   1.106   5.936   5.832  0.0682  0.1301 -0.1525
  699XCA     C6 6297   1.114   6.023   6.190 -0.0706 -0.0645 -0.2480
  700XCA    COO 6298  14.587  13.926   4.839 -0.0027 -0.1085  0.2499
  700XCA     C1 6299  14.391  14.012   5.240 -0.1916 -0.1496 -0.2280
  700XCA     C2 6300  14.244  13.900   5.707  0.1753 -0.0288  0.1868
  700XCA     C3 6301  14.113  13.725   6.070 -0.1069 -0.2368 -0.1536
  700XCA     C4 6302  14.035  13.767   6.550  0.0159  0.0542  0.1539
  700XCA     C5 6303  14.025  13.969   6.991 -0.1034 -0.0249  0.5149
  700XCA     C6 6304  13.951  13.994   7.392  0.2066  0.0292 -0.0681
  701PNCE   AM1 6305   4.961  13.259   3.896 -0.1210 -0.0743  0.0988
  701PNCE   AM2 6306   5.163  13.425   4.066 -0.1087  0.1196 -0.1565
  701PNCE   T1A 6307   4.668  13.637   4.045 -0.3250 -0.0463 -0.0413
  701PNCE   C2A 6308   4.573  13.962   4.235  0.4513 -0.1413  0.0173
  701PNCE   C3A 6309   4.143  14.165   4.360 -0.1574 -0.1791  0.0160
  701PNCE   C1B 6310   5.148  13.003   4.343  0.1727  0.0172  0.0226
  701PNCE   C2B 6311   5.082  12.731   4.603  0.0079 -0.2745 -0.1232
  701PNCE   C3B 6312   4.924  12.680   4.971  0.0424 -0.0189  0.2433
  701PNCE   D4B 6313   4.705  12.953   5.246 -0.0184  0.3988  0.0908
  701PNCE   C5B 6314   4.908  13.340   5.401 -0.1894  0.1314  0.0198
  701PNCE   C6B 6315   4.961  13.531   5.883  0.1468  0.2198  0.0138
  702PNCE   AM1 6316   4.572  16.004   4.998  0.1245  0.1372 -0.1816
  702PNCE   AM2 6317   4.322  16.087   5.221  0.4433  0.0792 -0.2729
  702PNCE   T1A 6318   4.748  15.833   5.433  0.1115  0.0268 -0.1312
  702PNCE   C2A 6319   4.739  15.585   5.909 -0.0107  0.1746  0.1169
  702PNCE   C3A 6320   4.865  15.522   6.350 -0.0432  0.4951 -0.3345
  702PNCE   C1B 6321   3.853  16.326   5.176 -0.4629 -0.1243 -0.2809
  702PNCE   C2B 6322   3.503  16.577   5.378 -0.2369 -0.0483 -0.5558
  702PNCE   C3B 6323   3.033  16.515   5.458  0.0108 -0.1968  0.1124
  702PNCE   D4B 6324   2.656  16.582   5.595  0.3211  0.5161  0.2778
  702PNCE   C5B 6325   2.307  16.838   5.726 -0.0034 -0.0176 -0.0851
  702PNCE   C6B 6326   1.846  16.830   5.830  0.1148 -0.0080  0.0185
  703CHOL   ROH 6327   8.112   5.199   7.281  0.0699 -0.0800  0.1054
  703CHOL    R1 6328   8.066   5.062   7.037  0.1535 -0.0546  0.0758
  703CHOL    R2 6329   7.997   5.194   6.804 -0.0047 -0.0541  0.1232
  703CHOL    R3 6330   8.213   5.061   6.704  0.0992  0.1701  0.0514
  703CHOL    R4 6331   8.066   5.155   6.467 -0.1588 -0.1130  0.0985
  703CHOL    R5 6332   8.128   4.950   6.509  0.1202 -0.0181  0.1493
  703CHOL    C1 6333   8.308   5.009   6.177 -0.1502  0.0624  0.0166
  703CHOL    C2 6334   8.105   5.219   5.926 -0.0679  0.2537  0.1231
  704PNCE   AM1 6335   9.959   3.513   4.430  0.0601  0.2561  0.4757
  704PNCE   AM2 6336   9.685   3.432   4.521  0.2503 -0.2109 -0.0076
  704PNCE   T1A 6337  10.032   3.506   4.893 -0.1417 -0.0628  0.2541
  704PNCE   C2A 6338  10.312   3.300   5.145 -0.1312  0.1578 -0.1978
  704PNCE   C3A 6339  10.712   3.066   5.357  0.1530 -0.1967 -0.0915
  704PNCE   C1B 6340   9.485   3.544   4.857 -0.0455 -0.0408  0.2491
  704PNCE   C2B 6341   9.193   3.494   5.186 -0.0921 -0.2146  0.0918
  704PNCE   C3B 6342   8.974   3.582   5.440 -0.0032 -0.0589  0.0881
  704PNCE   D4B 6343   8.606   3.753   5.628  0.2219  0.0094  0.1549
  704PNCE   C5B 6344   8.637   3.828   6.111  0.0226 -0.0211 -0.2903
  704PNCE   C6B 6345   8.463   3.768   6.518 -0.2699  0.5013  0.1975
  705PNCE   AM1 6346   0.196  15.547   4.847 -0.0107  0.1264  0.1504
  705PNCE   AM2 6347  -0.034  15.412   4.919  0.5557  0.3176  0.0697
  705PNCE   T1A 6348   0.610  15.628   5.086 -0.0844  0.1497 -0.0338
  705PNCE   C2A 6349   0.878  15.492   5.476  0.0918  0.1774  0.1387
  705PNCE   C3A 6350   0.859  15.496   5.878 -0.1153 -0.2497  0.1142
  705PNCE   C1B 6351   0.138  15.680   5.294  0.3220 -0.3255  0.0958
  705PNCE   C2B 6352   0.179  15.855   5.695  0.0970 -0.1737  0.0915
  705PNCE   C3B 6353   0.250  16.029   6.146  0.0646  0.0850 -0.1996
  705PNCE   D4B 6354   0.253  16.272   6.444  0.0249 -0.2412  0.3601
  705PNCE   C5B 6355   0.039  16.331   6.760 -0.4855  0.2954  0.2862
  705PNCE   C6B 6356  -0.038  16.179   7.042  0.0861  0.1313 -0.3801
  706CHOL   ROH 6357   4.766   1.549   5.201  0.0993 -0.0029 -0.0605
  706CHOL    R1 6358   4.829   1.694   5.436  0.0703 -0.2869  0.1218
  706CHOL    R2 6359   4.705   1.931   5.503  0.4519 -0.0832  0.1134
  706CHOL    R3 6360   4.653   1.801   5.736 -0.1209 -0.1387 -0.0433
  706CHOL    R4 6361   4.649   2.085   5.807  0.5610 -0.1845  0.1848
  706CHOL    R5 6362   4.768   1.929   5.903  0.0558 -0.5776  0.1750
  706CHOL    C1 6363   4.568   2.053   6.203  0.0866 -0.2958  0.0792
  706CHOL    C2 6364   4.957   2.235   6.241 -0.4144  0.0239  0.1819
  707XCA    COO 6365  11.873   9.094   8.079 -0.3115  0.0553  0.0280
  707XCA     C1 6366  11.780   9.257   7.652 -0.0162 -0.3809 -0.1945
  707XCA     C2 6367  11.657   9.376   7.166 -0.1326 -0.0119  0.0953
  707XCA     C3 6368  11.880   9.337   6.877  0.0883  0.0169  0.2191
  707XCA     C4 6369  11.980   9.214   6.553 -0.0183 -0.2189  0.0628
  707XCA     C5 6370  11.818   9.065   6.164 -0.1704  0.0488 -0.1629
  707XCA     C6 6371  11.464   9.211   6.015 -0.2728  0.1341  0.2306
  708XCA    COO 6372   7.084  13.076   4.878 -0.0974  0.1405  0.3605
  708XCA     C1 6373   6.840  13.123   5.247 -0.1901  0.2687 -0.1801
  708XCA     C2 6374   6.668  13.167   5.656  0.0600 -0.1935 -0.0324
  708XCA     C3 6375   6.202  13.264   5.888  0.2374  0.0923  0.0345
  708XCA     C4 6376   5.791  13.254   5.895 -0.1551  0.2790 -0.0392
  708XCA     C5 6377   5.340  13.169   5.700 -0.0344  0.0105  0.0699
  708XCA     C6 6378   5.182  12.785   5.443 -0.1111  0.1710 -0.2733
  709CHOL   ROH 6379   0.385   5.863   7.665  0.1185  0.1860  0.1408
  709CHOL    R1 6380   0.465   6.053   7.471 -0.0956  0.1400  0.0076
  709CHOL    R2 6381   0.502   5.988   7.206 -0.0331 -0.0029  0.0510
  709CHOL    R3 6382   0.327   6.192   7.165 -0.2578 -0.2216 -0.0831
  709CHOL    R4 6383   0.491   6.184   6.921  0.1855  0.2239  0.1986
  709CHOL    R5 6384   0.455   6.358   7.049 -0.2922  0.0646  0.2851
  709CHOL    C1 6385   0.320   6.490   6.717  0.1017  0.1502  0.1581
  709CHOL    C2 6386   0.078   6.557   6.308  0.1102  0.0920  0.0308
  710CHOL   ROH 6387   1.217  14.285   8.135  0.0040 -0.0255 -0.0560
  710CHOL    R1 6388   1.292  14.251   7.864  0.0366 -0.1383 -0.0331
  710CHOL    R2 6389   1.284  14.006   7.737 -0.1572 -0.1528  0.0061
  710CHOL    R3 6390   1.130  14.139   7.557  0.0066 -0.0428 -0.0524
  710CHOL    R4 6391   1.161  13.871   7.444 -0.1877 -0.0811 -0.0145
  710CHOL    R5 6392   1.205  14.060   7.344  0.0003 -0.1292 -0.0226
  710CHOL    C1 6393   0.945  13.917   7.104 -0.0515  0.0644 -0.0810
  710CHOL    C2 6394   0.954  13.702   6.658  0.1762 -0.1218  0.1252
  711CHOL   ROH 6395   2.123  12.701   4.684 -0.0419 -0.1418  0.1200
  711CHOL    R1 6396   2.219  12.827   4.919  0.1323 -0.0634  0.0072
  711CHOL    R2 6397   2.125  12.762   5.170  0.0427  0.2902  0.0658
  711CHOL    R3 6398   2.389  12.724   5.223 -0.0096 -0.0273  0.0990
  711CHOL    R4 6399   2.262  12.736   5.487 -0.0012  0.3309  0.0880
  711CHOL    R5 6400   2.431  12.856   5.419  0.1624  0.0558  0.0069
  711CHOL    C1 6401   2.589  12.684   5.721 -0.0759  0.0572  0.1324
  711CHOL    C2 6402   2.708  12.575   6.056 -0.1315  0.0254  0.1283
  712CHOL   ROH 6403   6.119   5.494   7.157 -0.2608 -0.1858 -0.1193
  712CHOL    R1 6404   6.157   5.384   6.899  0.0169 -0.0789 -0.1252
  712CHOL    R2 6405   6.040   5.492   6.673 -0.0640 -0.2211 -0.1516
  712CHOL    R3 6406   6.296   5.495   6.582 -0.0318  0.2015 -0.0488
  712CHOL    R4 6407   6.136   5.589   6.355 -0.1314 -0.3650 -0.2155
  712CHOL    R5 6408   6.279   5.425   6.353  0.2038 -0.0765  0.0186
  712CHOL    C1 6409   6.432   5.648   6.085 -0.1398 -0.0518 -0.1568
  712CHOL    C2 6410   6.437   5.467   5.702  0.1168  0.1428 -0.1914
  713XCA    COO 6411   2.679   1.684   4.667 -0.3055 -0.0223 -0.1123
  713XCA     C1 6412   2.687   1.889   5.135 -0.1597 -0.2234 -0.1363
  713XCA     C2 6413   2.348   2.013   5.426 -0.0626  0.1839  0.1566
  713XCA     C3 6414   2.160   1.859   5.778 -0.1013 -0.0380 -0.0050
  713XCA     C4 6415   1.921   1.978   6.101 -0.2499 -0.0174  0.1546
  713XCA     C5 6416   1.610   2.202   6.324 -0.3210 -0.1550 -0.1623
  713XCA     C6 6417   1.315   2.305   6.589 -0.2710  0.2084  0.3533
  714CHOL   ROH 6418   1.128  14.702   4.974  0.2650  0.1819 -0.1349
  714CHOL    R1 6419   1.216  14.455   5.082  0.2983  0.1669 -0.1976
  714CHOL    R2 6420   1.457  14.428   5.215  0.1815  0.2245  0.0270
  714CHOL    R3 6421   1.300  14.326   5.412  0.0419  0.0133 -0.1923
  714CHOL    R4 6422   1.572  14.240   5.481  0.0146  0.0772 -0.0043
  714CHOL    R5 6423   1.397  14.112   5.460  0.0876  0.0191 -0.2599
  714CHOL    C1 6424   1.492  14.035   5.821 -0.2135 -0.2065 -0.2281
  714CHOL    C2 6425   1.637  13.850   5.971  0.0694  0.2013 -0.0212
  715CHOL   ROH 6426  11.130  13.421   8.714 -0.1068 -0.2140  0.0105
  715CHOL    R1 6427  11.070  13.294   8.469 -0.0987 -0.2527  0.0281
  715CHOL    R2 6428  10.811  13.237   8.390 -0.1094 -0.0826 -0.0627
  715CHOL    R3 6429  10.883  13.376   8.168  0.0923 -0.2141 -0.0793
  715CHOL    R4 6430  10.666  13.199   8.079 -0.0296 -0.0539 -0.1035
  715CHOL    R5 6431  10.865  13.216   7.990  0.0172 -0.2542 -0.0365
  715CHOL    C1 6432  10.649  13.306   7.689  0.2045 -0.1608 -0.1427
  715CHOL    C2 6433  10.461  13.566   7.483 -0.0793 -0.0625  0.1290
  716PNCE   AM1 6434   0.739   0.956   4.669  0.2833  0.0442 -0.0784
  716PNCE   AM2 6435   0.448   0.843   4.513 -0.2867 -0.2762  0.0545
  716PNCE   T1A 6436   0.644   1.278   4.836 -0.0094  0.0277  0.0022
  716PNCE   C2A 6437   0.537   1.476   5.221 -0.1248 -0.0243 -0.1443
  716PNCE   C3A 6438   0.617   1.861   5.406 -0.0965  0.1289  0.3342
  716PNCE   C1B 6439   0.414   0.796   4.985  0.1611  0.0288 -0.0721
  716PNCE   C2B 6440   0.210   0.619   5.236  0.3597  0.3599  0.0482
  716PNCE   C3B 6441   0.075   0.477   5.640 -0.1405  0.1811  0.0499
  716PNCE   D4B 6442   0.080   0.283   5.979 -0.1335  0.0228 -0.2630
  716PNCE   C5B 6443  -0.160  -0.070   6.037 -0.1963  0.0388  0.0455
  716PNCE   C6B 6444  -0.222  -0.389   6.335 -0.0415  0.1158  0.2525
  717CHOL   ROH 6445  10.685  15.538   8.908 -0.2204  0.1307 -0.0423
  717CHOL    R1 6446  10.784  15.505   8.645 -0.0973 -0.2642  0.0520
  717CHOL    R2 6447  10.741  15.275   8.498 -0.5416 -0.2494  0.1563
  717CHOL    R3 6448  10.642  15.449   8.314  0.0209 -0.1165 -0.0239
  717CHOL    R4 6449  10.697  15.205   8.162 -0.5779 -0.3872  0.1898
  717CHOL    R5 6450  10.769  15.406   8.116 -0.0043 -0.6170  0.0687
  717CHOL    C1 6451  10.578  15.328   7.795 -0.0703 -0.3423  0.0404
  717CHOL    C2 6452  10.861  15.540   7.389  0.1142 -0.1082  0.0012
  718PNCE   AM1 6453  15.582  12.784   4.599 -0.0301  0.0808 -0.1209
  718PNCE   AM2 6454  15.446  12.527   4.567  0.2760  0.0880 -0.1629
  718PNCE   T1A 6455  15.957  12.770   4.751  0.1978 -0.0075 -0.0806
  718PNCE   C2A 6456  16.162  12.656   5.151 -0.1344 -0.1614 -0.0689
  718PNCE   C3A 6457  16.195  12.784   5.541 -0.0378  0.0548 -0.0872
  718PNCE   C1B 6458  15.693  12.286   4.906 -0.0854  0.0019  0.0133
  718PNCE   C2B 6459  15.869  12.233   5.295  0.2063 -0.2248  0.0551
  718PNCE   C3B 6460  16.173  12.281   5.578 -0.2906 -0.2637 -0.0349
  718PNCE   D4B 6461  16.290  12.414   5.982 -0.1741  0.1885  0.2340
  718PNCE   C5B 6462  16.568  12.692   6.147  0.1098 -0.0750  0.0131
  718PNCE   C6B 6463  16.843  12.816   6.585 -0.1324 -0.2278  0.3939
  719PNCE   AM1 6464  15.396   3.324   4.342  0.2153 -0.0808 -0.1294
  719PNCE   AM2 6465  15.084   3.512   4.196 -0.0332 -0.2838  0.1238
  719PNCE   T1A 6466  15.269   3.324   4.727  0.1767  0.5033 -0.1109
  719PNCE   C2A 6467  15.384   3.145   5.121  0.2481  0.3450 -0.1056
  719PNCE   C3A 6468  15.033   3.088   5.436  0.0307 -0.0847  0.0678
  719PNCE   C1B 6469  14.944   3.829   4.482 -0.1929  0.2327  0.3571
  719PNCE   C2B 6470  14.970   4.155   4.746  0.0251  0.1193  0.3391
  719PNCE   C3B 6471  15.170   4.332   5.083  0.0312 -0.6348  0.2035
  719PNCE   D4B 6472  15.549   4.356   5.365 -0.0202  0.1172  0.0586
  719PNCE   C5B 6473  15.547   4.029   5.668 -0.0064  0.2170  0.1201
  719PNCE   C6B 6474  15.218   3.996   6.036  0.0679 -0.0920 -0.3778
  720PNCE   AM1 6475  12.318   1.765   4.331  0.1582  0.0605 -0.5503
  720PNCE   AM2 6476  12.563   1.875   4.479 -0.1345 -0.0860 -0.1636
  720PNCE   T1A 6477  12.220   1.778   4.897  0.0915 -0.1371  0.0356
  720PNCE   C2A 6478  12.307   1.736   5.338  0.1002 -0.4246 -0.0469
  720PNCE   C3A 6479  12.551   1.653   5.682  0.0631  0.0355  0.2483
  720PNCE   C1B 6480  12.949   1.822   4.616  0.1991 -0.3342 -0.0036
  720PNCE   C2B 6481  13.350   1.815   4.746 -0.2724  0.3254  0.0600
  720PNCE   C3B 6482  13.674   1.867   5.121 -0.1942  0.0828  0.0612
  720PNCE   D4B 6483  13.941   1.509   5.312  0.3224  0.1613 -0.2434
  720PNCE   C5B 6484  14.052   1.371   5.748 -0.3157 -0.1885 -0.0476
  720PNCE   C6B 6485  13.850   1.297   6.296  0.0435  0.0851 -0.3087
  721XCA    COO 6486   8.383  12.451   5.148  0.0960  0.0857  0.0146
  721XCA     C1 6487   8.321  12.691   5.542 -0.0643  0.0373  0.0135
  721XCA     C2 6488   7.984  12.792   5.885  0.3544 -0.2310  0.1625
  721XCA     C3 6489   7.969  13.029   6.204  0.0121  0.0703 -0.0297
  721XCA     C4 6490   7.807  13.244   6.511  0.2772  0.0794 -0.0769
  721XCA     C5 6491   7.719  13.558   6.756  0.3464 -0.0285 -0.0498
  721XCA     C6 6492   7.714  13.843   7.058 -0.1669  0.0670  0.0980
  722PNCE   AM1 6493   3.963   1.961   5.048 -0.1141  0.0072  0.0654
  722PNCE   AM2 6494   4.114   2.203   5.078 -0.1094  0.3072 -0.1376
  722PNCE   T1A 6495   4.188   1.829   5.379  0.2003  0.2388  0.0109
  722PNCE   C2A 6496   4.190   1.975   5.732  0.1454  0.2871 -0.1255
  722PNCE   C3A 6497   4.024   2.102   6.113 -0.3560  0.1526  0.2643
  722PNCE   C1B 6498   4.067   2.575   5.344  0.0448  0.0810  0.0328
  722PNCE   C2B 6499   4.174   2.693   5.775  0.0378  0.0427  0.4335
  722PNCE   C3B 6500   4.284   2.608   6.141 -0.1186  0.3472 -0.1741
  722PNCE   D4B 6501   4.549   2.558   6.516  0.2264  0.0330  0.0065
  722PNCE   C5B 6502   4.815   2.927   6.579 -0.3041  0.2712  0.0166
  722PNCE   C6B 6503   4.978   3.178   6.974  0.3222 -0.0764 -0.1177
  723PNCE   AM1 6504  12.398   6.219   4.106 -0.2898 -0.3222  0.0978
  723PNCE   AM2 6505  12.150   6.306   3.818 -0.0709 -0.1894 -0.0262
  723PNCE   T1A 6506  12.356   5.814   4.334 -0.1233  0.3073 -0.1143
  723PNCE   C2A 6507  12.204   5.630   4.718  0.2994 -0.0225 -0.0264
  723PNCE   C3A 6508  12.043   5.524   5.162 -0.0337  0.1584 -0.2720
  723PNCE   C1B 6509  12.237   6.768   3.918 -0.1684  0.1024  0.4006
  723PNCE   C2B 6510  12.398   7.174   4.057  0.0420  0.1720  0.0053
  723PNCE   C3B 6511  12.177   7.504   4.323  0.0500 -0.0525  0.1917
  723PNCE   D4B 6512  11.949   7.886   4.028  0.3338 -0.2655 -0.1899
  723PNCE   C5B 6513  11.972   8.282   4.227 -0.2958 -0.1754 -0.0663
  723PNCE   C6B 6514  12.206   8.606   4.542 -0.1017 -0.0999 -0.3374
  724PNCE   AM1 6515   0.498   7.678   4.416 -0.3929  0.2007  0.0303
  724PNCE   AM2 6516   0.352   7.794   4.146 -0.4385  0.1126  0.1169
  724PNCE   T1A 6517   0.465   7.866   4.761 -0.2952  0.2107 -0.0965
  724PNCE   C2A 6518   0.551   7.871   5.251  0.0034  0.0083 -0.0388
  724PNCE   C3A 6519   0.892   8.025   5.596  0.2957  0.1593  0.1143
  724PNCE   C1B 6520   0.011   7.566   4.226  0.0640  0.1920 -0.0753
  724PNCE   C2B 6521   0.156   7.351   4.540  0.3094 -0.1032  0.1656
  724PNCE   C3B 6522   0.533   7.247   4.805  0.2461  0.3267 -0.2229
  724PNCE   D4B 6523   0.657   7.008   5.049 -0.2429 -0.1615 -0.1483
  724PNCE   C5B 6524   1.062   7.067   5.187  0.0139  0.2345 -0.0823
  724PNCE   C6B 6525   1.416   6.803   5.199  0.0595 -0.0964 -0.1334
  725PNCE   AM1 6526   8.415  10.378   4.652  0.1004  0.0402  0.1747
  725PNCE   AM2 6527   8.592  10.202   4.448  0.0997 -0.2560  0.0827
  725PNCE   T1A 6528   8.362  10.752   4.927 -0.2194  0.0415  0.1473
  725PNCE   C2A 6529   8.506  10.966   5.292  0.2753 -0.0101  0.1183
  725PNCE   C3A 6530   8.439  11.018   5.755  0.0747  0.2093  0.1569
  725PNCE   C1B 6531   8.820   9.915   4.725  0.1610 -0.0690  0.2269
  725PNCE   C2B 6532   8.993   9.885   5.151 -0.0979  0.2941  0.1103
  725PNCE   C3B 6533   8.963   9.708   5.437  0.4257 -0.1285 -0.3189
  725PNCE   D4B 6534   9.189   9.492   5.789  0.0995 -0.0446 -0.0080
  725PNCE   C5B 6535   9.597   9.243   5.738 -0.3361 -0.0155  0.1705
  725PNCE   C6B 6536   9.898   9.065   5.951 -0.0738 -0.2991 -0.1323
  726PNCE   AM1 6537  15.207  16.336   4.253  0.0814 -0.3662 -0.1895
  726PNCE   AM2 6538  15.452  16.490   4.136  0.0026  0.3094 -0.1360
  726PNCE   T1A 6539  14.971  16.543   4.476  0.0047  0.0745 -0.0550
  726PNCE   C2A 6540  14.793  16.910   4.530 -0.1598 -0.0103 -0.0481
  726PNCE   C3A 6541  14.573  17.190   4.808  0.1249  0.0483  0.2705
  726PNCE   C1B 6542  15.573  16.482   4.629 -0.1540  0.3132 -0.1171
  726PNCE   C2B 6543  15.686  16.650   5.102 -0.3371 -0.3432 -0.1370
  726PNCE   C3B 6544  15.666  16.721   5.548  0.2358  0.0182  0.1403
  726PNCE   D4B 6545  15.758  16.759   5.984  0.2946  0.1089  0.2715
  726PNCE   C5B 6546  15.543  16.850   6.367 -0.0067 -0.0438 -0.1858
  726PNCE   C6B 6547  15.661  16.903   6.806 -0.2988  0.0466  0.5701
  727CHOL   ROH 6548   4.129   9.436   5.502 -0.1088 -0.0876 -0.1045
  727CHOL    R1 6549   3.973   9.252   5.649 -0.1085 -0.1016 -0.1225
  727CHOL    R2 6550   4.043   9.167   5.903 -0.0551 -0.2039 -0.1712
  727CHOL    R3 6551   3.792   9.251   5.965 -0.0178 -0.1673 -0.0706
  727CHOL    R4 6552   3.880   9.098   6.200 -0.0315 -0.3681 -0.1965
  727CHOL    R5 6553   3.696   9.068   6.086 -0.0591 -0.2251 -0.1905
  727CHOL    C1 6554   3.550   9.137   6.431  0.0171 -0.4297 -0.1166
  727CHOL    C2 6555   3.446   9.066   6.838 -0.0303  0.2631 -0.0671
  728XCA    COO 6556   7.912   9.030   8.246 -0.1631 -0.0910  0.1571
  728XCA     C1 6557   7.764   9.227   7.893 -0.0707  0.1513 -0.0401
  728XCA     C2 6558   7.649   9.165   7.396  0.0035  0.0763  0.3964
  728XCA     C3 6559   7.672   9.434   7.051 -0.0160  0.0012  0.0980
  728XCA     C4 6560   7.670   9.728   6.636  0.0977  0.2976 -0.1842
  728XCA     C5 6561   7.968   9.958   6.343  0.0320 -0.1413 -0.0126
  728XCA     C6 6562   8.424  10.089   6.534  0.1876 -0.0193 -0.0291
  729PNCE   AM1 6563  15.864   0.858   4.328 -0.0385  0.1203 -0.1028
  729PNCE   AM2 6564  15.979   1.174   4.222  0.1701  0.1445  0.2993
  729PNCE   T1A 6565  15.695   0.592   4.593  0.3342  0.1955  0.0107
  729PNCE   C2A 6566  15.371   0.540   4.766  0.3536 -0.1918 -0.1404
  729PNCE   C3A 6567  15.154   0.436   5.022  0.0930  0.1048  0.0834
  729PNCE   C1B 6568  16.069   1.375   4.617  0.1086 -0.2572 -0.0556
  729PNCE   C2B 6569  16.000   1.358   5.119  0.0406  0.1627 -0.1859
  729PNCE   C3B 6570  16.139   1.377   5.585  0.1445 -0.0870 -0.2260
  729PNCE   D4B 6571  16.393   1.521   5.889 -0.2924  0.1385  0.1572
  729PNCE   C5B 6572  16.438   1.610   6.296  0.0398 -0.1702  0.0700
  729PNCE   C6B 6573  16.564   1.900   6.678  0.0710  0.1973 -0.2826
  730XCA    COO 6574   4.045   5.840   8.025  0.0940  0.1626 -0.0684
  730XCA     C1 6575   4.164   5.781   7.665 -0.0542 -0.0117 -0.1831
  730XCA     C2 6576   4.152   5.612   7.277  0.3089 -0.0297 -0.0336
  730XCA     C3 6577   3.944   5.138   7.061 -0.4665 -0.0299 -0.1481
  730XCA     C4 6578   3.578   4.867   7.029  0.1415 -0.1156  0.0302
  730XCA     C5 6579   3.128   4.949   7.036  0.0251 -0.2419 -0.1334
  730XCA     C6 6580   2.774   4.736   6.799  0.0526  0.2626 -0.0615
  731PNCE   AM1 6581   7.118   5.536   4.075  0.3732  0.0654 -0.1674
  731PNCE   AM2 6582   7.053   5.804   4.215 -0.1357  0.0566 -0.1847
  731PNCE   T1A 6583   6.958   5.482   4.606 -0.0096 -0.0554  0.3416
  731PNCE   C2A 6584   7.079   5.469   5.099  0.1497 -0.0772 -0.0061
  731PNCE   C3A 6585   7.258   5.221   5.375 -0.1418 -0.2620 -0.2498
  731PNCE   C1B 6586   6.792   5.979   4.615  0.0769 -0.0270  0.1851
  731PNCE   C2B 6587   6.689   6.331   4.861  0.2741 -0.4560 -0.3306
  731PNCE   C3B 6588   6.608   6.787   4.768 -0.1959  0.3517 -0.2008
  731PNCE   D4B 6589   6.882   7.033   4.574  0.2130 -0.0656 -0.1900
  731PNCE   C5B 6590   7.100   7.364   4.744 -0.0863  0.1939  0.2340
  731PNCE   C6B 6591   7.620   7.471   4.760  0.0179  0.1062  0.0525
  732PNCE   AM1 6592  15.534  11.109   4.447 -0.0175 -0.2438 -0.1342
  732PNCE   AM2 6593  15.237  10.889   4.568 -0.1493 -0.0321 -0.2498
  732PNCE   T1A 6594  15.778  10.849   4.778 -0.2906 -0.3035 -0.3060
  732PNCE   C2A 6595  16.008  10.709   5.180  0.0859  0.0303 -0.0516
  732PNCE   C3A 6596  16.421  10.645   5.355 -0.0007  0.1988 -0.2818
  732PNCE   C1B 6597  15.091  10.799   5.047 -0.2210 -0.2069 -0.1279
  732PNCE   C2B 6598  15.035  10.685   5.507 -0.1452 -0.1380 -0.1455
  732PNCE   C3B 6599  15.169  10.717   6.044 -0.2175  0.0676 -0.0027
  732PNCE   D4B 6600  15.127  10.866   6.410 -0.1073 -0.1308  0.2164
  732PNCE   C5B 6601  15.180  10.673   6.643  0.1333 -0.0109 -0.0926
  732PNCE   C6B 6602  15.412  10.574   6.963  0.4352 -0.0031 -0.2133
  733PNCE   AM1 6603   5.444   8.397   3.919  0.0790  0.0133 -0.0633
  733PNCE   AM2 6604   5.110   8.159   3.843  0.0793  0.2248 -0.0073
  733PNCE   T1A 6605   5.452   8.185   4.279 -0.3485 -0.0134 -0.1250
  733PNCE   C2A 6606   5.373   7.964   4.640 -0.2400  0.1091 -0.0588
  733PNCE   C3A 6607   5.182   7.890   5.098  0.0595  0.0055 -0.1109
  733PNCE   C1B 6608   4.872   8.380   4.141  0.1071  0.4625 -0.1564
  733PNCE   C2B 6609   5.038   8.344   4.552 -0.2527 -0.1111  0.0681
  733PNCE   C3B 6610   4.959   8.328   4.979  0.0322 -0.1448 -0.0880
  733PNCE   D4B 6611   4.610   8.420   5.332 -0.1226 -0.1618 -0.0436
  733PNCE   C5B 6612   4.704   8.302   5.762 -0.0108  0.2306  0.2013
  733PNCE   C6B 6613   5.151   8.266   5.969  0.0288  0.1676  0.0678
  734CHOL   ROH 6614   0.618   2.825   8.325  0.1747 -0.1119 -0.0131
  734CHOL    R1 6615   0.699   2.855   8.055  0.0468 -0.0752 -0.0482
  734CHOL    R2 6616   0.667   2.655   7.867  0.0263 -0.0772 -0.0420
  734CHOL    R3 6617   0.538   2.850   7.729 -0.0954 -0.1113  0.0230
  734CHOL    R4 6618   0.684   2.698   7.525  0.0817  0.1090 -0.0165
  734CHOL    R5 6619   0.693   2.913   7.557 -0.1010  0.1007  0.0949
  734CHOL    C1 6620   0.572   2.905   7.195 -0.0004  0.1854  0.0596
  734CHOL    C2 6621   0.469   2.700   6.765  0.0942  0.1404  0.2302
  735CHOL   ROH 6622   8.099   6.860   7.310  0.0081 -0.1825 -0.2118
  735CHOL    R1 6623   8.208   6.911   7.053 -0.0339  0.0052 -0.1924
  735CHOL    R2 6624   8.157   7.144   6.914  0.0761  0.1800  0.0577
  735CHOL    R3 6625   8.428   7.160   6.904  0.0843  0.0131 -0.0059
  735CHOL    R4 6626   8.334   7.391   6.750  0.1893  0.1626  0.1543
  735CHOL    R5 6627   8.475   7.238   6.683  0.0744  0.1118  0.0272
  735CHOL    C1 6628   8.692   7.550   6.645  0.2624 -0.0042  0.1506
  735CHOL    C2 6629   8.878   7.840   6.612 -0.5359  0.1240  0.1821
  736XCA    COO 6630   4.901  10.181   7.961  0.0749 -0.1329  0.0263
  736XCA     C1 6631   4.862  10.037   7.525 -0.0906 -0.2308 -0.2158
  736XCA     C2 6632   4.909  10.112   7.112 -0.0144  0.4253  0.1076
  736XCA     C3 6633   4.848   9.928   6.711  0.0391  0.1921 -0.1347
  736XCA     C4 6634   4.793   9.731   6.311 -0.1561  0.3729 -0.1775
  736XCA     C5 6635   4.810   9.599   5.853  0.0900 -0.0610 -0.1680
  736XCA     C6 6636   4.490   9.835   5.548 -0.0660  0.0133  0.3271
  737PNCE   AM1 6637  13.554   2.119   3.946 -0.0159 -0.2483  0.0758
  737PNCE   AM2 6638  13.185   2.259   3.873  0.1110  0.1642 -0.0157
  737PNCE   T1A 6639  13.774   2.034   4.288  0.1185 -0.0980 -0.2703
  737PNCE   C2A 6640  14.000   1.965   4.694 -0.1379  0.2996 -0.1170
  737PNCE   C3A 6641  14.355   2.177   4.832 -0.1412  0.0703 -0.1237
  737PNCE   C1B 6642  13.278   2.244   4.374 -0.2185 -0.1098 -0.1343
  737PNCE   C2B 6643  13.449   2.393   4.754  0.2112  0.0006  0.0478
  737PNCE   C3B 6644  13.442   2.606   5.176  0.0678 -0.0449 -0.1091
  737PNCE   D4B 6645  13.502   3.007   5.305 -0.0902 -0.1251 -0.1171
  737PNCE   C5B 6646  13.497   3.263   5.036 -0.0360 -0.2338  0.0531
  737PNCE   C6B 6647  13.278   3.560   4.737  0.0659  0.0831 -0.0306
  738PNCE   AM1 6648   9.541  14.777   5.172 -0.4483 -0.1824 -0.0910
  738PNCE   AM2 6649   9.224  14.877   5.000  0.1122  0.3049 -0.0361
  738PNCE   T1A 6650   9.433  14.658   5.579 -0.2428  0.1959  0.0155
  738PNCE   C2A 6651   9.193  14.596   6.013 -0.1480 -0.0067 -0.2543
  738PNCE   C3A 6652   9.325  14.419   6.348 -0.2055 -0.3592  0.0636
  738PNCE   C1B 6653   9.007  14.891   5.450  0.1315 -0.0058 -0.0276
  738PNCE   C2B 6654   8.782  14.928   5.816 -0.2306 -0.1017 -0.0424
  738PNCE   C3B 6655   8.542  14.738   6.129 -0.0244  0.2404  0.0694
  738PNCE   D4B 6656   8.413  14.483   6.448 -0.3597  0.0920  0.3814
  738PNCE   C5B 6657   8.690  14.484   6.773  0.1351  0.1825  0.3991
  738PNCE   C6B 6658   9.002  14.507   7.078  0.3124 -0.0529 -0.0820
  739CHOL   ROH 6659   5.139   7.501   5.368  0.1119 -0.1340 -0.3088
  739CHOL    R1 6660   5.329   7.407   5.556  0.0041 -0.0355 -0.1502
  739CHOL    R2 6661   5.314   7.466   5.825 -0.2108  0.0189 -0.1735
  739CHOL    R3 6662   5.325   7.196   5.853 -0.1490  0.0279 -0.1070
  739CHOL    R4 6663   5.460   7.300   6.091 -0.5777  0.1254  0.0954
  739CHOL    R5 6664   5.540   7.154   5.950 -0.2897  0.1309  0.2511
  739CHOL    C1 6665   5.555   6.950   6.272 -0.7333  0.1962  0.3141
  739CHOL    C2 6666   5.691   6.580   6.565 -0.1026  0.0828 -0.0151
  740PNCE   AM1 6667  11.497   0.728   4.337 -0.1836 -0.0663 -0.1719
  740PNCE   AM2 6668  11.781   0.894   4.272 -0.2780 -0.1089 -0.0156
  740PNCE   T1A 6669  11.217   0.872   4.695  0.0479 -0.2838 -0.0893
  740PNCE   C2A 6670  11.002   0.905   5.063  0.3041 -0.2474 -0.2931
  740PNCE   C3A 6671  11.110   0.705   5.504  0.2960  0.4676  0.2543
  740PNCE   C1B 6672  11.816   0.924   4.761  0.0069  0.2835  0.2538
  740PNCE   C2B 6673  11.944   0.906   5.256  0.1436 -0.1938  0.0429
  740PNCE   C3B 6674  12.203   0.831   5.623 -0.1021 -0.0253  0.0018
  740PNCE   D4B 6675  12.053   0.887   6.047  0.0480  0.1747  0.2368
  740PNCE   C5B 6676  11.722   0.648   6.144  0.1482  0.0110  0.1014
  740PNCE   C6B 6677  11.420   0.502   5.986 -0.2215  0.1245  0.2569
  741PNCE   AM1 6678  14.605  12.158   4.540 -0.1871  0.2725  0.1392
  741PNCE   AM2 6679  14.860  12.347   4.682 -0.0768 -0.1062 -0.1043
  741PNCE   T1A 6680  14.683  11.966   4.981 -0.6193 -0.0462 -0.0860
  741PNCE   C2A 6681  14.909  12.214   5.354  0.2976 -0.3814  0.1012
  741PNCE   C3A 6682  14.804  12.596   5.534  0.0462 -0.1422  0.1063
  741PNCE   C1B 6683  15.058  12.611   4.980 -0.2105 -0.3920 -0.0171
  741PNCE   C2B 6684  15.279  12.500   5.334 -0.2554 -0.0913  0.1900
  741PNCE   C3B 6685  15.675  12.665   5.533 -0.0344  0.2286  0.0160
  741PNCE   D4B 6686  15.915  12.793   6.001 -0.0418 -0.0342  0.3132
  741PNCE   C5B 6687  16.004  12.631   6.376  0.1649 -0.0089  0.0311
  741PNCE   C6B 6688  16.040  12.261   6.700  0.0810 -0.2553 -0.1821
  742CHOL   ROH 6689   9.569  15.809   9.050  0.1845 -0.4254  0.0809
  742CHOL    R1 6690   9.545  15.783   8.769 -0.0134 -0.2618  0.0830
  742CHOL    R2 6691   9.763  15.746   8.604 -0.1193 -0.0430 -0.1064
  742CHOL    R3 6692   9.622  15.530   8.519 -0.0692 -0.0632 -0.1347
  742CHOL    R4 6693   9.871  15.521   8.364 -0.0048 -0.0682 -0.0300
  742CHOL    R5 6694   9.668  15.517   8.284  0.0286 -0.0925 -0.1140
  742CHOL    C1 6695   9.801  15.188   8.145  0.1078 -0.1030 -0.0143
  742CHOL    C2 6696   9.770  14.767   8.039  0.2285 -0.2429  0.0186
  743CHOL   ROH 6697   2.103   3.375   4.824  0.2762  0.3711  0.1040
  743CHOL    R1 6698   2.043   3.231   5.060  0.1754  0.2879  0.0274
  743CHOL    R2 6699   2.218   3.049   5.171  0.0622  0.1328 -0.0496
  743CHOL    R3 6700   2.184   3.201   5.394  0.1314  0.0409  0.0233
  743CHOL    R4 6701   2.382   2.998   5.471 -0.0207 -0.1353 -0.0491
  743CHOL    R5 6702   2.195   3.044   5.575 -0.0057 -0.0606 -0.0553
  743CHOL    C1 6703   2.446   3.111   5.855 -0.0043 -0.3777  0.0197
  743CHOL    C2 6704   2.254   2.911   6.234 -0.0131  0.1340 -0.1548
  744XCA    COO 6705  12.567  12.695   4.477 -0.1375  0.0695  0.1242
  744XCA     C1 6706  12.937  12.725   4.906  0.1169 -0.2626 -0.3197
  744XCA     C2 6707  12.955  12.644   5.362  0.0426  0.2701 -0.2517
  744XCA     C3 6708  12.794  12.607   5.734  0.0418  0.0644  0.0115
  744XCA     C4 6709  13.015  12.621   6.068 -0.2107  0.1108  0.2680
  744XCA     C5 6710  13.049  12.484   6.391  0.1282  0.1137  0.0807
  744XCA     C6 6711  13.354  12.388   6.569 -0.0087 -0.0998 -0.2236
  745PNCE   AM1 6712  12.715   6.645   4.059 -0.0903 -0.3274 -0.2842
  745PNCE   AM2 6713  12.974   6.816   4.084 -0.1786 -0.2098  0.0046
  745PNCE   T1A 6714  12.658   6.485   4.482  0.0535  0.3618 -0.3994
  745PNCE   C2A 6715  12.781   6.392   4.920  0.1633  0.0948 -0.1210
  745PNCE   C3A 6716  12.762   6.240   5.389  0.2565  0.1337 -0.2256
  745PNCE   C1B 6717  12.702   7.031   4.417  0.1759 -0.2180 -0.1536
  745PNCE   C2B 6718  12.589   7.276   4.734  0.3094 -0.2570  0.1451
  745PNCE   C3B 6719  12.540   7.580   5.133  0.0120 -0.0472  0.0214
  745PNCE   D4B 6720  12.553   7.643   5.531 -0.0057  0.0276 -0.1835
  745PNCE   C5B 6721  13.029   7.515   5.770  0.0812 -0.1137 -0.0835
  745PNCE   C6B 6722  13.156   7.754   6.054 -0.1328  0.3738  0.0440
  746PNCE   AM1 6723   6.160  11.366   4.150  0.2389 -0.1567  0.1816
  746PNCE   AM2 6724   6.426  11.214   4.168  0.2948  0.1220 -0.2244
  746PNCE   T1A 6725   6.093  11.205   4.569  0.2288 -0.1879  0.2419
  746PNCE   C2A 6726   6.079  11.375   4.947 -0.0257  0.0357  0.1179
  746PNCE   C3A 6727   5.868  11.332   5.194 -0.1620  0.2715  0.1555
  746PNCE   C1B 6728   6.441  11.534   4.554 -0.0800 -0.0363 -0.2525
  746PNCE   C2B 6729   6.554  11.335   4.939  0.2376 -0.1348  0.0396
  746PNCE   C3B 6730   6.377  11.063   5.225 -0.4663 -0.2140  0.0905
  746PNCE   D4B 6731   6.192  11.161   5.584  0.0477 -0.0521  0.2398
  746PNCE   C5B 6732   6.111  10.752   5.708  0.2353  0.0344  0.2859
  746PNCE   C6B 6733   5.929  10.568   6.019  0.1594 -0.0714  0.2309
  747XCA    COO 6734   8.682  12.570   8.739 -0.0485  0.0203  0.1158
  747XCA     C1 6735   8.652  12.485   8.328 -0.0205 -0.1552 -0.0433
  747XCA     C2 6736   8.480  12.598   7.944 -0.1000  0.3903  0.0650
  747XCA     C3 6737   8.521  12.662   7.545 -0.3055 -0.2262  0.1137
  747XCA     C4 6738   8.511  12.556   7.089  0.1748  0.2734  0.2693
  747XCA     C5 6739   8.286  12.379   6.775 -0.3780 -0.0739 -0.0094
  747XCA     C6 6740   8.312  11.997   6.556  0.1658  0.2832  0.2258
  748CHOL   ROH 6741   0.272   8.145   4.450  0.0171  0.1617  0.0363
  748CHOL    R1 6742   0.132   8.182   4.693  0.0260  0.2699  0.0250
  748CHOL    R2 6743   0.044   8.430   4.777 -0.1797  0.2747 -0.1990
  748CHOL    R3 6744  -0.197   8.304   4.792 -0.0654  0.0744 -0.0360
  748CHOL    R4 6745  -0.224   8.538   4.967 -0.2489  0.2275 -0.2694
  748CHOL    R5 6746  -0.264   8.330   5.021 -0.0544  0.2470 -0.0529
  748CHOL    C1 6747  -0.606   8.482   5.092 -0.1814  0.0124 -0.1580
  748CHOL    C2 6748  -0.851   8.733   5.366 -0.0831 -0.3309 -0.2422
  749PNCE   AM1 6749   2.005   0.115   4.630  0.2797 -0.1597 -0.1787
  749PNCE   AM2 6750   2.233  -0.208   4.626  0.0873 -0.1629 -0.0076
  749PNCE   T1A 6751   1.759   0.239   5.131  0.0210  0.0345  0.2267
  749PNCE   C2A 6752   1.492   0.129   5.410 -0.0927  0.1300  0.1861
  749PNCE   C3A 6753   1.212  -0.014   5.714  0.1756 -0.1964  0.1961
  749PNCE   C1B 6754   2.303  -0.407   5.113 -0.1040  0.3083 -0.2117
  749PNCE   C2B 6755   2.117  -0.448   5.458  0.2191 -0.0698  0.0396
  749PNCE   C3B 6756   2.262  -0.523   5.823 -0.0342 -0.0461  0.1606
  749PNCE   D4B 6757   2.491  -0.464   6.160  0.0260  0.1775 -0.2501
  749PNCE   C5B 6758   2.803  -0.074   6.341  0.3926  0.1770 -0.0657
  749PNCE   C6B 6759   2.984   0.263   6.357 -0.1418  0.3345  0.1057
  750XCA    COO 6760   1.786  10.302   3.858  0.1964  0.0310  0.0147
  750XCA     C1 6761   1.889  10.232   4.318  0.1070 -0.1983 -0.2525
  750XCA     C2 6762   2.029  10.010   4.668  0.0379  0.0054 -0.0060
  750XCA     C3 6763   1.942   9.646   4.993 -0.0119 -0.4523  0.2048
  750XCA     C4 6764   1.663   9.699   5.308  0.1081 -0.1778 -0.0142
  750XCA     C5 6765   1.279   9.473   5.222 -0.1734  0.0415 -0.1113
  750XCA     C6 6766   1.163   9.008   5.161  0.1958 -0.1348 -0.1155
  751XCA    COO 6767   6.881   4.574   7.702  0.0139 -0.0031 -0.4313
  751XCA     C1 6768   6.786   4.554   7.300  0.1051  0.1219  0.0574
  751XCA     C2 6769   6.804   4.651   6.894 -0.0846 -0.0411  0.0438
  751XCA     C3 6770   6.754   4.683   6.520 -0.1512  0.2220 -0.0315
  751XCA     C4 6771   6.992   4.845   6.143 -0.2054 -0.2591  0.0151
  751XCA     C5 6772   7.279   5.119   6.126 -0.1491 -0.1042 -0.0425
  751XCA     C6 6773   7.604   5.366   6.296 -0.1006  0.0736 -0.0889
  752PNCE   AM1 6774   4.945   7.071   4.012 -0.2038 -0.1072  0.0569
  752PNCE   AM2 6775   4.837   7.352   4.030 -0.4827  0.2794 -0.1349
  752PNCE   T1A 6776   5.235   7.127   4.314 -0.3485  0.2401 -0.1754
  752PNCE   C2A 6777   5.283   7.348   4.643  0.0036 -0.2157 -0.2268
  752PNCE   C3A 6778   5.522   7.305   5.004  0.0468  0.1531 -0.0178
  752PNCE   C1B 6779   4.784   7.261   4.416  0.2864 -0.0214  0.3908
  752PNCE   C2B 6780   4.357   7.206   4.509  0.1638 -0.0960  0.1180
  752PNCE   C3B 6781   4.030   7.458   4.359 -0.3643  0.1519 -0.1248
  752PNCE   D4B 6782   3.710   7.418   4.016 -0.2309  0.0690  0.1075
  752PNCE   C5B 6783   3.551   7.824   3.922 -0.0521 -0.1339 -0.0758
  752PNCE   C6B 6784   3.505   8.191   3.633 -0.3155 -0.0034  0.1496
  753PNCE   AM1 6785  11.510   1.825   4.402 -0.0006  0.3394 -0.1887
  753PNCE   AM2 6786  11.823   1.832   4.523  0.0054  0.0887  0.0041
  753PNCE   T1A 6787  11.228   1.637   4.724 -0.0539  0.3232  0.2820
  753PNCE   C2A 6788  11.326   1.324   4.950 -0.2110 -0.3556  0.1969
  753PNCE   C3A 6789  11.433   0.980   5.233  0.3887 -0.1790  0.0137
  753PNCE   C1B 6790  11.664   1.947   4.931 -0.1062 -0.1853  0.0750
  753PNCE   C2B 6791  11.401   1.730   5.263  0.2702  0.2199  0.0601
  753PNCE   C3B 6792  11.444   1.414   5.584  0.1579  0.1687 -0.2964
  753PNCE   D4B 6793  11.599   1.356   5.990 -0.2194 -0.2941 -0.2286
  753PNCE   C5B 6794  11.389   1.479   6.425  0.2776  0.4186  0.0749
  753PNCE   C6B 6795  11.441   1.832   6.514 -0.0315 -0.0032  0.2003
  754XCA    COO 6796   6.928   2.877   8.310  0.0656 -0.3580  0.0134
  754XCA     C1 6797   6.861   2.750   7.881  0.0049  0.1861 -0.2563
  754XCA     C2 6798   6.862   2.807   7.447 -0.0077 -0.1507  0.1633
  754XCA     C3 6799   6.764   3.133   7.194  0.0501 -0.0898 -0.2316
  754XCA     C4 6800   6.962   3.420   6.990 -0.0832 -0.3686  0.1133
  754XCA     C5 6801   7.161   3.752   7.285 -0.0585 -0.0043 -0.2996
  754XCA     C6 6802   6.908   4.125   7.475 -0.3777 -0.2128  0.0728
  755PNCE   AM1 6803  13.658   1.633   7.786 -0.1868 -0.3708  0.1657
  755PNCE   AM2 6804  13.579   1.419   7.974 -0.0412  0.1451 -0.2119
  755PNCE   T1A 6805  13.674   1.606   7.368 -0.2678  0.1200  0.2083
  755PNCE   C2A 6806  13.538   1.510   6.986 -0.1087 -0.0935  0.0399
  755PNCE   C3A 6807  13.613   1.926   6.700  0.0441 -0.2808  0.2544
  755PNCE   C1B 6808  13.732   1.159   7.597  0.1786  0.0876 -0.3303
  755PNCE   C2B 6809  13.881   1.124   7.119 -0.1369 -0.1279  0.1091
  755PNCE   C3B 6810  13.907   1.177   6.773  0.2891 -0.0853 -0.0724
  755PNCE   D4B 6811  14.107   0.944   6.538  0.1700 -0.2082  0.0833
  755PNCE   C5B 6812  14.353   1.033   6.246 -0.1842 -0.2925  0.4702
  755PNCE   C6B 6813  14.750   0.800   6.067  0.2877 -0.0510  0.1514
  756CHOL   ROH 6814   5.022   5.174   4.703  0.0322  0.0727  0.0623
  756CHOL    R1 6815   4.878   5.326   4.894  0.1242 -0.0460  0.2270
  756CHOL    R2 6816   5.003   5.474   5.091  0.2348  0.1933 -0.0213
  756CHOL    R3 6817   4.855   5.677   4.989 -0.1928 -0.0411  0.1312
  756CHOL    R4 6818   4.894   5.748   5.270  0.2582  0.1798  0.0131
  756CHOL    R5 6819   4.704   5.735   5.165  0.0737 -0.1049  0.3812
  756CHOL    C1 6820   4.691   6.099   5.279 -0.1297 -0.0480  0.1764
  756CHOL    C2 6821   4.388   6.221   5.123  0.4342 -0.1062 -0.2380
  757CHOL   ROH 6822   8.582  15.769   5.518  0.3162  0.0032 -0.1506
  757CHOL    R1 6823   8.687  15.923   5.731 -0.0272  0.0944 -0.0458
  757CHOL    R2 6824   8.535  15.999   5.949 -0.1823 -0.4407  0.0332
  757CHOL    R3 6825   8.736  15.881   6.090  0.1225 -0.0653 -0.0847
  757CHOL    R4 6826   8.588  16.038   6.289 -0.0787 -0.3757  0.0100
  757CHOL    R5 6827   8.802  16.047   6.249 -0.1168  0.0477 -0.1013
  757CHOL    C1 6828   8.807  15.949   6.618  0.2670  0.0153 -0.1143
  757CHOL    C2 6829   8.637  15.766   6.918  0.2886  0.1039 -0.2303
  758CHOL   ROH 6830  12.854   4.486   7.591  0.3444 -0.0629 -0.1167
  758CHOL    R1 6831  12.740   4.565   7.344  0.3099 -0.0713 -0.1040
  758CHOL    R2 6832  12.892   4.661   7.135  0.2988 -0.2342 -0.1868
  758CHOL    R3 6833  12.768   4.463   6.996  0.1273 -0.2008 -0.0808
  758CHOL    R4 6834  12.805   4.679   6.801  0.1111 -0.2499 -0.1388
  758CHOL    R5 6835  12.617   4.579   6.850  0.0939 -0.1569 -0.0117
  758CHOL    C1 6836  12.637   4.504   6.476 -0.1593 -0.2282 -0.0108
  758CHOL    C2 6837  12.440   4.627   6.240 -0.1636  0.2573  0.2704
  759CHOL   ROH 6838   4.739  15.032   7.657 -0.2164 -0.1188 -0.1964
  759CHOL    R1 6839   4.925  15.222   7.561 -0.1030 -0.1202  0.0207
  759CHOL    R2 6840   4.896  15.348   7.317  0.1032 -0.0078  0.0537
  759CHOL    R3 6841   4.920  15.574   7.468  0.0458 -0.0786  0.1678
  759CHOL    R4 6842   5.063  15.635   7.219 -0.1321  0.1535  0.1211
  759CHOL    R5 6843   5.141  15.652   7.422 -0.0293  0.0877  0.0875
  759CHOL    C1 6844   5.183  16.013   7.304 -0.3242  0.1810  0.2678
  759CHOL    C2 6845   5.231  16.421   7.099  0.0355  0.3337 -0.2576
  760CHOL   ROH 6846  10.430   0.718   6.621  0.0764  0.0453  0.1266
  760CHOL    R1 6847  10.234   0.527   6.550 -0.0534  0.1701  0.1495
  760CHOL    R2 6848  10.286   0.256   6.542 -0.0871  0.1779 -0.3498
  760CHOL    R3 6849  10.072   0.242   6.709  0.1795 -0.0606 -0.0262
  760CHOL    R4 6850  10.058  -0.004   6.550 -0.1025  0.1888 -0.3896
  760CHOL    R5 6851   9.899   0.143   6.576 -0.0458  0.1655  0.0966
  760CHOL    C1 6852   9.724  -0.168   6.712  0.1414 -0.0281 -0.1084
  760CHOL    C2 6853   9.675  -0.608   6.641  0.2784 -0.2940  0.0213
  761CHOL   ROH 6854  12.016  13.354   7.998 -0.0414  0.2464 -0.1046
  761CHOL    R1 6855  12.114  13.500   7.777 -0.0486  0.1364 -0.1802
  761CHOL    R2 6856  12.373  13.473   7.683 -0.0369  0.1268 -0.1436
  761CHOL    R3 6857  12.248  13.423   7.447 -0.0094 -0.0301 -0.1256
  761CHOL    R4 6858  12.528  13.471   7.374  0.0100 -0.1316 -0.1190
  761CHOL    R5 6859  12.353  13.571   7.292  0.0396 -0.1640 -0.2215
  761CHOL    C1 6860  12.501  13.423   6.973  0.0625 -0.4286 -0.0878
  761CHOL    C2 6861  12.642  13.352   6.613  0.1455 -0.0948  0.0420
  762PNCE   AM1 6862   4.821   0.098   5.049  0.1535  0.1308  0.2143
  762PNCE   AM2 6863   4.848   0.439   4.931  0.1974  0.0760 -0.2958
  762PNCE   T1A 6864   4.856  -0.048   5.427  0.1554  0.1659  0.1704
  762PNCE   C2A 6865   5.037  -0.309   5.813 -0.0565 -0.0983  0.1585
  762PNCE   C3A 6866   5.183  -0.311   6.215  0.0394  0.3484  0.1941
  762PNCE   C1B 6867   4.452   0.555   5.225 -0.1876 -0.0295 -0.0359
  762PNCE   C2B 6868   4.431   0.587   5.743 -0.3796  0.0508  0.1489
  762PNCE   C3B 6869   4.351   0.185   5.930 -0.3375  0.1893 -0.0510
  762PNCE   D4B 6870   4.296  -0.004   6.301  0.2020 -0.1648  0.0304
  762PNCE   C5B 6871   4.344   0.210   6.673 -0.0719 -0.2675 -0.2436
  762PNCE   C6B 6872   4.437   0.521   7.094  0.0365  0.1629  0.0002
  763PNCE   AM1 6873  11.335  10.857   3.765 -0.2475  0.1498  0.2141
  763PNCE   AM2 6874  10.962  10.953   3.745  0.1636 -0.0120  0.2721
  763PNCE   T1A 6875  11.389  10.393   3.999  0.0312 -0.0394 -0.2297
  763PNCE   C2A 6876  11.280   9.984   3.953  0.2116 -0.2426  0.0297
  763PNCE   C3A 6877  11.308   9.548   3.871  0.3600 -0.1280 -0.0232
  763PNCE   C1B 6878  11.010  10.779   4.250 -0.0782  0.3317  0.0278
  763PNCE   C2B 6879  11.049  10.626   4.718 -0.2819  0.0457  0.1461
  763PNCE   C3B 6880  11.296  10.661   5.081 -0.1543  0.0186  0.2578
  763PNCE   D4B 6881  11.175  10.823   5.407  0.1814 -0.2953  0.0221
  763PNCE   C5B 6882  10.917  10.612   5.629 -0.0440 -0.0052  0.2262
  763PNCE   C6B 6883  10.885  10.264   5.948  0.0878 -0.3300 -0.0853
  764CHOL   ROH 6884   7.754   1.429   8.100 -0.0618  0.0723 -0.0861
  764CHOL    R1 6885   7.786   1.655   7.934 -0.0436 -0.0035 -0.1853
  764CHOL    R2 6886   7.836   1.635   7.663 -0.1755 -0.1259 -0.2003
  764CHOL    R3 6887   7.617   1.795   7.643 -0.1183 -0.0427 -0.1609
  764CHOL    R4 6888   7.696   1.742   7.365 -0.1187  0.0229 -0.1733
  764CHOL    R5 6889   7.665   1.938   7.456 -0.0558  0.0033 -0.1097
  764CHOL    C1 6890   7.409   1.955   7.173 -0.0312  0.1878 -0.1213
  764CHOL    C2 6891   7.514   2.228   6.880  0.1526 -0.0133 -0.0179
  765PNCE   AM1 6892   1.367   3.641   4.648  0.0158 -0.1003  0.0148
  765PNCE   AM2 6893   1.160   3.886   4.437  0.0986  0.0809 -0.2418
  765PNCE   T1A 6894   1.076   3.361   4.702  0.4165  0.1503  0.1124
  765PNCE   C2A 6895   0.977   3.019   4.876 -0.1799 -0.1752 -0.4111
  765PNCE   C3A 6896   0.772   2.607   4.910  0.0958 -0.3313 -0.0707
  765PNCE   C1B 6897   0.940   4.160   4.758  0.1522 -0.2874  0.0107
  765PNCE   C2B 6898   0.882   4.409   5.153  0.1247 -0.2394 -0.1547
  765PNCE   C3B 6899   0.570   4.297   5.341 -0.1561  0.3321 -0.0044
  765PNCE   D4B 6900   0.653   4.230   5.796  0.2778  0.1641  0.0274
  765PNCE   C5B 6901   0.288   3.920   5.863  0.1869  0.1226 -0.1829
  765PNCE   C6B 6902   0.022   3.578   6.017  0.0210  0.0194  0.2161
  766PNCE   AM1 6903   5.832   4.428   4.310 -0.2331  0.1331  0.1792
  766PNCE   AM2 6904   6.087   4.203   4.062  0.0486  0.2347 -0.0745
  766PNCE   T1A 6905   6.003   4.197   4.669 -0.1495 -0.0676 -0.1321
  766PNCE   C2A 6906   6.214   4.166   5.038  0.0201  0.1650 -0.2128
  766PNCE   C3A 6907   6.528   4.207   5.317 -0.3278  0.0967 -0.2021
  766PNCE   C1B 6908   6.389   4.318   4.425 -0.1442 -0.0276 -0.1595
  766PNCE   C2B 6909   6.606   4.322   4.774 -0.0961  0.1947  0.1391
  766PNCE   C3B 6910   6.787   4.507   4.957  0.2794  0.0148 -0.0440
  766PNCE   D4B 6911   7.095   4.698   5.103 -0.1019  0.3518 -0.0760
  766PNCE   C5B 6912   7.433   4.453   4.964 -0.2051  0.0891  0.2412
  766PNCE   C6B 6913   7.738   4.140   5.060  0.3074 -0.0711  0.1237
  767CHOL   ROH 6914  12.887   6.055   4.537 -0.0617 -0.1008 -0.0456
  767CHOL    R1 6915  12.703   5.944   4.720 -0.0114 -0.0176  0.0548
  767CHOL    R2 6916  12.779   5.766   4.918  0.0423  0.0752  0.1174
  767CHOL    R3 6917  12.655   5.945   5.081  0.0839  0.1499  0.0672
  767CHOL    R4 6918  12.754   5.735   5.261 -0.3133 -0.0246  0.0832
  767CHOL    R5 6919  12.549   5.809   5.248 -0.2208  0.2034 -0.0823
  767CHOL    C1 6920  12.623   5.885   5.614 -0.4829 -0.0125  0.0158
  767CHOL    C2 6921  12.774   5.775   5.797 -0.3196 -0.0430  0.0933
  768XCA    COO 6922   5.746  14.183   3.902  0.0730 -0.1174 -0.2010
  768XCA     C1 6923   5.547  13.821   4.134  0.2835  0.3539 -0.1907
  768XCA     C2 6924   5.651  13.444   4.342 -0.1700  0.0158  0.0157
  768XCA     C3 6925   5.613  12.971   4.514 -0.2056  0.1082  0.0764
  768XCA     C4 6926   5.463  12.857   4.872  0.1302 -0.2300 -0.0460
  768XCA     C5 6927   5.708  12.793   5.306  0.2580  0.0010 -0.0971
  768XCA     C6 6928   5.806  13.211   5.436 -0.0591  0.1631  0.2760
  769XCA    COO 6929  10.265  15.314   4.893  0.0890 -0.0739 -0.1169
  769XCA     C1 6930  10.342  15.382   5.314  0.0906 -0.0152  0.1944
  769XCA     C2 6931  10.288  15.219   5.772  0.0642 -0.1096 -0.2014
  769XCA     C3 6932  10.467  14.882   6.090  0.4487 -0.3576  0.0062
  769XCA     C4 6933  10.785  14.995   6.402  0.2474 -0.0838  0.1400
  769XCA     C5 6934  10.869  15.303   6.445  0.0791  0.2756 -0.0193
  769XCA     C6 6935  10.765  15.798   6.626  0.3111 -0.3226 -0.3791
  770PNCE   AM1 6936  14.537   9.628   3.678 -0.2759  0.0596 -0.1005
  770PNCE   AM2 6937  14.144   9.768   3.715  0.2052  0.2010 -0.5320
  770PNCE   T1A 6938  14.434   9.459   4.125  0.1873 -0.0078 -0.0513
  770PNCE   C2A 6939  14.252   9.265   4.485 -0.0261  0.0686  0.3438
  770PNCE   C3A 6940  14.021   8.966   4.632  0.2637 -0.2789 -0.0163
  770PNCE   C1B 6941  14.388   9.994   4.066  0.1898  0.3612 -0.2011
  770PNCE   C2B 6942  14.286   9.832   4.500  0.1380 -0.1491 -0.0765
  770PNCE   C3B 6943  14.240   9.629   4.893  0.0664 -0.2339 -0.1947
  770PNCE   D4B 6944  14.124   9.605   5.208 -0.2824 -0.0466  0.1518
  770PNCE   C5B 6945  14.100   9.276   5.402 -0.0570  0.1222 -0.2276
  770PNCE   C6B 6946  14.052   8.833   5.336  0.0982  0.0343  0.2537
  771PNCE   AM1 6947   0.311  14.845   5.285 -0.1548 -0.0551  0.1395
  771PNCE   AM2 6948   0.257  15.217   5.211 -0.0932  0.0588  0.2344
  771PNCE   T1A 6949   0.475  14.811   5.641 -0.4123  0.0840  0.0433
  771PNCE   C2A 6950   0.559  14.796   6.062 -0.0350 -0.2722 -0.0317
  771PNCE   C3A 6951   0.438  15.035   6.382 -0.0921 -0.0702  0.2772
  771PNCE   C1B 6952   0.413  15.326   5.584  0.0514 -0.1660 -0.2005
  771PNCE   C2B 6953   0.375  15.479   5.978  0.1143  0.1308  0.0624
  771PNCE   C3B 6954   0.669  15.494   6.378 -0.1398  0.1325 -0.1504
  771PNCE   D4B 6955   0.679  15.678   6.821 -0.1345  0.0143 -0.0372
  771PNCE   C5B 6956   0.469  16.104   7.021  0.0618 -0.0784  0.2507
  771PNCE   C6B 6957   0.223  16.227   7.479 -0.2024 -0.1986  0.0921
  772CHOL   ROH 6958   7.219   2.339   5.253  0.0453 -0.0058 -0.0997
  772CHOL    R1 6959   7.233   2.270   5.527 -0.0131 -0.1409 -0.1307
  772CHOL    R2 6960   7.434   2.111   5.630  0.0753 -0.0294 -0.1307
  772CHOL    R3 6961   7.468   2.320   5.801 -0.1707 -0.0925 -0.0044
  772CHOL    R4 6962   7.571   2.087   5.947  0.2975 -0.0268 -0.2260
  772CHOL    R5 6963   7.420   2.229   6.017  0.1047 -0.3234 -0.0401
  772CHOL    C1 6964   7.682   2.270   6.291  0.1967 -0.0849 -0.1631
  772CHOL    C2 6965   7.722   1.918   6.420  0.1472 -0.0037  0.0442
  773PNCE   AM1 6966   1.652  14.157   4.680  0.2835  0.1844 -0.1669
  773PNCE   AM2 6967   1.437  13.771   4.593 -0.2044  0.2556 -0.2908
  773PNCE   T1A 6968   1.933  14.263   4.992 -0.2100  0.0825 -0.1040
  773PNCE   C2A 6969   2.328  14.372   5.199  0.2107  0.0622  0.6907
  773PNCE   C3A 6970   2.517  14.183   5.434 -0.5694  0.2430 -0.1650
  773PNCE   C1B 6971   1.625  13.774   5.031  0.1050  0.3853 -0.0369
  773PNCE   C2B 6972   1.855  13.877   5.381 -0.0398  0.0500  0.0163
  773PNCE   C3B 6973   1.995  14.182   5.684 -0.0106 -0.0515 -0.0286
  773PNCE   D4B 6974   1.835  14.356   6.039  0.1451  0.2749 -0.2859
  773PNCE   C5B 6975   2.136  14.380   6.303 -0.1223 -0.2855 -0.2133
  773PNCE   C6B 6976   2.480  14.089   6.532 -0.0914 -0.0731 -0.2253
  774CHOL   ROH 6977   8.967   0.356   5.648  0.2741 -0.0207  0.1656
  774CHOL    R1 6978   8.921   0.416   5.920  0.0081  0.1199  0.0904
  774CHOL    R2 6979   9.126   0.472   6.097 -0.1500  0.0100  0.3079
  774CHOL    R3 6980   8.982   0.698   6.143 -0.0105  0.1505  0.0566
  774CHOL    R4 6981   9.141   0.659   6.387 -0.3018  0.1236  0.2422
  774CHOL    R5 6982   8.924   0.685   6.375 -0.2680  0.2993  0.0010
  774CHOL    C1 6983   9.014   0.980   6.599 -0.2597  0.3215 -0.0320
  774CHOL    C2 6984   9.168   1.250   6.770  0.1038 -0.1935  0.3003
  775CHOL   ROH 6985   2.881   0.337   8.044 -0.0109 -0.1668 -0.0000
  775CHOL    R1 6986   2.706   0.272   7.832 -0.0919  0.0331  0.0045
  775CHOL    R2 6987   2.585   0.463   7.674  0.2461  0.1670 -0.0914
  775CHOL    R3 6988   2.698   0.321   7.471  0.0376 -0.1043 -0.0175
  775CHOL    R4 6989   2.501   0.495   7.340  0.2427  0.0654 -0.1004
  775CHOL    R5 6990   2.516   0.278   7.321 -0.0374  0.0337  0.0334
  775CHOL    C1 6991   2.558   0.380   6.955  0.0451 -0.2485 -0.0361
  775CHOL    C2 6992   2.528   0.335   6.584 -0.0889  0.1004  0.2457
  776CHOL   ROH 6993  11.294   7.247   4.777  0.1546 -0.2384 -0.0920
  776CHOL    R1 6994  11.394   7.397   4.995 -0.0162 -0.3631  0.0732
  776CHOL    R2 6995  11.513   7.280   5.214  0.1717 -0.4674 -0.0837
  776CHOL    R3 6996  11.718   7.448   5.154 -0.0611 -0.1214  0.0887
  776CHOL    R4 6997  11.804   7.312   5.398  0.1798 -0.3409 -0.1180
  776CHOL    R5 6998  11.795   7.527   5.366 -0.1068 -0.3088  0.1750
  776CHOL    C1 6999  12.165   7.489   5.449 -0.0346  0.0575  0.0240
  776CHOL    C2 7000  12.123   7.818   5.655 -0.0137 -0.2994  0.1057
  777CHOL   ROH 7001   5.726  11.619   6.830  0.2701  0.0073  0.1103
  777CHOL    R1 7002   5.754  11.863   6.689 -0.0424 -0.0958 -0.1295
  777CHOL    R2 7003   5.964  12.037   6.733 -0.5069  0.4293  0.0187
  777CHOL    R3 7004   5.999  12.012   6.464 -0.0000  0.1906  0.1057
  777CHOL    R4 7005   5.958  12.299   6.507 -0.6683  0.1578 -0.2942
  777CHOL    R5 7006   5.847  12.172   6.369 -0.1709 -0.2313 -0.3357
  777CHOL    C1 7007   5.987  12.429   6.124 -0.2869 -0.2252 -0.3942
  777CHOL    C2 7008   6.189  12.768   6.151 -0.0977  0.2023  0.1358
  778PNCE   AM1 7009   2.439   5.871   8.059 -0.0066  0.2821  0.2658
  778PNCE   AM2 7010   2.299   6.178   7.980 -0.1582  0.0919  0.1225
  778PNCE   T1A 7011   2.334   5.487   7.859  0.1369 -0.0507  0.0923
  778PNCE   C2A 7012   2.176   5.237   7.569  0.3139  0.0812  0.0012
  778PNCE   C3A 7013   1.776   5.053   7.282  0.0063 -0.4461 -0.0184
  778PNCE   C1B 7014   2.281   6.036   7.559 -0.0862 -0.0788 -0.1460
  778PNCE   C2B 7015   2.330   5.985   7.173 -0.0073  0.1755 -0.1971
  778PNCE   C3B 7016   2.071   5.888   6.732 -0.3146  0.4036 -0.3993
  778PNCE   D4B 7017   2.008   5.719   6.231  0.2283  0.1516 -0.0157
  778PNCE   C5B 7018   1.961   5.365   6.024  0.0255 -0.1544  0.2144
  778PNCE   C6B 7019   1.615   5.106   6.214  0.2463  0.0089  0.1323
  779XCA    COO 7020   0.995   7.212   7.586 -0.1143 -0.1398  0.3660
  779XCA     C1 7021   1.107   7.159   7.168 -0.0058 -0.2179  0.0372
  779XCA     C2 7022   0.927   7.405   6.814 -0.0994 -0.1513  0.2104
  779XCA     C3 7023   1.058   7.425   6.325 -0.3193 -0.0105 -0.1075
  779XCA     C4 7024   0.809   7.691   6.041  0.2573  0.0438 -0.1498
  779XCA     C5 7025   0.497   7.971   5.896 -0.2670  0.1252 -0.0262
  779XCA     C6 7026   0.316   8.329   5.732  0.2376  0.0460 -0.1322
  780PNCE   AM1 7027   5.117   1.254   5.008 -0.1752 -0.2386  0.1910
  780PNCE   AM2 7028   5.469   1.170   5.038  0.0073 -0.0727 -0.3816
  780PNCE   T1A 7029   5.079   1.215   5.424  0.0622 -0.1682  0.2097
  780PNCE   C2A 7030   5.045   1.483   5.831  0.0019 -0.0897 -0.1258
  780PNCE   C3A 7031   4.808   1.653   6.251 -0.0020 -0.0390 -0.2826
  780PNCE   C1B 7032   5.479   0.809   5.288 -0.5599 -0.0570 -0.0525
  780PNCE   C2B 7033   5.394   0.610   5.626 -0.1597  0.3190  0.0063
  780PNCE   C3B 7034   5.230   0.858   5.934 -0.1649  0.1527  0.2416
  780PNCE   D4B 7035   4.999   0.788   6.346 -0.1233  0.3569 -0.0508
  780PNCE   C5B 7036   5.044   1.122   6.505 -0.0663 -0.1138 -0.3275
  780PNCE   C6B 7037   4.707   1.427   6.663 -0.3334  0.2180 -0.0061
  781PNCE   AM1 7038   0.851   9.824   4.317 -0.0273 -0.0589  0.1592
  781PNCE   AM2 7039   0.516   9.990   4.184 -0.0926  0.1859 -0.0468
  781PNCE   T1A 7040   0.925   9.778   4.764  0.0335 -0.0655 -0.4101
  781PNCE   C2A 7041   0.897   9.793   5.172 -0.1403 -0.2138 -0.0529
  781PNCE   C3A 7042   0.856   9.586   5.468 -0.1809 -0.0338  0.0890
  781PNCE   C1B 7043   0.404   9.973   4.662 -0.4065 -0.2741 -0.3247
  781PNCE   C2B 7044   0.423   9.735   5.061 -0.0936  0.0529 -0.0129
  781PNCE   C3B 7045   0.484   9.935   5.456  0.1426  0.3011  0.0200
  781PNCE   D4B 7046   0.559   9.906   5.805  0.0877 -0.2368  0.1843
  781PNCE   C5B 7047   0.810   9.626   5.966  0.2166  0.0495 -0.2259
  781PNCE   C6B 7048   0.914   9.771   6.326  0.2908  0.2075 -0.0026
  782PNCE   AM1 7049   5.757  15.683   4.457 -0.0781  0.0588  0.0210
  782PNCE   AM2 7050   5.635  15.324   4.450 -0.0931  0.0957  0.0087
  782PNCE   T1A 7051   5.347  15.678   4.785 -0.3188 -0.0904 -0.2166
  782PNCE   C2A 7052   4.950  15.477   5.104  0.0386  0.0364  0.0979
  782PNCE   C3A 7053   4.991  14.988   5.022 -0.1739  0.0226 -0.1650
  782PNCE   C1B 7054   5.613  15.199   4.852  0.3671  0.2803  0.2117
  782PNCE   C2B 7055   5.444  15.340   5.244  0.0303 -0.2945  0.1799
  782PNCE   C3B 7056   5.150  15.532   5.620 -0.0406  0.0035  0.3672
  782PNCE   D4B 7057   5.269  15.568   6.072  0.2279  0.0556  0.1345
  782PNCE   C5B 7058   5.676  15.369   6.151 -0.1559  0.0963 -0.1109
  782PNCE   C6B 7059   5.816  14.994   6.114 -0.0406  0.0581  0.0364
  783PNCE   AM1 7060   6.215   2.377   8.448 -0.3818  0.0773 -0.1460
  783PNCE   AM2 7061   5.938   2.688   8.376 -0.0250 -0.0496 -0.0538
  783PNCE   T1A 7062   6.312   1.955   8.306  0.0895  0.1400 -0.0766
  783PNCE   C2A 7063   6.140   1.551   8.104  0.2191  0.0740 -0.1024
  783PNCE   C3A 7064   6.018   1.299   7.662 -0.1056 -0.0256 -0.4064
  783PNCE   C1B 7065   5.840   2.459   7.928 -0.1417 -0.0160  0.0290
  783PNCE   C2B 7066   5.746   2.424   7.502 -0.1177  0.0352 -0.0868
  783PNCE   C3B 7067   5.745   2.108   7.256  0.2765  0.0296 -0.1312
  783PNCE   D4B 7068   5.660   1.837   6.931  0.2121  0.1036  0.0714
  783PNCE   C5B 7069   5.270   1.959   6.621 -0.1093  0.0126 -0.0331
  783PNCE   C6B 7070   4.757   2.049   6.669 -0.0984 -0.0104  0.2335
  784CHOL   ROH 7071  10.951   7.952   4.361  0.1145  0.2029 -0.1105
  784CHOL    R1 7072  11.032   8.124   4.571  0.1092  0.0763 -0.0045
  784CHOL    R2 7073  10.868   8.184   4.785  0.1105 -0.0665  0.0370
  784CHOL    R3 7074  11.082   8.098   4.931  0.1180 -0.1472 -0.0215
  784CHOL    R4 7075  11.005   8.352   5.055  0.2041 -0.1521  0.0436
  784CHOL    R5 7076  11.203   8.298   4.982  0.1764 -0.1855 -0.0064
  784CHOL    C1 7077  11.284   8.369   5.348  0.2649 -0.2769 -0.0080
  784CHOL    C2 7078  11.558   8.574   5.214  0.0629  0.1898 -0.2530
  785PNCE   AM1 7079  10.872   2.593   4.406  0.2906  0.0993  0.0817
  785PNCE   AM2 7080  10.846   2.873   4.223  0.0103 -0.0659  0.0563
  785PNCE   T1A 7081  10.928   2.588   4.759 -0.0132  0.2006  0.2611
  785PNCE   C2A 7082  11.124   2.805   5.151  0.0668 -0.3860  0.0365
  785PNCE   C3A 7083  11.013   2.854   5.677 -0.2877  0.0813  0.0661
  785PNCE   C1B 7084  11.182   3.037   4.435  0.0982 -0.0469  0.0623
  785PNCE   C2B 7085  11.383   3.262   4.642  0.0744  0.2264  0.1631
  785PNCE   C3B 7086  11.461   3.145   5.104  0.0594 -0.0992  0.0115
  785PNCE   D4B 7087  11.251   3.267   5.465  0.0013  0.0638 -0.1762
  785PNCE   C5B 7088  11.286   3.178   5.882 -0.2426 -0.0800  0.0879
  785PNCE   C6B 7089  11.211   2.922   6.213  0.0716 -0.0504  0.2978
  786XCA    COO 7090  11.441  10.634   8.508 -0.3075 -0.0253 -0.1214
  786XCA     C1 7091  11.249  10.509   8.082 -0.1357  0.1979 -0.1716
  786XCA     C2 7092  11.047  10.628   7.692 -0.0559 -0.0603  0.1326
  786XCA     C3 7093  11.048  10.650   7.150 -0.0858 -0.1071  0.5441
  786XCA     C4 7094  11.299  10.604   6.767 -0.0190 -0.0961 -0.1251
  786XCA     C5 7095  11.556  10.607   6.448  0.1042 -0.1512  0.3706
  786XCA     C6 7096  11.839  10.662   6.155  0.2202 -0.0463  0.0143
  787CHOL   ROH 7097   7.774   6.546   4.351  0.1443  0.0773  0.1580
  787CHOL    R1 7098   7.516   6.607   4.450  0.0942  0.0226  0.0610
  787CHOL    R2 7099   7.362   6.424   4.587  0.0846 -0.0088  0.0090
  787CHOL    R3 7100   7.354   6.619   4.776 -0.0289 -0.0058  0.0013
  787CHOL    R4 7101   7.115   6.457   4.827  0.0165 -0.0882 -0.0505
  787CHOL    R5 7102   7.121   6.673   4.796 -0.0525 -0.0868 -0.0558
  787CHOL    C1 7103   6.963   6.660   5.143 -0.1305 -0.1314 -0.0925
  787CHOL    C2 7104   6.638   6.694   5.309 -0.1784 -0.1564  0.1810
  788CHOL   ROH 7105   0.778  14.720   5.330 -0.0898  0.0598  0.2013
  788CHOL    R1 7106   0.961  14.554   5.469  0.0091  0.2360  0.2811
  788CHOL    R2 7107   0.958  14.526   5.743 -0.1454  0.1581  0.2710
  788CHOL    R3 7108   0.942  14.261   5.683  0.2039  0.1547  0.1885
  788CHOL    R4 7109   1.007  14.269   5.969 -0.4919  0.1583  0.3479
  788CHOL    R5 7110   1.115  14.160   5.815 -0.0333  0.2675  0.5906
  788CHOL    C1 7111   1.021  13.871   6.045 -0.3657  0.1559  0.3152
  788CHOL    C2 7112   1.282  13.656   6.172 -0.0049 -0.0455 -0.0729
  789XCA    COO 7113   4.068   6.630   4.234  0.0858  0.3870  0.0505
  789XCA     C1 7114   4.191   6.733   4.596 -0.3399  0.2254  0.2847
  789XCA     C2 7115   4.013   6.658   5.084 -0.0755 -0.3493  0.2194
  789XCA     C3 7116   3.827   6.653   5.445  0.1710 -0.0880 -0.0360
  789XCA     C4 7117   3.442   6.388   5.523  0.1951  0.2731 -0.1292
  789XCA     C5 7118   3.005   6.384   5.602  0.1376 -0.2603 -0.1466
  789XCA     C6 7119   2.895   6.021   5.916  0.3009 -0.3572  0.0521
  790XCA    COO 7120  10.663   9.502   7.886  0.0172 -0.1793 -0.0181
  790XCA     C1 7121  10.925   9.770   7.532  0.0011  0.1441 -0.1550
  790XCA     C2 7122  11.247   9.676   7.316  0.1523 -0.2276  0.2584
  790XCA     C3 7123  11.421   9.756   6.921  0.0219 -0.0431 -0.1229
  790XCA     C4 7124  11.369   9.977   6.582  0.2831 -0.1617 -0.1506
  790XCA     C5 7125  11.244  10.227   6.249  0.0312  0.0875  0.0653
  790XCA     C6 7126  11.238  10.634   6.048 -0.0644  0.0029  0.4244
  791CHOL   ROH 7127  16.095   2.836   4.382 -0.5283  0.1898 -0.1829
  791CHOL    R1 7128  16.131   2.882   4.659 -0.2537  0.2214 -0.2234
  791CHOL    R2 7129  15.927   2.973   4.822 -0.1546  0.0171  0.0139
  791CHOL    R3 7130  15.991   2.753   4.969  0.2340  0.0779 -0.0628
  791CHOL    R4 7131  15.830   2.920   5.150  0.0887 -0.1880  0.0532
  791CHOL    R5 7132  16.028   2.839   5.190  0.2251  0.0869 -0.0648
  791CHOL    C1 7133  15.833   2.683   5.478  0.5958 -0.2499  0.0043
  791CHOL    C2 7134  15.580   3.002   5.639  0.1611 -0.0477  0.0376
  792PNCE   AM1 7135  15.075  14.020   4.617 -0.2695 -0.0825  0.1062
  792PNCE   AM2 7136  15.042  13.716   4.604 -0.0800 -0.1061 -0.3428
  792PNCE   T1A 7137  15.150  14.189   4.955  0.1148  0.2521 -0.1184
  792PNCE   C2A 7138  14.909  14.240   5.397  0.0266 -0.1765  0.1130
  792PNCE   C3A 7139  14.494  14.327   5.589 -0.1426  0.0222  0.1001
  792PNCE   C1B 7140  15.295  13.692   4.975 -0.0128 -0.3041  0.2188
  792PNCE   C2B 7141  15.353  13.502   5.334  0.0792 -0.0407 -0.1690
  792PNCE   C3B 7142  15.198  13.397   5.725  0.2861 -0.1400  0.1041
  792PNCE   D4B 7143  14.853  13.193   5.820 -0.1459 -0.0370 -0.0208
  792PNCE   C5B 7144  14.765  12.877   5.953  0.2538 -0.2149  0.1179
  792PNCE   C6B 7145  14.584  12.532   6.158 -0.1200 -0.0456  0.0841
  793XCA    COO 7146  12.768   2.231   4.171  0.5760  0.1647 -0.1702
  793XCA     C1 7147  12.888   2.344   4.679 -0.0404  0.1934 -0.1524
  793XCA     C2 7148  12.779   2.143   4.997  0.3673  0.3945  0.1169
  793XCA     C3 7149  12.690   2.115   5.431  0.0034  0.1691 -0.0127
  793XCA     C4 7150  12.348   2.153   5.790 -0.2061 -0.0020  0.1003
  793XCA     C5 7151  12.225   1.865   6.072  0.1452 -0.0686 -0.0159
  793XCA     C6 7152  12.277   1.968   6.500 -0.0798 -0.1088  0.1913
  794CHOL   ROH 7153  12.700  16.151   4.192  0.1918  0.0357 -0.0211
  794CHOL    R1 7154  12.827  16.214   4.436  0.0877  0.1688 -0.0010
  794CHOL    R2 7155  12.734  16.410   4.607 -0.1531  0.0585 -0.0077
  794CHOL    R3 7156  12.739  16.209   4.790  0.0442  0.0587 -0.0141
  794CHOL    R4 7157  12.868  16.435   4.924 -0.2117  0.1917  0.0069
  794CHOL    R5 7158  12.950  16.234   4.900  0.0048  0.2804  0.0088
  794CHOL    C1 7159  12.951  16.260   5.281 -0.0611  0.2696  0.0094
  794CHOL    C2 7160  12.942  16.215   5.704 -0.2634  0.0268 -0.2395
  795PNCE   AM1 7161  14.359  16.208   4.387  0.0757 -0.0877  0.1540
  795PNCE   AM2 7162  14.344  16.610   4.484 -0.1046 -0.2225 -0.0509
  795PNCE   T1A 7163  14.161  16.284   4.811  0.1233  0.1868  0.1998
  795PNCE   C2A 7164  14.064  16.402   5.159  0.0088 -0.2081 -0.0018
  795PNCE   C3A 7165  14.017  16.406   5.599 -0.0783  0.3047  0.4819
  795PNCE   C1B 7166  14.248  16.775   4.854  0.0539  0.2942 -0.2978
  795PNCE   C2B 7167  14.347  16.854   5.277 -0.2006  0.0501 -0.0313
  795PNCE   C3B 7168  14.514  16.620   5.383  0.1650  0.1689  0.0031
  795PNCE   D4B 7169  14.479  16.337   5.774  0.0323 -0.1682 -0.0008
  795PNCE   C5B 7170  14.301  15.971   5.901  0.0289  0.0667  0.0946
  795PNCE   C6B 7171  14.004  15.668   6.182  0.4225  0.0838  0.0940
  796XCA    COO 7172   4.557   1.975   5.033  0.0609 -0.3666  0.0068
  796XCA     C1 7173   4.534   2.320   5.322  0.1670 -0.1432 -0.0977
  796XCA     C2 7174   4.710   2.580   5.735  0.1189 -0.1737  0.0967
  796XCA     C3 7175   4.640   2.957   6.019 -0.3344 -0.0183 -0.1073
  796XCA     C4 7176   4.754   3.328   6.222 -0.1863  0.0354  0.1319
  796XCA     C5 7177   4.474   3.604   6.266  0.1567 -0.3282 -0.0260
  796XCA     C6 7178   4.066   3.941   6.338  0.2154  0.1262 -0.0892
  797XCA    COO 7179   5.842   5.873   6.914 -0.1324  0.1089 -0.1277
  797XCA     C1 7180   5.721   6.009   6.596 -0.1889 -0.0776  0.0599
  797XCA     C2 7181   5.693   6.232   6.224  0.0317  0.0440  0.2896
  797XCA     C3 7182   5.881   6.664   6.040  0.2169  0.0123  0.2781
  797XCA     C4 7183   5.982   6.744   5.725  0.1169 -0.0152 -0.3311
  797XCA     C5 7184   6.376   6.907   5.721  0.1200  0.3402  0.3708
  797XCA     C6 7185   6.790   7.037   5.843  0.1430 -0.0020  0.1034
  798PNCE   AM1 7186   4.592  11.552   3.947  0.4564  0.0339 -0.3855
  798PNCE   AM2 7187   4.817  11.756   4.121  0.0606 -0.0905  0.1070
  798PNCE   T1A 7188   4.272  11.710   4.178 -0.2270 -0.3174 -0.2301
  798PNCE   C2A 7189   3.937  11.678   4.458 -0.4849  0.0270 -0.1766
  798PNCE   C3A 7190   3.726  11.890   4.804 -0.3358 -0.3083 -0.2826
  798PNCE   C1B 7191   4.975  11.714   4.542  0.0144 -0.1611  0.0553
  798PNCE   C2B 7192   4.972  11.536   4.929 -0.2458  0.0113 -0.0560
  798PNCE   C3B 7193   4.907  11.262   5.364 -0.0735 -0.1925 -0.1244
  798PNCE   D4B 7194   4.888  10.856   5.402 -0.1541 -0.0449 -0.0032
  798PNCE   C5B 7195   5.105  10.565   5.160  0.1401  0.0188 -0.2682
  798PNCE   C6B 7196   5.360  10.538   4.893  0.0123 -0.0549 -0.0840
  799CHOL   ROH 7197   0.371   1.315   6.495 -0.0113  0.1665 -0.0659
  799CHOL    R1 7198   0.633   1.216   6.538 -0.0835  0.0581  0.1259
  799CHOL    R2 7199   0.689   1.019   6.724 -0.3226 -0.0650  0.0678
  799CHOL    R3 7200   0.802   0.895   6.510 -0.1601  0.0196  0.1048
  799CHOL    R4 7201   0.771   0.684   6.712 -0.2565 -0.0470  0.0198
  799CHOL    R5 7202   0.954   0.738   6.607 -0.1970  0.0165  0.1574
  799CHOL    C1 7203   0.925   0.372   6.504 -0.0656  0.0428  0.0261
  799CHOL    C2 7204   1.056   0.078   6.605 -0.1092  0.0983  0.0493
  800PNCE   AM1 7205   9.049   7.168   4.284 -0.1284  0.2993 -0.1086
  800PNCE   AM2 7206   8.717   7.323   4.287 -0.1278  0.1232  0.1337
  800PNCE   T1A 7207   9.232   7.274   4.685 -0.2663 -0.1158 -0.2033
  800PNCE   C2A 7208   9.082   7.130   5.034  0.1754 -0.0482  0.0992
  800PNCE   C3A 7209   9.000   7.090   5.407 -0.2980 -0.1346 -0.0759
  800PNCE   C1B 7210   8.684   7.207   4.704 -0.1599  0.4157 -0.1054
  800PNCE   C2B 7211   8.492   7.193   5.151 -0.1156  0.1731  0.0575
  800PNCE   C3B 7212   8.268   7.327   5.533 -0.1673  0.1058 -0.1479
  800PNCE   D4B 7213   7.835   7.453   5.579  0.3632  0.1390 -0.2111
  800PNCE   C5B 7214   7.535   7.248   5.383 -0.1008  0.2014 -0.3170
  800PNCE   C6B 7215   7.383   7.023   5.071 -0.0446 -0.0284  0.0063
  801CHOL   ROH 7216   1.464   8.604   8.055  0.0234 -0.2006 -0.1216
  801CHOL    R1 7217   1.582   8.652   7.802  0.1025  0.0176 -0.0436
  801CHOL    R2 7218   1.470   8.563   7.566  0.2176  0.1508 -0.1494
  801CHOL    R3 7219   1.489   8.825   7.496  0.1622  0.2074  0.0444
  801CHOL    R4 7220   1.429   8.684   7.245 -0.0190  0.4044 -0.0234
  801CHOL    R5 7221   1.595   8.821   7.281  0.0054  0.3796 -0.0367
  801CHOL    C1 7222   1.422   9.000   6.992 -0.2088  0.6069  0.2325
  801CHOL    C2 7223   1.414   9.107   6.662  0.1086  0.0931  0.1080
  802CHOL   ROH 7224   2.114  16.224   8.711 -0.0550 -0.0502  0.0330
  802CHOL    R1 7225   2.083  16.184   8.432 -0.2346  0.0362  0.0401
  802CHOL    R2 7226   1.973  16.374   8.266 -0.0170  0.2291  0.1144
  802CHOL    R3 7227   2.204  16.341   8.127 -0.1249 -0.1035  0.0112
  802CHOL    R4 7228   2.026  16.480   7.941  0.0440  0.2937  0.1459
  802CHOL    R5 7229   2.134  16.295   7.903 -0.2890  0.1259  0.0155
  802CHOL    C1 7230   2.274  16.511   7.622 -0.0218  0.0212  0.0675
  802CHOL    C2 7231   2.188  16.375   7.099 -0.2780  0.1775  0.0306
  803PNCE   AM1 7232  10.001   0.040   4.675  0.1161  0.0047  0.4850
  803PNCE   AM2 7233   9.640   0.067   4.650 -0.2059 -0.0371 -0.1119
  803PNCE   T1A 7234  10.352  -0.025   4.955 -0.3415 -0.0045  0.1487
  803PNCE   C2A 7235  10.383   0.024   5.365 -0.1463  0.0014  0.1958
  803PNCE   C3A 7236  10.619   0.358   5.711 -0.0685 -0.1266 -0.1033
  803PNCE   C1B 7237   9.633   0.438   4.950  0.2963 -0.0550  0.1729
  803PNCE   C2B 7238   9.745   0.588   5.320 -0.0097  0.1003  0.1328
  803PNCE   C3B 7239   9.867   0.706   5.775 -0.1284  0.0132  0.0647
  803PNCE   D4B 7240  10.246   0.741   6.084  0.0652  0.0612 -0.1042
  803PNCE   C5B 7241  10.520   0.445   6.225  0.3585 -0.0501 -0.1276
  803PNCE   C6B 7242  10.907   0.288   6.176 -0.0351  0.2634 -0.0830
  804PNCE   AM1 7243   1.528   6.784   4.282 -0.0718 -0.1303  0.1928
  804PNCE   AM2 7244   1.426   6.574   4.384 -0.3934 -0.2130 -0.1864
  804PNCE   T1A 7245   1.705   6.780   4.695 -0.1350  0.3318  0.1167
  804PNCE   C2A 7246   1.874   6.856   5.097  0.0329 -0.1830  0.0539
  804PNCE   C3A 7247   2.191   7.007   5.317 -0.1010  0.0247  0.3366
  804PNCE   C1B 7248   1.136   6.773   4.648  0.1221 -0.3451 -0.1236
  804PNCE   C2B 7249   0.970   6.604   5.117 -0.2091 -0.0228 -0.1615
  804PNCE   C3B 7250   1.004   6.173   5.266  0.0651  0.1399  0.1439
  804PNCE   D4B 7251   0.925   5.705   5.216 -0.1788  0.0769 -0.1337
  804PNCE   C5B 7252   0.742   5.561   4.797 -0.3224 -0.0783  0.2125
  804PNCE   C6B 7253   0.986   5.537   4.450  0.0790  0.1798 -0.2473
  805XCA    COO 7254   3.642  11.729   4.073 -0.2506 -0.1777  0.0451
  805XCA     C1 7255   3.701  12.085   4.200 -0.1058 -0.0101 -0.0394
  805XCA     C2 7256   3.582  12.297   4.580  0.0905  0.2344 -0.2565
  805XCA     C3 7257   3.673  12.399   4.982 -0.1549 -0.0838 -0.1892
  805XCA     C4 7258   3.845  12.806   5.234  0.0765 -0.0864 -0.1443
  805XCA     C5 7259   4.218  12.990   5.372 -0.2721 -0.1450 -0.0361
  805XCA     C6 7260   4.443  13.228   5.667 -0.0367  0.0971 -0.2318
  806PNCE   AM1 7261  15.931   8.337   3.717 -0.1442  0.0047 -0.0666
  806PNCE   AM2 7262  16.147   8.481   4.053 -0.2815 -0.1987 -0.0155
  806PNCE   T1A 7263  15.634   8.647   3.640  0.0732 -0.0372  0.2770
  806PNCE   C2A 7264  15.347   8.944   3.785  0.3450  0.0027  0.0238
  806PNCE   C3A 7265  15.141   9.346   3.893  0.0892  0.0020 -0.2153
  806PNCE   C1B 7266  15.898   8.858   4.015  0.0239  0.0262 -0.1708
  806PNCE   C2B 7267  15.617   9.205   4.134  0.2265  0.2267 -0.1214
  806PNCE   C3B 7268  15.422   9.597   4.279  0.1269 -0.2177  0.1944
  806PNCE   D4B 7269  15.036   9.811   4.419  0.0617  0.2308 -0.0377
  806PNCE   C5B 7270  14.755   9.549   4.638 -0.0624 -0.1055  0.0337
  806PNCE   C6B 7271  14.764   9.165   4.708  0.2577 -0.1326 -0.0767
  807PNCE   AM1 7272  11.022   8.328   4.105  0.1347 -0.0815  0.0274
  807PNCE   AM2 7273  10.916   8.653   4.158 -0.0592 -0.0024  0.0294
  807PNCE   T1A 7274  11.419   8.305   4.318  0.2705 -0.0839  0.1433
  807PNCE   C2A 7275  11.694   8.294   4.679 -0.2288 -0.0012  0.0683
  807PNCE   C3A 7276  12.010   8.439   5.031 -0.3195  0.0585 -0.1224
  807PNCE   C1B 7277  10.951   8.626   4.620 -0.1012  0.0165  0.1246
  807PNCE   C2B 7278  11.227   8.777   4.831  0.3182 -0.0178 -0.2894
  807PNCE   C3B 7279  11.143   9.271   4.986 -0.0584  0.1745  0.0009
  807PNCE   D4B 7280  11.135   9.588   4.716  0.0724 -0.6071  0.0873
  807PNCE   C5B 7281  11.440   9.685   4.448  0.3779  0.2148  0.1510
  807PNCE   C6B 7282  11.622   9.433   4.282  0.3092  0.1693 -0.1543
  808PNCE   AM1 7283  12.339  16.095   9.087  0.1496  0.2057  0.0892
  808PNCE   AM2 7284  12.122  16.242   8.957 -0.0137 -0.3234 -0.0644
  808PNCE   T1A 7285  12.168  15.854   8.682  0.1899  0.2326 -0.1992
  808PNCE   C2A 7286  12.027  15.615   8.248  0.4442  0.3692  0.3682
  808PNCE   C3A 7287  11.599  15.389   8.126  0.0312  0.0931 -0.1479
  808PNCE   C1B 7288  11.637  16.225   8.877  0.1156  0.3175 -0.1124
  808PNCE   C2B 7289  11.237  16.227   8.597  0.0232 -0.2095  0.2806
  808PNCE   C3B 7290  11.074  16.491   8.253 -0.3681 -0.0712  0.3805
  808PNCE   D4B 7291  11.279  16.964   8.166  0.2346  0.1585 -0.2784
  808PNCE   C5B 7292  11.163  17.230   7.910 -0.0544 -0.1478 -0.0438
  808PNCE   C6B 7293  10.861  17.527   8.124 -0.3951 -0.1444 -0.1382
  809CHOL   ROH 7294   6.129   4.659   4.626  0.0097  0.1328 -0.1537
  809CHOL    R1 7295   6.125   4.942   4.639 -0.1328  0.1242 -0.0136
  809CHOL    R2 7296   5.949   5.081   4.800  0.0055 -0.0528  0.2922
  809CHOL    R3 7297   6.177   5.195   4.895  0.0698  0.0304  0.0390
  809CHOL    R4 7298   5.959   5.356   5.009  0.1321 -0.1283  0.3855
  809CHOL    R5 7299   6.130   5.430   4.895 -0.0551  0.0060  0.1912
  809CHOL    C1 7300   6.179   5.623   5.220  0.2666 -0.0943  0.2028
  809CHOL    C2 7301   6.079   5.832   5.609  0.0449 -0.1446  0.1072
  810PNCE   AM1 7302  11.196  11.887   4.623  0.2315 -0.0825 -0.1881
  810PNCE   AM2 7303  11.327  12.175   4.680 -0.1307  0.0151  0.1846
  810PNCE   T1A 7304  10.928  11.446   4.719  0.0521 -0.0068  0.0233
  810PNCE   C2A 7305  10.811  11.031   4.890  0.1612 -0.0111 -0.2971
  810PNCE   C3A 7306  10.778  10.737   5.167 -0.1100 -0.0282  0.2100
  810PNCE   C1B 7307  11.230  12.011   5.105 -0.3229 -0.1234 -0.0280
  810PNCE   C2B 7308  11.239  11.858   5.430 -0.2820 -0.0787 -0.3462
  810PNCE   C3B 7309  11.096  11.820   5.912 -0.0981  0.1640  0.4596
  810PNCE   D4B 7310  11.183  11.653   6.277  0.1819  0.0920  0.2947
  810PNCE   C5B 7311  11.070  11.413   6.484 -0.2169 -0.1207  0.0506
  810PNCE   C6B 7312  11.150  11.017   6.425  0.4128 -0.0829  0.4146
  811PNCE   AM1 7313   9.818   3.876   4.170  0.0726  0.0917 -0.0618
  811PNCE   AM2 7314   9.610   4.184   4.134 -0.2955  0.0691 -0.2865
  811PNCE   T1A 7315   9.812   3.897   4.629 -0.1512 -0.1052 -0.2198
  811PNCE   C2A 7316   9.939   4.045   5.040  0.0470 -0.1086  0.1470
  811PNCE   C3A 7317  10.008   4.193   5.424 -0.1429 -0.1734 -0.0673
  811PNCE   C1B 7318   9.777   4.448   4.625  0.2613  0.1816 -0.1628
  811PNCE   C2B 7319   9.720   4.581   5.156  0.0389  0.0724 -0.1412
  811PNCE   C3B 7320   9.531   4.365   5.508  0.1329 -0.1520  0.0063
  811PNCE   D4B 7321   9.531   4.201   5.918 -0.0384 -0.3699  0.1483
  811PNCE   C5B 7322   9.816   3.940   6.006 -0.1647  0.2243  0.0378
  811PNCE   C6B 7323  10.285   3.746   5.935 -0.3004 -0.2611  0.1513
  812CHOL   ROH 7324  14.103  11.371   8.173  0.2419  0.0867  0.0812
  812CHOL    R1 7325  14.008  11.624   8.089  0.1898  0.0200 -0.0591
  812CHOL    R2 7326  14.117  11.861   8.180  0.0901  0.0939 -0.1319
  812CHOL    R3 7327  14.144  11.913   7.914  0.1538 -0.0153 -0.1463
  812CHOL    R4 7328  14.210  12.167   8.046 -0.0811  0.0973 -0.2432
  812CHOL    R5 7329  14.063  12.137   7.889  0.0005 -0.0877 -0.2856
  812CHOL    C1 7330  14.289  12.393   7.720 -0.1210 -0.0037 -0.3228
  812CHOL    C2 7331  14.520  12.572   7.859  0.1035  0.3652 -0.0594
  813PNCE   AM1 7332   7.794   9.980   4.597 -0.2900  0.1322  0.0589
  813PNCE   AM2 7333   7.983  10.197   4.493 -0.1136  0.1592  0.0289
  813PNCE   T1A 7334   7.761   9.737   4.923  0.1379  0.0500  0.1805
  813PNCE   C2A 7335   7.862   9.352   5.069  0.1978 -0.2498  0.1241
  813PNCE   C3A 7336   7.720   9.116   5.355  0.0504 -0.0561  0.1207
  813PNCE   C1B 7337   7.955  10.470   4.799  0.0737 -0.1247  0.2036
  813PNCE   C2B 7338   8.004  10.586   5.157  0.0657 -0.2201  0.0008
  813PNCE   C3B 7339   7.843  10.576   5.600 -0.0389  0.1344  0.0654
  813PNCE   D4B 7340   8.070  10.730   5.939 -0.0006 -0.0663 -0.1695
  813PNCE   C5B 7341   8.128  10.525   6.354  0.3631  0.0698 -0.2287
  813PNCE   C6B 7342   8.150  10.437   6.885  0.0996  0.0196  0.2026
  814CHOL   ROH 7343   4.201   3.341   7.876  0.2165  0.1030  0.1028
  814CHOL    R1 7344   4.340   3.126   7.755  0.1726  0.0125  0.2127
  814CHOL    R2 7345   4.477   3.153   7.516 -0.0924 -0.2208  0.0342
  814CHOL    R3 7346   4.685   3.054   7.661  0.1021  0.0364 -0.0672
  814CHOL    R4 7347   4.734   2.961   7.387 -0.0446 -0.1040 -0.0463
  814CHOL    R5 7348   4.725   2.837   7.567  0.1962  0.0061  0.0422
  814CHOL    C1 7349   5.078   2.756   7.448  0.1652  0.2059 -0.1878
  814CHOL    C2 7350   5.057   2.607   7.148  0.0515 -0.1116  0.1329
  815XCA    COO 7351   8.018  14.873   4.668  0.2111 -0.0362 -0.0822
  815XCA     C1 7352   7.971  14.893   5.071  0.1755 -0.1165  0.1211
  815XCA     C2 7353   7.872  14.944   5.471 -0.0759 -0.0511 -0.2810
  815XCA     C3 7354   7.769  15.207   5.809  0.2212  0.1736 -0.1892
  815XCA     C4 7355   7.627  15.398   6.220  0.0341  0.2272  0.1125
  815XCA     C5 7356   7.757  15.725   6.280  0.0701 -0.0779 -0.1081
  815XCA     C6 7357   7.768  15.925   6.645  0.0550 -0.2358  0.1194
  816PNCE   AM1 7358  11.735  11.984   4.962 -0.2943  0.2015 -0.0973
  816PNCE   AM2 7359  11.737  12.248   5.065 -0.4288 -0.2049 -0.1262
  816PNCE   T1A 7360  11.397  11.571   4.999  0.0919  0.2596 -0.0664
  816PNCE   C2A 7361  11.154  11.305   5.244 -0.2558  0.1366  0.0667
  816PNCE   C3A 7362  10.758  11.285   5.295  0.0198 -0.0613 -0.1160
  816PNCE   C1B 7363  11.694  12.041   5.484 -0.3029  0.0240 -0.1197
  816PNCE   C2B 7364  11.727  11.879   5.801 -0.0898  0.2985  0.1446
  816PNCE   C3B 7365  11.721  11.731   6.329  0.0364  0.0045 -0.0229
  816PNCE   D4B 7366  11.938  11.427   6.609 -0.1097 -0.4310 -0.0868
  816PNCE   C5B 7367  12.325  11.449   6.452 -0.0270 -0.0638  0.0858
  816PNCE   C6B 7368  12.680  11.808   6.619  0.1657  0.2073 -0.3826
  817PNCE   AM1 7369   9.467   9.472   4.189 -0.1265 -0.0533  0.1376
  817PNCE   AM2 7370   9.635   9.397   4.499  0.3838  0.2240 -0.1985
  817PNCE   T1A 7371   9.190   9.596   4.528  0.1617 -0.0486 -0.1562
  817PNCE   C2A 7372   9.132   9.441   4.910 -0.5530  0.0065 -0.1243
  817PNCE   C3A 7373   9.359   9.301   5.225  0.0270  0.2651  0.1165
  817PNCE   C1B 7374   9.659   9.759   4.845 -0.2266 -0.1688 -0.3208
  817PNCE   C2B 7375   9.911  10.032   5.218  0.0614 -0.1552 -0.0329
  817PNCE   C3B 7376   9.975  10.195   5.582  0.2124  0.1770  0.1918
  817PNCE   D4B 7377  10.237  10.174   5.889  0.0577  0.0184 -0.0686
  817PNCE   C5B 7378  10.248   9.936   6.294  0.2514 -0.2257 -0.4299
  817PNCE   C6B 7379  10.518   9.548   6.475 -0.2270 -0.2392  0.3101
  818CHOL   ROH 7380   4.326  15.612   4.919  0.2486  0.2755  0.1900
  818CHOL    R1 7381   4.352  15.452   5.150  0.1585  0.3443  0.2480
  818CHOL    R2 7382   4.544  15.254   5.173 -0.2235 -0.0386  0.1529
  818CHOL    R3 7383   4.609  15.388   5.401  0.2893 -0.0506  0.0145
  818CHOL    R4 7384   4.735  15.125   5.431 -0.3936 -0.3681  0.1144
  818CHOL    R5 7385   4.600  15.222   5.573 -0.0408  0.0935  0.1380
  818CHOL    C1 7386   4.907  15.176   5.794 -0.0118 -0.5713 -0.0373
  818CHOL    C2 7387   5.279  15.055   5.996  0.1755 -0.1921  0.3269
  819CHOL   ROH 7388   9.244   3.057   4.916  0.0629  0.1991 -0.1460
  819CHOL    R1 7389   9.443   3.054   5.117  0.0396  0.0501 -0.1245
  819CHOL    R2 7390   9.701   3.143   5.072  0.0477  0.0717 -0.0313
  819CHOL    R3 7391   9.650   3.299   5.289  0.0289 -0.0788  0.0723
  819CHOL    R4 7392   9.918   3.191   5.337  0.1349  0.1023 -0.1082
  819CHOL    R5 7393   9.747   3.180   5.472  0.2050 -0.0982 -0.0341
  819CHOL    C1 7394   9.996   3.365   5.694  0.1666 -0.0207 -0.0549
  819CHOL    C2 7395  10.397   3.237   5.733 -0.0288 -0.1589 -0.0858
  820CHOL   ROH 7396  11.954   7.712   7.297 -0.0262 -0.1156  0.1445
  820CHOL    R1 7397  11.986   7.936   7.128  0.1082 -0.0942  0.1984
  820CHOL    R2 7398  12.125   7.924   6.890  0.0433 -0.1361  0.1624
  820CHOL    R3 7399  11.895   8.025   6.787  0.0977  0.0694  0.2435
  820CHOL    R4 7400  12.105   8.118   6.604  0.1163 -0.1202  0.1693
  820CHOL    R5 7401  11.957   8.242   6.705  0.2627  0.0138  0.2210
  820CHOL    C1 7402  11.877   8.326   6.341  0.2086  0.0830  0.2490
  820CHOL    C2 7403  11.607   8.596   6.229  0.1064  0.4182 -0.0201
  821CHOL   ROH 7404  12.210   3.325   7.895 -0.1776  0.1109  0.0080
  821CHOL    R1 7405  12.269   3.503   7.682  0.0191  0.0006 -0.0296
  821CHOL    R2 7406  12.349   3.415   7.433 -0.1241 -0.1424 -0.0254
  821CHOL    R3 7407  12.140   3.567   7.348  0.0566  0.1078 -0.0238
  821CHOL    R4 7408  12.298   3.514   7.106 -0.0448 -0.1380 -0.0362
  821CHOL    R5 7409  12.235   3.709   7.180  0.2151 -0.0443 -0.0639
  821CHOL    C1 7410  12.073   3.715   6.835  0.1727  0.0991 -0.0414
  821CHOL    C2 7411  12.071   3.752   6.465  0.0644  0.0483 -0.0714
  822CHOL   ROH 7412   9.064   1.211   8.335  0.1612 -0.2529  0.1146
  822CHOL    R1 7413   9.058   1.051   8.101  0.0463 -0.3121  0.1578
  822CHOL    R2 7414   8.824   0.997   7.964  0.0239 -0.0807  0.1037
  822CHOL    R3 7415   8.963   1.096   7.753  0.2013 -0.3015  0.1172
  822CHOL    R4 7416   8.768   0.911   7.634 -0.1364  0.0692  0.0913
  822CHOL    R5 7417   8.984   0.910   7.604 -0.1392 -0.3186  0.0892
  822CHOL    C1 7418   8.866   0.954   7.243 -0.0636 -0.0510  0.0967
  822CHOL    C2 7419   8.718   1.076   6.989  0.1346 -0.2426 -0.1385
  823PNCE   AM1 7420   2.685   4.098   4.769  0.0168 -0.1746 -0.0360
  823PNCE   AM2 7421   2.541   4.475   4.602  0.0636  0.1258 -0.1288
  823PNCE   T1A 7422   2.371   3.971   5.112 -0.2162  0.3064 -0.1184
  823PNCE   C2A 7423   2.078   3.718   5.312 -0.0390 -0.3483 -0.0610
  823PNCE   C3A 7424   1.762   3.373   5.530  0.0729  0.1088 -0.4150
  823PNCE   C1B 7425   2.738   4.631   4.939  0.2525  0.2370  0.5590
  823PNCE   C2B 7426   2.992   4.934   5.216  0.3661 -0.2681  0.0656
  823PNCE   C3B 7427   3.127   5.354   5.338 -0.0055  0.3125 -0.0421
  823PNCE   D4B 7428   3.404   5.447   5.307 -0.1324  0.0163 -0.1700
  823PNCE   C5B 7429   3.585   5.434   5.652  0.0418 -0.2573 -0.0534
  823PNCE   C6B 7430   3.292   5.147   5.842  0.3848  0.0194  0.0995
  824PNCE   AM1 7431   9.372   0.652   4.280  0.0203  0.1444  0.0647
  824PNCE   AM2 7432   9.563   0.479   4.367  0.1626  0.1954 -0.0493
  824PNCE   T1A 7433   9.241   0.883   4.617 -0.0515  0.1098 -0.3352
  824PNCE   C2A 7434   9.456   0.994   5.026 -0.0687  0.1446  0.1011
  824PNCE   C3A 7435   9.749   1.105   5.349 -0.2330  0.2693  0.3939
  824PNCE   C1B 7436   9.937   0.499   4.573  0.0142 -0.2353  0.0345
  824PNCE   C2B 7437  10.181   0.438   5.034 -0.2193 -0.1346 -0.0405
  824PNCE   C3B 7438  10.247   0.637   5.441 -0.0041 -0.1663  0.4346
  824PNCE   D4B 7439  10.471   0.908   5.546 -0.0646 -0.1600 -0.2600
  824PNCE   C5B 7440  10.758   0.843   5.800  0.2290  0.2584 -0.1725
  824PNCE   C6B 7441  10.866   0.831   6.178 -0.2251 -0.0569 -0.0576
  825XCA    COO 7442   2.516  14.280   7.965 -0.2920  0.0260 -0.0139
  825XCA     C1 7443   2.456  14.172   7.595  0.0618  0.1452 -0.1934
  825XCA     C2 7444   2.108  14.288   7.304  0.0256  0.1161 -0.0182
  825XCA     C3 7445   2.011  14.231   6.780  0.4627 -0.2865  0.1249
  825XCA     C4 7446   1.726  14.269   6.516 -0.1321 -0.0555 -0.0532
  825XCA     C5 7447   1.351  14.238   6.276 -0.0738 -0.0195  0.0497
  825XCA     C6 7448   0.970  14.583   6.253  0.0594 -0.3492 -0.0674
  826XCA    COO 7449   0.100   3.744   4.425 -0.0330 -0.0210  0.1297
  826XCA     C1 7450   0.072   3.692   4.856  0.1987  0.3541  0.1438
  826XCA     C2 7451  -0.071   3.732   5.262  0.2579  0.1755 -0.1187
  826XCA     C3 7452  -0.248   3.919   5.709  0.0222  0.0264 -0.0346
  826XCA     C4 7453  -0.407   4.288   5.676  0.4016  0.0895 -0.0164
  826XCA     C5 7454  -0.566   4.740   5.794  0.1191 -0.0563 -0.0161
  826XCA     C6 7455  -0.680   4.942   6.166 -0.1416  0.3078 -0.1882
  827XCA    COO 7456  10.048  11.056   8.191  0.2153  0.3156  0.0154
  827XCA     C1 7457   9.816  11.186   7.797  0.2494 -0.3539  0.0862
  827XCA     C2 7458   9.650  11.372   7.400  0.2461  0.2395  0.0624
  827XCA     C3 7459   9.426  11.402   6.961 -0.2738  0.4316 -0.1281
  827XCA     C4 7460   8.998  11.452   6.766 -0.0271  0.4331 -0.0959
  827XCA     C5 7461   8.845  11.729   7.067  0.1077 -0.0171 -0.0991
  827XCA     C6 7462   8.541  12.040   7.091 -0.1437 -0.1734 -0.2089
  828PNCE   AM1 7463   9.281  13.298   4.866 -0.1927  0.0405 -0.1212
  828PNCE   AM2 7464   9.288  13.600   4.909  0.0699 -0.0221 -0.0720
  828PNCE   T1A 7465   9.698  13.269   5.228 -0.0369  0.0935  0.0230
  828PNCE   C2A 7466   9.948  13.088   5.596  0.1479  0.0502  0.2088
  828PNCE   C3A 7467  10.327  12.915   5.442 -0.0141 -0.0020  0.1263
  828PNCE   C1B 7468   9.384  13.659   5.358  0.2125 -0.3318 -0.1937
  828PNCE   C2B 7469   9.553  13.548   5.674  0.2959  0.2362  0.0370
  828PNCE   C3B 7470   9.630  13.318   5.995 -0.0542 -0.0108 -0.0974
  828PNCE   D4B 7471   9.749  13.295   6.476  0.2449 -0.1197  0.0528
  828PNCE   C5B 7472  10.011  12.926   6.428 -0.1058 -0.0462  0.1154
  828PNCE   C6B 7473  10.221  12.533   6.329 -0.1652  0.2347 -0.0181
  829PNCE   AM1 7474   3.820   9.244   3.031  0.1596 -0.0369  0.0055
  829PNCE   AM2 7475   3.996   9.011   3.074  0.0409 -0.2074 -0.2673
  829PNCE   T1A 7476   3.481   9.460   3.251 -0.0167 -0.2844 -0.0815
  829PNCE   C2A 7477   3.181   9.608   3.438  0.1134 -0.0043  0.2630
  829PNCE   C3A 7478   3.095   9.816   3.806 -0.0156  0.0038  0.0412
  829PNCE   C1B 7479   3.734   9.018   3.482 -0.0426  0.2600 -0.1579
  829PNCE   C2B 7480   3.867   9.262   3.941 -0.2401  0.1468 -0.3238
  829PNCE   C3B 7481   3.826   9.310   4.398  0.0207 -0.0167  0.2784
  829PNCE   D4B 7482   3.869   9.471   4.716 -0.1538 -0.0289 -0.4251
  829PNCE   C5B 7483   3.875   9.220   5.118  0.0403  0.0220  0.1768
  829PNCE   C6B 7484   3.833   8.917   5.306 -0.1427 -0.2070 -0.0968
  830PNCE   AM1 7485   4.066   3.421   4.265 -0.2978  0.1590 -0.2914
  830PNCE   AM2 7486   3.966   3.449   4.594  0.0150  0.1122  0.0126
  830PNCE   T1A 7487   4.317   3.757   4.451  0.0746  0.1588  0.0421
  830PNCE   C2A 7488   4.199   4.246   4.671 -0.1366  0.1424 -0.2008
  830PNCE   C3A 7489   4.177   4.491   4.997 -0.0139  0.2689  0.1531
  830PNCE   C1B 7490   4.144   3.804   4.922 -0.1974 -0.2415  0.0747
  830PNCE   C2B 7491   4.443   4.059   5.090 -0.1005 -0.1985 -0.3226
  830PNCE   C3B 7492   4.653   4.486   4.991 -0.0255 -0.1495  0.1851
  830PNCE   D4B 7493   4.677   4.867   4.936  0.0923 -0.0345 -0.0584
  830PNCE   C5B 7494   5.025   5.059   5.268  0.0043  0.0592 -0.0096
  830PNCE   C6B 7495   5.167   5.453   5.548 -0.3043 -0.1583  0.3759
  831PNCE   AM1 7496   1.856  12.776   4.323  0.1599 -0.2605 -0.3561
  831PNCE   AM2 7497   1.683  12.543   4.403 -0.1420 -0.0286  0.0693
  831PNCE   T1A 7498   2.166  13.109   4.382 -0.1491 -0.2234 -0.0827
  831PNCE   C2A 7499   2.413  13.245   4.726  0.1599  0.1873  0.0148
  831PNCE   C3A 7500   2.613  13.225   5.093  0.0383 -0.3072  0.2377
  831PNCE   C1B 7501   1.864  12.304   4.646 -0.3840  0.2600  0.0329
  831PNCE   C2B 7502   2.071  12.309   5.010 -0.1495  0.0732  0.1559
  831PNCE   C3B 7503   1.985  12.206   5.427  0.2391 -0.2028  0.3596
  831PNCE   D4B 7504   1.807  12.001   5.743 -0.0700 -0.1950  0.0516
  831PNCE   C5B 7505   1.417  11.977   5.785  0.1370 -0.0373 -0.0439
  831PNCE   C6B 7506   1.016  11.873   5.781 -0.0536  0.0412 -0.3861
  832XCA    COO 7507   2.937  10.418   3.730 -0.1237 -0.0494  0.2226
  832XCA     C1 7508   2.884  10.231   4.150  0.3554  0.1430 -0.0344
  832XCA     C2 7509   3.057   9.895   4.367  0.1627 -0.0486  0.0735
  832XCA     C3 7510   2.967   9.731   4.886  0.0879  0.0794 -0.2513
  832XCA     C4 7511   3.041   9.708   5.301  0.1099 -0.4683 -0.1084
  832XCA     C5 7512   3.324   9.750   5.550  0.3871  0.1587  0.4072
  832XCA     C6 7513   3.724   9.627   5.755  0.0369  0.2003  0.2207
  833PNCE   AM1 7514   5.292  12.549   3.877 -0.0058 -0.1175  0.2777
  833PNCE   AM2 7515   5.125  12.746   3.815  0.0572  0.1464  0.0154
  833PNCE   T1A 7516   5.429  12.482   4.353 -0.3366  0.1827 -0.0798
  833PNCE   C2A 7517   5.747  12.291   4.473  0.1298 -0.0681 -0.0329
  833PNCE   C3A 7518   6.171  12.160   4.501 -0.0664  0.1240 -0.0181
  833PNCE   C1B 7519   4.783  12.699   4.010 -0.2088 -0.0849  0.0921
  833PNCE   C2B 7520   4.510  12.708   4.401 -0.1461  0.1091  0.2289
  833PNCE   C3B 7521   4.504  12.488   4.740  0.0624 -0.1782 -0.0159
  833PNCE   D4B 7522   4.371  12.473   5.156  0.2625  0.1265 -0.2055
  833PNCE   C5B 7523   4.597  12.531   5.570 -0.2596  0.1407  0.0222
  833PNCE   C6B 7524   4.856  12.495   5.923  0.0110  0.0990  0.3163
  834PNCE   AM1 7525  13.355   9.520   4.111 -0.2169 -0.0480  0.0014
  834PNCE   AM2 7526  13.667   9.665   3.977  0.2298 -0.3507 -0.0327
  834PNCE   T1A 7527  13.121   9.098   4.248 -0.2521 -0.2332 -0.1524
  834PNCE   C2A 7528  13.090   8.794   4.568  0.3639 -0.0137  0.1702
  834PNCE   C3A 7529  13.020   8.642   4.913  0.1256 -0.3186 -0.1091
  834PNCE   C1B 7530  13.866   9.577   4.403 -0.0918  0.6980 -0.1064
  834PNCE   C2B 7531  13.717   9.435   4.864  0.0910 -0.0901  0.0917
  834PNCE   C3B 7532  13.477   9.564   5.245  0.1046 -0.1742  0.3853
  834PNCE   D4B 7533  13.106   9.376   5.564  0.3614 -0.0185  0.2013
  834PNCE   C5B 7534  13.095   8.935   5.737  0.1964  0.0109 -0.2233
  834PNCE   C6B 7535  13.189   8.416   5.713 -0.1391 -0.0343 -0.2152
  835CHOL   ROH 7536  13.911  11.573   7.579 -0.0540 -0.0188 -0.0831
  835CHOL    R1 7537  14.026  11.821   7.505  0.0567 -0.0262  0.0644
  835CHOL    R2 7538  13.907  11.993   7.325  0.2770  0.0005 -0.0567
  835CHOL    R3 7539  13.935  12.172   7.527  0.0707 -0.0184 -0.0110
  835CHOL    R4 7540  13.781  12.315   7.322  0.0911 -0.0720 -0.0637
  835CHOL    R5 7541  13.966  12.382   7.416  0.0052  0.0191  0.0408
  835CHOL    C1 7542  13.735  12.671   7.510 -0.2107 -0.1312 -0.0253
  835CHOL    C2 7543  14.017  12.970   7.209  0.1171 -0.2871  0.0563
  836CHOL   ROH 7544   8.225   1.649   8.083  0.1568  0.0057 -0.0718
  836CHOL    R1 7545   8.192   1.478   7.860  0.1254  0.0795 -0.1237
  836CHOL    R2 7546   8.360   1.485   7.641  0.2288 -0.0010 -0.0474
  836CHOL    R3 7547   8.386   1.219   7.693  0.0028 -0.0328 -0.0929
  836CHOL    R4 7548   8.380   1.237   7.400  0.3562  0.0561 -0.0958
  836CHOL    R5 7549   8.252   1.112   7.526  0.1316  0.0986 -0.2809
  836CHOL    C1 7550   8.416   0.844   7.310  0.2184  0.0596 -0.1666
  836CHOL    C2 7551   8.197   0.967   7.088 -0.0448  0.1106 -0.3028
  837PNCE   AM1 7552   9.753   1.733   4.521 -0.1916 -0.1439  0.0207
  837PNCE   AM2 7553   9.526   1.960   4.567  0.1307  0.1626 -0.1071
  837PNCE   T1A 7554   9.914   1.453   4.920  0.1501 -0.1553  0.0930
  837PNCE   C2A 7555  10.042   1.571   5.295  0.0409 -0.3144 -0.0436
  837PNCE   C3A 7556  10.188   1.824   5.676  0.0700  0.0708  0.0511
  837PNCE   C1B 7557   9.724   1.931   4.964 -0.2245  0.1394 -0.0411
  837PNCE   C2B 7558   9.958   2.109   5.303  0.0397 -0.0394  0.0139
  837PNCE   C3B 7559  10.032   2.335   5.683 -0.1752 -0.3218 -0.1251
  837PNCE   D4B 7560  10.190   2.274   6.084 -0.1534 -0.2896  0.0308
  837PNCE   C5B 7561  10.627   2.209   6.134  0.1677 -0.3562 -0.0795
  837PNCE   C6B 7562  10.963   2.405   5.922 -0.0205  0.0793 -0.3297
  838PNCE   AM1 7563  10.813  11.813   4.309  0.0592  0.1537 -0.1274
  838PNCE   AM2 7564  10.814  11.597   4.140 -0.0533 -0.1652 -0.1048
  838PNCE   T1A 7565  10.536  11.796   4.705  0.1076 -0.1914 -0.2608
  838PNCE   C2A 7566  10.292  11.936   5.008  0.2651 -0.0700  0.2089
  838PNCE   C3A 7567  10.003  12.042   5.358 -0.0117  0.1399  0.0433
  838PNCE   C1B 7568  10.551  11.335   4.369 -0.3625  0.3238 -0.0104
  838PNCE   C2B 7569  10.512  10.914   4.555 -0.1951 -0.1300 -0.1936
  838PNCE   C3B 7570  10.332  10.931   5.026 -0.0661  0.0237 -0.0368
  838PNCE   D4B 7571  10.427  10.996   5.537  0.2224  0.3276 -0.1742
  838PNCE   C5B 7572  10.462  10.771   5.816  0.3906 -0.2301 -0.1226
  838PNCE   C6B 7573  10.703  10.684   6.083  0.1060 -0.4646  0.1021
  839PNCE   AM1 7574  12.929  15.567   4.726  0.3168  0.1555  0.0937
  839PNCE   AM2 7575  12.990  15.888   4.642 -0.0370  0.1274 -0.2419
  839PNCE   T1A 7576  13.190  15.179   4.834 -0.2136 -0.3175 -0.0851
  839PNCE   C2A 7577  13.191  14.972   5.217  0.1776  0.1521  0.1298
  839PNCE   C3A 7578  12.961  15.100   5.669  0.1641  0.1141  0.2742
  839PNCE   C1B 7579  13.262  15.918   5.075  0.0932  0.0494 -0.0463
  839PNCE   C2B 7580  13.518  16.265   5.479  0.1371  0.3712 -0.0535
  839PNCE   C3B 7581  13.765  16.068   5.967 -0.1718 -0.0284 -0.1229
  839PNCE   D4B 7582  14.052  16.228   6.215  0.1214  0.2039 -0.0142
  839PNCE   C5B 7583  14.103  16.046   6.604 -0.1193 -0.2936  0.1614
  839PNCE   C6B 7584  13.949  15.714   6.933  0.0131  0.0025 -0.2732
  840XCA    COO 7585  12.648   7.038   3.594 -0.0168 -0.0982  0.1188
  840XCA     C1 7586  12.854   7.303   3.913 -0.4476 -0.3687 -0.1381
  840XCA     C2 7587  12.702   7.505   4.274  0.1060  0.2194  0.2259
  840XCA     C3 7588  12.877   7.704   4.606  0.0907  0.1648 -0.1863
  840XCA     C4 7589  12.826   8.096   4.959  0.1471  0.0083 -0.1625
  840XCA     C5 7590  12.504   8.170   5.333 -0.1135  0.2991  0.1906
  840XCA     C6 7591  12.379   8.201   5.761  0.1624 -0.2932 -0.1872
  841CHOL   ROH 7592   2.566   3.802   6.829  0.0680  0.1145 -0.0482
  841CHOL    R1 7593   2.297   3.888   6.848  0.1107  0.1950  0.2100
  841CHOL    R2 7594   2.226   4.134   6.951  0.3088  0.3690 -0.0679
  841CHOL    R3 7595   2.097   4.160   6.713 -0.0308  0.0260  0.0783
  841CHOL    R4 7596   2.038   4.408   6.858  0.4523  0.3791 -0.3293
  841CHOL    R5 7597   1.893   4.272   6.769  0.1723  0.3512  0.1683
  841CHOL    C1 7598   1.807   4.593   6.581  0.2168  0.0626 -0.3445
  841CHOL    C2 7599   1.755   4.948   6.742  0.3557 -0.0885 -0.0461
  842PNCE   AM1 7600   4.871  12.135   3.768  0.3287  0.2143 -0.4043
  842PNCE   AM2 7601   5.145  12.104   3.660 -0.2669 -0.0796  0.4972
  842PNCE   T1A 7602   4.958  12.255   4.236 -0.2325  0.0606 -0.1311
  842PNCE   C2A 7603   4.979  12.237   4.681 -0.1500  0.0137 -0.2071
  842PNCE   C3A 7604   4.813  12.010   5.004 -0.0027  0.0965 -0.0185
  842PNCE   C1B 7605   5.554  12.121   4.016  0.0445  0.0965 -0.1016
  842PNCE   C2B 7606   5.534  11.855   4.389 -0.0570  0.0452 -0.0164
  842PNCE   C3B 7607   5.374  11.956   4.693 -0.3231  0.1215 -0.4424
  842PNCE   D4B 7608   5.333  11.873   5.019 -0.2862 -0.0510  0.1443
  842PNCE   C5B 7609   5.087  11.721   5.417  0.1226  0.3459 -0.4115
  842PNCE   C6B 7610   4.843  11.794   5.726 -0.2335  0.1117 -0.0217
  843CHOL   ROH 7611  11.284   7.218   7.332 -0.2365 -0.1393 -0.0211
  843CHOL    R1 7612  11.265   7.183   7.051 -0.1516 -0.1745 -0.0226
  843CHOL    R2 7613  11.271   7.394   6.874 -0.1042 -0.1963 -0.0467
  843CHOL    R3 7614  11.473   7.252   6.761 -0.0660 -0.2044  0.0315
  843CHOL    R4 7615  11.373   7.423   6.545  0.0124 -0.2136 -0.0124
  843CHOL    R5 7616  11.397   7.207   6.539  0.0114 -0.2146  0.0069
  843CHOL    C1 7617  11.622   7.307   6.248  0.1153 -0.2320  0.0812
  843CHOL    C2 7618  11.824   7.391   5.839 -0.0411  0.0352 -0.0788
  844XCA    COO 7619   3.427  15.472   7.761  0.3222 -0.2186 -0.0037
  844XCA     C1 7620   3.430  15.509   7.280 -0.0914  0.0506 -0.2816
  844XCA     C2 7621   3.230  15.587   6.899  0.2658  0.0985  0.0781
  844XCA     C3 7622   3.054  15.328   6.595  0.3505 -0.0274  0.1953
  844XCA     C4 7623   2.902  14.941   6.659 -0.0597  0.0633 -0.0789
  844XCA     C5 7624   2.909  14.481   6.687 -0.0792 -0.4984 -0.0208
  844XCA     C6 7625   3.056  14.056   6.664 -0.1910  0.0343  0.4112
  845PNCE   AM1 7626   8.510   3.922   4.640 -0.0220 -0.0008 -0.1171
  845PNCE   AM2 7627   8.661   3.647   4.643  0.1920  0.1323 -0.0386
  845PNCE   T1A 7628   8.412   4.328   4.792  0.2863 -0.1691 -0.2152
  845PNCE   C2A 7629   8.354   4.722   4.889  0.0579  0.2598  0.0538
  845PNCE   C3A 7630   8.219   4.912   5.202  0.3216 -0.1431  0.0491
  845PNCE   C1B 7631   8.817   3.579   4.903  0.1351  0.1149 -0.2470
  845PNCE   C2B 7632   8.764   3.853   5.095  0.1931  0.0766  0.0364
  845PNCE   C3B 7633   8.507   4.230   5.266  0.3029  0.1945  0.0275
  845PNCE   D4B 7634   8.183   4.349   5.271 -0.2042 -0.1357 -0.1385
  845PNCE   C5B 7635   7.896   4.326   5.617  0.1982  0.0951  0.1497
  845PNCE   C6B 7636   7.690   4.061   6.014 -0.3407  0.0809  0.0142
  846CHOL   ROH 7637  11.566   6.376   7.204  0.1669 -0.1755 -0.1628
  846CHOL    R1 7638  11.446   6.384   6.947  0.0234 -0.0560 -0.0918
  846CHOL    R2 7639  11.359   6.157   6.816  0.1025 -0.0124 -0.2200
  846CHOL    R3 7640  11.125   6.294   6.802  0.0037 -0.1565  0.0129
  846CHOL    R4 7641  11.131   6.132   6.557  0.0386  0.1328 -0.1786
  846CHOL    R5 7642  11.102   6.348   6.570 -0.1054  0.0987  0.0820
  846CHOL    C1 7643  10.779   6.246   6.393 -0.0906  0.0824  0.0649
  846CHOL    C2 7644  10.505   6.432   6.163  0.0363  0.2485  0.2598
  847XCA    COO 7645  12.814   9.372   8.459  0.3037 -0.2720 -0.1585
  847XCA     C1 7646  12.882   9.477   7.946  0.1216  0.0160 -0.0061
  847XCA     C2 7647  12.673   9.463   7.547 -0.1378  0.1858 -0.2518
  847XCA     C3 7648  12.849   9.399   7.260 -0.2223 -0.0362 -0.4568
  847XCA     C4 7649  12.886   9.312   6.760 -0.1246  0.2298 -0.1633
  847XCA     C5 7650  12.678   9.264   6.371 -0.0684 -0.0410  0.1731
  847XCA     C6 7651  12.382   9.178   6.179 -0.4676 -0.2621  0.0911
  848CHOL   ROH 7652   1.805   8.339   5.610  0.0727 -0.2594  0.0497
  848CHOL    R1 7653   2.024   8.517   5.595 -0.0039 -0.1664  0.0386
  848CHOL    R2 7654   2.096   8.682   5.804 -0.0034 -0.2071  0.0702
  848CHOL    R3 7655   2.339   8.565   5.771  0.0332 -0.0975 -0.0465
  848CHOL    R4 7656   2.399   8.849   5.812 -0.0746 -0.0701 -0.0820
  848CHOL    R5 7657   2.466   8.725   5.646 -0.1003 -0.0429 -0.1118
  848CHOL    C1 7658   2.803   8.836   5.785 -0.0820  0.1121 -0.2799
  848CHOL    C2 7659   3.063   8.816   5.351  0.1484  0.1829 -0.2060
  849CHOL   ROH 7660  12.638   7.226   7.465 -0.0035 -0.0294  0.0474
  849CHOL    R1 7661  12.706   7.196   7.192  0.0753 -0.1643  0.0815
  849CHOL    R2 7662  12.644   6.969   7.048 -0.1148 -0.1293  0.1078
  849CHOL    R3 7663  12.527   7.148   6.879  0.1482 -0.0393  0.0198
  849CHOL    R4 7664  12.498   6.888   6.745 -0.3219 -0.0775  0.1934
  849CHOL    R5 7665  12.585   7.069   6.660 -0.0353 -0.2787  0.0567
  849CHOL    C1 7666  12.303   7.009   6.410 -0.1962  0.0377  0.1616
  849CHOL    C2 7667  11.957   6.981   6.114  0.4356  0.0755 -0.3348
  850CHOL   ROH 7668   7.770   3.836   7.881 -0.1977 -0.2576 -0.0580
  850CHOL    R1 7669   7.726   3.809   7.603 -0.1242 -0.1529 -0.0799
  850CHOL    R2 7670   7.537   3.957   7.467 -0.0615 -0.0739 -0.0815
  850CHOL    R3 7671   7.748   4.024   7.310 -0.0061 -0.0535  0.0018
  850CHOL    R4 7672   7.512   4.076   7.144  0.0632 -0.2921 -0.1714
  850CHOL    R5 7673   7.684   3.953   7.090  0.1650 -0.2284  0.0086
  850CHOL    C1 7674   7.696   4.209   6.808  0.1878 -0.3995 -0.1458
  850CHOL    C2 7675   7.742   4.438   6.546 -0.1259 -0.0188 -0.1892
  851PNCE   AM1 7676  15.749   4.136   4.080 -0.0825 -0.1821 -0.2046
  851PNCE   AM2 7677  16.016   4.208   3.949 -0.2752  0.1001 -0.0623
  851PNCE   T1A 7678  15.858   4.050   4.530 -0.0589 -0.1685 -0.2780
  851PNCE   C2A 7679  15.839   4.046   4.889  0.2151 -0.3878  0.3796
  851PNCE   C3A 7680  15.865   3.967   5.251 -0.2973  0.1932 -0.0577
  851PNCE   C1B 7681  16.240   4.236   4.229  0.0666 -0.0507 -0.0555
  851PNCE   C2B 7682  16.315   4.207   4.621  0.2842 -0.1404 -0.3783
  851PNCE   C3B 7683  16.269   4.253   5.076  0.1001  0.0557  0.0607
  851PNCE   D4B 7684  16.428   4.229   5.449  0.1035 -0.0840  0.2732
  851PNCE   C5B 7685  16.445   4.367   5.840 -0.1508 -0.1010 -0.0061
  851PNCE   C6B 7686  16.280   4.075   6.183  0.0617  0.1723 -0.0440
  852XCA    COO 7687  14.880   2.613   8.157 -0.0072 -0.0433 -0.0940
  852XCA     C1 7688  14.672   2.732   7.856  0.2470 -0.1783  0.0071
  852XCA     C2 7689  14.677   2.763   7.485  0.2544  0.1929  0.2104
  852XCA     C3 7690  14.725   2.747   7.052  0.2080 -0.2075  0.0470
  852XCA     C4 7691  14.485   2.722   6.641 -0.1367  0.1076  0.0617
  852XCA     C5 7692  14.400   2.554   6.240  0.2383 -0.0647 -0.1004
  852XCA     C6 7693  14.142   2.271   6.072  0.2555 -0.1631  0.0536
  853PNCE   AM1 7694   1.981  15.194   4.753 -0.0520 -0.0113 -0.3708
  853PNCE   AM2 7695   1.935  15.488   4.953 -0.0932  0.1976  0.1525
  853PNCE   T1A 7696   2.439  14.977   4.831  0.1234 -0.2166 -0.1539
  853PNCE   C2A 7697   2.863  14.792   4.715 -0.0321  0.0918  0.0540
  853PNCE   C3A 7698   2.966  15.085   4.426 -0.2004  0.0605  0.1884
  853PNCE   C1B 7699   1.939  15.323   5.431 -0.3207 -0.1510  0.1081
  853PNCE   C2B 7700   2.085  15.407   5.788  0.2723  0.2187 -0.1099
  853PNCE   C3B 7701   2.099  15.550   6.294  0.0170  0.0024  0.1266
  853PNCE   D4B 7702   2.203  15.525   6.667 -0.1606 -0.1345 -0.0860
  853PNCE   C5B 7703   2.523  15.285   6.794 -0.3807 -0.2198 -0.0231
  853PNCE   C6B 7704   2.737  15.074   7.179 -0.2371 -0.0018 -0.0168
  854CHOL   ROH 7705  10.716   5.360   7.463 -0.1059  0.1030 -0.1272
  854CHOL    R1 7706  10.702   5.115   7.322  0.0529  0.0718 -0.0885
  854CHOL    R2 7707  10.463   4.983   7.276  0.1647 -0.2131  0.1409
  854CHOL    R3 7708  10.545   4.994   7.016 -0.0830 -0.1443  0.0659
  854CHOL    R4 7709  10.387   4.748   7.034  0.0978 -0.2501  0.1986
  854CHOL    R5 7710  10.591   4.766   6.959  0.0157 -0.1104  0.0107
  854CHOL    C1 7711  10.419   4.621   6.651 -0.1737 -0.2072  0.1618
  854CHOL    C2 7712  10.497   4.496   6.302  0.3001  0.0638 -0.1997
  855PNCE   AM1 7713   9.193  15.712   5.275  0.0686 -0.2656 -0.0640
  855PNCE   AM2 7714   9.324  15.858   5.060  0.0404  0.0401  0.0437
  855PNCE   T1A 7715   9.180  15.794   5.716  0.3254  0.0061  0.0440
  855PNCE   C2A 7716   9.481  15.972   5.866 -0.2556 -0.0332 -0.2317
  855PNCE   C3A 7717   9.832  15.927   6.185  0.3379  0.0677 -0.1089
  855PNCE   C1B 7718   9.572  16.021   5.401  0.1758 -0.4422  0.1570
  855PNCE   C2B 7719   9.879  16.227   5.775 -0.3656  0.1314 -0.1562
  855PNCE   C3B 7720  10.372  16.244   5.917  0.1432 -0.0725 -0.1186
  855PNCE   D4B 7721  10.507  16.125   6.353 -0.1943 -0.2640  0.0370
  855PNCE   C5B 7722  10.547  16.219   6.724 -0.0063 -0.0011 -0.0962
  855PNCE   C6B 7723  10.412  16.630   7.101  0.2476 -0.0548  0.1882
  856CHOL   ROH 7724  15.818   4.268   7.520 -0.0002 -0.0514 -0.0550
  856CHOL    R1 7725  15.816   4.086   7.304 -0.0591 -0.0110 -0.0882
  856CHOL    R2 7726  15.614   4.081   7.115 -0.0505  0.1029 -0.1012
  856CHOL    R3 7727  15.820   4.107   6.940 -0.0306  0.0541 -0.0845
  856CHOL    R4 7728  15.611   3.970   6.788  0.0882 -0.2339  0.0117
  856CHOL    R5 7729  15.817   3.904   6.814  0.1240 -0.0778  0.1223
  856CHOL    C1 7730  15.802   3.929   6.433  0.1871 -0.4754  0.0928
  856CHOL    C2 7731  15.753   3.976   6.087  0.0750  0.1308 -0.3143
  857CHOL   ROH 7732  15.895   6.204   4.304  0.2065 -0.0040  0.1879
  857CHOL    R1 7733  15.889   6.071   4.554 -0.1755 -0.0660  0.1469
  857CHOL    R2 7734  16.029   6.162   4.774  0.1723 -0.5974  0.1467
  857CHOL    R3 7735  15.786   6.152   4.894  0.1606  0.1665  0.1942
  857CHOL    R4 7736  15.977   6.104   5.110  0.0358 -0.8519  0.0818
  857CHOL    R5 7737  15.807   5.978   5.057 -0.4554 -0.1373 -0.0448
  857CHOL    C1 7738  15.718   6.060   5.419 -0.0534 -0.2839  0.0882
  857CHOL    C2 7739  15.722   6.199   5.827 -0.0382 -0.0595 -0.1703
  858CHOL   ROH 7740   1.928   2.792   4.786 -0.0164 -0.0563 -0.1036
  858CHOL    R1 7741   1.815   2.876   5.032 -0.0046 -0.0125 -0.1130
  858CHOL    R2 7742   1.724   2.697   5.221 -0.0653  0.0228 -0.1087
  858CHOL    R3 7743   1.892   2.834   5.385 -0.0340 -0.0176 -0.1067
  858CHOL    R4 7744   1.699   2.709   5.566  0.0195 -0.0879 -0.0987
  858CHOL    R5 7745   1.750   2.920   5.558  0.0031 -0.0817 -0.0446
  858CHOL    C1 7746   1.842   2.845   5.920  0.0982 -0.1901 -0.0911
  858CHOL    C2 7747   1.750   2.935   6.247  0.2717  0.0155  0.1291
  859CHOL   ROH 7748   1.660   0.662   5.342 -0.0592  0.0426  0.2498
  859CHOL    R1 7749   1.385   0.692   5.401 -0.0709 -0.0153  0.2239
  859CHOL    R2 7750   1.283   0.663   5.656 -0.0660  0.1167  0.2416
  859CHOL    R3 7751   1.181   0.910   5.609 -0.1516  0.0502  0.0769
  859CHOL    R4 7752   1.035   0.812   5.844 -0.1913  0.1138  0.0787
  859CHOL    R5 7753   0.947   0.888   5.659 -0.1598 -0.0193  0.0088
  859CHOL    C1 7754   0.794   1.132   5.909 -0.3445  0.0497 -0.1710
  859CHOL    C2 7755   0.460   1.049   6.096  0.2359  0.0631 -0.4941
  860PNCE   AM1 7756   2.642   7.945   3.700 -0.0545  0.1543 -0.1869
  860PNCE   AM2 7757   2.542   8.312   3.641  0.0259  0.0795 -0.1308
  860PNCE   T1A 7758   3.001   8.229   3.863  0.0365  0.1662 -0.0232
  860PNCE   C2A 7759   3.241   8.468   4.036  0.0078  0.0592  0.1964
  860PNCE   C3A 7760   3.394   8.672   4.404  0.0523 -0.1509  0.0005
  860PNCE   C1B 7761   2.201   8.335   3.930  0.1718 -0.1682  0.1912
  860PNCE   C2B 7762   2.147   8.430   4.402 -0.1369  0.0986  0.2827
  860PNCE   C3B 7763   1.990   8.550   4.789 -0.0363 -0.0087  0.0695
  860PNCE   D4B 7764   2.062   8.659   5.106  0.2844  0.0162  0.1645
  860PNCE   C5B 7765   2.097   9.004   5.466 -0.0274 -0.1713 -0.3102
  860PNCE   C6B 7766   2.088   9.414   5.564  0.2869  0.0165 -0.0516
  861PNCE   AM1 7767   5.687   9.898   4.105 -0.1841  0.0555  0.0474
  861PNCE   AM2 7768   5.290   9.860   4.090 -0.0096 -0.2703 -0.2921
  861PNCE   T1A 7769   5.839   9.900   4.527 -0.1418  0.0121 -0.1923
  861PNCE   C2A 7770   5.969   9.784   4.821  0.3165  0.0285  0.2924
  861PNCE   C3A 7771   6.384   9.630   5.125 -0.0199  0.1921 -0.1308
  861PNCE   C1B 7772   5.320   9.739   4.536  0.0253  0.0276 -0.2333
  861PNCE   C2B 7773   4.917   9.722   4.937 -0.0026 -0.1613 -0.2512
  861PNCE   C3B 7774   4.772  10.090   5.165  0.0880  0.3167 -0.0843
  861PNCE   D4B 7775   4.826  10.235   5.538 -0.2780 -0.0702  0.0127
  861PNCE   C5B 7776   5.086  10.533   5.679 -0.1915  0.1118 -0.0328
  861PNCE   C6B 7777   5.109  11.002   5.812  0.0013 -0.5007 -0.1107
  862XCA    COO 7778  12.942   9.985   7.901  0.3173  0.1051  0.1942
  862XCA     C1 7779  12.960   9.857   7.440  0.3442 -0.0549  0.1001
  862XCA     C2 7780  12.726   9.866   6.979  0.1297  0.1290 -0.1543
  862XCA     C3 7781  12.889   9.810   6.588  0.0694  0.2064 -0.5096
  862XCA     C4 7782  12.793   9.771   6.200 -0.0521  0.0581  0.0201
  862XCA     C5 7783  12.909   9.978   5.864 -0.1890  0.0981 -0.2585
  862XCA     C6 7784  12.575  10.244   6.046  0.0931  0.0023  0.1639
  863CHOL   ROH 7785   9.813  16.327   8.524 -0.0013  0.0808 -0.1052
  863CHOL    R1 7786   9.833  16.203   8.271 -0.0391 -0.0534 -0.0420
  863CHOL    R2 7787   9.994  15.983   8.225  0.0250 -0.0213  0.0282
  863CHOL    R3 7788   9.763  15.874   8.131  0.0344 -0.1566  0.1642
  863CHOL    R4 7789   9.976  15.714   8.009  0.0606  0.0696 -0.0882
  863CHOL    R5 7790   9.813  15.815   7.904 -0.1040 -0.0072  0.0935
  863CHOL    C1 7791   9.749  15.455   7.794  0.0896 -0.0041 -0.0294
  863CHOL    C2 7792   9.667  15.356   7.381  0.0945  0.1693  0.3321
  864PNCE   AM1 7793   5.139   4.886   7.536 -0.0759  0.1683 -0.2409
  864PNCE   AM2 7794   4.856   5.056   7.670  0.0373  0.0567  0.1375
  864PNCE   T1A 7795   5.274   4.967   7.114  0.2597 -0.0101 -0.2261
  864PNCE   C2A 7796   5.395   4.955   6.703  0.1790 -0.0911 -0.0266
  864PNCE   C3A 7797   5.668   4.938   6.297  0.1482 -0.1117  0.0984
  864PNCE   C1B 7798   4.722   5.121   7.268 -0.2283 -0.2495 -0.0747
  864PNCE   C2B 7799   4.424   5.202   6.935 -0.1935 -0.4143  0.2447
  864PNCE   C3B 7800   4.227   5.332   6.528 -0.2168  0.2251  0.0633
  864PNCE   D4B 7801   4.076   5.395   6.064  0.0719  0.0375 -0.0883
  864PNCE   C5B 7802   4.027   5.673   5.730  0.3654  0.0224 -0.0938
  864PNCE   C6B 7803   4.326   5.730   5.377 -0.1483  0.2348  0.0579
  865PNCE   AM1 7804  10.096   3.055   4.630  0.2410 -0.0988 -0.0792
  865PNCE   AM2 7805  10.398   3.256   4.439  0.1034  0.1268 -0.0584
  865PNCE   T1A 7806  10.141   2.904   4.970  0.1597  0.0253  0.1710
  865PNCE   C2A 7807  10.287   2.866   5.369 -0.0246  0.1609  0.1486
  865PNCE   C3A 7808  10.017   2.922   5.821  0.2040 -0.1914  0.0657
  865PNCE   C1B 7809  10.523   3.566   4.730  0.0505  0.2746  0.0421
  865PNCE   C2B 7810  10.754   3.509   5.200 -0.0329 -0.0455  0.1144
  865PNCE   C3B 7811  10.953   3.703   5.546  0.3221 -0.0040 -0.3671
  865PNCE   D4B 7812  10.815   3.892   5.869  0.2019  0.2371  0.1700
  865PNCE   C5B 7813  10.905   4.316   5.824 -0.0226 -0.3745  0.0876
  865PNCE   C6B 7814  11.206   4.580   5.725 -0.0275 -0.0769 -0.1258
  866PNCE   AM1 7815   2.388  13.976   3.910  0.1848  0.1133  0.2292
  866PNCE   AM2 7816   2.250  13.658   3.964 -0.1948  0.3506 -0.1664
  866PNCE   T1A 7817   2.783  13.670   3.990  0.0851  0.1605 -0.0979
  866PNCE   C2A 7818   3.132  13.306   3.977  0.2873  0.0242 -0.2605
  866PNCE   C3A 7819   3.207  12.916   4.058 -0.2370 -0.2445  0.0082
  866PNCE   C1B 7820   2.525  13.698   4.392 -0.0786  0.1642  0.1681
  866PNCE   C2B 7821   2.892  13.678   4.584 -0.1575 -0.1726 -0.0002
  866PNCE   C3B 7822   3.142  13.434   4.724 -0.1876  0.0606  0.2994
  866PNCE   D4B 7823   3.582  13.626   4.870  0.3655 -0.3585 -0.0838
  866PNCE   C5B 7824   3.662  13.571   5.267  0.2766 -0.1682 -0.4926
  866PNCE   C6B 7825   3.776  13.204   5.534  0.0911 -0.1212 -0.2886
  867CHOL   ROH 7826  12.480   6.076   6.976 -0.0026 -0.2863  0.1411
  867CHOL    R1 7827  12.530   6.002   6.708  0.0610 -0.0763  0.0951
  867CHOL    R2 7828  12.363   6.074   6.500  0.0258 -0.0518  0.1329
  867CHOL    R3 7829  12.591   6.175   6.393 -0.0352  0.1712  0.2125
  867CHOL    R4 7830  12.402   6.164   6.169  0.0997 -0.1543  0.1137
  867CHOL    R5 7831  12.602   6.078   6.174  0.1998  0.0861  0.2618
  867CHOL    C1 7832  12.639   6.312   5.876  0.0850 -0.0045  0.1769
  867CHOL    C2 7833  12.762   6.728   5.645 -0.0010  0.0516 -0.2745
  868PNCE   AM1 7834  12.685   2.709   4.326 -0.0738 -0.1144 -0.0102
  868PNCE   AM2 7835  12.787   2.921   4.188 -0.0995 -0.0055  0.1285
  868PNCE   T1A 7836  12.511   3.003   4.659  0.0165 -0.0980 -0.0940
  868PNCE   C2A 7837  12.519   3.396   4.833  0.0842 -0.1009  0.1838
  868PNCE   C3A 7838  12.269   3.626   5.026  0.1151  0.1782 -0.4312
  868PNCE   C1B 7839  12.794   3.318   4.347 -0.1275 -0.1800  0.1071
  868PNCE   C2B 7840  12.789   3.723   4.553  0.0854  0.0741 -0.0640
  868PNCE   C3B 7841  13.098   4.042   4.817 -0.0967 -0.2272  0.1833
  868PNCE   D4B 7842  13.157   4.233   5.268  0.0606  0.3225  0.3087
  868PNCE   C5B 7843  13.016   3.958   5.504 -0.0453  0.1120 -0.2746
  868PNCE   C6B 7844  12.881   3.608   5.753  0.2741  0.2550 -0.1195
  869PNCE   AM1 7845   7.682   2.550   5.398 -0.3821  0.1722 -0.1560
  869PNCE   AM2 7846   7.674   2.931   5.334 -0.0199  0.2082 -0.0335
  869PNCE   T1A 7847   7.300   2.735   5.617  0.1220 -0.2986 -0.1235
  869PNCE   C2A 7848   7.193   3.057   5.904 -0.1705  0.2545  0.2297
  869PNCE   C3A 7849   6.853   3.286   5.936  0.0185  0.0997 -0.0435
  869PNCE   C1B 7850   7.914   2.889   5.710 -0.2166 -0.2632  0.2293
  869PNCE   C2B 7851   8.136   2.919   6.183  0.0406 -0.0786 -0.1460
  869PNCE   C3B 7852   8.307   2.788   6.539  0.1397 -0.1236 -0.1654
  869PNCE   D4B 7853   8.481   2.389   6.735 -0.1824  0.2368 -0.1329
  869PNCE   C5B 7854   8.305   2.107   7.043  0.0822 -0.0491 -0.1272
  869PNCE   C6B 7855   7.896   1.965   7.019 -0.3049 -0.0136  0.2928
  870XCA    COO 7856   9.364   8.242   7.959  0.1482 -0.1824  0.0973
  870XCA     C1 7857   9.501   8.460   7.567 -0.0642 -0.1544 -0.1337
  870XCA     C2 7858   9.658   8.782   7.221  0.1638  0.1543 -0.0629
  870XCA     C3 7859   9.584   9.025   6.916 -0.0207  0.1008 -0.1208
  870XCA     C4 7860   9.702   9.210   6.534 -0.0878 -0.0914  0.1694
  870XCA     C5 7861   9.627   9.398   6.220 -0.3001 -0.1332 -0.0327
  870XCA     C6 7862   9.547   9.790   5.995 -0.1892 -0.2755  0.0448
  871CHOL   ROH 7863   0.791  14.200   8.449  0.0310 -0.0023 -0.0118
  871CHOL    R1 7864   0.585  14.061   8.316 -0.0735  0.0815  0.0625
  871CHOL    R2 7865   0.351  14.183   8.234  0.0203  0.2130 -0.0075
  871CHOL    R3 7866   0.419  14.079   7.992 -0.0560  0.0277  0.0507
  871CHOL    R4 7867   0.127  14.064   8.000 -0.0778  0.4063 -0.0117
  871CHOL    R5 7868   0.264  13.900   7.959 -0.2778  0.2131  0.0870
  871CHOL    C1 7869   0.059  13.896   7.637 -0.2066  0.3449  0.0399
  871CHOL    C2 7870  -0.159  13.756   7.392 -0.1770  0.0120  0.0453
  872CHOL   ROH 7871   8.373   0.960   5.011  0.1789 -0.0881  0.1264
  872CHOL    R1 7872   8.509   0.881   5.246  0.1168 -0.0879  0.1624
  872CHOL    R2 7873   8.730   1.015   5.343  0.0256 -0.0223  0.2816
  872CHOL    R3 7874   8.583   1.026   5.571 -0.0698 -0.1325  0.2251
  872CHOL    R4 7875   8.862   1.037   5.662 -0.1154  0.2758  0.3195
  872CHOL    R5 7876   8.709   0.897   5.729  0.0477  0.0956  0.3185
  872CHOL    C1 7877   8.801   1.060   6.062 -0.2879  0.3461  0.2893
  872CHOL    C2 7878   8.983   1.310   6.241  0.0527 -0.0678  0.0853
  873XCA    COO 7879   9.594  12.855   4.764 -0.0161  0.2059 -0.0992
  873XCA     C1 7880   9.789  12.705   5.257 -0.1731  0.0193 -0.1868
  873XCA     C2 7881   9.917  12.589   5.704 -0.1192 -0.0303  0.0819
  873XCA     C3 7882  10.223  12.868   5.954  0.3036 -0.0346  0.1090
  873XCA     C4 7883  10.616  12.831   6.203 -0.1408 -0.2390 -0.4149
  873XCA     C5 7884  10.849  12.994   6.583  0.3168  0.0231  0.0765
  873XCA     C6 7885  10.913  13.394   6.570  0.2515 -0.2171  0.0015
  874CHOL   ROH 7886  11.563  10.801   5.717 -0.0427 -0.1321 -0.3939
  874CHOL    R1 7887  11.486  10.551   5.608  0.0129 -0.2913 -0.0720
  874CHOL    R2 7888  11.559  10.310   5.722 -0.1736 -0.1245  0.3981
  874CHOL    R3 7889  11.291  10.264   5.716 -0.1780 -0.0655  0.1814
  874CHOL    R4 7890  11.405  10.023   5.837 -0.3328 -0.0758  0.3083
  874CHOL    R5 7891  11.272  10.031   5.664 -0.1869 -0.0682  0.1960
  874CHOL    C1 7892  11.065   9.811   5.898 -0.4303  0.0075  0.0515
  874CHOL    C2 7893  11.052   9.541   6.216  0.0567  0.0546  0.1886
  875PNCE   AM1 7894   1.179  12.872   4.528  0.2152  0.1232 -0.2975
  875PNCE   AM2 7895   1.154  13.145   4.618  0.1504  0.1834 -0.0275
  875PNCE   T1A 7896   1.188  12.510   4.694  0.0683 -0.1629 -0.0841
  875PNCE   C2A 7897   1.435  12.414   5.045  0.4055  0.1386 -0.1884
  875PNCE   C3A 7898   1.453  12.334   5.419  0.0573 -0.1143  0.0418
  875PNCE   C1B 7899   1.378  13.174   4.988  0.2566 -0.2886 -0.0382
  875PNCE   C2B 7900   1.656  13.429   5.357  0.1500  0.0130  0.0178
  875PNCE   C3B 7901   1.889  13.445   5.760  0.0484  0.1943  0.0158
  875PNCE   D4B 7902   1.867  13.334   6.246 -0.4221 -0.0341  0.0637
  875PNCE   C5B 7903   1.878  13.321   6.657 -0.2489 -0.2033  0.4035
  875PNCE   C6B 7904   2.072  13.346   6.967  0.0938 -0.2119  0.3547
  876CHOL   ROH 7905   9.933  13.608   7.771 -0.1447  0.0529 -0.5128
  876CHOL    R1 7906  10.076  13.841   7.845 -0.0935 -0.0572 -0.2613
  876CHOL    R2 7907  10.252  13.967   7.674  0.0321  0.0144 -0.0794
  876CHOL    R3 7908  10.098  14.185   7.727  0.0883  0.0284  0.0234
  876CHOL    R4 7909  10.339  14.293   7.599  0.0019  0.0038 -0.1569
  876CHOL    R5 7910  10.255  14.354   7.791  0.1469  0.0186 -0.0987
  876CHOL    C1 7911  10.245  14.688   7.606  0.0367  0.0121 -0.1053
  876CHOL    C2 7912  10.102  15.094   7.666 -0.0871 -0.0550 -0.1407
  877CHOL   ROH 7913  12.782   4.736   5.526 -0.0696 -0.0208 -0.0041
  877CHOL    R1 7914  12.727   4.971   5.674 -0.0019 -0.0842  0.1214
  877CHOL    R2 7915  12.729   4.976   5.950  0.1448 -0.1974  0.1229
  877CHOL    R3 7916  12.904   5.181   5.913  0.1150 -0.1734  0.1128
  877CHOL    R4 7917  12.767   5.245   6.164  0.0029 -0.1078  0.0343
  877CHOL    R5 7918  12.787   5.375   5.989  0.0439 -0.1695 -0.0076
  877CHOL    C1 7919  12.954   5.594   6.253 -0.1067 -0.0327 -0.0262
  877CHOL    C2 7920  12.860   5.801   6.509  0.2063  0.4009  0.0529
  878CHOL   ROH 7921  12.290   2.860   7.694  0.0580  0.0593 -0.0234
  878CHOL    R1 7922  12.328   2.989   7.445  0.0162 -0.0056 -0.0629
  878CHOL    R2 7923  12.390   2.851   7.214 -0.0524 -0.0691 -0.0438
  878CHOL    R3 7924  12.172   2.980   7.116 -0.0589 -0.0666 -0.0255
  878CHOL    R4 7925  12.371   2.998   6.902 -0.0877 -0.0967 -0.0551
  878CHOL    R5 7926  12.262   3.164   6.992 -0.0668 -0.0827 -0.0551
  878CHOL    C1 7927  12.155   3.205   6.628 -0.1146 -0.1103 -0.0437
  878CHOL    C2 7928  12.362   3.359   6.280  0.1791 -0.2123 -0.0027
  879CHOL   ROH 7929   7.917   3.364   5.216  0.1616 -0.3325 -0.2192
  879CHOL    R1 7930   8.110   3.422   5.415  0.0277 -0.1755 -0.1342
  879CHOL    R2 7931   8.055   3.409   5.685 -0.1142 -0.1028 -0.1596
  879CHOL    R3 7932   8.271   3.244   5.688 -0.0430 -0.0066  0.0181
  879CHOL    R4 7933   8.235   3.325   5.968 -0.2818  0.0143 -0.0181
  879CHOL    R5 7934   8.418   3.342   5.850 -0.2031  0.0803  0.1118
  879CHOL    C1 7935   8.543   3.122   6.135 -0.3120  0.1728  0.2306
  879CHOL    C2 7936   8.644   3.319   6.376 -0.2652  0.0600  0.2559
  880CHOL   ROH 7937   2.604   8.137   4.172 -0.0559 -0.0931  0.0528
  880CHOL    R1 7938   2.615   8.404   4.265 -0.0157 -0.1078  0.0923
  880CHOL    R2 7939   2.725   8.472   4.509  0.0855 -0.1494  0.0578
  880CHOL    R3 7940   2.875   8.641   4.358  0.0234 -0.1252  0.0236
  880CHOL    R4 7941   2.892   8.749   4.630  0.0927 -0.1388  0.0243
  880CHOL    R5 7942   2.831   8.858   4.451  0.0287 -0.1349  0.0486
  880CHOL    C1 7943   3.129   9.070   4.559  0.0386 -0.1102 -0.0265
  880CHOL    C2 7944   3.101   9.214   5.004  0.0966 -0.1035 -0.0770
  881PNCE   AM1 7945   3.389   6.853   3.754 -0.0335 -0.0972 -0.0387
  881PNCE   AM2 7946   3.106   6.582   3.798  0.0953  0.0068  0.0203
  881PNCE   T1A 7947   3.329   7.112   4.037 -0.0521  0.2861  0.2426
  881PNCE   C2A 7948   3.267   7.251   4.491  0.4061 -0.1584 -0.1825
  881PNCE   C3A 7949   3.230   7.141   4.902  0.1238 -0.4300  0.0919
  881PNCE   C1B 7950   2.851   6.986   3.862 -0.1297 -0.1400 -0.2648
  881PNCE   C2B 7951   2.863   7.355   4.167  0.1584  0.2820  0.3315
  881PNCE   C3B 7952   3.060   7.703   4.212 -0.0070 -0.1612 -0.0896
  881PNCE   D4B 7953   3.066   8.171   4.438  0.1364  0.1194  0.1925
  881PNCE   C5B 7954   3.184   8.424   4.875  0.2057  0.2098 -0.1392
  881PNCE   C6B 7955   3.464   8.668   5.086 -0.2975  0.2079  0.2912
  882XCA    COO 7956   7.041  11.027   8.401  0.2612 -0.3049 -0.0406
  882XCA     C1 7957   7.159  10.959   7.862  0.0311  0.1400 -0.2811
  882XCA     C2 7958   7.311  11.052   7.469  0.0205 -0.0442 -0.1600
  882XCA     C3 7959   7.359  10.902   7.078 -0.1603  0.0609 -0.3833
  882XCA     C4 7960   7.355  10.864   6.701  0.0652  0.1863 -0.0601
  882XCA     C5 7961   7.270  10.553   6.410 -0.2092  0.0308 -0.2278
  882XCA     C6 7962   6.882  10.289   6.355  0.3646 -0.3996 -0.0623
  883XCA    COO 7963  13.895  10.052   8.070  0.1898 -0.0815  0.1980
  883XCA     C1 7964  13.713  10.080   7.632 -0.0671  0.0346  0.1847
  883XCA     C2 7965  13.866  10.331   7.235 -0.3552 -0.1220 -0.0947
  883XCA     C3 7966  14.048  10.572   6.897  0.1236  0.0825 -0.1578
  883XCA     C4 7967  14.236  10.711   6.527 -0.1350  0.1604  0.0875
  883XCA     C5 7968  14.200  10.768   6.064  0.1796  0.0344 -0.1880
  883XCA     C6 7969  14.313  11.059   5.898  0.4328 -0.1057  0.1325
  884PNCE   AM1 7970   1.347   2.465   4.257  0.2621 -0.0642  0.0723
  884PNCE   AM2 7971   1.359   2.767   4.496 -0.0629  0.0791  0.1244
  884PNCE   T1A 7972   1.004   2.232   4.553 -0.0046 -0.3643 -0.1333
  884PNCE   C2A 7973   1.027   2.189   5.002 -0.0599 -0.0028  0.0481
  884PNCE   C3A 7974   0.894   2.284   5.438 -0.2176 -0.0928  0.1780
  884PNCE   C1B 7975   1.313   2.615   4.904  0.0281  0.2318  0.0456
  884PNCE   C2B 7976   1.197   2.690   5.238  0.1114 -0.0295 -0.0665
  884PNCE   C3B 7977   1.037   2.815   5.717 -0.1127  0.2645  0.0975
  884PNCE   D4B 7978   0.697   2.599   5.878 -0.0761  0.0830 -0.3310
  884PNCE   C5B 7979   0.778   2.092   5.882 -0.1595 -0.3600 -0.1784
  884PNCE   C6B 7980   1.085   1.722   5.786  0.2141 -0.2352  0.3512
  885CHOL   ROH 7981  12.052   3.995   8.022 -0.0508  0.0071 -0.1595
  885CHOL    R1 7982  12.056   4.144   7.781 -0.1278  0.0579 -0.1292
  885CHOL    R2 7983  12.052   4.024   7.532  0.0503  0.1028 -0.1535
  885CHOL    R3 7984  11.838   4.187   7.493 -0.0933 -0.0913 -0.1774
  885CHOL    R4 7985  11.947   4.141   7.224  0.1287  0.2103 -0.1395
  885CHOL    R5 7986  11.907   4.334   7.317 -0.1307  0.1040 -0.0293
  885CHOL    C1 7987  11.686   4.362   7.008  0.0405  0.0913 -0.1538
  885CHOL    C2 7988  11.525   4.461   6.640 -0.0397 -0.0073 -0.1809
  886XCA    COO 7989   8.840  10.600   4.833  0.0977  0.2475  0.0540
  886XCA     C1 7990   8.633  10.349   5.099 -0.1824 -0.0871  0.0891
  886XCA     C2 7991   8.341  10.075   5.054  0.0807 -0.2221  0.4762
  886XCA     C3 7992   8.158   9.782   5.256 -0.0287  0.0546 -0.3332
  886XCA     C4 7993   7.895   9.583   5.596 -0.0312  0.2707  0.0096
  886XCA     C5 7994   7.557   9.385   5.809 -0.2283  0.2304  0.1877
  886XCA     C6 7995   7.126   9.567   5.884 -0.2020  0.0801 -0.0452
  887PNCE   AM1 7996   5.232   1.722   4.898 -0.1475  0.3079 -0.0695
  887PNCE   AM2 7997   5.197   2.037   4.841  0.1410 -0.3524  0.1085
  887PNCE   T1A 7998   5.308   1.642   5.274  0.2769 -0.1929  0.0647
  887PNCE   C2A 7999   5.398   1.906   5.723 -0.2584  0.0147  0.0284
  887PNCE   C3A 8000   5.477   2.177   6.113  0.1738 -0.1732 -0.1526
  887PNCE   C1B 8001   5.007   2.118   5.133  0.0636  0.1953 -0.1823
  887PNCE   C2B 8002   5.062   2.263   5.510 -0.1106  0.0610  0.0488
  887PNCE   C3B 8003   5.232   2.517   5.818 -0.0779 -0.0042 -0.3024
  887PNCE   D4B 8004   5.199   2.766   6.208  0.0217 -0.1112  0.1887
  887PNCE   C5B 8005   5.230   2.564   6.582  0.1763 -0.0593 -0.1621
  887PNCE   C6B 8006   5.449   2.397   6.891 -0.0211 -0.1686 -0.2276
  888PNCE   AM1 8007   6.007   1.511   4.945 -0.1170  0.3383  0.1152
  888PNCE   AM2 8008   5.740   1.718   5.009  0.0134  0.2239 -0.1186
  888PNCE   T1A 8009   6.211   1.632   5.423  0.0744  0.2417 -0.0605
  888PNCE   C2A 8010   6.336   1.537   5.761 -0.0020  0.0305  0.0117
  888PNCE   C3A 8011   6.124   1.238   5.847 -0.1732 -0.2334  0.1408
  888PNCE   C1B 8012   5.780   1.883   5.361  0.2244  0.0424 -0.1998
  888PNCE   C2B 8013   5.853   1.643   5.837  0.2411  0.1057  0.0155
  888PNCE   C3B 8014   5.956   1.804   6.264 -0.2479  0.0349 -0.1705
  888PNCE   D4B 8015   6.217   1.896   6.656  0.1821 -0.1160 -0.1817
  888PNCE   C5B 8016   6.369   1.459   6.763 -0.0704  0.3298  0.1657
  888PNCE   C6B 8017   6.248   0.998   6.764 -0.1699 -0.1524  0.0433
  889PNCE   AM1 8018  15.975  14.992   4.798 -0.3680 -0.0064 -0.0938
  889PNCE   AM2 8019  16.273  14.844   4.880  0.1417 -0.3633  0.3074
  889PNCE   T1A 8020  16.099  15.012   5.354 -0.3655 -0.0037  0.0296
  889PNCE   C2A 8021  16.233  15.048   5.715 -0.2675 -0.2320 -0.3865
  889PNCE   C3A 8022  16.377  15.063   6.090  0.2750 -0.1206 -0.1930
  889PNCE   C1B 8023  16.037  14.531   4.888 -0.2298 -0.0214  0.0662
  889PNCE   C2B 8024  16.073  14.179   5.052 -0.1910  0.0375 -0.2182
  889PNCE   C3B 8025  16.050  14.110   5.471  0.2372  0.0349  0.0174
  889PNCE   D4B 8026  15.938  14.252   5.945  0.0464  0.1812 -0.0141
  889PNCE   C5B 8027  16.158  14.181   6.460  0.0732  0.0126  0.0944
  889PNCE   C6B 8028  16.525  14.031   6.495  0.2182  0.2535  0.2307
  890CHOL   ROH 8029  15.499  13.194   7.777 -0.1343 -0.1226  0.2398
  890CHOL    R1 8030  15.763  13.273   7.712 -0.1774 -0.0534  0.1476
  890CHOL    R2 8031  15.877  13.505   7.810 -0.1101 -0.1617  0.3228
  890CHOL    R3 8032  16.073  13.335   7.892 -0.0554 -0.2529  0.0041
  890CHOL    R4 8033  16.192  13.602   7.913 -0.1326 -0.2556  0.4787
  890CHOL    R5 8034  16.275  13.431   7.806 -0.0887 -0.0386  0.1650
  890CHOL    C1 8035  16.560  13.499   8.050 -0.0937 -0.3957  0.2706
  890CHOL    C2 8036  16.963  13.577   8.144 -0.2551  0.2313  0.0779
  891PNCE   AM1 8037   7.954  13.815   4.789 -0.1716  0.1992 -0.2221
  891PNCE   AM2 8038   8.321  13.800   4.779 -0.1782 -0.0760  0.3829
  891PNCE   T1A 8039   7.769  13.684   5.247  0.1740  0.0434  0.1642
  891PNCE   C2A 8040   7.326  13.438   5.258 -0.1531 -0.0974  0.1231
  891PNCE   C3A 8041   7.235  13.176   5.624  0.2235 -0.1204 -0.3074
  891PNCE   C1B 8042   8.238  13.577   5.101 -0.2777  0.2610 -0.2775
  891PNCE   C2B 8043   8.165  13.643   5.589  0.0287  0.2116 -0.3632
  891PNCE   C3B 8044   8.005  13.670   6.063 -0.0328  0.2943  0.2245
  891PNCE   D4B 8045   7.627  13.610   6.201  0.2126  0.0767  0.2393
  891PNCE   C5B 8046   7.265  13.893   6.159 -0.1865  0.4360  0.0522
  891PNCE   C6B 8047   6.921  14.038   6.490 -0.0365 -0.0219  0.3816
  892PNCE   AM1 8048  14.435   7.510   3.674  0.0364 -0.3371  0.1578
  892PNCE   AM2 8049  14.196   7.334   3.833  0.0165 -0.0648  0.2118
  892PNCE   T1A 8050  14.532   7.727   3.994  0.1562 -0.0028 -0.1477
  892PNCE   C2A 8051  14.793   7.863   4.309 -0.0320  0.2541 -0.0153
  892PNCE   C3A 8052  15.067   8.137   4.604 -0.0843  0.1026 -0.0225
  892PNCE   C1B 8053  14.200   7.391   4.319 -0.1768 -0.0437 -0.0482
  892PNCE   C2B 8054  14.312   7.456   4.713  0.0654  0.2998 -0.1664
  892PNCE   C3B 8055  14.265   7.507   5.098  0.0883  0.0015 -0.0430
  892PNCE   D4B 8056  14.595   7.454   5.374 -0.1332  0.0845 -0.2372
  892PNCE   C5B 8057  14.715   7.687   5.665  0.0329  0.2572 -0.1018
  892PNCE   C6B 8058  15.010   8.065   5.926  0.0180 -0.0151 -0.1342
  893CHOL   ROH 8059   5.046   4.792   5.853  0.0352 -0.1021 -0.0165
  893CHOL    R1 8060   4.825   4.957   5.788  0.1142  0.0162  0.0134
  893CHOL    R2 8061   4.852   5.195   5.651  0.2043 -0.0814 -0.1387
  893CHOL    R3 8062   4.668   5.082   5.485  0.0317 -0.0482  0.0292
  893CHOL    R4 8063   4.722   5.346   5.368  0.2213 -0.1895 -0.2038
  893CHOL    R5 8064   4.526   5.264   5.420  0.1693  0.0281 -0.0560
  893CHOL    C1 8065   4.474   5.329   5.048  0.0689 -0.2220 -0.0851
  893CHOL    C2 8066   4.240   5.562   4.908  0.1846 -0.0230  0.3499
  894XCA    COO 8067   6.234   9.818   4.081 -0.4185  0.1161  0.0124
  894XCA     C1 8068   6.172   9.573   4.392  0.0156 -0.3380 -0.0803
  894XCA     C2 8069   6.255   9.288   4.770 -0.0644 -0.2467 -0.0892
  894XCA     C3 8070   6.086   9.186   5.186 -0.1720 -0.2947 -0.2892
  894XCA     C4 8071   5.750   9.186   5.228 -0.2352 -0.0529 -0.0299
  894XCA     C5 8072   5.483   9.005   5.605 -0.4086  0.0303  0.0977
  894XCA     C6 8073   5.442   8.691   5.963 -0.1318  0.3872 -0.3495
  895PNCE   AM1 8074   3.318   5.345   4.281  0.0540  0.0313  0.0774
  895PNCE   AM2 8075   2.939   5.301   4.298 -0.0598  0.0927  0.0290
  895PNCE   T1A 8076   3.784   5.494   4.352 -0.0268  0.0150 -0.3334
  895PNCE   C2A 8077   4.131   5.319   4.457  0.2310  0.1402  0.1236
  895PNCE   C3A 8078   4.594   5.276   4.502  0.0442 -0.0435  0.0697
  895PNCE   C1B 8079   2.811   5.447   4.670 -0.1949 -0.1651  0.2061
  895PNCE   C2B 8080   2.581   5.399   5.124 -0.1525  0.1861 -0.1513
  895PNCE   C3B 8081   2.695   5.214   5.556  0.0027 -0.0522  0.1180
  895PNCE   D4B 8082   2.867   4.890   5.863  0.3559 -0.0573  0.1607
  895PNCE   C5B 8083   2.787   4.876   6.332 -0.0719 -0.0241 -0.0822
  895PNCE   C6B 8084   2.540   5.121   6.640 -0.0120  0.0866 -0.0707
  896XCA    COO 8085   0.559  14.692   8.332 -0.0223  0.3009 -0.1591
  896XCA     C1 8086   0.714  14.456   8.025 -0.0848  0.0701 -0.0195
  896XCA     C2 8087   0.374  14.483   7.733  0.0955  0.3602  0.0272
  896XCA     C3 8088  -0.067  14.359   7.679  0.1519  0.1483 -0.3492
  896XCA     C4 8089  -0.430  14.670   7.504 -0.1109  0.3517  0.0065
  896XCA     C5 8090  -0.834  14.659   7.628  0.5738 -0.1047 -0.0185
  896XCA     C6 8091  -1.073  15.018   7.620 -0.3138 -0.2091 -0.3808
  897CHOL   ROH 8092   6.895   8.984   7.719 -0.0167  0.0548 -0.3853
  897CHOL    R1 8093   7.063   9.100   7.523  0.0334  0.1035 -0.3142
  897CHOL    R2 8094   7.146   8.962   7.299  0.1282  0.1430 -0.3034
  897CHOL    R3 8095   7.040   9.176   7.167  0.1433  0.1449 -0.3117
  897CHOL    R4 8096   7.295   9.124   7.032  0.1731  0.1678 -0.2632
  897CHOL    R5 8097   7.229   9.314   7.117  0.1457  0.1588 -0.2649
  897CHOL    C1 8098   7.283   9.419   6.754  0.2134  0.1844 -0.2480
  897CHOL    C2 8099   7.446   9.358   6.307  0.0489  0.0112  0.2690
  898CHOL   ROH 8100  12.274  10.605   7.881 -0.3495 -0.0370 -0.1558
  898CHOL    R1 8101  12.287  10.700   7.615 -0.2084 -0.0367 -0.1488
  898CHOL    R2 8102  12.516  10.812   7.508 -0.1912  0.0835  0.0130
  898CHOL    R3 8103  12.480  10.623   7.315  0.0488  0.0589 -0.0085
  898CHOL    R4 8104  12.631  10.837   7.182 -0.1860  0.2480  0.0269
  898CHOL    R5 8105  12.443  10.749   7.115 -0.0772  0.0353 -0.0007
  898CHOL    C1 8106  12.663  10.674   6.812  0.0431  0.3203  0.0158
  898CHOL    C2 8107  12.558  10.938   6.427  0.1492  0.1909  0.0594
  899CHOL   ROH 8108   9.122   2.078   8.011 -0.1103  0.1452 -0.0759
  899CHOL    R1 8109   9.254   1.996   7.775  0.0257  0.1912 -0.0167
  899CHOL    R2 8110   9.170   1.779   7.626  0.2502  0.0798  0.0189
  899CHOL    R3 8111   9.168   1.960   7.423  0.1555  0.0229 -0.0316
  899CHOL    R4 8112   9.181   1.699   7.290  0.1054 -0.0139  0.0365
  899CHOL    R5 8113   9.316   1.867   7.259  0.0858 -0.0185 -0.0706
  899CHOL    C1 8114   9.185   1.822   6.903 -0.0692 -0.1219 -0.0005
  899CHOL    C2 8115   9.053   1.689   6.561  0.2579  0.1525  0.0461
  900CHOL   ROH 8116   3.889   4.327   7.711 -0.0892 -0.0407  0.0160
  900CHOL    R1 8117   3.682   4.489   7.605 -0.1202  0.0131  0.1588
  900CHOL    R2 8118   3.594   4.466   7.345 -0.0778  0.2649  0.1222
  900CHOL    R3 8119   3.351   4.435   7.464 -0.0860  0.0704  0.0568
  900CHOL    R4 8120   3.290   4.511   7.187 -0.0736 -0.0949  0.0091
  900CHOL    R5 8121   3.216   4.609   7.368 -0.2267 -0.0992 -0.0508
  900CHOL    C1 8122   2.885   4.509   7.207 -0.0782 -0.4870 -0.1183
  900CHOL    C2 8123   2.585   4.405   7.146  0.0593  0.0445  0.1661
  901CHOL   ROH 8124  16.244  14.588   5.345  0.0182  0.0751  0.1356
  901CHOL    R1 8125  16.253  14.594   5.627  0.0753  0.0443  0.1342
  901CHOL    R2 8126  16.354  14.385   5.777  0.1323  0.0410  0.0906
  901CHOL    R3 8127  16.512  14.580   5.884  0.1290  0.0499  0.0803
  901CHOL    R4 8128  16.488  14.379   6.096  0.0318  0.1187  0.1354
  901CHOL    R5 8129  16.444  14.592   6.113  0.0587  0.1307  0.0558
  901CHOL    C1 8130  16.714  14.557   6.381 -0.0305  0.1726  0.1512
  901CHOL    C2 8131  16.601  14.439   6.806  0.3148 -0.0306  0.3949
  902PNCE   AM1 8132   3.220  13.776   3.638  0.0134  0.1056 -0.2950
  902PNCE   AM2 8133   3.272  13.785   3.887 -0.1147 -0.0522  0.3948
  902PNCE   T1A 8134   3.599  13.443   3.834 -0.1202 -0.2198  0.0389
  902PNCE   C2A 8135   3.597  13.255   4.263 -0.0832 -0.2928 -0.2448
  902PNCE   C3A 8136   3.829  13.160   4.612 -0.2136 -0.1610  0.0345
  902PNCE   C1B 8137   3.301  13.696   4.305  0.0175  0.2223 -0.2246
  902PNCE   C2B 8138   3.704  13.916   4.459  0.1402 -0.0632 -0.0476
  902PNCE   C3B 8139   4.091  13.760   4.594  0.1095  0.0955 -0.3541
  902PNCE   D4B 8140   4.416  13.584   4.541 -0.2626 -0.1355  0.4708
  902PNCE   C5B 8141   4.867  13.448   4.505  0.0384 -0.1266  0.1089
  902PNCE   C6B 8142   5.341  13.427   4.713 -0.0900 -0.0348  0.0496
  903CHOL   ROH 8143   3.429   0.800   7.712 -0.3013  0.1065 -0.1675
  903CHOL    R1 8144   3.492   0.777   7.437 -0.0529  0.1514 -0.1147
  903CHOL    R2 8145   3.431   0.552   7.289  0.1227  0.1568 -0.1954
  903CHOL    R3 8146   3.308   0.732   7.127  0.2311  0.1516 -0.2837
  903CHOL    R4 8147   3.429   0.537   6.944 -0.1303 -0.1711 -0.1805
  903CHOL    R5 8148   3.456   0.753   6.939  0.1303 -0.2074 -0.4051
  903CHOL    C1 8149   3.312   0.697   6.590 -0.1760 -0.3670 -0.2541
  903CHOL    C2 8150   3.250   0.825   6.235 -0.0484  0.0865 -0.1314
  904PNCE   AM1 8151   2.848   6.267   4.030  0.0370 -0.0272 -0.0946
  904PNCE   AM2 8152   3.153   6.209   4.224 -0.0597 -0.0947 -0.0134
  904PNCE   T1A 8153   2.725   6.298   4.476 -0.0910 -0.0151 -0.1259
  904PNCE   C2A 8154   2.587   6.453   4.768  0.3881  0.1849 -0.1540
  904PNCE   C3A 8155   2.281   6.515   5.163  0.0896 -0.0508 -0.0033
  904PNCE   C1B 8156   3.203   6.293   4.647 -0.1484 -0.2044  0.1206
  904PNCE   C2B 8157   3.039   6.270   4.940 -0.1088 -0.3005  0.0331
  904PNCE   C3B 8158   2.742   6.189   5.210 -0.0519 -0.1953 -0.1017
  904PNCE   D4B 8159   2.534   6.228   5.580  0.1221 -0.0508  0.2285
  904PNCE   C5B 8160   2.362   6.567   5.653  0.1138 -0.0309 -0.0838
  904PNCE   C6B 8161   1.936   6.615   5.524  0.1328  0.0557 -0.0615
  905CHOL   ROH 8162  16.287  13.574   5.286  0.1248 -0.1486 -0.0412
  905CHOL    R1 8163  16.155  13.443   5.500  0.0343  0.0548  0.0284
  905CHOL    R2 8164  16.241  13.201   5.601 -0.2347 -0.0369  0.0396
  905CHOL    R3 8165  16.241  13.337   5.837  0.0195  0.0053  0.0168
  905CHOL    R4 8166  16.307  13.061   5.910  0.0582  0.0100 -0.0012
  905CHOL    R5 8167  16.147  13.182   5.994  0.1583  0.0458  0.1388
  905CHOL    C1 8168  16.345  13.106   6.311  0.4688  0.0776 -0.0463
  905CHOL    C2 8169  16.519  13.181   6.618  0.0062  0.1538  0.2089
  906PNCE   AM1 8170   9.282   0.529   8.739  0.0766 -0.2331  0.3969
  906PNCE   AM2 8171   9.471   0.328   8.599  0.2687 -0.3078  0.0307
  906PNCE   T1A 8172   9.149   0.692   8.318  0.0727  0.1722 -0.1142
  906PNCE   C2A 8173   9.004   0.537   7.854 -0.0493 -0.1345  0.1618
  906PNCE   C3A 8174   8.964   0.502   7.381  0.0928 -0.2232 -0.1782
  906PNCE   C1B 8175   9.193   0.118   8.257 -0.0842 -0.0771 -0.3202
  906PNCE   C2B 8176   9.001  -0.006   7.936  0.1255 -0.4171 -0.0433
  906PNCE   C3B 8177   9.007  -0.018   7.475 -0.0785 -0.0615 -0.1366
  906PNCE   D4B 8178   8.982  -0.102   6.986  0.1266  0.1538 -0.0191
  906PNCE   C5B 8179   9.283  -0.058   6.785 -0.0567 -0.1767  0.1761
  906PNCE   C6B 8180   9.430   0.401   6.643  0.0044 -0.1087 -0.2487
  907PNCE   AM1 8181   8.919   2.418   8.300 -0.1084  0.1228 -0.1946
  907PNCE   AM2 8182   9.139   2.629   8.429  0.0050  0.0188  0.2661
  907PNCE   T1A 8183   8.704   2.728   8.002 -0.0835 -0.1050  0.0928
  907PNCE   C2A 8184   8.813   2.822   7.599 -0.0770  0.1731 -0.0159
  907PNCE   C3A 8185   9.295   2.838   7.607 -0.1567  0.0187 -0.0373
  907PNCE   C1B 8186   9.308   2.931   8.196  0.1026 -0.3602 -0.3295
  907PNCE   C2B 8187   9.715   2.886   7.951  0.1831 -0.0349  0.2682
  907PNCE   C3B 8188   9.945   3.090   7.614 -0.0676 -0.1256 -0.1595
  907PNCE   D4B 8189   9.996   3.478   7.298  0.0407 -0.0660  0.3728
  907PNCE   C5B 8190  10.180   3.838   7.382 -0.1095  0.2310 -0.3098
  907PNCE   C6B 8191  10.310   3.969   7.785 -0.3984 -0.1351  0.2595
  908PNCE   AM1 8192   2.514   5.629   4.207  0.0669 -0.4452 -0.1017
  908PNCE   AM2 8193   2.722   5.818   4.319  0.3042  0.0255  0.1675
  908PNCE   T1A 8194   2.257   5.492   4.588  0.0086  0.1018  0.0030
  908PNCE   C2A 8195   2.071   5.363   5.065 -0.1636  0.2899  0.0701
  908PNCE   C3A 8196   1.957   5.371   5.512  0.1337 -0.0147  0.2460
  908PNCE   C1B 8197   2.555   5.934   4.740 -0.4243  0.2442 -0.0292
  908PNCE   C2B 8198   2.280   5.881   5.061 -0.0018  0.1407 -0.0572
  908PNCE   C3B 8199   2.256   5.808   5.513  0.2681 -0.0038  0.1812
  908PNCE   D4B 8200   2.461   5.710   5.778  0.0620  0.2950 -0.2933
  908PNCE   C5B 8201   2.622   5.871   6.302  0.1925 -0.1400  0.0879
  908PNCE   C6B 8202   2.485   5.642   6.597  0.0907 -0.2139 -0.1432
  909PNCE   AM1 8203   1.584   8.268   4.767  0.0671 -0.0069 -0.0075
  909PNCE   AM2 8204   1.447   8.098   4.603 -0.0417  0.3614 -0.2178
  909PNCE   T1A 8205   1.558   8.190   5.204  0.3187  0.1708 -0.1322
  909PNCE   C2A 8206   1.484   7.948   5.607 -0.0947 -0.0202  0.1198
  909PNCE   C3A 8207   1.229   7.778   5.899  0.1183 -0.1400  0.2072
  909PNCE   C1B 8208   1.200   7.726   4.657 -0.0902 -0.2899 -0.0244
  909PNCE   C2B 8209   0.972   7.504   4.978  0.1225 -0.1141  0.0380
  909PNCE   C3B 8210   0.695   7.445   5.226 -0.0941  0.4129  0.1224
  909PNCE   D4B 8211   0.179   7.575   5.120  0.1840  0.3390 -0.1945
  909PNCE   C5B 8212  -0.030   7.796   4.759 -0.0812  0.0126 -0.0012
  909PNCE   C6B 8213  -0.244   8.030   4.432  0.0844 -0.3243  0.1939
  910XCA    COO 8214  14.448   5.275   4.507 -0.2138 -0.2563 -0.1502
  910XCA     C1 8215  14.762   5.004   4.672  0.1733 -0.0603 -0.0715
  910XCA     C2 8216  14.833   4.799   5.008  0.2003  0.3395 -0.0045
  910XCA     C3 8217  14.833   4.610   5.412 -0.1384  0.3388 -0.1524
  910XCA     C4 8218  14.785   4.458   5.843 -0.0315 -0.0143  0.2105
  910XCA     C5 8219  15.009   4.371   6.258  0.1957  0.0712 -0.2421
  910XCA     C6 8220  15.049   4.571   6.632  0.0591 -0.1784  0.1533
  911PNCE   AM1 8221  10.670   5.862   3.518  0.2074  0.0612 -0.1748
  911PNCE   AM2 8222  10.913   5.399   3.449  0.2968  0.2482 -0.2726
  911PNCE   T1A 8223  10.903   6.041   3.885  0.2947  0.1827  0.1692
  911PNCE   C2A 8224  11.180   6.402   4.000 -0.0885 -0.1647 -0.0570
  911PNCE   C3A 8225  11.597   6.472   4.005 -0.0079 -0.2512  0.3662
  911PNCE   C1B 8226  11.072   5.562   3.795 -0.0629  0.0276 -0.1598
  911PNCE   C2B 8227  10.899   5.576   4.226  0.0300 -0.2164  0.1456
  911PNCE   C3B 8228  10.715   5.963   4.436  0.0824  0.4049  0.2112
  911PNCE   D4B 8229  10.797   6.074   4.830 -0.0157 -0.1161  0.1206
  911PNCE   C5B 8230  11.021   5.863   5.039 -0.1188  0.0918 -0.2430
  911PNCE   C6B 8231  11.324   5.842   5.336  0.5292 -0.0036  0.0155
  912CHOL   ROH 8232  12.164   2.279   6.209  0.0162 -0.0063  0.1664
  912CHOL    R1 8233  12.444   2.292   6.249  0.0057 -0.0430  0.2513
  912CHOL    R2 8234  12.595   2.510   6.173  0.1001 -0.1797  0.0444
  912CHOL    R3 8235  12.674   2.505   6.433  0.0043  0.1073  0.0798
  912CHOL    R4 8236  12.918   2.567   6.282  0.0963 -0.2420  0.0856
  912CHOL    R5 8237  12.892   2.406   6.427 -0.0558 -0.0386  0.2859
  912CHOL    C1 8238  13.181   2.595   6.589  0.0054 -0.0090  0.1429
  912CHOL    C2 8239  13.448   2.818   6.840 -0.2222  0.0722 -0.1819
  913CHOL   ROH 8240   0.779   6.847   6.993 -0.0072 -0.1636 -0.1548
  913CHOL    R1 8241   0.661   6.901   6.742  0.1248 -0.0219 -0.1864
  913CHOL    R2 8242   0.797   6.868   6.504  0.1266 -0.2528 -0.1533
  913CHOL    R3 8243   0.583   6.713   6.440 -0.0894  0.0534 -0.1791
  913CHOL    R4 8244   0.689   6.803   6.182  0.2104 -0.2868 -0.1743
  913CHOL    R5 8245   0.484   6.822   6.252  0.2007  0.0930 -0.3092
  913CHOL    C1 8246   0.426   6.618   5.935  0.0563 -0.0195 -0.2106
  913CHOL    C2 8247   0.293   6.354   5.668  0.4673 -0.0257  0.0767
  914CHOL   ROH 8248  16.082   4.583   7.647 -0.0916  0.0966 -0.0870
  914CHOL    R1 8249  16.162   4.582   7.376 -0.0935 -0.0701 -0.0870
  914CHOL    R2 8250  16.237   4.352   7.243 -0.1774 -0.1643  0.0288
  914CHOL    R3 8251  16.046   4.431   7.066 -0.1480 -0.1831 -0.0106
  914CHOL    R4 8252  16.223   4.256   6.911  0.0057 -0.0193 -0.0212
  914CHOL    R5 8253  16.165   4.459   6.860 -0.0801 -0.0269  0.0494
  914CHOL    C1 8254  16.036   4.274   6.552  0.1387  0.0466 -0.0864
  914CHOL    C2 8255  15.961   4.467   6.261 -0.0634  0.0226 -0.1823
  915XCA    COO 8256  14.970   0.927   4.251 -0.1051 -0.1315 -0.0973
  915XCA     C1 8257  15.224   0.966   4.554  0.1800 -0.0106 -0.0883
  915XCA     C2 8258  15.031   0.853   4.913 -0.0211  0.0039  0.2672
  915XCA     C3 8259  14.773   0.761   5.291  0.0676 -0.1259 -0.0953
  915XCA     C4 8260  14.791   0.591   5.638  0.0435  0.0009  0.0798
  915XCA     C5 8261  14.723   0.279   5.995 -0.2507 -0.1790 -0.0641
  915XCA     C6 8262  14.909   0.332   6.317  0.2731 -0.0828 -0.0438
  916PNCE   AM1 8263  12.569  12.347   4.900 -0.0004  0.2346  0.0608
  916PNCE   AM2 8264  12.318  12.392   4.761  0.0679 -0.0747  0.1041
  916PNCE   T1A 8265  12.666  12.070   5.212 -0.2076  0.1589 -0.0384
  916PNCE   C2A 8266  12.962  12.143   5.507  0.3221  0.0201  0.1439
  916PNCE   C3A 8267  13.182  12.171   5.750 -0.0148  0.2958  0.0910
  916PNCE   C1B 8268  12.160  12.119   5.138 -0.0353 -0.0152 -0.2126
  916PNCE   C2B 8269  12.170  11.911   5.519  0.1121  0.0027  0.5890
  916PNCE   C3B 8270  12.257  11.686   5.818 -0.3096 -0.0068 -0.0167
  916PNCE   D4B 8271  11.996  11.384   5.971  0.0844 -0.0335  0.3633
  916PNCE   C5B 8272  12.062  11.103   6.211 -0.1031 -0.0038 -0.0138
  916PNCE   C6B 8273  12.146  10.962   6.730 -0.1796  0.2252  0.0480
  917CHOL   ROH 8274   6.277  14.332   4.155 -0.0755 -0.0322 -0.0766
  917CHOL    R1 8275   6.049  14.176   4.215 -0.0086 -0.1426 -0.1097
  917CHOL    R2 8276   6.066  13.926   4.331  0.0883 -0.0613  0.0524
  917CHOL    R3 8277   5.897  14.034   4.514 -0.0844 -0.0594 -0.1088
  917CHOL    R4 8278   5.920  13.753   4.592  0.4401  0.1149  0.3674
  917CHOL    R5 8279   5.735  13.862   4.555  0.2346 -0.2856  0.2055
  917CHOL    C1 8280   5.676  13.754   4.916  0.4828  0.2183  0.3991
  917CHOL    C2 8281   5.452  13.769   5.200  0.2016 -0.1487 -0.2026
  918CHOL   ROH 8282   1.177   7.666   7.424 -0.1087  0.3342  0.0903
  918CHOL    R1 8283   1.173   7.621   7.144 -0.0981  0.1090  0.1252
  918CHOL    R2 8284   1.096   7.816   6.964 -0.2349 -0.0837 -0.0254
  918CHOL    R3 8285   1.338   7.761   6.852 -0.2068 -0.0180  0.0029
  918CHOL    R4 8286   1.170   7.849   6.628 -0.2394 -0.1791 -0.0358
  918CHOL    R5 8287   1.284   7.664   6.640 -0.1562 -0.1233  0.0384
  918CHOL    C1 8288   1.439   7.817   6.327 -0.2155 -0.1726 -0.0151
  918CHOL    C2 8289   1.517   8.159   6.077  0.0949 -0.0708  0.0765
  919CHOL   ROH 8290  10.183   0.275   8.248 -0.0049 -0.0858  0.2260
  919CHOL    R1 8291  10.169   0.134   8.003 -0.1059  0.1059  0.1202
  919CHOL    R2 8292  10.237  -0.133   7.981  0.0574  0.1691 -0.1550
  919CHOL    R3 8293   9.988  -0.155   7.874 -0.0146  0.0893  0.0283
  919CHOL    R4 8294  10.154  -0.336   7.714 -0.0353  0.2842 -0.2136
  919CHOL    R5 8295  10.026  -0.176   7.639 -0.1874  0.2565 -0.0148
  919CHOL    C1 8296   9.872  -0.474   7.458 -0.1559  0.2761 -0.0754
  919CHOL    C2 8297  10.001  -0.605   7.113  0.1466 -0.2145  0.1536
  920CHOL   ROH 8298   0.212  12.481   6.554 -0.0829  0.0930 -0.1420
  920CHOL    R1 8299   0.438  12.312   6.577 -0.0196  0.1788 -0.1352
  920CHOL    R2 8300   0.682  12.403   6.667 -0.1019  0.2336  0.0326
  920CHOL    R3 8301   0.657  12.198   6.844 -0.0947  0.1182 -0.0997
  920CHOL    R4 8302   0.926  12.304   6.892 -0.1386  0.1655  0.0424
  920CHOL    R5 8303   0.874  12.097   6.850 -0.0675  0.1769 -0.0982
  920CHOL    C1 8304   1.044  12.054   7.189 -0.1532  0.0190 -0.0753
  920CHOL    C2 8305   1.429  12.103   7.428 -0.2600  0.0124 -0.2490
  921PNCE   AM1 8306  10.206   4.473   4.034  0.0381  0.0643  0.0506
  921PNCE   AM2 8307  10.174   4.254   4.262 -0.2329  0.2167  0.1269
  921PNCE   T1A 8308   9.869   4.757   4.229  0.1063  0.0680  0.1655
  921PNCE   C2A 8309   9.800   4.950   4.663  0.3747  0.0777  0.4727
  921PNCE   C3A 8310  10.053   5.005   5.094 -0.0298  0.1193 -0.0379
  921PNCE   C1B 8311  10.294   4.064   4.719  0.1426 -0.1217 -0.0472
  921PNCE   C2B 8312  10.401   3.889   5.088  0.1918 -0.1551 -0.0023
  921PNCE   C3B 8313  10.507   4.104   5.481 -0.2550  0.1861 -0.0416
  921PNCE   D4B 8314  10.394   4.326   5.837 -0.0083 -0.1041  0.1056
  921PNCE   C5B 8315  10.088   4.377   6.059  0.4253  0.2681  0.4843
  921PNCE   C6B 8316   9.781   4.213   6.408  0.0623 -0.0777 -0.2146
  922CHOL   ROH 8317   8.837   1.737   4.990  0.1403  0.0054 -0.0487
  922CHOL    R1 8318   8.871   1.591   5.231  0.1130  0.0883  0.0052
  922CHOL    R2 8319   8.998   1.346   5.239 -0.0498  0.0064  0.0759
  922CHOL    R3 8320   9.152   1.467   5.427  0.0885 -0.0146 -0.0240
  922CHOL    R4 8321   9.212   1.181   5.455  0.0911 -0.0199 -0.0832
  922CHOL    R5 8322   9.148   1.317   5.613  0.2089 -0.0261 -0.0303
  922CHOL    C1 8323   9.481   1.200   5.757  0.3028 -0.0551 -0.2697
  922CHOL    C2 8324   9.341   0.932   5.964  0.0920  0.1832 -0.0995
  923PNCE   AM1 8325   1.305   8.928   4.110  0.0778 -0.1622 -0.2379
  923PNCE   AM2 8326   1.514   8.603   4.322 -0.1942  0.0357  0.2371
  923PNCE   T1A 8327   1.609   9.255   4.152 -0.2592  0.0945 -0.1210
  923PNCE   C2A 8328   1.802   9.570   4.424 -0.2692  0.1551 -0.1624
  923PNCE   C3A 8329   1.510   9.765   4.686  0.1861  0.0854  0.2591
  923PNCE   C1B 8330   1.657   8.939   4.527 -0.0274 -0.2361 -0.1743
  923PNCE   C2B 8331   2.029   9.173   4.707 -0.0090 -0.2683  0.0598
  923PNCE   C3B 8332   2.288   9.197   5.038 -0.0298 -0.1119  0.1589
  923PNCE   D4B 8333   2.591   9.475   5.140  0.1418 -0.1983 -0.2269
  923PNCE   C5B 8334   2.531   9.653   5.548 -0.3331  0.0801 -0.1778
  923PNCE   C6B 8335   2.343   9.779   5.838  0.1389  0.0527  0.0842
  924PNCE   AM1 8336   6.815  15.505   4.592 -0.1251 -0.0634 -0.0976
  924PNCE   AM2 8337   6.578  15.689   4.461 -0.0764 -0.0586  0.2219
  924PNCE   T1A 8338   6.563  15.255   4.927  0.1146 -0.1406  0.1100
  924PNCE   C2A 8339   6.458  14.960   5.233 -0.2384 -0.1717  0.0174
  924PNCE   C3A 8340   6.592  14.844   5.602  0.0061  0.4425  0.1160
  924PNCE   C1B 8341   6.442  15.890   4.866 -0.2143  0.0861  0.1864
  924PNCE   C2B 8342   6.263  15.876   5.302 -0.0340  0.1147  0.3698
  924PNCE   C3B 8343   6.372  15.872   5.734 -0.0197  0.1853 -0.0458
  924PNCE   D4B 8344   6.671  15.835   5.998 -0.0711 -0.0339  0.0814
  924PNCE   C5B 8345   6.536  15.462   6.328  0.1234  0.2694  0.2024
  924PNCE   C6B 8346   6.308  15.142   6.504  0.0087 -0.0278  0.1180
  925CHOL   ROH 8347  13.853   1.561   4.376  0.0572  0.1746  0.0127
  925CHOL    R1 8348  13.670   1.516   4.587 -0.0277  0.2086 -0.0539
  925CHOL    R2 8349  13.662   1.279   4.729 -0.1075  0.2186 -0.0420
  925CHOL    R3 8350  13.691   1.443   4.944 -0.1716  0.2291 -0.0416
  925CHOL    R4 8351  13.500   1.238   5.032 -0.1402  0.1906 -0.0625
  925CHOL    R5 8352  13.471   1.454   5.040 -0.1864  0.1847 -0.0710
  925CHOL    C1 8353  13.433   1.369   5.410 -0.2184  0.1841 -0.0745
  925CHOL    C2 8354  13.098   1.482   5.612  0.0171 -0.2568  0.1014
  926CHOL   ROH 8355  12.785   6.729   7.459  0.1258  0.0705  0.0319
  926CHOL    R1 8356  12.831   6.568   7.231  0.1273  0.0634  0.0372
  926CHOL    R2 8357  12.628   6.483   7.064  0.1337  0.1037  0.0084
  926CHOL    R3 8358  12.781   6.599   6.871  0.1825  0.0752  0.0304
  926CHOL    R4 8359  12.556   6.478   6.726  0.1340  0.1938  0.0069
  926CHOL    R5 8360  12.768   6.446   6.687  0.1211  0.1137  0.0029
  926CHOL    C1 8361  12.658   6.584   6.348  0.1805  0.2197  0.0267
  926CHOL    C2 8362  12.468   6.705   6.060 -0.2611  0.0919  0.0185
  927PNCE   AM1 8363   8.533  16.180   5.373  0.2776  0.2986 -0.1988
  927PNCE   AM2 8364   8.841  16.094   5.249  0.2934 -0.1767  0.1999
  927PNCE   T1A 8365   8.583  16.403   5.722 -0.2683  0.3152  0.1956
  927PNCE   C2A 8366   8.590  16.484   6.150 -0.1324 -0.0445  0.0865
  927PNCE   C3A 8367   8.595  16.542   6.628 -0.2851 -0.1733 -0.0585
  927PNCE   C1B 8368   9.066  16.242   5.563  0.0678 -0.3193 -0.0477
  927PNCE   C2B 8369   9.131  16.368   5.964 -0.0538 -0.0785  0.1078
  927PNCE   C3B 8370   9.038  16.550   6.436 -0.3274  0.1124 -0.1509
  927PNCE   D4B 8371   8.958  16.874   6.835  0.0833 -0.0898  0.0439
  927PNCE   C5B 8372   9.216  17.163   6.984 -0.1604  0.0871 -0.0871
  927PNCE   C6B 8373   9.624  17.395   6.955 -0.1754 -0.0060 -0.2678
  928CHOL   ROH 8374  12.788   0.433   7.854 -0.1224  0.1062  0.0104
  928CHOL    R1 8375  12.747   0.467   7.576 -0.0806 -0.1220 -0.0234
  928CHOL    R2 8376  12.895   0.645   7.425 -0.3218  0.0375 -0.0731
  928CHOL    R3 8377  12.944   0.425   7.273  0.0995  0.0309  0.0714
  928CHOL    R4 8378  13.050   0.649   7.116 -0.7091  0.1821 -0.2666
  928CHOL    R5 8379  12.908   0.499   7.048 -0.3805 -0.2760  0.0463
  928CHOL    C1 8380  13.187   0.445   6.793 -0.5384  0.2600 -0.2438
  928CHOL    C2 8381  13.397   0.358   6.452 -0.3395  0.1793 -0.2204
  929CHOL   ROH 8382   0.643   3.599   6.867 -0.0474 -0.0297 -0.1050
  929CHOL    R1 8383   0.888   3.553   6.733  0.0103  0.0248 -0.0174
  929CHOL    R2 8384   1.112   3.710   6.775 -0.0048  0.0017  0.1511
  929CHOL    R3 8385   1.230   3.471   6.829 -0.0333 -0.0251  0.0965
  929CHOL    R4 8386   1.399   3.594   6.623 -0.0358 -0.0114  0.1025
  929CHOL    R5 8387   1.309   3.395   6.616 -0.0646  0.0021  0.0751
  929CHOL    C1 8388   1.678   3.302   6.585 -0.0807 -0.0443  0.0229
  929CHOL    C2 8389   2.090   3.416   6.531 -0.2410 -0.3354 -0.0477
  930CHOL   ROH 8390   3.052  11.762   7.392 -0.1623  0.0318  0.2521
  930CHOL    R1 8391   2.997  11.846   7.128 -0.0025  0.0954  0.2391
  930CHOL    R2 8392   2.743  11.839   7.019  0.0793  0.0303  0.0510
  930CHOL    R3 8393   2.793  12.102   6.969  0.0122  0.0654  0.1720
  930CHOL    R4 8394   2.572  12.032   6.789  0.0550  0.0825  0.1130
  930CHOL    R5 8395   2.762  12.124   6.733  0.0367  0.1602  0.1776
  930CHOL    C1 8396   2.519  12.391   6.608 -0.0219  0.1467  0.2628
  930CHOL    C2 8397   2.568  12.793   6.462 -0.1753  0.1170  0.1206
  931CHOL   ROH 8398   5.955   1.044   5.202  0.0303  0.0475  0.2026
  931CHOL    R1 8399   5.861   1.171   5.437 -0.0882 -0.0165  0.1903
  931CHOL    R2 8400   5.592   1.207   5.489 -0.1194 -0.1711  0.1385
  931CHOL    R3 8401   5.654   1.081   5.722 -0.0936 -0.1472  0.1448
  931CHOL    R4 8402   5.454   1.282   5.797 -0.0296 -0.0890  0.1588
  931CHOL    R5 8403   5.651   1.255   5.887 -0.0150 -0.1198  0.1173
  931CHOL    C1 8404   5.431   1.207   6.195  0.0468 -0.0188  0.1767
  931CHOL    C2 8405   5.376   1.601   6.178  0.2339  0.1301  0.1472
  932XCA    COO 8406  11.630   9.533   3.482 -0.0978 -0.0359  0.1781
  932XCA     C1 8407  11.884   9.721   3.775 -0.0617 -0.4870 -0.1537
  932XCA     C2 8408  12.006   9.697   4.190  0.0974 -0.0948 -0.0628
  932XCA     C3 8409  12.253   9.912   4.520 -0.1280  0.3539 -0.0577
  932XCA     C4 8410  12.214   9.896   4.994 -0.1549  0.0689  0.2982
  932XCA     C5 8411  12.132   9.854   5.394  0.1752 -0.0847  0.1149
  932XCA     C6 8412  11.869   9.840   5.801  0.2398  0.3253  0.0254
  933XCA    COO 8413   1.930  10.132   7.506 -0.1397  0.1601 -0.1950
  933XCA     C1 8414   1.788  10.580   7.311 -0.1134  0.3240 -0.1530
  933XCA     C2 8415   1.505  10.825   7.076  0.0384 -0.2360 -0.0397
  933XCA     C3 8416   1.365  11.058   6.707  0.2690 -0.0229  0.1337
  933XCA     C4 8417   1.210  11.298   6.371 -0.4080 -0.1096  0.0813
  933XCA     C5 8418   1.034  11.375   5.910  0.1814 -0.4133 -0.0230
  933XCA     C6 8419   1.048  11.499   5.405  0.1684  0.1363 -0.2402
  934CHOL   ROH 8420  11.497   0.217   8.413 -0.0728 -0.0638 -0.1113
  934CHOL    R1 8421  11.566   0.132   8.152 -0.0520  0.0443 -0.1421
  934CHOL    R2 8422  11.452   0.240   7.925  0.1673  0.3315 -0.1146
  934CHOL    R3 8423  11.711   0.283   7.854  0.2463  0.0949  0.0295
  934CHOL    R4 8424  11.583   0.183   7.610  0.2489  0.3846 -0.0906
  934CHOL    R5 8425  11.762   0.103   7.705  0.1197  0.1319 -0.0587
  934CHOL    C1 8426  11.902   0.190   7.360  0.3699  0.1935  0.0586
  934CHOL    C2 8427  11.837   0.159   7.018 -0.1231  0.2532  0.2035
  935PNCE   AM1 8428  12.232   0.318   3.743 -0.4686 -0.1968 -0.2573
  935PNCE   AM2 8429  12.474   0.123   3.844 -0.0318  0.1094  0.2489
  935PNCE   T1A 8430  12.156   0.645   4.104  0.0308  0.1072  0.0676
  935PNCE   C2A 8431  12.303   0.795   4.483  0.2761  0.0983  0.1620
  935PNCE   C3A 8432  12.314   0.830   4.933 -0.1980  0.1325  0.1082
  935PNCE   C1B 8433  12.533   0.335   4.272 -0.1483 -0.1877 -0.0540
  935PNCE   C2B 8434  12.948   0.427   4.375  0.2347  0.0093  0.1221
  935PNCE   C3B 8435  13.197   0.370   4.648 -0.3051 -0.0206  0.1616
  935PNCE   D4B 8436  13.357   0.123   4.936  0.2810  0.0005 -0.0436
  935PNCE   C5B 8437  13.682  -0.156   4.860 -0.0876 -0.0209 -0.0383
  935PNCE   C6B 8438  13.760  -0.592   4.652  0.0132  0.4792 -0.0167
  936CHOL   ROH 8439  15.356   3.911   4.329 -0.4002 -0.0802 -0.0058
  936CHOL    R1 8440  15.457   3.880   4.592 -0.1774 -0.1243 -0.0973
  936CHOL    R2 8441  15.347   4.009   4.810  0.1135 -0.0274 -0.0075
  936CHOL    R3 8442  15.333   3.757   4.911  0.0342 -0.0081  0.0306
  936CHOL    R4 8443  15.344   3.931   5.147  0.2241  0.0159  0.0036
  936CHOL    R5 8444  15.475   3.762   5.104  0.1221 -0.0536 -0.0336
  936CHOL    C1 8445  15.328   3.649   5.437  0.2151  0.0593  0.0456
  936CHOL    C2 8446  15.332   3.432   5.777  0.1691  0.1014  0.0728
  937PNCE   AM1 8447   2.230  12.461   4.214  0.0997 -0.0815  0.1614
  937PNCE   AM2 8448   2.509  12.358   4.006 -0.1167  0.0068  0.2481
  937PNCE   T1A 8449   2.538  12.498   4.602  0.0356 -0.1443  0.0694
  937PNCE   C2A 8450   2.699  12.262   5.043 -0.0532 -0.2204 -0.1387
  937PNCE   C3A 8451   2.516  12.305   5.367 -0.1513 -0.1416  0.3957
  937PNCE   C1B 8452   2.831  12.618   4.208 -0.1489  0.1001  0.0734
  937PNCE   C2B 8453   3.080  12.557   4.594  0.0643 -0.1404  0.2319
  937PNCE   C3B 8454   3.213  12.592   4.895  0.0662  0.0671 -0.0629
  937PNCE   D4B 8455   3.335  12.506   5.323  0.0709  0.0696  0.2891
  937PNCE   C5B 8456   3.059  12.169   5.430  0.0254 -0.4176 -0.1285
  937PNCE   C6B 8457   2.817  12.214   5.780 -0.2221 -0.1084 -0.3304
  938XCA    COO 8458  15.374  13.349   8.727 -0.2586 -0.1603  0.2459
  938XCA     C1 8459  15.137  13.040   8.434  0.0834  0.2256 -0.3380
  938XCA     C2 8460  15.177  13.015   8.002  0.3053 -0.2359 -0.1175
  938XCA     C3 8461  15.195  12.955   7.548  0.1544 -0.1880  0.1149
  938XCA     C4 8462  15.108  12.965   7.107 -0.0923  0.2844 -0.1202
  938XCA     C5 8463  15.307  12.957   6.730  0.1388  0.1607  0.0607
  938XCA     C6 8464  15.549  12.964   6.440 -0.2086 -0.2396 -0.1011
  939CHOL   ROH 8465   2.316  14.524   5.704  0.1451 -0.0065  0.0069
  939CHOL    R1 8466   2.451  14.406   5.923  0.1404 -0.0629 -0.0207
  939CHOL    R2 8467   2.417  14.141   5.993  0.1318 -0.0781 -0.0844
  939CHOL    R3 8468   2.688  14.134   5.972  0.1317 -0.0819 -0.0847
  939CHOL    R4 8469   2.620  13.900   6.135  0.1419  0.0114  0.0532
  939CHOL    R5 8470   2.762  14.057   6.187  0.1376  0.0448 -0.0412
  939CHOL    C1 8471   2.993  13.753   6.198  0.1477  0.0602  0.1332
  939CHOL    C2 8472   3.337  13.526   6.214 -0.0192  0.3245 -0.0630
  940CHOL   ROH 8473   8.520   9.276   6.963  0.1703 -0.1535  0.1030
  940CHOL    R1 8474   8.664   9.259   6.720  0.0143 -0.3123  0.0210
  940CHOL    R2 8475   8.562   9.137   6.494 -0.3044 -0.0776  0.0376
  940CHOL    R3 8476   8.620   9.376   6.378  0.0206 -0.1351  0.0806
  940CHOL    R4 8477   8.591   9.189   6.154 -0.1955 -0.0639  0.0489
  940CHOL    R5 8478   8.761   9.319   6.193 -0.0305 -0.2918  0.0894
  940CHOL    C1 8479   8.662   9.443   5.846  0.1728 -0.1108  0.0958
  940CHOL    C2 8480   8.423   9.321   5.597  0.2372  0.0157  0.0649
  941CHOL   ROH 8481  14.891   1.841   4.471  0.2555 -0.0279  0.1592
  941CHOL    R1 8482  14.781   1.967   4.699  0.2189  0.0216  0.1144
  941CHOL    R2 8483  14.703   1.826   4.924  0.0818  0.0574  0.0903
  941CHOL    R3 8484  14.869   2.001   5.051  0.1024 -0.0022  0.1464
  941CHOL    R4 8485  14.723   1.865   5.267  0.0095  0.0209  0.0987
  941CHOL    R5 8486  14.740   2.081   5.236  0.0806  0.0194  0.1218
  941CHOL    C1 8487  14.890   2.052   5.585 -0.0125 -0.0562  0.1564
  941CHOL    C2 8488  15.242   2.012   5.809  0.0018 -0.0612 -0.1093
  942PNCE   AM1 8489   2.146  10.927   4.069  0.2425 -0.0127  0.0939
  942PNCE   AM2 8490   2.146  10.654   3.826 -0.1709 -0.3443 -0.1527
  942PNCE   T1A 8491   2.137  10.653   4.414 -0.1065 -0.0782  0.0345
  942PNCE   C2A 8492   2.252  10.462   4.818 -0.1650 -0.0630 -0.0584
  942PNCE   C3A 8493   2.162  10.383   5.214 -0.1138  0.0776 -0.0831
  942PNCE   C1B 8494   2.406  10.433   4.012  0.0830  0.1657  0.2697
  942PNCE   C2B 8495   2.423  10.161   4.353 -0.0993  0.2385  0.0620
  942PNCE   C3B 8496   2.629  10.212   4.667 -0.0821 -0.0002  0.0991
  942PNCE   D4B 8497   2.739  10.286   5.091  0.0432  0.2447  0.1386
  942PNCE   C5B 8498   2.766  10.063   5.464  0.0388  0.2509  0.0970
  942PNCE   C6B 8499   2.866   9.794   5.824  0.5392 -0.0111 -0.0791
  943PNCE   AM1 8500  10.364  13.373   5.205  0.2468 -0.1497  0.3356
  943PNCE   AM2 8501  10.661  13.239   5.196 -0.0511 -0.0364 -0.2960
  943PNCE   T1A 8502  10.285  13.519   5.654 -0.0343 -0.1019  0.1359
  943PNCE   C2A 8503  10.166  13.419   6.101 -0.0609 -0.1684  0.1432
  943PNCE   C3A 8504  10.347  13.394   6.493 -0.0541  0.0767  0.1496
  943PNCE   C1B 8505  10.619  13.155   5.740 -0.0093 -0.1244  0.1321
  943PNCE   C2B 8506  10.705  13.479   6.138  0.1221  0.5204  0.1868
  943PNCE   C3B 8507  10.629  13.820   6.483 -0.1620  0.0037 -0.1941
  943PNCE   D4B 8508  10.831  14.224   6.752 -0.0978  0.0881  0.3357
  943PNCE   C5B 8509  10.850  14.433   6.419  0.0849 -0.0508  0.2907
  943PNCE   C6B 8510  10.721  14.440   6.095 -0.0944 -0.1784  0.0778
  944PNCE   AM1 8511   5.538   6.701   4.427 -0.2841  0.1006 -0.1929
  944PNCE   AM2 8512   5.780   6.445   4.366  0.1059 -0.3806 -0.1047
  944PNCE   T1A 8513   5.349   6.893   4.714  0.2219  0.0262  0.0882
  944PNCE   C2A 8514   5.164   6.989   5.147  0.2370  0.0567 -0.1141
  944PNCE   C3A 8515   5.103   6.916   5.567  0.1405 -0.0229  0.1115
  944PNCE   C1B 8516   5.749   6.547   4.898  0.0896 -0.1956  0.2057
  944PNCE   C2B 8517   5.683   6.883   5.155 -0.0253  0.2310 -0.1797
  944PNCE   C3B 8518   5.753   7.106   5.494 -0.1320  0.1178  0.1471
  944PNCE   D4B 8519   5.989   7.351   5.683  0.0314 -0.1634 -0.0799
  944PNCE   C5B 8520   5.837   7.674   5.933 -0.4243  0.0427 -0.0166
  944PNCE   C6B 8521   5.819   8.037   5.976 -0.0410 -0.0511 -0.1602
  945CHOL   ROH 8522  12.018   2.775   4.851 -0.2489 -0.0239  0.1079
  945CHOL    R1 8523  12.125   2.884   5.090 -0.2146  0.0764  0.0467
  945CHOL    R2 8524  12.391   2.957   5.113 -0.1904  0.0006  0.0074
  945CHOL    R3 8525  12.284   3.196   5.190 -0.1110  0.0807 -0.1300
  945CHOL    R4 8526  12.570   3.218   5.253 -0.1516 -0.0821  0.1121
  945CHOL    R5 8527  12.404   3.252   5.390 -0.2489  0.0460 -0.0381
  945CHOL    C1 8528  12.574   3.593   5.407 -0.0544 -0.0553  0.0438
  945CHOL    C2 8529  12.725   3.812   5.098  0.1816  0.1366  0.0190
  946CHOL   ROH 8530  15.862   9.246   7.362  0.1790 -0.0269  0.1709
  946CHOL    R1 8531  15.885   9.321   7.090 -0.0896  0.2809  0.2315
  946CHOL    R2 8532  15.936   9.580   7.011  0.3381  0.2760  0.4917
  946CHOL    R3 8533  16.142   9.464   6.876 -0.1197  0.0138  0.0165
  946CHOL    R4 8534  16.125   9.736   6.767  0.4387  0.2718  0.5667
  946CHOL    R5 8535  16.122   9.550   6.653 -0.1726  0.4973  0.2055
  946CHOL    C1 8536  16.428   9.718   6.498  0.0679  0.0239  0.1646
  946CHOL    C2 8537  16.778   9.957   6.264  0.2822 -0.0218  0.1155
  947XCA    COO 8538   9.627   6.457   4.161  0.0208  0.0816  0.0153
  947XCA     C1 8539   9.492   6.288   4.551 -0.1103  0.2350 -0.0057
  947XCA     C2 8540   9.350   6.242   4.870  0.1665  0.2343 -0.1953
  947XCA     C3 8541   9.475   5.955   5.122  0.1503 -0.2852  0.1158
  947XCA     C4 8542   9.326   5.758   5.379  0.1521  0.4229 -0.0709
  947XCA     C5 8543   9.179   5.882   5.797  0.0173 -0.1701 -0.1388
  947XCA     C6 8544   9.338   5.924   6.267 -0.1096 -0.0793 -0.2903
  948PNCE   AM1 8545  11.328  15.178   4.759  0.1671 -0.1414  0.2326
  948PNCE   AM2 8546  11.394  14.795   4.828  0.2580 -0.1574  0.1732
  948PNCE   T1A 8547  11.583  15.083   5.113  0.1147 -0.1235 -0.0739
  948PNCE   C2A 8548  11.941  15.058   5.453 -0.2287 -0.1418  0.1879
  948PNCE   C3A 8549  12.096  15.090   5.854  0.0653 -0.0146 -0.2598
  948PNCE   C1B 8550  11.129  14.974   5.236 -0.0489 -0.0891  0.1791
  948PNCE   C2B 8551  11.320  15.151   5.574 -0.4071  0.0027 -0.1263
  948PNCE   C3B 8552  11.646  15.169   5.944 -0.0190 -0.0335 -0.0824
  948PNCE   D4B 8553  11.895  15.396   6.233  0.0959  0.0978  0.0613
  948PNCE   C5B 8554  12.305  15.189   6.406 -0.1536  0.2658 -0.0311
  948PNCE   C6B 8555  12.694  15.247   6.078 -0.1671 -0.1045  0.2127
  949XCA    COO 8556   1.678  14.014   8.175 -0.0543 -0.2251 -0.2349
  949XCA     C1 8557   1.816  14.301   7.835  0.1076 -0.2481 -0.0591
  949XCA     C2 8558   1.672  14.154   7.533 -0.0012 -0.1372  0.4852
  949XCA     C3 8559   1.659  14.259   7.088  0.1286 -0.0666 -0.0696
  949XCA     C4 8560   1.765  14.654   6.984  0.0610  0.0676  0.2065
  949XCA     C5 8561   1.846  14.809   6.697 -0.0532  0.2289  0.3186
  949XCA     C6 8562   1.992  15.075   6.278 -0.2268 -0.1351 -0.0405
  950CHOL   ROH 8563   1.362   4.046   4.847  0.0132  0.2480  0.2489
  950CHOL    R1 8564   1.248   3.892   5.056  0.0598  0.0831  0.1523
  950CHOL    R2 8565   1.010   3.756   5.027  0.0811  0.0610  0.0805
  950CHOL    R3 8566   1.158   3.543   5.108  0.1260  0.0308 -0.0820
  950CHOL    R4 8567   0.880   3.458   5.146  0.1453 -0.0197 -0.0520
  950CHOL    R5 8568   1.039   3.455   5.296  0.1878 -0.0881 -0.0982
  950CHOL    C1 8569   0.944   3.085   5.291  0.2249 -0.0950 -0.2813
  950CHOL    C2 8570   0.667   2.841   5.374  0.1577  0.2816  0.0212
  951CHOL   ROH 8571   1.284  12.522   7.289  0.0110 -0.2361 -0.2468
  951CHOL    R1 8572   1.010  12.475   7.239 -0.0521 -0.0625 -0.0634
  951CHOL    R2 8573   0.809  12.610   7.372  0.1222  0.0538  0.0809
  951CHOL    R3 8574   0.726  12.670   7.121 -0.0114  0.1222  0.1418
  951CHOL    R4 8575   0.480  12.659   7.280  0.0524 -0.1478  0.2220
  951CHOL    R5 8576   0.520  12.549   7.096  0.0712 -0.0215  0.1509
  951CHOL    C1 8577   0.209  12.744   6.991 -0.1138 -0.2014  0.3618
  951CHOL    C2 8578  -0.063  12.584   7.072 -0.2823 -0.1277  0.2884
  952XCA    COO 8579   0.135   1.680   8.703 -0.0831  0.1938  0.1877
  952XCA     C1 8580   0.215   1.967   8.400 -0.0187 -0.0562  0.0071
  952XCA     C2 8581   0.435   2.215   8.052 -0.2744  0.1125 -0.1026
  952XCA     C3 8582   0.560   1.972   7.782 -0.2498 -0.2986  0.4215
  952XCA     C4 8583   0.853   2.019   7.509 -0.1890 -0.1755  0.0036
  952XCA     C5 8584   0.814   2.342   7.124  0.0864 -0.1387 -0.0914
  952XCA     C6 8585   1.061   2.624   6.878  0.1508  0.1564  0.0889
  953CHOL   ROH 8586  10.546   4.759   4.258 -0.0517 -0.0206  0.0954
  953CHOL    R1 8587  10.343   4.658   4.427 -0.0868  0.0412  0.0901
  953CHOL    R2 8588  10.395   4.485   4.636 -0.1692 -0.1230 -0.0260
  953CHOL    R3 8589  10.263   4.672   4.782  0.0183 -0.1042  0.1196
  953CHOL    R4 8590  10.327   4.460   4.974 -0.1297 -0.2842 -0.0303
  953CHOL    R5 8591  10.130   4.545   4.936 -0.0639 -0.0894  0.0606
  953CHOL    C1 8592  10.164   4.621   5.308  0.0694 -0.3598  0.1038
  953CHOL    C2 8593  10.002   4.656   5.602  0.0382 -0.0562 -0.1666
  954PNCE   AM1 8594   2.611   9.055   3.594 -0.0391  0.2531  0.2736
  954PNCE   AM2 8595   2.934   9.270   3.669 -0.0395 -0.1716  0.0733
  954PNCE   T1A 8596   2.564   9.003   4.020 -0.1211 -0.0422 -0.0757
  954PNCE   C2A 8597   2.350   8.900   4.315  0.0081  0.0493 -0.0223
  954PNCE   C3A 8598   2.405   8.857   4.648 -0.0459 -0.2961 -0.0114
  954PNCE   C1B 8599   3.224   9.476   4.130  0.0451  0.0049 -0.2282
  954PNCE   C2B 8600   3.371   9.516   4.595 -0.0106  0.1171  0.1600
  954PNCE   C3B 8601   3.497   9.494   5.082  0.0065  0.2826 -0.1004
  954PNCE   D4B 8602   3.485   9.270   5.510  0.0498  0.2319 -0.0750
  954PNCE   C5B 8603   3.359   8.882   5.726  0.0240  0.0938 -0.0103
  954PNCE   C6B 8604   3.365   8.469   5.882  0.3868  0.1246  0.0672
  955XCA    COO 8605   2.572   4.939   7.920  0.0510  0.1671  0.0590
  955XCA     C1 8606   2.359   4.771   7.625 -0.3553  0.2601 -0.3251
  955XCA     C2 8607   2.053   4.646   7.334 -0.3125 -0.1307 -0.1066
  955XCA     C3 8608   1.708   4.506   7.210 -0.0941 -0.2145  0.2783
  955XCA     C4 8609   1.510   4.522   6.893 -0.3421 -0.2980  0.0668
  955XCA     C5 8610   1.379   4.741   6.446 -0.1151 -0.3045 -0.1627
  955XCA     C6 8611   1.012   4.703   6.155 -0.1463 -0.0132  0.2413
  956PNCE   AM1 8612   8.931  14.545   4.811  0.0117  0.4331 -0.1749
  956PNCE   AM2 8613   8.566  14.744   4.994  0.0505  0.2227  0.1303
  956PNCE   T1A 8614   8.975  14.481   5.157  0.0620  0.1531 -0.1565
  956PNCE   C2A 8615   8.807  14.429   5.666  0.1950 -0.1734  0.2207
  956PNCE   C3A 8616   8.796  14.311   6.209 -0.0768 -0.0160 -0.1232
  956PNCE   C1B 8617   8.450  14.948   5.409 -0.2650  0.0109  0.0645
  956PNCE   C2B 8618   8.223  14.969   5.865 -0.0083  0.1591  0.1803
  956PNCE   C3B 8619   8.000  14.964   6.176  0.0944 -0.1324 -0.3363
  956PNCE   D4B 8620   7.777  14.950   6.576 -0.4455  0.2338 -0.2716
  956PNCE   C5B 8621   7.584  15.025   7.017  0.1700  0.0267  0.2002
  956PNCE   C6B 8622   7.322  14.872   7.330 -0.1036 -0.1022 -0.0076
  957CHOL   ROH 8623  14.548  11.405   8.264  0.0010  0.2278 -0.0692
  957CHOL    R1 8624  14.493  11.646   8.127  0.0830  0.2580 -0.0501
  957CHOL    R2 8625  14.670  11.858   8.123  0.2192  0.1437 -0.1526
  957CHOL    R3 8626  14.643  11.834   7.854  0.0607  0.1489 -0.1382
  957CHOL    R4 8627  14.753  12.103   7.894  0.3991  0.0234 -0.2160
  957CHOL    R5 8628  14.574  12.052   7.781  0.2832  0.2246 -0.1249
  957CHOL    C1 8629  14.777  12.223   7.507  0.3545 -0.0411 -0.2391
  957CHOL    C2 8630  14.830  12.503   7.250 -0.1867 -0.0555  0.1776
  958PNCE   AM1 8631  11.027   2.220   4.169  0.1222  0.0328 -0.0046
  958PNCE   AM2 8632  11.080   1.906   4.150  0.1565  0.1343 -0.0089
  958PNCE   T1A 8633  11.133   2.163   4.652 -0.1190 -0.0869  0.0802
  958PNCE   C2A 8634  11.268   2.294   4.982  0.1698  0.1735  0.1506
  958PNCE   C3A 8635  11.577   2.245   5.325 -0.2596 -0.2579  0.0323
  958PNCE   C1B 8636  10.866   1.816   4.447 -0.3571 -0.0361  0.0619
  958PNCE   C2B 8637  10.701   1.455   4.632  0.1069  0.0436 -0.0330
  958PNCE   C3B 8638  10.639   0.940   4.713  0.1057  0.1833 -0.0529
  958PNCE   D4B 8639  10.671   0.630   5.149  0.1691  0.1903 -0.0704
  958PNCE   C5B 8640  10.920   0.266   5.251 -0.3007 -0.4353  0.2468
  958PNCE   C6B 8641  11.173   0.194   5.707  0.1012  0.3839 -0.0218
  959CHOL   ROH 8642   9.450  15.320   5.142 -0.2346  0.2192 -0.0284
  959CHOL    R1 8643   9.354  15.185   5.371 -0.2370  0.1926 -0.0451
  959CHOL    R2 8644   9.502  15.164   5.604 -0.1300 -0.0641 -0.1350
  959CHOL    R3 8645   9.279  15.271   5.717  0.0322  0.0892  0.0406
  959CHOL    R4 8646   9.398  15.107   5.929  0.0091 -0.1073 -0.0982
  959CHOL    R5 8647   9.193  15.096   5.856 -0.0443  0.1087  0.0172
  959CHOL    C1 8648   9.128  15.174   6.224  0.2419  0.0117  0.0879
  959CHOL    C2 8649   8.976  14.856   6.408  0.0522 -0.0164 -0.2011
  960CHOL   ROH 8650  12.997   8.042   3.725  0.0277  0.1708 -0.0842
  960CHOL    R1 8651  12.984   8.202   3.958  0.2952  0.3223 -0.1724
  960CHOL    R2 8652  12.917   8.099   4.205 -0.1562  0.6237 -0.1682
  960CHOL    R3 8653  13.151   8.213   4.281  0.1009  0.0294 -0.0605
  960CHOL    R4 8654  13.012   8.156   4.533 -0.1678  0.3996 -0.1254
  960CHOL    R5 8655  13.093   8.349   4.470  0.3543  0.1888 -0.0963
  960CHOL    C1 8656  13.288   8.297   4.794  0.0667 -0.2884  0.0010
  960CHOL    C2 8657  13.340   8.329   5.145  0.3143  0.0533  0.0696
  961PNCE   AM1 8658  16.155  12.037   4.550  0.2424 -0.0061 -0.0123
  961PNCE   AM2 8659  16.026  12.339   4.530 -0.1673 -0.0271 -0.0650
  961PNCE   T1A 8660  16.129  11.903   5.029 -0.0350  0.2821  0.1700
  961PNCE   C2A 8661  15.954  11.759   5.429 -0.0252 -0.1188  0.2496
  961PNCE   C3A 8662  15.562  11.505   5.566  0.1867 -0.0027  0.0761
  961PNCE   C1B 8663  16.401  12.353   4.868  0.0154  0.0106 -0.2992
  961PNCE   C2B 8664  16.525  12.082   5.231 -0.0367 -0.0628 -0.1842
  961PNCE   C3B 8665  16.552  11.934   5.662 -0.2167 -0.2955  0.1326
  961PNCE   D4B 8666  16.102  11.932   5.936  0.1309 -0.0170  0.1648
  961PNCE   C5B 8667  15.771  11.624   6.058 -0.0326 -0.2630 -0.1280
  961PNCE   C6B 8668  15.540  11.385   6.375  0.1047 -0.0711 -0.3543
  962CHOL   ROH 8669   5.719   2.982   4.751 -0.1427 -0.0238 -0.0119
  962CHOL    R1 8670   5.569   2.975   4.991 -0.0453 -0.0219  0.0491
  962CHOL    R2 8671   5.676   2.891   5.231  0.0512 -0.0218  0.0060
  962CHOL    R3 8672   5.587   3.132   5.319  0.0882 -0.0210  0.0415
  962CHOL    R4 8673   5.572   2.958   5.554  0.0784 -0.0486  0.0203
  962CHOL    R5 8674   5.410   3.078   5.472  0.0894 -0.0168  0.0443
  962CHOL    C1 8675   5.428   3.223   5.825  0.1288 -0.0636  0.0616
  962CHOL    C2 8676   5.555   3.198   6.192 -0.0457  0.2320  0.0664
  963PNCE   AM1 8677   3.476   3.471   4.719  0.1621  0.0756  0.1235
  963PNCE   AM2 8678   3.228   3.507   4.526 -0.0558  0.3909 -0.3638
  963PNCE   T1A 8679   3.762   3.294   5.065 -0.2144  0.0272 -0.2176
  963PNCE   C2A 8680   3.921   3.054   5.465 -0.1988 -0.2223  0.0876
  963PNCE   C3A 8681   3.626   2.884   5.670  0.1382  0.0733  0.4828
  963PNCE   C1B 8682   2.979   3.558   4.909 -0.1386 -0.1913  0.4410
  963PNCE   C2B 8683   2.870   3.665   5.359  0.1063  0.0409  0.0285
  963PNCE   C3B 8684   2.727   3.918   5.785 -0.1003 -0.0506  0.1261
  963PNCE   D4B 8685   2.543   3.599   6.060 -0.3746 -0.0177 -0.1823
  963PNCE   C5B 8686   2.110   3.436   5.973  0.0781  0.1657  0.0419
  963PNCE   C6B 8687   1.680   3.387   6.144  0.0818 -0.2128  0.0774
  964CHOL   ROH 8688  15.978   1.706   7.400  0.3164 -0.0200  0.0353
  964CHOL    R1 8689  15.907   1.470   7.260  0.1640 -0.0077  0.0925
  964CHOL    R2 8690  16.008   1.409   7.011  0.0455 -0.0823  0.0621
  964CHOL    R3 8691  16.079   1.176   7.133 -0.0072 -0.0970  0.0654
  964CHOL    R4 8692  16.002   1.097   6.861  0.3033 -0.0380 -0.0398
  964CHOL    R5 8693  15.924   1.015   7.047  0.1345 -0.1205 -0.1473
  964CHOL    C1 8694  16.065   0.698   6.887  0.4037 -0.0259 -0.0967
  964CHOL    C2 8695  16.316   0.458   6.796  0.0636 -0.0640  0.0858
  965XCA    COO 8696  11.703   7.060   4.096 -0.0779  0.1270 -0.2797
  965XCA     C1 8697  11.802   6.771   4.389 -0.1875 -0.5771  0.1114
  965XCA     C2 8698  11.813   6.551   4.797  0.0314 -0.1204 -0.0925
  965XCA     C3 8699  11.707   6.349   5.102 -0.1206  0.1301 -0.0432
  965XCA     C4 8700  11.589   6.264   5.530 -0.0855  0.2052 -0.1634
  965XCA     C5 8701  11.327   6.063   5.775  0.1626  0.0980  0.1555
  965XCA     C6 8702  11.088   6.216   6.085 -0.1585  0.3843  0.1013
  966XCA    COO 8703   4.535   7.792   7.463  0.3024 -0.0678 -0.4100
  966XCA     C1 8704   4.482   7.664   7.064  0.1121  0.0621 -0.3033
  966XCA     C2 8705   4.262   7.825   6.740 -0.3368 -0.0581 -0.1075
  966XCA     C3 8706   3.939   8.076   6.541 -0.0643 -0.4056 -0.0540
  966XCA     C4 8707   3.801   8.208   6.182  0.0161 -0.1392  0.0118
  966XCA     C5 8708   3.575   8.038   5.986 -0.0874 -0.1346 -0.0211
  966XCA     C6 8709   3.346   7.761   5.701  0.2700 -0.0082  0.2992
  967PNCE   AM1 8710  13.565   6.148   4.422  0.2176  0.2940 -0.2716
  967PNCE   AM2 8711  13.878   6.101   4.293  0.1738 -0.0590 -0.1463
  967PNCE   T1A 8712  13.681   6.608   4.499 -0.2737  0.3955 -0.0125
  967PNCE   C2A 8713  14.034   6.887   4.677  0.0027  0.2695 -0.1744
  967PNCE   C3A 8714  14.417   7.058   4.533 -0.1079  0.1274 -0.1613
  967PNCE   C1B 8715  14.030   6.338   4.708  0.0025 -0.1421  0.0421
  967PNCE   C2B 8716  13.919   6.540   5.043 -0.0051  0.0470 -0.1278
  967PNCE   C3B 8717  14.061   6.739   5.443 -0.1729 -0.4157 -0.0906
  967PNCE   D4B 8718  14.201   6.975   5.895 -0.1529 -0.0591  0.0232
  967PNCE   C5B 8719  14.613   7.238   5.878  0.2348  0.5250  0.0883
  967PNCE   C6B 8720  14.859   7.406   6.092 -0.3934 -0.1497  0.3919
  968PNCE   AM1 8721   7.683   7.859   4.149  0.1204 -0.1290 -0.1153
  968PNCE   AM2 8722   7.977   7.737   4.133 -0.0064  0.2472  0.1664
  968PNCE   T1A 8723   7.235   7.951   4.024 -0.0096 -0.0682 -0.0972
  968PNCE   C2A 8724   6.756   7.985   4.146  0.1114 -0.1340  0.1884
  968PNCE   C3A 8725   6.496   8.220   4.048 -0.0619 -0.1400  0.0767
  968PNCE   C1B 8726   8.000   7.594   4.463 -0.0431 -0.0107 -0.1455
  968PNCE   C2B 8727   8.178   7.220   4.604 -0.3116  0.1605 -0.1475
  968PNCE   C3B 8728   8.267   6.883   4.758 -0.3742 -0.1720 -0.1328
  968PNCE   D4B 8729   8.604   6.747   4.942  0.0312  0.1393  0.2477
  968PNCE   C5B 8730   8.364   6.678   5.325 -0.0321  0.1098  0.1487
  968PNCE   C6B 8731   8.114   6.813   5.738  0.0641 -0.1042  0.0918
  969PNCE   AM1 8732   0.080   6.149   4.010  0.0047 -0.1080  0.2000
  969PNCE   AM2 8733  -0.038   6.438   4.021 -0.5327 -0.2208 -0.0083
  969PNCE   T1A 8734  -0.013   6.109   4.435 -0.1023 -0.4368  0.4295
  969PNCE   C2A 8735   0.128   6.268   4.797  0.1105 -0.0433 -0.0313
  969PNCE   C3A 8736   0.055   6.074   5.204 -0.0476 -0.0443  0.3343
  969PNCE   C1B 8737   0.004   6.615   4.475 -0.1252 -0.1209 -0.1810
  969PNCE   C2B 8738  -0.221   6.662   4.904 -0.0882  0.2347 -0.0632
  969PNCE   C3B 8739  -0.358   6.934   5.245  0.0912 -0.0196  0.1734
  969PNCE   D4B 8740  -0.710   6.930   5.439 -0.0299  0.1184 -0.1097
  969PNCE   C5B 8741  -0.982   7.184   5.670 -0.1074 -0.0900 -0.1863
  969PNCE   C6B 8742  -1.112   7.625   5.764  0.1031 -0.3762  0.0332
  970CHOL   ROH 8743   5.128  11.666   6.803 -0.1257  0.0115  0.1808
  970CHOL    R1 8744   5.344  11.845   6.768 -0.0546 -0.0525  0.2897
  970CHOL    R2 8745   5.336  12.054   6.588  0.1847 -0.1868  0.1236
  970CHOL    R3 8746   5.400  12.203   6.806 -0.0359 -0.0333  0.0840
  970CHOL    R4 8747   5.533  12.339   6.583  0.1936 -0.1922  0.1240
  970CHOL    R5 8748   5.627  12.271   6.768  0.0043 -0.0629  0.2663
  970CHOL    C1 8749   5.707  12.644   6.785 -0.0085 -0.0512  0.0870
  970CHOL    C2 8750   6.048  12.731   6.594  0.0577  0.0284  0.0158
  971PNCE   AM1 8751   0.403   5.091   4.337  0.0318  0.4689  0.0213
  971PNCE   AM2 8752   0.143   4.995   4.284  0.1214  0.1760 -0.0399
  971PNCE   T1A 8753   0.347   5.142   4.835 -0.2467 -0.1961  0.1675
  971PNCE   C2A 8754   0.243   5.178   5.296  0.1103 -0.3131  0.2295
  971PNCE   C3A 8755   0.296   5.072   5.645  0.0518  0.2066  0.0407
  971PNCE   C1B 8756   0.157   4.660   4.595  0.0118  0.0263 -0.0472
  971PNCE   C2B 8757   0.308   4.693   5.134 -0.0714 -0.4508  0.0469
  971PNCE   C3B 8758   0.633   4.788   5.473 -0.0927 -0.1443 -0.0156
  971PNCE   D4B 8759   0.571   4.722   5.894 -0.3469  0.0855 -0.0322
  971PNCE   C5B 8760   0.672   5.094   6.172 -0.2953 -0.0099 -0.1088
  971PNCE   C6B 8761   0.533   5.335   6.510 -0.0987 -0.4383 -0.1649
  972CHOL   ROH 8762  12.263   6.614   4.337 -0.3392  0.0180 -0.0924
  972CHOL    R1 8763  12.139   6.411   4.490 -0.3419  0.1245  0.0467
  972CHOL    R2 8764  12.281   6.204   4.606 -0.3793  0.0471 -0.0455
  972CHOL    R3 8765  12.158   6.289   4.833 -0.1244  0.1643  0.0498
  972CHOL    R4 8766  12.279   6.033   4.906 -0.4292 -0.0181 -0.0830
  972CHOL    R5 8767  12.070   6.089   4.931 -0.3376  0.2611  0.0577
  972CHOL    C1 8768  12.163   6.013   5.293 -0.2188  0.0538 -0.0159
  972CHOL    C2 8769  11.769   5.772   5.564  0.0491  0.2336 -0.2061
  973PNCE   AM1 8770   3.768   4.989   4.234  0.1074 -0.3329 -0.1326
  973PNCE   AM2 8771   3.482   4.748   4.254 -0.1275  0.1446 -0.0708
  973PNCE   T1A 8772   3.588   4.958   4.668  0.0703  0.0318  0.1173
  973PNCE   C2A 8773   3.506   5.004   5.117  0.1406  0.1602  0.3622
  973PNCE   C3A 8774   3.405   4.751   5.523  0.1787  0.1099 -0.3043
  973PNCE   C1B 8775   3.585   4.432   4.590  0.2441 -0.1726  0.0565
  973PNCE   C2B 8776   3.716   4.593   4.981  0.4430 -0.4390 -0.0604
  973PNCE   C3B 8777   3.871   4.655   5.375 -0.1003 -0.0687  0.2295
  973PNCE   D4B 8778   4.113   4.380   5.526  0.0938 -0.0720 -0.0620
  973PNCE   C5B 8779   3.975   4.050   5.331 -0.0360  0.0832  0.1972
  973PNCE   C6B 8780   4.105   3.556   5.356  0.3784 -0.1162  0.2072
  974XCA    COO 8781   9.368  11.501   4.656 -0.0655  0.4580 -0.0838
  974XCA     C1 8782   9.282  11.519   5.156 -0.0418  0.0802 -0.1147
  974XCA     C2 8783   9.399  11.471   5.641  0.1967 -0.0163  0.0794
  974XCA     C3 8784   9.615  11.109   5.893 -0.5057  0.0504  0.1486
  974XCA     C4 8785   9.387  10.675   6.102  0.0159  0.1902 -0.2161
  974XCA     C5 8786   9.290  10.535   6.514 -0.5297  0.2284  0.3393
  974XCA     C6 8787   9.087  10.537   6.833  0.4644  0.1260 -0.0365
  975CHOL   ROH 8788   0.298  14.376   5.459  0.1639 -0.1337  0.0427
  975CHOL    R1 8789   0.492  14.279   5.642  0.1690  0.0744  0.1471
  975CHOL    R2 8790   0.529  14.391   5.892 -0.2248 -0.0147  0.2463
  975CHOL    R3 8791   0.491  14.135   5.976  0.1246 -0.1278  0.0602
  975CHOL    R4 8792   0.596  14.276   6.211 -0.6385 -0.0129  0.3355
  975CHOL    R5 8793   0.676  14.093   6.123 -0.0867  0.1860  0.4175
  975CHOL    C1 8794   0.601  13.969   6.475 -0.5514 -0.1177  0.2121
  975CHOL    C2 8795   0.570  14.058   6.827  0.2951  0.3925 -0.0304
  976XCA    COO 8796  14.592   7.221   7.479 -0.2719  0.1340  0.1813
  976XCA     C1 8797  14.900   7.201   7.096  0.0677  0.0031 -0.4720
  976XCA     C2 8798  15.245   7.381   6.906 -0.1841  0.2013 -0.0223
  976XCA     C3 8799  15.508   7.561   6.579 -0.1142 -0.0586  0.1124
  976XCA     C4 8800  15.562   7.843   6.235 -0.0322  0.1635 -0.1576
  976XCA     C5 8801  15.531   8.086   5.869  0.0269  0.1358  0.0050
  976XCA     C6 8802  15.751   8.305   5.531 -0.2248 -0.1205  0.0726
  977PNCE   AM1 8803   6.501   2.709   5.062 -0.0927  0.0018  0.0551
  977PNCE   AM2 8804   6.206   2.771   5.045 -0.0817  0.1407  0.0248
  977PNCE   T1A 8805   6.662   2.748   5.493 -0.0879  0.2153 -0.0223
  977PNCE   C2A 8806   6.758   2.761   5.886  0.0940  0.1012 -0.1149
  977PNCE   C3A 8807   6.972   2.375   5.880 -0.1067 -0.3836  0.1644
  977PNCE   C1B 8808   6.116   2.606   5.434 -0.1887 -0.0215  0.1055
  977PNCE   C2B 8809   6.238   2.672   5.857  0.1798 -0.0585 -0.1959
  977PNCE   C3B 8810   6.438   3.039   6.133  0.0027  0.1407 -0.2042
  977PNCE   D4B 8811   6.431   3.465   6.109 -0.0787  0.2320 -0.2114
  977PNCE   C5B 8812   5.992   3.494   6.307  0.1669  0.0255  0.2458
  977PNCE   C6B 8813   5.694   3.418   6.674  0.2037 -0.0348  0.0309
  978XCA    COO 8814  15.512   5.208   4.124  0.0269  0.1106 -0.3053
  978XCA     C1 8815  15.624   5.497   4.509  0.4473 -0.2725  0.1032
  978XCA     C2 8816  15.503   5.815   4.782 -0.1551  0.0946  0.1592
  978XCA     C3 8817  15.309   5.925   5.131 -0.0930 -0.1418 -0.0242
  978XCA     C4 8818  15.213   6.082   5.503  0.3433  0.2048  0.2821
  978XCA     C5 8819  15.323   6.518   5.781 -0.1336  0.5313  0.0538
  978XCA     C6 8820  15.488   6.878   6.011  0.3555 -0.1466 -0.2075
  979PNCE   AM1 8821  15.881   2.066   4.307  0.0628  0.1461  0.1632
  979PNCE   AM2 8822  15.987   2.386   4.271  0.0037  0.0158 -0.3639
  979PNCE   T1A 8823  15.406   2.192   4.523 -0.0542  0.0847 -0.0114
  979PNCE   C2A 8824  15.188   2.320   4.876 -0.2083  0.0029  0.0074
  979PNCE   C3A 8825  15.292   2.094   5.205 -0.2777  0.0274 -0.1515
  979PNCE   C1B 8826  15.827   2.433   4.683 -0.2218  0.1274  0.0385
  979PNCE   C2B 8827  15.718   2.374   5.121  0.0174  0.0942 -0.3904
  979PNCE   C3B 8828  15.666   2.255   5.614  0.2097  0.1425  0.2862
  979PNCE   D4B 8829  15.639   2.255   6.012 -0.1202 -0.1755  0.1230
  979PNCE   C5B 8830  15.666   1.971   6.282  0.0700  0.1525  0.3434
  979PNCE   C6B 8831  15.904   1.558   6.520 -0.0099 -0.2649  0.2507
  980PNCE   AM1 8832   8.160  14.296   4.888  0.4000 -0.1016  0.1734
  980PNCE   AM2 8833   7.773  14.323   4.693 -0.2802  0.1739  0.0748
  980PNCE   T1A 8834   7.992  14.123   5.322  0.1019 -0.1378  0.1666
  980PNCE   C2A 8835   8.000  14.100   5.739  0.2056  0.4662 -0.3289
  980PNCE   C3A 8836   7.664  14.137   6.046  0.1286 -0.1303 -0.2014
  980PNCE   C1B 8837   7.553  14.109   5.003  0.1606  0.1136  0.0214
  980PNCE   C2B 8838   7.460  14.027   5.447  0.1222 -0.1034  0.1940
  980PNCE   C3B 8839   7.469  13.657   5.736  0.2097 -0.2117  0.0506
  980PNCE   D4B 8840   7.075  13.478   5.968 -0.4075  0.2290 -0.1324
  980PNCE   C5B 8841   6.762  13.662   6.172 -0.1961  0.3165 -0.0428
  980PNCE   C6B 8842   6.338  13.710   6.299 -0.2908 -0.0216  0.1304
  981PNCE   AM1 8843   5.959   9.421   3.858 -0.0797  0.0906  0.3202
  981PNCE   AM2 8844   6.185   9.299   4.024  0.0131  0.0068 -0.1003
  981PNCE   T1A 8845   5.656   9.377   4.195 -0.1749 -0.0529 -0.1333
  981PNCE   C2A 8846   5.713   9.392   4.609 -0.2120 -0.0032 -0.0967
  981PNCE   C3A 8847   5.653   8.960   4.814  0.0683 -0.3170  0.1609
  981PNCE   C1B 8848   5.990   8.998   4.362  0.2301 -0.0716  0.1526
  981PNCE   C2B 8849   5.679   8.707   4.363  0.0909 -0.0244  0.1243
  981PNCE   C3B 8850   5.492   8.427   4.732 -0.2992 -0.0914  0.0068
  981PNCE   D4B 8851   5.672   8.065   5.048 -0.4677 -0.0027  0.1113
  981PNCE   C5B 8852   6.055   8.102   5.195  0.0775 -0.6326  0.1724
  981PNCE   C6B 8853   6.398   8.334   5.299  0.0600  0.2333  0.0447
  982CHOL   ROH 8854   5.223   4.185   4.409  0.0760 -0.2099  0.0243
  982CHOL    R1 8855   5.299   4.183   4.682  0.0603 -0.1175  0.0293
  982CHOL    R2 8856   5.557   4.130   4.765  0.0650 -0.0457  0.0598
  982CHOL    R3 8857   5.530   4.368   4.893  0.0128 -0.0138 -0.0103
  982CHOL    R4 8858   5.739   4.225   5.042  0.0348  0.0706  0.0398
  982CHOL    R5 8859   5.557   4.313   5.125  0.0143  0.0587  0.0069
  982CHOL    C1 8860   5.821   4.504   5.325 -0.0314  0.1680 -0.0370
  982CHOL    C2 8861   5.824   4.707   5.624  0.1359  0.0832  0.0384
  983PNCE   AM1 8862  16.103   9.257   4.308 -0.2218  0.1375 -0.2339
  983PNCE   AM2 8863  15.944   9.631   4.281 -0.1290 -0.2092  0.1448
  983PNCE   T1A 8864  16.194   9.189   4.650  0.0134  0.1877 -0.0911
  983PNCE   C2A 8865  16.044   8.974   4.985 -0.0790 -0.0431 -0.1388
  983PNCE   C3A 8866  16.027   8.743   5.347 -0.1421  0.0576 -0.2630
  983PNCE   C1B 8867  15.747   9.498   4.724  0.0998 -0.0590 -0.0859
  983PNCE   C2B 8868  15.782   9.632   5.201  0.1010  0.1018  0.2587
  983PNCE   C3B 8869  15.578   9.862   5.410  0.1629 -0.2518 -0.2624
  983PNCE   D4B 8870  15.963  10.119   5.729 -0.1324  0.1202  0.4198
  983PNCE   C5B 8871  16.056  10.559   5.650 -0.0297  0.2301  0.0441
  983PNCE   C6B 8872  16.301  10.853   5.820 -0.0431 -0.2688  0.1212
  984XCA    COO 8873  13.093  12.522   8.558 -0.0285  0.1404 -0.0447
  984XCA     C1 8874  12.865  12.850   8.284 -0.2176 -0.0789  0.1291
  984XCA     C2 8875  13.084  13.300   8.211 -0.1000 -0.0151 -0.1809
  984XCA     C3 8876  13.308  13.285   7.748 -0.0519  0.0782  0.1457
  984XCA     C4 8877  13.397  13.172   7.313  0.1252 -0.0156 -0.0366
  984XCA     C5 8878  13.560  13.217   6.890 -0.0560  0.1120 -0.0873
  984XCA     C6 8879  13.793  13.334   6.654  0.1722  0.2232  0.4523
  985CHOL   ROH 8880   4.282   9.061   3.486 -0.1905 -0.0735 -0.0912
  985CHOL    R1 8881   4.260   8.883   3.704  0.0315 -0.0257 -0.0296
  985CHOL    R2 8882   4.308   8.960   3.965  0.0011  0.1070 -0.0634
  985CHOL    R3 8883   4.059   8.859   4.007  0.1115 -0.1340  0.0152
  985CHOL    R4 8884   4.160   8.921   4.275  0.0365  0.2017 -0.0348
  985CHOL    R5 8885   4.080   8.730   4.208  0.2496  0.0572  0.1225
  985CHOL    C1 8886   3.840   8.804   4.495  0.1611  0.0314  0.0557
  985CHOL    C2 8887   3.560   9.012   4.736  0.1393  0.0207  0.1947
  986CHOL   ROH 8888   4.110   4.821   7.813 -0.1183  0.1430  0.0093
  986CHOL    R1 8889   4.194   4.714   7.565 -0.0837  0.1197  0.0308
  986CHOL    R2 8890   4.034   4.716   7.340 -0.0379  0.1322 -0.0011
  986CHOL    R3 8891   4.249   4.840   7.228  0.0021  0.0973  0.0361
  986CHOL    R4 8892   4.102   4.726   7.001  0.0396  0.0942  0.0134
  986CHOL    R5 8893   4.313   4.696   7.047  0.0260  0.0734  0.0634
  986CHOL    C1 8894   4.342   4.848   6.699  0.1225  0.0395  0.0564
  986CHOL    C2 8895   4.147   4.929   6.254 -0.1272 -0.3076  0.0672
  987XCA    COO 8896   2.176   1.608   4.657 -0.1207 -0.2718 -0.0143
  987XCA     C1 8897   1.931   1.356   4.882  0.0445 -0.2311 -0.4590
  987XCA     C2 8898   1.687   1.101   5.221  0.0322  0.0932 -0.0317
  987XCA     C3 8899   1.686   1.047   5.643  0.0786  0.0862  0.1154
  987XCA     C4 8900   1.474   0.895   6.023  0.1441  0.0170 -0.0082
  987XCA     C5 8901   1.120   1.107   6.298  0.4951  0.3751  0.0288
  987XCA     C6 8902   1.060   1.516   6.378 -0.2643  0.0150  0.1157
  988PNCE   AM1 8903   4.479   9.736   3.499 -0.0054  0.1688 -0.0540
  988PNCE   AM2 8904   4.569   9.364   3.681  0.2428 -0.2166  0.1443
  988PNCE   T1A 8905   4.359   9.902   3.852 -0.2817  0.0749  0.1452
  988PNCE   C2A 8906   4.117   9.675   4.195  0.1838 -0.1901  0.0222
  988PNCE   C3A 8907   3.844   9.844   4.396  0.0587  0.1122 -0.0892
  988PNCE   C1B 8908   4.492   9.361   4.128 -0.1749 -0.1087  0.0103
  988PNCE   C2B 8909   4.316   9.315   4.507  0.0049 -0.1497  0.0811
  988PNCE   C3B 8910   4.103   9.003   4.796  0.1450 -0.0459  0.2071
  988PNCE   D4B 8911   3.928   8.669   4.931  0.7018  0.0351  0.3262
  988PNCE   C5B 8912   4.084   8.346   4.546  0.0211  0.1833  0.2687
  988PNCE   C6B 8913   4.029   7.981   4.275  0.1091  0.0717  0.0212
  989CHOL   ROH 8914   7.240   9.624   8.527 -0.1476  0.0473  0.0351
  989CHOL    R1 8915   7.156   9.661   8.259 -0.1357  0.2313  0.0567
  989CHOL    R2 8916   7.111   9.912   8.151  0.1691  0.3202  0.1350
  989CHOL    R3 8917   7.287   9.826   7.962  0.0353  0.1514  0.0869
  989CHOL    R4 8918   7.123  10.028   7.826  0.0665  0.1693  0.0768
  989CHOL    R5 8919   7.159   9.823   7.759 -0.0651  0.1216  0.1507
  989CHOL    C1 8920   7.295  10.016   7.459 -0.1188 -0.0780 -0.0021
  989CHOL    C2 8921   7.369   9.867   7.098  0.2366  0.1699 -0.1065
  990CHOL   ROH 8922   2.845  12.078   4.233  0.3086  0.0429  0.0821
  990CHOL    R1 8923   2.941  12.136   4.492  0.2382  0.0153  0.1144
  990CHOL    R2 8924   2.905  11.965   4.706  0.1395  0.0147  0.0969
  990CHOL    R3 8925   3.176  11.986   4.727  0.1369 -0.0373  0.1825
  990CHOL    R4 8926   3.077  12.010   5.002  0.0482  0.0763  0.1407
  990CHOL    R5 8927   3.209  12.150   4.899  0.1132  0.0129  0.1392
  990CHOL    C1 8928   3.431  12.056   5.195 -0.0077  0.0645  0.2465
  990CHOL    C2 8929   3.655  11.791   5.412  0.0795 -0.2987 -0.0801
  991CHOL   ROH 8930   7.240  14.844   6.579 -0.0028 -0.2677  0.0487
  991CHOL    R1 8931   7.254  14.848   6.296  0.0830 -0.0691  0.0553
  991CHOL    R2 8932   7.485  14.915   6.160  0.1537 -0.0713  0.1727
  991CHOL    R3 8933   7.444  14.675   6.038  0.0850  0.0336 -0.0128
  991CHOL    R4 8934   7.650  14.807   5.876  0.3011 -0.0010  0.2315
  991CHOL    R5 8935   7.462  14.724   5.804  0.2995  0.1731  0.0310
  991CHOL    C1 8936   7.708  14.519   5.597  0.3226  0.1392  0.0913
  991CHOL    C2 8937   7.703  14.525   5.247  0.1516 -0.0081 -0.0748
  992CHOL   ROH 8938   3.299  16.082   5.068  0.0047 -0.1871 -0.1258
  992CHOL    R1 8939   3.312  16.100   5.350  0.0916 -0.0782 -0.1361
  992CHOL    R2 8940   3.132  15.970   5.515 -0.0108  0.1907 -0.0367
  992CHOL    R3 8941   3.358  15.869   5.628 -0.0946 -0.0063 -0.0469
  992CHOL    R4 8942   3.138  15.753   5.784 -0.1928  0.0939 -0.1111
  992CHOL    R5 8943   3.309  15.863   5.862 -0.1242 -0.0548 -0.0541
  992CHOL    C1 8944   3.353  15.532   6.047 -0.3776 -0.1492 -0.1639
  992CHOL    C2 8945   3.406  15.241   6.238  0.1795  0.3057 -0.3653
  993CHOL   ROH 8946  16.020  15.952   5.487  0.1682 -0.1177  0.1584
  993CHOL    R1 8947  15.897  15.802   5.692  0.1817 -0.1140  0.1683
  993CHOL    R2 8948  15.887  15.888   5.954  0.1017 -0.0579  0.1470
  993CHOL    R3 8949  15.620  15.849   5.924  0.1207 -0.1579  0.1036
  993CHOL    R4 8950  15.655  15.911   6.209  0.0377 -0.0286  0.0861
  993CHOL    R5 8951  15.554  15.737   6.125  0.1130 -0.0963  0.1357
  993CHOL    C1 8952  15.268  15.887   6.329  0.0184 -0.1056  0.0105
  993CHOL    C2 8953  14.966  15.963   6.503  0.0268  0.1415 -0.3486
  994CHOL   ROH 8954  13.096  14.123   6.692 -0.0914 -0.0002 -0.0420
  994CHOL    R1 8955  12.984  14.177   6.946  0.0100 -0.0024  0.0033
  994CHOL    R2 8956  13.137  14.209   7.173  0.1158  0.2259 -0.0995
  994CHOL    R3 8957  13.002  14.444   7.193 -0.0856  0.1118 -0.1127
  994CHOL    R4 8958  12.981  14.324   7.459  0.1178  0.1631 -0.0727
  994CHOL    R5 8959  12.816  14.395   7.335  0.0100 -0.0153 -0.0317
  994CHOL    C1 8960  12.763  14.612   7.644 -0.0684  0.0207 -0.0700
  994CHOL    C2 8961  12.654  14.874   7.758 -0.4297 -0.1470 -0.1154
  995PNCE   AM1 8962  10.243   8.915   3.991 -0.0417  0.1193 -0.0721
  995PNCE   AM2 8963  10.371   9.110   3.805  0.2080  0.1115 -0.1027
  995PNCE   T1A 8964  10.245   8.711   4.412  0.4375 -0.1215 -0.2615
  995PNCE   C2A 8965  10.183   8.830   4.798 -0.1996  0.0302 -0.1929
  995PNCE   C3A 8966  10.310   9.005   5.179  0.2555 -0.2670 -0.0891
  995PNCE   C1B 8967  10.685   9.098   4.251  0.0642 -0.1323 -0.0214
  995PNCE   C2B 8968  10.677   9.061   4.776  0.0538  0.0138  0.1186
  995PNCE   C3B 8969  10.772   8.809   5.153 -0.0312  0.0607 -0.1708
  995PNCE   D4B 8970  10.758   8.917   5.517  0.0184 -0.0150 -0.1664
  995PNCE   C5B 8971  10.348   8.887   5.799 -0.0636 -0.0110  0.0190
  995PNCE   C6B 8972   9.989   8.510   5.934  0.1441  0.1836 -0.1491
  996CHOL   ROH 8973  12.583  15.257   4.806  0.1106  0.0563 -0.1245
  996CHOL    R1 8974  12.651  15.392   5.045  0.0091  0.1926 -0.1729
  996CHOL    R2 8975  12.868  15.320   5.200 -0.2110  0.1156  0.0989
  996CHOL    R3 8976  12.936  15.581   5.170  0.0707  0.0238 -0.0572
  996CHOL    R4 8977  13.041  15.507   5.434 -0.1206  0.1030  0.0417
  996CHOL    R5 8978  12.910  15.675   5.389  0.0710  0.2065 -0.1349
  996CHOL    C1 8979  13.206  15.861   5.542  0.1961  0.0107 -0.1387
  996CHOL    C2 8980  13.304  15.908   5.813  0.0897  0.0860  0.0501
  997PNCE   AM1 8981  15.373   1.714   4.354  0.2575  0.0362 -0.2912
  997PNCE   AM2 8982  15.641   1.621   4.451 -0.0834 -0.3205 -0.0469
  997PNCE   T1A 8983  15.225   1.805   4.787  0.3545 -0.2956 -0.0938
  997PNCE   C2A 8984  15.094   1.603   5.200  0.0512  0.0849  0.1138
  997PNCE   C3A 8985  15.244   1.515   5.669  0.1064 -0.0624  0.2490
  997PNCE   C1B 8986  15.765   1.932   4.774  0.0500 -0.2207 -0.1519
  997PNCE   C2B 8987  15.771   1.912   5.195  0.1308  0.2124 -0.1306
  997PNCE   C3B 8988  15.932   1.824   5.601 -0.0226 -0.0939  0.2369
  997PNCE   D4B 8989  15.963   1.647   6.025 -0.3536 -0.2037 -0.0523
  997PNCE   C5B 8990  16.102   1.242   6.128  0.1718 -0.2634  0.0512
  997PNCE   C6B 8991  16.272   1.073   6.491 -0.1611  0.2341  0.0850
  998PNCE   AM1 8992   2.007   6.775   4.063 -0.1080  0.1567  0.2394
  998PNCE   AM2 8993   2.391   6.598   4.090  0.0163 -0.0289 -0.2553
  998PNCE   T1A 8994   2.149   6.739   4.498  0.1135 -0.2184  0.1395
  998PNCE   C2A 8995   2.450   6.887   4.892 -0.2184 -0.1073  0.1481
  998PNCE   C3A 8996   2.705   7.212   5.117  0.0982  0.1014 -0.1405
  998PNCE   C1B 8997   2.615   6.886   4.353  0.2545 -0.1907  0.0942
  998PNCE   C2B 8998   2.759   7.152   4.624  0.3174 -0.0154 -0.3141
  998PNCE   C3B 8999   2.958   7.534   4.775 -0.1142 -0.3594 -0.1914
  998PNCE   D4B 9000   3.082   7.984   4.925 -0.1668 -0.1496  0.0744
  998PNCE   C5B 9001   2.842   8.089   5.193 -0.0582 -0.2671 -0.5446
  998PNCE   C6B 9002   2.430   8.285   5.335  0.1837  0.0402  0.1579
  999CHOL   ROH 9003  15.013   7.963   3.831  0.4389  0.1151 -0.0456
  999CHOL    R1 9004  15.138   8.110   4.038  0.2818  0.0939  0.0646
  999CHOL    R2 9005  15.323   8.309   3.989  0.2205  0.1897  0.2211
  999CHOL    R3 9006  15.156   8.458   4.141  0.0874  0.0646  0.1975
  999CHOL    R4 9007  15.418   8.588   4.169 -0.0501  0.3686  0.0865
  999CHOL    R5 9008  15.288   8.520   4.331  0.0610  0.2899  0.1428
  999CHOL    C1 9009  15.315   8.891   4.418 -0.3334  0.3548 -0.0138
  999CHOL    C2 9010  15.258   9.270   4.598  0.1291 -0.1816  0.0937
 1000CHOL   ROH 9011  15.450  10.160   7.222  0.0177 -0.2713  0.2032
 1000CHOL    R1 9012  15.481   9.972   7.013  0.0248 -0.1283  0.0751
 1000CHOL    R2 9013  15.467  10.043   6.746 -0.0444  0.0413  0.1233
 1000CHOL    R3 9014  15.711   9.922   6.735 -0.0155  0.1111 -0.0016
 1000CHOL    R4 9015  15.568   9.825   6.497 -0.0210  0.2618 -0.0608
 1000CHOL    R5 9016  15.664   9.703   6.650  0.0291  0.1655 -0.1690
 1000CHOL    C1 9017  15.855   9.585   6.342  0.0202  0.4570 -0.2857
 1000CHOL    C2 9018  15.842   9.249   6.200  0.1500  0.0326  0.1423
 1001XCA    COO 9019   1.271   7.713   4.144 -0.1642  0.1021 -0.1478
 1001XCA     C1 9020   1.675   7.654   4.531  0.2699 -0.0168  0.0873
 1001XCA     C2 9021   1.630   7.783   4.915 -0.5554 -0.0439 -0.2230
 1001XCA     C3 9022   1.270   7.796   5.180  0.2249  0.0657  0.1607
 1001XCA     C4 9023   1.105   7.494   5.514  0.1056  0.1630 -0.1144
 1001XCA     C5 9024   1.281   7.070   5.610 -0.1270 -0.0207 -0.0407
 1001XCA     C6 9025   1.720   7.091   5.516  0.1896 -0.0125 -0.4323
 1002CHOL   ROH 9026  14.773  10.457   7.676 -0.0820 -0.0141 -0.1020
 1002CHOL    R1 9027  14.746  10.651   7.472 -0.1397 -0.0024 -0.0832
 1002CHOL    R2 9028  14.500  10.725   7.369 -0.1714  0.0474  0.0315
 1002CHOL    R3 9029  14.585  10.975   7.435 -0.0947  0.0294  0.0014
 1002CHOL    R4 9030  14.484  10.999   7.160 -0.1187  0.0343  0.0107
 1002CHOL    R5 9031  14.681  11.060   7.232 -0.0939 -0.0148 -0.0167
 1002CHOL    C1 9032  14.553  11.394   7.100 -0.0163  0.0106 -0.0295
 1002CHOL    C2 9033  14.517  11.530   6.723  0.0074 -0.0724 -0.2543
 1003PNCE   AM1 9034   3.267  15.459   4.413  0.2715 -0.0677 -0.2749
 1003PNCE   AM2 9035   3.544  15.658   4.684 -0.0816 -0.1219  0.1714
 1003PNCE   T1A 9036   3.348  15.150   4.720  0.3487 -0.0224 -0.0639
 1003PNCE   C2A 9037   3.195  14.953   5.031  0.2924  0.1199  0.3057
 1003PNCE   C3A 9038   3.215  14.853   5.459  0.0962 -0.0804 -0.1096
 1003PNCE   C1B 9039   3.398  15.604   5.181  0.2141  0.4816  0.1550
 1003PNCE   C2B 9040   3.099  15.355   5.353  0.0731 -0.1042 -0.2508
 1003PNCE   C3B 9041   2.781  15.169   5.255  0.1306 -0.0479  0.0079
 1003PNCE   D4B 9042   2.739  14.731   5.241  0.2295  0.1553  0.1716
 1003PNCE   C5B 9043   2.832  14.558   5.706  0.3153 -0.2734 -0.0284
 1003PNCE   C6B 9044   3.143  14.373   6.004  0.1843  0.1611 -0.0326
 1004CHOL   ROH 9045   2.043   4.654   4.626  0.0350  0.0020 -0.1556
 1004CHOL    R1 9046   1.968   4.808   4.851 -0.0228  0.0699 -0.2210
 1004CHOL    R2 9047   1.715   4.799   4.961  0.0611 -0.1888 -0.0477
 1004CHOL    R3 9048   1.850   4.743   5.190  0.2872  0.1622 -0.0952
 1004CHOL    R4 9049   1.641   4.931   5.272 -0.0917 -0.2804 -0.0451
 1004CHOL    R5 9050   1.855   4.951   5.309 -0.1180  0.1998 -0.1447
 1004CHOL    C1 9051   1.725   4.955   5.667  0.0317 -0.0046 -0.0877
 1004CHOL    C2 9052   1.528   5.229   5.730 -0.0011  0.3425 -0.0912
 1005PNCE   AM1 9053  10.733   4.124   4.010  0.2639  0.0755 -0.0725
 1005PNCE   AM2 9054  11.064   4.137   3.984  0.2868  0.1806  0.0334
 1005PNCE   T1A 9055  10.678   4.269   4.356  0.4019  0.1174  0.0093
 1005PNCE   C2A 9056  10.857   4.549   4.595 -0.1532  0.0070 -0.3252
 1005PNCE   C3A 9057  10.768   4.984   4.613  0.2566  0.0555 -0.0315
 1005PNCE   C1B 9058  11.159   4.141   4.446 -0.0874  0.0400  0.1313
 1005PNCE   C2B 9059  11.369   4.232   4.789 -0.0060  0.4899  0.2697
 1005PNCE   C3B 9060  11.612   4.287   5.224  0.1467 -0.0163 -0.0138
 1005PNCE   D4B 9061  11.525   4.118   5.660  0.1201  0.0331  0.1220
 1005PNCE   C5B 9062  11.745   3.847   5.694  0.0948 -0.0321 -0.0437
 1005PNCE   C6B 9063  12.116   3.681   5.483  0.2010 -0.2522 -0.2102
 1006PNCE   AM1 9064   4.290   2.368   4.569  0.0275  0.1322  0.3702
 1006PNCE   AM2 9065   4.272   2.631   4.310  0.1372 -0.0349 -0.0046
 1006PNCE   T1A 9066   4.295   2.665   4.895 -0.1503 -0.0155  0.0119
 1006PNCE   C2A 9067   4.226   3.094   5.024 -0.1005  0.3182 -0.0225
 1006PNCE   C3A 9068   4.500   3.416   5.087 -0.1738  0.0054 -0.5116
 1006PNCE   C1B 9069   4.647   2.827   4.553 -0.0077  0.1654 -0.3078
 1006PNCE   C2B 9070   5.119   2.959   4.713 -0.1484  0.1631 -0.2320
 1006PNCE   C3B 9071   5.148   3.134   5.073 -0.2860 -0.1138  0.1393
 1006PNCE   D4B 9072   4.952   3.247   5.338 -0.0013  0.2205  0.0120
 1006PNCE   C5B 9073   5.011   3.706   5.356 -0.1562 -0.0019  0.1169
 1006PNCE   C6B 9074   4.798   4.081   5.505  0.0903 -0.0437 -0.1931
 1007PNCE   AM1 9075   5.389  14.504   3.529  0.0364 -0.2661  0.1137
 1007PNCE   AM2 9076   5.075  14.590   3.706 -0.1761  0.2533 -0.1937
 1007PNCE   T1A 9077   5.622  14.730   3.841 -0.0631 -0.2997 -0.0261
 1007PNCE   C2A 9078   5.856  14.631   4.186  0.1029  0.0887 -0.4350
 1007PNCE   C3A 9079   5.860  14.483   4.603  0.4264 -0.0647  0.2579
 1007PNCE   C1B 9080   5.036  14.648   4.151 -0.0915 -0.1018 -0.0764
 1007PNCE   C2B 9081   4.759  14.391   4.447  0.0902  0.0283 -0.3842
 1007PNCE   C3B 9082   4.679  13.958   4.717  0.1602 -0.1389  0.0436
 1007PNCE   D4B 9083   4.775  13.656   4.997  0.2243  0.0606 -0.1694
 1007PNCE   C5B 9084   4.481  13.406   5.203 -0.1156 -0.2143  0.0780
 1007PNCE   C6B 9085   4.078  13.391   4.976 -0.2833 -0.0751  0.0826
 1008CHOL   ROH 9086   7.706   4.902   6.624 -0.3477 -0.1302  0.0281
 1008CHOL    R1 9087   7.565   4.825   6.391 -0.1714 -0.1173 -0.0827
 1008CHOL    R2 9088   7.683   4.816   6.142  0.0100 -0.0773  0.0016
 1008CHOL    R3 9089   7.590   4.561   6.142  0.0347 -0.0860 -0.0949
 1008CHOL    R4 9090   7.561   4.651   5.864  0.2079 -0.0498 -0.1016
 1008CHOL    R5 9091   7.405   4.565   5.990  0.1335 -0.0830 -0.2160
 1008CHOL    C1 9092   7.403   4.314   5.702  0.3466 -0.0427 -0.2520
 1008CHOL    C2 9093   7.445   4.129   5.436 -0.2965  0.0516 -0.2450
 1009CHOL   ROH 9094  12.502  15.891   4.690 -0.3607  0.1767 -0.1625
 1009CHOL    R1 9095  12.517  15.804   4.959 -0.3409  0.1178 -0.1826
 1009CHOL    R2 9096  12.666  15.935   5.150 -0.0117 -0.1509 -0.2555
 1009CHOL    R3 9097  12.431  15.938   5.286  0.0755  0.2147 -0.1125
 1009CHOL    R4 9098  12.637  15.960   5.494  0.2418 -0.3304 -0.2205
 1009CHOL    R5 9099  12.476  15.813   5.485 -0.0496 -0.0105 -0.2263
 1009CHOL    C1 9100  12.399  15.977   5.821  0.4719 -0.0929 -0.0660
 1009CHOL    C2 9101  12.660  16.010   6.210 -0.2836  0.1087 -0.0736
 1010CHOL   ROH 9102   1.579  12.875   4.708  0.2383 -0.2533 -0.0597
 1010CHOL    R1 9103   1.719  12.772   4.931  0.0915 -0.0367  0.1328
 1010CHOL    R2 9104   1.771  12.923   5.157 -0.2927  0.1004  0.1309
 1010CHOL    R3 9105   1.650  12.715   5.284 -0.2388  0.0373  0.0798
 1010CHOL    R4 9106   1.778  12.870   5.498 -0.3341  0.0529  0.1245
 1010CHOL    R5 9107   1.801  12.656   5.460 -0.2490  0.0677  0.0980
 1010CHOL    C1 9108   1.667  12.644   5.817 -0.3078 -0.0331  0.0725
 1010CHOL    C2 9109   1.598  12.403   6.101 -0.1233  0.1829  0.1470
 1011XCA    COO 9110   3.093  10.912   3.871 -0.0253 -0.0999 -0.1436
 1011XCA     C1 9111   2.857  10.770   4.234  0.0048  0.0368  0.1963
 1011XCA     C2 9112   2.825  10.686   4.641 -0.0728 -0.0748 -0.1026
 1011XCA     C3 9113   3.062  10.652   5.002  0.0129 -0.1206  0.1271
 1011XCA     C4 9114   3.279  10.342   5.242  0.0494 -0.2479 -0.4813
 1011XCA     C5 9115   3.125  10.214   5.682  0.2358 -0.1592 -0.2814
 1011XCA     C6 9116   3.050  10.198   6.126 -0.0461 -0.1706 -0.1673
 1012PNCE   AM1 9117   8.898   2.566   4.889 -0.1046 -0.1813  0.0158
 1012PNCE   AM2 9118   8.647   2.465   4.952 -0.0115 -0.0452  0.3244
 1012PNCE   T1A 9119   9.160   2.731   5.290 -0.1888  0.0340 -0.1186
 1012PNCE   C2A 9120   9.254   3.040   5.613  0.1955  0.1231  0.3655
 1012PNCE   C3A 9121   9.500   3.435   5.738 -0.1487 -0.2871 -0.0280
 1012PNCE   C1B 9122   8.790   2.159   5.252 -0.1008  0.2599  0.0535
 1012PNCE   C2B 9123   8.921   1.937   5.552  0.0876 -0.0437 -0.1107
 1012PNCE   C3B 9124   9.216   1.744   5.892  0.1239  0.0801 -0.3439
 1012PNCE   D4B 9125   9.445   1.541   6.170  0.3074 -0.2982 -0.1755
 1012PNCE   C5B 9126   9.764   1.302   6.092 -0.0785 -0.0422 -0.3345
 1012PNCE   C6B 9127  10.105   1.208   5.702  0.0794  0.0442 -0.0154
 1013CHOL   ROH 9128  10.784  14.415   5.462  0.0975 -0.0202 -0.1955
 1013CHOL    R1 9129  10.908  14.480   5.707 -0.1135 -0.0601 -0.0780
 1013CHOL    R2 9130  11.141  14.626   5.722  0.0380 -0.3210  0.1313
 1013CHOL    R3 9131  10.995  14.783   5.889  0.0232 -0.0825 -0.1055
 1013CHOL    R4 9132  11.272  14.872   5.928  0.1078 -0.5479  0.3581
 1013CHOL    R5 9133  11.132  14.808   6.083 -0.2565 -0.3223  0.1242
 1013CHOL    C1 9134  11.209  15.162   6.204  0.1345 -0.4564  0.2672
 1013CHOL    C2 9135  11.337  15.421   6.494  0.1798  0.0472 -0.0046
 1014PNCE   AM1 9136  13.011  10.300   4.321 -0.0296 -0.1897  0.0235
 1014PNCE   AM2 9137  12.992  10.616   4.408 -0.2754 -0.0950  0.2673
 1014PNCE   T1A 9138  12.788   9.967   4.526 -0.1404  0.1164  0.0031
 1014PNCE   C2A 9139  12.706  10.013   4.982 -0.0838 -0.0931 -0.0223
 1014PNCE   C3A 9140  12.625  10.110   5.469 -0.0900 -0.0894  0.0666
 1014PNCE   C1B 9141  12.976  10.579   4.822 -0.0838  0.0111  0.0689
 1014PNCE   C2B 9142  12.792  10.480   5.151  0.2950  0.2361  0.2769
 1014PNCE   C3B 9143  12.499  10.792   5.457 -0.2689  0.2737  0.0937
 1014PNCE   D4B 9144  12.436  11.153   5.595 -0.0944 -0.1052 -0.1849
 1014PNCE   C5B 9145  12.018  11.343   5.502  0.0677  0.1393  0.1406
 1014PNCE   C6B 9146  11.744  11.581   5.390  0.3215 -0.1709  0.3028
 1015XCA    COO 9147   9.529   6.781   4.858  0.1360  0.1909 -0.1413
 1015XCA     C1 9148   9.321   6.664   5.226 -0.2760 -0.2372 -0.0136
 1015XCA     C2 9149   9.297   6.320   5.483  0.0363  0.0969  0.0866
 1015XCA     C3 9150   9.617   6.074   5.711  0.0617  0.3363  0.0724
 1015XCA     C4 9151   9.831   5.751   5.831  0.0208 -0.0507  0.1675
 1015XCA     C5 9152  10.242   5.558   5.782  0.4475  0.0250  0.1652
 1015XCA     C6 9153  10.309   5.440   5.325 -0.1786 -0.1560 -0.0544
 1016CHOL   ROH 9154   4.699   3.835   5.967  0.2244  0.3478 -0.1896
 1016CHOL    R1 9155   4.473   3.990   6.036 -0.0064  0.0671 -0.3126
 1016CHOL    R2 9156   4.487   4.262   6.083 -0.2492 -0.0274  0.3300
 1016CHOL    R3 9157   4.291   4.271   5.895  0.1379  0.2881 -0.0600
 1016CHOL    R4 9158   4.236   4.499   6.071 -0.5491 -0.3340  0.5350
 1016CHOL    R5 9159   4.096   4.341   6.016 -0.2162 -0.3541 -0.2549
 1016CHOL    C1 9160   3.906   4.646   5.888 -0.3600 -0.2167  0.2881
 1016CHOL    C2 9161   3.877   4.959   5.791 -0.0013  0.1624  0.1564
 1017XCA    COO 9162  12.043   1.315   4.442 -0.2003  0.1991  0.0208
 1017XCA     C1 9163  11.820   1.447   4.834  0.1496 -0.2044 -0.1804
 1017XCA     C2 9164  11.877   1.487   5.262  0.2261  0.1163 -0.4498
 1017XCA     C3 9165  11.995   1.348   5.620  0.2623  0.1235 -0.0731
 1017XCA     C4 9166  12.360   1.294   5.952  0.0837 -0.2623  0.2614
 1017XCA     C5 9167  12.624   1.592   6.236 -0.3426  0.0950  0.1810
 1017XCA     C6 9168  12.750   1.984   6.312  0.1583  0.1020 -0.2277
 1018CHOL   ROH 9169   0.831  16.257   5.071 -0.0126  0.1646  0.0893
 1018CHOL    R1 9170   0.676  16.208   5.302 -0.0656  0.1440  0.0496
 1018CHOL    R2 9171   0.677  15.965   5.433 -0.1940  0.0896 -0.0480
 1018CHOL    R3 9172   0.739  16.119   5.649 -0.1519 -0.0242  0.0223
 1018CHOL    R4 9173   0.637  15.868   5.763 -0.2678 -0.0305 -0.0920
 1018CHOL    R5 9174   0.567  16.069   5.809 -0.1892 -0.0200 -0.0162
 1018CHOL    C1 9175   0.672  15.956   6.157 -0.2713 -0.2076 -0.0523
 1018CHOL    C2 9176   0.712  16.061   6.514  0.0506 -0.2767 -0.1759
 1019PNCE   AM1 9177  15.086  10.365   4.631  0.3030  0.2406 -0.0739
 1019PNCE   AM2 9178  15.402  10.402   4.650  0.0317 -0.3532 -0.0614
 1019PNCE   T1A 9179  15.054  10.265   5.076 -0.2155 -0.0494  0.0345
 1019PNCE   C2A 9180  15.062  10.038   5.390 -0.1404 -0.0232 -0.1620
 1019PNCE   C3A 9181  14.718   9.807   5.564 -0.2701  0.1707 -0.0872
 1019PNCE   C1B 9182  15.566  10.402   5.135  0.0560 -0.1864 -0.0301
 1019PNCE   C2B 9183  15.486  10.392   5.505 -0.1066 -0.0031 -0.0211
 1019PNCE   C3B 9184  15.614  10.492   5.869 -0.2359  0.1416  0.0594
 1019PNCE   D4B 9185  15.761  10.817   5.980 -0.2687  0.0465  0.0116
 1019PNCE   C5B 9186  15.430  11.152   5.977  0.0126 -0.3363  0.0103
 1019PNCE   C6B 9187  15.247  11.566   5.951  0.2053 -0.1476  0.0849
 1020XCA    COO 9188   0.188   8.491   7.703 -0.1761  0.0771 -0.1685
 1020XCA     C1 9189   0.002   8.357   7.351  0.1396  0.1553  0.1797
 1020XCA     C2 9190   0.037   8.508   6.913  0.2434 -0.2752  0.1481
 1020XCA     C3 9191   0.176   8.640   6.588  0.1875  0.0344 -0.1472
 1020XCA     C4 9192   0.346   9.118   6.528 -0.0341 -0.1800  0.1008
 1020XCA     C5 9193   0.537   9.460   6.378  0.0282 -0.1239  0.0981
 1020XCA     C6 9194   0.577   9.804   6.769  0.2852 -0.0732  0.3474
 1021PNCE   AM1 9195   0.452   8.575   4.550  0.0288  0.1858 -0.2162
 1021PNCE   AM2 9196   0.173   8.622   4.337  0.0022  0.2619  0.3489
 1021PNCE   T1A 9197   0.434   8.351   4.993  0.3230  0.0381  0.1707
 1021PNCE   C2A 9198   0.190   8.189   5.141 -0.1121  0.2637 -0.0213
 1021PNCE   C3A 9199  -0.113   8.301   5.494  0.2578  0.0498  0.0476
 1021PNCE   C1B 9200  -0.173   8.702   4.477  0.1287  0.1205 -0.0369
 1021PNCE   C2B 9201  -0.566   8.616   4.580  0.2632 -0.3104  0.4028
 1021PNCE   C3B 9202  -1.023   8.450   4.804 -0.1109  0.1333 -0.1000
 1021PNCE   D4B 9203  -1.228   8.295   5.192 -0.2136  0.0334  0.0892
 1021PNCE   C5B 9204  -1.093   7.979   5.410  0.0231 -0.1426 -0.0887
 1021PNCE   C6B 9205  -1.283   7.543   5.325  0.0131 -0.2612 -0.3274
 1022XCA    COO 9206  10.831  15.152   4.839 -0.1394  0.3851 -0.1505
 1022XCA     C1 9207  10.803  15.383   5.240  0.1967 -0.4971 -0.2933
 1022XCA     C2 9208  11.077  15.647   5.431  0.0980  0.0231 -0.0528
 1022XCA     C3 9209  11.524  15.654   5.705 -0.2026  0.0663 -0.1365
 1022XCA     C4 9210  11.779  15.940   5.907  0.2619 -0.1261 -0.2253
 1022XCA     C5 9211  12.049  16.167   6.189 -0.1991  0.0872  0.2745
 1022XCA     C6 9212  11.821  16.152   6.647  0.0353  0.0586 -0.2534
 1023CHOL   ROH 9213   3.265  10.676   5.682 -0.0003 -0.0660  0.0914
 1023CHOL    R1 9214   3.014  10.765   5.587  0.0024 -0.0343  0.1135
 1023CHOL    R2 9215   2.810  10.591   5.519  0.0319 -0.0155 -0.0251
 1023CHOL    R3 9216   2.667  10.741   5.695 -0.0096 -0.1431  0.0511
 1023CHOL    R4 9217   2.476  10.670   5.484 -0.0035 -0.1349  0.0422
 1023CHOL    R5 9218   2.521  10.871   5.556 -0.0761 -0.1459  0.1187
 1023CHOL    C1 9219   2.147  10.858   5.629 -0.0630 -0.3244  0.1527
 1023CHOL    C2 9220   1.909  11.232   5.558 -0.5357  0.2735  0.0874
 1024XCA    COO 9221  11.516   2.382   7.561  0.0372  0.3072  0.1416
 1024XCA     C1 9222  11.888   2.656   7.467 -0.0306 -0.2500  0.3397
 1024XCA     C2 9223  12.131   2.458   7.170  0.0805 -0.2318  0.0544
 1024XCA     C3 9224  12.322   2.514   6.823 -0.0267  0.1150 -0.0608
 1024XCA     C4 9225  12.290   2.805   6.447 -0.0327  0.3014  0.1460
 1024XCA     C5 9226  12.285   2.787   6.050  0.0961  0.3396  0.0353
 1024XCA     C6 9227  12.144   2.807   5.623 -0.2490 -0.0356 -0.1058
 1025CHOL   ROH 9228   1.308   5.669   7.597  0.1160  0.0999  0.0318
 1025CHOL    R1 9229   1.503   5.661   7.392  0.1215 -0.0434  0.0432
 1025CHOL    R2 9230   1.533   5.443   7.226 -0.0307 -0.0648  0.0436
 1025CHOL    R3 9231   1.504   5.629   7.030  0.1193 -0.0412  0.0430
 1025CHOL    R4 9232   1.592   5.387   6.890  0.2302 -0.0231  0.0823
 1025CHOL    R5 9233   1.684   5.584   6.878  0.2374 -0.0207  0.1774
 1025CHOL    C1 9234   1.599   5.529   6.510  0.5228  0.0230  0.1044
 1025CHOL    C2 9235   1.446   5.618   6.154  0.0847  0.1651  0.1725
 1026CHOL   ROH 9236   3.397  14.712   4.580  0.2755  0.0668  0.0273
 1026CHOL    R1 9237   3.395  14.565   4.821  0.0501  0.1168  0.0551
 1026CHOL    R2 9238   3.626  14.473   4.941 -0.0841 -0.1252  0.1271
 1026CHOL    R3 9239   3.529  14.606   5.157  0.0189  0.0282  0.0783
 1026CHOL    R4 9240   3.664  14.371   5.270 -0.0170  0.0534  0.1748
 1026CHOL    R5 9241   3.458  14.433   5.307  0.0123  0.1359  0.1998
 1026CHOL    C1 9242   3.595  14.438   5.664  0.1187  0.3027  0.1570
 1026CHOL    C2 9243   3.667  14.396   6.065  0.0547  0.0023 -0.1480
 1027PNCE   AM1 9244   4.775   6.238   4.264 -0.1997 -0.0226  0.2043
 1027PNCE   AM2 9245   4.970   6.073   4.491 -0.1014 -0.0780 -0.0099
 1027PNCE   T1A 9246   4.379   6.279   4.425  0.0351 -0.0228  0.2365
 1027PNCE   C2A 9247   4.050   6.211   4.752 -0.0415 -0.0676 -0.2397
 1027PNCE   C3A 9248   3.569   6.280   5.095  0.2063  0.0866  0.0555
 1027PNCE   C1B 9249   4.746   6.261   4.819  0.1783  0.0677 -0.0504
 1027PNCE   C2B 9250   4.837   6.595   5.149 -0.0342 -0.1977 -0.0162
 1027PNCE   C3B 9251   4.591   6.863   5.412 -0.1812 -0.0945 -0.0586
 1027PNCE   D4B 9252   4.407   6.934   5.773  0.0239  0.4162 -0.0831
 1027PNCE   C5B 9253   3.984   6.798   5.844 -0.1005 -0.0541 -0.0364
 1027PNCE   C6B 9254   3.783   6.467   5.904 -0.3813  0.1767 -0.2099
 1028CHOL   ROH 9255   2.351   0.175   5.124  0.2208 -0.2090  0.0531
 1028CHOL    R1 9256   2.175   0.024   5.286  0.2236 -0.2065  0.0579
 1028CHOL    R2 9257   2.211  -0.005   5.558  0.1017 -0.0155  0.0943
 1028CHOL    R3 9258   1.956   0.088   5.569  0.0438 -0.1518 -0.0930
 1028CHOL    R4 9259   1.978  -0.095   5.797  0.0990  0.1707  0.1626
 1028CHOL    R5 9260   1.827  -0.101   5.640  0.1395 -0.1326  0.1335
 1028CHOL    C1 9261   1.602  -0.061   5.946  0.0429  0.1518  0.0263
 1028CHOL    C2 9262   1.316  -0.044   6.213 -0.1134  0.0378  0.1406
 1029PNCE   AM1 9263  12.138   8.801   4.107 -0.0452 -0.3986 -0.3861
 1029PNCE   AM2 9264  12.419   8.926   3.883  0.1687  0.2532  0.1225
 1029PNCE   T1A 9265  12.102   9.154   4.329  0.0972 -0.2105  0.1175
 1029PNCE   C2A 9266  11.939   9.438   4.647 -0.3182 -0.3261  0.1598
 1029PNCE   C3A 9267  11.589   9.175   4.783 -0.2165  0.1559 -0.2458
 1029PNCE   C1B 9268  12.592   8.979   4.397  0.1782 -0.0653 -0.0130
 1029PNCE   C2B 9269  12.731   9.050   4.855  0.0367  0.1801 -0.2054
 1029PNCE   C3B 9270  12.698   9.096   5.277  0.1059  0.1508  0.1443
 1029PNCE   D4B 9271  12.601   9.055   5.704 -0.1535  0.2772  0.4069
 1029PNCE   C5B 9272  12.239   9.240   5.748 -0.0598 -0.2292  0.2366
 1029PNCE   C6B 9273  11.901   9.365   5.695  0.1288 -0.1245  0.4271
 1030XCA    COO 9274   0.965  13.261   8.010  0.0468 -0.1454  0.2716
 1030XCA     C1 9275   0.966  13.465   7.585 -0.0416 -0.3221 -0.1749
 1030XCA     C2 9276   0.977  13.445   7.143  0.2457  0.0489  0.2327
 1030XCA     C3 9277   0.560  13.545   6.927  0.2132 -0.0409 -0.1735
 1030XCA     C4 9278   0.172  13.704   7.022 -0.0590  0.0461 -0.1639
 1030XCA     C5 9279  -0.237  14.004   7.025  0.2278  0.0547 -0.2167
 1030XCA     C6 9280  -0.686  13.990   6.949  0.0129 -0.2593  0.0531
 1031CHOL   ROH 9281   1.118  12.238   7.909  0.1529  0.2685  0.1607
 1031CHOL    R1 9282   1.004  12.126   7.676  0.0756  0.0315  0.3126
 1031CHOL    R2 9283   0.745  12.029   7.668  0.0061  0.2068  0.4413
 1031CHOL    R3 9284   0.722  12.199   7.457  0.1312 -0.0650  0.2089
 1031CHOL    R4 9285   0.459  12.071   7.479  0.0185  0.2031  0.4218
 1031CHOL    R5 9286   0.584  12.081   7.301  0.0036 -0.1564  0.3910
 1031CHOL    C1 9287   0.270  12.254   7.171  0.1432 -0.0534  0.1921
 1031CHOL    C2 9288   0.018  12.065   6.938  0.2593  0.0748 -0.2021
 1032PNCE   AM1 9289  13.687  11.355   4.661 -0.0432 -0.1775 -0.1908
 1032PNCE   AM2 9290  13.368  11.490   4.673  0.2316 -0.0635  0.2607
 1032PNCE   T1A 9291  13.642  11.046   5.063  0.0708 -0.0938 -0.0547
 1032PNCE   C2A 9292  13.768  10.573   5.275 -0.3665 -0.0471 -0.0877
 1032PNCE   C3A 9293  13.738  10.363   5.565 -0.3765  0.1955  0.0010
 1032PNCE   C1B 9294  13.075  11.544   4.911  0.0823 -0.2926 -0.2378
 1032PNCE   C2B 9295  13.041  11.664   5.333 -0.1456  0.0718  0.3310
 1032PNCE   C3B 9296  12.733  11.745   5.664  0.1409 -0.1775  0.2216
 1032PNCE   D4B 9297  12.653  11.399   6.000 -0.2471 -0.0310  0.0973
 1032PNCE   C5B 9298  12.856  11.318   6.398 -0.0234 -0.2221  0.3071
 1032PNCE   C6B 9299  13.122  11.562   6.644  0.0033 -0.1534  0.1214
 1033PNCE   AM1 9300   4.281  15.163   7.817 -0.2530  0.1331  0.1025
 1033PNCE   AM2 9301   4.024  15.348   7.821 -0.0659 -0.0986 -0.1797
 1033PNCE   T1A 9302   4.158  14.919   7.473  0.1889  0.0933  0.2829
 1033PNCE   C2A 9303   4.041  14.938   7.003 -0.0664 -0.2032  0.0629
 1033PNCE   C3A 9304   3.835  15.135   6.744  0.0373 -0.0796  0.0665
 1033PNCE   C1B 9305   3.949  15.393   7.445  0.1191 -0.0134  0.0879
 1033PNCE   C2B 9306   3.996  15.495   7.022 -0.0420  0.0001 -0.1681
 1033PNCE   C3B 9307   3.993  15.641   6.648  0.0155  0.0281 -0.0118
 1033PNCE   D4B 9308   3.958  15.450   6.331  0.2231 -0.3067 -0.0257
 1033PNCE   C5B 9309   4.180  15.589   5.990 -0.0042 -0.1031  0.0350
 1033PNCE   C6B 9310   4.291  15.659   5.578 -0.0045  0.2332  0.0202
 1034PNCE   AM1 9311   9.845   7.458   4.251 -0.1003  0.2006 -0.1269
 1034PNCE   AM2 9312   9.500   7.545   4.274 -0.0324 -0.3154  0.0632
 1034PNCE   T1A 9313  10.236   7.347   4.453 -0.2303  0.1753 -0.0264
 1034PNCE   C2A 9314  10.348   7.368   4.825 -0.2622 -0.0239 -0.0198
 1034PNCE   C3A 9315  10.349   7.580   5.151 -0.3456  0.1080 -0.0483
 1034PNCE   C1B 9316   9.394   7.825   4.581  0.0554  0.0254  0.0720
 1034PNCE   C2B 9317   9.564   8.043   4.909  0.0003  0.0136 -0.3328
 1034PNCE   C3B 9318   9.968   7.981   5.132 -0.0303 -0.0245 -0.1481
 1034PNCE   D4B 9319  10.240   7.990   5.448  0.2512 -0.0022  0.3976
 1034PNCE   C5B 9320   9.996   7.844   5.712 -0.3025  0.0478  0.3330
 1034PNCE   C6B 9321  10.162   7.463   5.911 -0.1907  0.2490 -0.3168
 1035CHOL   ROH 9322   7.924   8.639   4.144  0.1787 -0.1892  0.0300
 1035CHOL    R1 9323   7.988   8.675   4.417  0.0734 -0.0110  0.0317
 1035CHOL    R2 9324   7.858   8.859   4.578 -0.1298 -0.0513 -0.0860
 1035CHOL    R3 9325   7.815   8.642   4.736  0.0162 -0.0176 -0.0002
 1035CHOL    R4 9326   7.821   8.869   4.921 -0.1388  0.0601 -0.0901
 1035CHOL    R5 9327   7.941   8.688   4.935 -0.0155  0.1469 -0.0176
 1035CHOL    C1 9328   7.760   8.672   5.270 -0.0069  0.1567 -0.0120
 1035CHOL    C2 9329   7.706   8.761   5.726 -0.2220  0.2992 -0.2629
 1036PNCE   AM1 9330  11.672  16.290   4.680 -0.0427  0.1736  0.1291
 1036PNCE   AM2 9331  11.390  16.179   4.767 -0.1186  0.3513  0.2401
 1036PNCE   T1A 9332  11.861  16.454   4.998 -0.1251 -0.0942 -0.1381
 1036PNCE   C2A 9333  12.133  16.807   5.218  0.2035 -0.1631 -0.2584
 1036PNCE   C3A 9334  12.530  16.899   5.393  0.0105 -0.1434  0.1951
 1036PNCE   C1B 9335  11.366  16.266   5.155 -0.0280  0.2175  0.1972
 1036PNCE   C2B 9336  11.610  16.336   5.525  0.0313  0.1709  0.0840
 1036PNCE   C3B 9337  11.665  16.425   5.972  0.0735  0.1091 -0.1377
 1036PNCE   D4B 9338  11.821  16.542   6.347 -0.1927  0.0857 -0.0107
 1036PNCE   C5B 9339  11.473  16.496   6.695 -0.3390 -0.1154  0.3398
 1036PNCE   C6B 9340  11.429  16.776   7.058  0.1347  0.1045  0.1486
 1037XCA    COO 9341   1.346  12.983   8.100 -0.2152 -0.0121  0.0095
 1037XCA     C1 9342   1.347  13.180   7.685  0.2865  0.0359 -0.1229
 1037XCA     C2 9343   1.316  13.012   7.238 -0.1077  0.0784  0.4597
 1037XCA     C3 9344   1.186  12.786   6.883 -0.1743  0.1594  0.3464
 1037XCA     C4 9345   1.065  12.713   6.492 -0.3154 -0.1288  0.0144
 1037XCA     C5 9346   1.193  12.698   6.030  0.2895 -0.0735 -0.0642
 1037XCA     C6 9347   1.182  12.423   5.824  0.1508 -0.3316 -0.1777
 1038PNCE   AM1 9348  15.626  11.762   4.558 -0.1552  0.1022  0.1653
 1038PNCE   AM2 9349  15.398  11.905   4.489 -0.0771  0.0623  0.1945
 1038PNCE   T1A 9350  15.717  11.538   5.052 -0.0321 -0.3657 -0.0176
 1038PNCE   C2A 9351  15.645  11.021   5.251  0.2283  0.2104  0.1125
 1038PNCE   C3A 9352  15.561  10.868   5.529 -0.1580  0.1380 -0.0973
 1038PNCE   C1B 9353  15.187  12.035   4.915  0.0129 -0.0986 -0.1391
 1038PNCE   C2B 9354  15.364  12.018   5.245 -0.0901 -0.1169 -0.2899
 1038PNCE   C3B 9355  15.584  12.126   5.651  0.1854  0.0361 -0.2580
 1038PNCE   D4B 9356  15.692  12.357   6.058  0.2137 -0.3927 -0.3059
 1038PNCE   C5B 9357  15.463  12.407   6.548 -0.0456 -0.0105 -0.0992
 1038PNCE   C6B 9358  15.028  12.492   6.750  0.0960  0.0151 -0.0339
 1039CHOL   ROH 9359   8.462  10.724   7.996 -0.3775 -0.0198  0.1871
 1039CHOL    R1 9360   8.228  10.677   7.844 -0.3133 -0.0324  0.0916
 1039CHOL    R2 9361   8.236  10.607   7.577 -0.2017 -0.0057  0.0878
 1039CHOL    R3 9362   8.083  10.398   7.660 -0.2092 -0.0312  0.0087
 1039CHOL    R4 9363   8.013  10.433   7.378 -0.2184  0.0877  0.0257
 1039CHOL    R5 9364   7.875  10.427   7.546 -0.2127  0.0262  0.0286
 1039CHOL    C1 9365   7.740  10.135   7.340 -0.2364  0.1181 -0.0846
 1039CHOL    C2 9366   7.872   9.880   7.046 -0.0641 -0.2516  0.0618
 1040CHOL   ROH 9367  14.361   1.459   6.153 -0.1095  0.3386  0.2708
 1040CHOL    R1 9368  14.422   1.500   6.426  0.2122  0.1067  0.2348
 1040CHOL    R2 9369  14.311   1.348   6.628  0.1010  0.2346  0.2691
 1040CHOL    R3 9370  14.570   1.306   6.696  0.0822 -0.2905  0.0215
 1040CHOL    R4 9371  14.416   1.212   6.927  0.1163  0.1361  0.2186
 1040CHOL    R5 9372  14.579   1.357   6.930  0.4296 -0.2097 -0.0088
 1040CHOL    C1 9373  14.722   1.093   7.166  0.1087 -0.4141 -0.0430
 1040CHOL    C2 9374  14.805   0.975   7.520  0.1684 -0.0504  0.1983
 1041CHOL   ROH 9375   5.881  11.260   6.954  0.1116 -0.0503  0.2251
 1041CHOL    R1 9376   6.129  11.126   6.951  0.1287 -0.0148  0.0460
 1041CHOL    R2 9377   6.265  11.058   7.182  0.3073  0.0089 -0.0515
 1041CHOL    R3 9378   6.260  10.809   7.074  0.2635  0.0063 -0.0436
 1041CHOL    R4 9379   6.439  10.786   7.306  0.2666 -0.0167 -0.0477
 1041CHOL    R5 9380   6.484  10.729   7.100  0.2513 -0.0300 -0.0472
 1041CHOL    C1 9381   6.536  10.394   7.275  0.2014 -0.0334 -0.0384
 1041CHOL    C2 9382   6.815  10.161   7.136  0.0579  0.1828 -0.0985
 1042PNCE   AM1 9383  13.399  10.414   4.642 -0.1571  0.0260  0.0808
 1042PNCE   AM2 9384  13.508  10.330   4.373 -0.1237 -0.3244 -0.0241
 1042PNCE   T1A 9385  13.445  10.404   5.043  0.0492 -0.1010 -0.0797
 1042PNCE   C2A 9386  13.248  10.534   5.418 -0.3293 -0.1090  0.3960
 1042PNCE   C3A 9387  12.846  10.519   5.721  0.3619 -0.3821 -0.2251
 1042PNCE   C1B 9388  13.817  10.065   4.679  0.2060 -0.2656  0.1552
 1042PNCE   C2B 9389  13.714   9.962   5.088  0.1249  0.1028 -0.0955
 1042PNCE   C3B 9390  13.804   9.763   5.541  0.1650 -0.1525  0.1652
 1042PNCE   D4B 9391  14.106   9.609   5.735 -0.3316 -0.1134  0.2419
 1042PNCE   C5B 9392  14.530   9.317   5.661 -0.0460  0.4039 -0.1427
 1042PNCE   C6B 9393  14.850   9.046   5.918 -0.0391 -0.2309 -0.1586
 1043PNCE   AM1 9394   6.300  14.714   4.398 -0.0409  0.2412 -0.3558
 1043PNCE   AM2 9395   6.060  14.986   4.498  0.0413  0.2232 -0.2237
 1043PNCE   T1A 9396   6.592  14.619   4.798  0.2421  0.0656  0.1964
 1043PNCE   C2A 9397   6.694  14.494   5.232 -0.1108 -0.0568 -0.0624
 1043PNCE   C3A 9398   6.515  14.375   5.609 -0.2700  0.2633  0.1427
 1043PNCE   C1B 9399   6.120  14.730   4.953  0.1574 -0.0934  0.0083
 1043PNCE   C2B 9400   6.086  14.532   5.326  0.0755 -0.2040 -0.0962
 1043PNCE   C3B 9401   5.755  14.550   5.544 -0.1180 -0.0285  0.1216
 1043PNCE   D4B 9402   5.375  14.739   5.581  0.3116 -0.0657  0.2781
 1043PNCE   C5B 9403   5.093  14.462   5.734  0.2325  0.3363  0.2679
 1043PNCE   C6B 9404   5.077  13.988   5.645 -0.0797  0.1022 -0.0013
 1044PNCE   AM1 9405   7.622  12.215   4.924  0.0342  0.0454 -0.4323
 1044PNCE   AM2 9406   7.564  12.418   4.671 -0.1436  0.0308 -0.3527
 1044PNCE   T1A 9407   7.523  12.132   5.315 -0.0167 -0.1913 -0.1206
 1044PNCE   C2A 9408   7.251  12.189   5.686  0.1744 -0.1975  0.1453
 1044PNCE   C3A 9409   6.881  12.214   5.881  0.2211  0.0326  0.0266
 1044PNCE   C1B 9410   7.316  12.575   4.959  0.1939  0.1039 -0.0977
 1044PNCE   C2B 9411   7.240  12.690   5.428  0.0337  0.0558  0.2947
 1044PNCE   C3B 9412   7.116  12.682   5.905 -0.1777  0.0235 -0.1078
 1044PNCE   D4B 9413   6.873  13.042   6.152  0.2566 -0.0568 -0.0218
 1044PNCE   C5B 9414   7.226  13.203   6.382  0.1471  0.3451  0.0509
 1044PNCE   C6B 9415   7.384  13.163   6.796 -0.2503  0.0803  0.1718
 1045CHOL   ROH 9416  14.529  10.299   7.325  0.1780  0.1604 -0.0472
 1045CHOL    R1 9417  14.498  10.185   7.068  0.0978  0.1535 -0.0346
 1045CHOL    R2 9418  14.253  10.102   6.971  0.0760  0.1010  0.0649
 1045CHOL    R3 9419  14.315  10.266   6.763 -0.0428  0.1148  0.0397
 1045CHOL    R4 9420  14.047  10.165   6.700  0.0143 -0.0601  0.0739
 1045CHOL    R5 9421  14.223  10.157   6.571  0.0095  0.0334  0.0606
 1045CHOL    C1 9422  13.986  10.356   6.348 -0.1332 -0.1419  0.0553
 1045CHOL    C2 9423  13.769  10.498   6.038 -0.0703  0.4477  0.1970
 1046CHOL   ROH 9424  16.154  11.611   7.431 -0.1239  0.0152 -0.0598
 1046CHOL    R1 9425  16.141  11.893   7.452  0.0057  0.0129  0.0608
 1046CHOL    R2 9426  16.175  12.026   7.691  0.2568 -0.0939  0.0849
 1046CHOL    R3 9427  16.365  12.161   7.552  0.1962 -0.1151 -0.0213
 1046CHOL    R4 9428  16.181  12.369   7.646  0.1020 -0.1264 -0.1836
 1046CHOL    R5 9429  16.245  12.335   7.440  0.1163 -0.2580 -0.1576
 1046CHOL    C1 9430  16.364  12.695   7.489 -0.0479 -0.1653 -0.4392
 1046CHOL    C2 9431  16.522  13.067   7.550  0.2062 -0.0240 -0.1270
 1047PNCE   AM1 9432  15.379  13.266   4.524 -0.0124  0.2747  0.0406
 1047PNCE   AM2 9433  15.134  13.036   4.562  0.1433 -0.1523  0.3073
 1047PNCE   T1A 9434  15.660  13.309   4.833 -0.2343  0.2848 -0.2503
 1047PNCE   C2A 9435  15.869  13.624   5.147 -0.1657 -0.1047  0.1653
 1047PNCE   C3A 9436  15.652  13.810   5.562 -0.0231  0.2776 -0.0147
 1047PNCE   C1B 9437  15.074  13.234   4.953  0.0565 -0.0022  0.0967
 1047PNCE   C2B 9438  14.948  13.212   5.342  0.2802 -0.1710 -0.0737
 1047PNCE   C3B 9439  15.234  12.972   5.482  0.0580 -0.0588  0.1131
 1047PNCE   D4B 9440  15.386  12.867   5.904  0.0536 -0.2288 -0.1073
 1047PNCE   C5B 9441  15.142  13.169   6.259  0.0046 -0.0933 -0.3075
 1047PNCE   C6B 9442  15.070  13.622   6.344  0.2228  0.1077 -0.0555
 1048CHOL   ROH 9443  10.980   1.877   6.855  0.3939  0.1349  0.1239
 1048CHOL    R1 9444  10.792   2.035   6.996  0.2213  0.0150  0.0308
 1048CHOL    R2 9445  10.805   2.311   7.001  0.0934  0.0190  0.1101
 1048CHOL    R3 9446  10.548   2.292   6.914  0.1650 -0.0741 -0.0775
 1048CHOL    R4 9447  10.584   2.576   6.979 -0.0033 -0.0707 -0.0010
 1048CHOL    R5 9448  10.426   2.444   7.053  0.0000 -0.1506 -0.1376
 1048CHOL    C1 9449  10.214   2.712   6.884  0.0076 -0.2100 -0.2412
 1048CHOL    C2 9450  10.133   3.099   6.753  0.0609  0.0326 -0.0639
 1049CHOL   ROH 9451  13.591  13.650   4.836  0.2946 -0.1771  0.0744
 1049CHOL    R1 9452  13.633  13.570   5.104  0.3657 -0.0086  0.1132
 1049CHOL    R2 9453  13.800  13.708   5.276  0.1139  0.3198  0.0957
 1049CHOL    R3 9454  13.579  13.713   5.435  0.0721  0.0320  0.0478
 1049CHOL    R4 9455  13.792  13.827   5.601 -0.1092  0.2995  0.0985
 1049CHOL    R5 9456  13.661  13.661   5.654  0.0920  0.1302  0.0637
 1049CHOL    C1 9457  13.581  13.901   5.938 -0.2777  0.0180  0.0549
 1049CHOL    C2 9458  13.592  13.710   6.242 -0.4443 -0.2123 -0.0828
 1050CHOL   ROH 9459   0.921   3.324   6.386 -0.1099  0.0241  0.1619
 1050CHOL    R1 9460   1.002   3.519   6.197 -0.0346 -0.0294  0.1385
 1050CHOL    R2 9461   1.197   3.706   6.250  0.0274 -0.0896  0.1216
 1050CHOL    R3 9462   1.309   3.608   6.023  0.0037 -0.1593  0.1401
 1050CHOL    R4 9463   1.499   3.810   6.117 -0.1376  0.0925 -0.1113
 1050CHOL    R5 9464   1.410   3.798   5.919 -0.2287 -0.1431 -0.0572
 1050CHOL    C1 9465   1.779   3.778   5.826 -0.2560  0.1333 -0.2298
 1050CHOL    C2 9466   2.178   3.914   5.768  0.0859 -0.1516 -0.1962
 1051CHOL   ROH 9467  11.882  13.804   8.110 -0.2065  0.2771  0.0531
 1051CHOL    R1 9468  11.874  13.877   7.837 -0.1593 -0.2017 -0.0768
 1051CHOL    R2 9469  12.041  14.068   7.729 -0.6338  0.1292 -0.2280
 1051CHOL    R3 9470  12.102  13.869   7.554  0.1453  0.0239  0.1618
 1051CHOL    R4 9471  12.118  14.116   7.395 -0.6652 -0.2079 -0.2835
 1051CHOL    R5 9472  12.001  13.938   7.348 -0.0157 -0.7133 -0.0067
 1051CHOL    C1 9473  12.221  13.956   7.037  0.0473 -0.5022  0.0502
 1051CHOL    C2 9474  12.114  14.195   6.658 -0.0055 -0.3573 -0.3749
 1052CHOL   ROH 9475   9.832  15.315   6.884  0.1629  0.1115  0.0427
 1052CHOL    R1 9476   9.792  15.037   6.914  0.1421  0.0939 -0.1569
 1052CHOL    R2 9477   9.872  14.854   6.724  0.3859  0.2010 -0.1587
 1052CHOL    R3 9478  10.003  14.740   6.933  0.1358  0.0953 -0.0606
 1052CHOL    R4 9479   9.953  14.519   6.748  0.3061  0.1783 -0.2062
 1052CHOL    R5 9480   9.899  14.526   6.959  0.0734  0.1011 -0.2627
 1052CHOL    C1 9481  10.123  14.217   6.958  0.0253  0.0662 -0.1407
 1052CHOL    C2 9482  10.257  13.875   6.810  0.1016 -0.0974  0.0028
 1053CHOL   ROH 9483  12.930  15.026   8.442  0.0073  0.1266 -0.0099
 1053CHOL    R1 9484  12.838  15.091   8.183  0.0954 -0.2899 -0.1450
 1053CHOL    R2 9485  12.858  15.345   8.077 -0.5329 -0.2878 -0.2670
 1053CHOL    R3 9486  12.984  15.216   7.873  0.0640 -0.0379 -0.0590
 1053CHOL    R4 9487  12.958  15.493   7.781 -0.4883 -0.1240 -0.1700
 1053CHOL    R5 9488  12.893  15.314   7.675  0.0949 -0.3161 -0.2112
 1053CHOL    C1 9489  13.135  15.457   7.418  0.0975  0.2067  0.0815
 1053CHOL    C2 9490  13.440  15.441   7.195  0.1758 -0.1526 -0.3837
 1054PNCE   AM1 9491   2.778   0.212   4.975  0.1881 -0.1616  0.0795
 1054PNCE   AM2 9492   2.694  -0.110   4.828  0.1967 -0.0337  0.0166
 1054PNCE   T1A 9493   2.931   0.647   5.078  0.0991  0.0033  0.2915
 1054PNCE   C2A 9494   3.124   1.065   5.284 -0.0257  0.0873 -0.0617
 1054PNCE   C3A 9495   3.482   1.228   5.476 -0.0427 -0.1324  0.3837
 1054PNCE   C1B 9496   2.781  -0.432   5.096 -0.2647 -0.1541 -0.0018
 1054PNCE   C2B 9497   2.676  -0.386   5.496  0.0970 -0.1494 -0.2936
 1054PNCE   C3B 9498   2.920  -0.186   5.848 -0.0314  0.3054  0.2093
 1054PNCE   D4B 9499   3.356  -0.023   5.803  0.2731 -0.1187 -0.1534
 1054PNCE   C5B 9500   3.668  -0.176   5.625  0.0224  0.1961 -0.0131
 1054PNCE   C6B 9501   4.030  -0.251   5.684 -0.0439 -0.1903 -0.3259
 1055CHOL   ROH 9502   0.799  15.584   8.357 -0.0741  0.1625  0.1573
 1055CHOL    R1 9503   0.682  15.721   8.139 -0.0477  0.0858  0.0954
 1055CHOL    R2 9504   0.717  15.992   8.098 -0.0305  0.0686 -0.0032
 1055CHOL    R3 9505   0.801  15.911   7.852 -0.0125 -0.0277  0.0347
 1055CHOL    R4 9506   0.663  16.166   7.804  0.2587  0.1059 -0.0346
 1055CHOL    R5 9507   0.623  15.976   7.704  0.1104  0.1402 -0.0401
 1055CHOL    C1 9508   0.711  16.191   7.402  0.4440  0.0359 -0.0172
 1055CHOL    C2 9509   0.817  16.611   7.203  0.0619  0.0956 -0.1040
 1056PNCE   AM1 9510   7.276   1.896   8.573 -0.3436  0.0305  0.3387
 1056PNCE   AM2 9511   7.514   1.740   8.360 -0.0808 -0.0245  0.0347
 1056PNCE   T1A 9512   6.886   1.772   8.284 -0.2663  0.1552  0.0729
 1056PNCE   C2A 9513   6.633   1.884   7.906 -0.0664 -0.0610 -0.0361
 1056PNCE   C3A 9514   6.577   1.874   7.530  0.1324  0.1387 -0.1785
 1056PNCE   C1B 9515   7.332   1.792   7.993  0.2969  0.2383  0.1494
 1056PNCE   C2B 9516   7.115   1.767   7.566 -0.2510 -0.1344  0.1193
 1056PNCE   C3B 9517   6.946   1.835   7.197 -0.0501 -0.1603 -0.1769
 1056PNCE   D4B 9518   6.856   1.734   6.739  0.5118  0.1202 -0.0814
 1056PNCE   C5B 9519   6.654   2.109   6.579  0.1678 -0.0482  0.3247
 1056PNCE   C6B 9520   6.532   2.565   6.320 -0.1519  0.3498  0.1436
 1057CHOL   ROH 9521  10.561  16.126   7.614  0.0903 -0.1271 -0.0186
 1057CHOL    R1 9522  10.438  16.251   7.391  0.1431 -0.1259 -0.0460
 1057CHOL    R2 9523  10.256  16.120   7.229  0.0630 -0.0743  0.0030
 1057CHOL    R3 9524  10.099  16.334   7.289  0.1801  0.0258 -0.0476
 1057CHOL    R4 9525   9.985  16.224   7.042  0.1550  0.0648 -0.0536
 1057CHOL    R5 9526  10.047  16.431   7.076  0.2728  0.0315 -0.0672
 1057CHOL    C1 9527   9.679  16.485   6.989  0.3189  0.2400 -0.1338
 1057CHOL    C2 9528   9.308  16.671   7.141  0.0539 -0.1685 -0.0129
 1058PNCE   AM1 9529  10.572  14.870   5.277  0.0626 -0.1504  0.0698
 1058PNCE   AM2 9530  10.400  14.589   5.188 -0.3736 -0.1205  0.0502
 1058PNCE   T1A 9531  10.736  15.098   5.621 -0.1584 -0.1706  0.2605
 1058PNCE   C2A 9532  10.907  15.271   5.863  0.0958 -0.0953  0.1143
 1058PNCE   C3A 9533  11.151  15.584   6.038  0.3105 -0.1364  0.2504
 1058PNCE   C1B 9534  10.401  14.564   5.686  0.0496 -0.0173  0.2268
 1058PNCE   C2B 9535  10.184  14.509   6.085 -0.1897  0.1937  0.0403
 1058PNCE   C3B 9536  10.011  14.828   6.303  0.1031 -0.0367  0.0376
 1058PNCE   D4B 9537   9.614  14.893   6.340 -0.1216 -0.2438  0.3386
 1058PNCE   C5B 9538   9.389  14.728   6.732  0.0647 -0.0669 -0.0419
 1058PNCE   C6B 9539   9.477  14.643   7.130  0.0162 -0.0937 -0.1703
 1059CHOL   ROH 9540  13.166  12.042   5.022 -0.0777  0.1204  0.0121
 1059CHOL    R1 9541  13.372  11.938   5.186 -0.1030  0.0110 -0.0253
 1059CHOL    R2 9542  13.471  12.075   5.404  0.0176 -0.0371 -0.0503
 1059CHOL    R3 9543  13.411  11.845   5.535 -0.0868  0.0018 -0.0295
 1059CHOL    R4 9544  13.619  11.972   5.699  0.0982 -0.1640 -0.1349
 1059CHOL    R5 9545  13.621  11.769   5.621 -0.0992 -0.1621 -0.1466
 1059CHOL    C1 9546  13.647  11.696   5.994  0.0468 -0.2011 -0.1646
 1059CHOL    C2 9547  13.569  11.542   6.382 -0.1399  0.0954  0.2208
 1060PNCE   AM1 9548  10.068   5.642   3.700 -0.1660  0.0521  0.0660
 1060PNCE   AM2 9549  10.308   5.745   3.885 -0.0565 -0.0781  0.0763
 1060PNCE   T1A 9550  10.082   5.285   3.960  0.0276 -0.1285 -0.2358
 1060PNCE   C2A 9551  10.189   5.134   4.336  0.2151  0.0591 -0.0754
 1060PNCE   C3A 9552  10.304   5.231   4.732 -0.2370 -0.3432  0.1708
 1060PNCE   C1B 9553  10.332   6.128   4.131 -0.1680 -0.1218  0.0749
 1060PNCE   C2B 9554  10.309   6.330   4.510  0.0731 -0.0435  0.0086
 1060PNCE   C3B 9555  10.275   6.503   4.984  0.2584  0.2359  0.0233
 1060PNCE   D4B 9556  10.332   6.411   5.333  0.1162  0.0605  0.0589
 1060PNCE   C5B 9557  10.212   6.750   5.558  0.2758 -0.2181 -0.0656
 1060PNCE   C6B 9558   9.956   7.025   5.905 -0.1389  0.0056  0.0545
 1061PNCE   AM1 9559   0.830  15.866   4.750  0.0197 -0.1570 -0.0726
 1061PNCE   AM2 9560   1.133  15.922   4.623 -0.1564 -0.3711  0.1896
 1061PNCE   T1A 9561   1.063  15.745   5.131 -0.1051 -0.1855  0.1505
 1061PNCE   C2A 9562   1.186  15.910   5.504  0.1504 -0.2480 -0.0364
 1061PNCE   C3A 9563   1.119  15.915   5.955 -0.1231  0.1952  0.0016
 1061PNCE   C1B 9564   1.273  16.230   4.928  0.0199 -0.0688  0.0079
 1061PNCE   C2B 9565   1.123  16.691   5.014  0.3145  0.1520  0.1354
 1061PNCE   C3B 9566   0.973  17.162   5.101  0.1242 -0.0732 -0.0041
 1061PNCE   D4B 9567   0.558  17.336   5.405 -0.1289 -0.0350  0.1719
 1061PNCE   C5B 9568   0.499  17.060   5.690  0.2874  0.1111  0.0752
 1061PNCE   C6B 9569   0.593  16.931   6.107  0.5444 -0.1198  0.0884
 1062CHOL   ROH 9570  10.483  12.690   6.641 -0.0417  0.1888  0.1034
 1062CHOL    R1 9571  10.427  12.515   6.856 -0.0577  0.1292  0.0503
 1062CHOL    R2 9572  10.475  12.582   7.120  0.0224  0.0136  0.0649
 1062CHOL    R3 9573  10.213  12.518   7.151  0.0061  0.0948  0.0966
 1062CHOL    R4 9574  10.328  12.492   7.419  0.0463 -0.0100  0.0699
 1062CHOL    R5 9575  10.214  12.341   7.312 -0.0248  0.0553  0.0536
 1062CHOL    C1 9576   9.996  12.379   7.623  0.0452  0.0529  0.1027
 1062CHOL    C2 9577  10.146  12.141   7.855 -0.0560  0.0727 -0.2929
 1063PNCE   AM1 9578   6.858  11.549   4.237  0.1490 -0.0173  0.2605
 1063PNCE   AM2 9579   6.871  11.794   4.485  0.1363  0.1808 -0.0443
 1063PNCE   T1A 9580   7.042  11.341   4.632  0.1618  0.0191 -0.0193
 1063PNCE   C2A 9581   7.195  11.295   5.143 -0.0059  0.1890 -0.4266
 1063PNCE   C3A 9582   7.248  11.719   5.309 -0.2295  0.2354 -0.1995
 1063PNCE   C1B 9583   6.861  11.713   4.862 -0.0468 -0.0400  0.0607
 1063PNCE   C2B 9584   6.663  11.808   5.096  0.2360 -0.0801 -0.2012
 1063PNCE   C3B 9585   6.311  11.647   5.296 -0.1516 -0.2770  0.0441
 1063PNCE   D4B 9586   6.026  11.662   5.654 -0.0705 -0.1719  0.1112
 1063PNCE   C5B 9587   5.781  11.282   5.913  0.1030 -0.1160 -0.1330
 1063PNCE   C6B 9588   5.495  11.018   6.119 -0.0826  0.0890  0.0874
 1064CHOL   ROH 9589  15.579   7.470   5.299  0.2770 -0.2583 -0.1239
 1064CHOL    R1 9590  15.687   7.686   5.446  0.1359 -0.0839 -0.2778
 1064CHOL    R2 9591  15.743   7.670   5.716 -0.2065  0.2644 -0.1833
 1064CHOL    R3 9592  15.990   7.752   5.636 -0.0891  0.1072  0.0164
 1064CHOL    R4 9593  15.955   7.868   5.904 -0.3190  0.3049 -0.0987
 1064CHOL    R5 9594  16.008   7.976   5.721 -0.0858  0.1578 -0.1175
 1064CHOL    C1 9595  16.310   8.061   5.938 -0.2751  0.1806  0.1378
 1064CHOL    C2 9596  16.447   8.325   6.163  0.0193 -0.1917 -0.0210
 1065PNCE   AM1 9597  12.862  13.726   4.574  0.3315 -0.1610  0.1363
 1065PNCE   AM2 9598  13.118  13.722   4.792 -0.2730 -0.1925 -0.1668
 1065PNCE   T1A 9599  12.692  13.984   4.937  0.4475  0.1692  0.0429
 1065PNCE   C2A 9600  12.636  14.242   5.313  0.2755  0.1600  0.3992
 1065PNCE   C3A 9601  12.760  14.180   5.654 -0.2421  0.2017  0.3330
 1065PNCE   C1B 9602  13.191  13.549   5.122  0.1450  0.1613 -0.0896
 1065PNCE   C2B 9603  13.242  13.456   5.592 -0.0789  0.3189  0.0808
 1065PNCE   C3B 9604  13.184  13.437   6.044 -0.1688  0.1925 -0.0232
 1065PNCE   D4B 9605  13.232  13.289   6.487 -0.0053  0.0905  0.0243
 1065PNCE   C5B 9606  13.156  12.941   6.679 -0.3390 -0.3249 -0.1118
 1065PNCE   C6B 9607  12.999  12.843   7.034  0.2322 -0.0571 -0.4520
 1066XCA    COO 9608   1.761   3.493   8.592 -0.0180  0.0708 -0.3306
 1066XCA     C1 9609   1.886   3.678   8.239  0.3428 -0.0795 -0.1093
 1066XCA     C2 9610   1.773   3.850   7.832 -0.1461  0.0435  0.1553
 1066XCA     C3 9611   1.648   3.727   7.452  0.3646 -0.2675  0.0078
 1066XCA     C4 9612   1.338   3.439   7.385  0.0330  0.1932 -0.1083
 1066XCA     C5 9613   0.929   3.426   7.256  0.0565  0.3070 -0.0893
 1066XCA     C6 9614   0.595   3.346   7.412  0.0545 -0.3692  0.2836
 1067PNCE   AM1 9615   1.455   6.976   7.564  0.3784  0.0801 -0.3268
 1067PNCE   AM2 9616   1.526   7.328   7.617  0.0378 -0.0373  0.2290
 1067PNCE   T1A 9617   1.682   6.867   7.188  0.0561 -0.0577 -0.0514
 1067PNCE   C2A 9618   1.853   6.881   6.745  0.1421  0.1171 -0.1337
 1067PNCE   C3A 9619   1.606   6.782   6.426  0.0589 -0.0742 -0.0106
 1067PNCE   C1B 9620   1.696   7.387   7.321  0.1393  0.0507 -0.1808
 1067PNCE   C2B 9621   1.551   7.310   6.873 -0.2755 -0.1459 -0.2447
 1067PNCE   C3B 9622   1.648   7.329   6.485  0.0722 -0.0629  0.1362
 1067PNCE   D4B 9623   1.451   7.200   6.122 -0.0549  0.2272 -0.1293
 1067PNCE   C5B 9624   1.613   6.732   5.956 -0.0531 -0.2083  0.1565
 1067PNCE   C6B 9625   1.483   6.412   5.913  0.0693 -0.1103 -0.0614
 1068PNCE   AM1 9626  10.081  14.982   5.182 -0.1456 -0.0558  0.0641
 1068PNCE   AM2 9627  10.007  14.766   5.460 -0.0008 -0.2109 -0.0316
 1068PNCE   T1A 9628   9.854  15.322   5.374  0.2594 -0.0996 -0.0817
 1068PNCE   C2A 9629   9.641  15.548   5.767 -0.1858 -0.3259  0.1481
 1068PNCE   C3A 9630   9.517  15.499   6.124 -0.2885  0.0526  0.0864
 1068PNCE   C1B 9631   9.888  14.954   5.851  0.0938 -0.1039 -0.6338
 1068PNCE   C2B 9632   9.885  15.247   6.061  0.0755  0.2587  0.1532
 1068PNCE   C3B 9633   9.881  15.366   6.439 -0.3167 -0.1470  0.0728
 1068PNCE   D4B 9634  10.250  15.135   6.683  0.2688 -0.0118 -0.1566
 1068PNCE   C5B 9635  10.442  14.739   6.738  0.1773  0.3119  0.2845
 1068PNCE   C6B 9636  10.383  14.401   6.576  0.3681 -0.3364 -0.0026
 1069PNCE   AM1 9637  13.368   0.574   4.152  0.2050  0.2604 -0.1800
 1069PNCE   AM2 9638  13.568   0.467   4.402 -0.1758  0.1637 -0.0113
 1069PNCE   T1A 9639  13.145   0.862   4.265 -0.0108  0.3209 -0.0281
 1069PNCE   C2A 9640  13.184   1.287   4.550  0.0555  0.1602  0.0186
 1069PNCE   C3A 9641  13.000   1.223   4.995  0.1916  0.3447 -0.0265
 1069PNCE   C1B 9642  13.757   0.445   4.781  0.2014  0.2464 -0.3136
 1069PNCE   C2B 9643  13.807   0.520   5.216  0.0828  0.0489  0.0742
 1069PNCE   C3B 9644  13.891   0.523   5.586  0.0155  0.1785 -0.0382
 1069PNCE   D4B 9645  13.733   0.219   6.009 -0.1828 -0.2563 -0.1881
 1069PNCE   C5B 9646  13.349   0.017   6.026 -0.2540 -0.0780  0.0521
 1069PNCE   C6B 9647  12.901   0.167   6.199 -0.0463 -0.2091 -0.0422
 1070PNCE   AM1 9648   3.363   6.676   4.225 -0.0758  0.2595  0.1389
 1070PNCE   AM2 9649   3.582   6.479   4.132  0.2917  0.2648  0.0077
 1070PNCE   T1A 9650   3.039   6.733   4.611 -0.2333  0.2630  0.0905
 1070PNCE   C2A 9651   2.954   6.728   5.063  0.2552  0.3387  0.0050
 1070PNCE   C3A 9652   2.711   6.697   5.358 -0.0063 -0.3156 -0.0333
 1070PNCE   C1B 9653   3.667   6.549   4.654  0.1732  0.3385  0.0904
 1070PNCE   C2B 9654   3.464   6.714   5.006  0.3303 -0.1518 -0.5924
 1070PNCE   C3B 9655   3.353   6.888   5.388  0.0149 -0.1003  0.0151
 1070PNCE   D4B 9656   3.464   7.095   5.679 -0.0514  0.0522  0.0198
 1070PNCE   C5B 9657   3.258   7.321   6.051 -0.0145 -0.1364  0.0881
 1070PNCE   C6B 9658   2.944   7.592   6.109  0.1095  0.1463 -0.0282
 1071CHOL   ROH 9659  15.765   6.483   4.633  0.0685 -0.1699  0.1065
 1071CHOL    R1 9660  15.672   6.648   4.843  0.0896 -0.1192  0.0761
 1071CHOL    R2 9661  15.748   6.913   4.869  0.0388 -0.0938 -0.0346
 1071CHOL    R3 9662  15.480   6.956   4.873  0.0306 -0.1518  0.0248
 1071CHOL    R4 9663  15.599   7.221   4.914 -0.0186 -0.1423  0.1056
 1071CHOL    R5 9664  15.449   7.124   5.040  0.0219 -0.2217  0.0935
 1071CHOL    C1 9665  15.260   7.441   4.944 -0.0604 -0.2252  0.2428
 1071CHOL    C2 9666  15.336   7.785   4.965  0.1261 -0.3461  0.2465
 1072PNCE   AM1 9667   1.791   4.313   4.658  0.0622 -0.2315  0.2237
 1072PNCE   AM2 9668   2.119   4.192   4.743  0.0915  0.0287 -0.0454
 1072PNCE   T1A 9669   1.746   4.054   5.058 -0.4393  0.0282 -0.2398
 1072PNCE   C2A 9670   1.878   4.180   5.433  0.1147  0.0465 -0.0094
 1072PNCE   C3A 9671   1.918   4.537   5.602  0.3232  0.0094 -0.2058
 1072PNCE   C1B 9672   2.300   4.433   5.036  0.1431  0.0915 -0.0941
 1072PNCE   C2B 9673   2.366   4.281   5.515 -0.0359 -0.1280 -0.1455
 1072PNCE   C3B 9674   2.435   4.329   5.934  0.0163 -0.0715  0.2628
 1072PNCE   D4B 9675   2.773   4.449   6.028  0.0813 -0.1938  0.1560
 1072PNCE   C5B 9676   2.827   4.290   6.444 -0.5060 -0.0606  0.3685
 1072PNCE   C6B 9677   3.038   4.235   6.866  0.0379  0.2768  0.0070
 1073XCA    COO 9678   5.513   5.317   4.146 -0.1812  0.0927 -0.0632
 1073XCA     C1 9679   5.433   5.280   4.546 -0.1230 -0.0790  0.2091
 1073XCA     C2 9680   5.410   5.259   4.931 -0.3887 -0.0210 -0.1513
 1073XCA     C3 9681   5.594   5.146   5.257 -0.0864  0.3258  0.0589
 1073XCA     C4 9682   5.467   5.061   5.681 -0.0450  0.3217 -0.0705
 1073XCA     C5 9683   5.302   5.201   6.021 -0.0733  0.0841  0.1418
 1073XCA     C6 9684   5.195   5.347   6.480 -0.0893  0.0831 -0.1685
 1074XCA    COO 9685   0.296  11.213   4.271 -0.1287 -0.1827  0.2291
 1074XCA     C1 9686   0.486  11.246   4.715  0.3241 -0.2635 -0.3360
 1074XCA     C2 9687   0.733  11.241   5.077 -0.0096  0.0906 -0.1212
 1074XCA     C3 9688   0.832  11.059   5.465 -0.1140  0.1901  0.0256
 1074XCA     C4 9689   0.785  10.659   5.573  0.1914 -0.1062 -0.1782
 1074XCA     C5 9690   0.984  10.141   5.475  0.0427 -0.1256  0.1684
 1074XCA     C6 9691   1.241   9.868   5.716  0.1922 -0.1267 -0.2827
 1075XCA    COO 9692  11.154   9.108   3.421  0.0514  0.0555  0.0607
 1075XCA     C1 9693  11.317   8.982   3.817  0.1932  0.0087 -0.0301
 1075XCA     C2 9694  11.449   8.793   4.194 -0.2225  0.0103  0.0679
 1075XCA     C3 9695  11.762   8.849   4.411  0.2763  0.0505  0.2911
 1075XCA     C4 9696  12.057   8.927   4.881 -0.1209  0.2337 -0.0607
 1075XCA     C5 9697  11.959   8.940   5.336  0.1867 -0.2054 -0.3077
 1075XCA     C6 9698  11.664   8.872   5.668 -0.2142  0.0771 -0.1766
 1076PNCE   AM1 9699   2.342   2.849   4.559 -0.2154  0.0175  0.2800
 1076PNCE   AM2 9700   2.342   2.527   4.573  0.2128 -0.0030  0.1530
 1076PNCE   T1A 9701   2.541   3.148   4.825 -0.0798  0.3168 -0.0812
 1076PNCE   C2A 9702   2.567   3.349   5.133  0.0256 -0.0353  0.2803
 1076PNCE   C3A 9703   2.469   3.521   5.564 -0.2545  0.3454  0.0757
 1076PNCE   C1B 9704   2.467   2.700   5.007 -0.0530  0.0399  0.1288
 1076PNCE   C2B 9705   2.777   2.871   5.233  0.0206 -0.0510 -0.1549
 1076PNCE   C3B 9706   2.831   3.108   5.630  0.1448 -0.0536 -0.0198
 1076PNCE   D4B 9707   2.971   3.403   5.772  0.2688  0.0005  0.1316
 1076PNCE   C5B 9708   3.252   3.499   6.060  0.1385 -0.2932 -0.1049
 1076PNCE   C6B 9709   3.384   3.498   6.470  0.1780  0.3886  0.1162
 1077CHOL   ROH 9710   7.455  11.743   8.119  0.0532 -0.1279  0.1160
 1077CHOL    R1 9711   7.371  11.954   7.951  0.1106 -0.3486 -0.1924
 1077CHOL    R2 9712   7.456  12.215   7.987 -0.4431 -0.1815 -0.0804
 1077CHOL    R3 9713   7.530  12.192   7.726  0.2746 -0.1621  0.1186
 1077CHOL    R4 9714   7.520  12.481   7.776 -0.7970 -0.1493 -0.1469
 1077CHOL    R5 9715   7.417  12.373   7.617 -0.0522 -0.6223 -0.3116
 1077CHOL    C1 9716   7.626  12.615   7.408 -0.3295 -0.1122  0.0009
 1077CHOL    C2 9717   7.425  12.938   7.279 -0.0263  0.0488 -0.1884
 1078CHOL   ROH 9718   6.122  14.208   6.340  0.0224 -0.2828  0.1989
 1078CHOL    R1 9719   5.844  14.155   6.343 -0.0017 -0.1631  0.0710
 1078CHOL    R2 9720   5.734  13.943   6.482 -0.1523 -0.1416 -0.0147
 1078CHOL    R3 9721   5.580  14.138   6.593 -0.1158 -0.0956 -0.0442
 1078CHOL    R4 9722   5.394  13.918   6.537 -0.1554 -0.0720 -0.0021
 1078CHOL    R5 9723   5.373  14.125   6.473 -0.1206 -0.0801 -0.0370
 1078CHOL    C1 9724   5.051  14.085   6.674 -0.1226  0.0105 -0.0223
 1078CHOL    C2 9725   4.850  14.321   6.849 -0.0703  0.2737 -0.1663
 1079XCA    COO 9726   3.848   1.607   4.678 -0.0026  0.0484  0.0193
 1079XCA     C1 9727   3.567   1.637   4.949 -0.0545  0.0732 -0.2187
 1079XCA     C2 9728   3.693   1.716   5.416 -0.0688  0.0227 -0.0457
 1079XCA     C3 9729   3.607   1.807   5.854 -0.0330  0.0769  0.0369
 1079XCA     C4 9730   3.249   1.731   6.150 -0.2350  0.2077 -0.0353
 1079XCA     C5 9731   2.987   1.901   5.917 -0.0190  0.0521  0.2370
 1079XCA     C6 9732   2.687   1.711   5.632 -0.1586 -0.1339 -0.0539
 1080PNCE   AM1 9733  14.193  15.114   4.783  0.0437  0.0180 -0.1120
 1080PNCE   AM2 9734  14.158  15.163   4.468 -0.0508  0.2046  0.0256
 1080PNCE   T1A 9735  13.981  15.502   5.105 -0.1600  0.4352  0.1440
 1080PNCE   C2A 9736  13.691  15.820   5.325  0.0790 -0.2566 -0.0598
 1080PNCE   C3A 9737  14.033  15.895   5.487 -0.0932 -0.2729  0.0527
 1080PNCE   C1B 9738  13.748  15.315   4.635 -0.0598  0.2808  0.2713
 1080PNCE   C2B 9739  13.501  15.504   4.991 -0.0136  0.0822 -0.2160
 1080PNCE   C3B 9740  13.618  15.277   5.412  0.1068 -0.0193 -0.1602
 1080PNCE   D4B 9741  13.468  14.790   5.607  0.2695 -0.0917  0.3653
 1080PNCE   C5B 9742  13.281  14.923   6.033  0.0875 -0.0828 -0.2205
 1080PNCE   C6B 9743  13.135  14.656   6.376 -0.0760  0.0323 -0.1332
 1081CHOL   ROH 9744  13.968   2.921   7.964 -0.4404 -0.0419 -0.0400
 1081CHOL    R1 9745  14.148   3.083   7.817 -0.3657  0.0122  0.1104
 1081CHOL    R2 9746  14.290   2.988   7.600 -0.1218  0.0419  0.2569
 1081CHOL    R3 9747  14.178   3.202   7.474 -0.0888 -0.0185  0.1238
 1081CHOL    R4 9748  14.339   3.069   7.268 -0.2151 -0.2472  0.1721
 1081CHOL    R5 9749  14.349   3.279   7.326 -0.1149 -0.2035 -0.0029
 1081CHOL    C1 9750  14.262   3.317   6.956 -0.2369 -0.4724 -0.0023
 1081CHOL    C2 9751  14.604   3.199   6.810 -0.0745 -0.1908  0.2573
 1082PNCE   AM1 9752   5.831   3.821   4.430 -0.1993  0.0517 -0.0021
 1082PNCE   AM2 9753   5.583   3.917   4.248 -0.2066 -0.0066  0.0127
 1082PNCE   T1A 9754   5.869   3.788   4.912 -0.3282  0.3004 -0.1260
 1082PNCE   C2A 9755   6.065   3.807   5.434  0.0393  0.2917 -0.2355
 1082PNCE   C3A 9756   6.071   4.145   5.570  0.0553 -0.0051 -0.3921
 1082PNCE   C1B 9757   5.439   3.637   4.613  0.1180  0.4434  0.3123
 1082PNCE   C2B 9758   5.548   3.428   4.989  0.1458 -0.3242  0.0259
 1082PNCE   C3B 9759   5.529   3.579   5.363 -0.1385  0.0142 -0.1706
 1082PNCE   D4B 9760   5.560   4.083   5.497  0.2018 -0.1776  0.1054
 1082PNCE   C5B 9761   5.634   4.105   5.907  0.2166 -0.1933 -0.1598
 1082PNCE   C6B 9762   5.678   4.220   6.397 -0.1438  0.1238  0.2707
 1083CHOL   ROH 9763   6.978   3.096   5.438  0.0719  0.0709 -0.2489
 1083CHOL    R1 9764   7.119   3.336   5.491 -0.0045  0.1241 -0.2880
 1083CHOL    R2 9765   6.999   3.584   5.475 -0.1464  0.0689 -0.0917
 1083CHOL    R3 9766   7.093   3.610   5.729  0.0673  0.0256 -0.1663
 1083CHOL    R4 9767   7.070   3.885   5.630 -0.0706  0.0449 -0.0794
 1083CHOL    R5 9768   7.247   3.793   5.717  0.0219  0.0578 -0.2546
 1083CHOL    C1 9769   7.199   4.085   5.958  0.1740 -0.0095 -0.1429
 1083CHOL    C2 9770   6.987   4.388   6.095 -0.2982 -0.0690  0.2062
 1084XCA    COO 9771  12.926   9.850   4.011  0.1746 -0.1122  0.2841
 1084XCA     C1 9772  12.743   9.501   4.249  0.0516 -0.0064 -0.1932
 1084XCA     C2 9773  12.500   9.454   4.590  0.0355  0.0400 -0.2136
 1084XCA     C3 9774  12.337   9.309   5.007  0.0987 -0.2532  0.0252
 1084XCA     C4 9775  11.978   9.407   5.185  0.0607 -0.1135 -0.1002
 1084XCA     C5 9776  11.603   9.258   5.296  0.1824 -0.0133 -0.1342
 1084XCA     C6 9777  11.270   9.019   5.428 -0.2816  0.4496  0.2891
 1085PNCE   AM1 9778  11.007  16.315   4.476  0.1194  0.1186  0.1097
 1085PNCE   AM2 9779  10.881  15.991   4.287 -0.1501  0.1790 -0.0405
 1085PNCE   T1A 9780  10.816  16.186   4.988 -0.0124 -0.0861  0.0027
 1085PNCE   C2A 9781  10.938  16.098   5.365  0.1691 -0.2102 -0.0714
 1085PNCE   C3A 9782  10.795  16.267   5.602  0.1223 -0.1953  0.2677
 1085PNCE   C1B 9783  10.531  15.969   4.538  0.1373  0.0007 -0.1512
 1085PNCE   C2B 9784  10.328  15.801   4.962 -0.0105  0.0453 -0.1128
 1085PNCE   C3B 9785  10.574  15.808   5.410 -0.0358 -0.1200 -0.3144
 1085PNCE   D4B 9786  10.694  15.812   5.806  0.0931  0.0313  0.1852
 1085PNCE   C5B 9787  10.634  15.630   6.155 -0.3626 -0.2194 -0.0416
 1085PNCE   C6B 9788  10.394  15.318   6.266 -0.0982  0.1042 -0.0737
 1086PNCE   AM1 9789  16.097  10.603   4.394  0.0622  0.2562 -0.1325
 1086PNCE   AM2 9790  16.373  10.854   4.165 -0.1697  0.1231  0.0951
 1086PNCE   T1A 9791  15.955  10.353   4.800 -0.0525  0.2332 -0.0582
 1086PNCE   C2A 9792  15.972  10.077   5.222  0.1249 -0.2772  0.2612
 1086PNCE   C3A 9793  16.205   9.715   5.440  0.1673 -0.0385  0.1052
 1086PNCE   C1B 9794  16.496  10.903   4.683  0.0199 -0.0583 -0.2517
 1086PNCE   C2B 9795  16.545  11.158   5.088  0.4179 -0.0711  0.1794
 1086PNCE   C3B 9796  16.638  11.071   5.536 -0.2337  0.0479  0.0580
 1086PNCE   D4B 9797  16.899  11.080   5.920  0.1398  0.0165  0.0331
 1086PNCE   C5B 9798  16.810  10.903   6.305  0.0568  0.2065  0.1176
 1086PNCE   C6B 9799  16.773  11.022   6.756 -0.0091 -0.2210 -0.0692
 1087CHOL   ROH 9800  16.140   5.793   4.076 -0.0171 -0.1641 -0.0473
 1087CHOL    R1 9801  16.028   5.724   4.327 -0.0496 -0.0856 -0.0403
 1087CHOL    R2 9802  16.148   5.545   4.499 -0.0610 -0.0175  0.0395
 1087CHOL    R3 9803  16.127   5.750   4.676 -0.1015  0.0423 -0.0342
 1087CHOL    R4 9804  16.117   5.507   4.841 -0.0992  0.0985  0.0486
 1087CHOL    R5 9805  15.972   5.670   4.841 -0.1144  0.0846 -0.0255
 1087CHOL    C1 9806  16.080   5.678   5.207 -0.1584  0.2221 -0.0150
 1087CHOL    C2 9807  16.016   5.760   5.550  0.1586 -0.1846  0.1488
 1088CHOL   ROH 9808   7.508   6.442   7.700 -0.0459  0.1633  0.0919
 1088CHOL    R1 9809   7.373   6.376   7.461 -0.1953  0.2306  0.1578
 1088CHOL    R2 9810   7.282   6.568   7.284  0.1549  0.2645  0.0133
 1088CHOL    R3 9811   7.427   6.425   7.104 -0.1361 -0.1596  0.1127
 1088CHOL    R4 9812   7.241   6.583   6.941  0.3147  0.2525 -0.0064
 1088CHOL    R5 9813   7.270   6.367   6.933 -0.2222  0.1771  0.0758
 1088CHOL    C1 9814   7.354   6.458   6.573  0.1346 -0.1525  0.0757
 1088CHOL    C2 9815   7.390   6.439   6.253  0.1467 -0.0895  0.0038
 1089XCA    COO 9816  10.526   6.942   3.857  0.2737  0.1457  0.2368
 1089XCA     C1 9817  10.480   6.856   4.221  0.3062  0.3932  0.2578
 1089XCA     C2 9818  10.378   6.876   4.666  0.3756  0.0642 -0.2623
 1089XCA     C3 9819  10.334   6.971   5.098 -0.0554 -0.2596  0.0545
 1089XCA     C4 9820  10.107   7.239   5.468  0.3315 -0.3539 -0.3297
 1089XCA     C5 9821   9.754   7.395   5.584  0.1186  0.0943 -0.0536
 1089XCA     C6 9822   9.505   7.223   5.885 -0.2743 -0.2976 -0.3866
 1090CHOL   ROH 9823   0.851  10.328   4.315  0.0232 -0.1665  0.0983
 1090CHOL    R1 9824   0.814  10.225   4.576  0.2202  0.0768  0.2227
 1090CHOL    R2 9825   0.891  10.363   4.803 -0.0808  0.5144  0.0597
 1090CHOL    R3 9826   0.632  10.322   4.876 -0.0021  0.0669  0.0910
 1090CHOL    R4 9827   0.768  10.402   5.123 -0.1305  0.4001  0.0546
 1090CHOL    R5 9828   0.647  10.223   5.093  0.1940  0.1678  0.1242
 1090CHOL    C1 9829   0.454  10.386   5.379 -0.0856 -0.0869  0.0815
 1090CHOL    C2 9830   0.419  10.519   5.877  0.0199 -0.1930  0.0364
 1091XCA    COO 9831   9.041   4.014   4.570  0.0647 -0.0197  0.3629
 1091XCA     C1 9832   8.997   4.240   4.891  0.1059  0.3746  0.0498
 1091XCA     C2 9833   9.051   4.326   5.274  0.2377 -0.0849 -0.0787
 1091XCA     C3 9834   9.184   4.759   5.400  0.1919  0.0707 -0.0001
 1091XCA     C4 9835   9.064   5.217   5.375  0.0486  0.1987  0.2323
 1091XCA     C5 9836   8.995   5.411   5.723  0.0118 -0.1311  0.0030
 1091XCA     C6 9837   8.625   5.453   6.035  0.1617  0.3619 -0.3039
 1092CHOL   ROH 9838   1.391  12.272   6.940  0.0092  0.3499  0.0054
 1092CHOL    R1 9839   1.274  12.328   6.688  0.0970  0.1388 -0.0827
 1092CHOL    R2 9840   1.308  12.165   6.468  0.0846 -0.1022  0.0947
 1092CHOL    R3 9841   1.037  12.167   6.464  0.0863  0.0074  0.0227
 1092CHOL    R4 9842   1.115  12.175   6.182  0.1634 -0.0491  0.0432
 1092CHOL    R5 9843   0.981  12.314   6.283  0.1934  0.0143 -0.0045
 1092CHOL    C1 9844   0.747  12.182   6.011  0.2111  0.0854 -0.0541
 1092CHOL    C2 9845   0.591  12.321   5.605  0.0734 -0.0351  0.0480
 1093XCA    COO 9846  10.623  12.713   5.033 -0.0346  0.0618  0.1147
 1093XCA     C1 9847  10.792  12.510   5.339  0.1908 -0.2533 -0.2151
 1093XCA     C2 9848  10.951  12.214   5.680  0.0774  0.2600 -0.3703
 1093XCA     C3 9849  11.048  12.260   6.231  0.0977  0.0519  0.1761
 1093XCA     C4 9850  10.838  12.385   6.534 -0.2694 -0.1191  0.0667
 1093XCA     C5 9851  10.463  12.161   6.583  0.3167 -0.1606  0.2726
 1093XCA     C6 9852  10.151  12.090   6.876  0.3279  0.0306  0.0018
 1094PNCE   AM1 9853   5.456  16.310   5.062 -0.1223  0.0641  0.1574
 1094PNCE   AM2 9854   5.570  16.120   4.849 -0.5839  0.0390 -0.0559
 1094PNCE   T1A 9855   5.413  16.243   5.453  0.2767 -0.0787  0.2255
 1094PNCE   C2A 9856   5.392  16.486   5.817 -0.4913  0.1623 -0.1034
 1094PNCE   C3A 9857   5.409  16.792   6.109  0.4601 -0.0549  0.0873
 1094PNCE   C1B 9858   5.929  15.851   4.973 -0.1561 -0.0566  0.1928
 1094PNCE   C2B 9859   5.995  15.449   5.143 -0.0311  0.1966  0.1960
 1094PNCE   C3B 9860   6.090  15.284   5.494 -0.0137  0.1184  0.2205
 1094PNCE   D4B 9861   6.062  14.860   5.712 -0.1835 -0.1478  0.1094
 1094PNCE   C5B 9862   6.272  14.883   6.015 -0.1693  0.0879 -0.3879
 1094PNCE   C6B 9863   6.439  14.565   6.163 -0.0899 -0.1050 -0.1397
 1095XCA    COO 9864   2.861   2.802   4.644 -0.0315  0.1495 -0.1867
 1095XCA     C1 9865   3.089   3.054   4.829  0.0204 -0.1520 -0.1712
 1095XCA     C2 9866   3.208   3.251   5.173 -0.1567  0.2519 -0.1165
 1095XCA     C3 9867   3.386   3.295   5.494 -0.3489  0.2360 -0.1862
 1095XCA     C4 9868   3.680   3.426   5.767 -0.1209 -0.0291  0.0522
 1095XCA     C5 9869   4.043   3.788   5.836 -0.1750  0.1556  0.1951
 1095XCA     C6 9870   4.396   3.884   5.588  0.1880 -0.0532 -0.0122
 1096XCA    COO 9871  10.021  12.257   4.827 -0.1397  0.0783  0.0359
 1096XCA     C1 9872  10.280  12.392   5.152  0.1662  0.0150 -0.0346
 1096XCA     C2 9873  10.394  12.196   5.595  0.0189 -0.1515  0.4426
 1096XCA     C3 9874  10.123  11.935   5.933  0.2015 -0.0252 -0.0008
 1096XCA     C4 9875   9.913  12.014   6.363  0.1813 -0.0106 -0.1422
 1096XCA     C5 9876   9.698  11.864   6.697 -0.0042  0.2866 -0.1865
 1096XCA     C6 9877   9.867  11.478   6.753 -0.0578 -0.1799 -0.0009
 1097PNCE   AM1 9878   3.972  10.071   3.529 -0.3942  0.0160 -0.0782
 1097PNCE   AM2 9879   3.715   9.852   3.417 -0.0031 -0.0811 -0.1629
 1097PNCE   T1A 9880   3.952  10.136   4.044 -0.0204  0.2932 -0.2033
 1097PNCE   C2A 9881   4.253  10.135   4.384  0.1659  0.0937  0.0715
 1097PNCE   C3A 9882   4.386  10.293   4.744  0.0294 -0.2060  0.2636
 1097PNCE   C1B 9883   3.611   9.652   3.682 -0.0735  0.1607 -0.0091
 1097PNCE   C2B 9884   3.402   9.216   3.763 -0.2217  0.3526  0.3541
 1097PNCE   C3B 9885   3.582   8.774   3.870  0.0039 -0.1776  0.1774
 1097PNCE   D4B 9886   3.794   8.310   4.019  0.1093 -0.1419  0.2157
 1097PNCE   C5B 9887   3.625   8.186   4.460  0.0488  0.0030  0.1185
 1097PNCE   C6B 9888   3.649   8.247   4.884 -0.3177 -0.0363  0.2043
 1098PNCE   AM1 9889   8.129   3.484   4.795  0.2105 -0.1129  0.1836
 1098PNCE   AM2 9890   8.375   3.333   4.942 -0.0091  0.1283  0.0520
 1098PNCE   T1A 9891   8.162   3.832   5.102  0.0502 -0.1180 -0.0237
 1098PNCE   C2A 9892   8.161   3.895   5.469  0.0553 -0.0303  0.2340
 1098PNCE   C3A 9893   8.374   4.174   5.855 -0.1265  0.2570  0.0257
 1098PNCE   C1B 9894   8.631   3.293   5.307 -0.1148  0.2097 -0.1120
 1098PNCE   C2B 9895   8.752   3.143   5.654  0.1482 -0.1051  0.1461
 1098PNCE   C3B 9896   8.961   2.959   5.988 -0.1696 -0.0017 -0.0700
 1098PNCE   D4B 9897   9.250   2.675   5.995 -0.0070 -0.2071  0.0073
 1098PNCE   C5B 9898   9.563   2.611   5.661 -0.2486  0.0116  0.0545
 1098PNCE   C6B 9899   9.720   2.615   5.222 -0.1580 -0.1477  0.0142
 1099PNCE   AM1 9900  15.177   5.537   3.951 -0.1475 -0.4053  0.0488
 1099PNCE   AM2 9901  14.961   5.359   4.125  0.2668 -0.1452 -0.1672
 1099PNCE   T1A 9902  14.948   5.957   3.972 -0.0838  0.1457 -0.1223
 1099PNCE   C2A 9903  14.990   6.428   4.135 -0.0396 -0.2701  0.2483
 1099PNCE   C3A 9904  14.753   6.763   4.271 -0.3568  0.1735  0.1728
 1099PNCE   C1B 9905  15.002   5.602   4.503  0.1591  0.0393 -0.0067
 1099PNCE   C2B 9906  15.048   6.045   4.712 -0.0307 -0.0716  0.2808
 1099PNCE   C3B 9907  14.929   6.257   5.083  0.0670  0.0864  0.0125
 1099PNCE   D4B 9908  14.943   6.564   5.339  0.0633  0.0883 -0.0149
 1099PNCE   C5B 9909  15.071   6.983   5.288 -0.1061  0.0786 -0.0280
 1099PNCE   C6B 9910  14.805   7.121   4.973 -0.1142 -0.1452  0.3464
 1100CHOL   ROH 9911   5.430   2.240   8.136  0.2333 -0.2153 -0.0228
 1100CHOL    R1 9912   5.457   2.250   7.855  0.0710 -0.1268 -0.0353
 1100CHOL    R2 9913   5.426   2.027   7.694  0.0468 -0.0905 -0.0809
 1100CHOL    R3 9914   5.246   2.185   7.566 -0.0727 -0.1081  0.0663
 1100CHOL    R4 9915   5.292   1.960   7.383  0.1512  0.1338 -0.1743
 1100CHOL    R5 9916   5.310   2.172   7.335 -0.0288  0.2017  0.0615
 1100CHOL    C1 9917   5.045   2.069   7.081  0.0993  0.2481 -0.0907
 1100CHOL    C2 9918   4.978   1.759   7.031  0.1370  0.4046  0.1199
 1101XCA    COO 9919   9.385  16.324   5.078  0.1825  0.1310  0.1514
 1101XCA     C1 9920   9.801  16.471   5.262 -0.0240  0.1355 -0.1171
 1101XCA     C2 9921   9.977  16.608   5.599  0.1723 -0.1260 -0.0066
 1101XCA     C3 9922  10.036  16.636   6.046  0.3129  0.2497  0.2240
 1101XCA     C4 9923   9.819  16.927   6.264 -0.0640 -0.2016  0.1697
 1101XCA     C5 9924   9.541  17.254   6.429  0.3348  0.0506 -0.0847
 1101XCA     C6 9925   9.651  17.655   6.568  0.0447  0.0012  0.2176
 1102PNCE   AM1 9926   6.697  10.474   4.250  0.1622  0.1184  0.1559
 1102PNCE   AM2 9927   6.441  10.698   4.259 -0.1001 -0.0417  0.2608
 1102PNCE   T1A 9928   6.673  10.405   4.701 -0.0357  0.1932 -0.1138
 1102PNCE   C2A 9929   6.810  10.417   5.047  0.1541  0.0190  0.1685
 1102PNCE   C3A 9930   7.028  10.373   5.464  0.0656  0.0047  0.4322
 1102PNCE   C1B 9931   6.271  10.707   4.628  0.2111  0.0447 -0.0409
 1102PNCE   C2B 9932   6.310  10.578   5.069  0.1263 -0.3807  0.1925
 1102PNCE   C3B 9933   6.540  10.607   5.458 -0.3366 -0.1221 -0.0555
 1102PNCE   D4B 9934   6.614  10.825   5.753  0.0939 -0.0190 -0.2523
 1102PNCE   C5B 9935   7.046  10.823   5.973  0.1175  0.0612 -0.2560
 1102PNCE   C6B 9936   7.412  10.616   5.886  0.0305 -0.2302  0.1701
 1103CHOL   ROH 9937   2.132  14.585   7.628  0.0537  0.1071 -0.0424
 1103CHOL    R1 9938   2.174  14.754   7.405  0.2370  0.1092 -0.0067
 1103CHOL    R2 9939   2.400  14.738   7.246  0.1188 -0.2476 -0.1386
 1103CHOL    R3 9940   2.218  14.712   7.046 -0.0409  0.1549 -0.0460
 1103CHOL    R4 9941   2.463  14.806   6.913 -0.0031 -0.0491 -0.1214
 1103CHOL    R5 9942   2.265  14.896   6.900  0.1049  0.2179  0.0789
 1103CHOL    C1 9943   2.328  14.821   6.531 -0.2242  0.4435 -0.0239
 1103CHOL    C2 9944   2.616  14.561   6.326  0.2408 -0.0079  0.2372
 1104XCA    COO 9945   7.980   5.624   7.495 -0.2398  0.2414 -0.1986
 1104XCA     C1 9946   7.885   5.564   7.119  0.1029  0.1807  0.5163
 1104XCA     C2 9947   7.960   5.628   6.749  0.0245 -0.1945  0.2181
 1104XCA     C3 9948   8.066   5.614   6.262 -0.1818 -0.0595 -0.2476
 1104XCA     C4 9949   7.819   5.606   5.883 -0.3896 -0.0875 -0.0312
 1104XCA     C5 9950   7.355   5.584   5.949 -0.0960  0.0132  0.0786
 1104XCA     C6 9951   6.866   5.498   6.071  0.0093  0.0893 -0.1968
 1105CHOL   ROH 9952  13.843  14.373   8.126  0.0751 -0.2335 -0.0311
 1105CHOL    R1 9953  13.694  14.295   7.899  0.0591 -0.2217 -0.0241
 1105CHOL    R2 9954  13.526  14.469   7.765 -0.0370 -0.2458  0.0641
 1105CHOL    R3 9955  13.674  14.394   7.549 -0.0511 -0.1213  0.0106
 1105CHOL    R4 9956  13.415  14.477   7.438 -0.1473 -0.2990  0.1004
 1105CHOL    R5 9957  13.516  14.287   7.404 -0.0196 -0.2236  0.0525
 1105CHOL    C1 9958  13.489  14.412   7.044 -0.2259 -0.2133  0.0710
 1105CHOL    C2 9959  13.334  14.562   6.801 -0.0246  0.0742 -0.1864
 1106PNCE   AM1 9960   8.350  11.465   5.027 -0.1446  0.1356 -0.4079
 1106PNCE   AM2 9961   8.288  11.858   5.061  0.2650 -0.4104  0.2363
 1106PNCE   T1A 9962   8.273  11.466   5.536  0.1499  0.1169  0.2432
 1106PNCE   C2A 9963   8.081  11.694   5.771  0.0636  0.3990 -0.0642
 1106PNCE   C3A 9964   7.693  11.858   5.812  0.3406 -0.2775 -0.2740
 1106PNCE   C1B 9965   7.919  11.823   5.292 -0.2460  0.1953 -0.0075
 1106PNCE   C2B 9966   7.658  11.421   5.495  0.0280  0.1322  0.1747
 1106PNCE   C3B 9967   7.554  11.016   5.379 -0.1100  0.0435  0.1936
 1106PNCE   D4B 9968   7.459  10.598   5.283 -0.0049  0.2448 -0.4969
 1106PNCE   C5B 9969   7.331  10.562   4.847  0.3419  0.4285  0.0121
 1106PNCE   C6B 9970   7.298  10.879   4.468  0.1397 -0.2202 -0.1747
 1107CHOL   ROH 9971   3.178   7.339   7.660  0.0958  0.0976  0.0165
 1107CHOL    R1 9972   3.201   7.147   7.453  0.1067  0.0226  0.0873
 1107CHOL    R2 9973   3.011   7.118   7.255  0.0902 -0.0856  0.1181
 1107CHOL    R3 9974   3.226   7.150   7.090  0.0669 -0.1111  0.0833
 1107CHOL    R4 9975   3.005   7.075   6.912  0.0310 -0.0966  0.1206
 1107CHOL    R5 9976   3.200   6.978   6.925  0.0242 -0.1142  0.0930
 1107CHOL    C1 9977   3.203   7.080   6.558 -0.0252 -0.1267  0.0891
 1107CHOL    C2 9978   2.928   6.992   6.272  0.1794 -0.3910  0.2803
 1108CHOL   ROH 9979   1.683  10.700   4.255  0.2566 -0.0540  0.0186
 1108CHOL    R1 9980   1.608  10.691   4.527  0.1882  0.0777  0.0041
 1108CHOL    R2 9981   1.653  10.470   4.687 -0.0483  0.0727  0.0652
 1108CHOL    R3 9982   1.778  10.652   4.847  0.0816 -0.0025  0.0505
 1108CHOL    R4 9983   1.664  10.454   5.032  0.1065 -0.0124  0.0563
 1108CHOL    R5 9984   1.635  10.670   5.038  0.1757 -0.0043  0.1214
 1108CHOL    C1 9985   1.787  10.615   5.383  0.3187 -0.1321  0.0377
 1108CHOL    C2 9986   1.677  10.731   5.689 -0.1121  0.1832  0.1706
 1109CHOL   ROH 9987  12.409   0.663   7.781 -0.3016  0.2088 -0.0179
 1109CHOL    R1 9988  12.337   0.696   7.509  0.0243  0.1895 -0.1068
 1109CHOL    R2 9989  12.499   0.612   7.301  0.1447 -0.0862  0.0964
 1109CHOL    R3 9990  12.276   0.478   7.224  0.0638  0.1518 -0.0866
 1109CHOL    R4 9991  12.461   0.452   6.998  0.2227 -0.0467  0.0656
 1109CHOL    R5 9992  12.256   0.526   6.990  0.3080  0.1723 -0.1037
 1109CHOL    C1 9993  12.229   0.232   6.748  0.1932  0.1997 -0.1242
 1109CHOL    C2 9994  12.166   0.588   6.408 -0.1062  0.0179  0.2121
 1110PNCE   AM1 9995  10.034   9.786   3.908 -0.1558 -0.0295  0.1260
 1110PNCE   AM2 9996  10.329  10.039   3.919  0.1724 -0.0202  0.0505
 1110PNCE   T1A 9997  10.076   9.739   4.305  0.4245  0.2479  0.0011
 1110PNCE   C2A 9998  10.131   9.857   4.751  0.1274  0.0848 -0.1212
 1110PNCE   C3A 9999  10.385  10.037   5.035 -0.2478 -0.1674 -0.0641
 1110PNCE   C1B10000  10.471  10.007   4.256 -0.0979 -0.0897 -0.0681
 1110PNCE   C2B10001  10.541   9.666   4.556  0.0682 -0.0625 -0.1927
 1110PNCE   C3B10002  10.704   9.603   4.954 -0.0772  0.0391  0.0196
 1110PNCE   D4B10003  10.730   9.325   5.234 -0.0513 -0.1479  0.0551
 1110PNCE   C5B10004  10.481   9.367   5.430  0.2080 -0.4323  0.4555
 1110PNCE   C6B10005  10.135   9.281   5.561 -0.0313 -0.0142  0.1076
 1111XCA    COO10006   9.317  10.784   4.197  0.1729  0.0772  0.2145
 1111XCA     C110007   9.500  10.723   4.685 -0.1398 -0.0432 -0.2181
 1111XCA     C210008   9.439  10.688   4.997  0.0020 -0.0687 -0.0386
 1111XCA     C310009   9.069  10.591   5.253 -0.2342  0.3523  0.1213
 1111XCA     C410010   9.042  10.235   5.609 -0.1048 -0.3043  0.0242
 1111XCA     C510011   8.799  10.025   5.733  0.0739  0.3516 -0.0326
 1111XCA     C610012   8.489   9.820   5.600  0.1639  0.0413  0.0671
 1112CHOL   ROH10013   1.148  13.970   5.076 -0.1291 -0.1051 -0.2156
 1112CHOL    R110014   0.993  13.998   5.312  0.0294 -0.0701 -0.1163
 1112CHOL    R210015   0.734  13.904   5.332 -0.0027  0.0488  0.0284
 1112CHOL    R310016   0.832  13.775   5.550  0.0713 -0.0315 -0.0520
 1112CHOL    R410017   0.554  13.840   5.620  0.0828 -0.0925  0.0501
 1112CHOL    R510018   0.732  13.889   5.736  0.1089 -0.1206  0.0231
 1112CHOL    C110019   0.541  13.681   5.992  0.2020 -0.2506 -0.0131
 1112CHOL    C210020   0.465  13.501   6.404 -0.0520  0.2956  0.0953
 1113CHOL   ROH10021   5.589   6.854   7.227  0.3359  0.1492 -0.1322
 1113CHOL    R110022   5.429   6.798   7.000  0.3238  0.0205 -0.0925
 1113CHOL    R210023   5.211   6.953   6.930  0.1196 -0.2145  0.0190
 1113CHOL    R310024   5.340   6.968   6.691  0.0226 -0.0046 -0.0201
 1113CHOL    R410025   5.062   7.038   6.630 -0.0827 -0.3324  0.0873
 1113CHOL    R510026   5.182   6.884   6.532  0.0737 -0.1647  0.0138
 1113CHOL    C110027   5.095   7.101   6.231 -0.2917 -0.2042  0.0893
 1113CHOL    C210028   4.909   7.455   6.070  0.0379 -0.0239 -0.6250
 1114XCA    COO10029   8.940  15.292   5.099  0.1834 -0.2451  0.2335
 1114XCA     C110030   8.912  15.353   5.498 -0.0797 -0.0159 -0.0249
 1114XCA     C210031   8.861  15.457   5.891 -0.2656  0.2609  0.3065
 1114XCA     C310032   8.592  15.202   6.160  0.1910  0.1602 -0.0846
 1114XCA     C410033   8.408  15.019   6.488  0.1431 -0.0219 -0.1067
 1114XCA     C510034   8.232  14.854   6.838  0.4041  0.1361 -0.2766
 1114XCA     C610035   8.060  14.618   7.196 -0.0906 -0.1778 -0.1168
 1115CHOL   ROH10036  13.414   9.854   4.446 -0.2437  0.0867 -0.1604
 1115CHOL    R110037  13.245   9.662   4.567 -0.0648 -0.0200 -0.0799
 1115CHOL    R210038  13.237   9.624   4.841  0.0591  0.0045 -0.0729
 1115CHOL    R310039  12.970   9.665   4.806  0.0165 -0.1871  0.0173
 1115CHOL    R410040  12.998   9.591   5.088  0.1869 -0.0014  0.0501
 1115CHOL    R510041  12.866   9.498   4.942  0.1836 -0.1731  0.1624
 1115CHOL    C110042  12.609   9.610   5.200  0.2218 -0.1841  0.2063
 1115CHOL    C210043  12.645   9.601   5.483 -0.1853 -0.0339 -0.1690
 1116XCA    COO10044  13.351  10.995   4.584  0.3714 -0.2156  0.1691
 1116XCA     C110045  13.142  11.051   5.001  0.0461 -0.1435  0.0832
 1116XCA     C210046  12.982  10.993   5.313  0.3489  0.4615 -0.1686
 1116XCA     C310047  12.995  11.181   5.663 -0.2558  0.0603 -0.0249
 1116XCA     C410048  12.845  10.971   5.989 -0.0912  0.3000  0.0735
 1116XCA     C510049  12.898  10.599   6.267  0.1204 -0.0021 -0.1067
 1116XCA     C610050  12.708  10.284   6.578 -0.0562 -0.1676 -0.1193
 1117PNCE   AM110051  11.425   7.836   4.155  0.0617  0.1265  0.1326
 1117PNCE   AM210052  11.554   7.569   4.048  0.0716 -0.1074  0.0321
 1117PNCE   T1A10053  11.766   7.857   4.485 -0.0816  0.0211  0.5595
 1117PNCE   C2A10054  12.037   7.563   4.800 -0.1982 -0.1918  0.1709
 1117PNCE   C3A10055  12.156   7.214   5.063  0.0232 -0.0015  0.2775
 1117PNCE   C1B10056  11.614   7.384   4.466  0.1936 -0.0673  0.0621
 1117PNCE   C2B10057  11.736   7.073   4.779 -0.0022 -0.2186  0.1959
 1117PNCE   C3B10058  11.809   6.927   5.156  0.1365 -0.0312  0.0159
 1117PNCE   D4B10059  11.478   6.778   5.413 -0.0893  0.2936 -0.0351
 1117PNCE   C5B10060  11.590   6.996   5.706  0.2299 -0.2043 -0.0722
 1117PNCE   C6B10061  11.367   6.927   6.069 -0.0661  0.1650  0.0256
 1118PNCE   AM110062   8.336   0.529   4.831  0.0003 -0.0767 -0.2110
 1118PNCE   AM210063   8.123   0.561   5.050 -0.1015  0.1003 -0.0156
 1118PNCE   T1A10064   8.784   0.690   4.880 -0.1521  0.1541  0.1734
 1118PNCE   C2A10065   9.114   0.699   5.138  0.0559 -0.7032  0.0658
 1118PNCE   C3A10066   9.236   0.738   5.553  0.2594  0.1847  0.1471
 1118PNCE   C1B10067   7.942   0.584   5.519  0.3950  0.2532 -0.1832
 1118PNCE   C2B10068   7.593   0.592   5.766  0.3872 -0.0068  0.0258
 1118PNCE   C3B10069   7.404   0.785   5.956 -0.0738  0.1005 -0.0561
 1118PNCE   D4B10070   7.253   0.721   6.324  0.0946 -0.2149  0.3700
 1118PNCE   C5B10071   6.921   0.654   6.638  0.0807 -0.0571  0.1255
 1118PNCE   C6B10072   6.710   0.807   6.902  0.0078 -0.2179  0.1451
 1119PNCE   AM110073   7.620   3.591   4.851 -0.1246 -0.1359  0.1481
 1119PNCE   AM210074   7.452   3.433   5.071 -0.1223  0.3185 -0.0250
 1119PNCE   T1A10075   7.318   3.926   4.966  0.1675  0.1295  0.0594
 1119PNCE   C2A10076   6.984   4.064   5.122 -0.0903 -0.1343  0.5125
 1119PNCE   C3A10077   7.006   4.363   5.480  0.0108  0.0166 -0.0972
 1119PNCE   C1B10078   7.625   3.736   5.314 -0.0713  0.0977 -0.2591
 1119PNCE   C2B10079   7.652   3.611   5.806  0.0303 -0.1172  0.3778
 1119PNCE   C3B10080   7.359   3.663   6.138 -0.2009 -0.0586  0.0181
 1119PNCE   D4B10081   6.909   3.789   6.153  0.1344  0.1630  0.2916
 1119PNCE   C5B10082   6.573   3.994   6.163 -0.1830 -0.1268  0.1026
 1119PNCE   C6B10083   6.056   3.953   6.165 -0.0502 -0.2853  0.0397
 1120PNCE   AM110084  14.515   4.049   4.316 -0.2359 -0.0317  0.1390
 1120PNCE   AM210085  14.354   4.286   4.314  0.0676 -0.0579 -0.0560
 1120PNCE   T1A10086  14.426   3.792   4.748 -0.0837 -0.0559 -0.0303
 1120PNCE   C2A10087  14.290   3.650   5.086  0.2254 -0.2190  0.0809
 1120PNCE   C3A10088  14.024   3.406   5.196  0.1673 -0.1365 -0.1290
 1120PNCE   C1B10089  14.495   4.311   4.750 -0.0684  0.0435 -0.2364
 1120PNCE   C2B10090  14.686   4.187   5.160 -0.2113  0.0747  0.0117
 1120PNCE   C3B10091  14.564   4.036   5.625 -0.0769 -0.3775 -0.0346
 1120PNCE   D4B10092  14.421   3.802   6.021 -0.0720 -0.1383  0.0410
 1120PNCE   C5B10093  14.588   4.035   6.412  0.3567 -0.0641 -0.1280
 1120PNCE   C6B10094  14.788   4.184   6.717 -0.1456  0.0904 -0.1876
 1121PNCE   AM110095   0.738  13.419   4.645 -0.0118 -0.3100  0.1086
 1121PNCE   AM210096   0.703  13.780   4.805 -0.1524  0.2588  0.1782
 1121PNCE   T1A10097   0.913  13.413   5.034 -0.1552  0.1548 -0.0230
 1121PNCE   C2A10098   1.125  13.478   5.318 -0.4238  0.0802  0.0803
 1121PNCE   C3A10099   1.304  13.554   5.676 -0.2578  0.2595 -0.1747
 1121PNCE   C1B10100   0.432  13.565   5.185 -0.2437  0.2334  0.1034
 1121PNCE   C2B10101   0.298  13.439   5.552 -0.2735 -0.2726 -0.1107
 1121PNCE   C3B10102   0.368  13.268   5.949  0.0855 -0.0361  0.0837
 1121PNCE   D4B10103   0.639  12.952   6.144 -0.0071 -0.0694 -0.0214
 1121PNCE   C5B10104   0.743  12.663   5.944 -0.2475 -0.2810  0.0690
 1121PNCE   C6B10105   0.875  12.727   5.583  0.1033 -0.0986  0.0005
 1122CHOL   ROH10106   6.551  11.124   6.871 -0.0893 -0.0501 -0.0401
 1122CHOL    R110107   6.442  10.903   6.732  0.0029 -0.1349  0.0219
 1122CHOL    R210108   6.394  10.908   6.460 -0.1224 -0.1853  0.0434
 1122CHOL    R310109   6.547  10.683   6.462  0.0358 -0.0771 -0.0117
 1122CHOL    R410110   6.423  10.686   6.196 -0.0932 -0.1836  0.0467
 1122CHOL    R510111   6.418  10.522   6.339  0.0901 -0.1764  0.0613
 1122CHOL    C110112   6.584  10.347   6.044  0.0725 -0.0836 -0.0039
 1122CHOL    C210113   6.237  10.177   5.860  0.0162  0.1700  0.0210
 1123CHOL   ROH10114   8.096   8.226   4.153  0.1612 -0.1225 -0.1855
 1123CHOL    R110115   7.972   8.225   4.408  0.0818 -0.0081 -0.2236
 1123CHOL    R210116   8.046   8.049   4.608 -0.1042 -0.0385 -0.1822
 1123CHOL    R310117   8.076   8.277   4.753  0.0117 -0.0445 -0.1973
 1123CHOL    R410118   7.996   8.074   4.949 -0.0234 -0.0072 -0.1729
 1123CHOL    R510119   7.901   8.267   4.916  0.0420  0.0281 -0.1602
 1123CHOL    C110120   7.996   8.302   5.284  0.1326  0.0062 -0.1817
 1123CHOL    C210121   7.690   8.238   5.545  0.0080 -0.1018 -0.2459
 1124XCA    COO10122  12.887   8.765   3.615  0.0315  0.3254 -0.0455
 1124XCA     C110123  12.964   8.634   4.082  0.1235  0.0638 -0.0740
 1124XCA     C210124  12.607   8.421   4.391 -0.3419  0.1601 -0.1745
 1124XCA     C310125  12.612   8.458   4.769  0.0934  0.1854 -0.1050
 1124XCA     C410126  12.426   8.607   5.103 -0.2248  0.2951  0.0525
 1124XCA     C510127  12.284   8.638   5.551  0.0267  0.1067 -0.0637
 1124XCA     C610128  12.075   8.618   5.871  0.3150 -0.2405  0.2976
 1125CHOL   ROH10129   0.624   0.137   6.744 -0.0000 -0.0855 -0.0024
 1125CHOL    R110130   0.387   0.275   6.674 -0.0207 -0.1011  0.0365
 1125CHOL    R210131   0.383   0.547   6.624 -0.0512 -0.0973  0.0599
 1125CHOL    R310132   0.269   0.470   6.389 -0.0709 -0.0878  0.0663
 1125CHOL    R410133   0.226   0.760   6.402 -0.0187 -0.0794  0.0541
 1125CHOL    R510134   0.073   0.607   6.370 -0.0469 -0.0536  0.0648
 1125CHOL    C110135   0.028   0.812   6.052 -0.0183 -0.0600  0.0566
 1125CHOL    C210136   0.061   1.025   5.771  0.0543  0.3150  0.1239
 1126PNCE   AM110137   3.731  10.838   3.290  0.3840  0.1846  0.1386
 1126PNCE   AM210138   4.098  10.642   3.338 -0.0740 -0.0525 -0.1513
 1126PNCE   T1A10139   3.702  11.024   3.720  0.1357  0.1287 -0.0826
 1126PNCE   C2A10140   3.662  11.075   4.263 -0.3994 -0.1892  0.0214
 1126PNCE   C3A10141   3.790  11.202   4.627  0.1684  0.1002  0.1536
 1126PNCE   C1B10142   3.808  10.519   3.775  0.0866  0.4028  0.0621
 1126PNCE   C2B10143   3.584  10.635   4.070 -0.0089  0.2501 -0.4355
 1126PNCE   C3B10144   3.284  10.556   4.397  0.1883 -0.0202 -0.2772
 1126PNCE   D4B10145   3.143  10.240   4.746 -0.1271 -0.2209 -0.0212
 1126PNCE   C5B10146   3.494  10.009   4.898 -0.1899 -0.0546 -0.1592
 1126PNCE   C6B10147   3.741   9.910   5.245  0.3705 -0.2883 -0.0558
 1127CHOL   ROH10148   4.826   0.848   5.212 -0.0166  0.0232  0.0455
 1127CHOL    R110149   4.962   0.710   5.418 -0.0246  0.1807  0.1566
 1127CHOL    R210150   4.873   0.708   5.680 -0.2417  0.0667  0.0815
 1127CHOL    R310151   4.888   0.438   5.648  0.1079  0.0853  0.0864
 1127CHOL    R410152   4.823   0.476   5.932 -0.1791 -0.0000  0.0327
 1127CHOL    R510153   4.989   0.360   5.851  0.0291  0.2007  0.1702
 1127CHOL    C110154   4.809   0.089   6.049  0.1856 -0.0214  0.0088
 1127CHOL    C210155   4.921   0.034   6.370 -0.1795 -0.1977 -0.1060
 1128PNCE   AM110156   7.238  14.206   4.457 -0.2510 -0.2539  0.2140
 1128PNCE   AM210157   7.170  13.974   4.443  0.0503  0.1731 -0.3686
 1128PNCE   T1A10158   7.057  14.548   4.566 -0.0003  0.0675  0.2486
 1128PNCE   C2A10159   7.011  14.818   4.983 -0.1460 -0.2265 -0.0989
 1128PNCE   C3A10160   6.921  15.088   5.289  0.0572  0.2191  0.2593
 1128PNCE   C1B10161   6.817  13.691   4.254 -0.1376 -0.0256  0.1630
 1128PNCE   C2B10162   6.473  13.678   4.322 -0.2839  0.0629 -0.2848
 1128PNCE   C3B10163   6.310  13.495   4.718 -0.0820 -0.2203  0.2548
 1128PNCE   D4B10164   6.012  13.220   4.926  0.1990  0.1062 -0.0140
 1128PNCE   C5B10165   5.961  12.727   4.886 -0.2033  0.0078 -0.1431
 1128PNCE   C6B10166   5.797  12.331   5.005 -0.0556 -0.0700 -0.1922
 1129CHOL   ROH10167  15.013   6.861   4.622  0.2156 -0.1824 -0.1784
 1129CHOL    R110168  15.054   6.742   4.876  0.0505 -0.1678 -0.1447
 1129CHOL    R210169  15.207   6.514   4.910  0.0736 -0.1340 -0.0252
 1129CHOL    R310170  15.339   6.669   5.091 -0.0953 -0.1016  0.0712
 1129CHOL    R410171  15.451   6.400   5.127  0.2570  0.0143 -0.1519
 1129CHOL    R510172  15.365   6.528   5.282  0.1183 -0.2139 -0.0410
 1129CHOL    C110173  15.717   6.480   5.423  0.2036  0.1309 -0.1356
 1129CHOL    C210174  16.154   6.367   5.457  0.1849 -0.2338 -0.3349
 1130PNCE   AM110175   6.750  13.147   4.303  0.0225 -0.1302  0.1820
 1130PNCE   AM210176   6.479  13.041   4.361  0.3088  0.0287 -0.3659
 1130PNCE   T1A10177   6.806  13.405   4.665  0.0243  0.0995 -0.0432
 1130PNCE   C2A10178   6.652  13.544   5.090 -0.2249 -0.3291  0.0977
 1130PNCE   C3A10179   6.479  13.886   5.160 -0.4067 -0.1058 -0.2087
 1130PNCE   C1B10180   6.555  13.054   4.849 -0.0892  0.0334 -0.0702
 1130PNCE   C2B10181   6.392  12.879   5.219  0.0594 -0.1299  0.0531
 1130PNCE   C3B10182   6.148  12.714   5.512 -0.0037  0.1688 -0.1375
 1130PNCE   D4B10183   6.232  12.430   5.705  0.4390 -0.1653  0.4518
 1130PNCE   C5B10184   6.425  12.202   6.067 -0.1060  0.0708 -0.1144
 1130PNCE   C6B10185   6.733  11.876   6.159  0.0652 -0.1888 -0.0650
 1131PNCE   AM110186   5.125   9.081   3.491  0.2946 -0.1168  0.2087
 1131PNCE   AM210187   4.811   8.998   3.439 -0.0872 -0.1738 -0.1346
 1131PNCE   T1A10188   5.141   9.313   3.862 -0.0642  0.0026  0.0618
 1131PNCE   C2A10189   5.012   9.420   4.245  0.1053 -0.2132  0.3586
 1131PNCE   C3A10190   4.844   9.317   4.606  0.0054 -0.0545  0.0500
 1131PNCE   C1B10191   4.804   8.984   3.895 -0.3145  0.1053  0.0714
 1131PNCE   C2B10192   4.671   8.861   4.225  0.0149  0.1888  0.1407
 1131PNCE   C3B10193   4.402   8.700   4.551 -0.1601 -0.0799  0.3189
 1131PNCE   D4B10194   4.398   8.455   4.923  0.1024  0.0739 -0.0252
 1131PNCE   C5B10195   4.015   8.343   5.242 -0.3372  0.2223  0.0975
 1131PNCE   C6B10196   3.707   8.343   5.451 -0.0493  0.0723 -0.3878
 1132PNCE   AM110197   8.241   2.325   4.670  0.3059 -0.0165  0.0906
 1132PNCE   AM210198   7.936   2.045   4.716  0.1035 -0.1314 -0.3387
 1132PNCE   T1A10199   8.092   2.462   5.156 -0.1358 -0.0494 -0.0424
 1132PNCE   C2A10200   8.315   2.462   5.518 -0.2072 -0.3591 -0.0869
 1132PNCE   C3A10201   8.415   2.799   5.805 -0.3266  0.1299  0.1697
 1132PNCE   C1B10202   7.862   1.991   5.153 -0.2950  0.0346 -0.2237
 1132PNCE   C2B10203   7.947   2.132   5.648 -0.0028  0.0283  0.0827
 1132PNCE   C3B10204   8.063   2.379   5.983 -0.0936  0.3481  0.0849
 1132PNCE   D4B10205   7.753   2.684   6.122 -0.0034  0.0970 -0.1529
 1132PNCE   C5B10206   7.313   2.694   6.190 -0.2313  0.2693 -0.2883
 1132PNCE   C6B10207   7.071   2.435   6.424 -0.1896  0.3548 -0.1268
 1133PNCE   AM110208   9.528   5.318   4.275 -0.2237  0.1681 -0.0018
 1133PNCE   AM210209   9.303   5.112   4.269 -0.0032 -0.1122  0.1144
 1133PNCE   T1A10210   9.857   5.444   4.626  0.0009  0.0984  0.1113
 1133PNCE   C2A10211   9.959   5.629   4.997  0.1944  0.0833 -0.0958
 1133PNCE   C3A10212   9.802   5.542   5.362 -0.3313  0.1222  0.1845
 1133PNCE   C1B10213   9.125   5.374   4.584 -0.1990 -0.0145 -0.1547
 1133PNCE   C2B10214   8.835   5.349   4.814  0.0534 -0.0713 -0.2173
 1133PNCE   C3B10215   8.561   5.292   5.187  0.0810  0.1017  0.0662
 1133PNCE   D4B10216   8.461   5.155   5.616  0.0357 -0.0559 -0.0816
 1133PNCE   C5B10217   8.718   4.917   5.857 -0.0427 -0.0861 -0.0318
 1133PNCE   C6B10218   8.686   4.545   5.925 -0.2017 -0.1558  0.3634
 1134PNCE   AM110219   8.639  12.903   4.986 -0.0454  0.0487 -0.2978
 1134PNCE   AM210220   8.370  13.002   4.938 -0.1111 -0.0327 -0.2804
 1134PNCE   T1A10221   8.783  12.870   5.384 -0.3388 -0.6451 -0.2028
 1134PNCE   C2A10222   8.898  12.855   5.786 -0.2076  0.3050 -0.0958
 1134PNCE   C3A10223   9.017  12.671   6.297 -0.1565 -0.0335  0.1323
 1134PNCE   C1B10224   8.097  13.167   5.422  0.2295  0.0211 -0.1212
 1134PNCE   C2B10225   7.739  13.245   5.732 -0.0810  0.0358 -0.1209
 1134PNCE   C3B10226   7.502  12.908   6.040  0.0027 -0.2204  0.0077
 1134PNCE   D4B10227   7.617  12.786   6.450  0.1237 -0.0185  0.1002
 1134PNCE   C5B10228   8.039  12.541   6.365 -0.0302  0.2030 -0.0364
 1134PNCE   C6B10229   8.268  12.162   6.093  0.2722 -0.0332 -0.0721
 1135CHOL   ROH10230   7.185   0.807   5.436  0.0345 -0.2898 -0.1810
 1135CHOL    R110231   7.011   0.648   5.593  0.0699 -0.3074 -0.1593
 1135CHOL    R210232   7.096   0.421   5.724  0.1550 -0.1866 -0.0056
 1135CHOL    R310233   6.989   0.545   5.941  0.0013 -0.1324 -0.1121
 1135CHOL    R410234   6.947   0.259   5.991  0.1051 -0.1273  0.0026
 1135CHOL    R510235   6.795   0.415   5.994  0.0348 -0.1931 -0.1395
 1135CHOL    C110236   6.760   0.282   6.350 -0.0674 -0.0419 -0.0926
 1135CHOL    C210237   6.526   0.002   6.532  0.0681 -0.3115  0.0919
 1136PNCE   AM110238   6.127  16.336   4.995  0.0687  0.0603  0.0068
 1136PNCE   AM210239   6.250  16.635   4.831 -0.1088  0.2118 -0.1937
 1136PNCE   T1A10240   6.369  16.395   5.340  0.0770  0.0802  0.0154
 1136PNCE   C2A10241   6.288  16.691   5.676  0.0332 -0.0884 -0.0919
 1136PNCE   C3A10242   6.303  17.123   5.831  0.0205 -0.1584  0.2278
 1136PNCE   C1B10243   5.832  16.723   5.032 -0.0258  0.0224  0.5346
 1136PNCE   C2B10244   5.757  16.599   5.473  0.2200  0.0473 -0.0928
 1136PNCE   C3B10245   5.903  16.586   5.943 -0.1610 -0.1017  0.0351
 1136PNCE   D4B10246   6.105  16.241   6.091 -0.0919  0.0012  0.0094
 1136PNCE   C5B10247   6.230  15.869   6.212 -0.4278  0.1761  0.0319
 1136PNCE   C6B10248   6.064  15.583   6.454 -0.1798 -0.2055 -0.0057
 1137CHOL   ROH10249   1.431   9.611   6.722 -0.1028 -0.0800 -0.1841
 1137CHOL    R110250   1.669   9.524   6.595 -0.0485 -0.0224 -0.1216
 1137CHOL    R210251   1.754   9.627   6.353  0.0259  0.0475 -0.0656
 1137CHOL    R310252   1.984   9.674   6.491 -0.0280  0.0370  0.0271
 1137CHOL    R410253   2.070   9.640   6.213  0.0675  0.1745  0.0403
 1137CHOL    R510254   2.146   9.533   6.387  0.0350  0.1163  0.0191
 1137CHOL    C110255   2.469   9.693   6.261  0.0412  0.2383  0.1893
 1137CHOL    C210256   2.830   9.619   6.321  0.1079  0.0032 -0.0436
 1138PNCE   AM110257  13.497   5.693   4.240 -0.0043 -0.1895  0.1234
 1138PNCE   AM210258  13.208   5.794   4.197 -0.3272 -0.0316 -0.3072
 1138PNCE   T1A10259  13.341   5.835   4.692 -0.0430 -0.0061  0.3400
 1138PNCE   C2A10260  13.573   5.698   5.072  0.1828 -0.2024 -0.1584
 1138PNCE   C3A10261  13.593   5.706   5.564  0.1908 -0.0799 -0.0949
 1138PNCE   C1B10262  12.983   5.600   4.490  0.1828 -0.0719 -0.0646
 1138PNCE   C2B10263  12.618   5.421   4.601  0.1007 -0.0717 -0.1126
 1138PNCE   C3B10264  12.499   5.347   4.977 -0.0594  0.0190  0.0157
 1138PNCE   D4B10265  12.687   5.308   5.357  0.1973 -0.0010  0.0366
 1138PNCE   C5B10266  12.388   5.433   5.638 -0.1218 -0.3105 -0.0697
 1138PNCE   C6B10267  12.375   5.683   6.059 -0.4748  0.0246  0.0468
 1139PNCE   AM110268   7.240   6.835   7.647 -0.0087 -0.3400  0.1983
 1139PNCE   AM210269   6.923   6.883   7.557 -0.1988 -0.5827 -0.0616
 1139PNCE   T1A10270   7.344   7.073   7.240 -0.0936  0.0057  0.1997
 1139PNCE   C2A10271   7.408   7.098   6.759 -0.1600 -0.0610  0.0525
 1139PNCE   C3A10272   7.409   7.362   6.362  0.1576 -0.3014 -0.2983
 1139PNCE   C1B10273   6.894   6.767   7.093  0.0969 -0.1728  0.1678
 1139PNCE   C2B10274   6.955   6.837   6.684 -0.0552  0.0011 -0.0157
 1139PNCE   C3B10275   7.154   6.952   6.279 -0.0960  0.3741  0.0461
 1139PNCE   D4B10276   7.256   7.185   5.886  0.0176 -0.3308 -0.1945
 1139PNCE   C5B10277   7.426   7.561   5.822  0.3191 -0.1330 -0.3957
 1139PNCE   C6B10278   7.579   7.840   5.790  0.3938  0.0343  0.1263
 1140XCA    COO10279  11.834   2.093   7.765 -0.0040 -0.0139 -0.1008
 1140XCA     C110280  11.856   2.077   7.360 -0.0690  0.1775 -0.1297
 1140XCA     C210281  11.791   1.773   6.985  0.1540 -0.1050 -0.1372
 1140XCA     C310282  12.123   1.508   6.798 -0.2800  0.1857  0.0354
 1140XCA     C410283  12.617   1.512   6.762  0.1982 -0.1499  0.0183
 1140XCA     C510284  12.834   1.732   6.968  0.0634  0.1724  0.2915
 1140XCA     C610285  13.177   1.908   7.005 -0.0935 -0.2472  0.1511
 1141CHOL   ROH10286   3.369  14.034   6.261 -0.1193  0.0594  0.1261
 1141CHOL    R110287   3.328  13.935   5.999 -0.2384  0.0763  0.1376
 1141CHOL    R210288   3.085  13.950   5.871 -0.2668  0.1899  0.2050
 1141CHOL    R310289   3.231  14.072   5.677 -0.2631  0.1206  0.1639
 1141CHOL    R410290   2.960  14.054   5.566 -0.2446  0.0148  0.1352
 1141CHOL    R510291   3.143  13.983   5.472 -0.2185  0.0014  0.1962
 1141CHOL    C110292   3.024  14.230   5.206 -0.2280 -0.1520  0.0563
 1141CHOL    C210293   2.934  14.291   4.909  0.2429  0.3255  0.1123
 1142PNCE   AM110294  11.269  13.964   4.921  0.3941 -0.1029  0.2742
 1142PNCE   AM210295  11.227  14.262   4.788  0.1628 -0.1310  0.1940
 1142PNCE   T1A10296  11.055  14.046   5.372  0.1193  0.1777  0.2843
 1142PNCE   C2A10297  11.033  14.025   5.759  0.1607  0.1201 -0.1378
 1142PNCE   C3A10298  10.897  13.921   6.122  0.0370  0.1331 -0.1520
 1142PNCE   C1B10299  11.187  14.482   5.195 -0.2443  0.2123 -0.0259
 1142PNCE   C2B10300  11.564  14.706   5.426 -0.1259  0.0160  0.1895
 1142PNCE   C3B10301  11.687  14.710   5.847  0.0593  0.0909  0.2442
 1142PNCE   D4B10302  11.895  14.862   6.237  0.1431 -0.1230  0.1314
 1142PNCE   C5B10303  11.488  14.742   6.372  0.2464 -0.0859  0.0079
 1142PNCE   C6B10304  11.255  14.989   6.730 -0.0479 -0.0158  0.1437
 1143PNCE   AM110305  11.788   0.010   4.174  0.1147 -0.4331  0.1876
 1143PNCE   AM210306  12.003  -0.116   4.298  0.1504 -0.2352  0.1779
 1143PNCE   T1A10307  11.809   0.344   4.473 -0.0371  0.3783  0.0658
 1143PNCE   C2A10308  12.052   0.453   4.732  0.1377  0.0519  0.1572
 1143PNCE   C3A10309  12.507   0.421   4.807  0.0052  0.0747 -0.0371
 1143PNCE   C1B10310  12.257  -0.046   4.611  0.0038 -0.2685  0.1496
 1143PNCE   C2B10311  12.322   0.017   5.063  0.1598  0.1385  0.0296
 1143PNCE   C3B10312  12.452   0.053   5.459 -0.2529 -0.3252 -0.0335
 1143PNCE   D4B10313  12.505   0.058   5.880  0.1279  0.0591  0.2115
 1143PNCE   C5B10314  12.436   0.148   6.340  0.3406 -0.1278  0.1842
 1143PNCE   C6B10315  12.640   0.548   6.517  0.1310 -0.3449 -0.1263
 1144CHOL   ROH10316   6.492   8.092   6.973  0.0126 -0.1744  0.0841
 1144CHOL    R110317   6.392   7.928   6.764 -0.0033 -0.1631  0.0825
 1144CHOL    R210318   6.250   8.030   6.550 -0.1013 -0.1635  0.1472
 1144CHOL    R310319   6.439   7.900   6.404 -0.1075 -0.0760  0.0616
 1144CHOL    R410320   6.203   7.908   6.230 -0.1848 -0.1698  0.1624
 1144CHOL    R510321   6.317   7.731   6.287 -0.0851 -0.1233  0.1068
 1144CHOL    C110322   6.353   7.715   5.907 -0.2391 -0.0921  0.0910
 1144CHOL    C210323   6.308   7.828   5.559  0.2059 -0.0265 -0.1997
 1145CHOL   ROH10324   9.248   4.917   7.664 -0.0470 -0.1415 -0.0276
 1145CHOL    R110325   9.206   4.849   7.393 -0.0167 -0.1833 -0.0219
 1145CHOL    R210326   9.025   4.982   7.233 -0.1164 -0.3132 -0.0178
 1145CHOL    R310327   9.241   5.015   7.070 -0.1469 -0.1757 -0.0321
 1145CHOL    R410328   9.014   4.982   6.887 -0.1521 -0.2244 -0.0172
 1145CHOL    R510329   9.199   4.867   6.886 -0.1016 -0.1440 -0.0677
 1145CHOL    C110330   9.210   5.012   6.534 -0.2014 -0.0429 -0.0300
 1145CHOL    C210331   9.228   5.076   6.141 -0.0141 -0.0818 -0.1888
 1146PNCE   AM110332   1.477  15.174   4.874 -0.0509  0.0212  0.0758
 1146PNCE   AM210333   1.244  15.286   5.025  0.1096  0.2730  0.0958
 1146PNCE   T1A10334   1.498  14.872   5.275 -0.3156 -0.2064  0.0818
 1146PNCE   C2A10335   1.375  14.767   5.625  0.0422  0.1205 -0.0203
 1146PNCE   C3A10336   1.429  14.485   5.856  0.1085  0.1747 -0.0657
 1146PNCE   C1B10337   1.403  15.358   5.359 -0.2996 -0.1784  0.0415
 1146PNCE   C2B10338   1.424  15.268   5.775  0.0665  0.0874 -0.0407
 1146PNCE   C3B10339   1.515  15.228   6.234 -0.4022 -0.1130  0.0303
 1146PNCE   D4B10340   1.418  15.243   6.674  0.1895 -0.2814 -0.2072
 1146PNCE   C5B10341   1.915  15.215   6.910 -0.3425 -0.1310  0.0312
 1146PNCE   C6B10342   2.253  15.204   7.266 -0.1109  0.1491 -0.1433
 1147CHOL   ROH10343   8.886  12.455   5.176 -0.3350  0.0009 -0.1023
 1147CHOL    R110344   8.792  12.326   5.409 -0.4454  0.1931 -0.0398
 1147CHOL    R210345   8.934  12.325   5.646 -0.2803 -0.1147 -0.1399
 1147CHOL    R310346   8.702  12.424   5.748  0.0017  0.3747  0.0267
 1147CHOL    R410347   8.856  12.339   5.983 -0.0687 -0.0849 -0.0923
 1147CHOL    R510348   8.652  12.280   5.933 -0.2313  0.4067 -0.0100
 1147CHOL    C110349   8.594  12.440   6.274  0.3187  0.3920  0.0916
 1147CHOL    C210350   8.749  12.430   6.657 -0.0695 -0.1758  0.2631
 1148CHOL   ROH10351  13.885   5.848   4.686  0.0582 -0.0047  0.0769
 1148CHOL    R110352  14.010   5.858   4.940  0.0472  0.1121  0.0784
 1148CHOL    R210353  14.038   6.093   5.082 -0.0161  0.1676 -0.0004
 1148CHOL    R310354  13.914   5.952   5.278  0.0113  0.2038  0.0428
 1148CHOL    R410355  14.031   6.183   5.416  0.1602  0.1483  0.0088
 1148CHOL    R510356  14.058   5.973   5.468  0.0992  0.1340 -0.0169
 1148CHOL    C110357  13.909   6.102   5.794  0.2886  0.1711  0.0550
 1148CHOL    C210358  14.000   6.393   5.864 -0.2921  0.0033  0.0693
 1149XCA    COO10359  13.970   4.615   4.329 -0.1232  0.0023 -0.0141
 1149XCA     C110360  13.937   4.393   4.661 -0.2782  0.0520 -0.3327
 1149XCA     C210361  14.023   4.016   4.963  0.0295 -0.0106 -0.2791
 1149XCA     C310362  14.166   4.059   5.329  0.2449 -0.1230  0.2004
 1149XCA     C410363  14.207   3.702   5.547  0.1768  0.2808 -0.1757
 1149XCA     C510364  13.814   3.405   5.647 -0.0073 -0.1266  0.0344
 1149XCA     C610365  13.821   2.896   5.664  0.2508  0.0230  0.0466
 1150PNCE   AM110366   1.295  10.380   4.127  0.2016  0.1915  0.1105
 1150PNCE   AM210367   1.417  10.037   4.138  0.1654  0.2668  0.0041
 1150PNCE   T1A10368   1.270  10.194   4.612  0.0965 -0.1273  0.0201
 1150PNCE   C2A10369   1.342  10.037   5.116 -0.1417 -0.1332  0.0062
 1150PNCE   C3A10370   1.636  10.192   5.470  0.2335  0.2146 -0.0861
 1150PNCE   C1B10371   1.698   9.805   4.016 -0.1324 -0.2019  0.2104
 1150PNCE   C2B10372   2.174   9.769   4.111 -0.1121 -0.1785  0.0560
 1150PNCE   C3B10373   2.600   9.787   4.047 -0.0302 -0.0673 -0.2425
 1150PNCE   D4B10374   2.747   9.465   4.053  0.0147  0.0978 -0.0241
 1150PNCE   C5B10375   2.864   9.367   4.373  0.1603 -0.4304  0.1905
 1150PNCE   C6B10376   2.693   9.222   4.709 -0.0484  0.0776  0.2371
 1151XCA    COO10377  13.250   7.603   3.844 -0.0403  0.1949  0.0762
 1151XCA     C110378  13.227   7.762   4.221  0.0221 -0.0820 -0.2729
 1151XCA     C210379  13.358   7.845   4.568  0.2320  0.1142 -0.1303
 1151XCA     C310380  13.214   7.758   4.939  0.1147  0.0224 -0.1639
 1151XCA     C410381  13.076   7.828   5.296  0.1855 -0.1617  0.1293
 1151XCA     C510382  12.927   7.994   5.576  0.0379  0.1971  0.0200
 1151XCA     C610383  12.676   7.843   5.932 -0.4466  0.3131 -0.2767
 1152CHOL   ROH10384   3.902  11.403   6.947 -0.2318  0.0763 -0.1133
 1152CHOL    R110385   4.039  11.247   6.754 -0.0837  0.1168 -0.0403
 1152CHOL    R210386   3.911  11.129   6.540  0.0413 -0.0397 -0.0285
 1152CHOL    R310387   4.099  11.262   6.396 -0.0270  0.0513 -0.0332
 1152CHOL    R410388   3.982  11.070   6.207  0.0794 -0.0234 -0.0234
 1152CHOL    R510389   4.194  11.094   6.253  0.0651  0.0930 -0.0210
 1152CHOL    C110390   4.200  11.161   5.877  0.0378  0.0708 -0.0249
 1152CHOL    C210391   4.541  11.228   5.666 -0.1431 -0.1398  0.1324
 1153PNCE   AM110392   2.983   4.738   4.436  0.3030 -0.0546 -0.0634
 1153PNCE   AM210393   3.076   4.453   4.610  0.1458 -0.0286  0.1765
 1153PNCE   T1A10394   3.086   5.053   4.695 -0.1116 -0.1685 -0.1025
 1153PNCE   C2A10395   3.327   5.417   4.838  0.0532 -0.0067  0.0309
 1153PNCE   C3A10396   3.821   5.384   4.899 -0.0638  0.0835 -0.4134
 1153PNCE   C1B10397   3.214   4.532   5.067 -0.1431  0.0207  0.4979
 1153PNCE   C2B10398   3.506   4.276   5.357  0.0008  0.2715 -0.0515
 1153PNCE   C3B10399   3.600   4.177   5.785  0.0611  0.2422 -0.0623
 1153PNCE   D4B10400   3.625   3.811   6.118 -0.0065  0.0800 -0.1415
 1153PNCE   C5B10401   3.990   3.489   6.250 -0.1533  0.2514  0.0198
 1153PNCE   C6B10402   4.123   3.153   5.923  0.1652 -0.0450  0.0521
 1154XCA    COO10403  14.117   1.256   4.594 -0.4867  0.4994  0.2003
 1154XCA     C110404  14.202   1.379   4.965  0.0756  0.1122 -0.3772
 1154XCA     C210405  14.294   1.805   5.122 -0.0366  0.2920 -0.0973
 1154XCA     C310406  14.347   2.111   5.415  0.0334 -0.0364  0.0373
 1154XCA     C410407  14.248   2.476   5.552  0.1622  0.1007 -0.4980
 1154XCA     C510408  14.297   2.818   5.844 -0.0716 -0.1833 -0.1964
 1154XCA     C610409  13.974   2.899   6.227 -0.4078  0.3008 -0.1371
 1155CHOL   ROH10410   9.505   4.117   7.751 -0.0787  0.2023 -0.1216
 1155CHOL    R110411   9.620   4.031   7.507 -0.0887  0.0625 -0.0768
 1155CHOL    R210412   9.483   4.036   7.268 -0.0197  0.1451 -0.1146
 1155CHOL    R310413   9.698   4.180   7.185  0.1294 -0.0579 -0.0795
 1155CHOL    R410414   9.673   3.963   6.989 -0.0257 -0.0504 -0.0672
 1155CHOL    R510415   9.851   4.014   7.103 -0.0033 -0.2036 -0.0329
 1155CHOL    C110416   9.986   4.054   6.748  0.1102 -0.3546 -0.0068
 1155CHOL    C210417  10.153   3.835   6.454  0.0918  0.2324 -0.2755
 1156CHOL   ROH10418  16.036   0.292   4.486  0.0043  0.0368 -0.0019
 1156CHOL    R110419  16.188   0.241   4.719  0.0229 -0.0910 -0.0412
 1156CHOL    R210420  16.168   0.397   4.946  0.2091 -0.0774 -0.0347
 1156CHOL    R310421  16.120   0.158   5.066  0.0436 -0.0393 -0.0249
 1156CHOL    R410422  16.136   0.351   5.287  0.1011 -0.0293 -0.0377
 1156CHOL    R510423  16.250   0.166   5.268  0.0000 -0.0958  0.0052
 1156CHOL    C110424  16.072   0.100   5.599 -0.1171  0.0345 -0.0313
 1156CHOL    C210425  15.810  -0.064   5.793 -0.0308 -0.0771  0.0658
 1157CHOL   ROH10426   8.873   6.167   5.633  0.0696 -0.3451  0.0871
 1157CHOL    R110427   8.747   5.976   5.799  0.0539 -0.1807  0.2651
 1157CHOL    R210428   8.809   5.947   6.067  0.0238  0.0895  0.3016
 1157CHOL    R310429   8.542   5.981   6.100  0.0194  0.1174  0.2361
 1157CHOL    R410430   8.643   5.926   6.369 -0.0677  0.0069  0.2465
 1157CHOL    R510431   8.482   5.821   6.268 -0.0525  0.0668  0.1621
 1157CHOL    C110432   8.296   5.945   6.577 -0.1242 -0.0155  0.1529
 1157CHOL    C210433   8.309   5.948   6.967 -0.1057 -0.0496  0.1097
 1158PNCE   AM110434   3.298  12.019   3.817 -0.0661  0.0185  0.0330
 1158PNCE   AM210435   3.009  12.242   3.789  0.3342  0.1216 -0.0062
 1158PNCE   T1A10436   3.206  11.801   4.245 -0.1535  0.1500 -0.1754
 1158PNCE   C2A10437   3.413  11.541   4.604 -0.1170 -0.0364  0.4668
 1158PNCE   C3A10438   3.620  11.450   5.004  0.1255  0.1383 -0.0558
 1158PNCE   C1B10439   3.290  12.374   4.174 -0.0573 -0.2988 -0.1082
 1158PNCE   C2B10440   3.535  12.749   4.465 -0.1408  0.1813  0.0018
 1158PNCE   C3B10441   3.416  13.001   4.797  0.1408  0.3624  0.1938
 1158PNCE   D4B10442   3.193  13.065   5.079 -0.0827 -0.2786 -0.0593
 1158PNCE   C5B10443   3.307  12.967   5.424  0.1541  0.0926 -0.2904
 1158PNCE   C6B10444   3.576  12.688   5.712  0.1673  0.1738  0.0440
 1159CHOL   ROH10445   7.395   9.346   4.993 -0.1442 -0.0180  0.0017
 1159CHOL    R110446   7.352   9.584   5.141 -0.1569 -0.1073  0.1414
 1159CHOL    R210447   7.346   9.588   5.417  0.1843 -0.2142  0.1522
 1159CHOL    R310448   7.537   9.779   5.387 -0.0113 -0.0442 -0.0166
 1159CHOL    R410449   7.363   9.880   5.600 -0.0012 -0.1268  0.0308
 1159CHOL    R510450   7.420   9.985   5.418 -0.1924 -0.1431 -0.0381
 1159CHOL    C110451   7.553  10.230   5.679 -0.2927  0.0832 -0.1986
 1159CHOL    C210452   7.658  10.338   6.212  0.2287 -0.0401 -0.2401
 1160XCA    COO10453   5.170  14.164   3.954 -0.0853 -0.2209  0.0786
 1160XCA     C110454   5.080  13.916   4.352 -0.0351 -0.1827 -0.0899
 1160XCA     C210455   5.251  13.925   4.711  0.0390 -0.0820 -0.1447
 1160XCA     C310456   5.489  14.180   4.866 -0.0266  0.1412 -0.1612
 1160XCA     C410457   5.658  14.582   5.069 -0.2547 -0.2109 -0.0581
 1160XCA     C510458   5.744  14.972   5.272  0.0381 -0.3171  0.1892
 1160XCA     C610459   5.615  15.161   5.671  0.0854 -0.0981  0.0029
 1161CHOL   ROH10460  10.971   1.205   5.518  0.1154  0.0462 -0.0252
 1161CHOL    R110461  11.058   1.428   5.368  0.1020 -0.0834 -0.2270
 1161CHOL    R210462  10.957   1.488   5.118 -0.1739 -0.1027 -0.1212
 1161CHOL    R310463  10.907   1.730   5.231  0.1663 -0.0171 -0.1525
 1161CHOL    R410464  10.857   1.770   4.945 -0.0038 -0.0457 -0.1271
 1161CHOL    R510465  10.989   1.889   5.071  0.2160 -0.1494 -0.2584
 1161CHOL    C110466  10.752   2.162   4.950  0.4145  0.0679 -0.1591
 1161CHOL    C210467  10.585   2.201   4.646  0.1618  0.2402  0.2428
 1162CHOL   ROH10468  16.200   1.882   4.670  0.5813  0.0135 -0.3391
 1162CHOL    R110469  16.244   1.847   4.948  0.2956  0.1350 -0.2782
 1162CHOL    R210470  16.397   1.641   5.049 -0.0214  0.0286 -0.0149
 1162CHOL    R310471  16.530   1.843   5.172  0.0904 -0.0423 -0.0191
 1162CHOL    R410472  16.480   1.647   5.384 -0.0803  0.0220  0.0000
 1162CHOL    R510473  16.428   1.859   5.388  0.0601  0.0574 -0.0408
 1162CHOL    C110474  16.654   1.841   5.695 -0.0095 -0.0482  0.0046
 1162CHOL    C210475  16.643   1.938   5.984 -0.1842 -0.2175  0.0700
 1163CHOL   ROH10476  11.129   8.602   5.658  0.0475  0.2152 -0.0970
 1163CHOL    R110477  11.076   8.761   5.886  0.0467  0.2465 -0.1190
 1163CHOL    R210478  10.993   9.024   5.868 -0.0492  0.2135 -0.1559
 1163CHOL    R310479  10.790   8.936   6.026  0.0201  0.1781 -0.0874
 1163CHOL    R410480  10.722   9.215   5.966 -0.1712  0.0944 -0.2594
 1163CHOL    R510481  10.736   9.125   6.164 -0.0968  0.2303 -0.2036
 1163CHOL    C110482  10.374   9.245   6.172 -0.1769 -0.0078 -0.2558
 1163CHOL    C210483  10.112   9.363   6.309  0.2190  0.4168  0.1614
 1164CHOL   ROH10484  11.077   9.269   7.734 -0.0870  0.0765  0.0985
 1164CHOL    R110485  11.160   9.285   7.465  0.1521 -0.1497  0.1590
 1164CHOL    R210486  11.151   9.068   7.293 -0.3074 -0.1268  0.1538
 1164CHOL    R310487  11.008   9.238   7.137  0.2645  0.2606  0.0486
 1164CHOL    R410488  11.134   9.053   6.948 -0.4916 -0.3858  0.1748
 1164CHOL    R510489  11.144   9.270   6.943  0.3142 -0.4277 -0.0329
 1164CHOL    C110490  10.989   9.203   6.601 -0.0622 -0.1736  0.0875
 1164CHOL    C210491  11.150   8.952   6.313  0.0145  0.1163 -0.3498
 1165CHOL   ROH10492   6.348   4.798   5.907 -0.3588 -0.0482 -0.2613
 1165CHOL    R110493   6.223   5.044   5.847 -0.2601 -0.0024 -0.2780
 1165CHOL    R210494   5.957   5.094   5.901 -0.2482  0.0966 -0.3092
 1165CHOL    R310495   6.057   5.309   6.033 -0.1835  0.0609 -0.2992
 1165CHOL    R410496   5.789   5.392   5.947 -0.2077  0.1001 -0.1860
 1165CHOL    R510497   5.976   5.498   5.909 -0.2129  0.0932 -0.2308
 1165CHOL    C110498   5.785   5.769   6.098 -0.1234  0.0689 -0.1047
 1165CHOL    C210499   5.669   5.498   6.404  0.1403 -0.3706 -0.0685
 1166PNCE   AM110500  12.242   4.885   4.005  0.0715 -0.2701  0.0530
 1166PNCE   AM210501  12.072   5.158   4.109 -0.3910 -0.0315 -0.2398
 1166PNCE   T1A10502  12.624   5.043   4.306  0.0425 -0.1114 -0.2038
 1166PNCE   C2A10503  12.871   4.992   4.611 -0.0463 -0.0993  0.1199
 1166PNCE   C3A10504  13.118   5.333   4.928 -0.2873 -0.1652  0.0071
 1166PNCE   C1B10505  11.751   5.079   4.426  0.0897  0.2428  0.2160
 1166PNCE   C2B10506  11.627   5.337   4.850 -0.2018  0.1006  0.0221
 1166PNCE   C3B10507  11.683   5.792   4.991 -0.0620 -0.3525  0.1187
 1166PNCE   D4B10508  11.391   6.088   4.836  0.1024  0.0641  0.2083
 1166PNCE   C5B10509  11.223   6.399   5.001  0.0786  0.4483  0.1388
 1166PNCE   C6B10510  11.302   6.842   4.920 -0.0529  0.3311  0.0283
 1167XCA    COO10511   2.127  11.377   4.360 -0.0566 -0.1464 -0.1583
 1167XCA     C110512   1.932  11.060   4.618  0.0428 -0.2243  0.0014
 1167XCA     C210513   1.525  11.073   4.831 -0.1315  0.1347  0.0321
 1167XCA     C310514   1.397  11.143   5.386  0.0132  0.2125 -0.1101
 1167XCA     C410515   1.257  10.996   5.740 -0.0855 -0.3100 -0.4126
 1167XCA     C510516   1.424  10.871   6.134  0.0905  0.0551 -0.3720
 1167XCA     C610517   1.328  10.518   6.509 -0.1772  0.0058  0.1056
 1168PNCE   AM110518   1.171  11.379   4.376 -0.2362  0.0143 -0.2913
 1168PNCE   AM210519   0.875  11.445   4.493  0.1029  0.1962 -0.1488
 1168PNCE   T1A10520   1.067  11.062   4.701  0.1890 -0.2408  0.1526
 1168PNCE   C2A10521   0.830  10.796   4.829  0.0710  0.2489  0.0658
 1168PNCE   C3A10522   0.556  10.794   5.160 -0.1964 -0.0355  0.5368
 1168PNCE   C1B10523   0.779  11.658   4.881  0.2232 -0.0060  0.1276
 1168PNCE   C2B10524   0.560  11.787   5.308 -0.4812 -0.0043 -0.0394
 1168PNCE   C3B10525   0.519  11.495   5.597 -0.0492  0.1308 -0.2134
 1168PNCE   D4B10526   0.578  11.571   5.976 -0.2223 -0.2737 -0.2572
 1168PNCE   C5B10527   0.525  11.820   6.359  0.0481  0.0199 -0.3313
 1168PNCE   C6B10528   0.119  11.960   6.364 -0.3190 -0.0940  0.0108
 1169PNCE   AM110529   3.823   0.774   4.877 -0.1551 -0.2760  0.1245
 1169PNCE   AM210530   3.973   1.088   5.002 -0.1940  0.1159 -0.0679
 1169PNCE   T1A10531   3.535   0.795   5.180 -0.2612  0.3468 -0.1216
 1169PNCE   C2A10532   3.321   0.670   5.488 -0.1046 -0.2247 -0.0712
 1169PNCE   C3A10533   3.203   0.450   5.854 -0.0740  0.0945 -0.2415
 1169PNCE   C1B10534   4.047   1.355   5.394  0.1431  0.2243 -0.0814
 1169PNCE   C2B10535   3.941   1.494   5.818  0.1100  0.3130  0.1689
 1169PNCE   C3B10536   3.743   1.580   6.259 -0.0424  0.0028 -0.1029
 1169PNCE   D4B10537   3.424   1.288   6.540  0.1566 -0.0914  0.0298
 1169PNCE   C5B10538   3.377   1.259   6.965 -0.0306 -0.1636  0.0104
 1169PNCE   C6B10539   3.241   1.189   7.338 -0.0730  0.3841  0.0019
 1170XCA    COO10540   5.011  10.278   3.998  0.2526 -0.3234 -0.0232
 1170XCA     C110541   4.660  10.379   4.240 -0.0009  0.2207  0.1131
 1170XCA     C210542   4.538  10.753   4.520 -0.1259 -0.2098 -0.1248
 1170XCA     C310543   4.298  10.810   4.835  0.1968 -0.0876 -0.1369
 1170XCA     C410544   3.968  10.866   5.095 -0.0197  0.0435  0.2009
 1170XCA     C510545   3.781  10.518   5.375 -0.0509 -0.0532  0.1297
 1170XCA     C610546   3.685  10.203   5.634  0.0119  0.2083 -0.1139
 1171CHOL   ROH10547  14.757   9.048   3.543 -0.0654 -0.0538  0.0912
 1171CHOL    R110548  14.698   9.014   3.817 -0.0467 -0.0777  0.0921
 1171CHOL    R210549  14.691   8.766   3.938  0.1763 -0.0712  0.1192
 1171CHOL    R310550  14.867   8.881   4.110  0.0626  0.1108  0.1148
 1171CHOL    R410551  14.769   8.644   4.252  0.2880  0.0253  0.1287
 1171CHOL    R510552  14.770   8.849   4.326  0.0892  0.0319  0.1154
 1171CHOL    C110553  14.980   8.680   4.596  0.2475  0.2519  0.1303
 1171CHOL    C210554  14.897   8.745   4.975 -0.4381  0.1215 -0.0727
 1172CHOL   ROH10555   1.313   7.239   4.345  0.2950  0.0877 -0.2248
 1172CHOL    R110556   1.267   7.250   4.624 -0.0674  0.2112 -0.2880
 1172CHOL    R210557   1.450   7.155   4.808 -0.5182 -0.1512 -0.0266
 1172CHOL    R310558   1.426   7.405   4.912 -0.1399 -0.0911 -0.0852
 1172CHOL    R410559   1.582   7.256   5.111 -0.3471 -0.2747 -0.0603
 1172CHOL    R510560   1.399   7.369   5.147 -0.1767  0.0057 -0.0749
 1172CHOL    C110561   1.637   7.549   5.385  0.1079 -0.2894 -0.1351
 1172CHOL    C210562   1.614   7.495   5.772 -0.0782  0.3190 -0.1605
 1173PNCE   AM110563  13.455  14.072   4.715 -0.0513  0.1165 -0.1385
 1173PNCE   AM210564  13.579  14.375   4.725  0.5074 -0.3977  0.2240
 1173PNCE   T1A10565  13.335  14.028   5.124  0.0381 -0.1021  0.1940
 1173PNCE   C2A10566  13.162  13.892   5.468 -0.3125 -0.0925  0.0548
 1173PNCE   C3A10567  13.115  13.903   5.926 -0.1853 -0.1792 -0.1092
 1173PNCE   C1B10568  13.460  14.510   5.123  0.3448  0.1936 -0.1113
 1173PNCE   C2B10569  13.199  14.370   5.510 -0.0656  0.2393  0.2354
 1173PNCE   C3B10570  13.100  14.481   5.894  0.0041  0.4626  0.1339
 1173PNCE   D4B10571  12.760  14.771   6.075  0.3060  0.0598  0.3678
 1173PNCE   C5B10572  12.746  14.972   6.450  0.2874  0.1507 -0.3160
 1173PNCE   C6B10573  12.532  15.065   6.858  0.0305 -0.1196  0.1882
 1174CHOL   ROH10574   9.072  13.497   8.604  0.0482 -0.0328 -0.0315
 1174CHOL    R110575   9.204  13.448   8.358  0.1311  0.0558 -0.0038
 1174CHOL    R210576   9.188  13.206   8.226  0.2383  0.0770 -0.0579
 1174CHOL    R310577   9.108  13.362   8.018  0.2513  0.0965 -0.0491
 1174CHOL    R410578   9.195  13.111   7.894  0.0925  0.0429 -0.0515
 1174CHOL    R510579   9.264  13.312   7.843  0.1750  0.0062 -0.0904
 1174CHOL    C110580   9.124  13.202   7.505  0.0204  0.0415 -0.0390
 1174CHOL    C210581   9.149  13.214   7.137  0.1631  0.2951  0.0467
 1175CHOL   ROH10582   8.027   0.011   5.574 -0.0229 -0.0910  0.1519
 1175CHOL    R110583   7.939   0.188   5.776  0.0889 -0.1051  0.2120
 1175CHOL    R210584   8.088   0.239   6.004  0.3017  0.0236  0.0446
 1175CHOL    R310585   8.059   0.498   5.926  0.0670 -0.0077  0.0285
 1175CHOL    R410586   8.087   0.510   6.218  0.2365  0.0512  0.0093
 1175CHOL    R510587   7.926   0.597   6.099  0.1013 -0.0809  0.0963
 1175CHOL    C110588   8.059   0.911   6.270 -0.0218  0.0378 -0.0263
 1175CHOL    C210589   8.107   1.086   6.595  0.3014  0.0715 -0.1407
 1176XCA    COO10590   1.648  11.478   4.579  0.3036  0.0740 -0.1222
 1176XCA     C110591   1.612  11.849   4.941 -0.0796  0.1058  0.3126
 1176XCA     C210592   1.552  11.636   5.470  0.2008 -0.0630  0.0416
 1176XCA     C310593   1.727  11.556   5.865 -0.0974 -0.0669 -0.1511
 1176XCA     C410594   1.692  11.296   6.155  0.0778  0.1599 -0.0428
 1176XCA     C510595   1.919  10.917   6.106  0.0513  0.0315 -0.0311
 1176XCA     C610596   1.828  10.503   6.156 -0.1139 -0.1800 -0.5543
 1177XCA    COO10597  14.016   5.000   4.633 -0.2718  0.1271 -0.2982
 1177XCA     C110598  13.648   4.769   4.765 -0.0863 -0.0396  0.0731
 1177XCA     C210599  13.251   4.794   5.004  0.0999 -0.1464  0.1492
 1177XCA     C310600  12.877   4.954   5.156 -0.1982 -0.1550 -0.3336
 1177XCA     C410601  12.467   4.913   5.193  0.0886  0.2602  0.1864
 1177XCA     C510602  12.224   4.924   5.551 -0.1431 -0.1740  0.1348
 1177XCA     C610603  12.069   4.828   5.968  0.0828  0.2928  0.1523
 1178XCA    COO10604  15.163  11.435   4.688 -0.0977 -0.2697  0.3741
 1178XCA     C110605  15.236  11.415   5.059  0.1054  0.1217  0.0876
 1178XCA     C210606  15.149  11.214   5.479  0.0903 -0.1743 -0.0198
 1178XCA     C310607  14.954  11.142   5.908 -0.1149  0.1244  0.2692
 1178XCA     C410608  14.704  11.134   6.284 -0.2679  0.2326 -0.1888
 1178XCA     C510609  14.605  10.967   6.727 -0.0794 -0.3863  0.0605
 1178XCA     C610610  14.902  11.205   6.822  0.0836 -0.0458 -0.0011
 1179XCA    COO10611   0.352   9.095   4.442 -0.1011  0.0084 -0.2461
 1179XCA     C110612   0.171   8.855   4.811 -0.1299  0.1903 -0.1288
 1179XCA     C210613   0.171   8.738   5.202 -0.1982 -0.1165  0.2828
 1179XCA     C310614   0.397   8.856   5.560 -0.0255  0.5735  0.0596
 1179XCA     C410615   0.798   9.011   5.575  0.0812  0.2140 -0.0207
 1179XCA     C510616   1.112   9.285   5.738  0.0827  0.1001 -0.0686
 1179XCA     C610617   1.492   9.408   5.688 -0.3435  0.0177 -0.2633
 1180CHOL   ROH10618  13.166   2.640   4.324  0.3188 -0.0257 -0.1272
 1180CHOL    R110619  13.066   2.764   4.557  0.1230  0.0072 -0.2279
 1180CHOL    R210620  13.220   2.799   4.785 -0.0738  0.0183 -0.0968
 1180CHOL    R310621  13.147   3.059   4.755 -0.0264  0.0211 -0.1875
 1180CHOL    R410622  13.125   3.008   5.043 -0.2084  0.0750 -0.1919
 1180CHOL    R510623  12.970   3.090   4.913 -0.1202  0.0695 -0.3016
 1180CHOL    C110624  13.002   3.374   5.166 -0.2429  0.1110 -0.3327
 1180CHOL    C210625  13.276   3.509   5.431  0.2261 -0.2447  0.1459
 1181PNCE   AM110626  13.534  16.356   7.513 -0.4568  0.2920 -0.0557
 1181PNCE   AM210627  13.521  16.108   7.767 -0.3712  0.3243 -0.1000
 1181PNCE   T1A10628  13.278  16.261   7.120 -0.0125  0.0348  0.1999
 1181PNCE   C2A10629  13.142  16.188   6.749  0.0868  0.0484  0.2432
 1181PNCE   C3A10630  13.146  15.977   6.288 -0.1687 -0.1870  0.2315
 1181PNCE   C1B10631  13.204  15.980   7.513 -0.0516  0.2450  0.0218
 1181PNCE   C2B10632  12.995  15.799   7.063 -0.0091  0.0954  0.2367
 1181PNCE   C3B10633  13.115  15.599   6.632 -0.0920  0.0055 -0.0232
 1181PNCE   D4B10634  13.110  15.427   6.223  0.0874 -0.2490 -0.3935
 1181PNCE   C5B10635  13.319  15.428   5.821  0.3016  0.0250  0.1256
 1181PNCE   C6B10636  13.752  15.574   5.787 -0.0092  0.1024  0.0064
 1182CHOL   ROH10637   0.516   3.129   4.954  0.0815 -0.0693 -0.1486
 1182CHOL    R110638   0.443   3.291   5.174 -0.0283 -0.0410 -0.2058
 1182CHOL    R210639   0.359   3.186   5.415  0.0204 -0.0130 -0.1770
 1182CHOL    R310640   0.558   3.341   5.516 -0.0778  0.1390 -0.2157
 1182CHOL    R410641   0.363   3.320   5.734  0.0733 -0.1731 -0.1101
 1182CHOL    R510642   0.445   3.504   5.650 -0.1645 -0.0460 -0.0641
 1182CHOL    C110643   0.553   3.543   6.014  0.0121 -0.1236 -0.1081
 1182CHOL    C210644   0.655   3.788   6.195 -0.3227 -0.0644 -0.1031
 1183PNCE   AM110645   5.807   2.552   4.961 -0.3051 -0.3584 -0.1231
 1183PNCE   AM210646   5.741   2.222   4.987  0.1034  0.0174  0.0883
 1183PNCE   T1A10647   5.366   2.556   5.116 -0.0834  0.1211 -0.3210
 1183PNCE   C2A10648   5.091   2.734   5.368  0.0897 -0.3051 -0.2265
 1183PNCE   C3A10649   5.062   2.999   5.768 -0.1165 -0.2253 -0.0430
 1183PNCE   C1B10650   5.706   2.375   5.414  0.0033 -0.1947  0.1036
 1183PNCE   C2B10651   5.739   2.581   5.786 -0.0554 -0.0528  0.4019
 1183PNCE   C3B10652   5.706   2.603   6.167 -0.1174  0.2381  0.0474
 1183PNCE   D4B10653   5.930   2.880   6.230 -0.0665  0.1436  0.1620
 1183PNCE   C5B10654   5.922   3.075   5.853 -0.0333 -0.1476 -0.1056
 1183PNCE   C6B10655   5.974   3.333   5.463  0.4086 -0.0221 -0.2887
 1184PNCE   AM110656  12.720   1.336   4.322  0.0606 -0.2923 -0.1329
 1184PNCE   AM210657  12.699   0.974   4.293 -0.1698  0.1751  0.1842
 1184PNCE   T1A10658  12.554   1.378   4.714 -0.1064  0.0124 -0.1142
 1184PNCE   C2A10659  12.724   1.623   5.050  0.0411  0.1932 -0.0310
 1184PNCE   C3A10660  13.121   1.748   5.214  0.0540 -0.1185  0.1126
 1184PNCE   C1B10661  12.792   0.813   4.725  0.2283  0.0299 -0.2321
 1184PNCE   C2B10662  12.871   0.685   5.102 -0.0383 -0.2031  0.2215
 1184PNCE   C3B10663  13.084   0.343   5.266 -0.0818 -0.3736 -0.1797
 1184PNCE   D4B10664  13.444   0.383   5.637  0.0447  0.1467 -0.2054
 1184PNCE   C5B10665  13.374   0.638   5.975  0.0187  0.0226  0.0221
 1184PNCE   C6B10666  13.057   0.672   6.251 -0.2190 -0.3495  0.0996
 1185PNCE   AM110667  14.178  14.230   4.597 -0.0564  0.0149  0.1164
 1185PNCE   AM210668  13.940  14.006   4.572  0.1785 -0.0045  0.0787
 1185PNCE   T1A10669  14.074  14.564   4.789  0.0372  0.2517 -0.7324
 1185PNCE   C2A10670  14.200  14.567   5.192  0.0344  0.1074 -0.0344
 1185PNCE   C3A10671  14.546  14.797   5.480  0.0702  0.1310 -0.1680
 1185PNCE   C1B10672  14.120  13.742   4.832 -0.0393  0.0327  0.2108
 1185PNCE   C2B10673  14.427  13.485   5.111  0.0271 -0.1318 -0.0588
 1185PNCE   C3B10674  14.498  13.500   5.516 -0.1310 -0.3373  0.1655
 1185PNCE   D4B10675  14.775  13.701   5.777 -0.1803  0.2852 -0.3333
 1185PNCE   C5B10676  14.647  13.709   6.172 -0.0306 -0.1960  0.1533
 1185PNCE   C6B10677  14.602  13.794   6.571 -0.1658 -0.2829 -0.0298
 1186XCA    COO10678  11.766   2.987   4.417  0.1003  0.0497  0.0216
 1186XCA     C110679  12.040   3.247   4.717 -0.5232 -0.2334 -0.0369
 1186XCA     C210680  11.885   3.376   5.109  0.2312 -0.0699 -0.0900
 1186XCA     C310681  11.918   3.215   5.546 -0.0536  0.1098  0.0483
 1186XCA     C410682  12.176   3.241   5.835 -0.0020  0.0741 -0.1267
 1186XCA     C510683  12.409   3.667   5.881  0.2884 -0.1391  0.2135
 1186XCA     C610684  12.507   4.012   5.617  0.0413 -0.2071 -0.0021
 1187CHOL   ROH10685   6.198   4.249   7.688 -0.0293 -0.3002  0.1277
 1187CHOL    R110686   6.406   4.260   7.496 -0.0796 -0.0725  0.0856
 1187CHOL    R210687   6.487   4.039   7.352  0.2289 -0.0141  0.1696
 1187CHOL    R310688   6.439   4.200   7.139 -0.0529 -0.1817  0.1065
 1187CHOL    R410689   6.593   3.975   7.030  0.1717 -0.0532  0.1588
 1187CHOL    R510690   6.640   4.187   7.008 -0.0913 -0.0081  0.0303
 1187CHOL    C110691   6.610   4.089   6.641 -0.1255 -0.2335  0.0931
 1187CHOL    C210692   6.920   4.153   6.564  0.0401  0.1625 -0.2675
 1188XCA    COO10693  13.330  13.331   4.554  0.2278  0.0879  0.3723
 1188XCA     C110694  13.369  13.106   5.001  0.0260 -0.1311 -0.1908
 1188XCA     C210695  13.455  12.900   5.349  0.0373  0.1360 -0.0374
 1188XCA     C310696  13.399  12.959   5.768 -0.0270  0.1710  0.1663
 1188XCA     C410697  13.512  12.864   6.154  0.2989  0.1372  0.2026
 1188XCA     C510698  13.624  12.835   6.568 -0.4425  0.0726  0.1023
 1188XCA     C610699  13.611  12.735   7.049 -0.1858 -0.3747  0.0620
 1189XCA    COO10700   3.158   8.672   7.738  0.0674  0.0261 -0.1206
 1189XCA     C110701   3.342   8.650   7.284  0.0908 -0.0400  0.3168
 1189XCA     C210702   3.212   8.584   6.877  0.3097 -0.1083 -0.0842
 1189XCA     C310703   3.083   8.742   6.481 -0.0317 -0.0270  0.1218
 1189XCA     C410704   3.072   8.967   6.155  0.0624 -0.0756 -0.3123
 1189XCA     C510705   2.773   9.237   6.000 -0.1302  0.1178  0.2946
 1189XCA     C610706   2.336   9.240   6.036 -0.0370 -0.3120 -0.3026
 1190PNCE   AM110707   0.586  12.957   4.543 -0.1827 -0.1843 -0.1611
 1190PNCE   AM210708   0.775  12.797   4.754 -0.2147 -0.3105 -0.3084
 1190PNCE   T1A10709   0.314  12.787   4.849 -0.1505 -0.0302 -0.1723
 1190PNCE   C2A10710   0.284  12.788   5.297  0.1194 -0.0467 -0.2935
 1190PNCE   C3A10711   0.387  12.866   5.682  0.0340 -0.2717  0.1674
 1190PNCE   C1B10712   1.084  12.818   5.116 -0.0330 -0.0192 -0.2897
 1190PNCE   C2B10713   1.279  12.959   5.511 -0.0965  0.1301 -0.0189
 1190PNCE   C3B10714   1.491  13.174   5.886  0.0649 -0.0492 -0.0017
 1190PNCE   D4B10715   1.404  13.086   6.300  0.0976  0.1096 -0.1642
 1190PNCE   C5B10716   1.604  12.801   6.338 -0.3148  0.0306  0.1457
 1190PNCE   C6B10717   1.776  12.394   6.618 -0.0848  0.2539 -0.0047
 1191PNCE   AM110718  13.324  12.931   8.503  0.0802 -0.1003  0.0409
 1191PNCE   AM210719  13.397  12.990   8.838 -0.0735  0.0877 -0.2869
 1191PNCE   T1A10720  13.290  12.593   8.077 -0.0167  0.0474  0.1410
 1191PNCE   C2A10721  12.950  12.390   7.788 -0.0489  0.1076 -0.0179
 1191PNCE   C3A10722  12.897  12.183   7.462 -0.0625 -0.2883 -0.3954
 1191PNCE   C1B10723  13.837  13.055   8.574  0.1292 -0.0692 -0.1641
 1191PNCE   C2B10724  14.165  12.961   8.284 -0.0755 -0.1129  0.1375
 1191PNCE   C3B10725  14.689  12.907   8.341 -0.0924  0.2661 -0.3047
 1191PNCE   D4B10726  14.902  12.659   8.207 -0.2081 -0.0813  0.1932
 1191PNCE   C5B10727  14.719  12.289   8.349  0.0627 -0.1118  0.1601
 1191PNCE   C6B10728  14.514  12.272   8.774 -0.2213  0.1849  0.0430
 1192CHOL   ROH10729   6.603   8.742   7.815  0.1404  0.1972 -0.0429
 1192CHOL    R110730   6.558   8.809   7.544 -0.1802 -0.1326 -0.0715
 1192CHOL    R210731   6.764   8.866   7.369 -0.4355  0.5037 -0.1658
 1192CHOL    R310732   6.648   8.671   7.219  0.2233 -0.0092 -0.0123
 1192CHOL    R410733   6.804   8.828   7.028 -0.5906  0.5865 -0.1938
 1192CHOL    R510734   6.592   8.779   7.013 -0.4075 -0.2837  0.0100
 1192CHOL    C110735   6.719   8.623   6.689 -0.0626  0.1535 -0.0658
 1192CHOL    C210736   6.649   8.289   6.492  0.3391 -0.1467  0.2303
 1193PNCE   AM110737  14.064   3.452   4.287 -0.0386  0.0644 -0.2044
 1193PNCE   AM210738  13.763   3.493   4.249  0.1064 -0.2483 -0.0676
 1193PNCE   T1A10739  14.223   3.338   4.691  0.1842 -0.1937  0.0288
 1193PNCE   C2A10740  14.490   3.178   5.046 -0.5709 -0.4729 -0.5226
 1193PNCE   C3A10741  14.591   2.955   5.387  0.0970 -0.0001  0.1531
 1193PNCE   C1B10742  13.778   3.620   4.736 -0.1388  0.0266  0.0101
 1193PNCE   C2B10743  13.587   3.765   5.075  0.0368  0.0165  0.3100
 1193PNCE   C3B10744  13.593   3.955   5.469  0.1836 -0.1533 -0.0877
 1193PNCE   D4B10745  13.467   4.280   5.921 -0.1280  0.1488 -0.1690
 1193PNCE   C5B10746  13.492   4.105   6.369  0.0011  0.2231  0.0920
 1193PNCE   C6B10747  13.661   3.976   6.757  0.1731  0.1160  0.0944
 1194CHOL   ROH10748  15.604  15.992   5.146  0.1942  0.1041  0.1381
 1194CHOL    R110749  15.600  15.842   5.386  0.0234  0.1526  0.1662
 1194CHOL    R210750  15.396  15.861   5.570 -0.2235  0.0166 -0.0931
 1194CHOL    R310751  15.385  15.591   5.538  0.0482  0.0005 -0.0491
 1194CHOL    R410752  15.290  15.637   5.811 -0.1645 -0.0358 -0.1166
 1194CHOL    R510753  15.451  15.503   5.750 -0.0014  0.1030  0.0088
 1194CHOL    C110754  15.218  15.254   5.921  0.1245 -0.0817 -0.0886
 1194CHOL    C210755  15.347  14.968   5.782  0.3170 -0.2285  0.1504
 1195CHOL   ROH10756  11.632  10.716   4.758 -0.1196  0.0388  0.0728
 1195CHOL    R110757  11.753  10.501   4.897 -0.1388  0.0486  0.1035
 1195CHOL    R210758  11.721  10.463   5.169 -0.3132 -0.0311  0.0713
 1195CHOL    R310759  11.642  10.215   5.092 -0.1696 -0.0404 -0.0454
 1195CHOL    R410760  11.728  10.182   5.370 -0.1740 -0.1173 -0.0527
 1195CHOL    R510761  11.797  10.067   5.198 -0.0973 -0.0024 -0.0985
 1195CHOL    C110762  11.658   9.785   5.415  0.0409 -0.1759 -0.2347
 1195CHOL    C210763  11.442   9.579   5.674 -0.3614  0.1782 -0.1686
 1196CHOL   ROH10764   2.871   7.752   7.748  0.0186  0.1106 -0.1765
 1196CHOL    R110765   2.968   7.748   7.482 -0.0235 -0.0801 -0.1893
 1196CHOL    R210766   3.237   7.772   7.421 -0.0475  0.0182 -0.2560
 1196CHOL    R310767   3.194   7.541   7.285  0.0643 -0.1330 -0.0340
 1196CHOL    R410768   3.417   7.669   7.145 -0.2155 -0.0017 -0.3581
 1196CHOL    R510769   3.230   7.599   7.056 -0.2296 -0.2706 -0.1161
 1196CHOL    C110770   3.481   7.392   6.856 -0.2089 -0.1558 -0.2090
 1196CHOL    C210771   3.473   7.453   6.495  0.0765 -0.0712 -0.4266
 1197CHOL   ROH10772   6.356  12.629   7.782 -0.1168 -0.2436 -0.0631
 1197CHOL    R110773   6.576  12.678   7.611 -0.0231 -0.1259  0.0916
 1197CHOL    R210774   6.838  12.636   7.691 -0.0742 -0.3266  0.1541
 1197CHOL    R310775   6.847  12.482   7.466 -0.0384 -0.0606 -0.0278
 1197CHOL    R410776   7.109  12.613   7.478  0.0231 -0.2103  0.2663
 1197CHOL    R510777   6.971  12.614   7.309  0.1099  0.0663  0.1962
 1197CHOL    C110778   7.277  12.456   7.144  0.1133  0.1075  0.1615
 1197CHOL    C210779   7.711  12.622   6.910 -0.0640 -0.1073 -0.0602
 1198PNCE   AM110780  14.498   1.241   4.212 -0.0306 -0.0662  0.0739
 1198PNCE   AM210781  14.477   0.889   4.301 -0.0045  0.1793 -0.2539
 1198PNCE   T1A10782  14.735   1.364   4.645 -0.1388 -0.0053 -0.1709
 1198PNCE   C2A10783  14.686   1.272   5.177  0.1707 -0.0336  0.1998
 1198PNCE   C3A10784  14.313   1.024   5.320 -0.0307  0.0059  0.2717
 1198PNCE   C1B10785  14.101   0.727   4.477 -0.1214 -0.3440  0.1210
 1198PNCE   C2B10786  13.937   0.905   4.939  0.0961  0.2208  0.2044
 1198PNCE   C3B10787  13.789   1.026   5.392 -0.0834  0.0275  0.1143
 1198PNCE   D4B10788  13.770   0.971   5.899  0.0345 -0.1628 -0.0223
 1198PNCE   C5B10789  13.960   0.696   6.111  0.1088  0.1309  0.0557
 1198PNCE   C6B10790  13.915   0.466   6.437 -0.0104  0.0378 -0.0195
 1199PNCE   AM110791   4.906  15.192   4.070  0.1705  0.2900  0.0699
 1199PNCE   AM210792   4.764  15.060   4.338  0.2353 -0.0695 -0.3396
 1199PNCE   T1A10793   5.310  15.062   4.143 -0.1946  0.0033 -0.2510
 1199PNCE   C2A10794   5.493  14.835   4.472 -0.0332 -0.0079 -0.3917
 1199PNCE   C3A10795   5.487  14.323   4.273  0.3075  0.1153  0.3372
 1199PNCE   C1B10796   4.632  15.171   4.727 -0.1698  0.0029 -0.3948
 1199PNCE   C2B10797   4.284  15.001   4.970 -0.0937 -0.1613  0.2056
 1199PNCE   C3B10798   4.072  14.666   5.340 -0.2389 -0.2586  0.0051
 1199PNCE   D4B10799   4.070  14.589   5.793  0.0244 -0.3576  0.1737
 1199PNCE   C5B10800   4.394  14.555   6.148 -0.2878 -0.1467  0.2593
 1199PNCE   C6B10801   4.730  14.345   6.411 -0.3229  0.0052 -0.0135
 1200CHOL   ROH10802  12.501   9.908   7.731  0.0345 -0.0418  0.2228
 1200CHOL    R110803  12.519   9.969   7.455 -0.0210 -0.1183  0.2027
 1200CHOL    R210804  12.299   9.967   7.288 -0.0719 -0.0613  0.2686
 1200CHOL    R310805  12.381  10.220   7.230  0.0233 -0.1124  0.1816
 1200CHOL    R410806  12.175  10.161   7.030 -0.0806 -0.0610  0.2725
 1200CHOL    R510807  12.378  10.230   6.991 -0.0625 -0.1640  0.1802
 1200CHOL    C110808  12.180  10.511   6.825  0.0045 -0.1092  0.1931
 1200CHOL    C210809  12.276  10.521   6.414 -0.0196  0.1288  0.0633
 1201CHOL   ROH10810  15.671   1.165   4.637  0.0133  0.0623  0.1530
 1201CHOL    R110811  15.614   0.957   4.821 -0.0429  0.0318  0.1011
 1201CHOL    R210812  15.711   0.956   5.079 -0.0328 -0.0670  0.0965
 1201CHOL    R310813  15.449   0.929   5.144 -0.0385 -0.0033  0.0995
 1201CHOL    R410814  15.593   0.787   5.356 -0.0706 -0.0225  0.1080
 1201CHOL    R510815  15.432   0.707   5.232 -0.0882  0.0067  0.1144
 1201CHOL    C110816  15.277   0.662   5.578 -0.0971  0.0632  0.1178
 1201CHOL    C210817  15.196   0.512   5.941  0.2288  0.3106  0.1908
 1202XCA    COO10818   3.394  16.040   8.078 -0.0682  0.1124 -0.0341
 1202XCA     C110819   3.071  16.305   7.927 -0.3554  0.1133 -0.1096
 1202XCA     C210820   2.879  16.273   7.569 -0.2075  0.0422  0.1140
 1202XCA     C310821   2.644  16.156   7.253 -0.2274 -0.0064 -0.0824
 1202XCA     C410822   2.506  16.125   6.854  0.5027  0.1681 -0.1082
 1202XCA     C510823   2.260  16.223   6.439 -0.0490  0.2282  0.2047
 1202XCA     C610824   1.965  16.014   6.151  0.1636 -0.1783 -0.1407
 1203PNCE   AM110825   7.914  11.889   4.690  0.0252 -0.0622 -0.1625
 1203PNCE   AM210826   8.078  12.219   4.813  0.1646 -0.0020  0.0151
 1203PNCE   T1A10827   7.769  11.471   4.944 -0.2860  0.2184 -0.3317
 1203PNCE   C2A10828   7.985  11.117   5.091  0.0063 -0.1616  0.1526
 1203PNCE   C3A10829   8.057  11.012   5.486  0.0010  0.1633 -0.0954
 1203PNCE   C1B10830   7.948  12.360   5.297  0.1393  0.0978 -0.0446
 1203PNCE   C2B10831   8.181  12.180   5.607 -0.1296 -0.1560 -0.0911
 1203PNCE   C3B10832   8.611  11.891   5.625 -0.1079 -0.0256  0.0832
 1203PNCE   D4B10833   9.048  11.778   5.779 -0.0334 -0.0623  0.3258
 1203PNCE   C5B10834   9.278  12.085   6.125  0.2068 -0.2996 -0.0007
 1203PNCE   C6B10835   9.416  12.216   6.497  0.0898  0.1548  0.1278
 1204CHOL   ROH10836  14.586   3.135   4.593  0.1549  0.0018 -0.1686
 1204CHOL    R110837  14.801   3.250   4.737  0.0882 -0.0372 -0.0386
 1204CHOL    R210838  14.840   3.523   4.755  0.1818 -0.0466 -0.0950
 1204CHOL    R310839  14.839   3.473   5.022 -0.0439  0.0376 -0.0792
 1204CHOL    R410840  14.925   3.752   4.999  0.1974 -0.0386 -0.1080
 1204CHOL    R510841  15.029   3.593   5.105 -0.0048 -0.0894  0.0148
 1204CHOL    C110842  14.975   3.839   5.392 -0.0051  0.0447 -0.1007
 1204CHOL    C210843  15.100   4.164   5.561 -0.0152  0.3373 -0.3694
 1205CHOL   ROH10844  11.040  13.254   7.097 -0.0408 -0.1160 -0.0161
 1205CHOL    R110845  10.760  13.220   7.120 -0.0353 -0.1173  0.0556
 1205CHOL    R210846  10.591  13.227   6.902 -0.1017 -0.0224  0.1111
 1205CHOL    R310847  10.511  12.985   6.996 -0.0792 -0.0594  0.0345
 1205CHOL    R410848  10.319  13.049   6.785 -0.0963 -0.0010  0.0682
 1205CHOL    R510849  10.272  12.995   6.991 -0.0801 -0.0739  0.0532
 1205CHOL    C110850  10.085  12.718   6.806 -0.0732 -0.0250 -0.0286
 1205CHOL    C210851   9.847  12.469   6.722  0.2198 -0.1458  0.2769
 1206PNCE   AM110852   5.020  11.283   3.955 -0.1064 -0.0771  0.2769
 1206PNCE   AM210853   5.272  11.485   4.220 -0.0024  0.1980  0.0990
 1206PNCE   T1A10854   4.640  11.227   4.264  0.2872  0.0610  0.3805
 1206PNCE   C2A10855   4.278  11.289   4.455 -0.1305  0.3236 -0.0748
 1206PNCE   C3A10856   4.154  11.424   4.887 -0.3185 -0.1928  0.1227
 1206PNCE   C1B10857   5.082  11.174   4.473 -0.0475  0.2208 -0.1877
 1206PNCE   C2B10858   5.078  11.027   4.903  0.0864 -0.0279  0.0356
 1206PNCE   C3B10859   5.369  11.015   5.345  0.0429  0.3680 -0.0137
 1206PNCE   D4B10860   5.413  11.406   5.575  0.0583  0.0751 -0.2038
 1206PNCE   C5B10861   5.165  11.511   5.951  0.1557 -0.0001 -0.0871
 1206PNCE   C6B10862   5.026  11.270   6.276  0.2122  0.0354  0.2187
 1207CHOL   ROH10863   7.036  13.329   7.988  0.1765  0.1466  0.0094
 1207CHOL    R110864   7.181  13.459   7.782  0.1223  0.1369 -0.0350
 1207CHOL    R210865   7.271  13.326   7.557  0.1262  0.1095 -0.0175
 1207CHOL    R310866   7.136  13.522   7.426  0.0650  0.0516 -0.0434
 1207CHOL    R410867   7.257  13.360   7.214  0.0098 -0.0143 -0.0253
 1207CHOL    R510868   7.276  13.576   7.239 -0.0014 -0.0029 -0.1085
 1207CHOL    C110869   7.121  13.564   6.891 -0.1160 -0.1412 -0.0536
 1207CHOL    C210870   7.286  13.731   6.618 -0.1180 -0.1748 -0.2268
 1208PNCE   AM110871  15.393   7.759   3.665  0.2731 -0.1511 -0.0942
 1208PNCE   AM210872  15.524   7.965   3.776 -0.0449  0.0718  0.3298
 1208PNCE   T1A10873  15.236   7.594   4.091 -0.2579  0.1083  0.2490
 1208PNCE   C2A10874  15.429   7.560   4.524 -0.2388  0.1883 -0.4269
 1208PNCE   C3A10875  15.783   7.592   4.690  0.2783 -0.1444 -0.1545
 1208PNCE   C1B10876  15.636   8.115   4.240  0.2703 -0.3580 -0.1844
 1208PNCE   C2B10877  15.649   8.091   4.775  0.0036  0.2075  0.3048
 1208PNCE   C3B10878  15.842   8.011   5.186  0.1100 -0.0079 -0.0342
 1208PNCE   D4B10879  16.198   7.926   5.217  0.0278 -0.2615 -0.0928
 1208PNCE   C5B10880  16.449   7.816   5.556  0.0590  0.0808  0.1045
 1208PNCE   C6B10881  16.743   7.451   5.661  0.0852 -0.1720 -0.1363
 1209XCA    COO10882   9.794  13.766   5.069 -0.1321  0.3385  0.2674
 1209XCA     C110883   9.914  13.750   5.434 -0.5512 -0.0771 -0.0695
 1209XCA     C210884   9.861  13.937   5.863 -0.3150  0.2155 -0.1177
 1209XCA     C310885   9.527  13.822   6.207  0.0127  0.0027  0.0450
 1209XCA     C410886   9.199  13.576   6.043  0.0058 -0.0685 -0.0546
 1209XCA     C510887   8.972  13.530   5.664 -0.3059 -0.0569 -0.0475
 1209XCA     C610888   8.911  13.453   5.259  0.0867  0.2739 -0.2845
 1210PNCE   AM110889  11.285  12.991   4.857 -0.0662  0.1109  0.2435
 1210PNCE   AM210890  11.657  13.142   4.972  0.3112 -0.1301 -0.1401
 1210PNCE   T1A10891  11.150  12.551   4.847  0.2633 -0.0732 -0.0719
 1210PNCE   C2A10892  10.805  12.210   4.889 -0.0086  0.1177 -0.1328
 1210PNCE   C3A10893  10.732  11.870   5.216 -0.1502  0.1779  0.2028
 1210PNCE   C1B10894  11.808  13.396   5.338  0.0859  0.2373 -0.1345
 1210PNCE   C2B10895  11.940  13.800   5.548  0.3661  0.1510  0.0803
 1210PNCE   C3B10896  12.297  13.964   5.685  0.2176  0.1484  0.1367
 1210PNCE   D4B10897  12.509  13.969   6.106  0.1406 -0.0847  0.0616
 1210PNCE   C5B10898  12.414  13.659   6.307 -0.0801  0.4827 -0.3136
 1210PNCE   C6B10899  12.237  13.635   6.667 -0.1529  0.1075 -0.0399
 1211PNCE   AM110900  11.409   2.571   4.510  0.3259 -0.1545  0.0668
 1211PNCE   AM210901  11.746   2.414   4.563 -0.0208  0.3150 -0.0833
 1211PNCE   T1A10902  11.505   2.701   4.842 -0.0766  0.1678 -0.1205
 1211PNCE   C2A10903  11.713   2.696   5.267 -0.0917  0.1307 -0.2893
 1211PNCE   C3A10904  11.563   2.861   5.716 -0.1281  0.2435  0.0597
 1211PNCE   C1B10905  12.005   2.305   4.912  0.3380  0.3387  0.1112
 1211PNCE   C2B10906  12.205   2.226   5.237  0.1523  0.0897 -0.0199
 1211PNCE   C3B10907  12.455   2.567   5.397  0.2434 -0.1277 -0.3538
 1211PNCE   D4B10908  12.890   2.983   5.462  0.2728  0.1265 -0.2602
 1211PNCE   C5B10909  13.259   2.967   5.733  0.1326 -0.3535 -0.2600
 1211PNCE   C6B10910  13.303   2.581   5.757  0.0173 -0.1568  0.0740
 1212CHOL   ROH10911   8.870   8.154   7.746  0.0046 -0.0555 -0.2388
 1212CHOL    R110912   9.038   8.338   7.613  0.0725 -0.0920 -0.2036
 1212CHOL    R210913   9.032   8.374   7.339 -0.0191  0.0708 -0.1802
 1212CHOL    R310914   8.994   8.635   7.407  0.1860  0.0575 -0.0133
 1212CHOL    R410915   9.053   8.640   7.119 -0.0191  0.1745 -0.0539
 1212CHOL    R510916   9.155   8.754   7.275  0.1626  0.0315 -0.0658
 1212CHOL    C110917   9.031   9.039   7.055  0.1734  0.2228  0.1763
 1212CHOL    C210918   9.206   9.351   7.004 -0.1866  0.4078 -0.1510
 1213PNCE   AM110919   2.307   6.061   4.249  0.5060 -0.2405  0.1197
 1213PNCE   AM210920   2.108   6.033   4.048 -0.0691  0.0307 -0.0267
 1213PNCE   T1A10921   2.145   6.275   4.638  0.2365  0.2456 -0.1578
 1213PNCE   C2A10922   1.829   6.299   4.936  0.1173  0.2819 -0.0308
 1213PNCE   C3A10923   1.590   6.309   5.402  0.2128 -0.3023 -0.0756
 1213PNCE   C1B10924   1.922   5.877   4.431 -0.1320 -0.1538 -0.0336
 1213PNCE   C2B10925   1.789   5.754   4.885 -0.0407 -0.0382 -0.3590
 1213PNCE   C3B10926   1.789   5.827   5.268 -0.0789 -0.1414 -0.0714
 1213PNCE   D4B10927   1.764   5.931   5.737  0.0520 -0.2831 -0.0663
 1213PNCE   C5B10928   2.063   6.185   5.868  0.0108 -0.2223  0.3284
 1213PNCE   C6B10929   2.052   6.633   6.031  0.2405 -0.1635  0.0057
 1214PNCE   AM110930  12.155  14.968   4.878 -0.1685  0.0605 -0.2317
 1214PNCE   AM210931  11.875  15.016   4.722  0.0944 -0.2311 -0.0478
 1214PNCE   T1A10932  12.395  15.017   5.217  0.0770 -0.2913  0.2115
 1214PNCE   C2A10933  12.538  15.388   5.589 -0.2053 -0.4189 -0.4340
 1214PNCE   C3A10934  12.828  15.689   5.881 -0.0678 -0.1254  0.1242
 1214PNCE   C1B10935  11.855  14.647   5.092  0.1305 -0.1065  0.0475
 1214PNCE   C2B10936  12.003  14.409   5.488  0.0204  0.3448 -0.0364
 1214PNCE   C3B10937  11.883  14.279   5.887 -0.1834 -0.2581 -0.0837
 1214PNCE   D4B10938  11.714  14.306   6.295  0.4353  0.2363  0.2174
 1214PNCE   C5B10939  11.772  14.512   6.716  0.0930  0.0740 -0.1991
 1214PNCE   C6B10940  12.132  14.780   6.797 -0.0128  0.0918 -0.0175
 1215XCA    COO10941   0.470   2.835   4.098  0.0023  0.0318  0.2670
 1215XCA     C110942   0.391   2.877   4.568 -0.1716  0.0878  0.0900
 1215XCA     C210943   0.183   2.774   5.085  0.1341 -0.0035 -0.1163
 1215XCA     C310944   0.000   2.797   5.511 -0.1699  0.2604 -0.0486
 1215XCA     C410945  -0.280   2.626   5.855 -0.0465  0.1168 -0.0439
 1215XCA     C510946  -0.759   2.753   6.057 -0.2642 -0.3146  0.2158
 1215XCA     C610947  -0.900   2.587   6.398  0.1875  0.0775 -0.1233
 1216CHOL   ROH10948   6.667  12.169   4.588 -0.0612 -0.2960 -0.0275
 1216CHOL    R110949   6.580  12.173   4.857 -0.0727 -0.3424 -0.0308
 1216CHOL    R210950   6.411  12.368   4.955  0.2159 -0.1523  0.0867
 1216CHOL    R310951   6.262  12.155   5.032 -0.1131  0.0239 -0.0644
 1216CHOL    R410952   6.253  12.338   5.261  0.2685 -0.1769  0.1123
 1216CHOL    R510953   6.311  12.128   5.265 -0.0784 -0.2780 -0.1061
 1216CHOL    C110954   6.020  12.120   5.511 -0.0089 -0.0260 -0.0149
 1216CHOL    C210955   5.931  12.067   5.881 -0.0621 -0.0062 -0.0650
 1217CHOL   ROH10956   9.027   6.028   4.635  0.0795 -0.1971 -0.1403
 1217CHOL    R110957   9.033   5.870   4.870  0.1616  0.1764  0.1094
 1217CHOL    R210958   8.999   5.978   5.122 -0.4766  0.4764 -0.1006
 1217CHOL    R310959   8.803   5.791   5.141 -0.0142 -0.0109 -0.0945
 1217CHOL    R410960   8.873   5.853   5.419 -0.2532  0.2623 -0.0951
 1217CHOL    R510961   8.868   5.655   5.327  0.2708  0.2158 -0.0277
 1217CHOL    C110962   8.615   5.605   5.609  0.3103 -0.3204 -0.0863
 1217CHOL    C210963   8.272   5.697   5.790 -0.1614  0.1603 -0.1879
 1218CHOL   ROH10964  14.232  15.600   4.663 -0.1289  0.1886  0.0582
 1218CHOL    R110965  14.343  15.830   4.783 -0.2255  0.1774  0.1709
 1218CHOL    R210966  14.274  15.913   5.038 -0.0794 -0.1135  0.3062
 1218CHOL    R310967  14.542  15.904   5.079 -0.0354  0.0849  0.0656
 1218CHOL    R410968  14.445  16.107   5.267 -0.0339 -0.0753  0.2403
 1218CHOL    R510969  14.603  16.132   5.119 -0.1836  0.1163  0.1113
 1218CHOL    C110970  14.796  16.212   5.439  0.0335  0.1326 -0.0241
 1218CHOL    C210971  15.010  16.567   5.488  0.0858  0.0301  0.0020
 1219CHOL   ROH10972   5.066  11.744   6.387  0.2520  0.2365  0.1067
 1219CHOL    R110973   4.877  11.814   6.190  0.2296  0.0491  0.0629
 1219CHOL    R210974   4.621  11.897   6.252  0.1705 -0.0912  0.0063
 1219CHOL    R310975   4.687  12.111   6.098  0.0514 -0.1005 -0.0588
 1219CHOL    R410976   4.394  12.098   6.085  0.0513 -0.1941  0.0432
 1219CHOL    R510977   4.532  12.104   5.916 -0.0081 -0.1850 -0.0043
 1219CHOL    C110978   4.325  12.416   5.844 -0.1298 -0.2637  0.0038
 1219CHOL    C210979   4.190  12.610   5.793 -0.0995 -0.1857  0.2318
 1220XCA    COO10980   4.995   5.293   4.248 -0.1829  0.1325  0.0906
 1220XCA     C110981   5.096   5.621   4.608  0.1261 -0.1607 -0.0501
 1220XCA     C210982   5.302   5.800   4.930  0.1684 -0.2520  0.0997
 1220XCA     C310983   5.205   6.026   5.414  0.0327  0.1562 -0.3248
 1220XCA     C410984   4.940   5.960   5.710 -0.2836  0.0585  0.3436
 1220XCA     C510985   4.949   6.055   6.036  0.2052  0.2171  0.1651
 1220XCA     C610986   4.733   6.080   6.519 -0.1467  0.1103  0.0144
 1221CHOL   ROH10987   4.659  10.564   5.093  0.1844 -0.3505  0.0129
 1221CHOL    R110988   4.457  10.569   5.291  0.1476 -0.1163 -0.0308
 1221CHOL    R210989   4.237  10.403   5.283  0.0113  0.0636 -0.0208
 1221CHOL    R310990   4.319  10.335   5.533 -0.0969  0.0792  0.0192
 1221CHOL    R410991   4.104  10.145   5.471  0.0083  0.0019 -0.1075
 1221CHOL    R510992   4.117  10.273   5.647 -0.1347 -0.0038 -0.0927
 1221CHOL    C110993   4.103   9.931   5.815 -0.0946 -0.0199 -0.1210
 1221CHOL    C210994   4.257   9.679   5.985  0.0845 -0.1411 -0.1037
 1222PNCE   AM110995   7.799  15.937   5.282 -0.0498 -0.1860  0.3036
 1222PNCE   AM210996   8.126  15.939   5.146  0.1378  0.0879  0.1501
 1222PNCE   T1A10997   7.629  16.137   5.676  0.2635  0.4703 -0.1261
 1222PNCE   C2A10998   7.455  16.442   5.948  0.2122 -0.1265 -0.0846
 1222PNCE   C3A10999   7.710  16.407   6.251  0.0125  0.0121 -0.0399
 1222PNCE   C1B11000   8.162  15.899   5.652  0.0484 -0.0953  0.0002
 1222PNCE   C2B11001   8.072  15.986   5.969 -0.0543  0.0118  0.3770
 1222PNCE   C3B11002   8.153  16.246   6.273  0.1153  0.0419 -0.2461
 1222PNCE   D4B11003   8.297  16.105   6.687  0.1584  0.1378 -0.1271
 1222PNCE   C5B11004   8.085  15.705   6.957 -0.0826  0.0095  0.1571
 1222PNCE   C6B11005   8.038  15.764   7.280  0.3897 -0.1709 -0.0247
 1223PNCE   AM111006   0.242  12.306   4.432 -0.3000  0.1378 -0.0784
 1223PNCE   AM211007   0.290  12.071   4.258  0.4957 -0.2887 -0.2301
 1223PNCE   T1A11008   0.468  12.165   4.794 -0.1830 -0.0683  0.0365
 1223PNCE   C2A11009   0.786  12.260   5.022  0.1937  0.4351 -0.1370
 1223PNCE   C3A11010   0.976  12.347   5.305  0.1252  0.0299 -0.0816
 1223PNCE   C1B11011   0.414  11.768   4.486 -0.0220  0.0212  0.0872
 1223PNCE   C2B11012   0.263  11.629   4.916 -0.1245  0.2196  0.1697
 1223PNCE   C3B11013   0.090  11.591   5.340  0.0568  0.1383  0.0357
 1223PNCE   D4B11014  -0.024  11.478   5.742  0.0475 -0.0239  0.1258
 1223PNCE   C5B11015   0.175  11.349   6.116 -0.1961 -0.1529  0.2610
 1223PNCE   C6B11016   0.090  11.430   6.541  0.1314 -0.0343  0.0654
 1224PNCE   AM111017   6.579   2.217   4.854 -0.1899 -0.0097  0.1520
 1224PNCE   AM211018   6.936   2.173   4.853  0.1037 -0.0987 -0.0463
 1224PNCE   T1A11019   6.249   2.207   5.200 -0.0618  0.2227  0.2426
 1224PNCE   C2A11020   6.063   2.178   5.800 -0.1089  0.3131  0.0830
 1224PNCE   C3A11021   6.157   2.277   6.213  0.1431  0.0580 -0.2274
 1224PNCE   C1B11022   7.157   1.913   5.184 -0.1080 -0.4154  0.1864
 1224PNCE   C2B11023   7.067   1.864   5.640  0.0172 -0.3754 -0.1862
 1224PNCE   C3B11024   6.923   1.493   5.927  0.0756 -0.1662 -0.1690
 1224PNCE   D4B11025   6.923   1.028   5.938 -0.0921  0.2001 -0.0839
 1224PNCE   C5B11026   6.637   0.810   6.224  0.0806  0.5717 -0.0307
 1224PNCE   C6B11027   6.443   0.518   6.611  0.0039  0.1666 -0.0346
 1225XCA    COO11028   3.294  11.329   4.022 -0.2485  0.2260 -0.1877
 1225XCA     C111029   3.166  11.097   4.422  0.0067  0.1565  0.2713
 1225XCA     C211030   3.323  11.078   4.845  0.0840  0.1867 -0.0070
 1225XCA     C311031   3.480  10.960   5.238 -0.1673 -0.1857 -0.0101
 1225XCA     C411032   3.822  11.260   5.422 -0.0548  0.0665 -0.0888
 1225XCA     C511033   4.122  11.554   5.437  0.1644 -0.1913  0.1405
 1225XCA     C611034   4.584  11.593   5.327  0.2728  0.1723  0.1438
 1226CHOL   ROH11035   7.361   6.611   5.264 -0.0444  0.0949 -0.0222
 1226CHOL    R111036   7.233   6.458   5.465  0.0150  0.0079 -0.0501
 1226CHOL    R211037   7.313   6.202   5.531  0.0954  0.0154 -0.1181
 1226CHOL    R311038   7.329   6.306   5.782  0.0822 -0.0411 -0.0938
 1226CHOL    R411039   7.221   6.036   5.820  0.0222 -0.0267 -0.1657
 1226CHOL    R511040   7.134   6.221   5.894  0.0501 -0.0246 -0.1383
 1226CHOL    C111041   7.183   6.036   6.223 -0.0329 -0.1049 -0.1710
 1226CHOL    C211042   7.125   6.060   6.586 -0.2883 -0.0932 -0.0801
 1227CHOL   ROH11043   6.948  10.287   8.275  0.4215 -0.2369 -0.1878
 1227CHOL    R111044   6.853  10.350   8.016  0.3624 -0.1869 -0.1540
 1227CHOL    R211045   6.884  10.600   7.903  0.2597 -0.1389 -0.0785
 1227CHOL    R311046   6.997  10.459   7.700  0.2796 -0.0352 -0.1404
 1227CHOL    R411047   6.884  10.697   7.571  0.2532  0.0091 -0.0350
 1227CHOL    R511048   6.847  10.489   7.516  0.2785  0.0296 -0.1290
 1227CHOL    C111049   6.989  10.620   7.187  0.2676  0.1937 -0.0679
 1227CHOL    C211050   6.918  10.555   6.794  0.1005 -0.0558 -0.1250
 1228XCA    COO11051  13.526   7.978   3.818 -0.1465  0.0956 -0.0861
 1228XCA     C111052  13.695   8.094   4.278 -0.1500 -0.1800 -0.2703
 1228XCA     C211053  13.732   8.108   4.642 -0.3057  0.0149 -0.2390
 1228XCA     C311054  13.743   7.875   4.931  0.1504  0.1127  0.1026
 1228XCA     C411055  13.856   7.668   5.349 -0.0919 -0.0112 -0.1397
 1228XCA     C511056  13.501   7.501   5.308 -0.2389 -0.0537 -0.2180
 1228XCA     C611057  13.294   7.155   5.107  0.2040 -0.0442  0.0379
 1229CHOL   ROH11058  14.144   7.953   3.941 -0.2177 -0.1047  0.0400
 1229CHOL    R111059  14.118   7.849   4.203 -0.0634 -0.1352  0.0429
 1229CHOL    R211060  14.331   7.831   4.378 -0.0165  0.0891  0.0077
 1229CHOL    R311061  14.166   7.972   4.543 -0.1381 -0.0878  0.0367
 1229CHOL    R411062  14.391   7.893   4.713  0.0205  0.2346 -0.0255
 1229CHOL    R511063  14.180   7.857   4.753  0.0801 -0.0269  0.0548
 1229CHOL    C111064  14.272   8.061   5.062 -0.0713  0.1529 -0.0185
 1229CHOL    C211065  14.261   7.865   5.432  0.1680  0.0517 -0.0793
 1230CHOL   ROH11066  13.205   9.333   7.542 -0.3850  0.0196  0.0254
 1230CHOL    R111067  13.310   9.216   7.307 -0.2809  0.1245  0.0196
 1230CHOL    R211068  13.286   8.946   7.252  0.0113  0.0947  0.0352
 1230CHOL    R311069  13.179   9.036   7.019 -0.1149 -0.0356  0.0429
 1230CHOL    R411070  13.289   8.773   6.953  0.1163  0.0577  0.0584
 1230CHOL    R511071  13.330   8.960   6.850 -0.0763  0.0825  0.0255
 1230CHOL    C111072  13.189   8.756   6.561  0.0595 -0.0866  0.0781
 1230CHOL    C211073  13.188   8.620   6.190 -0.1177  0.0165  0.1613
 1231CHOL   ROH11074   5.913   3.852   6.620  0.0205  0.0412  0.0949
 1231CHOL    R111075   6.191   3.894   6.587 -0.0272  0.0930 -0.2367
 1231CHOL    R211076   6.380   3.771   6.745  0.1729  0.3677 -0.2614
 1231CHOL    R311077   6.481   3.691   6.506 -0.0373  0.0861 -0.2563
 1231CHOL    R411078   6.662   3.574   6.706  0.1688  0.3654 -0.2782
 1231CHOL    R511079   6.719   3.698   6.536 -0.0100  0.1638 -0.4883
 1231CHOL    C111080   6.920   3.384   6.458 -0.0311  0.0998 -0.2841
 1231CHOL    C211081   6.905   2.935   6.385 -0.1893 -0.0420  0.4126
 1232XCA    COO11082   6.870   8.968   8.146  0.3881 -0.1557  0.0064
 1232XCA     C111083   7.251   9.182   8.029 -0.1388 -0.2185 -0.3413
 1232XCA     C211084   7.380   9.471   7.679  0.4185  0.1994  0.3239
 1232XCA     C311085   7.698   9.671   7.520 -0.1715  0.3675 -0.0911
 1232XCA     C411086   8.141   9.866   7.470 -0.1566 -0.4732  0.1144
 1232XCA     C511087   8.369  10.176   7.282 -0.1000  0.1931  0.2322
 1232XCA     C611088   8.762  10.160   7.055 -0.1730 -0.1575  0.0691
 1233PNCE   AM111089   1.478   5.171   4.287  0.0472 -0.0422  0.0223
 1233PNCE   AM211090   1.625   5.073   4.521  0.1322  0.1646  0.3190
 1233PNCE   T1A11091   1.484   5.644   4.420  0.1602 -0.0757 -0.0347
 1233PNCE   C2A11092   1.512   6.133   4.589 -0.0068  0.0420 -0.1356
 1233PNCE   C3A11093   1.325   6.356   4.878 -0.0330 -0.1120  0.1196
 1233PNCE   C1B11094   1.619   5.290   4.859  0.2119  0.4450 -0.1259
 1233PNCE   C2B11095   1.493   5.450   5.199  0.3745 -0.0027  0.5428
 1233PNCE   C3B11096   1.124   5.359   5.494 -0.0465  0.1520  0.1794
 1233PNCE   D4B11097   1.029   5.072   5.787 -0.2878  0.2854 -0.3560
 1233PNCE   C5B11098   1.363   4.755   5.916 -0.1436  0.2187 -0.0187
 1233PNCE   C6B11099   1.729   4.645   6.083 -0.3707  0.0698  0.1621
 1234PNCE   AM111100  10.587   7.388   4.117  0.2604  0.2729  0.1773
 1234PNCE   AM211101  10.647   7.606   4.267 -0.1350 -0.1038 -0.0933
 1234PNCE   T1A11102  10.786   7.133   4.509 -0.1569 -0.0099 -0.0983
 1234PNCE   C2A11103  10.859   7.153   4.985 -0.2897 -0.0739 -0.0134
 1234PNCE   C3A11104  10.616   7.110   5.518 -0.2014  0.0160  0.2540
 1234PNCE   C1B11105  10.769   7.662   4.670  0.3778 -0.0214 -0.2354
 1234PNCE   C2B11106  10.926   7.627   4.982 -0.2146 -0.0818  0.0169
 1234PNCE   C3B11107  11.024   7.370   5.354  0.0505  0.2657 -0.0427
 1234PNCE   D4B11108  11.321   7.377   5.635  0.0764 -0.3658  0.1119
 1234PNCE   C5B11109  11.320   7.548   6.028 -0.2770 -0.4378 -0.0538
 1234PNCE   C6B11110  11.429   7.958   6.288 -0.0345  0.0054 -0.1720
 1235PNCE   AM111111  14.386   6.372   4.077 -0.0810 -0.0486 -0.3982
 1235PNCE   AM211112  14.264   6.527   4.341  0.4277 -0.2297 -0.1556
 1235PNCE   T1A11113  14.674   6.238   4.423 -0.2888 -0.0495  0.0191
 1235PNCE   C2A11114  14.516   6.054   4.905  0.1479  0.0014  0.1491
 1235PNCE   C3A11115  14.428   5.812   5.237  0.0997 -0.3591 -0.3154
 1235PNCE   C1B11116  14.448   6.632   4.794  0.0637  0.4440 -0.0413
 1235PNCE   C2B11117  14.385   6.410   5.235 -0.1254 -0.2308  0.5059
 1235PNCE   C3B11118  14.480   6.175   5.535 -0.0508  0.5074  0.1018
 1235PNCE   D4B11119  14.411   5.835   5.787 -0.1724  0.0166 -0.0397
 1235PNCE   C5B11120  14.586   5.397   5.772  0.1006 -0.1335  0.0603
 1235PNCE   C6B11121  14.589   5.125   5.342 -0.1556  0.0243  0.0984
 1236PNCE   AM111122  12.129  15.677   4.484  0.2180 -0.2019 -0.1145
 1236PNCE   AM211123  12.110  15.449   4.706  0.0152  0.1610  0.0291
 1236PNCE   T1A11124  11.956  15.876   4.905 -0.0867  0.0449 -0.1060
 1236PNCE   C2A11125  11.986  16.038   5.304 -0.0000 -0.2792  0.3455
 1236PNCE   C3A11126  12.061  16.289   5.704  0.1268 -0.1604 -0.1840
 1236PNCE   C1B11127  12.186  15.487   5.237 -0.3106 -0.0590  0.1678
 1236PNCE   C2B11128  12.082  15.623   5.654 -0.0892  0.0969 -0.3289
 1236PNCE   C3B11129  12.303  15.526   6.028 -0.1124  0.0861  0.2215
 1236PNCE   D4B11130  12.176  15.724   6.488 -0.1217  0.2921 -0.0489
 1236PNCE   C5B11131  11.772  15.640   6.648 -0.1766 -0.0137 -0.0866
 1236PNCE   C6B11132  11.475  15.890   6.266  0.0930  0.0583  0.3842
 1237CHOL   ROH11133   6.967   1.474   7.922 -0.3907  0.0563 -0.1446
 1237CHOL    R111134   6.840   1.348   7.703 -0.3345  0.0743 -0.1879
 1237CHOL    R211135   6.753   1.488   7.481  0.0147  0.0486 -0.3430
 1237CHOL    R311136   6.905   1.308   7.347 -0.0636 -0.1928 -0.1080
 1237CHOL    R411137   6.747   1.441   7.139  0.1614 -0.2345 -0.3066
 1237CHOL    R511138   6.762   1.226   7.173 -0.0377 -0.2183 -0.1175
 1237CHOL    C111139   6.887   1.244   6.813  0.1740 -0.6259 -0.0646
 1237CHOL    C211140   6.847   1.288   6.485 -0.0005 -0.1262 -0.0545
 1238XCA    COO11141  10.215   1.690   4.436 -0.0144 -0.3417  0.4462
 1238XCA     C111142  10.357   1.821   4.918 -0.2090 -0.1797  0.1316
 1238XCA     C211143  10.498   1.969   5.290 -0.0320  0.1917  0.0533
 1238XCA     C311144  10.523   2.233   5.637  0.1196 -0.0125 -0.2583
 1238XCA     C411145  10.526   2.581   5.798  0.0089 -0.1094  0.1139
 1238XCA     C511146  10.680   2.863   6.113  0.2506  0.0994  0.1231
 1238XCA     C611147  10.812   3.232   6.075  0.1988  0.0347 -0.0863
 1239XCA    COO11148   1.642   3.034   8.686 -0.0293 -0.0951 -0.0099
 1239XCA     C111149   1.508   3.221   8.266 -0.1672  0.2094 -0.0474
 1239XCA     C211150   1.530   3.425   7.912  0.2351  0.1217  0.0455
 1239XCA     C311151   1.241   3.707   7.871 -0.0974  0.0286  0.0335
 1239XCA     C411152   0.812   3.801   7.670  0.2804 -0.0290 -0.1278
 1239XCA     C511153   0.433   3.770   7.583 -0.1107 -0.0790 -0.0443
 1239XCA     C611154   0.143   3.514   7.691 -0.0746 -0.1671  0.0431
 1240PNCE   AM111155   9.485  12.347   4.685 -0.1058  0.1101 -0.1095
 1240PNCE   AM211156   9.675  12.220   4.455 -0.0462  0.1192 -0.0703
 1240PNCE   T1A11157   9.417  12.385   5.116 -0.0852  0.0566  0.2182
 1240PNCE   C2A11158   9.390  12.488   5.578  0.0379 -0.0215  0.1848
 1240PNCE   C3A11159   9.311  12.597   5.926  0.1004 -0.2006  0.1742
 1240PNCE   C1B11160   9.648  11.893   4.882  0.3142 -0.0960 -0.2305
 1240PNCE   C2B11161   9.817  11.622   5.210  0.1135  0.0712 -0.1101
 1240PNCE   C3B11162   9.894  11.435   5.581 -0.0305  0.0005  0.3250
 1240PNCE   D4B11163  10.273  11.280   5.903 -0.0667  0.0361 -0.2260
 1240PNCE   C5B11164  10.184  10.907   6.216 -0.0926 -0.0366 -0.1073
 1240PNCE   C6B11165  10.341  10.491   6.344 -0.1951 -0.0514  0.0497
 1241CHOL   ROH11166  11.696   7.414   7.071 -0.0674 -0.1332 -0.0663
 1241CHOL    R111167  11.806   7.596   6.885  0.0119 -0.1068  0.0062
 1241CHOL    R211168  11.926   7.514   6.650 -0.0373 -0.0652 -0.0333
 1241CHOL    R311169  11.748   7.686   6.536  0.0398  0.0676  0.0459
 1241CHOL    R411170  11.950   7.641   6.329 -0.1554 -0.1864 -0.0901
 1241CHOL    R511171  11.883   7.834   6.405  0.0825 -0.0999 -0.0994
 1241CHOL    C111172  11.797   7.875   6.036 -0.1522 -0.1323 -0.0485
 1241CHOL    C211173  11.618   7.850   5.714  0.1774  0.1051  0.0357
 1242PNCE   AM111174  10.104  10.430   4.120 -0.1470 -0.0077 -0.0086
 1242PNCE   AM211175   9.922  10.745   4.264 -0.0553 -0.0604 -0.4781
 1242PNCE   T1A11176   9.991  10.216   4.459  0.1437 -0.2380  0.0731
 1242PNCE   C2A11177   9.686  10.256   4.784 -0.0292  0.0162 -0.0321
 1242PNCE   C3A11178   9.253  10.276   4.796  0.4227 -0.1613 -0.2010
 1242PNCE   C1B11179   9.976  10.697   4.718 -0.3084 -0.4181  0.1360
 1242PNCE   C2B11180   9.898  10.618   5.110  0.1230  0.0759 -0.0357
 1242PNCE   C3B11181   9.484  10.295   5.277  0.2329 -0.0711  0.1035
 1242PNCE   D4B11182   9.418   9.903   5.387  0.1027  0.3187 -0.1001
 1242PNCE   C5B11183   9.808   9.642   5.558  0.1061  0.1424 -0.1460
 1242PNCE   C6B11184  10.019   9.672   5.890 -0.2378  0.2577 -0.2168
 1243XCA    COO11185  13.683  11.892   7.889 -0.0348  0.0962 -0.2561
 1243XCA     C111186  13.529  11.776   7.453  0.3449  0.1853 -0.1249
 1243XCA     C211187  13.462  11.440   7.127 -0.2794 -0.0332 -0.2202
 1243XCA     C311188  13.616  11.156   6.754 -0.1825  0.1687  0.1984
 1243XCA     C411189  13.794  10.974   6.407 -0.0945  0.2025  0.0821
 1243XCA     C511190  13.792  11.173   5.930 -0.0346  0.0026  0.1509
 1243XCA     C611191  13.852  11.048   5.554  0.0554 -0.0654  0.1260
 1244PNCE   AM111192   6.733   0.292   5.076  0.0311  0.2019 -0.0313
 1244PNCE   AM211193   6.848  -0.065   5.163  0.0420 -0.0342 -0.1020
 1244PNCE   T1A11194   6.738   0.229   5.555  0.2587 -0.6078 -0.0599
 1244PNCE   C2A11195   6.550   0.032   5.892  0.0251 -0.1769  0.1285
 1244PNCE   C3A11196   6.354   0.335   6.156 -0.0345 -0.0487  0.0068
 1244PNCE   C1B11197   6.820  -0.274   5.473  0.1584 -0.0210 -0.1624
 1244PNCE   C2B11198   7.056  -0.695   5.793 -0.1414 -0.2057 -0.1143
 1244PNCE   C3B11199   7.103  -0.818   6.126  0.1794 -0.1830 -0.1144
 1244PNCE   D4B11200   7.176  -1.010   6.466 -0.0239  0.0620 -0.0582
 1244PNCE   C5B11201   7.621  -0.936   6.730  0.0725 -0.0315 -0.1610
 1244PNCE   C6B11202   8.022  -1.006   6.536  0.4303 -0.2130  0.0902
 1245PNCE   AM111203   0.863   4.827   4.442 -0.1275  0.0519 -0.0864
 1245PNCE   AM211204   1.126   4.879   4.297  0.0332 -0.1068  0.2244
 1245PNCE   T1A11205   0.752   4.864   4.850 -0.0991 -0.0368  0.1926
 1245PNCE   C2A11206   0.738   5.209   5.190 -0.1277 -0.1523  0.2201
 1245PNCE   C3A11207   0.628   5.431   5.515 -0.0041  0.1300 -0.0781
 1245PNCE   C1B11208   1.156   5.145   4.698 -0.0733  0.2288 -0.5164
 1245PNCE   C2B11209   1.204   5.067   5.044 -0.3918  0.0778  0.4135
 1245PNCE   C3B11210   1.117   4.837   5.333 -0.0575 -0.0642 -0.3032
 1245PNCE   D4B11211   1.036   4.492   5.672 -0.1238 -0.0152 -0.1976
 1245PNCE   C5B11212   1.204   4.120   5.450 -0.4351 -0.0054 -0.0417
 1245PNCE   C6B11213   1.465   3.814   5.456 -0.0773  0.0936 -0.0774
 1246PNCE   AM111214   3.839   3.948   4.509 -0.4131  0.2733  0.2653
 1246PNCE   AM211215   4.015   4.048   4.212 -0.0101  0.4828 -0.0032
 1246PNCE   T1A11216   3.626   4.053   4.951 -0.1011  0.0145  0.1432
 1246PNCE   C2A11217   3.563   3.706   5.238 -0.0761 -0.0353  0.0340
 1246PNCE   C3A11218   3.411   3.800   5.586  0.0123  0.2737  0.1034
 1246PNCE   C1B11219   3.656   4.178   4.140  0.3391  0.1222  0.2798
 1246PNCE   C2B11220   3.390   4.003   4.356 -0.3097 -0.1486 -0.1320
 1246PNCE   C3B11221   3.224   3.935   4.679 -0.3527  0.0419 -0.1035
 1246PNCE   D4B11222   3.101   4.043   5.156 -0.2763 -0.1547  0.2526
 1246PNCE   C5B11223   2.824   4.242   5.309  0.1342 -0.0035 -0.0842
 1246PNCE   C6B11224   2.732   4.608   5.441 -0.2120  0.0085 -0.0435
 1247CHOL   ROH11225   7.302   4.958   7.439  0.0128 -0.2176  0.2527
 1247CHOL    R111226   7.185   4.797   7.238  0.2425 -0.0150 -0.0451
 1247CHOL    R211227   7.334   4.670   7.043  0.5114 -0.2230  0.2951
 1247CHOL    R311228   7.203   4.449   7.133 -0.0437 -0.0328 -0.0375
 1247CHOL    R411229   7.324   4.365   6.879  0.5791 -0.2406  0.3247
 1247CHOL    R511230   7.114   4.348   6.935  0.3912  0.0494 -0.2773
 1247CHOL    C111231   7.196   3.981   6.868  0.0974 -0.0727  0.0288
 1247CHOL    C211232   7.178   3.749   6.680  0.1457 -0.0168  0.2460
 1248XCA    COO11233   6.432   9.475   5.781  0.0363 -0.0148  0.2584
 1248XCA     C111234   6.426   9.094   5.938 -0.2153  0.0059  0.2144
 1248XCA     C211235   6.452   8.778   6.327 -0.2082 -0.0231  0.4145
 1248XCA     C311236   6.021   8.745   6.570  0.0670 -0.0522  0.1434
 1248XCA     C411237   5.787   8.971   6.893  0.0149 -0.2908  0.0951
 1248XCA     C511238   5.387   9.001   7.200  0.4542 -0.0418  0.1613
 1248XCA     C611239   5.217   9.227   7.537 -0.1240 -0.0305  0.1497
 1249XCA    COO11240  11.252  13.439   5.244  0.2719  0.2367  0.1445
 1249XCA     C111241  11.426  13.707   5.639 -0.0868  0.3520  0.0922
 1249XCA     C211242  11.386  13.729   6.060 -0.0814  0.1277  0.2192
 1249XCA     C311243  11.249  13.702   6.458 -0.0483  0.1106  0.3193
 1249XCA     C411244  11.141  13.834   6.794 -0.0655  0.2688  0.3535
 1249XCA     C511245  11.229  13.987   7.090  0.3858  0.2036  0.0568
 1249XCA     C611246  10.947  14.227   7.289  0.2512 -0.2484  0.2900
 1250CHOL   ROH11247   4.674   5.701   7.411 -0.1476  0.1243 -0.0403
 1250CHOL    R111248   4.686   5.574   7.159 -0.1900  0.1087 -0.0346
 1250CHOL    R211249   4.522   5.645   6.948 -0.1070  0.2124 -0.0644
 1250CHOL    R311250   4.758   5.673   6.816 -0.0653  0.0500 -0.0254
 1250CHOL    R411251   4.557   5.639   6.604 -0.0687  0.2916 -0.0615
 1250CHOL    R511252   4.740   5.523   6.630 -0.1729  0.1249 -0.0758
 1250CHOL    C111253   4.799   5.662   6.280 -0.0077  0.1858 -0.0236
 1250CHOL    C211254   4.898   5.553   6.014 -0.2508 -0.4030 -0.1534
 1251XCA    COO11255   6.868   7.199   4.049  0.0768  0.0618 -0.2063
 1251XCA     C111256   6.843   7.513   4.355  0.2244  0.3468  0.1646
 1251XCA     C211257   6.616   7.663   4.687 -0.3769  0.1723 -0.2453
 1251XCA     C311258   6.549   7.757   5.088 -0.1744 -0.1220  0.2624
 1251XCA     C411259   6.803   7.879   5.517  0.0665 -0.3580 -0.1421
 1251XCA     C511260   6.946   7.855   5.887  0.0946 -0.0196 -0.0197
 1251XCA     C611261   6.963   8.276   6.061 -0.0917 -0.0180 -0.5582
 1252CHOL   ROH11262  12.187   1.274   4.989  0.0571 -0.1034 -0.1858
 1252CHOL    R111263  12.414   1.260   5.158 -0.0744 -0.0037  0.0010
 1252CHOL    R211264  12.396   1.202   5.427 -0.2527 -0.2105 -0.0556
 1252CHOL    R311265  12.575   1.007   5.364 -0.0109  0.0050 -0.0381
 1252CHOL    R411266  12.616   1.056   5.651 -0.0911  0.0609 -0.0362
 1252CHOL    R511267  12.769   1.059   5.495 -0.0839  0.2431 -0.0253
 1252CHOL    C111268  12.912   0.788   5.722  0.2287  0.4211 -0.0091
 1252CHOL    C211269  12.940   0.370   5.725 -0.1791  0.1263 -0.2166
 1253CHOL   ROH11270  13.541  11.375   7.669  0.0447 -0.1092 -0.0214
 1253CHOL    R111271  13.661  11.189   7.493  0.0439 -0.0434 -0.0913
 1253CHOL    R211272  13.553  10.940   7.443  0.1599 -0.1102 -0.0155
 1253CHOL    R311273  13.569  11.020   7.184 -0.0511 -0.1079 -0.0276
 1253CHOL    R411274  13.560  10.727   7.171 -0.0396 -0.1087 -0.0217
 1253CHOL    R511275  13.710  10.857   7.080 -0.1211 -0.0982 -0.1397
 1253CHOL    C111276  13.580  10.678   6.769 -0.3537 -0.1065 -0.0371
 1253CHOL    C211277  13.369  10.637   6.380 -0.0003 -0.2412  0.2540
 1254XCA    COO11278   2.614  11.218   4.077  0.1521  0.2616 -0.3132
 1254XCA     C111279   2.463  11.041   4.524  0.1075  0.2151  0.0727
 1254XCA     C211280   2.406  11.281   4.826  0.0905 -0.1095 -0.1281
 1254XCA     C311281   2.368  11.327   5.357  0.1618 -0.0671  0.2159
 1254XCA     C411282   2.449  11.248   5.779  0.4443 -0.0261  0.0504
 1254XCA     C511283   2.634  11.187   6.216  0.0601  0.1109 -0.1347
 1254XCA     C611284   2.254  11.095   6.407 -0.0250 -0.2385 -0.0097
 1255PNCE   AM111285  11.117   7.247   4.119 -0.2209 -0.1893  0.0591
 1255PNCE   AM211286  11.140   7.443   4.315  0.0012  0.1357  0.1714
 1255PNCE   T1A11287  11.295   6.913   4.327 -0.2565  0.1253 -0.1011
 1255PNCE   C2A11288  11.338   6.526   4.543  0.4062 -0.3778  0.1508
 1255PNCE   C3A11289  11.133   6.233   4.455  0.0337  0.0883 -0.1255
 1255PNCE   C1B11290  11.306   7.743   4.652 -0.0445 -0.1283  0.1518
 1255PNCE   C2B11291  11.585   7.837   4.954 -0.1604  0.0035  0.2787
 1255PNCE   C3B11292  11.414   7.903   5.209 -0.0594 -0.0814  0.1608
 1255PNCE   D4B11293  10.928   7.961   5.354  0.2757 -0.2909 -0.0253
 1255PNCE   C5B11294  10.622   8.067   5.130  0.3304 -0.0812  0.1152
 1255PNCE   C6B11295  10.360   8.008   4.827 -0.1215 -0.0399  0.2331
 1256CHOL   ROH11296  15.144   5.572   6.217  0.0800  0.1459  0.0941
 1256CHOL    R111297  15.006   5.557   5.970  0.1159  0.0975  0.0768
 1256CHOL    R211298  14.884   5.776   5.854  0.1230  0.0711  0.0211
 1256CHOL    R311299  15.037   5.707   5.640  0.1570  0.0399  0.0547
 1256CHOL    R411300  14.787   5.808   5.524  0.3009  0.3276 -0.0069
 1256CHOL    R511301  14.881   5.616   5.483  0.1431  0.2623 -0.0620
 1256CHOL    C111302  14.873   5.762   5.131  0.4356  0.4474  0.0083
 1256CHOL    C211303  14.695   5.405   4.960 -0.0073  0.0146  0.1550
 1257XCA    COO11304  10.433   9.576   4.034 -0.0752  0.0428  0.1708
 1257XCA     C111305  10.223   9.285   4.364  0.3332  0.0590 -0.1806
 1257XCA     C211306  10.226   9.359   4.818  0.2202  0.1309 -0.1461
 1257XCA     C311307  10.079   9.557   5.167  0.0278 -0.1007 -0.1001
 1257XCA     C411308  10.363   9.809   5.540 -0.1577  0.0555  0.1148
 1257XCA     C511309  10.526   9.662   5.874 -0.0612  0.2506 -0.0621
 1257XCA     C611310  10.963   9.420   5.668  0.2203  0.2534 -0.0596
 1258PNCE   AM111311   6.330   1.003   4.884 -0.1587 -0.2549 -0.2314
 1258PNCE   AM211312   6.427   1.241   5.099  0.2911  0.1417  0.0273
 1258PNCE   T1A11313   6.297   0.697   5.173  0.1801  0.2973  0.0787
 1258PNCE   C2A11314   5.915   0.707   5.575 -0.1472  0.2803  0.1547
 1258PNCE   C3A11315   5.813   0.737   5.973  0.0834  0.1947 -0.3345
 1258PNCE   C1B11316   6.717   1.565   5.406  0.0823 -0.0151 -0.0050
 1258PNCE   C2B11317   7.176   1.423   5.437 -0.1694  0.2818  0.3312
 1258PNCE   C3B11318   7.524   1.230   5.605  0.0441  0.4347  0.2255
 1258PNCE   D4B11319   7.779   1.133   5.954 -0.1918 -0.0393  0.1322
 1258PNCE   C5B11320   7.643   0.966   6.438  0.0310 -0.1934  0.4517
 1258PNCE   C6B11321   7.803   0.933   6.913  0.0745 -0.0149 -0.0012
 1259CHOL   ROH11322  14.131   5.025   5.164 -0.1879  0.1456  0.1706
 1259CHOL    R111323  14.124   5.053   5.446 -0.1211 -0.0167  0.1881
 1259CHOL    R211324  14.119   4.836   5.617  0.0050 -0.1161  0.0665
 1259CHOL    R311325  14.336   4.957   5.726 -0.0094 -0.0980  0.0756
 1259CHOL    R411326  14.273   4.738   5.910 -0.1116  0.0110  0.1702
 1259CHOL    R511327  14.297   4.948   5.962 -0.0906  0.0346  0.0672
 1259CHOL    C111328  14.567   4.794   6.183 -0.1933  0.1024  0.2404
 1259CHOL    C211329  14.557   4.553   6.527 -0.1326 -0.0785 -0.1128
 1260XCA    COO11330  11.333   3.623   5.844  0.2713  0.2704 -0.0852
 1260XCA     C111331  11.045   3.629   6.206  0.0675  0.2320 -0.2123
 1260XCA     C211332  10.580   3.446   6.441 -0.0638 -0.3973 -0.0290
 1260XCA     C311333  10.326   3.158   6.278  0.0074  0.1106 -0.0242
 1260XCA     C411334  10.016   2.808   6.389 -0.1769 -0.0880 -0.1458
 1260XCA     C511335   9.793   2.694   6.762 -0.0616 -0.2140  0.3010
 1260XCA     C611336   9.782   2.773   7.216  0.0228 -0.1523  0.0547
 1261XCA    COO11337  13.880   1.861   8.338  0.1054  0.1151 -0.1570
 1261XCA     C111338  13.873   2.049   7.878 -0.2466  0.0344  0.0782
 1261XCA     C211339  13.955   2.136   7.416 -0.0909 -0.0907 -0.2497
 1261XCA     C311340  13.979   2.145   6.994 -0.0180 -0.1080 -0.0760
 1261XCA     C411341  14.075   2.322   6.590 -0.0514  0.0491 -0.1015
 1261XCA     C511342  13.711   2.592   6.500  0.1127 -0.0049  0.0102
 1261XCA     C611343  13.329   2.844   6.206  0.1075 -0.0981  0.1854
 1262PNCE   AM111344  13.479  12.359   4.719 -0.0744 -0.4062  0.0282
 1262PNCE   AM211345  13.768  12.585   4.790  0.1049 -0.2767 -0.2666
 1262PNCE   T1A11346  13.510  12.406   5.149 -0.0382  0.1284  0.0469
 1262PNCE   C2A11347  13.593  12.457   5.648  0.1791 -0.1369  0.1513
 1262PNCE   C3A11348  13.548  12.377   6.055  0.2035  0.0704 -0.0801
 1262PNCE   C1B11349  13.925  12.740   5.112  0.2680  0.0196  0.2627
 1262PNCE   C2B11350  13.910  12.837   5.583  0.1546 -0.0111  0.0604
 1262PNCE   C3B11351  13.959  12.711   5.965 -0.2525  0.1538 -0.0101
 1262PNCE   D4B11352  14.217  12.858   6.287  0.0304  0.3315  0.2463
 1262PNCE   C5B11353  14.115  12.950   6.704  0.0127 -0.0768 -0.0516
 1262PNCE   C6B11354  14.290  13.343   6.844 -0.0010  0.2569 -0.0894
 1263XCA    COO11355   8.790   5.236   4.283 -0.1623 -0.1242  0.1699
 1263XCA     C111356   8.835   4.873   4.638 -0.1594 -0.0451  0.2438
 1263XCA     C211357   8.802   4.828   5.033  0.2101  0.1752  0.1191
 1263XCA     C311358   8.675   4.725   5.417 -0.0513 -0.1050 -0.2102
 1263XCA     C411359   8.251   4.667   5.674 -0.0536  0.1083  0.1408
 1263XCA     C511360   7.861   4.879   5.640 -0.0262  0.0422  0.1494
 1263XCA     C611361   7.628   5.206   5.726 -0.0751 -0.2362  0.0355
 1264XCA    COO11362   6.000   7.419   3.810 -0.2755 -0.2578  0.0524
 1264XCA     C111363   6.109   7.351   4.249 -0.0961 -0.1626 -0.0611
 1264XCA     C211364   6.446   7.250   4.546 -0.1760  0.1572  0.1286
 1264XCA     C311365   6.530   7.248   4.993  0.0877 -0.0715 -0.0154
 1264XCA     C411366   6.879   7.087   5.075 -0.1506 -0.0078  0.1381
 1264XCA     C511367   7.073   6.980   5.468 -0.2514  0.0686 -0.0069
 1264XCA     C611368   7.128   6.698   5.861 -0.1636 -0.1684 -0.2415
 1265WN      WN11369   4.170  14.554  10.502  0.0353 -0.0419  0.0522
 1266WN      WN11370  15.306  14.221   1.964 -0.0095 -0.0524 -0.2632
 1267WN      WN11371  15.374   6.085   9.724  0.0472 -0.3188 -0.4592
 1268WN      WN11372  14.024  10.392  10.148  0.1389  0.0542  0.0067
 1269WN      WN11373   6.812  14.320   1.270  0.2276  0.0649  0.0377
 1270WN      WN11374   9.893   5.643  10.180  0.0182 -0.0047 -0.1405
 1271WN      WN11375  12.573   7.048   2.075 -0.0785 -0.1800  0.1594
 1272WN      WN11376  12.278  12.066  11.468 -0.2552  0.0400 -0.1276
 1273WN      WN11377  14.165   6.560   1.802 -0.0080 -0.2816  0.1375
 1274WN      WN11378  14.007  15.327  10.629 -0.1617  0.1215 -0.0844
 1275WN      WN11379   0.533   9.041  11.437 -0.1427 -0.2287 -0.1277
 1276WN      WN11380   9.356  13.579   9.551 -0.0372  0.0918  0.0536
 1277WN      WN11381  11.812   3.497   2.826  0.2686  0.0959 -0.4135
 1278WN      WN11382   7.536   0.777  10.357  0.0440  0.0779  0.1498
 1279WN      WN11383   0.598   6.560  12.249  0.1622  0.1231 -0.1182
 1280WN      WN11384   4.618   9.985   8.431  0.0985  0.1089  0.2484
 1281WN      WN11385  14.398   8.612   2.441 -0.1663 -0.2206 -0.0101
 1282WN      WN11386  14.728  12.645   0.105 -0.4738  0.0955  0.3646
 1283WN      WN11387   1.819   8.774   3.948 -0.0233 -0.2198 -0.1751
 1284WN      WN11388  15.860  15.249   4.362  0.1895  0.3254 -0.1601
 1285WN      WN11389   4.652   6.175  12.567 -0.2072 -0.2263 -0.0944
 1286WN      WN11390   6.499   5.078   2.026  0.0901 -0.3369 -0.2450
 1287WN      WN11391   5.863  11.553   8.164  0.0401 -0.1902 -0.0332
 1288WN      WN11392  12.429  14.565   4.005 -0.1016 -0.2289 -0.0120
 1289WN      WN11393   9.982  15.087   1.819  0.0046 -0.0887 -0.0885
 1290WN      WN11394   1.154  12.331   0.074 -0.0301 -0.1896  0.2710
 1291WN      WN11395   7.376  10.637   9.545  0.3747 -0.0207  0.0260
 1292WN      WN11396   0.675  15.518  10.501 -0.0010  0.1380  0.0590
 1293WN      WN11397   9.898   2.382  12.004 -0.1127 -0.2450  0.0329
 1294WN      WN11398   1.578   0.386   4.450  0.0793 -0.3172 -0.3044
 1295WN      WN11399   5.803  14.485  10.010 -0.2129 -0.2226 -0.0651
 1296WN      WN11400   5.707  11.757   7.735  0.0836  0.2091  0.0845
 1297WN      WN11401   5.020   7.105   2.328  0.0668  0.1392  0.1636
 1298WN      WN11402  10.745   3.640   2.679  0.1241  0.2967 -0.0122
 1299WN      WN11403   2.748   8.167  10.292  0.1758 -0.0248  0.2448
 1300WN      WN11404   8.932   1.252   0.220  0.2663  0.2115  0.2683
 1301WN      WN11405   9.509   7.793   3.844  0.0618 -0.0026  0.1665
 1302WN      WN11406   2.561   5.867   2.218 -0.0575  0.2079 -0.1834
 1303WN      WN11407   1.481   6.323   1.763 -0.4516  0.1259 -0.4112
 1304WN      WN11408  15.952   2.984   1.885  0.0090  0.1311  0.1139
 1305WN      WN11409  13.257  13.232   2.302 -0.2240 -0.0342 -0.2146
 1306WN      WN11410  15.657   0.315   0.401  0.1851  0.1015 -0.1575
 1307WN      WN11411  14.541  14.457   0.849  0.2689 -0.1242  0.4420
 1308WN      WN11412   7.221   8.624  11.181 -0.3571 -0.0706 -0.0568
 1309WN      WN11413   4.420   6.285   9.100 -0.0603 -0.1106  0.2289
 1310WN      WN11414   2.803   6.092   1.828 -0.2512  0.1952 -0.1242
 1311WN      WN11415   7.127  11.402  10.841 -0.1227  0.0072  0.2443
 1312WN      WN11416  11.135  11.614  10.412  0.0454  0.2716 -0.4902
 1313WN      WN11417   1.710  13.704  12.726  0.1933  0.1174  0.0847
 1314WN      WN11418   2.212   9.855   9.201 -0.2107 -0.0247 -0.2034
 1315WN      WN11419  16.120  14.250   1.402 -0.1072  0.2026  0.3246
 1316WN      WN11420  10.383   5.352   3.451  0.2031  0.0899 -0.2694
 1317WN      WN11421   2.729  16.076  11.464 -0.0900  0.2323 -0.4386
 1318WN      WN11422  10.959  12.146   2.796 -0.2193  0.0149  0.0343
 1319WN      WN11423   6.446   8.257   0.721  0.1235  0.2121  0.2684
 1320WN      WN11424  10.265   1.196   9.318 -0.0208  0.1035  0.2697
 1321WN      WN11425   5.544   0.558  11.487 -0.1169  0.1707 -0.0394
 1322WN      WN11426  16.093  11.921  10.449 -0.1162  0.2448 -0.3093
 1323WN      WN11427   0.555  15.340   0.800  0.1160  0.2075 -0.0838
 1324WN      WN11428   5.664  12.615   1.704 -0.2024  0.1853  0.1656
 1325WN      WN11429   8.544   4.273  10.720 -0.2436 -0.1904  0.0263
 1326WN      WN11430  11.670   5.548   8.550 -0.3051 -0.0683 -0.0080
 1327WN      WN11431  12.636   7.751  12.362 -0.0752 -0.0185 -0.2768
 1328WN      WN11432  14.384   8.481  11.495  0.0904  0.1486  0.2471
 1329WN      WN11433  11.431  15.126   4.035  0.2503 -0.1192 -0.2593
 1330WN      WN11434   9.119   8.635   8.418 -0.1227 -0.0328 -0.2027
 1331WN      WN11435   7.105   7.889  10.438 -0.1889  0.1804 -0.1452
 1332WN      WN11436   6.550   1.725   4.979  0.1372 -0.1604 -0.0457
 1333WN      WN11437  14.099   3.868   8.822  0.1793 -0.0430 -0.2577
 1334WN      WN11438   6.972  13.064   8.937  0.0379 -0.0904 -0.1488
 1335WN      WN11439  13.709  13.291  11.433 -0.0401 -0.2044  0.2397
 1336WN      WN11440  14.895   2.732  12.511  0.1268 -0.0304 -0.1898
 1337WN      WN11441   7.437   0.362   3.738  0.2140 -0.0157  0.0331
 1338WN      WN11442  12.495  16.011   0.780 -0.4217 -0.2266 -0.0232
 1339WN      WN11443   0.176   0.246   1.542  0.0354  0.0855 -0.4159
 1340WN      WN11444   9.940   2.289  10.359  0.0041 -0.1806  0.0463
 1341WN      WN11445   4.900   6.663   2.501 -0.1487  0.1432 -0.0557
 1342WN      WN11446   0.883   0.521   3.678 -0.1836  0.4111  0.3322
 1343WN      WN11447   2.497   5.718  11.039 -0.1761  0.0974 -0.2044
 1344WN      WN11448   0.494   0.773  10.798  0.0887  0.1387  0.2558
 1345WN      WN11449  10.971   4.487  11.722  0.0039  0.4727 -0.0791
 1346WN      WN11450  16.124  16.356  11.116 -0.0970  0.0972  0.2503
 1347WN      WN11451  16.147   4.209   1.656 -0.0201  0.5409 -0.1560
 1348WN      WN11452   2.964   0.621   9.165 -0.0174 -0.1733 -0.1377
 1349WN      WN11453  13.076  15.979   1.110  0.0116  0.0158 -0.1187
 1350WN      WN11454   9.184   0.228  11.051  0.1143 -0.1102  0.2162
 1351WN      WN11455   8.797   7.992   1.373  0.1278 -0.3926  0.1483
 1352WN      WN11456   9.253   7.028   9.730 -0.4191  0.1133 -0.1516
 1353WN      WN11457  15.666  11.643   2.528 -0.0421  0.0811 -0.2468
 1354WN      WN11458   6.900   3.453   3.370  0.1976  0.0890 -0.0025
 1355WN      WN11459   1.831   9.823   8.467 -0.1378  0.1765 -0.1750
 1356WN      WN11460   5.474   0.906  10.580 -0.0624  0.0939 -0.1462
 1357WN      WN11461   9.024   4.777   9.132  0.2786  0.2129  0.2429
 1358WN      WN11462  12.871  14.195   3.668 -0.1433  0.2176  0.0015
 1359WN      WN11463  13.774  11.477  11.342 -0.0794  0.0991 -0.0699
 1360WN      WN11464   0.210  13.266  12.241 -0.0520  0.0021  0.2681
 1361WN      WN11465   2.144   6.256   9.377  0.0076  0.2495 -0.3750
 1362WN      WN11466  13.167   2.182   1.241  0.1327 -0.0775  0.0869
 1363WN      WN11467  10.869   7.281   3.686  0.0762 -0.1690  0.0548
 1364WN      WN11468   9.148  13.564   9.043 -0.3065 -0.2402  0.2377
 1365WN      WN11469  13.008  12.323  10.299 -0.0720  0.1547  0.2267
 1366WN      WN11470   5.628  12.600   9.703 -0.0170 -0.1301 -0.1142
 1367WN      WN11471   0.522   4.168   8.866 -0.0117  0.3723 -0.0863
 1368WN      WN11472  13.228  16.330   1.616 -0.1081  0.1313  0.1079
 1369WN      WN11473  10.829   5.145   0.891 -0.0318  0.0323 -0.1208
 1370WN      WN11474  15.459   4.048   9.514  0.2495 -0.0247 -0.4052
 1371WN      WN11475  10.532   6.787   8.416  0.1584 -0.1816  0.1349
 1372WN      WN11476  12.326   9.834   2.387  0.1416 -0.4313 -0.0017
 1373WN      WN11477   6.113  10.656  10.925 -0.1632 -0.0792 -0.1880
 1374WN      WN11478   1.836   0.566   9.051  0.1616 -0.3880 -0.0073
 1375WN      WN11479  11.206  15.344  12.297  0.2664 -0.0807 -0.0347
 1376WN      WN11480   6.549   5.869   2.893 -0.3230  0.0278 -0.1280
 1377WN      WN11481   5.123   5.097   1.344  0.1150  0.1151 -0.0436
 1378WN      WN11482  14.049   6.005  12.080 -0.0732 -0.1930 -0.1485
 1379WN      WN11483  15.378   8.816   9.712  0.1914  0.2187 -0.0255
 1380WN      WN11484   1.700   2.050   2.135  0.2916  0.0254  0.0643
 1381WN      WN11485  14.722  16.276   9.074  0.0888  0.1629 -0.0448
 1382WN      WN11486   5.308   3.394   9.661 -0.2397 -0.0200 -0.2561
 1383WN      WN11487  12.716   8.333   9.862  0.2368  0.2180  0.0047
 1384WN      WN11488   0.673   3.868   9.334 -0.1308 -0.2707  0.0186
 1385WN      WN11489  11.625   7.087  10.388  0.4041 -0.3783  0.0656
 1386WN      WN11490  12.349   8.735   2.011  0.6155  0.1785 -0.1674
 1387WN      WN11491   7.928   2.805   8.780 -0.1531 -0.1311 -0.0880
 1388WN      WN11492  12.507   2.191  11.719  0.0362  0.1267 -0.2561
 1389WN      WN11493   0.063   4.387  10.391  0.0303 -0.2250 -0.1162
 1390WN      WN11494  14.931   0.725   8.067 -0.0258 -0.0714  0.1978
 1391WN      WN11495  13.312   4.509  11.439 -0.2267 -0.1593 -0.0059
 1392WN      WN11496   9.686   9.434   1.789 -0.0857 -0.1679 -0.0477
 1393WN      WN11497  12.411   1.379  12.350 -0.0234  0.0489 -0.1109
 1394WN      WN11498   9.098   6.115   1.578  0.1802 -0.0095  0.2233
 1395WN      WN11499  15.657  13.303   2.212  0.4288  0.4055 -0.1456
 1396WN      WN11500   4.515   5.140   1.424 -0.0216  0.1159  0.1043
 1397WN      WN11501   7.861   4.847   7.447  0.0356  0.0171  0.2895
 1398WN      WN11502  14.441   6.820   3.010  0.2004  0.3377  0.0484
 1399WN      WN11503   5.588  15.457  10.471 -0.1920  0.2170 -0.0085
 1400WN      WN11504   8.710   4.434   2.346 -0.1696  0.2140 -0.0393
 1401WN      WN11505  10.587  10.566   9.164 -0.2122 -0.1105  0.2629
 1402WN      WN11506   4.786   7.200   1.892  0.1685 -0.0625  0.2254
 1403WN      WN11507   9.343  10.969  11.140 -0.1017 -0.0639 -0.0242
 1404WN      WN11508  10.383  13.912   0.576  0.1125 -0.1329 -0.0927
 1405WN      WN11509   3.737  12.310  10.875  0.1205  0.1879  0.0491
 1406WN      WN11510   4.514   5.828   9.766  0.0562 -0.1042  0.1269
 1407WN      WN11511   5.946   9.262  11.969  0.0353 -0.0245 -0.0359
 1408WN      WN11512   4.178  16.025   1.184  0.2647 -0.0069 -0.0256
 1409WN      WN11513  13.548   9.141   2.150 -0.0520  0.2093 -0.0172
 1410WN      WN11514   9.192  13.668  10.871 -0.2505 -0.0795 -0.0300
 1411WN      WN11515   2.550   5.945   3.798  0.0490 -0.0601 -0.0321
 1412WN      WN11516   4.262   2.062   0.956 -0.1720  0.1035  0.1375
 1413WN      WN11517   5.187   2.870  12.758 -0.2689  0.0482 -0.0181
 1414WN      WN11518   1.165  11.935  11.151 -0.0993  0.0154  0.0664
 1415WN      WN11519   9.094   8.529   2.555 -0.0226  0.0209  0.0217
 1416WN      WN11520  10.068   1.968   0.673  0.2529 -0.0193 -0.3130
 1417WN      WN11521   3.564  10.453   8.392  0.0576  0.0183 -0.0775
 1418WN      WN11522   0.822   9.959   0.781 -0.2396  0.2757  0.0160
 1419WN      WN11523   1.382  10.969   0.269  0.2957 -0.1343 -0.0009
 1420WN      WN11524   2.935   3.551   3.455  0.2803 -0.0908 -0.0739
 1421WN      WN11525   5.092   6.435  12.186 -0.1070 -0.2616  0.0249
 1422WN      WN11526   5.480  11.889   1.183  0.1339 -0.0865  0.0176
 1423WN      WN11527   0.612  15.372   4.592 -0.0609 -0.1557  0.1381
 1424WN      WN11528   0.382   2.209   1.918  0.0928  0.1114  0.0458
 1425WN      WN11529  16.154   4.841  10.293  0.1335 -0.1769  0.0551
 1426WN      WN11530   6.026   3.820  12.466  0.0888  0.1018 -0.1820
 1427WN      WN11531  15.009   4.957   1.907 -0.1899  0.2101  0.1701
 1428WN      WN11532  16.254   9.509   8.635 -0.1041  0.0560  0.1578
 1429WN      WN11533  14.691  11.751  10.279 -0.0112 -0.0574  0.1441
 1430WN      WN11534  13.524   3.199   0.693 -0.2829 -0.1279 -0.4140
 1431WN      WN11535   1.652  16.032   0.726 -0.3024 -0.0050  0.0270
 1432WN      WN11536   0.001   2.734   0.320  0.0796 -0.1073  0.1536
 1433WN      WN11537   2.805  13.918   1.610  0.2540 -0.4313 -0.0110
 1434WN      WN11538   4.413   8.720   3.207 -0.0201 -0.0684  0.0711
 1435WN      WN11539  15.761   7.951   3.317  0.1726 -0.2747 -0.0320
 1436WN      WN11540  12.703  13.825   0.860  0.0130 -0.1094 -0.0191
 1437WN      WN11541   7.947   5.563  10.242 -0.0031 -0.2739 -0.0734
 1438WN      WN11542  12.665   3.563   3.912 -0.0547  0.0214 -0.3551
 1439WN      WN11543   0.609   1.274   2.823 -0.3279  0.1713 -0.2639
 1440WN      WN11544   4.312   1.078  12.550 -0.0749  0.0402 -0.0252
 1441WN      WN11545  10.522   7.900   3.277 -0.1710 -0.0971 -0.2381
 1442WN      WN11546  12.531   9.152   2.231 -0.1401  0.0115  0.1085
 1443WN      WN11547  13.170  10.174   8.767 -0.0262 -0.1520 -0.0744
 1444WN      WN11548   3.749  14.941   0.421 -0.3948  0.1388  0.1716
 1445WN      WN11549   3.951  12.910   9.168  0.1174  0.2578 -0.3400
 1446WN      WN11550   2.863   0.292   0.412  0.2745  0.3419  0.2995
 1447WN      WN11551  12.124  11.108   4.073 -0.1489  0.1744  0.4368
 1448WN      WN11552  14.961   1.444   4.150 -0.0249  0.1395  0.1728
 1449WN      WN11553   3.719   4.395   9.143 -0.1151 -0.1600  0.2117
 1450WN      WN11554   9.777  13.330   4.659 -0.0111  0.1674 -0.0115
 1451WN      WN11555   2.013  14.742   2.942 -0.0062 -0.0007  0.1886
 1452WN      WN11556  11.488   3.101   2.540  0.0580  0.1111  0.0135
 1453WN      WN11557   7.130   3.401   1.096 -0.0319  0.2091  0.0338
 1454WN      WN11558  16.057   6.044  10.205  0.1081  0.0392 -0.0501
 1455WN      WN11559  11.553   8.751  10.727  0.0181  0.1827 -0.0965
 1456WN      WN11560  10.186  11.126   3.155  0.1322  0.4013 -0.0493
 1457WN      WN11561  14.220  10.382  10.615  0.2169 -0.0986 -0.1222
 1458WN      WN11562  15.343  14.603   1.516  0.2677 -0.3832 -0.3707
 1459WN      WN11563  15.334   0.475   1.556 -0.0231 -0.2423  0.3952
 1460WN      WN11564   8.934   8.640   3.641  0.1148  0.0469 -0.4374
 1461WN      WN11565  11.362   3.607  11.695  0.1836  0.3255  0.0648
 1462WN      WN11566   9.882  10.873   0.116  0.2055 -0.1960  0.1512
 1463WN      WN11567  13.789   9.455   3.448  0.0636  0.2400 -0.2050
 1464WN      WN11568  12.232   4.849   0.130 -0.1388  0.1519  0.0429
 1465WN      WN11569   2.798  12.849   9.123  0.0252 -0.2200  0.1010
 1466WN      WN11570   8.043   8.428   3.015  0.2270  0.2630  0.3023
 1467WN      WN11571   3.009  12.713  10.302  0.1496 -0.1394 -0.0495
 1468WN      WN11572   8.913   6.983   8.895 -0.3304  0.0097 -0.0954
 1469WN      WN11573  15.723   0.064  10.833  0.0237 -0.1145  0.0026
 1470WN      WN11574  15.801   3.952   1.155  0.1241 -0.1444  0.2120
 1471WN      WN11575  14.522  11.066   1.339 -0.0012  0.0160 -0.0245
 1472WN      WN11576  15.909   6.040   9.606 -0.1406  0.1522 -0.0527
 1473WN      WN11577   7.352  10.240   9.816  0.0181  0.0410 -0.1354
 1474WN      WN11578  14.436   6.052   3.731 -0.2793 -0.0383 -0.1919
 1475WN      WN11579  12.446  12.228  10.966  0.0669 -0.1267  0.2127
 1476WN      WN11580   6.863   9.236   9.356  0.0838 -0.4516  0.0915
 1477WN      WN11581  10.359  11.636   0.700 -0.3800  0.2337  0.1854
 1478WN      WN11582   7.351   1.126   4.978  0.0296  0.0539  0.0942
 1479WN      WN11583   0.891   0.410   2.912  0.1002 -0.2649 -0.1914
 1480WN      WN11584  12.866  11.933  10.900  0.0485  0.0594 -0.0113
 1481WN      WN11585  10.122  11.995  11.554 -0.0781  0.0510 -0.1562
 1482WN      WN11586   2.053   7.243   3.283  0.0476  0.1240  0.2908
 1483WN      WN11587   3.367  16.110   0.466 -0.0528 -0.1674 -0.0061
 1484WN      WN11588  13.551  11.320  12.069 -0.3015 -0.2530 -0.1126
 1485WN      WN11589   6.792  10.573   2.940  0.2057  0.1510  0.0308
 1486WN      WN11590  16.219   3.536   3.578  0.0726 -0.2248 -0.1141
 1487WN      WN11591   0.724   5.796   3.671 -0.3728  0.0566 -0.3375
 1488WN      WN11592  14.082  10.809   9.629  0.1179  0.0486 -0.0332
 1489WN      WN11593  16.186   3.599  12.557 -0.0737 -0.0984  0.0697
 1490WN      WN11594  10.891   3.286   9.306  0.0378  0.0337  0.2458
 1491WN      WN11595  15.473   2.216   1.107 -0.0891 -0.2225  0.2108
 1492WN      WN11596  10.064   6.801   9.173 -0.0733 -0.0424 -0.1963
 1493WN      WN11597   1.086   4.902   1.307 -0.2467  0.3087  0.3716
 1494WN      WN11598   6.364   5.477  11.876  0.0033  0.0693 -0.0647
 1495WN      WN11599  15.977   5.920   1.919  0.0115 -0.2993 -0.1037
 1496WN      WN11600   2.928  15.108   8.249  0.0923 -0.1570 -0.0229
 1497WN      WN11601  10.340   2.129   9.126 -0.1043 -0.5480 -0.1582
 1498WN      WN11602   8.788   2.929   9.227 -0.0550  0.4295  0.1154
 1499WN      WN11603   7.680   2.258   0.825  0.0608  0.0013  0.1787
 1500WN      WN11604   7.202   0.139  11.480 -0.1713 -0.0433 -0.0241
 1501WN      WN11605   6.487   1.985   1.572 -0.1462  0.0592  0.0669
 1502WN      WN11606   8.871   8.150   8.172  0.4646  0.1603 -0.0893
 1503WN      WN11607   0.411  15.805   4.417  0.1187 -0.0596 -0.1160
 1504WN      WN11608  12.454   6.300   1.758 -0.2494  0.0502 -0.0095
 1505WN      WN11609  11.493  10.678   9.483 -0.3090 -0.2196 -0.0863
 1506WN      WN11610   8.360  11.030   4.143 -0.1295  0.0151  0.0143
 1507WN      WN11611  15.300  15.029   0.771 -0.1134 -0.0469  0.0130
 1508WN      WN11612  11.255   2.404   2.917  0.1758 -0.0397 -0.0135
 1509WN      WN11613  16.265   5.267   3.669 -0.1634 -0.2012 -0.0726
 1510WN      WN11614  10.681   4.941   2.801 -0.1216  0.1197 -0.0501
 1511WN      WN11615   2.629  13.011  11.760 -0.0125 -0.2688  0.2272
 1512WN      WN11616  14.703   9.514   7.781 -0.0857  0.0263 -0.1538
 1513WN      WN11617   0.386  16.298  11.243 -0.0677  0.3075  0.3297
 1514WN      WN11618   1.632  15.896   3.741  0.1652  0.2236  0.0558
 1515WN      WN11619  11.335  15.788  12.491  0.4029  0.1383  0.0479
 1516WN      WN11620  11.822   0.254   0.499 -0.1441  0.1604  0.1332
 1517WN      WN11621   7.127   1.348   4.129  0.0808 -0.0237 -0.2342
 1518WN      WN11622   0.743  14.021  11.029  0.0782  0.0278  0.1056
 1519WN      WN11623   2.079   5.935   2.451 -0.2767  0.1649  0.1045
 1520WN      WN11624  14.696   0.070   4.080  0.2656  0.0934 -0.2022
 1521WN      WN11625   9.775   2.029   2.497  0.1600 -0.1280 -0.1187
 1522WN      WN11626   1.031  12.948   0.992  0.0401  0.0835  0.3070
 1523WN      WN11627  11.547   2.945   1.995 -0.1449 -0.0523 -0.2580
 1524WN      WN11628   1.960   6.449   3.206 -0.0890 -0.0316  0.2154
 1525WN      WN11629   5.796  13.281   3.072  0.2038 -0.1741  0.1135
 1526WN      WN11630  11.503   4.086   2.040 -0.4078  0.1807 -0.0738
 1527WN      WN11631   7.825   2.861   1.692  0.0054 -0.1645  0.3509
 1528WN      WN11632   6.862   8.468   0.582 -0.4465  0.0436  0.1622
 1529WN      WN11633   1.060   0.123  11.003  0.3835  0.1466 -0.2830
 1530WN      WN11634  10.552   1.942  12.221  0.4155 -0.1153 -0.0413
 1531WN      WN11635   7.287   5.773  11.760  0.0276  0.0278 -0.1158
 1532WN      WN11636  11.130   1.400   2.225 -0.0258  0.1292  0.0684
 1533WN      WN11637   7.625  14.803  12.020  0.0075  0.1217  0.0746
 1534WN      WN11638   9.651   7.346  11.367  0.1808  0.3087  0.0610
 1535WN      WN11639  14.711   9.760   1.578  0.1601 -0.0017 -0.2534
 1536WN      WN11640   6.424   7.379   9.706 -0.1342 -0.3542 -0.2998
 1537WN      WN11641  10.557   5.771   2.515  0.0740 -0.1311  0.3775
 1538WN      WN11642   9.862   8.162   8.934  0.1692 -0.3418  0.0637
 1539WN      WN11643   6.170  15.009  11.759  0.1776 -0.1008  0.1545
 1540WN      WN11644  16.151  13.215   4.029 -0.1019  0.1556  0.0351
 1541WN      WN11645   7.112   8.470  10.076 -0.0131 -0.3404  0.0023
 1542WN      WN11646   5.108  12.806   0.807  0.0140  0.0696  0.2033
 1543WN      WN11647   0.291  13.650   0.198 -0.2795 -0.0694 -0.0675
 1544WN      WN11648  10.493  14.378   3.727  0.0869  0.1221 -0.0093
 1545WN      WN11649   1.090   1.036  12.611 -0.1131  0.1062  0.3331
 1546WN      WN11650  10.566  10.689   0.990  0.3112 -0.2072  0.1624
 1547WN      WN11651   9.341   8.419  10.651 -0.1696  0.0279 -0.1207
 1548WN      WN11652  15.000   0.630  11.811  0.1838  0.0253  0.1083
 1549WN      WN11653   5.081  14.141   0.535 -0.0222  0.0053 -0.0290
 1550WN      WN11654   2.053   7.315   9.528 -0.0407  0.0599  0.3347
 1551WN      WN11655   3.954  10.323   8.107 -0.1699 -0.0701  0.0320
 1552WN      WN11656  15.215   3.420  10.886  0.1097  0.2031  0.1187
 1553WN      WN11657   3.202   6.815   1.781  0.3187 -0.1044  0.1475
 1554WN      WN11658   1.447   9.888   7.618  0.0719 -0.2626 -0.1517
 1555WN      WN11659   3.566   9.831   9.137 -0.1753 -0.2212 -0.1908
 1556WN      WN11660   6.158   0.203   4.296 -0.2332 -0.2588 -0.0064
 1557WN      WN11661   4.452   6.724   0.427  0.2447 -0.0006  0.2434
 1558WN      WN11662   7.148  14.121   0.989 -0.0329  0.1548 -0.0100
 1559WN      WN11663   7.234  15.109   2.038 -0.0182  0.3251  0.4657
 1560WN      WN11664   6.429  13.374  10.943 -0.0833  0.1221 -0.0431
 1561WN      WN11665   9.523   5.572   8.645 -0.2790  0.1545  0.3487
 1562WN      WN11666  14.900   1.992  10.265  0.1799 -0.2264 -0.1668
 1563WN      WN11667  11.708  16.106  12.649 -0.3393  0.1500 -0.0877
 1564WN      WN11668  13.075   0.538   3.232  0.1327 -0.2060  0.1665
 1565WN      WN11669  10.707   3.013   2.425 -0.1041 -0.1337 -0.0776
 1566WN      WN11670   0.549   7.853   8.154 -0.0232  0.1760 -0.1298
 1567WN      WN11671  15.510   9.254   8.229 -0.1352 -0.1018  0.2075
 1568WN      WN11672   4.639   2.209  10.660  0.1197 -0.0287 -0.1259
 1569WN      WN11673   3.924  14.843  10.241  0.0591  0.3565 -0.0811
 1570WN      WN11674   9.684  14.878  12.171  0.0636 -0.1084 -0.3211
 1571WN      WN11675   2.748   2.173   2.741 -0.1192 -0.1187  0.1423
 1572WN      WN11676   3.098  12.890  11.798  0.0775  0.0022  0.0436
 1573WN      WN11677  12.186  11.106  11.668  0.2335 -0.2518  0.1024
 1574WN      WN11678  10.140   1.817  10.582 -0.0445 -0.1436 -0.0904
 1575WN      WN11679   0.131   2.111   8.939 -0.1647  0.2208  0.0420
 1576WN      WN11680  15.126   8.179   1.790 -0.0954 -0.1760 -0.0630
 1577WN      WN11681   1.519   9.946  10.277  0.3300 -0.1118 -0.1891
 1578WN      WN11682  10.908   0.970   0.505  0.1976  0.4580 -0.0104
 1579WN      WN11683  15.585  11.000  10.952  0.1060 -0.1916  0.1533
 1580WN      WN11684   7.306  14.005   1.498 -0.0359  0.0268  0.0792
 1581WN      WN11685  11.689  14.569  11.890 -0.0064 -0.1346 -0.1224
 1582WN      WN11686  14.499  10.075   1.094 -0.3811  0.2284  0.1085
 1583WN      WN11687   0.695   1.871   2.074 -0.2768  0.2068 -0.0665
 1584WN      WN11688  14.335   6.808   8.666 -0.0435 -0.0991  0.1350
 1585WN      WN11689   4.841  10.427   2.850  0.2546  0.0921 -0.3188
 1586WN      WN11690   0.071   0.613   9.579  0.2354 -0.1240 -0.0166
 1587WN      WN11691   3.323   6.789   8.067 -0.0102 -0.0822 -0.0303
 1588WN      WN11692   6.526   4.265   0.901 -0.0602  0.0124  0.0968
 1589WN      WN11693  12.043   6.204   2.133 -0.0955  0.1339  0.1053
 1590WN      WN11694  10.596  10.931   3.396  0.0329 -0.0832  0.0647
 1591WN      WN11695  15.968   1.655   4.071  0.2751  0.0801  0.0266
 1592WN      WN11696   5.725   3.670  10.816 -0.1158 -0.3026 -0.0919
 1593WN      WN11697  14.791  14.138   2.181  0.0377  0.0150  0.0588
 1594WN      WN11698   9.521  13.262   4.240 -0.0075 -0.0232 -0.1708
 1595WN      WN11699  13.399   7.393  12.540 -0.4615  0.2224 -0.1445
 1596WN      WN11700  12.501   2.956   3.145 -0.0143 -0.1357 -0.2022
 1597WN      WN11701   8.270  12.480   9.077  0.0077  0.0596 -0.1165
 1598WN      WN11702   5.342   2.457   1.591  0.2864  0.1104 -0.0208
 1599WN      WN11703   9.070  10.237   1.044  0.0087  0.0262 -0.0072
 1600WN      WN11704  10.357   6.905   2.598 -0.2818 -0.2064  0.0330
 1601WN      WN11705   4.046   0.875   0.342 -0.2296 -0.1882 -0.0050
 1602WN      WN11706   8.001   2.674   2.117  0.2406 -0.1525  0.0609
 1603WN      WN11707  11.511  14.339  11.418  0.2573  0.4534  0.0999
 1604WN      WN11708   2.046   9.030   8.928  0.3811 -0.1771  0.3153
 1605WN      WN11709  10.924   5.206   8.754 -0.2714 -0.2078  0.1055
 1606WN      WN11710   8.850  13.911   4.748  0.1119  0.0217 -0.3517
 1607WN      WN11711   5.974  10.256   3.946 -0.1616 -0.1224 -0.2093
 1608WN      WN11712  13.315   9.361   9.856 -0.2847 -0.1573  0.2908
 1609WN      WN11713   9.505   0.683   0.738  0.0184  0.1557  0.1442
 1610WN      WN11714   2.583  15.283  12.602  0.1167 -0.3068  0.1080
 1611WN      WN11715   7.254  14.657   2.305  0.2255 -0.2543 -0.0732
 1612WN      WN11716  15.411   6.597  10.317 -0.3177  0.1104 -0.0648
 1613WN      WN11717   6.374   1.670  12.500  0.0260 -0.4434  0.0570
 1614WN      WN11718  13.038   4.749   7.979  0.1837  0.4694  0.2199
 1615WN      WN11719  15.301   6.268   3.513  0.1907  0.3278  0.2703
 1616WN      WN11720   7.540   9.359   0.955 -0.3739  0.1597  0.1457
 1617WN      WN11721   1.345   8.915   1.450  0.0430 -0.0526  0.3011
 1618WN      WN11722  12.757   5.558   8.298  0.0051  0.0751  0.0665
 1619WN      WN11723   5.737   2.457   9.060 -0.0948 -0.1096  0.1202
 1620WN      WN11724   2.090  13.927  12.193 -0.2536 -0.1384  0.0743
 1621WN      WN11725   0.687  12.567   8.771  0.2419 -0.3050 -0.0548
 1622WN      WN11726   8.883   4.857   8.661  0.2127 -0.1614  0.0666
 1623WN      WN11727   1.692  12.643   3.895  0.0868  0.1953 -0.0180
 1624WN      WN11728   7.913   9.419   0.653 -0.1306  0.2110 -0.0911
 1625WN      WN11729   0.321   2.562   3.115  0.0089 -0.1159  0.0213
 1626WN      WN11730   5.273   3.274   2.832 -0.0746  0.2178 -0.2267
 1627WN      WN11731   0.223   7.556   8.404 -0.0610  0.1181  0.2072
 1628WN      WN11732   3.421  12.873   8.503  0.3426 -0.0219 -0.2083
 1629WN      WN11733  13.995   5.920   1.560  0.1140  0.3987  0.1109
 1630WN      WN11734  12.800   4.831   2.522  0.0906  0.0187  0.1062
 1631WN      WN11735   2.787  10.428   0.002  0.2627  0.0175 -0.1624
 1632WN      WN11736  14.252  13.088   4.191 -0.0083  0.0579 -0.0311
 1633WN      WN11737   5.912   2.861   0.882 -0.2125 -0.0011  0.0118
 1634WN      WN11738  12.984   5.747   0.424 -0.1870 -0.0681  0.0252
 1635WN      WN11739   2.996   7.248   3.159 -0.4011  0.2539  0.4682
 1636WN      WN11740   8.024   1.345   2.368 -0.0985 -0.1380 -0.0444
 1637WN      WN11741  12.522  11.578   3.658  0.3834 -0.0364  0.1268
 1638WN      WN11742  11.141   9.733   1.806  0.3158  0.0747 -0.1099
 1639WN      WN11743   5.594   2.543   4.093  0.1772 -0.0951  0.1976
 1640WN      WN11744  11.856  13.877   9.950 -0.2828 -0.3002 -0.2479
 1641WN      WN11745   3.865   2.193   1.925 -0.0989  0.1618  0.1693
 1642WN      WN11746  14.619  11.749  11.843 -0.1519 -0.2700 -0.2957
 1643WN      WN11747  13.790   5.882   2.095 -0.1553 -0.0535  0.0036
 1644WN      WN11748   4.368   1.292   0.433  0.1761 -0.1489 -0.2529
 1645WN      WN11749  16.339  11.318   3.368  0.2558  0.0033 -0.0327
 1646WN      WN11750  15.338   0.935   8.672 -0.0611 -0.3329 -0.1438
 1647WN      WN11751  12.519   4.782   9.428  0.1357  0.2456 -0.0082
 1648WN      WN11752  15.682   4.974   8.573  0.1575 -0.1051  0.2624
 1649WN      WN11753   6.760  12.432  12.738 -0.1682  0.4118 -0.0335
 1650WN      WN11754  10.949   1.483  12.367 -0.1206  0.2380  0.0983
 1651WN      WN11755   2.800   7.891  11.166 -0.1947 -0.3363  0.0891
 1652WN      WN11756   8.518  13.600   4.318  0.0832  0.0625 -0.0340
 1653WN      WN11757   6.515  15.143   4.370  0.4153  0.0179 -0.0313
 1654WN      WN11758   9.569   7.958  10.165 -0.1477  0.4563 -0.0292
 1655WN      WN11759  13.668   3.216   1.185  0.0150 -0.0625  0.0809
 1656WN      WN11760   3.510  12.730  10.245 -0.1421  0.1536 -0.0156
 1657WN      WN11761  10.064   3.474  10.946 -0.0797 -0.1441 -0.2080
 1658WN      WN11762  10.998   2.395   9.216  0.2210 -0.2199 -0.1780
 1659WN      WN11763   3.457  11.578   1.535  0.0242  0.1530  0.0790
 1660WN      WN11764   6.427  13.426   1.554  0.1718 -0.0963 -0.0752
 1661WN      WN11765   0.652  13.789   9.166  0.2328 -0.0445 -0.0724
 1662WN      WN11766   0.476   9.450  11.680 -0.3254  0.0221  0.1111
 1663WN      WN11767  12.002   9.892   8.430  0.2665  0.0584  0.0340
 1664WN      WN11768   6.635   9.818   9.837  0.0593  0.1542  0.0187
 1665WN      WN11769  13.485  11.780   3.672  0.2508 -0.0064 -0.0923
 1666WN      WN11770   8.025   1.391  11.870  0.2458  0.0347  0.0767
 1667WN      WN11771  12.779  12.821  11.093  0.1191 -0.0386 -0.1412
 1668WN      WN11772   8.164   5.149   4.129  0.0407  0.0679 -0.0931
 1669WN      WN11773   3.677   2.560  10.493  0.1690 -0.1570  0.2302
 1670WN      WN11774  13.423   2.707   1.335 -0.2591  0.1457  0.2477
 1671WN      WN11775  15.978   7.321   9.785 -0.2798 -0.2236 -0.3318
 1672WN      WN11776  16.261   9.059  12.186  0.1722  0.0731  0.0860
 1673WN      WN11777  11.183   1.629   0.076  0.0486 -0.1258  0.1758
 1674WN      WN11778  14.645   4.947   4.086 -0.1087 -0.0977  0.1573
 1675WN      WN11779   0.461   0.508   8.561 -0.1316 -0.1571  0.1845
 1676WN      WN11780   3.883  12.843  10.574 -0.1088  0.0627 -0.0208
 1677WN      WN11781  10.973  14.785   0.963 -0.1608  0.1002 -0.0236
 1678WN      WN11782   2.003  12.248   9.290  0.1378  0.1563 -0.1905
 1679WN      WN11783   2.838  11.765   3.888 -0.2701 -0.1040 -0.1082
 1680WN      WN11784   5.680   1.589  11.332  0.0840 -0.0313  0.0617
 1681WN      WN11785  11.647   7.100  12.263  0.0275 -0.0040  0.0725
 1682WN      WN11786  14.760   9.735   2.981  0.1165  0.2303  0.3600
 1683WN      WN11787   7.967  16.127  12.268 -0.1620 -0.0780  0.1979
 1684WN      WN11788  16.097   1.873  10.936  0.2068  0.1115  0.1689
 1685WN      WN11789  15.150   9.469   1.815 -0.1622  0.0449  0.1039
 1686WN      WN11790   4.905   4.801   9.270  0.0488  0.3016  0.1485
 1687WN      WN11791  10.299  14.736  10.971  0.2866  0.0002  0.0493
 1688WN      WN11792  10.396  12.452   1.829  0.0373  0.0373 -0.2242
 1689WN      WN11793  14.324   2.622   3.240 -0.1508  0.2000 -0.2265
 1690WN      WN11794   1.060  15.705   1.532  0.2319  0.2438  0.2355
 1691WN      WN11795  10.009  14.648   4.687 -0.2426 -0.1032 -0.1651
 1692WN      WN11796  12.525   5.474   1.156  0.0654  0.0969 -0.1675
 1693WN      WN11797   9.369   9.263  11.712  0.1226 -0.0486 -0.3299
 1694WN      WN11798  15.739   0.673   8.544  0.2326  0.0257 -0.1317
 1695WN      WN11799   9.167   7.189  11.156 -0.0926 -0.2369  0.2222
 1696WN      WN11800   3.736   2.682   2.050  0.0825  0.0914  0.0628
 1697WN      WN11801   7.186  11.090   1.917 -0.0309 -0.0759 -0.1589
 1698WN      WN11802   9.880   0.499  12.304 -0.0184 -0.0252  0.0494
 1699WN      WN11803   6.097   7.600  10.025 -0.0877 -0.0283 -0.2480
 1700WN      WN11804   8.348   8.023   2.083 -0.1340  0.2353  0.0490
 1701WN      WN11805   0.096  16.276   3.561 -0.0227  0.2861 -0.0977
 1702WN      WN11806  14.126   7.063   9.253 -0.1435  0.2305  0.0683
 1703WN      WN11807  12.260   8.388  10.284 -0.3031 -0.0548  0.4633
 1704WN      WN11808  12.344  12.343   9.703 -0.5053  0.1103 -0.0098
 1705WN      WN11809   7.223   5.159   2.776 -0.1441  0.4661 -0.1051
 1706WN      WN11810   8.524   2.133   9.089 -0.0941 -0.2189 -0.0471
 1707WN      WN11811   0.585   0.816   0.393 -0.0088  0.1646  0.2959
 1708WN      WN11812  14.079  12.489   1.861 -0.3348  0.0382 -0.1123
 1709WN      WN11813  12.583  12.830   0.976  0.2394 -0.0061  0.0605
 1710WN      WN11814  16.158  15.918   4.029 -0.0285 -0.1445  0.1159
 1711WN      WN11815   2.524   8.697   0.787 -0.2180  0.1550  0.1108
 1712WN      WN11816  14.532   9.097   9.704  0.2504 -0.2704 -0.2182
 1713WN      WN11817   5.955   7.447   1.198 -0.0816  0.1904 -0.0618
 1714WN      WN11818   0.696   5.525   8.613 -0.0987  0.1567 -0.4503
 1715WN      WN11819  13.680   0.515  10.246  0.0073  0.0214  0.1199
 1716WN      WN11820  15.918  10.512  10.808  0.1892  0.1214  0.0963
 1717WN      WN11821   7.302   6.328  12.107 -0.1158  0.0749 -0.1303
 1718WN      WN11822   2.302  12.057   9.699 -0.1189 -0.1627 -0.0446
 1719WN      WN11823  10.233   9.125  12.341  0.0548  0.0593  0.0371
 1720WN      WN11824   8.163   3.515  11.488 -0.1039 -0.2465 -0.0773
 1721WN      WN11825   4.578   3.047   3.246  0.1473 -0.0174  0.0319
 1722WN      WN11826   4.372   5.923  12.248 -0.0861  0.2177 -0.0779
 1723WN      WN11827   6.592   2.485   1.997  0.0743  0.0903  0.1223
 1724WN      WN11828   2.655  12.365  12.068  0.1276 -0.4767 -0.2370
 1725WN      WN11829  14.786  13.294  11.885 -0.0439  0.0671  0.2290
 1726WN      WN11830   1.395   6.175   4.084 -0.3816 -0.1039 -0.0618
 1727WN      WN11831   7.575   8.211   2.218 -0.1883  0.1019 -0.0069
 1728WN      WN11832  15.507   5.519  12.054  0.2412  0.2155  0.1444
 1729WN      WN11833   0.471  14.266  10.546  0.0626  0.0306 -0.1203
 1730WN      WN11834  13.835  16.248   8.225  0.2915  0.1633  0.4124
 1731WN      WN11835   6.312   2.951   1.901 -0.1595  0.1916  0.0448
 1732WN      WN11836   3.838   1.334  12.478 -0.0158  0.0309 -0.1347
 1733WN      WN11837  13.055   4.977   2.056 -0.1232  0.1816  0.2033
 1734WN      WN11838  11.659   3.225   8.519 -0.1097  0.0190 -0.4905
 1735WN      WN11839   0.722  14.620  11.690  0.0352  0.4476 -0.0280
 1736WN      WN11840   8.123  15.759   0.237  0.1819 -0.1242  0.1767
 1737WN      WN11841   4.459  12.736  10.649 -0.3076 -0.1192  0.1580
 1738WN      WN11842   4.306  11.087   1.511 -0.4088  0.0932 -0.1776
 1739WN      WN11843   9.951   3.111   9.705  0.0144 -0.1576 -0.3623
 1740WN      WN11844  13.773   0.395   0.791  0.3703 -0.0783  0.1073
 1741WN      WN11845   8.754  11.109  10.762  0.1570 -0.0529 -0.1398
 1742WN      WN11846  10.535   8.319   2.087 -0.0526 -0.0684  0.0157
 1743WN      WN11847  14.075  10.893   3.566 -0.0669  0.3602 -0.0256
 1744WN      WN11848  11.451  10.072   2.033  0.3631 -0.0721  0.2831
 1745WN      WN11849   0.277   1.558   1.103  0.0987  0.2509 -0.3608
 1746WN      WN11850  10.429  14.736  11.956  0.1487  0.1538  0.0055
 1747WN      WN11851   1.696  14.077  10.767 -0.1090  0.1977  0.0392
 1748WN      WN11852   9.839   9.677  11.106  0.0728  0.1686 -0.3806
 1749WN      WN11853   7.942  12.254   1.327 -0.0529  0.4009 -0.2695
 1750WN      WN11854   8.338   7.072   3.113 -0.0035 -0.1148  0.1106
 1751WN      WN11855   5.025  16.333   9.428  0.2294 -0.2893  0.1207
 1752WN      WN11856  11.270  15.544   3.784  0.0502  0.0539 -0.1726
 1753WN      WN11857   4.101   8.485  11.486  0.0723 -0.0310  0.0379
 1754WN      WN11858   4.549   0.953   9.555  0.2454  0.0286  0.0018
 1755WN      WN11859   6.128  14.449  11.006  0.0471  0.0870 -0.1452
 1756WN      WN11860   4.859  15.550   0.161  0.1225 -0.0112  0.0431
 1757WN      WN11861  15.613   4.679  10.177  0.2248  0.1794 -0.2138
 1758WN      WN11862   6.774   7.790  12.229 -0.0494  0.0061  0.1001
 1759WN      WN11863  14.561   1.092  12.529  0.0053 -0.2026 -0.0113
 1760WN      WN11864  15.468  10.605  11.689 -0.3393  0.0348 -0.0491
 1761WN      WN11865   2.295   2.452  11.812 -0.4048 -0.0027  0.2137
 1762WN      WN11866  15.562  11.926  10.285  0.4362  0.0991 -0.1436
 1763WN      WN11867   2.924  14.623   8.827 -0.1906  0.2431  0.2370
 1764WN      WN11868   4.898   7.903  10.603 -0.0163  0.1457  0.2236
 1765WN      WN11869   5.432   1.333   0.290 -0.0502 -0.0700 -0.2361
 1766WN      WN11870   6.657   7.282   9.129  0.3297 -0.1862 -0.1164
 1767WN      WN11871   5.015   9.699  11.737 -0.0168 -0.1063 -0.0071
 1768WN      WN11872  13.834   1.297   8.380  0.2155  0.2763 -0.2880
 1769WN      WN11873   0.548   1.690  11.599  0.0607 -0.0077 -0.0501
 1770WN      WN11874   5.121   1.879   3.862 -0.2863 -0.2862  0.0057
 1771WN      WN11875   4.262   6.186   0.694  0.0594 -0.1041 -0.1742
 1772WN      WN11876   9.677   4.600   9.893  0.2645 -0.3772 -0.2217
 1773WN      WN11877  11.726   9.843   9.429  0.3623  0.2001  0.2872
 1774WN      WN11878  15.532   2.335   4.043  0.0555 -0.1110 -0.2396
 1775WN      WN11879  12.429   6.445   0.437  0.2635 -0.1942  0.0623
 1776WN      WN11880   3.114  12.466   1.019  0.1564  0.1978  0.0469
 1777WN      WN11881   5.904  16.300   0.581  0.0854  0.1444 -0.1609
 1778WN      WN11882   6.830   3.793   3.766 -0.3304 -0.1273 -0.0174
 1779WN      WN11883   0.625   9.723   9.616  0.1817  0.0124  0.3444
 1780WN      WN11884   7.269  15.014  11.487  0.3330 -0.2380 -0.0588
 1781WN      WN11885   3.129   4.341   4.073  0.4010  0.3075  0.4479
 1782WN      WN11886   2.537   1.735   8.546  0.2145  0.1206 -0.1452
 1783WN      WN11887   6.625  11.902   0.026 -0.1559 -0.3394  0.3004
 1784WN      WN11888   9.214   9.376  10.445  0.2157 -0.1783 -0.0097
 1785WN      WN11889   5.981  13.385   3.521 -0.0113  0.0437  0.1003
 1786WN      WN11890   9.681  13.423   3.122 -0.2429  0.4626  0.1878
 1787WN      WN11891   7.249  10.004  11.192 -0.1024 -0.1487  0.0697
 1788WN      WN11892   0.368   5.009   3.817 -0.1463 -0.0268 -0.0871
 1789WN      WN11893  12.319   7.388   9.599  0.0567  0.0426  0.0096
 1790WN      WN11894   8.002   9.698   9.335  0.1946 -0.1000 -0.0321
 1791WN      WN11895  13.515   5.788   1.231  0.0254 -0.0836  0.1061
 1792WN      WN11896  12.113  16.016   1.208  0.1991 -0.3789  0.3422
 1793WN      WN11897   2.702  14.530   1.297 -0.0041 -0.0897  0.0706
 1794WN      WN11898   2.809  14.385   9.545  0.0289 -0.1549 -0.0124
 1795WN      WN11899   3.963   1.711   9.004  0.0739  0.0788 -0.1689
 1796WN      WN11900   1.466   8.577   1.955 -0.4613 -0.1821 -0.0960
 1797WN      WN11901   0.904   9.529  11.928  0.2166 -0.1708  0.1163
 1798WN      WN11902   4.055   3.105   1.218  0.1413  0.0485  0.0955
 1799WN      WN11903   3.373   0.104  12.134 -0.2502  0.0509 -0.0174
 1800WN      WN11904   8.965   8.014   3.155  0.1554  0.2167  0.1541
 1801WN      WN11905   8.949   3.530   3.232  0.0497 -0.0394  0.1233
 1802WN      WN11906   0.266  15.078   9.381 -0.2300 -0.2055  0.0400
 1803WN      WN11907  12.621   8.513   7.538 -0.1804 -0.1231 -0.2655
 1804WN      WN11908   8.429   9.917   8.610  0.1751 -0.0414 -0.3539
 1805WN      WN11909  12.834   9.795   8.755 -0.1711  0.2760 -0.0368
 1806WN      WN11910  13.318  12.699  11.062  0.1647 -0.0453 -0.3132
 1807WN      WN11911  11.544  11.188   8.890 -0.5279 -0.0321  0.1151
 1808WN      WN11912   5.426  11.149   0.402  0.0503  0.0157  0.0745
 1809WN      WN11913  12.220  15.233  11.368  0.1147 -0.3725  0.0084
 1810WN      WN11914   0.569   2.168   2.925  0.0452 -0.0804  0.0599
 1811WN      WN11915   7.608   0.826   1.576 -0.1111 -0.1125  0.0974
 1812WN      WN11916   3.121   6.420   2.710 -0.3194 -0.0070  0.0538
 1813WN      WN11917  15.520   3.804   0.724  0.2733  0.0061  0.1415
 1814WN      WN11918   6.187   0.152   3.293  0.1874 -0.0020 -0.1363
 1815WN      WN11919   5.777   6.125   3.947 -0.0151  0.0770  0.2768
 1816WN      WN11920   5.402   6.525   8.085 -0.1158  0.0929 -0.2215
 1817WN      WN11921  13.790   2.897   1.567  0.0955  0.1800 -0.0858
 1818WN      WN11922  14.602  13.437   3.407 -0.0316  0.3783  0.4377
 1819WN      WN11923   3.773   2.346   4.598 -0.0622  0.1646 -0.0507
 1820WN      WN11924   2.982   3.607   0.457  0.0063  0.0940  0.2262
 1821WN      WN11925   5.884  16.054   8.911 -0.1954 -0.0282 -0.0399
 1822WN      WN11926   5.740   9.436   9.884 -0.0116 -0.0645 -0.1374
 1823WN      WN11927   6.480  15.826  10.240 -0.3035  0.0492 -0.2480
 1824WN      WN11928   7.928  12.873   2.033  0.1655 -0.3268  0.4424
 1825WN      WN11929  10.095   0.340  11.249 -0.1103 -0.2475  0.1339
 1826WN      WN11930   1.587   5.656   3.399 -0.0681  0.3616  0.3637
 1827WN      WN11931  13.173   9.813   8.318 -0.0881 -0.1883  0.0411
 1828WN      WN11932  12.365   6.370  12.743 -0.1334 -0.1516  0.1620
 1829WN      WN11933  16.276   6.887   1.607 -0.3136 -0.2458  0.1018
 1830WN      WN11934  14.915  10.805   2.188 -0.1405  0.0970  0.0268
 1831WN      WN11935   8.441  11.160   9.665  0.1684  0.0960  0.2663
 1832WN      WN11936   2.885   9.028   0.582 -0.0334 -0.0128 -0.1129
 1833WN      WN11937  11.912  10.931   2.144  0.1035  0.1526  0.1944
 1834WN      WN11938   3.019   8.237  12.331  0.3020  0.0541  0.1255
 1835WN      WN11939   5.609   2.365   2.059  0.0202 -0.2772 -0.3808
 1836WN      WN11940   4.288  14.076   2.565 -0.0623  0.1263  0.1279
 1837WN      WN11941  12.594  15.213   0.142 -0.4037  0.0946  0.2620
 1838WN      WN11942   7.349   4.028   0.551 -0.0122 -0.0024  0.1321
 1839WN      WN11943   7.771   9.314   9.347  0.1742 -0.0071  0.0092
 1840WN      WN11944  13.870   1.806   2.207 -0.0077 -0.0965 -0.2032
 1841WN      WN11945   1.986   3.331   3.167 -0.0576  0.3177  0.0388
 1842WN      WN11946   8.729  16.007   4.262 -0.1381 -0.0395 -0.1905
 1843WN      WN11947   4.214   4.012  11.133  0.0878 -0.3452  0.0417
 1844WN      WN11948  13.135   5.943   0.916 -0.2547 -0.0176  0.0498
 1845WN      WN11949  11.154   6.269  11.568  0.0228  0.0107  0.0485
 1846WN      WN11950   4.788   8.494   8.708 -0.1530  0.1159  0.2234
 1847WN      WN11951  10.881   9.965  12.526  0.1185  0.4089 -0.1012
 1848WN      WN11952  10.032   7.417   2.373  0.2983  0.0083  0.0375
 1849WN      WN11953   4.232   7.541   3.875 -0.0861  0.0160 -0.0571
 1850WN      WN11954   3.629  15.145  12.331 -0.0053  0.0399  0.0047
 1851WN      WN11955  16.077  12.051   0.107  0.2094  0.2479  0.2273
 1852WN      WN11956   0.800   2.707  12.444 -0.2461 -0.3348  0.1016
 1853WN      WN11957   5.980   1.244  10.993 -0.0187  0.1763  0.2377
 1854WN      WN11958   2.245  13.163  11.435  0.1277  0.1208 -0.2831
 1855WN      WN11959   6.285  10.501   0.453 -0.2981 -0.1006  0.0382
 1856WN      WN11960   4.671  11.022   1.879  0.1200  0.0872 -0.4238
 1857WN      WN11961  11.851   8.915   0.566  0.1761  0.3070 -0.1730
 1858WN      WN11962   0.752   8.091  11.833  0.0971 -0.1322  0.4808
 1859WN      WN11963  11.745  15.155   2.297  0.1154  0.1406 -0.4530
 1860WN      WN11964   0.261   9.710   3.846  0.1701 -0.3700  0.1579
 1861WN      WN11965   3.951   3.771   9.293  0.2419 -0.1677 -0.0277
 1862WN      WN11966   3.190  15.422  12.155  0.1700 -0.1188 -0.2083
 1863WN      WN11967   7.611  14.599  10.906  0.0466 -0.5053 -0.0614
 1864WN      WN11968  13.638   2.171  10.516  0.2394 -0.2593  0.3340
 1865WN      WN11969   2.999   0.222   9.433 -0.1475  0.0195  0.1259
 1866WN      WN11970  15.670   1.386   8.600 -0.1671  0.1431  0.1823
 1867WN      WN11971   4.286   0.601   4.695 -0.1045 -0.0173  0.0461
 1868WN      WN11972  15.854   5.641   9.301  0.2137 -0.1176  0.2365
 1869WN      WN11973  15.038  14.635   0.535 -0.2533  0.1117  0.0048
 1870WN      WN11974   3.692   9.835  10.200 -0.1676  0.1499 -0.0800
 1871WN      WN11975   6.170  12.030   0.174  0.0708  0.1334  0.1559
 1872WN      WN11976  13.947   0.364   0.282  0.2791 -0.1635  0.1184
 1873WN      WN11977  12.172   1.878   9.434  0.0580 -0.1596 -0.0601
 1874WN      WN11978   9.787  14.640   1.048  0.4439  0.1795 -0.1416
 1875WN      WN11979   1.966  15.653  11.420 -0.2034  0.0002 -0.2487
 1876WN      WN11980  12.210   9.262   9.967  0.3052 -0.0074 -0.3403
 1877WN      WN11981   2.694  15.598   2.473  0.0877  0.1931 -0.4065
 1878WN      WN11982   4.841   8.391   9.212 -0.0381 -0.0864 -0.3135
 1879WN      WN11983   9.411   8.600   8.819 -0.2185 -0.1042 -0.0183
 1880WN      WN11984   5.120   4.588   8.407  0.2570 -0.1893 -0.0857
 1881WN      WN11985  13.217  14.436   0.157  0.3520 -0.0349 -0.1638
 1882WN      WN11986  12.137  12.609   4.234  0.0004  0.2385  0.1155
 1883WN      WN11987   8.486  14.757   3.111 -0.1791 -0.0469 -0.2986
 1884WN      WN11988   7.637   6.106  10.561 -0.3322 -0.3885 -0.2855
 1885WN      WN11989  15.297  15.512   9.681 -0.1949 -0.0900  0.2361
 1886WN      WN11990   3.835  11.877  10.662 -0.0414  0.2134  0.1164
 1887WN      WN11991   0.554   6.761   2.472 -0.1424 -0.2638  0.1674
 1888WN      WN11992   9.773   7.832   2.558  0.3230 -0.1182  0.1072
 1889WN      WN11993  12.867   3.452   8.351 -0.1553  0.0700  0.0266
 1890WN      WN11994   3.941   6.228   9.775  0.1613 -0.1323  0.0178
 1891WN      WN11995  13.471   6.387   1.228 -0.0980 -0.3568  0.0420
 1892WN      WN11996  13.421  10.288  12.262  0.0125 -0.0259 -0.2075
 1893WN      WN11997  11.220  12.956   2.461  0.1977  0.3242  0.0549
 1894WN      WN11998   1.974   1.649  11.950  0.2337  0.0472 -0.1445
 1895WN      WN11999   0.683  13.716   4.198  0.0213 -0.3531 -0.1667
 1896WN      WN12000  10.612   9.076  10.839  0.0903 -0.2606 -0.0635
 1897WN      WN12001   9.141   3.650  12.403 -0.2984 -0.0171 -0.2346
 1898WN      WN12002  15.467  10.146   8.678 -0.0775  0.0141 -0.0398
 1899WN      WN12003   3.517  16.285   4.301 -0.0230  0.1940  0.1461
 1900WN      WN12004   0.595   9.517   8.504  0.0740  0.4476 -0.0054
 1901WN      WN12005   3.824   5.050   9.111 -0.4464  0.3621 -0.1534
 1902WN      WN12006   5.880   0.198  10.550 -0.2426  0.0896 -0.2225
 1903WN      WN12007   7.377   1.944  11.181 -0.2039  0.0346  0.2739
 1904WN      WN12008  15.819   4.474  11.768  0.0299 -0.0154 -0.1255
 1905WN      WN12009  14.559  10.917  11.452 -0.2360 -0.2730  0.0832
 1906WN      WN12010   4.730   5.716  11.913  0.1078 -0.1306  0.0357
 1907WN      WN12011   7.532   3.439   3.178 -0.0523 -0.1596 -0.1377
 1908WN      WN12012  10.942  13.431   0.150  0.1440  0.2832 -0.2601
 1909WN      WN12013  15.103  14.999  11.202  0.2317 -0.1933 -0.0010
 1910WN      WN12014   8.023   4.850   3.124  0.0772 -0.0650  0.0467
 1911WN      WN12015   9.256  15.535   9.364 -0.1051 -0.4387  0.2592
 1912WN      WN12016  14.583  12.638   0.565  0.1609 -0.4163  0.0815
 1913WN      WN12017   9.637   3.452   3.902  0.0086 -0.0399 -0.0886
 1914WN      WN12018   1.291   4.927   0.346  0.0338 -0.0584  0.1537
 1915WN      WN12019  13.325   0.508  12.276  0.0137  0.1587  0.0989
 1916WN      WN12020   5.709  10.993  12.747  0.1643  0.0099 -0.3726
 1917WN      WN12021   9.828   0.029  12.201 -0.1891  0.0613 -0.2305
 1918WN      WN12022  14.515   5.505  10.911  0.2615  0.3418 -0.1245
 1919WN      WN12023   6.462   4.255  10.074 -0.0633 -0.0268  0.0317
 1920WN      WN12024   0.412   8.243  12.383  0.1224  0.2783 -0.1529
 1921WN      WN12025  10.991  14.299   1.824 -0.0064  0.1569  0.2083
 1922WN      WN12026  15.800  12.705   9.083 -0.3296 -0.2605 -0.1849
 1923WN      WN12027   1.186   5.478  12.131  0.1925  0.0092 -0.1610
 1924WN      WN12028   8.273   2.385   1.060 -0.0992 -0.1311 -0.1137
 1925WN      WN12029   9.944   2.456   9.852  0.3586 -0.4586 -0.0711
 1926WN      WN12030   3.659   3.752   1.302 -0.0257 -0.4037  0.0064
 1927WN      WN12031   2.842  11.872   0.918 -0.2421 -0.1152  0.0547
 1928WN      WN12032   4.482   9.572   0.932  0.1952 -0.0863 -0.1659
 1929WN      WN12033   5.556  14.920   0.394  0.0860  0.3271 -0.2633
 1930WN      WN12034   5.389  15.258   0.016  0.1987 -0.0312 -0.1781
 1931WN      WN12035   1.701  11.561   2.175 -0.0286  0.2016  0.3562
 1932WN      WN12036   9.582   7.406  10.317 -0.1611 -0.1069  0.1084
 1933WN      WN12037   3.613  12.921  10.979 -0.0347 -0.0807  0.2988
 1934WN      WN12038  14.295   1.489   0.781  0.0785 -0.0472 -0.0372
 1935WN      WN12039   5.021   7.605   3.163 -0.0749 -0.3518  0.2924
 1936WN      WN12040  12.591  11.243   2.001  0.0847  0.1785  0.0893
 1937WN      WN12041   0.894  13.995  10.071 -0.2404 -0.0088  0.3294
 1938WN      WN12042  14.959   1.721   3.737 -0.2308  0.0459  0.0647
 1939WN      WN12043  16.334   8.203   1.781 -0.0671 -0.3354  0.1122
 1940WN      WN12044   0.933  12.666   3.236  0.0411  0.2370  0.2396
 1941WN      WN12045  15.748  14.866  11.763 -0.1769  0.3337 -0.0860
 1942WN      WN12046  10.358   0.783  10.309  0.2611  0.0307  0.1307
 1943WN      WN12047   9.901   8.208  12.436  0.0937  0.0978 -0.1350
 1944WN      WN12048   3.601   3.261   3.156 -0.0138 -0.1741 -0.3609
 1945WN      WN12049   9.665   1.545   3.091  0.1064  0.0078 -0.0837
 1946WN      WN12050  10.819   2.577  11.045  0.0270  0.1153  0.0988
 1947WN      WN12051  16.045   7.385   1.628 -0.2043 -0.0909 -0.2987
 1948WN      WN12052  12.373   4.968   1.053 -0.0041 -0.0523  0.1587
 1949WN      WN12053   0.231  15.512   4.060 -0.2757 -0.2053  0.0305
 1950WN      WN12054   6.120   3.244  12.390  0.2247  0.1249 -0.1103
 1951WN      WN12055   3.411   1.290  10.669 -0.3773  0.0589 -0.1771
 1952WN      WN12056   1.849   4.187  10.970  0.3388 -0.1048  0.0257
 1953WN      WN12057   3.164   0.469   1.431 -0.1870  0.1196 -0.2326
 1954WN      WN12058   5.274  13.390  12.604  0.2666  0.0610  0.1029
 1955WN      WN12059   0.069   9.354  11.404 -0.2915  0.0779  0.1520
 1956WN      WN12060   8.916  13.941  12.306  0.2888  0.2102  0.0108
 1957WN      WN12061   9.851   6.675   2.916  0.1338  0.2285  0.4378
 1958WN      WN12062   1.045   0.673   0.273 -0.2635 -0.1829  0.1195
 1959WN      WN12063   8.160   6.347  12.438  0.1979  0.0258  0.1010
 1960WN      WN12064   3.393   7.459  10.216 -0.2989 -0.0402  0.2555
 1961WN      WN12065   5.503   7.643  12.365  0.3462  0.5056  0.0451
 1962WN      WN12066   8.981   7.040   1.085  0.3115 -0.1178  0.0848
 1963WN      WN12067  15.149  15.769  11.920  0.2652 -0.2867 -0.1221
 1964WN      WN12068  10.379   1.402  12.385  0.3357 -0.0779 -0.0853
 1965WN      WN12069   0.170   5.585  10.955 -0.4682  0.0190  0.3563
 1966WN      WN12070  14.083   4.811   0.390 -0.0591 -0.0470  0.1119
 1967WN      WN12071  11.533   9.384   1.688  0.2860  0.2414  0.1078
 1968WN      WN12072   5.600   8.939  10.222  0.2818 -0.3988  0.0787
 1969WN      WN12073  15.317   6.209   9.148 -0.0741 -0.2712  0.1200
 1970WN      WN12074  12.098  10.931   9.484 -0.3692 -0.0146 -0.0786
 1971WN      WN12075  11.951  11.706   0.842 -0.2320  0.2744  0.2654
 1972WN      WN12076   2.934  12.767   3.695 -0.2736  0.1906 -0.0866
 1973WN      WN12077   5.159   6.092  11.806  0.1571 -0.1819 -0.0118
 1974WN      WN12078   4.087  12.125   3.237 -0.2365 -0.0855 -0.2123
 1975WN      WN12079  11.729   4.181   3.357 -0.2274  0.1129 -0.0553
 1976WN      WN12080   6.352  15.348   3.158 -0.1898  0.1390  0.0668
 1977WN      WN12081   1.419  12.813  10.401  0.0380 -0.1709  0.1394
 1978WN      WN12082  16.338  14.608   2.496 -0.1502 -0.2398 -0.2780
 1979WN      WN12083   8.219   1.205   9.988  0.1334  0.1205  0.1442
 1980WN      WN12084   8.910  15.456   3.676 -0.0791  0.2081 -0.1607
 1981WN      WN12085   0.780  13.692   8.690  0.1036 -0.0904 -0.1968
 1982WN      WN12086   6.883  12.708  10.933 -0.0909 -0.0110 -0.0497
 1983WN      WN12087   8.013  11.876  10.786  0.1190 -0.2370  0.0834
 1984WN      WN12088  10.696   0.870   1.020 -0.2499 -0.3223 -0.1833
 1985WN      WN12089  12.295   6.223   3.258  0.2706  0.2121 -0.0758
 1986WN      WN12090   9.323   1.541   1.938 -0.3199  0.0703  0.3510
 1987WN      WN12091  11.853  12.459   1.997 -0.3199 -0.0994  0.2356
 1988WN      WN12092  15.214   2.342  10.064  0.1667  0.2441 -0.0079
 1989WN      WN12093  11.109  12.483   8.819 -0.3001  0.2605  0.1186
 1990WN      WN12094  10.462   3.144   9.073 -0.2484  0.2389 -0.1864
 1991WN      WN12095   1.245   4.633  11.726  0.1277  0.0130  0.1569
 1992WN      WN12096   3.937   8.581   3.447 -0.1711  0.1100  0.0813
 1993WN      WN12097   6.958  12.785   3.089  0.2375 -0.1049  0.0206
 1994WN      WN12098   6.725   6.032   7.722 -0.1889 -0.0417  0.3116
 1995WN      WN12099   8.377  11.535  11.923 -0.3000  0.3542  0.0079
 1996WN      WN12100   6.457  10.868   0.792 -0.3223 -0.1090  0.1408
 1997WN      WN12101  10.860  13.464  10.650  0.2584  0.0541  0.1038
 1998WN      WN12102  13.533   4.710   8.884 -0.0740 -0.1835  0.1217
 1999WN      WN12103   3.557   1.606   9.931 -0.0165  0.1015 -0.1561
 2000WN      WN12104   4.331  14.759   0.199  0.2780  0.1637 -0.1290
 2001WN      WN12105   0.023   1.549  10.668  0.0458  0.3173  0.0646
 2002WN      WN12106   1.964   6.670   0.744  0.0709  0.3369 -0.0413
 2003WN      WN12107  12.449  16.270   2.829 -0.1579  0.2851  0.1685
 2004WN      WN12108  11.503   2.892   3.465  0.0669  0.3213  0.0368
 2005WN      WN12109  14.214   7.765   2.890  0.0591 -0.0369  0.3263
 2006WN      WN12110  15.722   6.311   2.847  0.2230 -0.2111 -0.0233
 2007WN      WN12111   2.059   5.908   9.920  0.1277 -0.1256 -0.0131
 2008WN      WN12112   1.064  12.069   3.300  0.0648  0.1670  0.2046
 2009WN      WN12113   8.050  14.506   1.840  0.2210 -0.1525 -0.5356
 2010WN      WN12114  10.066   2.841   3.123  0.0841 -0.0643 -0.0430
 2011WN      WN12115  13.061  15.200  10.832 -0.0981 -0.0935  0.1713
 2012WN      WN12116  10.974   4.557   3.084  0.1055  0.0261  0.1544
 2013WN      WN12117  14.682   0.185   1.937 -0.0690 -0.0805  0.1535
 2014WN      WN12118   8.351  10.631   9.572  0.2160 -0.2584 -0.1327
 2015WN      WN12119  15.391   4.498  11.488  0.1531  0.0819  0.2290
 2016WN      WN12120   8.829  13.681   9.430 -0.0803 -0.4414 -0.0446
 2017WN      WN12121   1.477   5.401   0.699 -0.0426 -0.2136 -0.0244
 2018WN      WN12122  15.691   6.481   3.338  0.1788 -0.1161 -0.0869
 2019WN      WN12123   0.482   6.635   3.332  0.1538  0.0352  0.3789
 2020WN      WN12124   0.534   2.683   2.227 -0.0248  0.0636 -0.3295
 2021WN      WN12125   6.994   8.409   1.527 -0.2251 -0.0800  0.1845
 2022WN      WN12126   6.589   1.682   4.105 -0.1451  0.2020  0.1801
 2023WN      WN12127   2.027  15.953   3.094  0.0682 -0.0184 -0.1394
 2024WN      WN12128  10.116   8.752   1.852  0.1196  0.2739 -0.0095
 2025WN      WN12129   2.031  15.718   4.407  0.0598  0.2763  0.1548
 2026WN      WN12130   9.928   6.029   1.552 -0.3204  0.2614  0.0061
 2027WN      WN12131   1.416   3.319   3.046  0.2232  0.0019 -0.3272
 2028WN      WN12132  10.776   8.261   3.080 -0.0460  0.1413  0.0316
 2029WN      WN12133   5.631  16.203   0.082 -0.3401  0.2978 -0.2146
 2030WN      WN12134  14.634  11.123  10.996 -0.0340 -0.0560 -0.3748
 2031WN      WN12135  10.843   4.450  12.351 -0.2389  0.1664  0.2897
 2032WN      WN12136   8.748  10.428   2.405  0.0070  0.1881 -0.2000
 2033WN      WN12137   8.062   8.480   0.006 -0.1490 -0.0320  0.0708
 2034WN      WN12138   1.083  10.184  10.850 -0.1611  0.4740  0.0333
 2035WN      WN12139   9.357   5.699   8.199 -0.1730  0.0771 -0.2496
 2036WN      WN12140   9.736   7.778  10.600  0.1504  0.0640 -0.0534
 2037WN      WN12141   9.004   3.946  11.254  0.0431 -0.4685 -0.2189
 2038WN      WN12142  12.637   7.409   0.296 -0.2151 -0.1436 -0.1334
 2039WN      WN12143   6.133   4.079  11.945  0.1133  0.0428  0.2228
 2040WN      WN12144  14.567   4.872   0.728 -0.3343 -0.0567 -0.3051
 2041WN      WN12145   7.284  12.179  11.244 -0.1917  0.0937  0.0626
 2042WN      WN12146   2.244   7.825   0.650 -0.2194 -0.2837 -0.1820
 2043WN      WN12147   4.037  12.781   1.376 -0.0509 -0.0954 -0.2157
 2044WN      WN12148   9.395   1.925  10.124  0.0475  0.0422 -0.1960
 2045WN      WN12149  14.466   4.057   9.621  0.2317  0.3403 -0.1282
 2046WN      WN12150  13.470   8.855  11.962 -0.1554 -0.2121 -0.1009
 2047WN      WN12151   5.937  14.852   9.708  0.3696  0.0862 -0.0355
 2048WN      WN12152   8.650  11.972   4.699  0.0397  0.0926  0.1080
 2049WN      WN12153   8.024   4.060   1.004 -0.0888 -0.2979 -0.3959
 2050WN      WN12154  15.228   8.803   8.375 -0.0234  0.0226  0.3663
 2051WN      WN12155   6.684  14.940  11.769 -0.0827  0.0151  0.1739
 2052WN      WN12156   9.558   3.323   3.380  0.3638 -0.0273  0.2077
 2053WN      WN12157  15.378   6.030   8.654  0.3842  0.2315 -0.4297
 2054WN      WN12158   2.968   1.711   0.714 -0.0565  0.0476  0.1315
 2055WN      WN12159   9.811   0.172   2.737  0.3014 -0.2339  0.1590
 2056WN      WN12160  12.495   6.723   7.851 -0.2670  0.0674  0.1717
 2057WN      WN12161   3.495  15.839   9.590  0.0856  0.2439 -0.2025
 2058WN      WN12162   8.759   8.960   8.631  0.1032 -0.3427  0.1073
 2059WN      WN12163   6.893  11.998   9.787  0.0336 -0.0913 -0.1822
 2060WN      WN12164   3.690   0.892  10.727 -0.4442  0.1086  0.2585
 2061WN      WN12165   4.348   7.964   2.676 -0.1669  0.2111 -0.0010
 2062WN      WN12166   4.405  12.983   9.415  0.0238 -0.0239 -0.2897
 2063WN      WN12167   1.542   7.429   1.291  0.2689 -0.0835 -0.0312
 2064WN      WN12168   8.434  15.906   0.719 -0.4428 -0.3368 -0.0377
 2065WN      WN12169   3.021   8.814   2.389 -0.0159 -0.2437  0.0605
 2066WN      WN12170   2.890   6.264   8.699  0.0550 -0.1421 -0.3468
 2067WN      WN12171  13.912  14.837   1.349 -0.2153 -0.0411  0.0554
 2068WN      WN12172   5.823   9.870   8.205 -0.3568 -0.0625  0.3020
 2069WN      WN12173   7.491   9.220   0.434  0.2103  0.1019 -0.0632
 2070WN      WN12174   8.771   9.956   3.753 -0.2469 -0.1835  0.0297
 2071WN      WN12175  10.927   5.096  11.737  0.0092 -0.0997 -0.1293
 2072WN      WN12176  15.195  11.903   1.573 -0.0770  0.1692 -0.1175
 2073WN      WN12177   8.076   9.576  11.079 -0.0312 -0.1611 -0.2262
 2074WN      WN12178   2.706  12.591  10.689  0.2634 -0.0948 -0.0039
 2075WN      WN12179   5.558   9.796   9.429  0.0894 -0.0472  0.0570
 2076WN      WN12180   9.479   5.045   0.781  0.3742 -0.1742 -0.1238
 2077WN      WN12181   6.178   6.087   3.668  0.1246 -0.0458 -0.2128
 2078WN      WN12182   2.892   5.227   9.190  0.0508 -0.4014  0.0979
 2079WN      WN12183  14.817   7.940   1.456 -0.0165  0.3730 -0.1088
 2080WN      WN12184   6.017  13.641  11.700 -0.3010  0.1566 -0.2872
 2081WN      WN12185   2.870   8.482   0.456 -0.0888 -0.0946 -0.0331
 2082WN      WN12186  15.003   1.362   3.309  0.1669  0.0171  0.2517
 2083WN      WN12187  15.835   2.666   8.551  0.0604 -0.3505 -0.1547
 2084WN      WN12188  12.501  11.651   9.881 -0.0201 -0.2387 -0.3954
 2085WN      WN12189  14.995   8.710   0.992 -0.3532 -0.2030 -0.3006
 2086WN      WN12190   7.587   4.763   2.904 -0.0341 -0.0840 -0.2386
 2087WN      WN12191   0.784  10.194   2.591  0.1086 -0.0604 -0.2022
 2088WN      WN12192   3.983   5.186   1.076 -0.3520 -0.0225  0.1571
 2089WN      WN12193   8.672   4.360   4.363  0.2963 -0.1879 -0.0564
 2090WN      WN12194   6.778   3.243   3.876 -0.1003  0.2939  0.2040
 2091WN      WN12195   2.029   3.719   3.823 -0.0826 -0.0802  0.2122
 2092WN      WN12196  14.673   1.602   9.425  0.0635  0.1341 -0.1150
 2093WN      WN12197  13.075   4.500  11.019 -0.1611 -0.1342  0.1737
 2094WN      WN12198   2.571  12.508   2.386  0.1073 -0.2236  0.0092
 2095WN      WN12199   9.525   7.848   0.025 -0.2079 -0.1052 -0.0359
 2096WN      WN12200  13.784   2.792  11.962 -0.0666 -0.2956  0.0463
 2097WN      WN12201  11.322  15.225  11.806  0.2889 -0.1344 -0.0818
 2098WN      WN12202  10.630  15.811  12.013 -0.2803  0.0721  0.4077
 2099WN      WN12203   0.833   6.283   0.986 -0.0193  0.3848 -0.2692
 2100WN      WN12204   2.393  12.638   1.916 -0.1324  0.1137  0.0129
 2101WN      WN12205  15.177  14.086  10.268  0.0982 -0.1171  0.0541
 2102WN      WN12206  14.175   6.190   2.933  0.0510  0.6153 -0.2160
 2103WN      WN12207   4.453  13.452   8.679  0.0997  0.0091 -0.0048
 2104WN      WN12208   0.693   9.055   0.730 -0.2762 -0.0588  0.1157
 2105WN      WN12209  14.785   7.400  11.212  0.1064 -0.0870  0.1341
 2106WN      WN12210   9.173  15.305   1.763  0.1159  0.0007 -0.1071
 2107WN      WN12211  13.228  15.815   9.709  0.0349 -0.0970 -0.0694
 2108WN      WN12212   4.570   6.411   8.147 -0.0223  0.0141 -0.2069
 2109WN      WN12213  12.908   2.493   8.360  0.1699 -0.0256  0.0542
 2110WN      WN12214   1.244  12.856   2.555  0.1165 -0.2640  0.0440
 2111WN      WN12215  15.390   2.407  12.250  0.1881  0.0621  0.0646
 2112WN      WN12216   3.608  13.281   3.371 -0.0046 -0.2150 -0.0592
 2113WN      WN12217  13.278   5.388   0.179  0.2365  0.2558  0.0831
 2114WN      WN12218   9.781   0.303   0.993  0.3467  0.0988  0.2307
 2115WN      WN12219  15.567  16.199   2.098  0.0467  0.6723 -0.4371
 2116WN      WN12220   1.304  14.939   1.706 -0.0132  0.1149 -0.0567
 2117WN      WN12221  15.907   4.474   3.535  0.1130  0.0722  0.0431
 2118WN      WN12222   5.891  12.840  10.394 -0.1535  0.1871  0.2555
 2119WN      WN12223  11.375   9.086   2.930  0.1253 -0.0109  0.1858
 2120WN      WN12224  13.367   9.928  12.569  0.0154  0.0704 -0.0367
 2121WN      WN12225   1.797   6.074   1.462  0.1705 -0.0873 -0.0430
 2122WN      WN12226  12.643   3.908  10.310  0.0167  0.0965 -0.1893
 2123WN      WN12227  12.882  13.461  11.677  0.1844 -0.1464 -0.2078
 2124WN      WN12228  10.893   1.736   8.680 -0.0261 -0.2078 -0.0026
 2125WN      WN12229  15.162   4.738   1.411 -0.0465 -0.4152  0.0141
 2126WN      WN12230  16.023  10.596   0.095 -0.2509  0.1150  0.2048
 2127WN      WN12231   1.375   2.880  11.134  0.0035  0.3031  0.0552
 2128WN      WN12232  10.117   5.348  11.161 -0.0119 -0.1280  0.5715
 2129WN      WN12233  12.544  14.256   0.651 -0.0536  0.0275  0.3248
 2130WN      WN12234   6.475   7.926   9.652  0.0656  0.0689 -0.1582
 2131WN      WN12235   9.633   1.528   9.583 -0.0504  0.0762 -0.1287
 2132WN      WN12236   6.001   9.538   1.381 -0.0430  0.1540  0.4084
 2133WN      WN12237   4.150  15.564   8.919  0.2407 -0.0491  0.1504
 2134WN      WN12238   9.840  16.044   2.207 -0.2592  0.3150  0.0953
 2135WN      WN12239   3.337   0.708   9.522 -0.0725  0.1393 -0.1330
 2136WN      WN12240   7.272   5.572   9.324  0.1441  0.1891 -0.2418
 2137WN      WN12241   5.010  15.790  12.482 -0.0593 -0.0748  0.0940
 2138WN      WN12242   5.362   8.897   1.845  0.1577 -0.1931 -0.0129
 2139WN      WN12243   4.895  15.136   8.556 -0.2804 -0.1431 -0.1372
 2140WN      WN12244  14.882   8.482   0.183  0.0002  0.0098 -0.0523
 2141WN      WN12245  11.627   3.166   9.714  0.1595 -0.0927 -0.1627
 2142WN      WN12246   9.912   2.464   2.277 -0.0845  0.3092 -0.1350
 2143WN      WN12247  11.480  14.272  10.896  0.1564  0.1320 -0.2786
 2144WN      WN12248  15.796   5.673   2.355 -0.2370  0.3079  0.2036
 2145WN      WN12249  14.616  10.249   2.944  0.0847 -0.0257  0.2171
 2146WN      WN12250  12.423  10.755   1.919 -0.0589 -0.4005 -0.0736
 2147WN      WN12251   8.058  13.525  11.926 -0.0920 -0.0944 -0.2189
 2148WN      WN12252  11.118   4.948  11.215  0.2426  0.0163  0.1905
 2149WN      WN12253  14.742   0.231   8.418 -0.1129 -0.0933 -0.1212
 2150WN      WN12254   5.182   7.207   3.610 -0.0379 -0.1786  0.0252
 2151WN      WN12255   1.143   1.743   1.250 -0.1902 -0.1739 -0.2318
 2152WN      WN12256   0.856   7.984   3.273  0.0770  0.2075 -0.0250
 2153WN      WN12257   8.673   7.196  11.263 -0.3250 -0.2111 -0.2700
 2154WN      WN12258  10.872   7.027   2.384 -0.0489 -0.0481  0.4274
 2155WN      WN12259   9.976   9.480  10.114  0.1528  0.0565  0.0054
 2156WN      WN12260  10.840  12.230  11.795 -0.0388 -0.2217 -0.1277
 2157WN      WN12261   4.234   4.653  10.926 -0.2119 -0.0807  0.3439
 2158WN      WN12262   0.217   6.867   3.765  0.1796  0.1703  0.0401
 2159WN      WN12263   2.634   9.558   2.726  0.0091 -0.0196  0.1106
 2160WN      WN12264  11.908   2.245  10.503  0.0531  0.0535  0.0461
 2161WN      WN12265   3.849   5.849   3.137 -0.0198 -0.3357 -0.0170
 2162WN      WN12266  15.792   9.509   9.188 -0.3018  0.2284 -0.3056
 2163WN      WN12267   5.960  12.181   9.768 -0.2250  0.1522  0.3526
 2164WN      WN12268  15.174  13.187   3.217 -0.1333  0.0097 -0.0830
 2165WN      WN12269   4.046   1.010   9.561  0.2034 -0.0362  0.1449
 2166WN      WN12270   0.406  12.367   2.320 -0.0123 -0.5082  0.2100
 2167WN      WN12271   0.361   8.102   3.277 -0.0721  0.1896  0.0536
 2168WN      WN12272   2.912   8.829  10.113  0.0847  0.2228  0.0358
 2169WN      WN12273   9.287   8.502   1.440 -0.1272 -0.2933 -0.0537
 2170WN      WN12274  14.768  14.513   4.051 -0.2358 -0.2044 -0.0738
 2171WN      WN12275   8.279   0.117  11.708  0.0778  0.2614  0.3533
 2172WN      WN12276  13.791   3.177   9.401 -0.0061  0.1002  0.0623
 2173WN      WN12277   2.308  12.453   3.121 -0.1626  0.0611 -0.0413
 2174WN      WN12278   8.185  12.484   8.576  0.4653  0.0405 -0.1217
 2175WN      WN12279   1.685   1.210  11.864  0.0896  0.3391 -0.0173
 2176WN      WN12280   0.186   0.323  12.547  0.0531 -0.0604  0.0383
 2177WN      WN12281  10.384   6.076   9.502 -0.1884 -0.3672 -0.1117
 2178WN      WN12282   7.908  11.084   1.183  0.2540 -0.0867 -0.2517
 2179WN      WN12283  15.493   7.347   2.473  0.2065  0.5521 -0.1565
 2180WN      WN12284  14.444   6.199  10.549 -0.5033 -0.2124 -0.0627
 2181WN      WN12285  16.099   8.296   0.099  0.2460  0.2749  0.0807
 2182WN      WN12286   6.418   3.225  11.946 -0.1140  0.0104  0.1259
 2183WN      WN12287   0.487   6.306   2.182  0.4661  0.2563 -0.1361
 2184WN      WN12288   5.541  13.647  11.209 -0.0137  0.0054  0.2947
 2185WN      WN12289   5.959  15.231   1.681  0.0130 -0.0986  0.1042
 2186WN      WN12290   3.285  16.141   9.213 -0.3092 -0.0928 -0.2285
 2187WN      WN12291   8.255  12.036   4.338  0.3634  0.1168  0.1024
 2188WN      WN12292   3.737  12.835   3.158  0.3379 -0.1629 -0.0963
 2189WN      WN12293   4.146   3.003   9.257 -0.1381  0.0008 -0.0352
 2190WN      WN12294   1.868   1.782   3.028  0.2114 -0.2427  0.2784
 2191WN      WN12295   1.017  15.464  10.114  0.0229 -0.2578  0.0094
 2192WN      WN12296   6.326  13.985   3.838 -0.0570 -0.0684 -0.3476
 2193WN      WN12297  14.706   2.389   2.290  0.4043  0.1417 -0.4221
 2194WN      WN12298  10.042   9.516   0.516  0.1323 -0.0332  0.3469
 2195WN      WN12299   9.062   1.359   3.377  0.1596 -0.2417  0.1931
 2196WN      WN12300   4.556   4.725  12.046  0.2414 -0.2141  0.0545
 2197WN      WN12301   8.271   2.236   3.485  0.1790 -0.0718 -0.1403
 2198WN      WN12302  16.276   9.450   0.208 -0.2055 -0.0406 -0.4224
 2199WN      WN12303   0.760   2.080   9.620  0.1032  0.0368  0.1157
 2200WN      WN12304  15.119   4.680   0.786 -0.0111  0.2851 -0.2642
 2201WN      WN12305   7.982  12.089   8.876 -0.2226  0.0253  0.1996
 2202WN      WN12306  13.288   5.350  11.899  0.1582  0.2681 -0.0771
 2203WN      WN12307   0.295   1.674  10.259 -0.3501 -0.1660 -0.0213
 2204WN      WN12308   7.961  14.481   8.750 -0.0888  0.0770  0.1655
 2205WN      WN12309   4.816   8.733   0.186  0.2602  0.0036  0.1153
 2206WN      WN12310   1.841  11.810   1.271 -0.0423  0.2361  0.0585
 2207WN      WN12311   6.367   9.555   1.782  0.0002 -0.4048  0.0393
 2208WN      WN12312   7.584  13.154   0.181  0.0356  0.2852  0.0975
 2209WN      WN12313  11.875   6.046   8.469 -0.0461  0.2198 -0.0344
 2210WN      WN12314  13.274   0.837  10.891  0.1139  0.2816 -0.1114
 2211WN      WN12315  15.231   7.697   1.464  0.1646  0.1367  0.2326
 2212WN      WN12316  13.287  11.475  11.658  0.1297  0.2248 -0.2797
 2213WN      WN12317  13.660  12.491   1.233  0.0501 -0.0205 -0.1908
 2214WN      WN12318   3.879  11.886  11.137 -0.1765 -0.4347 -0.0431
 2215WN      WN12319  10.467   2.320   1.501 -0.1237 -0.0668  0.4842
 2216WN      WN12320  12.129   5.006   9.629  0.3314 -0.1093 -0.0136
 2217WN      WN12321  15.033   4.442   1.995  0.1326 -0.1855 -0.0280
 2218WN      WN12322  15.995   9.131   1.716  0.1370  0.1035  0.1972
 2219WN      WN12323   4.782  11.821   8.041  0.1806  0.0337 -0.1064
 2220WN      WN12324   5.651   2.808  10.449 -0.0545  0.1785 -0.2555
 2221WN      WN12325   1.253   6.800  10.383 -0.2219  0.0160  0.1345
 2222WN      WN12326   5.058  13.763   3.645 -0.3209 -0.0794  0.0694
 2223WN      WN12327  13.657  10.594   3.655 -0.3221 -0.1808 -0.1713
 2224WN      WN12328  12.392   3.331   3.468  0.0235  0.0720  0.0545
 2225WN      WN12329   9.537   6.922   2.148 -0.2152  0.0390  0.1390
 2226WN      WN12330   2.480  14.364   0.843 -0.1982  0.1866 -0.1359
 2227WN      WN12331   5.916   3.797  11.421 -0.0183 -0.0785 -0.1300
 2228WN      WN12332  13.419  12.179  10.828  0.3641 -0.1302 -0.0714
 2229WN      WN12333   4.532   8.413   0.561  0.1739 -0.1562 -0.0807
 2230WN      WN12334   2.426   2.040   1.380 -0.3265  0.0001  0.1258
 2231WN      WN12335   4.453   1.622   1.136  0.1287  0.0044 -0.3891
 2232WN      WN12336   2.067  11.742   3.466  0.0276 -0.0042 -0.0414
 2233WN      WN12337  15.980  15.431  12.587 -0.0306  0.0905 -0.3306
 2234WN      WN12338  14.047  15.200   9.379  0.0223 -0.1342 -0.1778
 2235WN      WN12339  13.918   4.320   2.992  0.2240 -0.0915 -0.2738
 2236WN      WN12340   4.223   5.705   4.020 -0.1036  0.1320 -0.0361
 2237WN      WN12341   1.938   1.773   2.461  0.2365 -0.0248  0.3449
 2238WN      WN12342   7.453   5.135  11.059  0.2256 -0.1110 -0.3478
 2239WN      WN12343   0.176  11.975  10.037 -0.0444  0.0441  0.3902
 2240WN      WN12344   2.648   5.737   8.560  0.1084 -0.1832 -0.0312
 2241WN      WN12345   6.852   0.495  11.454  0.1348  0.2717 -0.0108
 2242WN      WN12346   1.157   4.123   0.044  0.1676  0.0043  0.3461
 2243WN      WN12347  16.018  11.542   2.962  0.1978  0.1819 -0.0918
 2244WN      WN12348  14.591   9.080  10.216 -0.2881  0.0885 -0.3512
 2245WN      WN12349   6.969   6.341   9.057  0.0357  0.2183 -0.2514
 2246WN      WN12350  13.213   7.923  10.023  0.1265  0.0633  0.2812
 2247WN      WN12351   0.982   1.739   2.837  0.1254  0.4310 -0.0484
 2248WN      WN12352  14.304   8.163   8.690 -0.3638 -0.1465  0.1668
 2249WN      WN12353   4.842   7.736   9.254 -0.1684 -0.0758 -0.1023
 2250WN      WN12354  10.601   8.350  10.397  0.0697  0.0086 -0.0385
 2251WN      WN12355  14.076   0.046   1.062  0.1248  0.0955 -0.1264
 2252WN      WN12356  11.049   2.338   1.296  0.1313  0.0418 -0.0619
 2253WN      WN12357   5.225   5.343   9.337 -0.0762 -0.0431 -0.0884
 2254WN      WN12358  14.604  14.954  11.147  0.2018 -0.1066  0.1177
 2255WN      WN12359  13.323   4.270   8.595  0.3868  0.0728  0.0715
 2256WN      WN12360   2.768  15.758   1.201  0.1812  0.0361 -0.0821
 2257WN      WN12361   9.038   7.637   3.942 -0.2507  0.0599 -0.0998
 2258WN      WN12362  14.480   6.616   9.738  0.2899 -0.2281  0.2888
 2259WN      WN12363  16.053  13.688   3.779  0.1138 -0.0202  0.0591
 2260WN      WN12364  12.541  12.193   4.343  0.1336  0.0811 -0.2735
 2261WN      WN12365   7.958  11.264   3.378  0.2642 -0.0705  0.3158
 2262WN      WN12366   0.428   0.442   9.903 -0.1949  0.0496 -0.1074
 2263WN      WN12367   4.616   4.746  10.607 -0.0181 -0.0526 -0.0391
 2264WN      WN12368  12.306  14.775   3.046  0.2332 -0.2860 -0.0547
 2265WN      WN12369  14.641  15.683   1.172  0.4134 -0.0971  0.1779
 2266WN      WN12370   0.348  15.240  10.775 -0.0566  0.4599  0.0780
 2267WN      WN12371   7.653   5.200   3.382 -0.5707 -0.1747  0.1906
 2268WN      WN12372   2.905  14.322   2.530 -0.0050  0.2390 -0.0919
 2269WN      WN12373   6.354   2.288   0.891  0.1064 -0.0066 -0.2055
 2270WN      WN12374   2.385   8.764   1.260  0.1217 -0.5538  0.2210
 2271WN      WN12375   6.443  13.875  10.951  0.1255  0.0317 -0.0469
 2272WN      WN12376  14.318   0.436  11.414  0.0370 -0.0060 -0.1370
 2273WN      WN12377   8.953   5.698   7.877  0.2716 -0.0273  0.0352
 2274WN      WN12378  15.435   5.984   2.558 -0.0890  0.1208  0.2712
 2275WN      WN12379   1.281   2.677   0.711 -0.0823  0.7006  0.3075
 2276WN      WN12380  11.696   5.286   1.743 -0.3231 -0.0141 -0.0722
 2277WN      WN12381  14.156   6.479  10.257 -0.0691  0.0107 -0.3262
 2278WN      WN12382   4.824   4.278   1.927 -0.0543  0.3711  0.2486
 2279WN      WN12383  14.422  14.516   9.413 -0.1979 -0.2844 -0.2387
 2280WN      WN12384  10.427   8.671  12.319 -0.1654  0.1695  0.0042
 2281WN      WN12385   6.148  15.550   2.773 -0.5655  0.3344  0.1089
 2282WN      WN12386   8.043  12.962   4.417  0.0802 -0.1102  0.0498
 2283WN      WN12387   2.208  10.627   1.980  0.0343  0.0950 -0.0712
 2284WN      WN12388  14.829   1.641  11.244  0.2770  0.4488  0.0195
 2285WN      WN12389   7.067   4.812   3.618 -0.2571  0.0448 -0.1372
 2286WN      WN12390   8.218   2.355  10.575 -0.1444  0.0331  0.0428
 2287WN      WN12391   7.529  10.785   2.111  0.1287  0.4389 -0.1594
 2288WN      WN12392   3.610  16.169  11.222  0.2704 -0.0819  0.0110
 2289WN      WN12393   1.737  11.859  12.751  0.0917  0.2444 -0.3086
 2290WN      WN12394  15.490   7.079   1.020 -0.0787  0.1873 -0.0069
 2291WN      WN12395   2.166  13.900  12.712  0.1567  0.1555  0.2025
 2292WN      WN12396  14.826  13.068  11.403 -0.1639 -0.1136 -0.0043
 2293WN      WN12397   6.219  10.152   0.836 -0.3191 -0.0165 -0.1357
 2294WN      WN12398   8.340  15.370   4.616 -0.1734  0.4938  0.0001
 2295WN      WN12399   4.043  11.307   4.011  0.0206  0.0503 -0.0358
 2296WN      WN12400   8.828  13.133   9.273  0.2926  0.0652 -0.0279
 2297WN      WN12401  11.491   8.403   8.370  0.0434  0.0764 -0.0512
 2298WN      WN12402  11.491  13.534  12.606  0.0224 -0.1502  0.1425
 2299WN      WN12403   1.513   7.232   3.301 -0.2769  0.4012  0.2052
 2300WN      WN12404   3.408   5.254   1.907  0.3415 -0.3957  0.0719
 2301WN      WN12405  13.951   8.334  11.165  0.0554 -0.0883  0.0083
 2302WN      WN12406   1.420  13.625  11.121  0.4268  0.2754 -0.0628
 2303WN      WN12407  11.172   7.299   2.012 -0.3014 -0.0185  0.1141
 2304WN      WN12408  11.352   3.472   9.297 -0.1710  0.2016  0.0683
 2305WN      WN12409  13.065  16.227   3.080 -0.1548  0.1017  0.0088
 2306WN      WN12410   3.350   2.569   2.434  0.1129  0.2692  0.2684
 2307WN      WN12411   5.000   3.278   3.331 -0.1268  0.0408  0.2491
 2308WN      WN12412   8.926  12.219   9.218  0.1546 -0.3145  0.0368
 2309WN      WN12413  13.479   7.492   2.528  0.1374  0.1605  0.0455
 2310WN      WN12414  14.833   0.266   1.468  0.0473 -0.3395 -0.0829
 2311WN      WN12415  14.375   1.166   9.168  0.0518 -0.0634 -0.4566
 2312WN      WN12416   1.754   4.974   1.300 -0.0249 -0.1508 -0.0657
 2313WN      WN12417   5.929   1.705  12.747  0.2010  0.1071 -0.0744
 2314WN      WN12418  12.633  11.709   4.706 -0.0067 -0.2052 -0.0161
 2315WN      WN12419  11.351   0.895   3.424  0.0767  0.1883 -0.0010
 2316WN      WN12420  15.202   0.465   8.747 -0.1176 -0.1994 -0.4431
 2317WN      WN12421   5.540   5.728   8.625 -0.2109  0.1249 -0.1411
 2318WN      WN12422   4.511   2.778  10.619 -0.2143  0.1907 -0.2410
 2319WN      WN12423  11.869   2.893  12.265  0.0782  0.1510  0.0211
 2320WN      WN12424   6.400   0.286  12.649  0.0416 -0.1501  0.0049
 2321WN      WN12425   4.010  15.959  10.614 -0.2884  0.2131  0.1889
 2322WN      WN12426   1.398   1.997   3.672 -0.3040  0.2121 -0.2196
 2323WN      WN12427   0.336   5.509   3.252  0.0408  0.0208 -0.1062
 2324WN      WN12428  11.762   1.768  10.244 -0.2041 -0.0845  0.0430
 2325WN      WN12429   0.368   3.447   1.555  0.0754  0.0068 -0.0642
 2326WN      WN12430   2.632   0.970  10.049 -0.0583 -0.4089  0.1540
 2327WN      WN12431  10.092   3.808   0.186 -0.0051 -0.1626  0.0783
 2328WN      WN12432  11.412  12.772  10.419 -0.0713 -0.2398  0.3665
 2329WN      WN12433  11.721   8.722   2.836 -0.1269  0.2906 -0.3653
 2330WN      WN12434   3.579  16.247  10.407  0.0217 -0.1746 -0.2209
 2331WN      WN12435  16.117   7.507   1.129 -0.2085  0.0344  0.3194
 2332WN      WN12436  14.793  15.611   1.943  0.3107 -0.0013  0.0738
 2333WN      WN12437   7.690  13.114  11.231  0.1221 -0.0376 -0.1334
 2334WN      WN12438   6.985  11.795   2.982  0.0066  0.0492 -0.1202
 2335WN      WN12439  14.315  13.115  11.625 -0.1290  0.1461  0.0647
 2336WN      WN12440  13.639  13.184  12.417 -0.1504 -0.2262  0.3622
 2337WN      WN12441   3.481  12.300  11.262  0.3484  0.3529  0.2466
 2338WN      WN12442   0.538  13.320   9.633  0.1683 -0.0801  0.0483
 2339WN      WN12443  10.736   7.974   8.276 -0.0399  0.0943 -0.0272
 2340WN      WN12444   8.963   6.856  11.511  0.1495  0.0573 -0.2305
 2341WN      WN12445   3.356   0.365   4.093  0.1901  0.1902  0.0159
 2342WN      WN12446  14.762   2.053  12.657  0.1768 -0.0458 -0.0320
 2343WN      WN12447   7.690   1.701   0.591 -0.0230 -0.0802 -0.2252
 2344WN      WN12448   0.873  15.904   2.264  0.2007  0.2682  0.1046
 2345WN      WN12449   7.886   4.372   9.469 -0.0701 -0.1207  0.0128
 2346WN      WN12450   6.039  13.055   3.995 -0.0564 -0.0336  0.0959
 2347WN      WN12451   8.208   8.005   8.861 -0.0062  0.1098 -0.4733
 2348WN      WN12452   8.357   9.697   1.894 -0.2682  0.2259  0.5593
 2349WN      WN12453   1.699   0.181   3.490  0.0978  0.0047 -0.3557
 2350WN      WN12454   5.979  13.313   8.920  0.3338  0.1228  0.0604
 2351WN      WN12455   8.780  10.965   2.487  0.3264  0.1957 -0.1220
 2352WN      WN12456  13.335   5.478  12.418  0.4231  0.3513  0.1793
 2353WN      WN12457  10.502   7.856  10.713 -0.1883 -0.0756  0.0029
 2354PP      PP12458   4.478   4.952   9.077  0.1151  0.1489  0.2658
 2355PP      PP12459  13.276  12.871   3.930  0.0261 -0.1145 -0.1565
 2356PP      PP12460   9.977   8.591  11.139 -0.3772  0.1153 -0.2155
 2357PP      PP12461   1.369  14.915   4.161  0.0452  0.2031 -0.2951
 2358PP      PP12462  12.120  13.249   9.459 -0.0634  0.2056 -0.1330
 2359PP      PP12463  14.333   9.536  10.095 -0.3335 -0.0792 -0.2083
 2360PP      PP12464   0.703   1.599  10.596  0.0001  0.1280 -0.1099
 2361PP      PP12465   6.123  12.212   0.601 -0.2025 -0.1115  0.2433
 2362PP      PP12466  13.121   6.018   8.966 -0.3633 -0.1639  0.2442
 2363PP      PP12467  11.026  14.674   1.544 -0.0113 -0.1845 -0.1723
 2364PP      PP12468  15.700  13.036   3.200 -0.2702  0.0538  0.1547
 2365PP      PP12469   7.264  12.380   0.084  0.1664  0.2342 -0.0948
 2366PP      PP12470   1.144   6.664   1.324 -0.0064 -0.2714  0.0224
 2367PP      PP12471   8.274  13.047   0.921 -0.1386  0.3330  0.1638
 2368PP      PP12472  10.588  11.770   2.549  0.1977  0.2459  0.0198
 2369PP      PP12473   6.449   1.172  10.910 -0.0253 -0.2841  0.0182
 2370PP      PP12474  12.781   5.287   0.274 -0.4393 -0.0331 -0.3285
 2371PP      PP12475  13.116  14.258  10.500  0.1059  0.0003 -0.2098
 2372PP      PP12476   2.592  14.279  12.648  0.3274  0.0074  0.0357
 2373PP      PP12477   3.192   4.316   9.380  0.2713 -0.0191 -0.0791
 2374PP      PP12478  10.073  16.170   9.586 -0.0421 -0.1974 -0.1484
 2375PP      PP12479  12.673   8.773   3.157 -0.2966  0.0603  0.1396
 2376PP      PP12480  13.677  15.365   1.104 -0.0244  0.1380  0.0010
 2377PP      PP12481   7.743   4.988   0.638  0.2592 -0.1414 -0.1406
 2378PP      PP12482   8.471   1.545   0.907  0.0386 -0.1601  0.1459
 2379PP      PP12483  11.391   7.248   3.646 -0.3117  0.0806 -0.4256
 2380PP      PP12484   5.030   9.754   1.660 -0.1302  0.2429  0.3115
 2381PP      PP12485   0.361   5.974   8.700  0.1181 -0.0837 -0.1410
 2382PP      PP12486   4.499   8.921   1.316 -0.0461 -0.1309 -0.1256
 2383PP      PP12487   8.174   4.592  10.877  0.0125 -0.1142 -0.0935
 2384PP      PP12488   3.315  11.580   2.108  0.1144  0.1070 -0.2576
 2385PP      PP12489   2.199  15.117   0.773  0.0988  0.0136  0.0957
 2386PP      PP12490   8.824   4.049  12.150  0.0902  0.2251 -0.1705
 2387PP      PP12491   5.382   1.627   9.299  0.0404 -0.3245  0.1740
 2388PP      PP12492   1.005   9.119   9.648 -0.1976  0.0758  0.2913
 2389PP      PP12493   2.072   0.899   0.030  0.1357 -0.0805  0.0781
 2390PP      PP12494  10.036   0.340   8.693 -0.2051 -0.1292 -0.1861
 2391PP      PP12495   5.199   7.827  10.078 -0.0022 -0.0318  0.2140
 2392PP      PP12496   9.572  10.214   1.174 -0.2504  0.0254  0.0894
 2393PP      PP12497   0.436   1.740  12.400  0.0600 -0.1865 -0.4489
 2394PP      PP12498   2.030   4.329  12.388  0.2056 -0.1658  0.1290
 2395PP      PP12499   2.576   0.441   3.153  0.0594 -0.1892 -0.2099
 2396PP      PP12500   4.880  15.941   9.937 -0.1076 -0.1520 -0.0110
 2397PP      PP12501   5.462  14.106   0.887 -0.0669  0.1046  0.1242
 2398PP      PP12502  15.942  14.845   3.979  0.1068  0.2088  0.1116
 2399PP      PP12503   2.648   9.702  10.597 -0.0240 -0.2119 -0.0947
 2400PP      PP12504  14.975  15.335   0.954 -0.2984  0.1729 -0.3461
 2401PP      PP12505   2.377  15.119   2.143  0.0418  0.1473  0.3356
 2402PP      PP12506   5.532   9.110   0.573  0.0601 -0.0780  0.1484
 2403PP      PP12507   1.127  12.090   1.250  0.0656 -0.2906  0.0693
 2404PP      PP12508   1.416   2.948   9.141  0.1593  0.1142  0.2309
 2405PP      PP12509   2.892   4.716   9.443 -0.1047  0.2001 -0.0551
 2406PP      PP12510   2.305   4.223  10.804  0.1346  0.1134  0.2232
 2407PP      PP12511  15.674   1.732  10.705 -0.1374 -0.0811 -0.2600
 2408PP      PP12512   2.636   9.520  12.369  0.0072  0.1236  0.2869
 2409PP      PP12513  15.713  15.163   9.352  0.1105  0.1431 -0.3149
 2410PP      PP12514   0.858  13.452  12.433 -0.1647  0.3319 -0.0476
 2411PP      PP12515   2.866   1.757   2.176  0.1557  0.1849  0.0432
 2412PP      PP12516   9.703   5.154   0.220  0.0702 -0.2525 -0.3463
 2413PP      PP12517   4.065  13.055   2.762  0.2012 -0.0198  0.1683
 2414PP      PP12518   0.247  15.175   1.755  0.0331  0.0091  0.0495
 2415PP      PP12519  14.653   4.699   1.615 -0.2135 -0.0520  0.2848
 2416PP      PP12520   7.486   7.171   2.902  0.0201 -0.2681  0.1863
 2417PP      PP12521  10.812   5.069   0.230 -0.1660  0.0590 -0.4939
 2418PP      PP12522   1.381   2.391   2.257 -0.0447  0.0675 -0.0165
 2419PP      PP12523   5.456  14.494   1.514  0.1838 -0.1115  0.0599
 2420PP      PP12524  13.708   2.754  10.665 -0.0350  0.0998 -0.1568
 2421PP      PP12525   9.075   4.300   9.252  0.1870 -0.1286 -0.1001
 2422PP      PP12526   7.831  14.743   9.239 -0.1061  0.0547 -0.0632
 2423PP      PP12527   8.036   8.869   2.622  0.0969  0.1346  0.1241
 2424PP      PP12528   2.525  10.613  12.108  0.1368 -0.0102  0.1074
 2425PP      PP12529   6.064  12.354  10.304 -0.1544 -0.0249 -0.0197
 2426PP      PP12530  14.635   1.566   1.183 -0.0510  0.0677 -0.0797
 2427PP      PP12531  14.118   8.042   7.794 -0.0939  0.0453 -0.0158
 2428PP      PP12532  11.861   1.021  10.647 -0.1122  0.5982 -0.1968
 2429PP      PP12533  15.461  11.678   9.825  0.2577  0.0089  0.0224
 2430PP      PP12534   4.414  10.214   1.955 -0.0976  0.0505 -0.0861
 2431PP      PP12535  14.740   1.734   3.038  0.0599  0.1758 -0.1226
 2432PP      PP12536   2.890  10.159  10.363 -0.0276 -0.1386  0.1657
 2433PP      PP12537   6.753  16.143   9.614 -0.0334  0.0365  0.0616
 2434PP      PP12538  13.258   9.510   2.733 -0.3204 -0.0209 -0.0259
 2435PP      PP12539   8.879  15.406   3.126  0.3182 -0.2786  0.1005
 2436PP      PP12540   3.781   4.389   1.547 -0.2020 -0.4075 -0.1091
 2437PP      PP12541   9.341   2.895   2.186  0.0594 -0.0703 -0.0838
 2438PP      PP12542  12.999   0.442   9.693  0.2514 -0.1263 -0.2639
 2439PP      PP12543   7.258   8.555   2.746 -0.2286  0.2565  0.1995
 2440PP      PP12544   6.887   7.046   9.543  0.0684  0.2019 -0.0353
 2441PP      PP12545   3.576  12.647   7.777  0.1251 -0.2562 -0.1176
 2442PP      PP12546   0.453   6.449  11.420 -0.2815  0.1056 -0.0761
 2443PP      PP12547  14.119  10.996  10.665 -0.1204 -0.0937 -0.4091
 2444PP      PP12548  14.604   8.410   2.898  0.0552  0.0776  0.0653
 2445PP      PP12549  13.618  15.737   1.506  0.4293 -0.1539  0.2365
 2446PP      PP12550   7.572  15.228   9.369  0.0848 -0.1579  0.1324
 2447PP      PP12551   9.201   5.524   1.642 -0.2331 -0.1671  0.0421
 2448PP      PP12552   0.782   9.796   1.889 -0.0171 -0.0171 -0.1694
 2449PP      PP12553   5.523  14.003   8.391 -0.2340  0.0528  0.1084
 2450PP      PP12554   2.544  15.303   2.941 -0.3164 -0.0763  0.0720
 2451PP      PP12555   7.937  14.664   3.886 -0.1436 -0.0582 -0.3062
 2452PP      PP12556   3.841   5.881   2.303 -0.0386  0.3167  0.1697
 2453PP      PP12557   7.306   1.771   9.166 -0.1832 -0.1601 -0.0688
 2454PP      PP12558   6.191   9.288  11.512 -0.1059 -0.2461  0.2065
 2455PP      PP12559   3.445  12.423  11.938  0.2066  0.1661 -0.1250
 2456PP      PP12560  15.798   1.815   1.164  0.1396 -0.0420  0.0585
 2457PP      PP12561   4.317   5.668   0.815 -0.0011 -0.1072  0.1333
 2458PP      PP12562   9.991   5.483  12.657 -0.2127 -0.0277  0.1471
 2459PP      PP12563  14.799   2.904   8.906  0.1481 -0.0186  0.0228
 2460PP      PP12564   6.650   3.803  10.162  0.0487 -0.0887 -0.5094
 2461PP      PP12565   8.060   3.187   2.262  0.1472 -0.3537 -0.0572
 2462PP      PP12566   6.525   7.026   1.987 -0.0557 -0.0505  0.0806
 2463PP      PP12567   7.945   1.497   8.524  0.0066 -0.3501  0.1832
 2464PP      PP12568  12.187   7.769  12.674 -0.0497 -0.0256 -0.1018
 2465PP      PP12569   7.632   5.575  10.824 -0.2335  0.1665  0.2819
 2466PP      PP12570  14.500  14.113   2.827  0.4079  0.0453 -0.0652
 2467PP      PP12571   3.144   4.797  12.518 -0.1499 -0.0405 -0.1636
 2468PP      PP12572   4.591   9.488   8.344  0.0799 -0.2614 -0.1996
 2469PP      PP12573   3.894   1.797   3.688  0.0238 -0.3461 -0.1792
 2470PP      PP12574   1.471   7.130   8.887  0.2591 -0.0335  0.1419
 2471PP      PP12575   4.672   7.566   9.689  0.4045 -0.2411  0.1915
 2472PP      PP12576   0.800  13.974   3.756 -0.1677 -0.2478 -0.1004
 2473PP      PP12577  14.611   2.824   3.606 -0.1662 -0.1481 -0.1290
 2474PP      PP12578   6.207  12.824  10.054  0.2451 -0.2295 -0.0692
 2475PP      PP12579  13.007   2.772   0.984 -0.0629 -0.0677 -0.4610
 2476PP      PP12580  15.522   1.153   9.204  0.1565 -0.2444 -0.1877
 2477PP      PP12581   2.042  14.574  11.436 -0.2215  0.2020 -0.0165
 2478PP      PP12582   1.000   2.176  10.504 -0.0099  0.0359 -0.0971
 2479PP      PP12583   8.555   0.503  11.876 -0.2880  0.0581  0.2412
 2480PP      PP12584  13.768  10.315   9.680  0.1172  0.0039  0.0992
 2481PP      PP12585   4.614   1.909   4.160  0.1289 -0.1704 -0.0082
 2482PP      PP12586   0.095  15.512   9.667  0.3103 -0.2707 -0.3092
 2483PP      PP12587   4.781   3.510   2.254  0.0928 -0.1663 -0.0687
 2484PP      PP12588   1.678   9.509  12.077 -0.3437 -0.1896  0.1145
 2485PP      PP12589  11.002   0.854   8.649 -0.2836  0.2614 -0.2439
 2486PP      PP12590  10.330   6.922   7.857  0.2412 -0.0915  0.0063
 2487PP      PP12591  16.114   7.379   8.233 -0.0284 -0.0900  0.0314
 2488PP      PP12592   9.927   1.219   3.405  0.2503 -0.1351  0.0172
 2489PP      PP12593   3.148  14.890  11.286  0.0261 -0.0694  0.1708
 2490PP      PP12594  13.828   2.568   9.332  0.0626  0.2778 -0.1001
 2491PP      PP12595   0.165   8.231   3.832  0.0707 -0.0323  0.2198
 2492PP      PP12596  12.452  12.858  12.566 -0.0002 -0.0102 -0.0415
 2493PP      PP12597  11.435   8.653   9.829  0.1163 -0.0217  0.1588
 2494PP      PP12598   2.598   1.007  11.551  0.2155 -0.4552  0.0397
 2495PP      PP12599  13.166   3.609   0.501  0.0113 -0.3233 -0.0587
 2496PP      PP12600   3.193   4.541   3.541 -0.0456  0.1188 -0.2265
 2497PP      PP12601   5.280  15.223   1.913 -0.2982  0.0638  0.0073
 2498PP      PP12602  13.521  14.575  11.396 -0.0591  0.0257 -0.0790
 2499PP      PP12603   7.679   2.768   3.777  0.4149 -0.1888  0.0458
 2500PP      PP12604   0.213   7.017   9.401  0.1502  0.1345  0.2491
 2501PP      PP12605   7.277   3.958   7.838 -0.2386  0.3829  0.0104
 2502PP      PP12606   7.200   0.516  10.092  0.2081 -0.1445  0.0158
 2503PP      PP12607   0.990  12.964  12.565  0.0079  0.4290 -0.0420
 2504PP      PP12608  12.672   9.453  10.945  0.0588  0.2811  0.1765
 2505PP      PP12609   7.561  12.334  11.790  0.2627  0.1052  0.1356
 2506PP      PP12610   7.155   4.054  10.563 -0.2391  0.0822 -0.2183
 2507PP      PP12611  15.362   2.826   2.968 -0.1302  0.0669  0.1151
 2508PP      PP12612  14.549   0.687   9.298 -0.2640 -0.1165 -0.0570
 2509PP      PP12613   3.874   3.842  12.200 -0.0701 -0.0033 -0.1594
 2510PP      PP12614   2.763   4.812  12.182  0.3426 -0.1988  0.0288
 2511PP      PP12615   9.456   3.107  11.552  0.0534  0.0652  0.0333
 2512PP      PP12616   2.634   8.366  11.362  0.1538  0.2889 -0.1755
 2513PP      PP12617  11.897  11.461   8.747 -0.1702  0.0157 -0.0242
 2514PP      PP12618   1.930   4.764   9.750 -0.2922 -0.0763  0.1246
 2515PP      PP12619   1.778   4.677   8.388 -0.0897 -0.3245  0.0052
 2516PP      PP12620   8.068   9.627   2.365 -0.0784 -0.0642  0.1374
 2517PP      PP12621   0.795   0.490   9.530 -0.2169  0.4051  0.0730
 2518PP      PP12622   9.109  13.943   9.914  0.0021  0.2804 -0.0261
 2519PP      PP12623   8.286   4.074   8.559  0.2124 -0.1480 -0.2566
 2520PP      PP12624   6.307  15.857   9.802 -0.2304 -0.5609  0.2937
 2521PP      PP12625   5.650  11.091   1.977 -0.0980 -0.0838  0.0081
 2522PP      PP12626  11.786   6.248   1.079  0.0577  0.2790 -0.3018
 2523PP      PP12627   7.134  15.910  11.393  0.3007  0.0312  0.2670
 2524PP      PP12628   6.369  12.642  12.190 -0.0714 -0.0354 -0.1802
 2525PP      PP12629  12.768   6.587  10.013 -0.1278  0.2000  0.1627
 2526PP      PP12630   7.076   0.343   3.364 -0.3385 -0.1431  0.1185
 2527PP      PP12631   5.873   3.619   1.276 -0.2369 -0.0610 -0.1866
 2528PP      PP12632   1.768   6.891   2.994 -0.3688 -0.2445  0.1119
 2529PP      PP12633  11.181  16.295  12.558  0.0187 -0.1773 -0.1707
 2530PP      PP12634   1.633   8.654  11.584  0.1989 -0.0217 -0.1052
 2531PP      PP12635   6.236   6.019   8.747  0.2326 -0.2587  0.0443
 2532PP      PP12636  12.471   5.813   0.652  0.0457  0.1026 -0.0789
 2533PP      PP12637   4.942  15.592  11.610  0.0113  0.3132 -0.1717
 2534PP      PP12638   5.792  14.352   1.203 -0.3497 -0.2904  0.2093
 2535PP      PP12639   3.962   6.704  11.370 -0.2075  0.2473  0.3673
 2536PP      PP12640   7.789   0.539   9.996  0.0906  0.0481  0.1476
 2537PP      PP12641  11.121  16.014  12.049 -0.1746  0.0393 -0.0926
 2538PP      PP12642   3.952   9.591   8.839 -0.0551 -0.0098 -0.0182
 2539PP      PP12643  15.489   8.060   2.404  0.2578  0.0265  0.1198
 2540PP      PP12644   7.670   8.676   0.426  0.1347  0.1329  0.0182
 2541PP      PP12645   0.654   5.466   0.327  0.2894 -0.1151 -0.1088
 2542PP      PP12646   8.994   2.312  11.802 -0.1578  0.0703 -0.1136
 2543PP      PP12647   0.235   7.777   9.883 -0.0509  0.0564 -0.1986
 2544PP      PP12648  11.821  16.356  10.878 -0.2285 -0.1378  0.1778
 2545PP      PP12649   5.906   9.446   0.542  0.3073 -0.1750  0.1186
 2546PP      PP12650   7.771  13.542   3.171  0.2068 -0.4207  0.0622
 2547PP      PP12651  10.870   2.835   3.537 -0.1823  0.4115 -0.2491
 2548PP      PP12652  14.646   7.667   3.200 -0.0796  0.1402 -0.0124
 2549PP      PP12653   8.235  11.174   2.393 -0.1152 -0.0047 -0.0553
 2550PP      PP12654  11.532   4.265   8.562 -0.2454 -0.5036 -0.0098
 2551PP      PP12655   0.966   9.185   2.285 -0.0502 -0.2694  0.4438
 2552PP      PP12656   2.813   2.987  10.275  0.1073  0.0183  0.1261
 2553PP      PP12657  14.238   1.758  10.578  0.1954 -0.2260  0.0873
 2554PP      PP12658  10.393  16.265   2.165  0.0671  0.2684  0.1325
 2555PP      PP12659  16.314   5.974   7.834  0.1920 -0.0557  0.2067
 2556PP      PP12660  10.796  14.786  11.463  0.0907  0.4016  0.0450
 2557PP      PP12661  16.027   2.162   3.784 -0.1227 -0.2175  0.2473
 2558PP      PP12662  10.637  11.446   9.117  0.1079  0.0765  0.1968
 2559PP      PP12663   2.705  13.040  10.003  0.0021 -0.1050 -0.1530
 2560PP      PP12664   5.691  15.191   9.100  0.1536  0.3158  0.0479
 2561PP      PP12665   6.077   8.458   0.409 -0.5231  0.2023 -0.3733
 2562PP      PP12666   6.830   3.879   4.223  0.0474  0.2826 -0.0259
 2563PP      PP12667   6.047   3.607  11.951 -0.1099  0.1816  0.1849
 2564PP      PP12668   5.419   6.739   2.278  0.0131  0.0969 -0.0778
 2565PP      PP12669  15.521  15.233  11.328 -0.0146  0.0111  0.1260
 2566PP      PP12670  14.496   6.171  10.037  0.2112 -0.1754 -0.1143
 2567PP      PP12671   5.317   1.790   1.389 -0.2047 -0.0134  0.1711
 2568PP      PP12672   5.033   3.492   1.435  0.1490  0.2454  0.0965
 2569PP      PP12673  14.847  14.758   9.714 -0.1158 -0.0115  0.0638
 2570PP      PP12674   1.651   8.026   8.554 -0.0571  0.1247  0.4459
 2571PP      PP12675  14.426   4.441  12.484 -0.1905 -0.1560 -0.1439
 2572PP      PP12676   8.898  14.874  11.775 -0.0555 -0.1641  0.2815
 2573PP      PP12677   5.894   8.210   1.479 -0.1136 -0.1540 -0.0904
 2574PP      PP12678   8.676  12.666  11.508 -0.2454 -0.0999 -0.0606
 2575PP      PP12679  13.126   5.701   8.579  0.0613  0.0576 -0.2398
 2576PP      PP12680   9.272   1.200   1.565  0.2330  0.0275 -0.0486
 2577PP      PP12681  11.459   9.453  10.317  0.0231  0.2185  0.0011
 2578PP      PP12682   3.449   1.659   2.202 -0.1912  0.0365 -0.2500
 2579PP      PP12683   5.815  10.427  11.189  0.3041 -0.0560  0.0376
 2580PP      PP12684   8.841   0.779   9.232  0.1834 -0.1009  0.1936
 2581PP      PP12685  14.216  12.465   0.285 -0.1943 -0.0163  0.1016
 2582PP      PP12686   9.289   0.419   1.371  0.0435 -0.2357  0.1082
 2583PP      PP12687   1.039   9.289   1.230 -0.1740  0.2483  0.0614
 2584PP      PP12688  15.340   2.593   8.581  0.1908 -0.0049  0.2199
 2585PP      PP12689   7.053   1.252   2.248 -0.0529 -0.1653 -0.3312
 2586PP      PP12690   6.733   5.024   2.521 -0.3408  0.1532  0.2698
 2587PP      PP12691   2.087   5.091   8.068  0.0558  0.3959 -0.1203
 2588PP      PP12692   6.380   1.345   0.567 -0.1625 -0.1484 -0.1388
 2589PP      PP12693   4.245   7.113   1.822  0.0714 -0.1649 -0.0251
 2590PP      PP12694  15.412  14.500   0.834 -0.3128  0.0407 -0.1979
 2591PP      PP12695   2.126  14.279   4.253  0.1216 -0.0349  0.0791
 2592PP      PP12696  14.672   6.738  12.267 -0.1220 -0.1803 -0.3409
 2593PP      PP12697  12.941   1.072  10.613  0.0904  0.0573  0.2617
 2594PP      PP12698   6.394  16.003   3.247  0.1095  0.1043  0.0417
 2595PP      PP12699   9.126   0.850  10.113 -0.0071  0.2868  0.1827
 2596PP      PP12700   3.389   7.950   3.077 -0.1014  0.2817 -0.0425
 2597PP      PP12701   1.176   8.067   3.799  0.3530  0.0732 -0.0757
 2598PP      PP12702  11.509  12.989  12.507 -0.2733 -0.0746  0.0567
 2599PP      PP12703  14.829  11.511   3.941  0.2759 -0.0841 -0.0920
 2600PP      PP12704   0.163  11.473  11.546  0.0009 -0.0813  0.0495
 2601PP      PP12705   3.622   8.685   9.398  0.1664 -0.0273 -0.0174
 2602PP      PP12706   7.637   7.239   9.081 -0.1187  0.0362  0.0961
 2603PP      PP12707  12.925   1.062   0.281  0.0625 -0.3906  0.0150
 2604PP      PP12708  14.407   2.470   9.113 -0.1999 -0.0374  0.1199
 2605PP      PP12709   7.975   9.100  12.258 -0.2479 -0.0263  0.0322
 2606PP      PP12710   8.488   3.776  10.713  0.1120  0.1280  0.2199
 2607PP      PP12711  10.071   6.467   9.739 -0.0196  0.0478  0.0227
 2608PP      PP12712   0.372   8.646   0.679  0.0816  0.0632 -0.2221
 2609PP      PP12713  12.639  12.733   3.336 -0.2849  0.0840 -0.1757
 2610PP      PP12714   5.102   2.101  11.783 -0.0255  0.0821 -0.1595
 2611PP      PP12715  12.948  15.923   0.590  0.1969 -0.1733 -0.1462
 2612PP      PP12716   4.512   9.144  12.162 -0.2274  0.1669 -0.0247
 2613PP      PP12717  11.034   9.362  10.596 -0.2996  0.1658 -0.1385
 2614PP      PP12718   9.901   2.000  11.574  0.0018 -0.2017 -0.0336
 2615PP      PP12719   7.078   0.177   3.971  0.1169 -0.1469  0.0316
 2616PP      PP12720   3.326   3.739  12.311 -0.0005  0.0135 -0.1042
 2617PP      PP12721   8.198   0.099   5.062 -0.1480  0.0137  0.0023
 2618PP      PP12722   6.197  11.491  11.082 -0.2371  0.2963  0.2450
 2619PP      PP12723   4.302  10.949   8.696 -0.2720  0.1557  0.2575
 2620PP      PP12724  12.156   1.290   0.974 -0.2360 -0.0191  0.1882
 2621PP      PP12725   0.777  11.597   1.116 -0.1775  0.0065 -0.2034
 2622PP      PP12726  12.288  14.246   2.193  0.0032 -0.1187  0.0290
 2623PP      PP12727   4.256  15.966   4.613  0.1802  0.2868  0.0369
 2624PP      PP12728   2.390   8.899  11.126  0.0511 -0.2300  0.4333
 2625PP      PP12729   4.946   7.055   3.178 -0.1038  0.2331 -0.1036
 2626PP      PP12730   7.595   1.654   1.127 -0.1875  0.1161  0.0095
 2627PP      PP12731   7.282   4.915   9.219 -0.1869 -0.5397 -0.0189
 2628PP      PP12732   3.160   7.302  11.252  0.0143 -0.2998  0.0609
 2629PP      PP12733   0.339   3.615  11.661  0.2059  0.0308 -0.1310
 2630PP      PP12734   5.883   4.685  10.829 -0.0903 -0.3049 -0.2278
 2631PP      PP12735  16.111   9.059  12.644  0.2395  0.0681 -0.1774
 2632PP      PP12736   5.273  14.714  12.743 -0.1972  0.1812 -0.0574
 2633PP      PP12737  14.692  13.934  10.090 -0.3712 -0.1753 -0.1541
 2634PP      PP12738  12.069   9.929   0.987 -0.0065 -0.0362  0.0370
 2635PP      PP12739  14.855   3.175   0.702 -0.2261 -0.4704  0.1135
 2636PP      PP12740   6.419   8.088   1.630 -0.1034 -0.0506  0.0899
 2637PP      PP12741  11.411   7.842   8.868 -0.0337  0.2043  0.2211
 2638PP      PP12742   7.377   1.647   2.662 -0.1386 -0.0986 -0.2856
 2639PP      PP12743  15.602   0.749   1.282 -0.1365  0.1166  0.0019
 2640PP      PP12744   3.032   7.900  11.634  0.1957 -0.1597  0.0319
 2641PP      PP12745   7.729   1.680  10.716 -0.2437 -0.0974 -0.0141
 2642PP      PP12746  12.261  12.578   1.206  0.0076 -0.2926  0.3333
 2643PP      PP12747  14.128  15.545  12.153 -0.0592 -0.0975  0.0508
 2644PP      PP12748  12.774  12.019   2.424 -0.1947  0.0814  0.1353
 2645PP      PP12749  10.775   4.222   0.910 -0.1440 -0.1385 -0.0361
 2646PP      PP12750   6.119  11.424   8.838 -0.0732 -0.1688  0.3524
 2647PP      PP12751  10.837  10.703   2.419 -0.0779  0.1367  0.4749
 2648PP      PP12752   2.661   1.168   0.159 -0.0856 -0.0945  0.3022
 2649PP      PP12753  15.175  10.763   8.696 -0.1742 -0.3311 -0.3233
 2650PP      PP12754  16.024  15.391   2.397 -0.0487 -0.1598 -0.0784
 2651PP      PP12755   3.847   4.430  11.153 -0.1357  0.2348 -0.0137
 2652PP      PP12756  10.392  12.974  12.350  0.1690 -0.1634 -0.0709
 2653PP      PP12757   1.784  14.771  11.958  0.3020 -0.2114 -0.0442
 2654PP      PP12758   4.306  16.127   0.543 -0.1535  0.2392  0.3405
 2655PP      PP12759   9.962  13.329   1.992  0.0414 -0.0183  0.1517
 2656PP      PP12760  13.027   5.074  12.590 -0.0951  0.2792 -0.0726
 2657PP      PP12761  13.042   8.337   0.926  0.3259 -0.0598 -0.3754
 2658PP      PP12762   8.330  10.863   8.648  0.0838  0.1393 -0.1945
 2659PP      PP12763   1.758   4.244   1.774  0.1215  0.1421 -0.2525
 2660PP      PP12764   5.459   0.260  12.573  0.1604 -0.1543  0.1285
 2661PP      PP12765   5.566  13.809   1.912 -0.0371  0.2180  0.2016
 2662PP      PP12766  10.309  11.211   8.667  0.1565 -0.0689 -0.1266
 2663PP      PP12767   1.676   5.646  10.129 -0.0023 -0.1327 -0.0027
 2664PP      PP12768  12.624  10.362  10.648  0.3298 -0.0522  0.3178
 2665PP      PP12769   0.655  14.175   0.811 -0.1228 -0.0230  0.1416
 2666PP      PP12770   4.528  14.915   8.232  0.0212 -0.2070 -0.2084
 2667PP      PP12771   5.453  14.222  11.123 -0.0742 -0.3159  0.1140
 2668PP      PP12772   6.210   8.853  12.218  0.2470 -0.0462 -0.1473
 2669PP      PP12773   2.093  12.531   9.815  0.1652  0.1082  0.0333
 2670PP      PP12774  10.967   7.895  10.602  0.1727 -0.1931  0.0628
 2671PP      PP12775   2.266   7.619  11.984  0.0162  0.0899 -0.2137
 2672PP      PP12776   3.489  14.279   1.689  0.1635 -0.1766 -0.1080
 2673PP      PP12777   3.115   7.564   3.733  0.0707 -0.1565 -0.1309
 2674PP      PP12778   9.337  13.582   3.443 -0.3542 -0.0802 -0.0184
 2675PP      PP12779   7.872   8.209   0.515  0.1392  0.0644  0.0318
 2676PP      PP12780   0.312   2.781  10.539  0.1088 -0.0025 -0.1431
 2677PP      PP12781   4.215  11.520  10.965  0.0581 -0.3901  0.1247
 2678PP      PP12782   2.978  12.931  10.831 -0.0217  0.1971  0.0363
 2679PP      PP12783   4.000   2.402   3.287  0.3184 -0.2179 -0.0916
 2680PP      PP12784   1.952   5.561  10.927 -0.2757  0.1127 -0.2750
 2681PP      PP12785   8.268   1.215   8.897  0.3223 -0.3755  0.1949
 2682PP      PP12786   5.856  10.123  11.589 -0.0414 -0.1122 -0.3641
 2683PP      PP12787   5.587   3.415  11.233  0.1335 -0.3063 -0.0311
 2684PP      PP12788   2.717   5.773  10.582  0.1801  0.2161 -0.1680
 2685PP      PP12789   7.699   0.177   5.222  0.1635  0.2902 -0.0502
 2686PP      PP12790   7.811   9.928   2.640 -0.1600 -0.1674  0.0607
 2687PP      PP12791   4.294   0.176   2.358 -0.0297  0.3360  0.1347
 2688PP      PP12792  14.518  14.490  10.989 -0.0954 -0.1136 -0.1819
 2689PP      PP12793  15.134   0.126   9.841  0.3912 -0.0298 -0.0997
 2690PP      PP12794  11.472   3.086  10.365  0.2397 -0.1303 -0.2581
 2691PP      PP12795   8.550   7.311   1.044 -0.0136 -0.1425  0.0377
 2692PP      PP12796  11.452   8.768   8.045 -0.0725 -0.1064  0.0910
 2693PP      PP12797  11.384  12.369  10.115  0.0062  0.0004 -0.1811
 2694PP      PP12798   8.275   9.668   0.268 -0.0160  0.2200 -0.1997
 2695PP      PP12799   1.642   8.371   9.531 -0.0246 -0.0365  0.1282
 2696PP      PP12800   2.411   0.730   2.710 -0.0280  0.0875  0.0025
 2697PP      PP12801   5.641   3.124  12.661 -0.1662 -0.1214 -0.2488
 2698PP      PP12802   4.828   1.521   3.469  0.2435 -0.3813 -0.2231
 2699PP      PP12803  14.163  14.897   7.997  0.2368  0.4790  0.0336
 2700PP      PP12804  15.622  12.303  12.745 -0.1341 -0.0662 -0.3593
 2701PP      PP12805   5.767   4.190   3.259  0.2468 -0.0982  0.0323
 2702PP      PP12806   4.743   2.918   2.732  0.1146 -0.2088 -0.1601
 2703PP      PP12807   5.677  14.670  11.047 -0.2602 -0.2538 -0.1787
 2704PP      PP12808   6.086   1.066   4.310 -0.0556  0.2852  0.0297
 2705PP      PP12809   1.968   1.812   9.397  0.1795  0.3268 -0.1137
 2706PP      PP12810   4.681  14.092   3.775 -0.2466  0.0861 -0.1174
 2707PP      PP12811  11.475   3.417   2.139 -0.0865 -0.2818  0.1015
 2708PP      PP12812  13.188   8.337   1.749 -0.1567  0.2862 -0.0505
 2709PP      PP12813   4.837   9.512  11.268 -0.0899  0.0174 -0.1315
 2710PP      PP12814   2.590  12.786  11.290  0.1344  0.1251  0.0010
 2711PP      PP12815  10.854   2.443  12.483  0.0060  0.0166  0.1965
 2712PP      PP12816   0.289  10.665   2.898  0.1343 -0.2128  0.1075
 2713PP      PP12817   5.466   9.788  10.616  0.0568  0.1675 -0.1294
 2714PP      PP12818  11.115   7.670   9.234  0.1574 -0.0119  0.0986
 2715PP      PP12819   3.082   3.841   2.581 -0.0363  0.0131  0.0975
 2716PP      PP12820   0.468  14.832   2.398 -0.3433  0.0405 -0.0628
 2717PP      PP12821  12.820   6.215   9.651  0.3604 -0.0787  0.0349
 2718PP      PP12822   2.886   8.884   8.165 -0.0222  0.0190 -0.0487
 2719PP      PP12823   1.209   3.221  12.277 -0.2891  0.0600 -0.2748
 2720PP      PP12824  13.726  10.102   8.592 -0.0463  0.0397  0.1846
 2721PP      PP12825   6.895   5.108   4.291 -0.2407 -0.0692 -0.2039
 2722PP      PP12826   1.899   7.593   0.413 -0.1250  0.2902  0.1123
 2723PP      PP12827   3.699   4.734   1.930 -0.0181 -0.1763 -0.0482
 2724PP      PP12828   1.800   5.328   9.155 -0.1018 -0.1260 -0.1630
 2725PP      PP12829  10.307   1.064   8.816 -0.0323  0.2514  0.1427
 2726PP      PP12830   2.427   1.888   2.462  0.0683  0.3919  0.4241
 2727PP      PP12831   6.521   1.533   2.832 -0.0050  0.0587  0.1328
 2728PP      PP12832   7.355   7.761   2.239  0.1152  0.0464  0.0831
 2729PP      PP12833   0.629   2.262   3.432 -0.0334 -0.3993 -0.5366
 2730PP      PP12834  13.804  15.015   3.062 -0.1369  0.0688 -0.2378
 2731PP      PP12835   2.029   6.499   2.373  0.0865 -0.1483 -0.0330
 2732PP      PP12836  12.602   9.660   9.179 -0.5218  0.0340  0.0631
 2733PP      PP12837   9.952   2.902  12.652 -0.0312  0.0242  0.0290
 2734PP      PP12838   3.617  10.552   7.811  0.1005 -0.3821  0.0825
 2735PP      PP12839  11.944  14.938   9.832 -0.2020  0.0636  0.0223
 2736PP      PP12840   0.484  16.051   3.391 -0.4294  0.0785 -0.2661
 2737PP      PP12841  10.777  14.292   4.954  0.1260  0.3102  0.1049
 2738PP      PP12842   9.623  12.550  10.331 -0.1108 -0.2029 -0.0035
 2739PP      PP12843   3.287   5.973   0.308  0.2390 -0.0282  0.0321
 2740PP      PP12844  11.762  10.580  12.438  0.1842 -0.1069 -0.0600
 2741PP      PP12845  10.141   7.346  12.524  0.1284 -0.0655  0.0367
 2742PP      PP12846  14.587   5.998   3.164  0.1432 -0.0387  0.2700
 2743PP      PP12847   3.581   9.263  11.366  0.1234 -0.1007 -0.3054
 2744PP      PP12848  10.243  16.227  11.838 -0.2682  0.3642  0.1909
 2745PP      PP12849  15.154  10.928  12.629 -0.0585  0.0320  0.1372
 2746PP      PP12850   1.207  11.462   4.937  0.0994 -0.0836 -0.0053
 2747PP      PP12851   2.744  14.589   0.504 -0.0038  0.0133 -0.0891
 2748PP      PP12852   5.930   5.610   8.891  0.2466 -0.1905  0.2079
 2749PP      PP12853   2.139  10.584   8.660 -0.0164 -0.1650  0.4311
 2750PP      PP12854   0.758  16.105   8.651  0.1645  0.1846  0.0478
 2751PP      PP12855  14.327  14.064   0.570  0.1038 -0.3341  0.0897
 2752PP      PP12856  10.083   6.726   8.652 -0.0702  0.2367  0.0922
 2753PP      PP12857  16.264   8.931  10.422 -0.1795 -0.2200 -0.2088
 2754PP      PP12858  14.346   9.623   8.920 -0.0848 -0.1299 -0.0342
 2755PP      PP12859   9.477  15.806   0.588 -0.0235  0.0868 -0.1176
 2756PP      PP12860  15.111   5.161   9.263 -0.1292  0.0245  0.2710
 2757PP      PP12861   5.447  12.661  11.018 -0.1441  0.2590  0.0310
 2758PP      PP12862   9.341  12.238   0.499 -0.0832  0.0781  0.0551
 2759PP      PP12863  11.162   7.187  11.362 -0.3130 -0.0815  0.0924
 2760PP      PP12864   6.555   4.170   1.601  0.2198 -0.1861 -0.0928
 2761PP      PP12865   7.576  12.238   9.228 -0.0295  0.0608 -0.0401
 2762PP      PP12866  10.350   5.989   8.738  0.0255  0.1310 -0.0250
 2763PP      PP12867   6.866  14.676   1.983 -0.2406 -0.2919  0.1681
 2764PP      PP12868  13.134  15.452   1.653 -0.0338 -0.0214  0.1407
 2765PP      PP12869  13.659   8.225   2.033  0.1249  0.1562 -0.0182
 2766PP      PP12870   0.839  13.429  10.120  0.2015 -0.1658  0.0599
 2767PP      PP12871   0.658  13.230   0.572  0.0975  0.2171  0.1674
 2768PP      PP12872  10.977  10.546   2.904 -0.4324 -0.0839 -0.0193
 2769PP      PP12873   5.853  11.637   9.765  0.0922 -0.0192  0.0474
 2770PP      PP12874   5.222  10.536  10.592 -0.2778  0.2370 -0.0131
 2771PP      PP12875   5.194   3.704   2.623  0.1172 -0.0790 -0.2182
 2772PP      PP12876   5.408   1.893   2.865  0.1757 -0.1475  0.3258
 2773PP      PP12877   4.982  15.123  11.480  0.3303  0.0925 -0.2936
 2774PP      PP12878  10.583  15.899   2.627 -0.0303  0.0478  0.0263
 2775PP      PP12879   0.156   5.182  11.280 -0.2716  0.0052  0.0506
 2776PP      PP12880  11.469  12.999   1.050  0.2323 -0.2584  0.0044
 2777PP      PP12881   8.844  14.220   1.399  0.1664 -0.1454 -0.2270
 2778PP      PP12882   8.302   1.315  12.330  0.0186  0.0004 -0.0575
 2779PP      PP12883   3.283  14.726   1.391  0.0300  0.5354  0.1037
 2780PP      PP12884   9.221  15.502  10.229 -0.0484  0.2266 -0.0511
 2781PP      PP12885  12.728  11.888  11.421 -0.2777  0.2162  0.1518
 2782PP      PP12886   8.548  14.119   0.829  0.1066  0.1209  0.1035
 2783PP      PP12887  14.210   3.831   8.299  0.2304 -0.0525 -0.1714
 2784PP      PP12888  10.784   1.743   2.397  0.0164 -0.1523 -0.0103
 2785PP      PP12889  11.848   5.976   9.440  0.1090  0.2588  0.1554
 2786PP      PP12890  15.950   9.646  11.297  0.1732 -0.2092  0.1131
 2787PP      PP12891   0.569   3.187   2.382  0.0604  0.0673 -0.0361
 2788PP      PP12892   2.908   8.021   2.800 -0.0907 -0.1742 -0.1315
 2789PP      PP12893  15.160   3.216   1.744 -0.0289  0.0304  0.0779
 2790PP      PP12894  14.417   9.526   2.198  0.1001 -0.3797  0.3464
 2791PP      PP12895   8.782   3.851   9.044  0.0085 -0.0471  0.2404
 2792PP      PP12896  12.747   3.943   9.595  0.2025  0.0504 -0.0071
 2793PP      PP12897  11.662   7.783   3.624  0.1158 -0.0836 -0.0708
 2794PP      PP12898   3.616  12.258  10.392  0.1422  0.0004  0.1129
 2795PP      PP12899  12.754   2.301   2.475 -0.0104  0.3164 -0.2440
 2796PP      PP12900  11.725  14.500   2.514  0.0284 -0.1562  0.1524
 2797PP      PP12901  13.917   2.647   2.291  0.0380 -0.0977  0.1262
 2798PP      PP12902   3.936   9.702  12.671 -0.2619  0.3435 -0.1716
 2799PP      PP12903   6.715   8.505   2.596  0.0404 -0.2012  0.0282
 2800PP      PP12904   6.966   0.920   4.698  0.2233 -0.0649  0.0666
 2801PP      PP12905   7.858   4.459  12.195  0.1342  0.1474 -0.1173
 2802PP      PP12906   1.805  14.662   4.003  0.1500  0.0509  0.2182
 2803PP      PP12907   5.991   4.920   1.874 -0.2544 -0.4130 -0.2427
 2804PP      PP12908  10.086   1.436   9.776 -0.0652 -0.2021  0.0373
 2805PP      PP12909   6.434  13.268   9.955  0.1903 -0.1168 -0.1597
 2806PP      PP12910  11.854  10.259  11.593 -0.0322 -0.0448  0.0325
 2807PP      PP12911  14.757   6.281   0.580 -0.0060  0.3302  0.2240
 2808PP      PP12912  15.857   6.269   3.830  0.1530 -0.0408  0.3154
 2809PP      PP12913   7.184  16.191  11.828 -0.2406 -0.0156 -0.0034
 2810PP      PP12914   9.117   3.573  10.345 -0.1514 -0.1448 -0.1153
 2811PP      PP12915  15.718  10.742   9.461 -0.1592  0.0245 -0.1180
 2812PP      PP12916   2.193  15.722   2.581 -0.0450  0.1044 -0.1878
 2813PP      PP12917   6.646  14.943  10.935 -0.2178 -0.0535  0.3700
 2814PP      PP12918  14.630   0.378   2.767  0.0724  0.1906 -0.1887
 2815PP      PP12919  10.520   2.152  10.920 -0.3164 -0.4378  0.0258
 2816PP      PP12920   9.375  13.353  11.586 -0.1354  0.0531 -0.1844
 2817PP      PP12921   2.576  10.091   9.476 -0.0683 -0.0897  0.0103
 2818PP      PP12922   2.591   1.777  11.115  0.1596 -0.0402 -0.1543
 2819PP      PP12923  15.991   0.691  10.458 -0.0590 -0.0154  0.1102
 2820PP      PP12924   0.991   7.648   7.980  0.0398  0.1988 -0.1826
 2821PP      PP12925  13.685   1.193   0.142 -0.1417 -0.2628  0.0908
 2822PP      PP12926   8.081   0.838   2.547 -0.1562  0.3395 -0.2966
 2823PP      PP12927   2.866   3.216   9.381  0.0100  0.0541  0.0029
 2824PP      PP12928   6.489   9.377   2.907 -0.0027  0.0197  0.0092
 2825PP      PP12929   1.761   6.212   9.738 -0.0854  0.2247  0.2225
 2826PP      PP12930   6.177   9.767  11.343 -0.2619  0.1184 -0.0088
 2827PP      PP12931   3.118   8.010  10.747 -0.0765  0.0873  0.0504
 2828PP      PP12932   5.655  10.261   0.987 -0.1067  0.1244  0.1610
 2829PP      PP12933  12.707   6.008   2.968  0.2383  0.1531  0.1478
 2830PP      PP12934  12.693  14.172   4.369 -0.2519  0.2586 -0.0573
 2831PP      PP12935   9.035   8.677   0.144 -0.1095  0.0528  0.0139
 2832PP      PP12936  10.045  13.369   2.589 -0.3327  0.3441  0.3731
 2833PP      PP12937   6.172   3.744   9.128  0.0261  0.1655 -0.1411
 2834PP      PP12938  15.623   8.367  12.085 -0.0670 -0.2162 -0.4698
 2835PP      PP12939  11.042   8.138   1.510  0.0436 -0.3044 -0.2638
 2836PP      PP12940  14.757   7.935   8.833 -0.1179  0.1238 -0.1433
 2837PP      PP12941   5.511  15.557   0.993 -0.0473  0.2875  0.1663
 2838PP      PP12942   4.138  12.142   9.477 -0.2053  0.1743 -0.0003
 2839PP      PP12943  13.701  12.242   9.666 -0.3204 -0.0291  0.0210
 2840PP      PP12944   4.918   9.522   3.391  0.3653 -0.1510 -0.4590
 2841PP      PP12945   0.387   3.718   1.081  0.1341  0.1250 -0.0993
 2842PP      PP12946   7.704   0.296   4.676 -0.5075  0.2293  0.0319
 2843PP      PP12947   8.904   9.305   1.025  0.0746  0.1955 -0.1423
 2844PP      PP12948   7.515   7.829  11.219 -0.1396  0.4756  0.1660
 2845PP      PP12949   3.204   4.570   2.534  0.3355  0.2486 -0.1984
 2846PP      PP12950   8.412   8.883  12.483  0.0954  0.2585 -0.1392
 2847PP      PP12951  12.312   4.334   8.264 -0.2475 -0.0775  0.2826
 2848PP      PP12952   0.423   7.668  11.989  0.0058  0.1104 -0.4810
 2849PP      PP12953   1.735   1.672   3.907 -0.2235  0.1824  0.1184
 2850PP      PP12954  14.956  14.906   1.705 -0.0667 -0.1582  0.1053
 2851PP      PP12955   7.476  15.906   4.579 -0.0271 -0.0422 -0.1456
 2852PP      PP12956   2.083   7.079  11.946  0.1306  0.4068  0.0238
 2853PP      PP12957   1.784   8.130   2.026 -0.4039 -0.0651 -0.1911
 2854PP      PP12958   8.041  14.282  10.868 -0.3380  0.1215 -0.1206
 2855PP      PP12959  11.927  12.065  11.066 -0.0699  0.0612 -0.2587
 2856PP      PP12960  10.386  15.007  10.072  0.3875 -0.0630 -0.1011
 2857PP      PP12961   9.631   2.501   9.377  0.4235 -0.2375  0.3399
 2858PP      PP12962   3.105   9.699   2.386 -0.1351 -0.2743 -0.0075
 2859PP      PP12963   9.239   2.764   9.134  0.0599  0.1173  0.2207
 2860PP      PP12964   2.025   2.439   2.218 -0.1071  0.1121  0.1024
 2861PP      PP12965   4.672  10.278  10.326  0.0460  0.3106  0.0268
 2862PP      PP12966  15.086  14.423  11.060 -0.0306 -0.1269 -0.0543
 2863PP      PP12967   4.789  15.767  12.054  0.1816 -0.0598  0.1118
 2864PP      PP12968  11.575  12.604   3.583 -0.0656 -0.2796 -0.2732
 2865PP      PP12969   6.427  11.919   3.033  0.0240  0.3280 -0.2708
 2866PP      PP12970   4.987   6.651   9.938 -0.0686  0.0634 -0.2185
 2867PP      PP12971   7.813   7.680   0.578 -0.0903  0.2453  0.4423
 2868PP      PP12972   9.946  13.560   3.729 -0.2057  0.0250  0.3319
 2869PP      PP12973  11.741   5.623   9.986 -0.0573 -0.2771  0.0547
 2870PP      PP12974   3.543   3.304   1.048 -0.1185  0.0036 -0.1929
 2871PP      PP12975  12.990  11.123   8.339 -0.3484  0.0118 -0.0148
 2872PP      PP12976   9.141   2.748   9.607 -0.1938 -0.1312  0.2702
 2873PP      PP12977   1.056   6.932   9.645 -0.1241 -0.0792  0.2078
 2874PP      PP12978   0.757   6.010  10.076 -0.2124 -0.0747 -0.0499
 2875PP      PP12979   5.726  11.950   0.358 -0.1601  0.2879  0.0176
 2876PP      PP12980  14.201   9.711   1.120 -0.0566  0.0433  0.0780
 2877PP      PP12981   2.633  12.016   2.511  0.3317 -0.2322  0.0500
 2878PP      PP12982   5.366  13.814   8.941 -0.3638 -0.1321 -0.1244
 2879PP      PP12983  14.192  14.815  11.915 -0.1252 -0.0014  0.0035
 2880PP      PP12984   5.610   5.682   7.689 -0.0066  0.0899 -0.0076
 2881PP      PP12985  15.864   4.588   8.823  0.0069 -0.0501 -0.2630
 2882PP      PP12986  14.282   0.755   9.698 -0.0003 -0.0809 -0.2176
 2883PP      PP12987   7.408  10.287  10.326 -0.2899  0.0179 -0.0726
 2884PP      PP12988   6.148   3.843  10.997  0.0524  0.2577 -0.0700
 2885PP      PP12989  12.060   9.414   8.998  0.0474 -0.3082 -0.2483
 2886PP      PP12990   8.993   5.307  11.739 -0.2550 -0.0713 -0.1394
 2887PP      PP12991   0.402   2.940  12.029 -0.2299  0.0861  0.3358
 2888PP      PP12992   9.022   4.456  12.042 -0.0858  0.1628  0.1008
 2889PP      PP12993  15.636   4.321   1.527 -0.1026 -0.1893  0.0568
 2890PP      PP12994  12.310   7.315  11.465 -0.3966 -0.2957  0.0268
 2891PP      PP12995   4.161  14.822   0.674 -0.1118  0.1466 -0.0695
 2892PP      PP12996  14.958  11.453   3.274  0.1688 -0.0189 -0.0211
 2893PP      PP12997   2.052   6.262   8.834 -0.3163  0.0683 -0.0643
 2894PP      PP12998  13.714  12.958   4.454  0.0420 -0.2478 -0.2903
 2895PP      PP12999  13.458   1.832   9.811  0.0392  0.1066 -0.2305
 2896PP      PP13000   6.932  14.276   2.291  0.0680 -0.2266  0.0058
 2897PP      PP13001   5.374  10.665   9.316  0.1413  0.0185  0.0515
 2898PP      PP13002   9.646   1.914  10.719  0.1303 -0.1122 -0.0973
 2899PP      PP13003  14.337  12.297  10.056  0.0727 -0.0328  0.0215
 2900PP      PP13004  13.695   8.638   0.485 -0.1564  0.1655 -0.0146
 2901PP      PP13005   6.648   3.659   2.481 -0.0819 -0.3362  0.0869
 2902PP      PP13006  13.433  13.256   0.412 -0.0372  0.0338  0.2064
 2903PP      PP13007   6.674   1.514   1.487  0.2303 -0.1762 -0.1126
 2904PP      PP13008   4.295   2.705   3.708 -0.0214  0.0137 -0.1146
 2905PP      PP13009   7.324   6.962  10.788 -0.2056  0.3428  0.1279
 2906PP      PP13010   9.681   8.418   3.851 -0.3765 -0.1768  0.0670
 2907PP      PP13011   6.826   1.300   3.157 -0.0183  0.1629  0.1646
 2908PP      PP13012   3.696  14.474   0.725 -0.0818  0.0500 -0.0851
 2909PP      PP13013   4.417   5.378  10.043  0.1005  0.0399  0.1252
 2910PP      PP13014   9.364   7.305   1.272 -0.2502 -0.2508 -0.4981
 2911PP      PP13015  11.988   2.367   8.378  0.1915 -0.0753 -0.1946
 2912PP      PP13016   7.418   8.493   1.792 -0.2231  0.2217 -0.1588
 2913PP      PP13017  12.317   0.940  12.068 -0.0221 -0.0609  0.1402
 2914PP      PP13018   3.149   3.011   4.263 -0.1473  0.0139 -0.0333
 2915PP      PP13019   8.063  15.283   9.223  0.0758 -0.2389 -0.0492
 2916PP      PP13020   7.821  10.424   8.527 -0.2237  0.1328  0.1316
 2917PP      PP13021   8.559   8.771  11.563  0.1135 -0.0926  0.1446
 2918PP      PP13022  15.406   6.529   8.739  0.0118 -0.0770 -0.4815
 2919PP      PP13023  10.391   1.648   2.103  0.0061  0.1018 -0.1108
 2920PP      PP13024  12.779  13.131   2.405 -0.1235  0.0712  0.0553
 2921PP      PP13025   3.536   6.231   3.270  0.0448 -0.0246  0.3426
 2922PP      PP13026  14.995   6.882  11.221  0.1059  0.1160 -0.0082
 2923PP      PP13027   2.986   6.851   0.352  0.0060  0.2601  0.3597
 2924PP      PP13028   3.893  15.241   0.955 -0.0777  0.1288 -0.1136
 2925PP      PP13029  16.289   7.319   9.179 -0.1440  0.0446 -0.1206
 2926PP      PP13030  15.147   8.290  11.592 -0.0849  0.0214  0.0450
 2927PP      PP13031  15.625   0.206   9.927 -0.0883 -0.0294 -0.0215
 2928PP      PP13032  11.755   1.790   9.691  0.0055 -0.1515  0.1231
 2929PP      PP13033   1.174   9.656   9.587  0.1536 -0.0041  0.0336
 2930PP      PP13034  10.975   9.717   8.166 -0.0020 -0.1846 -0.0395
 2931PP      PP13035   1.758   6.386   2.757 -0.2924 -0.0182 -0.1871
 2932PP      PP13036   1.292   7.008   2.263  0.0507  0.0228 -0.1439
 2933PP      PP13037   9.188  12.430  11.854 -0.0912 -0.1465 -0.0547
 2934PP      PP13038  12.472  13.199   3.349  0.0486 -0.0417  0.0148
 2935PP      PP13039   8.982  10.688   2.084 -0.4339 -0.1477  0.1071
 2936PP      PP13040  11.964   9.266  11.147  0.2106 -0.4460 -0.2477
 2937PP      PP13041  14.696   7.385  12.305  0.2102  0.1088 -0.0792
 2938PP      PP13042   0.748  12.466   1.994  0.1494 -0.0077  0.2844
 2939PP      PP13043  16.234  14.057   1.875 -0.1234  0.1245 -0.0353
 2940PP      PP13044  15.878  15.162  10.951 -0.1489  0.1722  0.0352
 2941PP      PP13045   8.958  13.288   9.792  0.1299 -0.2288  0.2379
 2942PP      PP13046   8.431  15.440   9.508 -0.0145  0.2216 -0.0152
 2943PP      PP13047   9.996   3.343   2.448 -0.0498  0.0732 -0.1558
 2944PP      PP13048  12.123   2.541  10.832 -0.1195 -0.4141 -0.1280
 2945PP      PP13049  12.643   9.932   0.077  0.3132  0.1289  0.2313
 2946PP      PP13050   4.974  15.750   9.189 -0.0196 -0.1293  0.1053
 2947PP      PP13051  12.497   7.327  10.925 -0.1321 -0.0253 -0.2359
 2948PP      PP13052   7.568  11.308   8.371 -0.1200 -0.1824 -0.0010
 2949PP      PP13053   3.128   2.692   9.391  0.0347  0.3294 -0.1776
 2950PP      PP13054   3.812   4.163   2.939  0.2656  0.0218  0.0382
 2951PP      PP13055   9.773  12.319   3.554 -0.1776  0.0621  0.0123
 2952PP      PP13056  15.446   6.997   9.045 -0.1369  0.0866 -0.0410
 2953PP      PP13057   0.264  14.925  11.199  0.0840 -0.3547  0.1176
 2954PP      PP13058   0.591  11.341   9.693  0.2424  0.0777 -0.0334
 2955PP      PP13059   1.673   4.489   0.960  0.0396  0.1077 -0.1427
 2956PP      PP13060   9.205  10.865   9.245 -0.0852  0.2707 -0.3000
 2957PP      PP13061  12.868   2.619  12.464 -0.3547  0.3115 -0.0680
 2958PP      PP13062   4.332  11.284   9.166  0.3627 -0.2120 -0.0983
 2959PP      PP13063  12.615  15.662   0.408 -0.0757 -0.0068  0.1411
 2960PP      PP13064   1.321   0.550   1.807  0.1523 -0.4318  0.0614
 2961PP      PP13065  16.077   8.942   2.251  0.1539  0.1097 -0.0208
 2962PP      PP13066   8.014   4.783   1.563 -0.1055  0.0563  0.1000
 2963PP      PP13067  15.017   7.138   1.676 -0.2992 -0.4187  0.4153
 2964PP      PP13068  12.481  10.318   8.749 -0.2912 -0.0601 -0.0678
 2965PP      PP13069  13.614  12.320   0.252 -0.3753  0.1213 -0.0948
 2966PP      PP13070   2.167   6.638   1.488 -0.0244  0.2442 -0.0161
 2967PP      PP13071  13.454   8.504  11.244  0.1800  0.1385  0.0989
 2968PP      PP13072   8.828   4.758  11.569  0.0608  0.0940  0.2029
 2969PP      PP13073   0.626  11.474   4.005 -0.1591 -0.1082  0.0941
 2970PP      PP13074   7.509   5.066   8.776  0.1569  0.0611  0.2545
 2971PP      PP13075   5.363   4.649   3.477  0.0947 -0.0138 -0.1338
 2972PP      PP13076   9.922   9.202   1.321  0.0547  0.2611  0.0132
 2973PP      PP13077  14.324   3.209   2.037  0.2596 -0.0357 -0.0563
 2974PP      PP13078   1.898   0.567   3.309 -0.0623 -0.1337  0.2940
 2975PP      PP13079   3.074   8.443  10.471  0.0782 -0.2912 -0.2122
 2976PP      PP13080   5.386   8.604  11.351 -0.0145 -0.1329  0.0216
 2977PP      PP13081   5.316  13.082   2.996 -0.0030  0.1783  0.0125
 2978PP      PP13082  15.100  10.075   9.032  0.0615  0.1234 -0.5659
 2979PP      PP13083   1.083  13.000   2.118 -0.0489  0.2687 -0.0865
 2980PP      PP13084   8.739  12.214   3.224  0.1551 -0.1397  0.0240
 2981PP      PP13085  15.458  14.693  12.191 -0.1158 -0.2121  0.1079
 2982PP      PP13086   7.881   4.245   1.480 -0.0117  0.0058 -0.0422
 2983PP      PP13087  10.637  14.859  10.577 -0.1082 -0.1228 -0.0057
 2984PP      PP13088  15.077  13.429   9.358 -0.0774  0.1135 -0.1295
 2985PP      PP13089  12.574  13.681   9.216  0.1327  0.1131 -0.0914
 2986PP      PP13090  11.797  14.077   3.485 -0.1049  0.0726  0.0028
 2987PP      PP13091   7.610   9.195   3.737  0.0722 -0.1344  0.1706
 2988PP      PP13092   8.708   0.278   4.456  0.2413 -0.0751 -0.0277
 2989PP      PP13093   3.920   1.318  11.723 -0.1336  0.1669  0.0097
 2990PP      PP13094   1.796  10.984   2.223  0.0340 -0.0038 -0.0154
 2991PP      PP13095   4.713  11.802   2.752 -0.5781 -0.0668 -0.1634
 2992PP      PP13096   9.776   4.914  12.011 -0.1426 -0.3585 -0.0643
 2993PP      PP13097   1.806   6.966   1.100  0.0463 -0.0802  0.0562
 2994PP      PP13098  10.982  10.200  12.031  0.1393  0.0407 -0.0461
 2995PP      PP13099   3.660   9.103   0.877  0.2308  0.2892  0.0220
 2996PP      PP13100   3.591   2.111   2.442  0.0283 -0.1566  0.1645
 2997PP      PP13101   5.121   9.906   3.600  0.1178  0.1756  0.2873
 2998PP      PP13102   1.509   9.952  10.775  0.2578  0.0412 -0.2867
 2999PP      PP13103   4.520   4.138   3.349  0.0849  0.0415  0.0094
 3000PP      PP13104  13.538   7.700  12.040 -0.1860 -0.0730  0.2791
 3001PP      PP13105   4.048  13.061   0.196  0.0913  0.0149  0.0020
 3002PP      PP13106   4.450   6.118   2.286 -0.1177  0.0049 -0.0760
 3003PP      PP13107   9.932  13.210   8.858  0.1850 -0.5531  0.3153
 3004PP      PP13108   9.878  10.150  11.322  0.0872  0.0659 -0.2911
 3005PP      PP13109   2.101  15.245   1.736  0.0354  0.0769 -0.0975
 3006PP      PP13110  12.890   1.272  12.521  0.0578  0.0471  0.3147
 3007PP      PP13111   2.653  11.638   2.100 -0.2025 -0.1586  0.0745
 3008PP      PP13112   6.595  12.350  10.023 -0.2688 -0.0850 -0.3160
 3009PP      PP13113   1.933   1.226   2.467 -0.0532  0.1686  0.0157
 3010PP      PP13114   1.799   2.925   0.553 -0.3084 -0.2112 -0.0434
 3011PP      PP13115   4.815  14.991  12.140  0.0609  0.4017 -0.0605
 3012PP      PP13116   9.089  10.701   3.779  0.4451  0.1583 -0.2659
 3013PP      PP13117  13.338   5.538   0.725 -0.3388  0.0148 -0.1532
 3014PP      PP13118   2.408  14.975  11.755 -0.0040 -0.0966  0.0814
 3015PP      PP13119   2.260   0.019   9.632 -0.3325  0.1602  0.0595
 3016PP      PP13120   8.454   6.220   3.062  0.1027 -0.1734 -0.0988
 3017PP      PP13121   9.800   0.119  11.638 -0.1706 -0.3116 -0.0883
 3018PP      PP13122  13.091  12.180   2.070 -0.0104  0.0675  0.0596
 3019PP      PP13123   2.997  11.713   2.490 -0.2750 -0.1553  0.1165
 3020PP      PP13124  15.064   2.480  10.934  0.1166  0.0519  0.0302
 3021PP      PP13125  14.673   4.659   8.170 -0.2261  0.0802 -0.0458
 3022PP      PP13126  13.632   4.520   1.555  0.1497 -0.2163 -0.0809
 3023PP      PP13127  10.937  13.708  11.891  0.4050  0.1564  0.0431
 3024PP      PP13128  14.368  13.760   4.347  0.1878 -0.1452  0.0391
 3025PP      PP13129   8.455   6.211   9.707 -0.0752  0.1328  0.1306
 3026PP      PP13130  13.697  15.788   8.155  0.2380 -0.3845  0.1697
 3027PP      PP13131   6.958   2.854  12.246 -0.0492 -0.1652  0.1891
 3028PP      PP13132   7.654   3.797   3.817 -0.0007 -0.2220 -0.2055
 3029PP      PP13133   0.936   7.203   0.597  0.1898  0.2891  0.0482
 3030PP      PP13134   1.838   5.939   0.011 -0.0985  0.0374 -0.0019
 3031PP      PP13135  16.272   5.017  12.077  0.1226 -0.7026 -0.0660
 3032PP      PP13136  13.947   3.347   3.571  0.1882  0.1240 -0.4403
 3033PP      PP13137   1.914  13.206   0.023  0.0727  0.0872 -0.0216
 3034PP      PP13138  13.910  10.071   2.329 -0.0912 -0.0784  0.3734
 3035PP      PP13139   9.380   4.123   1.699  0.0576 -0.0096  0.2038
 3036PP      PP13140  15.282  14.597   9.441  0.0251  0.0152  0.0715
 3037PP      PP13141   1.471   0.390  11.186 -0.4243  0.3710  0.2082
 3038PP      PP13142   5.476   8.205   0.222  0.1501 -0.0502 -0.2543
 3039PP      PP13143   5.465   6.839  10.293  0.3399 -0.0482 -0.4324
 3040PP      PP13144  15.647  10.083   9.129  0.0917 -0.3725  0.2090
 3041PP      PP13145  10.343  10.475   2.470 -0.2137 -0.0518  0.1375
 3042PP      PP13146   2.012  11.058   1.748  0.0851  0.0229  0.0692
 3043PP      PP13147  12.069  15.144   9.358  0.0377  0.0358  0.2283
 3044PP      PP13148   5.575   0.172   0.832 -0.0160 -0.1785  0.2454
 3045PP      PP13149   3.439  12.927   2.121 -0.1290 -0.1759  0.2105
 3046PP      PP13150  10.036   3.098   1.306 -0.0016  0.3982  0.0228
 3047PP      PP13151   5.895  15.047   2.834 -0.1973  0.2594 -0.0101
 3048PP      PP13152   0.162   8.054  11.963 -0.2732 -0.1262  0.0933
 3049PP      PP13153   3.627  11.970   8.050 -0.2503  0.0196  0.3641
 3050PP      PP13154   7.646   7.624   1.483 -0.2805 -0.2312  0.2137
 3051PP      PP13155  12.068   3.867   1.356 -0.0577  0.0126  0.0819
 3052PP      PP13156   9.560  14.161   9.993  0.1700 -0.2671  0.2869
 3053PP      PP13157  15.329   4.220   9.064  0.0155 -0.0323  0.2973
 3054PP      PP13158   7.051   7.861   7.999  0.0593  0.3236 -0.0791
 3055PP      PP13159   8.800  12.147   1.826  0.0125 -0.4055  0.0704
 3056PP      PP13160  12.768  12.655   8.959 -0.1198 -0.1832 -0.2845
 3057PP      PP13161  11.644  12.526   4.163 -0.0280  0.1241 -0.1873
 3058PP      PP13162  15.943   5.120   0.602 -0.0615 -0.0688 -0.0402
 3059PP      PP13163   1.995  13.796   1.502  0.0202  0.1171  0.2006
 3060PP      PP13164  10.350   8.180   2.576 -0.1937 -0.2507  0.0910
 3061PP      PP13165   9.037  15.939   2.943  0.1454 -0.3541  0.0225
 3062PP      PP13166   7.692   7.545   0.108 -0.0481 -0.1672  0.0916
 3063PP      PP13167   1.496   7.641  11.426  0.1342  0.0516 -0.0635
 3064PP      PP13168   3.766  14.030   9.963 -0.1674  0.1580 -0.1886
 3065PP      PP13169  11.503   9.281  10.800  0.0857 -0.0457 -0.2844
 3066PP      PP13170  11.314   4.096   0.215 -0.2115 -0.3367  0.1456
 3067PP      PP13171   5.693   1.500   3.604 -0.1332  0.1599  0.0101
 3068PP      PP13172   7.322  15.139   3.252 -0.1317  0.0572  0.4400
 3069PP      PP13173  15.007   3.028   4.371  0.1585  0.1858 -0.0731
 3070PP      PP13174   9.177   9.729   0.818  0.3344 -0.1141 -0.1289
 3071PP      PP13175  14.533  11.293   2.484  0.0309 -0.2122 -0.1719
 3072PP      PP13176   0.337  11.359   0.249  0.0720  0.0352 -0.2609
 3073PP      PP13177  16.151  10.884   9.798  0.1054 -0.1071 -0.1720
 3074PP      PP13178   4.647  11.431  10.213 -0.0545 -0.1175  0.1797
 3075PP      PP13179   7.592  13.948   0.712 -0.3093 -0.2245 -0.4608
 3076PP      PP13180   4.251  10.564   0.902  0.0763  0.2294 -0.0255
 3077PP      PP13181   7.149   2.740   3.798 -0.3719 -0.0776  0.1361
 3078PP      PP13182   2.485  14.830   9.112  0.2740  0.1054 -0.1305
 3079PP      PP13183  14.773   3.627  10.971  0.0959 -0.0231 -0.2046
 3080PP      PP13184   4.948   1.106  11.907  0.0012  0.0787 -0.0798
 3081PP      PP13185   4.917  14.138   8.370 -0.1230 -0.0718  0.3584
 3082PP      PP13186   9.184   4.383  11.534 -0.2790  0.1103 -0.1262
 3083PP      PP13187   4.990   0.756   1.938  0.0723 -0.1486  0.0822
 3084PP      PP13188   9.781   8.588  10.438 -0.2135 -0.2714  0.2693
 3085PP      PP13189   7.923   7.530  10.987  0.0185  0.1871 -0.0015
 3086PP      PP13190   7.740   4.498   3.267  0.4726  0.2679  0.0658
 3087PP      PP13191  12.770   7.491   1.227 -0.1627  0.0587 -0.1485
 3088PP      PP13192  12.387  11.992   0.754 -0.3897  0.1041 -0.1761
 3089PP      PP13193  12.887  12.396  10.799  0.0311  0.1183  0.1005
 3090PP      PP13194   2.969  11.638   9.634  0.0704  0.2003  0.0994
 3091PP      PP13195   7.652   0.704  10.861 -0.1142 -0.2550 -0.1182
 3092PP      PP13196   1.189  11.678   8.905  0.2251 -0.2105  0.0964
 3093PP      PP13197   0.804   2.347   4.054 -0.1437  0.3116  0.1435
 3094PP      PP13198  10.734  12.162   3.957  0.2066 -0.1524 -0.0961
 3095PP      PP13199   8.261   2.629   3.087 -0.2140 -0.0981 -0.1494
 3096PP      PP13200   4.403   2.819  12.051 -0.0295  0.0121 -0.1500
 3097PP      PP13201  15.284   5.552   3.081 -0.0718  0.0177 -0.4064
 3098PP      PP13202   6.104   5.955   1.754 -0.0948  0.1415 -0.0060
 3099PP      PP13203  10.195   3.534   9.860 -0.0533 -0.0665  0.1612
 3100PP      PP13204   0.490   3.230  11.396 -0.1691  0.0255  0.2091
 3101PP      PP13205   9.907   5.161   9.905 -0.0846 -0.0627  0.2855
 3102PP      PP13206   4.921  13.078   2.186  0.1303 -0.2310 -0.1805
 3103PP      PP13207  13.553  12.401   3.758  0.1056 -0.0237  0.1428
 3104PP      PP13208   8.314   1.621  11.562  0.0838 -0.1419  0.2649
 3105PP      PP13209  11.127   2.429   3.373  0.0399  0.1184  0.0062
 3106PP      PP13210  11.972  10.222   1.812 -0.1200 -0.0392 -0.1543
 3107PP      PP13211  16.322   2.434  10.771  0.2765 -0.3439  0.0600
 3108PP      PP13212   2.693   1.246   9.637  0.0729  0.0629  0.0865
 3109PP      PP13213   5.354   0.098   3.274  0.4077  0.0455  0.0289
 3110PP      PP13214   4.727   1.804   0.177  0.2023 -0.0651  0.1775
 3111PP      PP13215   1.285  15.054  12.189  0.1635 -0.1171 -0.1001
 3112PP      PP13216   7.834   6.372   2.938  0.0106 -0.0601 -0.3565
 3113PP      PP13217  14.256   7.126   0.472  0.2419  0.2291  0.0729
 3114PP      PP13218  11.994   5.445   1.412  0.1881  0.1395  0.2314
 3115PP      PP13219  11.106   2.080   2.509  0.0585 -0.1589 -0.2160
 3116PP      PP13220   3.799   5.340   8.611 -0.4445 -0.0902  0.2778
 3117PP      PP13221  10.920   1.338  10.210  0.3855 -0.0637  0.4201
 3118PP      PP13222   7.726  13.873   2.789 -0.1382  0.2037 -0.2181
 3119PP      PP13223  14.691   6.422   7.799 -0.1364 -0.1686  0.1807
 3120PP      PP13224   9.302  14.902   2.502  0.0893 -0.1968  0.2293
 3121PP      PP13225   2.398   7.185   1.571  0.0378 -0.0717  0.2914
 3122PP      PP13226  14.750   1.889  10.738 -0.0131  0.1693 -0.2073
 3123PP      PP13227   7.442   4.927  11.538  0.2248  0.0965 -0.2880
 3124PP      PP13228   5.860   8.410   9.028 -0.2423  0.2104  0.1470
 3125PP      PP13229  10.848   2.867   1.452  0.0611 -0.1767  0.0730
 3126PP      PP13230   8.445   3.262   9.386 -0.0330  0.1668 -0.3526
 3127PP      PP13231  11.496   0.824   8.982 -0.0648 -0.2131  0.0223
 3128PP      PP13232   9.443  15.613   3.821 -0.0670  0.0091 -0.0964
 3129PP      PP13233   5.698  14.906   2.016  0.0579  0.2292 -0.0572
 3130PP      PP13234   1.926   4.292   8.004 -0.1949  0.0245 -0.1041
 3131PP      PP13235  14.727   6.286  11.446  0.0513  0.0153 -0.1744
 3132PP      PP13236   9.938   9.268   2.818  0.1373 -0.0152 -0.0297
 3133PP      PP13237   7.328  10.382  10.821 -0.3045 -0.0299  0.2308
 3134PP      PP13238   6.139  13.957  12.412 -0.1743  0.0501 -0.1013
 3135PP      PP13239   1.283  13.218  10.062 -0.0283 -0.2111 -0.0084
 3136PP      PP13240   3.481   9.522   8.717 -0.0723 -0.1450 -0.1434
 3137PP      PP13241  11.308   3.140   0.026 -0.2372 -0.0306 -0.1925
 3138PP      PP13242  14.938  10.162   8.333 -0.2620 -0.1467  0.2869
 3139PP      PP13243   5.095  12.374   9.419 -0.0266 -0.1535  0.1868
 3140PP      PP13244   5.627   6.449   9.362 -0.0689  0.2874 -0.1158
 3141PP      PP13245   8.542   2.645  12.516  0.1232 -0.1789 -0.0242
 3142PP      PP13246  10.386   4.164  12.342 -0.0504  0.4433 -0.2416
 3143PP      PP13247   4.594  12.916   0.980 -0.2223 -0.1110 -0.0306
 3144PP      PP13248  14.408   3.057   3.072 -0.1715  0.1450  0.1244
 3145PP      PP13249   2.973   2.080   1.796 -0.1425  0.1960  0.0810
 3146PP      PP13250   5.652  11.983  11.662 -0.0186  0.0350  0.2550
 3147PP      PP13251   6.407   2.475  10.831  0.0279  0.0263 -0.0644
 3148PP      PP13252   5.959   3.178   1.549  0.2262 -0.1473  0.2382
 3149PP      PP13253  13.394   0.093  11.571 -0.1659 -0.1696 -0.0536
 3150PP      PP13254   9.816   2.168   9.046 -0.0021  0.1540  0.0488
 3151PP      PP13255   2.178  13.352  12.401  0.1218  0.4843  0.0900
 3152PP      PP13256   0.297   6.071   3.220  0.1897 -0.0807 -0.2576
 3153PP      PP13257   8.331  15.629   1.175 -0.1032 -0.2153 -0.0142
 3154PP      PP13258   1.506   1.309   4.180 -0.0947 -0.3701  0.0232
 3155PP      PP13259   1.038  12.972  11.161  0.1601  0.2199  0.0950
 3156PP      PP13260   7.597   4.334   0.181  0.0411  0.0129 -0.2127
 3157PP      PP13261   6.458  14.208   2.064  0.2751  0.0133  0.3236
 3158PP      PP13262   6.355   8.403   3.562 -0.3754 -0.0775  0.0829
 3159PP      PP13263   2.978  10.421  10.738 -0.2202  0.3642 -0.0448
 3160PP      PP13264  15.742   0.808  12.101 -0.1206  0.2918  0.1593
 3161PP      PP13265   3.079   8.499   1.948 -0.2518  0.2061  0.1281
 3162PP      PP13266   7.252   4.482  12.582  0.4148  0.0798  0.0472
 3163PP      PP13267   6.755   1.876   8.805 -0.0084 -0.0677  0.0937
 3164PP      PP13268  15.959   5.466  10.315  0.1390 -0.3251 -0.2095
 3165PP      PP13269   3.102  14.224   1.217  0.0920  0.4381  0.3313
 3166PP      PP13270   3.158  13.529  10.210 -0.2261 -0.0055 -0.1864
 3167PP      PP13271   2.054   5.101  11.901  0.0921 -0.0591  0.0884
 3168PP      PP13272  12.738   0.264   3.013 -0.2379  0.0378  0.1328
 3169PP      PP13273  13.894  10.387   1.148  0.2284  0.1006 -0.0435
 3170PP      PP13274  10.461   1.367   1.442 -0.0920 -0.0063 -0.4115
 3171PP      PP13275  10.999   1.973  12.400  0.2633  0.1061 -0.0862
 3172PP      PP13276   7.441   0.617  11.659 -0.1392 -0.0397  0.5650
 3173PP      PP13277  13.601  12.761   2.496  0.0856  0.2767  0.1173
 3174PP      PP13278   4.002  10.718  11.879  0.2461 -0.3804  0.0478
 3175PP      PP13279   2.638   4.505  11.185  0.2533 -0.0682 -0.0065
 3176PP      PP13280   7.255   6.931   3.289  0.0739  0.0785  0.1939
 3177PP      PP13281   1.228  12.446   2.893  0.1829 -0.3645  0.0717
 3178PP      PP13282   3.341   4.192  11.631 -0.0608 -0.1818 -0.0179
 3179PP      PP13283   3.918   3.383   8.994  0.0406 -0.1160  0.0056
 3180PP      PP13284   9.155   9.410   1.726  0.2081  0.1892 -0.2372
 3181PP      PP13285  10.644  14.450  12.359 -0.0330 -0.0944 -0.0877
 3182PP      PP13286  16.344   7.013  11.350 -0.0558  0.1743  0.0867
 3183PP      PP13287   0.068   6.311   1.751  0.1730  0.0549 -0.1136
 3184PP      PP13288   9.181   7.958  11.419 -0.2978 -0.2043  0.0014
 3185PP      PP13289   1.722  11.923   2.517 -0.1040  0.0288 -0.1839
 3186PP      PP13290  11.161  16.090   9.675  0.4584 -0.1309  0.0075
 3187PP      PP13291  15.933  10.147  10.411  0.1915  0.4120 -0.1789
 3188PP      PP13292   9.945  10.505   9.726 -0.0709 -0.0816  0.1476
 3189PP      PP13293   9.049   5.842   0.803  0.0084 -0.1833  0.0189
 3190PP      PP13294  11.297  13.681   1.334  0.1857 -0.0157  0.0924
 3191PP      PP13295   6.328  15.541  11.918 -0.0244  0.0215  0.1885
 3192PP      PP13296   7.882   8.499   0.991 -0.2330  0.2294 -0.0469
 3193PP      PP13297   6.585   0.714   9.431 -0.2412  0.1469 -0.0688
 3194PP      PP13298   0.179   9.148  10.031 -0.5840 -0.3784 -0.1443
 3195PP      PP13299   0.564  10.030   3.631  0.1408  0.1575 -0.1760
 3196PP      PP13300   0.121   8.689   1.999 -0.1628 -0.0134 -0.1034
 3197PP      PP13301  11.861  12.110   8.509 -0.1611  0.2009  0.0965
 3198PP      PP13302   7.838   3.282   3.756 -0.1881 -0.1181 -0.0198
 3199PP      PP13303   2.554   8.161   0.703 -0.4789 -0.1346  0.0158
 3200PP      PP13304   8.582   2.977  12.022  0.0993  0.3147 -0.1011
 3201PP      PP13305   6.124   8.438   2.844  0.0590  0.0481  0.0472
 3202PP      PP13306   2.155  10.334  11.074  0.0254  0.1257 -0.1239
 3203PP      PP13307   9.613   3.011   9.354 -0.1412  0.1946 -0.0239
 3204PP      PP13308   2.842  12.253   9.559 -0.3131 -0.1010 -0.2607
 3205PP      PP13309  12.463   7.376  11.981 -0.0620 -0.1784  0.0164
 3206PP      PP13310   3.266  15.380  11.146 -0.3108 -0.1466 -0.2250
 3207PP      PP13311   1.628   0.153   1.691  0.1978 -0.1155 -0.0104
 3208PP      PP13312   5.344  11.421  12.567 -0.1844  0.0171 -0.2683
 3209PP      PP13313   2.320  15.471  10.109  0.1695 -0.0033 -0.1140
 3210PP      PP13314   8.165   8.710   8.613  0.2118  0.1171 -0.0283
 3211PP      PP13315   4.551  12.278   8.329  0.2836  0.1955 -0.1390
 3212PP      PP13316   7.951   3.818   9.308  0.3015  0.0891 -0.2692
 3213PP      PP13317   9.595   0.267   3.336  0.0256  0.0485  0.0156
 3214PP      PP13318  14.754   2.325   3.781  0.1857  0.0509  0.0467
 3215PP      PP13319  14.805  16.135  11.809  0.1547  0.0887 -0.1227
 3216PP      PP13320   2.125   6.451  12.653 -0.3012  0.2065  0.0920
 3217PP      PP13321   5.378  12.269  11.285 -0.0729  0.0134 -0.0999
 3218PP      PP13322  14.385  10.771  10.076  0.0019 -0.0201 -0.0049
 3219PP      PP13323   9.730  10.202   1.671 -0.5437 -0.2672 -0.0447
 3220PP      PP13324  10.733  13.270  12.063 -0.0423  0.1035 -0.3076
 3221PP      PP13325  12.743   7.840   8.643  0.1201  0.0108  0.1647
 3222PP      PP13326  14.114   6.518  11.992 -0.1079 -0.1290  0.2230
 3223PP      PP13327   1.398   4.898   3.865 -0.2012 -0.2669 -0.0468
 3224PP      PP13328   9.483   9.576   9.902 -0.0655 -0.0095  0.2069
 3225PP      PP13329   1.011  11.494  11.226 -0.1052 -0.0569 -0.0524
 3226PP      PP13330   2.969   3.588   3.979 -0.2438 -0.0941  0.2820
 3227PP      PP13331   9.808   8.436   9.862 -0.0037  0.0951 -0.0892
 3228PP      PP13332  11.869   6.756  10.733 -0.1121  0.2259 -0.1128
 3229PP      PP13333   0.839   8.293   2.359  0.1280  0.0926 -0.2163
 3230PP      PP13334  15.920   2.456  12.154 -0.3916 -0.2762  0.1590
 3231PP      PP13335  15.754  10.138   0.268  0.1022 -0.1445 -0.0598
 3232PP      PP13336  10.476   0.057   4.394 -0.2790 -0.0315  0.2718
 3233PP      PP13337   9.062   5.016  10.444  0.1804  0.0267 -0.1776
 3234PP      PP13338   0.096  12.516  10.792  0.0780  0.1429 -0.2631
 3235PP      PP13339  16.052  14.424   9.976 -0.4228 -0.0950  0.1513
 3236PP      PP13340  10.466  14.211  11.064  0.0103  0.0763 -0.2585
 3237PP      PP13341   9.331  14.615  11.919 -0.1908 -0.2215 -0.2082
 3238PP      PP13342   6.186   6.454   0.032  0.0318 -0.1110  0.3331
 3239PP      PP13343  15.362   6.158  10.718  0.0762  0.2450 -0.0241
 3240PP      PP13344   6.355   6.962   8.824 -0.2011  0.1874 -0.3042
 3241PP      PP13345  13.949   3.922   9.846  0.1906  0.2566  0.1193
 3242PP      PP13346  13.285   9.712   1.170  0.2464 -0.0616  0.1663
 3243PP      PP13347  13.392  10.328   9.374  0.1759  0.0730 -0.0470
 3244PP      PP13348   2.846   4.483   0.681  0.2017  0.4114  0.1234
 3245PP      PP13349  15.473   0.418  11.804 -0.0469  0.2393  0.1105
 3246PP      PP13350   0.843   4.789   3.858 -0.3091  0.1551 -0.1060
 3247PP      PP13351   7.586   3.011   0.077 -0.1945 -0.3505  0.0194
 3248PP      PP13352   2.812   7.232   8.051  0.1405 -0.1455  0.3235
 3249PP      PP13353   8.878   4.926   8.019 -0.1891  0.0943  0.1708
 3250PP      PP13354   6.769   9.557  12.311 -0.0118 -0.1292  0.3574
 3251PP      PP13355   8.967   3.911   8.452 -0.0362 -0.1265  0.0397
 3252PP      PP13356   9.830   3.017   4.139  0.1807 -0.0857 -0.3359
 3253PP      PP13357   6.325  14.925   1.886  0.3344  0.1481  0.0478
 3254PP      PP13358  13.993   6.319   3.733 -0.0595  0.1974 -0.0430
 3255PP      PP13359   5.936   6.616   8.973 -0.3498 -0.1642 -0.2343
 3256PP      PP13360   8.663   2.485   4.359  0.2603 -0.1179  0.3813
 3257PP      PP13361   1.069  15.240  11.330  0.3559 -0.2063 -0.1458
 3258PP      PP13362   3.723  14.295  10.478  0.1082 -0.2618  0.1686
 3259PP      PP13363  11.867   7.882   9.823  0.1534  0.0953 -0.3167
 3260PP      PP13364   8.705  13.647   2.157  0.0736  0.2170 -0.0596
 3261PP      PP13365  14.875  10.674   9.137 -0.1217 -0.2148 -0.0794
 3262PP      PP13366  12.168   7.329   1.899 -0.1977  0.1294 -0.2748
 3263PP      PP13367   9.110   0.266   0.038  0.1458  0.1951  0.2266
 3264PP      PP13368   8.413   6.104   0.019  0.0554 -0.1586  0.2410
 3265PP      PP13369  11.935   7.369  11.845 -0.1867 -0.0835  0.2264
 3266PP      PP13370   2.309  10.749  11.389  0.1015  0.1870 -0.0943
 3267PP      PP13371  13.981  12.002   0.292 -0.0804  0.3574  0.1659
 3268PP      PP13372   7.816   9.564   0.158  0.2058 -0.0928 -0.0411
 3269PP      PP13373   0.760  14.275   9.341 -0.1651 -0.1074 -0.2109
 3270PP      PP13374   6.836  15.833   9.273  0.0093 -0.1867  0.1643
 3271PP      PP13375   5.518  14.752  10.350  0.4423 -0.0549 -0.1953
 3272PP      PP13376   2.012   9.234   1.164  0.0242  0.2651  0.1185
 3273PP      PP13377   8.507   2.030   9.592  0.2885  0.1210 -0.0451
 3274PP      PP13378   7.273   4.680   1.045  0.0832  0.0279  0.0147
 3275PP      PP13379   5.748   4.499   9.526  0.1379 -0.0865  0.0426
 3276PP      PP13380   0.769   5.419   4.067 -0.1860  0.0212  0.1266
 3277PP      PP13381  14.706   4.069  12.279 -0.0862  0.0059 -0.2129
 3278PP      PP13382  14.645   2.145   9.376 -0.2971  0.0733 -0.0673
 3279PP      PP13383   5.394   4.714   7.921  0.1737 -0.1683  0.0593
 3280PP      PP13384   6.707  10.430   8.720  0.1642 -0.0303  0.1322
 3281PP      PP13385   9.829   2.887   2.586  0.0366 -0.0453  0.1435
 3282PP      PP13386  10.580  12.255  10.918  0.0811 -0.0943 -0.2190
 3283PP      PP13387  15.348   7.793  12.487  0.2337  0.2723 -0.0291
 3284PP      PP13388  10.657  15.330  10.425 -0.3250 -0.0410  0.0367
 3285PP      PP13389   2.645   8.572   8.490 -0.3818  0.1339 -0.0483
 3286PP      PP13390   5.672   2.104   3.601 -0.0917  0.1616 -0.1297
 3287PP      PP13391  12.401   1.027   8.457  0.1595  0.4788  0.2162
 3288PP      PP13392   8.627   8.382   1.754 -0.0933  0.1118 -0.1526
 3289PP      PP13393   9.888   8.682   1.384 -0.5160 -0.2190  0.1456
 3290PP      PP13394   7.672   3.408  10.101 -0.0981  0.0757  0.4038
 3291PP      PP13395  11.155   8.383   2.300 -0.0413  0.3071 -0.0202
 3292PP      PP13396  10.507   9.305   2.324 -0.1608 -0.0903 -0.0728
 3293PP      PP13397   5.378   5.375   0.508 -0.0756 -0.0409 -0.1856
 3294PP      PP13398  11.333  13.415  12.165 -0.2399 -0.0916  0.3405
 3295PP      PP13399   6.563  13.225  10.456 -0.1618 -0.0617 -0.0104
 3296PP      PP13400   1.326   4.824  12.632 -0.4730  0.4673  0.0846
 3297PP      PP13401   2.204   0.003  10.113 -0.2512 -0.1380  0.1691
 3298PP      PP13402   4.578  16.013   0.101  0.0340 -0.0694  0.1060
 3299PP      PP13403   4.236  16.049  10.131 -0.1354 -0.0632 -0.1342
 3300PP      PP13404   2.091   3.935   1.508 -0.0329 -0.0746 -0.0918
 3301PP      PP13405   8.476  15.840  12.129 -0.2589  0.4722  0.1413
 3302PP      PP13406   3.653   7.024  10.529 -0.1951 -0.4824  0.3117
 3303PP      PP13407   7.331  10.299   2.011  0.3052 -0.1674  0.1127
 3304PP      PP13408   3.252   0.243  11.577 -0.1017 -0.1249  0.0568
 3305PP      PP13409   4.668   0.322   9.461 -0.1876  0.2356 -0.0290
 3306PP      PP13410   4.938  10.733   0.137  0.0505 -0.1072  0.0763
 3307PP      PP13411  11.469  16.002  10.740  0.1401  0.0775 -0.1568
 3308PP      PP13412   3.963   8.051   1.161  0.1667 -0.1227  0.0643
 3309PP      PP13413   0.564  10.292   3.049  0.1826  0.0215 -0.0785
 3310PP      PP13414   8.517  14.879   4.405  0.3247  0.1271  0.1189
 3311PP      PP13415  10.739  13.436   3.505  0.2871  0.2764  0.1069
 3312PP      PP13416   1.958  13.542  10.890 -0.1636 -0.1886 -0.0049
 3313PP      PP13417   5.561   7.504   3.492  0.0043 -0.0516 -0.2651
 3314PP      PP13418   3.711   4.239   3.511 -0.2041  0.2818  0.0492
 3315PP      PP13419  16.164   2.534   8.879  0.0140  0.2448  0.1446
 3316PP      PP13420   8.464   5.489  11.199 -0.2438 -0.0144  0.0965
 3317PP      PP13421   8.523   6.668   8.971 -0.4292 -0.0622 -0.4610
 3318PP      PP13422   3.060  10.711   1.955  0.1862 -0.1006 -0.3866
 3319PP      PP13423   3.681   4.584  11.653 -0.2974  0.2955  0.2259
 3320PP      PP13424  13.739   7.576   3.005 -0.0423  0.1962  0.0755
 3321PP      PP13425  12.059   4.012  11.025  0.1157  0.1907  0.3214
 3322PP      PP13426  14.195   6.892   3.497 -0.0410 -0.0096 -0.1004
 3323PP      PP13427   6.193   0.883   0.729  0.0189 -0.1351  0.0197
 3324PP      PP13428  11.236   1.781  11.394  0.0441  0.2002  0.0028
 3325PP      PP13429   9.861  14.096   0.777  0.4471 -0.1302  0.3035
 3326PP      PP13430  10.544  14.433   1.541  0.0321  0.2984 -0.0377
 3327PP      PP13431  12.983   8.346   9.332 -0.1929  0.2410  0.1932
 3328PP      PP13432  10.290  12.112   1.509 -0.3281  0.0520  0.1373
 3329PP      PP13433  12.089   6.769   1.894 -0.2564  0.0399  0.0915
 3330PP      PP13434   6.032  13.804   1.289 -0.2009 -0.1139 -0.1261
 3331PP      PP13435  12.959  11.579   9.732  0.2092 -0.2738  0.0421
 3332PP      PP13436   7.006   3.551  10.497 -0.1126 -0.0117 -0.0856
 3333PP      PP13437  15.162  10.797  10.877  0.4547 -0.5393  0.0552
 3334PP      PP13438   6.804   7.063   2.381  0.0547 -0.0153  0.1808
 3335PP      PP13439   7.990  14.408  12.032  0.2015 -0.2766 -0.0881
 3336PP      PP13440   2.919  14.561   8.298  0.0916 -0.1166  0.1966
 3337PP      PP13441   6.755   9.718   9.366  0.2915 -0.1029  0.0622
 3338PP      PP13442   7.884   7.886  11.997 -0.2342 -0.0297  0.1049
 3339PP      PP13443   8.454  12.932   3.371 -0.1478 -0.1714  0.0428
 3340PP      PP13444   7.792  12.593  10.449 -0.0955 -0.0473 -0.1011
 3341PP      PP13445  11.976   2.796   2.416  0.1797  0.0644  0.2584
 3342PP      PP13446   3.841   8.346   1.581 -0.0362 -0.2075 -0.1077
 3343PP      PP13447   1.919   2.102  11.710  0.0558 -0.1625  0.1688
 3344PP      PP13448  10.980   4.717  10.824  0.2241  0.3862 -0.0682
 3345PP      PP13449   0.724   0.190   3.338 -0.1721  0.1210  0.0651
 3346PP      PP13450  12.901   3.821   1.658 -0.0184  0.0091 -0.1552
 3347PP      PP13451  10.689   9.645   1.079 -0.0422 -0.0768  0.0846
 3348PP      PP13452  13.429   0.457   3.648 -0.0796 -0.2425 -0.2451
 3349PP      PP13453   2.013  14.405   2.326  0.0994  0.2791  0.0410
 3350PP      PP13454   2.703   2.336   9.175 -0.3413 -0.1797  0.0462
 3351PP      PP13455  14.667   2.196   3.264 -0.2882  0.0323  0.0892
 3352PP      PP13456   1.157  15.518   4.287  0.1048 -0.2570  0.1034
 3353PP      PP13457   3.072   1.139   9.286  0.0393 -0.2548 -0.0433
 3354PP      PP13458   5.691  12.290  10.776  0.0835 -0.1532  0.0821
 3355PP      PP13459   8.341  14.876   1.523 -0.0982  0.0854 -0.0697
 3356PP      PP13460   2.755   5.634   0.595 -0.0183 -0.0662 -0.1131
 3357PP      PP13461  15.325   3.994   1.292  0.0136  0.0879  0.0371
 3358PP      PP13462   5.346   6.313   1.933  0.3123 -0.0210 -0.0002
 3359PP      PP13463   5.236   3.831   1.992 -0.0343  0.0953 -0.1943
 3360PP      PP13464  11.144  12.273  11.327 -0.2668 -0.0189  0.0806
 3361PP      PP13465   1.590  16.029   2.384  0.1196 -0.4435 -0.5737
 3362PP      PP13466   8.146  13.595   1.436  0.0511  0.1069  0.1522
 3363PP      PP13467   6.909   2.868   1.035 -0.3313  0.2384  0.0683
 3364PP      PP13468  15.468  10.976   2.109 -0.3356  0.2333 -0.2982
 3365PP      PP13469  10.910   9.809   2.366 -0.1564  0.4493  0.0164
 3366PP      PP13470  15.260  12.965  10.475  0.0693 -0.0072 -0.0221
 3367PP      PP13471  14.254   5.667   2.943  0.1405  0.1071 -0.1446
 3368PP      PP13472   7.368   2.633   0.880  0.0588 -0.3552  0.0809
 3369PP      PP13473   6.499   3.251   5.135  0.0411 -0.2019 -0.0205
 3370PP      PP13474   9.509  15.992   4.091  0.1134  0.0369 -0.2796
 3371PP      PP13475  15.901   0.219   1.201  0.0266 -0.0360  0.3313
 3372PP      PP13476  14.020   6.784   9.763  0.1352  0.2376 -0.0348
 3373PP      PP13477  12.470  11.647   1.597  0.0164 -0.3471 -0.1009
 3374PP      PP13478  10.781  16.141   3.358  0.2653 -0.2521 -0.3437
 3375PP      PP13479   5.873   5.489   1.515 -0.1545 -0.0599  0.0887
 3376PP      PP13480   8.342   3.589   9.015 -0.0002  0.1804  0.0059
 3377PP      PP13481   0.199  13.545  11.829 -0.0239  0.0737 -0.0112
 3378PP      PP13482  11.623  14.704   1.660  0.1664 -0.1186  0.2270
 3379PP      PP13483   3.928  10.631  10.896 -0.1207  0.0339 -0.2823
 3380PP      PP13484   1.112  10.375   3.009 -0.0526 -0.3201  0.2836
 3381PP      PP13485  12.174   6.805   1.320 -0.2712 -0.1827 -0.1553
 3382PP      PP13486  13.486   9.192   0.460  0.0427  0.3916  0.2625
 3383PP      PP13487  15.251  14.486   3.909 -0.0952 -0.1834  0.0136
 3384PP      PP13488   1.988   0.085  11.975 -0.0543 -0.1682  0.2029
 3385PP      PP13489  15.686   4.988  12.035  0.0205  0.4697 -0.1175
 3386PP      PP13490  11.527   6.595   9.218 -0.2606 -0.1757  0.2848
 3387PP      PP13491   7.493   7.757   3.641 -0.0870 -0.0409  0.0710
 3388PP      PP13492   6.473  11.583  12.173 -0.0304  0.2509 -0.1855
 3389PP      PP13493  15.391   2.831  12.627 -0.4324 -0.2108 -0.2909
 3390PP      PP13494   6.244  11.701  12.566 -0.0818 -0.1252  0.0148
 3391PP      PP13495  14.719   6.713  11.703  0.0847 -0.3312 -0.3426
 3392PP      PP13496   9.222  10.916   1.663 -0.2552  0.1249  0.0738
 3393PP      PP13497   7.361  11.580   2.606  0.0489 -0.0336  0.1022
 3394PP      PP13498   4.501   8.445   9.549  0.3689  0.1650  0.1142
 3395PP      PP13499   6.610   3.805   3.242 -0.2207 -0.0272 -0.2258
 3396PP      PP13500   1.066  13.080   3.021 -0.0414  0.0817 -0.1571
 3397PP      PP13501   9.689  15.539  11.005  0.2297 -0.1527 -0.1155
 3398PP      PP13502   5.190   2.325   9.901  0.2391 -0.0724  0.0117
 3399PP      PP13503   0.636  12.666   0.179 -0.0927  0.0223 -0.0342
 3400PP      PP13504   4.704   0.670  11.065  0.0211 -0.1245 -0.3606
 3401PP      PP13505   1.235   7.216  11.839  0.2534 -0.0505  0.4715
 3402PP      PP13506   7.701   4.676  11.144 -0.0894 -0.1205 -0.0381
 3403PP      PP13507   9.263   9.741   3.830 -0.2764  0.0303 -0.4675
 3404PP      PP13508   1.771  13.852   9.510 -0.2016 -0.0093  0.2315
 3405PP      PP13509  13.214  13.588  12.304  0.2204 -0.0448 -0.2212
 3406PP      PP13510   2.405  14.534   9.897  0.5112 -0.4298 -0.0370
 3407PP      PP13511   8.724  12.052   4.144  0.1276  0.1291  0.2631
 3408PP      PP13512  11.304   6.755   9.990 -0.4358 -0.0258  0.2311
 3409PP      PP13513   1.314  10.085   2.543  0.2454  0.1203 -0.1462
 3410PP      PP13514  10.365  14.262   4.666 -0.2187  0.2170 -0.3577
 3411PP      PP13515   9.557   2.715   0.181 -0.0743 -0.0379 -0.1081
 3412PP      PP13516   0.602  11.750  10.400  0.2000 -0.1167 -0.1083
 3413PP      PP13517  13.939   7.042  10.201 -0.1531  0.2224  0.3074
 3414PP      PP13518   0.409   3.044   0.380 -0.3077 -0.2367  0.3487
 3415PP      PP13519   3.679  10.098  12.441 -0.1170  0.2861 -0.2994
 3416PP      PP13520   5.857   8.050   0.573 -0.0420 -0.1389 -0.0775
 3417PP      PP13521  10.798  15.833   0.923  0.0450 -0.0675  0.2546
 3418PP      PP13522   0.650  13.692   0.556  0.0881 -0.2142 -0.0475
 3419PP      PP13523   7.255   0.316  11.983 -0.3440  0.2503 -0.1597
 3420PP      PP13524  12.834   0.858   2.214 -0.0229  0.2886 -0.1887
 3421PP      PP13525   9.695   5.628   0.269  0.0192 -0.0115 -0.1195
 3422PP      PP13526   4.318   2.099   2.274 -0.1526 -0.1992  0.0636
 3423PP      PP13527   1.718   6.256  11.513  0.2786 -0.0570  0.1033
 3424PP      PP13528  10.376   1.282   2.950 -0.2542 -0.0410  0.0732
 3425PP      PP13529   7.601   9.518   9.768 -0.0563  0.1330  0.2407
 3426PP      PP13530  11.167   9.309   9.570 -0.4860 -0.1388 -0.2357
 3427PP      PP13531  13.343   1.997  11.451 -0.1754 -0.2619 -0.0047
 3428PP      PP13532  13.039  13.004   9.698  0.0498  0.1829  0.0770
 3429PP      PP13533  13.797  13.702  10.989  0.1187 -0.1522  0.1039
 3430PP      PP13534   7.299   1.354  10.544 -0.0246  0.0697  0.2275
 3431PP      PP13535   5.019   6.155   8.025  0.0046 -0.0613 -0.0951
 3432PP      PP13536   7.315  12.771  11.916 -0.1643 -0.2349  0.0901
 3433PP      PP13537   0.012   3.665   8.143  0.1446  0.0599  0.1916
 3434PP      PP13538  10.774   6.831   2.842  0.0176  0.0906  0.2045
 3435PP      PP13539   6.562   5.166   1.021  0.1801 -0.2420  0.2757
 3436PP      PP13540  11.235   0.907   2.961 -0.1093  0.1746 -0.0623
 3437PP      PP13541  15.308  11.268   3.621  0.0703 -0.0842  0.1819
 3438PP      PP13542   3.999  15.123   1.766 -0.0795  0.1288  0.0654
 3439PP      PP13543   2.733   6.563  10.954 -0.0045 -0.0840 -0.0048
 3440PP      PP13544  11.171   7.485  10.574 -0.1202 -0.1423  0.2106
 3441PP      PP13545  14.421   4.959   1.219 -0.1761  0.2756  0.2464
 3442PP      PP13546  15.341  13.924  11.279 -0.2086  0.1201 -0.1835
 3443PP      PP13547   7.996  12.759   3.423  0.0618  0.0499 -0.0917
 3444PP      PP13548   8.911   5.406  10.165 -0.0534  0.0771 -0.0158
 3445PP      PP13549   0.643   0.224   1.391  0.2070  0.2101 -0.0924
 3446PP      PP13550  10.197   8.277  11.504  0.1224  0.2118 -0.1281
 3447PP      PP13551  15.381   4.862   9.615 -0.2137 -0.1728 -0.0422
 3448PP      PP13552   7.884   0.300   0.706  0.1503 -0.0042  0.1042
 3449PP      PP13553   9.615   4.303  12.743  0.2120  0.2528  0.0741
 3450PP      PP13554  13.467   4.676   2.055  0.0587  0.3210 -0.1578
 3451PP      PP13555   3.786  11.519   1.997  0.0960  0.3204  0.1700
 3452PP      PP13556   5.136  11.661  11.531 -0.1033  0.2690  0.1887
 3453PP      PP13557  14.061   3.885   4.466 -0.0619 -0.0409  0.0469
 3454PP      PP13558   4.722   1.278   0.080 -0.0846 -0.0716 -0.2185
 3455PP      PP13559   4.000   4.202   9.545 -0.1413 -0.1458 -0.1745
 3456PP      PP13560   1.403   6.580   9.909 -0.0543 -0.1445 -0.0641
 3457PP      PP13561  10.398  15.038  12.642 -0.1241 -0.1906  0.0968
 3458PP      PP13562   4.709   0.059   2.033 -0.2792  0.1163 -0.3082
 3459PP      PP13563   7.806  10.286   9.863 -0.3590  0.0323 -0.1294
 3460PP      PP13564   4.712   7.789   8.471  0.2505 -0.1436  0.1033
 3461PP      PP13565   8.778   7.679  10.480  0.1291  0.1334  0.0319
 3462PP      PP13566  14.231   5.105   2.445 -0.1011 -0.1143  0.0190
 3463PP      PP13567  13.969   9.457  12.609  0.1775  0.0205  0.1411
 3464PP      PP13568  13.628   8.809   8.166 -0.1191  0.1198 -0.0259
 3465PP      PP13569   1.849   8.195   3.053  0.0411 -0.1150  0.0273
 3466PP      PP13570   9.061  16.009   9.157 -0.1509  0.1798 -0.0937
 3467PP      PP13571   3.376   6.819   0.004 -0.0626 -0.0840 -0.2241
 3468PP      PP13572   5.378  14.438  11.701 -0.0183  0.1658 -0.1233
 3469PP      PP13573  12.121  14.666   4.390 -0.1676  0.2137 -0.0985
 3470PP      PP13574   5.427  15.063   1.002 -0.0321 -0.1576  0.0269
 3471PP      PP13575   0.236  15.265  10.170  0.0220 -0.1482  0.1101
 3472PP      PP13576   8.309   4.989   8.141  0.0590  0.1129  0.0099
 3473PP      PP13577   0.704   6.037  12.324 -0.0820 -0.0753 -0.1220
 3474PP      PP13578  14.371   1.728   2.401 -0.0328  0.1321 -0.1449
 3475PP      PP13579  11.005   5.612   9.447  0.0377  0.1364  0.0137
 3476PP      PP13580   4.650   4.660  12.596  0.1000  0.0589  0.1732
 3477PP      PP13581  12.874   5.788  12.072  0.0282  0.0168 -0.0098
 3478PP      PP13582   3.579  15.499   4.006 -0.3751  0.1382  0.1376
 3479PP      PP13583  13.446  12.137   2.519 -0.0874  0.0297  0.0712
 3480PP      PP13584  11.436   7.599   3.093  0.0623  0.1727  0.0364
 3481PP      PP13585   0.096   4.193   2.511 -0.3096  0.1610  0.0369
 3482PP      PP13586   6.874  14.586  10.477 -0.0558 -0.0589 -0.1981
 3483PP      PP13587  13.272   5.854   8.120  0.1160  0.0460 -0.1395
 3484PP      PP13588   8.112   6.649   3.259 -0.0785 -0.0521  0.1286
 3485PP      PP13589   1.837   9.960  11.914 -0.2845  0.0933  0.0342
 3486PP      PP13590  11.553   6.043  10.328 -0.1176  0.0446 -0.1291
 3487PP      PP13591   8.090  15.609   2.701 -0.2377 -0.4819  0.1845
 3488PP      PP13592  11.952  14.134  12.013  0.1509 -0.1426  0.1970
 3489PP      PP13593   5.670  13.670   9.307 -0.1688 -0.1839  0.1953
 3490PP      PP13594   8.577   1.963   8.299 -0.2661  0.0334  0.0054
 3491PP      PP13595  10.294   0.555   0.963  0.2613  0.1658  0.0969
 3492PP      PP13596   1.238   4.384   3.678  0.1980 -0.2166 -0.0925
 3493PP      PP13597  10.957   3.917  11.813  0.0325 -0.1494  0.0824
 3494PP      PP13598   1.953  12.113   3.186  0.2190 -0.0777  0.0453
 3495PP      PP13599   0.918  12.475  10.349 -0.2846 -0.1838  0.0018
 3496PP      PP13600   2.662   6.837   2.851 -0.0399  0.2719  0.0961
 3497PP      PP13601  10.191  10.009   3.357  0.4371  0.2609  0.2279
 3498PP      PP13602   0.132   9.621  10.920 -0.3934 -0.1154 -0.0169
 3499PP      PP13603   5.736  11.194   3.082  0.1258 -0.0703  0.0408
 3500PP      PP13604   8.928   0.742  11.321 -0.0966 -0.1138  0.0489
 3501PP      PP13605  11.161  12.414   9.688 -0.1579 -0.2114  0.0012
 3502PP      PP13606   4.668  12.883  12.442 -0.0466  0.0568 -0.0430
 3503PP      PP13607   0.726   5.217   9.563  0.1863 -0.2696  0.3990
 3504PP      PP13608   7.117  10.363  12.441  0.1455  0.0647 -0.0926
 3505PP      PP13609   4.853   7.476  12.514 -0.0645 -0.2748 -0.2638
 3506PP      PP13610   5.559   6.465   0.363  0.1217  0.0105  0.0571
 3507PP      PP13611   1.775   0.162   0.564  0.2655  0.3821 -0.3460
 3508PP      PP13612   0.581   6.044   9.164  0.0855  0.1340 -0.4792
 3509PP      PP13613   9.075  15.942   3.852  0.0492 -0.0407  0.2047
 3510PP      PP13614   1.417  10.699   9.484  0.0598  0.1996 -0.4528
 3511PP      PP13615   0.242  11.531  12.331  0.0506  0.1573 -0.1903
 3512PP      PP13616   4.986  13.718   0.787 -0.0604 -0.2053  0.2059
 3513PP      PP13617   0.485  10.760   8.083  0.2381  0.2493 -0.2993
 3514PP      PP13618  14.440   9.100   2.603  0.1609 -0.0535 -0.0155
 3515PP      PP13619   0.851  16.137   1.814 -0.1653  0.1121  0.0289
 3516PP      PP13620  16.176  10.147  11.998  0.1709 -0.0393  0.0757
 3517PP      PP13621   0.866  10.469   8.999 -0.0094 -0.0891 -0.1772
 3518PP      PP13622  11.937   4.786  11.519 -0.2068  0.0381 -0.0064
 3519PP      PP13623  10.456   9.904   8.088  0.2330 -0.0544 -0.1956
 3520PP      PP13624  10.715   2.708   3.006  0.0079  0.1154  0.4352
 3521PP      PP13625   8.264  13.816   3.416  0.0765 -0.0725  0.0314
 3522PP      PP13626  10.332  12.108   4.418  0.0315 -0.1686 -0.3270
 3523PP      PP13627   3.696  11.662   1.071 -0.0211  0.1042 -0.3576
 3524PP      PP13628   3.692   6.266   1.967  0.0545 -0.1686  0.2405
 3525PP      PP13629   1.113   8.968  11.879 -0.0006  0.0666 -0.0065
 3526PP      PP13630  12.177   5.829   9.017 -0.0271  0.1098  0.1571
 3527PP      PP13631  12.932   6.776   2.974 -0.0640 -0.1958  0.0077
 3528PP      PP13632  13.532  14.888  12.174  0.2296  0.1949 -0.1878
 3529PP      PP13633  14.560   6.847   1.861 -0.1043  0.0087  0.0350
 3530PP      PP13634  14.930   4.404  12.703 -0.1002  0.1888  0.1918
 3531PP      PP13635  12.274  14.675   0.922 -0.2305  0.0051  0.3401
 3532PP      PP13636   1.322  13.806   0.316 -0.0947  0.1429  0.3118
 3533PP      PP13637   6.512   6.567  10.445 -0.4270 -0.1552 -0.1977
 3534PP      PP13638   5.506   6.025   4.431  0.2539  0.0461  0.1019
 3535PP      PP13639   9.200  15.043  12.185  0.0249 -0.3667 -0.2310
 3536PP      PP13640   4.405  14.841   3.252 -0.1564 -0.0834  0.1812
 3537PP      PP13641   4.503   6.073  11.273  0.0280 -0.3551  0.0773
 3538PP      PP13642  10.929  12.982   8.829 -0.1349 -0.1248 -0.0424
 3539PP      PP13643  12.398  14.328   3.398  0.1777 -0.2327  0.2765
 3540PP      PP13644   7.299   7.278   2.387  0.1731  0.0833 -0.0912
 3541PP      PP13645   6.005  13.207   2.546 -0.2443 -0.0661  0.2057
 3542PP      PP13646   4.238  11.024   8.226  0.0736 -0.3361 -0.3171
 3543PP      PP13647   3.792  16.181   0.794 -0.0899 -0.4892  0.1337
 3544PP      PP13648  10.249   3.598   8.882  0.0466  0.1180  0.1494
 3545PP      PP13649   8.500   3.560   0.128  0.0669  0.2995  0.0339
 3546PP      PP13650  15.620   0.683   9.029 -0.1399 -0.0161 -0.0242
 3547PP      PP13651   7.988   5.707   1.759  0.0624  0.0102  0.0424
 3548PP      PP13652  12.767   5.868   9.251  0.4626  0.5217 -0.0787
 3549PP      PP13653  13.935   4.081   2.420 -0.1001 -0.1215  0.0282
 3550PP      PP13654   4.485  13.767  12.651  0.1019 -0.0794 -0.0590
 3551PP      PP13655   8.080   7.760   1.664  0.0132 -0.0422  0.1339
 3552PP      PP13656   2.998  14.100   8.755 -0.0778  0.0128 -0.3204
 3553PP      PP13657  10.584   4.418   1.897 -0.0549  0.1049 -0.1980
 3554PP      PP13658   9.365   4.880  11.729  0.2333  0.0986  0.1863
 3555PP      PP13659   9.976   7.675  10.103 -0.3559  0.0566  0.1488
 3556PP      PP13660  10.892   9.592   8.649  0.0695 -0.1257 -0.0995
 3557PP      PP13661   5.431   5.937  11.365 -0.3340 -0.0030 -0.2078
 3558PP      PP13662   2.449   6.184   8.530  0.2082  0.1597  0.1198
 3559PP      PP13663  10.162   6.629  10.513  0.0516 -0.3874  0.0006
 3560PP      PP13664   8.238  14.156   1.509  0.0205 -0.0908  0.0241
 3561PP      PP13665  11.045   4.535   1.701  0.1522  0.1930  0.0065
 3562PP      PP13666   7.283   4.304   3.214  0.0234  0.0762 -0.0993
 3563PP      PP13667   1.119   0.293  11.638 -0.1964 -0.1716 -0.0967
 3564PP      PP13668   8.493   1.589   9.110  0.1384 -0.4136  0.0239
 3565PP      PP13669   9.118   3.203   9.406  0.1807 -0.1019 -0.1436
 3566PP      PP13670   0.576   9.504  10.656 -0.0024  0.0713  0.1513
 3567PP      PP13671   5.519   3.726   3.091 -0.0287  0.1927 -0.2604
 3568PP      PP13672  14.163  13.403  11.201  0.0945 -0.1657 -0.0244
 3569PP      PP13673  10.406  10.969  10.989  0.3848 -0.2528 -0.0079
 3570PP      PP13674  10.947  11.509   9.501  0.1320  0.1851 -0.1142
 3571PP      PP13675   4.810   2.611  11.041 -0.2290  0.2890  0.0617
 3572PP      PP13676  14.842  14.647   9.229 -0.2578 -0.0079  0.1866
 3573PP      PP13677  14.466  10.905   0.220  0.0645  0.3248  0.0216
 3574PP      PP13678  10.564   0.634   9.905 -0.3497 -0.2549  0.0256
 3575PP      PP13679   6.122   0.708   9.792  0.1162 -0.0270 -0.1477
 3576PP      PP13680  12.107  13.325   4.206  0.0506 -0.0250 -0.0501
 3577PP      PP13681  15.069  12.479   9.258 -0.1210 -0.0644 -0.0215
 3578PP      PP13682   0.246   7.078   8.160  0.2343  0.1546  0.2274
 3579PP      PP13683  11.281   1.864   9.455  0.1551  0.3158 -0.0255
 3580PP      PP13684  14.396   0.547   3.949 -0.1319  0.1564 -0.0107
 3581PP      PP13685   5.331   7.738   9.102  0.2733  0.1190  0.1436
 3582PP      PP13686  13.460  13.754   2.769 -0.3582  0.1678  0.1778
 3583PP      PP13687   6.930  13.591   0.093  0.0850  0.2283 -0.5321
 3584PP      PP13688   2.718   0.815   3.576 -0.0702 -0.0842 -0.0094
 3585PP      PP13689   2.950  14.932   0.056  0.1038 -0.0682 -0.1409
 3586PP      PP13690   4.876  12.564  11.650 -0.0778  0.3252 -0.0475
 3587PP      PP13691   8.450   1.391   2.146  0.2249 -0.1050 -0.0445
 3588PP      PP13692   8.764  13.488  10.657  0.0312  0.1132 -0.1964
 3589PP      PP13693   7.815  15.195   0.254  0.2185 -0.0927  0.2449
 3590PP      PP13694   6.625  12.043   9.119 -0.0289  0.1008 -0.0370
 3591PP      PP13695   6.028  13.032   0.376  0.0517  0.1164  0.0017
 3592PP      PP13696   6.891   6.378   7.447  0.0142  0.0688  0.0163
 3593PP      PP13697   7.845   2.669   4.542  0.1134  0.0538 -0.0061
 3594PP      PP13698   6.311   7.911   0.401  0.0516 -0.2935  0.1045
 3595PP      PP13699   2.053  11.565  12.460 -0.0098 -0.4317 -0.1126
 3596PP      PP13700  14.063  11.229   1.089  0.1467 -0.1889 -0.1319
 3597PP      PP13701   5.612   1.874   4.546 -0.0573 -0.2013 -0.2338
 3598PP      PP13702   7.070   8.804   9.680  0.0807  0.0451  0.2075
 3599PP      PP13703   7.482  10.079   1.037 -0.0825  0.5069 -0.0728
 3600PP      PP13704   5.534  12.551   8.566  0.0986  0.1153 -0.0060
 3601PP      PP13705   3.198  16.173   3.517 -0.1857  0.0571  0.1480
 3602PP      PP13706   0.261   0.229   0.298  0.0284  0.1016 -0.0948
 3603PP      PP13707  13.324   5.232   8.713  0.1401  0.0525 -0.0698
 3604PP      PP13708   4.119  15.367   3.917  0.4166  0.3148  0.1153
 3605PP      PP13709   9.880  11.735   3.310  0.2915  0.2668 -0.0820
 3606PP      PP13710   9.986   3.947  10.596 -0.2813 -0.3267  0.0451
 3607PP      PP13711   0.076  14.595   3.102  0.0094  0.1325 -0.0711
 3608PP      PP13712  15.816  15.080  12.244 -0.2985 -0.1817  0.0514
 3609PP      PP13713   1.327   4.464   0.604  0.0035 -0.2122 -0.0905
 3610PP      PP13714  10.555  15.989  10.901 -0.3014  0.0087  0.2145
 3611PP      PP13715   5.563   0.817   0.611  0.3599  0.2946  0.0753
 3612PP      PP13716   1.363  13.203  11.412 -0.1982  0.1040  0.1168
 3613PP      PP13717   3.173  15.554  10.687  0.0087  0.1902  0.3439
 3614PP      PP13718  11.041  10.578   0.200 -0.0557  0.0385  0.0742
 3615PP      PP13719   7.850   7.807   2.137  0.0691  0.0254 -0.2282
 3616PP      PP13720   6.513   2.797   9.286  0.0189  0.0107 -0.1777
 3617PP      PP13721   9.126   3.495  11.361  0.1608  0.2165 -0.2859
 3618PP      PP13722   5.977   8.395  12.362  0.0763  0.1815  0.0516
 3619PP      PP13723   9.540   5.164   1.420  0.5040 -0.2277 -0.0774
 3620PP      PP13724  12.551  11.991  11.914 -0.0151 -0.2026 -0.2405
 3621PP      PP13725   3.216  15.271   1.733  0.1378  0.1864  0.1482
 3622PP      PP13726   2.017   0.721   2.391  0.0282 -0.1295 -0.0241
 3623PP      PP13727  12.009   3.720   3.323  0.0343  0.0841 -0.0340
 3624PP      PP13728   4.797   2.586   1.385 -0.0778  0.0344  0.0803
 3625PP      PP13729   0.015   6.947   2.407  0.0871 -0.2039 -0.1606
 3626PP      PP13730  14.361   1.826   8.474 -0.2328 -0.1392  0.1832
 3627PP      PP13731  16.077   1.306   2.745  0.1307  0.0886 -0.0117
 3628PP      PP13732   4.272  15.159  12.209  0.2342  0.2581 -0.0165
 3629PP      PP13733   7.011  12.354   1.054  0.0623 -0.3985 -0.3117
 3630PP      PP13734  12.880  11.158   8.864 -0.1547 -0.1912 -0.0145
 3631PP      PP13735   3.015  13.579  11.924 -0.1418 -0.2959 -0.3587
 3632PP      PP13736  10.441  12.269  12.102 -0.0542 -0.2537  0.0000
 3633PP      PP13737  13.616  13.402   3.544 -0.2285  0.2481  0.0592
 3634PP      PP13738   9.853  11.977   8.733  0.4517 -0.0585  0.0224
 3635PP      PP13739  10.134   3.442   1.881  0.3591 -0.2085  0.0115
 3636PP      PP13740   5.096  15.882   1.081  0.0733 -0.1678  0.0712
 3637PP      PP13741   7.767  13.104   1.290 -0.0156  0.2981  0.0277
 3638PP      PP13742   2.617   9.200  12.758 -0.2401 -0.0167  0.2621
 3639PP      PP13743   3.674   4.839   7.863  0.1045  0.0828 -0.0822
 3640PP      PP13744   1.905   4.003   1.097 -0.0403  0.3043 -0.1480
 3641PP      PP13745  15.417   1.819   3.118  0.0559  0.0932  0.0275
 3642PP      PP13746  12.679  10.036  11.817  0.1007  0.3184  0.1902
 3643PP      PP13747  10.328   9.949  10.336 -0.1580 -0.0148  0.1861
 3644PP      PP13748   1.230   0.746   9.956  0.2158  0.1086 -0.0940
 3645PP      PP13749  13.655   7.696   1.112  0.0507  0.0568 -0.1452
 3646PP      PP13750   2.487   6.399  11.892 -0.1294  0.1912 -0.0415
 3647PP      PP13751   1.726   8.399  12.025 -0.0664 -0.1483  0.1125
 3648PP      PP13752  11.158   1.627   8.134  0.1064  0.3170  0.2093
 3649PP      PP13753   2.249   5.081   1.510  0.1012 -0.0525 -0.0642
 3650PP      PP13754  14.186  14.255   1.131  0.3857 -0.1444 -0.3585
 3651PP      PP13755   0.274   5.708   0.000 -0.0157  0.0234  0.1742
 3652PP      PP13756   5.518   2.303   3.106  0.0257 -0.1258  0.1171
 3653PP      PP13757  15.581  12.791   0.036  0.0656  0.0683  0.2085
 3654PP      PP13758   9.014   8.580   3.133 -0.1332 -0.0270  0.1345
 3655PP      PP13759   6.140  11.754  11.884 -0.1078  0.2271 -0.0754
 3656PP      PP13760   7.408  12.148   3.785 -0.3993  0.0211  0.2157
 3657PP      PP13761   4.611   0.648   0.005 -0.2446 -0.2454 -0.1993
 3658PP      PP13762  16.042   2.906  11.925  0.2556  0.0289 -0.0835
 3659PP      PP13763   2.828   4.835  11.670  0.0047  0.3658 -0.0833
 3660PP      PP13764  13.065   4.803   9.646  0.3196  0.2961  0.0778
 3661PP      PP13765  13.113  13.498   3.655 -0.0912 -0.1280  0.4281
 3662PP      PP13766   9.548  15.926   4.587 -0.1740 -0.3306 -0.3420
 3663PP      PP13767  14.850   8.198  10.614 -0.1101 -0.0293 -0.3610
 3664PP      PP13768   5.441   3.001   0.817  0.0986 -0.0379 -0.0126
 3665PP      PP13769   2.600  13.153   9.500  0.1480 -0.0751 -0.0069
 3666PP      PP13770   3.194  15.209   9.513  0.1984  0.2612  0.1501
 3667PP      PP13771   4.126  13.594  10.747 -0.1082 -0.0958  0.1040
 3668PP      PP13772   5.695   8.409   2.527  0.0594  0.0868 -0.0130
 3669PP      PP13773   4.539   5.851   8.871 -0.0286 -0.5527  0.1296
 3670PP      PP13774   6.637  14.415   8.463  0.1438 -0.0209 -0.0190
 3671PP      PP13775   8.690  15.844  10.826 -0.1315  0.1091  0.2833
 3672PP      PP13776  15.960   6.923   3.103 -0.3287  0.4681  0.0446
 3673PP      PP13777   7.605   0.294   3.274  0.1735 -0.0880 -0.3205
 3674PP      PP13778   6.996  13.180   0.603 -0.1832  0.1282  0.2436
 3675PP      PP13779  10.725  10.940   8.804 -0.1226 -0.0426 -0.2482
 3676PP      PP13780  14.464   0.434   2.293  0.0563 -0.2214  0.0029
 3677PP      PP13781  13.566   2.729  11.329 -0.2068 -0.3455 -0.0356
 3678PP      PP13782   4.089   3.793   8.799 -0.1507  0.2102  0.0762
 3679PP      PP13783   5.991  13.872   0.300 -0.2395 -0.0562  0.0749
 3680PP      PP13784   7.578   6.403   1.123  0.3354 -0.2796 -0.2838
 3681PP      PP13785   7.381  11.820   9.485  0.1352  0.2555  0.0228
 3682PP      PP13786   5.225  11.269   9.328  0.4627  0.1813  0.0155
 3683PP      PP13787   3.413  13.372   9.331 -0.0603 -0.1327  0.0312
 3684PP      PP13788  11.492   6.409   8.336 -0.1785 -0.2935  0.0313
 3685PP      PP13789   1.384   9.161   3.601 -0.0144  0.2403  0.0750
 3686PP      PP13790   1.930  10.249   8.927 -0.1671  0.0381 -0.1633
 3687PP      PP13791  11.429  10.931  10.917  0.1796 -0.0528 -0.1403
 3688PP      PP13792   5.437   7.368   0.421 -0.1600  0.0404  0.4200
 3689PP      PP13793   7.823  13.793   3.738 -0.0592  0.0096 -0.1459
 3690PP      PP13794  14.974   7.443   3.683 -0.1008  0.0909  0.2947
 3691PP      PP13795  13.370   6.613  12.317 -0.0780 -0.0058 -0.1273
 3692PP      PP13796  13.093   1.250   3.993  0.0368  0.0492 -0.0911
 3693PP      PP13797   6.429  16.297   8.139  0.1960 -0.0409 -0.0529
 3694PP      PP13798   0.698  12.321   0.503 -0.1260 -0.2546 -0.0338
 3695PP      PP13799   8.645  13.452   1.714 -0.3033  0.2307  0.2340
 3696PP      PP13800  14.615   6.238  11.943 -0.0333  0.3509 -0.2175
 3697PP      PP13801  13.550  14.530   1.660  0.2169 -0.3551 -0.1141
 3698PP      PP13802  11.274   6.019  12.669 -0.2957 -0.1598 -0.2628
 3699PP      PP13803  12.732  13.780   3.413 -0.2676 -0.4244 -0.1240
 3700PP      PP13804   8.572  12.627   3.007  0.3524 -0.0469  0.1130
 3701PP      PP13805   5.037  16.001   4.657  0.1193  0.1038  0.0074
 3702PP      PP13806   0.269   2.042  11.961 -0.3703 -0.2424  0.1257
 3703PP      PP13807  11.353   0.142  10.508 -0.0680 -0.0694 -0.1526
 3704PP      PP13808   2.138   3.946  11.710 -0.3559 -0.3168  0.1101
 3705PP      PP13809   1.212   7.692   8.845  0.0803  0.1221  0.0660
 3706PP      PP13810   0.528   4.774   1.527  0.0963  0.1606  0.0089
 3707PP      PP13811   0.232   6.157   2.669  0.0916  0.1641  0.0587
 3708PP      PP13812  13.815   9.674   0.752 -0.3703  0.2452  0.1785
 3709PP      PP13813  11.034  11.843   1.380  0.1719  0.0932  0.1936
 3710PP      PP13814  12.124   4.881   8.962  0.2189 -0.1609 -0.2764
 3711PP      PP13815   0.511  10.384   0.738  0.1180  0.2113 -0.0122
 3712PP      PP13816   4.176  15.564  11.460  0.2046 -0.1244  0.0918
 3713PP      PP13817   2.320   2.126   9.520  0.2528  0.0653 -0.0630
 3714PP      PP13818   5.109  13.642   1.855 -0.0249 -0.0775 -0.1391
 3715PP      PP13819  10.543  16.245   9.593 -0.3109 -0.0492 -0.0454
 3716PP      PP13820  15.259   9.712   1.377 -0.2208 -0.0248 -0.2107
 3717PP      PP13821  14.563  15.136   3.588  0.1433 -0.2340 -0.1023
 3718PP      PP13822   6.834   3.032  10.051  0.0159 -0.2591 -0.0920
 3719PP      PP13823  12.971  13.856   4.029  0.0880 -0.0706 -0.0975
 3720PP      PP13824   6.291   7.576   3.404  0.2037 -0.1087 -0.2260
 3721PP      PP13825  13.410   8.794   0.929  0.2040 -0.0349 -0.4336
 3722PP      PP13826   4.430  10.908   0.127  0.1261 -0.1351 -0.1162
 3723PP      PP13827   4.526  11.808   0.420 -0.3663  0.0643 -0.2906
 3724PP      PP13828   7.664   6.694  12.114 -0.0372 -0.0575 -0.3664
 3725PP      PP13829   0.273  10.108   2.697 -0.0136  0.2462 -0.3305
 3726PP      PP13830   4.965  12.504  12.148  0.0881 -0.1809 -0.1087
 3727PP      PP13831   8.919   8.549   4.090 -0.1102 -0.0630  0.4637
 3728PP      PP13832   2.589   2.869   1.383 -0.0647 -0.0979 -0.0234
 3729PP      PP13833  15.845   6.475   9.938  0.0731 -0.0691  0.1511
 3730PP      PP13834  15.503  12.600   0.964 -0.1761  0.1064  0.1179
 3731PP      PP13835  12.314  12.458   1.828 -0.0100 -0.2407 -0.2105
 3732PP      PP13836  10.393   9.836   0.630  0.0134 -0.0370  0.1244
 3733PP      PP13837  10.795  13.518   4.031 -0.2772 -0.2988  0.1949
 3734PP      PP13838   5.174  10.403   3.236 -0.2288 -0.1820  0.3038
 3735PP      PP13839  15.168   5.080  12.193  0.1896 -0.2558 -0.0123
 3736PP      PP13840  15.325   0.361  11.115 -0.1163  0.0581  0.0916
 3737PP      PP13841  13.887   9.057   0.687 -0.2176  0.1863  0.4476
 3738PP      PP13842  10.044   8.973   9.854  0.0112 -0.0043 -0.0826
 3739PP      PP13843   4.608  15.478  12.481  0.1094  0.0813 -0.0041
 3740PP      PP13844   4.307   8.019   9.585 -0.1292  0.2630  0.1003
 3741PP      PP13845   9.680   7.948   9.684  0.0624  0.1605 -0.0269
 3742PP      PP13846  11.699   0.785  12.614 -0.2307  0.3273 -0.0914
 3743PP      PP13847  14.906  13.744   1.900 -0.2151 -0.1352 -0.0853
 3744PP      PP13848   0.692   7.445   3.500  0.1564 -0.2550  0.2014
 3745PP      PP13849  16.162   7.780   3.014  0.3751 -0.1708  0.2767
 3746PP      PP13850  12.970   6.468   1.048 -0.1172 -0.2006  0.0175
 3747PP      PP13851   9.196   9.859  10.212  0.3807 -0.2533 -0.1942
 3748PP      PP13852   6.531   6.498  11.998 -0.0743 -0.2118  0.1327
 3749PP      PP13853   3.268  15.708   0.225  0.0081 -0.1620 -0.1396
 3750PP      PP13854   7.466  13.602  11.175  0.0088  0.1854 -0.2073
 3751PP      PP13855   4.993   4.963  12.090  0.2933  0.2114  0.1102
 3752PP      PP13856  15.623  15.975   1.179 -0.0666  0.0821  0.0402
 3753PP      PP13857  15.434   8.463   2.026  0.1070 -0.1003 -0.2773
 3754PP      PP13858   2.718   2.401  12.199 -0.1158  0.2334  0.1995
 3755PP      PP13859  14.442   5.382   0.893 -0.3466  0.0548  0.1366
 3756PP      PP13860   2.099   0.368   2.820 -0.1481  0.2401 -0.3136
 3757PP      PP13861   3.288   7.480  11.738 -0.1079  0.4099 -0.2126
 3758PP      PP13862   1.651   2.488   9.175  0.2951  0.0481 -0.1079
 3759PP      PP13863   6.062   4.340  12.715 -0.1961  0.4435  0.0099
 3760PP      PP13864   7.867  12.467   3.040  0.1233 -0.1059 -0.0188
 3761PP      PP13865  12.461   0.910  11.574  0.0716  0.1117 -0.2561
 3762PP      PP13866  14.691  11.754   3.014  0.1542  0.1229 -0.0296
 3763PP      PP13867   2.272  16.003  10.961  0.1676  0.0378 -0.2499
 3764PP      PP13868   9.948  13.750   2.241  0.0220 -0.1496 -0.2299
 3765PP      PP13869   7.776   9.069   1.704 -0.0152 -0.0177 -0.0104
 3766PP      PP13870   8.794   5.675   1.182 -0.0705 -0.0620 -0.1978
 3767PP      PP13871   6.961   8.059   2.483 -0.0060  0.0073  0.1748
 3768PP      PP13872   3.974  10.813   1.236 -0.1416 -0.3712  0.1376
 3769PP      PP13873   1.966   5.673   8.183  0.0497  0.1597  0.1842
 3770PP      PP13874  13.330  14.097   2.033 -0.0373  0.0157 -0.0029
 3771PP      PP13875   9.652   3.525  11.303 -0.3819 -0.0171  0.0373
 3772PP      PP13876   0.112  11.493   9.773  0.1456 -0.0301 -0.2080
 3773PP      PP13877   8.048   6.941  12.297 -0.0621 -0.2218 -0.0149
 3774PP      PP13878   5.506  14.006  12.116  0.1293 -0.2677 -0.2515
 3775PP      PP13879  10.515   5.000   9.864 -0.0167  0.0633 -0.1494
 3776PP      PP13880   3.047   6.690  12.251 -0.0523 -0.0487  0.1060
 3777PP      PP13881  13.243  15.496  10.104 -0.2190  0.0219 -0.1871
 3778PP      PP13882   1.983   0.711   1.265 -0.4634  0.1569  0.0479
 3779PP      PP13883   3.441   0.938   0.109  0.2021 -0.2973  0.0170
 3780PP      PP13884   0.865   2.822   8.959  0.1975  0.0747 -0.0770
 3781PP      PP13885  13.734  14.504   1.071 -0.0690 -0.6994 -0.0687
 3782PP      PP13886   8.073   6.452   2.526  0.3308  0.0428  0.1447
 3783PP      PP13887   5.093   5.281   0.049  0.1310 -0.0842 -0.0468
 3784PP      PP13888  15.914   8.950  11.386 -0.0879  0.0777  0.0843
 3785PP      PP13889   1.901  12.243   3.690 -0.0482  0.1529 -0.1737
 3786PP      PP13890   9.484   0.568   2.396  0.1582  0.0102  0.1700
 3787PP      PP13891   3.968   5.384  11.344 -0.0252  0.1218  0.0204
 3788PP      PP13892   0.814   8.627  10.438  0.1229  0.2366 -0.2741
 3789PP      PP13893   7.932   4.250   7.720 -0.0909 -0.1275 -0.0105
 3790PP      PP13894   5.328   3.536   3.587  0.3686  0.1011 -0.1703
 3791PP      PP13895   7.114   2.047   0.725 -0.1170 -0.0855 -0.0378
 3792PP      PP13896  11.819   5.852   2.490 -0.3821 -0.1908  0.1591
 3793PP      PP13897  11.002   3.542   1.317 -0.3359 -0.1464 -0.0379
 3794PP      PP13898   3.878   7.318  11.984 -0.0627  0.1231 -0.0766
 3795PP      PP13899  10.355   5.027   8.477  0.2532  0.1500  0.1001
 3796PP      PP13900   8.257   7.095   3.621 -0.3937 -0.0365  0.0909
 3797PP      PP13901   3.958  15.671   4.317  0.1489 -0.1522  0.1087
 3798PP      PP13902   2.490   4.762   9.769  0.1777  0.0263 -0.1289
 3799PP      PP13903  15.877  13.920  12.113  0.1173  0.1503 -0.2071
 3800PP      PP13904  12.140   4.537   3.616  0.2981  0.1166 -0.2732
 3801PP      PP13905   4.531   0.391  10.343  0.0547  0.1255  0.0620
 3802PP      PP13906   9.932   0.548   0.569 -0.0075  0.0724 -0.1220
 3803PP      PP13907   2.269  10.179   0.155 -0.1264  0.0972  0.2003
 3804PP      PP13908  14.822   8.902   0.448 -0.0629 -0.3018 -0.1065
 3805PP      PP13909  13.277  11.257   1.788 -0.3698  0.1739 -0.2205
 3806PP      PP13910  13.331  10.308   8.037  0.2848 -0.1127 -0.1779
 3807PP      PP13911   0.538   7.286  10.700 -0.1163  0.0581 -0.0325
 3808PP      PP13912  14.164   6.933  12.291 -0.0013 -0.2485  0.1207
 3809PP      PP13913   0.386  15.782  10.799  0.1911 -0.1016 -0.1280
 3810PP      PP13914  10.218   2.625  12.319 -0.1361  0.0722 -0.0221
 3811PP      PP13915  14.492   4.981   9.433  0.1406 -0.0477  0.1253
 3812PP      PP13916   4.902   9.470   2.092  0.0817  0.1166 -0.0956
 3813PP      PP13917   3.562  15.306   1.343 -0.0913 -0.1956 -0.3141
 3814PP      PP13918   3.394   6.821   0.588 -0.0448 -0.4295 -0.2033
 3815PP      PP13919   8.572  13.589   2.674  0.1182  0.0117  0.1064
 3816PP      PP13920  11.528   9.856   2.980 -0.0968 -0.4434 -0.0861
 3817PP      PP13921  11.856   0.454   8.287  0.3377 -0.0350 -0.1008
 3818PP      PP13922   9.982   7.681  11.080  0.1086 -0.0645  0.1280
 3819PP      PP13923   9.372   3.677  10.929  0.0532 -0.0827 -0.0292
 3820PP      PP13924   8.888  13.475  11.647 -0.3089  0.0196 -0.2026
 3821PP      PP13925  15.683  10.922  10.022  0.0760 -0.1097  0.0908
 3822PP      PP13926  11.136  10.715   3.341  0.0234  0.3196 -0.0391
 3823PP      PP13927   5.316  13.365   9.713  0.1239  0.1024  0.5588
 3824PP      PP13928  13.686  14.489  11.903 -0.0065 -0.2208  0.0083
 3825PP      PP13929   1.589  11.154   3.140 -0.0690  0.1009 -0.0466
 3826PP      PP13930   4.493  13.650  10.171 -0.0704  0.1904  0.0851
 3827PP      PP13931   2.381  15.623   9.449  0.1191 -0.1570  0.2005
 3828PP      PP13932  14.741   2.716   9.547 -0.0023 -0.2101  0.0898
 3829PP      PP13933   7.413  16.074   3.962 -0.2185 -0.0539  0.2922
 3830PP      PP13934  13.436   2.318   9.140 -0.4258 -0.4597 -0.2795
 3831PP      PP13935  14.072   0.787   2.421 -0.2097  0.3869 -0.2000
 3832PP      PP13936   8.045  13.432   4.126  0.0288 -0.0963 -0.0685
 3833PP      PP13937   4.171  11.397   8.653 -0.1271  0.2760 -0.2652
 3834PP      PP13938  13.814   0.519   1.373  0.1086 -0.3013 -0.1306
 3835PP      PP13939   9.383  10.846  12.691  0.0794  0.1495 -0.2350
 3836PP      PP13940   9.558  12.157   1.371 -0.1428  0.0192 -0.1252
 3837PP      PP13941   7.081   1.527   9.592 -0.0994  0.0456 -0.1619
 3838PP      PP13942   2.692   1.457   8.950  0.1192 -0.1937 -0.5137
 3839PP      PP13943  15.251  10.910   9.417 -0.0337  0.1074 -0.3816
 3840PP      PP13944  12.585  15.131  10.517 -0.0199 -0.2648  0.0495
 3841PP      PP13945   9.312  14.231  10.402  0.1933 -0.0125  0.1872
 3842PP      PP13946  12.685   2.141   1.997 -0.3303 -0.1366 -0.1330
 3843PP      PP13947   1.060  13.361   0.189 -0.0601  0.1147 -0.4896
 3844PP      PP13948   5.336   5.097  11.790 -0.4101  0.3545  0.1929
 3845PP      PP13949  11.869   0.886   9.585  0.0525  0.3668 -0.2586
 3846PP      PP13950  12.666  14.262  10.830  0.0586  0.3092 -0.3443
 3847PP      PP13951   6.119   7.937   3.717 -0.2755  0.0522  0.4077
 3848PP      PP13952   8.275   1.843   0.490 -0.0547  0.2842  0.0671
 3849PP      PP13953  15.998   3.804   9.254  0.1609 -0.0482  0.2372
 3850PP      PP13954  14.256  16.133  10.546 -0.0406 -0.3404 -0.0763
 3851PP      PP13955  12.473  13.350  11.911 -0.2615 -0.1288 -0.1306
 3852PP      PP13956   3.248   4.556  11.200 -0.1958  0.0439  0.1189
 3853PP      PP13957   0.122  11.047  10.443  0.4270  0.0926  0.2141
 3854PP      PP13958   3.276   3.124   9.661  0.1022  0.2356 -0.2436
 3855PP      PP13959  15.445  12.951   0.496  0.1080  0.1167  0.0930
 3856PP      PP13960  15.743  12.176  11.794  0.1446 -0.4110 -0.0590
 3857PP      PP13961   0.780  15.950  10.174 -0.0435 -0.2418 -0.0191
 3858PP      PP13962  13.064   0.698   2.660 -0.1549 -0.3936  0.2714
 3859PP      PP13963   5.206   0.088  12.124 -0.0366  0.0156  0.0424
 3860PP      PP13964   9.300   5.261   7.967  0.2704  0.1132  0.3050
 3861PP      PP13965  16.107  12.611   1.128  0.0211 -0.4156  0.4612
 3862PP      PP13966  13.848  10.020  10.503 -0.1595  0.1666 -0.1377
 3863PP      PP13967   4.150   6.621   8.303  0.0175  0.1394 -0.3611
 3864PP      PP13968   4.557   0.604   1.758 -0.0459  0.2445 -0.2022
 3865PP      PP13969   2.434  13.054   0.960 -0.2177  0.0488  0.2684
 3866PP      PP13970  12.542   0.589   1.342 -0.5315  0.1817 -0.1971
 3867PP      PP13971   1.341   1.467  12.696  0.2138  0.1858 -0.0807
 3868PP      PP13972   8.506  14.374   9.743 -0.0608 -0.0622  0.3252
 3869PP      PP13973   4.419   8.608  10.898 -0.0124  0.0148 -0.3030
 3870PP      PP13974   5.166  10.068   0.818  0.1460 -0.3047 -0.1038
 3871PP      PP13975   9.837  13.121  11.614  0.0405  0.0734 -0.0949
 3872PP      PP13976  13.681   8.176   0.165  0.2576 -0.3133  0.0468
 3873PP      PP13977  14.628  15.012  11.666 -0.0487 -0.1829 -0.3573
 3874PP      PP13978   6.121   7.566  11.711  0.2317 -0.0812 -0.2022
 3875PP      PP13979  15.760   3.288  10.490 -0.0116  0.1716 -0.0456
 3876PP      PP13980  10.783   1.907   9.137  0.0559 -0.2309 -0.3722
 3877PP      PP13981  12.410   4.436  10.470  0.2581 -0.0721 -0.0832
 3878PP      PP13982   0.707  15.076  10.313  0.1608 -0.5592 -0.2748
 3879PP      PP13983  15.271   4.743  12.502  0.0985 -0.0193 -0.1362
 3880PP      PP13984   1.336  13.106   9.475  0.3189  0.0480 -0.0328
 3881PP      PP13985   7.862  13.205   9.085  0.2585  0.2602 -0.3650
 3882PP      PP13986   9.333   4.760   8.178  0.0571  0.0127  0.1376
 3883PP      PP13987  15.893   1.835   9.821  0.3526  0.3046  0.1244
 3884PP      PP13988  11.352  13.512   4.783 -0.1666  0.0890  0.1241
 3885PP      PP13989   3.881  12.982   2.280  0.1330 -0.0195  0.3507
 3886PP      PP13990  14.067   2.269  10.810 -0.1554  0.0518  0.3049
 3887PP      PP13991   9.689  14.704   2.174 -0.1954  0.0145 -0.2537
 3888PP      PP13992  12.396   6.295   8.240  0.3103 -0.1436 -0.1261
 3889PP      PP13993  13.304   1.833  10.958  0.3342  0.4201 -0.2162
 3890PP      PP13994   1.167   3.937   0.533 -0.1176  0.1302  0.1824
 3891PP      PP13995   5.017   9.963   3.096  0.0836 -0.0100  0.0136
 3892PP      PP13996  13.366   1.339  10.835  0.1263  0.0846  0.2408
 3893PP      PP13997   6.168   3.327  10.966  0.1891 -0.1922 -0.1049
 3894PP      PP13998   9.829   0.773  11.037  0.0655  0.3158 -0.0258
 3895PP      PP13999   0.607   3.602   2.148 -0.2566 -0.0041  0.1891
 3896PP      PP14000  13.050   1.490   9.421  0.0051  0.0466  0.0331
 3897PP      PP14001   2.797  11.368  12.061 -0.1110  0.0156  0.2649
 3898PP      PP14002   4.834  12.948   3.016 -0.0645 -0.1033  0.1745
 3899PP      PP14003   8.923  15.897   2.165 -0.2010 -0.3558 -0.1891
 3900PP      PP14004   9.997   6.481   7.535 -0.0428  0.1195 -0.2262
 3901PP      PP14005   7.255   3.243   9.103  0.3678 -0.0071  0.1107
 3902PP      PP14006  14.597   4.184   3.777 -0.1673 -0.2031  0.0877
 3903PP      PP14007   8.546  14.233  11.065 -0.0345 -0.0446  0.3477
 3904PP      PP14008  10.032   7.186   8.268 -0.0270 -0.1440 -0.0224
 3905PP      PP14009  14.610  11.461   1.000 -0.1352 -0.1798  0.1020
 3906PP      PP14010  13.644   9.206   2.916  0.2800  0.3816  0.2896
 3907PP      PP14011   0.314  12.131   1.275 -0.0537 -0.0970  0.1791
 3908PP      PP14012  10.344  11.736   0.199 -0.0229 -0.0275  0.2406
 3909PP      PP14013   3.563   1.695   8.370 -0.0148 -0.1050  0.2130
 3910PP      PP14014   8.514   5.170  11.549 -0.0576  0.1092  0.0322
 3911PP      PP14015  15.582   0.892   1.913  0.2074 -0.1769  0.0070
 3912PP      PP14016   5.171  12.544   9.899  0.1739  0.2061 -0.0152
 3913PP      PP14017   5.574  11.887   1.688 -0.1788 -0.0962  0.1845
 3914PP      PP14018  10.261  14.736   0.980 -0.1497  0.2040 -0.0497
 3915PP      PP14019   1.731   4.978   0.627  0.0963 -0.3390 -0.1736
 3916PP      PP14020  11.183  14.478  11.840 -0.2256 -0.0891 -0.0409
 3917PP      PP14021  10.238   8.188  10.983 -0.0023 -0.0934  0.1092
 3918PP      PP14022   1.045   0.920   9.530 -0.4133  0.1899 -0.0703
 3919PP      PP14023  15.275   5.213   2.639  0.1639  0.2422 -0.0501
 3920PP      PP14024   3.461   8.924   1.342  0.4213 -0.2867 -0.1521
 3921PP      PP14025  15.650   2.232   9.697 -0.1141  0.0688  0.1441
 3922PP      PP14026   2.817  13.648   8.661 -0.0358 -0.1215 -0.0285
 3923PP      PP14027  12.086   7.797  12.115 -0.2206  0.0811 -0.3304
 3924PP      PP14028   2.297  11.725  10.222  0.0587  0.2924 -0.0075
 3925PP      PP14029   5.188  11.043   2.154 -0.0336 -0.0024 -0.0210
 3926PP      PP14030  15.198  13.635   2.988  0.1474  0.0504  0.0898
 3927PP      PP14031   3.789   4.124   0.281  0.2650 -0.3336 -0.2046
 3928PP      PP14032  15.302  12.074   2.523  0.3908  0.0948 -0.3547
 3929PP      PP14033   9.861  12.187  11.081 -0.1286  0.0484 -0.0356
 3930PP      PP14034   1.657   8.020  10.603 -0.0473  0.2937  0.0175
 3931PP      PP14035  10.253  12.370   0.166  0.4953  0.1440 -0.0940
 3932PP      PP14036   6.089   2.492  10.458  0.1911 -0.2229 -0.2035
 3933PP      PP14037  11.454   5.265   8.103  0.2248 -0.1265  0.0481
 3934PP      PP14038   7.743  15.854   1.869  0.0190 -0.0296 -0.1382
 3935PP      PP14039  16.338   8.703   1.442 -0.4459 -0.2965 -0.1726
 3936PP      PP14040  14.365   7.439  11.955 -0.0275  0.2134  0.0063
 3937PP      PP14041   5.778   5.408   9.306  0.0270  0.0116 -0.0761
 3938PP      PP14042   5.043   2.954   9.770  0.0939 -0.0370 -0.1508
 3939PP      PP14043  13.188  16.101  10.644  0.4966 -0.1767  0.0799
 3940PP      PP14044   9.863  11.087   8.753 -0.1338 -0.0472  0.3879
 3941PP      PP14045   3.673  14.954  10.836  0.1450  0.0905 -0.2921
 3942PP      PP14046   0.801  11.363   2.087 -0.0718  0.0258 -0.1905
 3943PP      PP14047   6.851   9.855   1.672 -0.0056  0.2348  0.2629
 3944PP      PP14048  13.051   7.031  12.314  0.1212 -0.1579 -0.4304
 3945PP      PP14049  12.863   1.760   4.112 -0.0480  0.0869 -0.2708
 3946PP      PP14050   2.054   3.392   0.762 -0.0835  0.1377  0.1474
 3947PP      PP14051   3.840   1.357   0.206  0.3117 -0.0670 -0.0963
 3948PP      PP14052  15.137   2.635  11.876  0.0470  0.1665  0.1807
 3949PP      PP14053   5.159  15.205   4.614 -0.1005  0.0413 -0.4033
 3950PP      PP14054   2.535   2.087  12.648  0.2300  0.2166  0.1524
 3951PP      PP14055  12.017  11.577   3.837 -0.4689 -0.0819 -0.0024
 3952PP      PP14056   8.082   2.291   8.851 -0.1548  0.0625 -0.0402
 3953PP      PP14057   8.745   3.167   3.575 -0.0180 -0.0857  0.1261
 3954PP      PP14058  12.289  11.872   3.064 -0.2964  0.2185  0.1721
 3955PP      PP14059  11.723  15.789   1.682  0.0749 -0.0797  0.4740
 3956PP      PP14060  14.795   5.171  11.740  0.2240 -0.4056 -0.3247
 3957PP      PP14061  12.292  13.835  11.232  0.1376 -0.0576 -0.0621
 3958PP      PP14062   4.597   1.244   9.093  0.2121 -0.1119  0.1259
 3959PP      PP14063  12.428   2.544   2.075  0.1323 -0.0279 -0.0792
 3960PP      PP14064   7.114   9.119  12.299  0.0175 -0.2890 -0.1819
 3961PP      PP14065  15.578  13.449   3.566  0.0043 -0.0797  0.2131
 3962PP      PP14066   8.299  12.365   0.415 -0.1861  0.0123 -0.1877
 3963PP      PP14067  15.052   6.469  11.973  0.0140  0.1818 -0.0967
 3964PP      PP14068   0.129   8.228  11.129  0.0770 -0.0030  0.0111
 3965PP      PP14069  12.893   1.085   8.617  0.0887  0.1087  0.0077
 3966PP      PP14070   5.618  11.640  11.189  0.2153  0.1009 -0.0457
 3967PP      PP14071   1.898  10.773  10.745  0.2811 -0.0739  0.2503
 3968PP      PP14072   0.942   8.461   9.998 -0.0419  0.1421 -0.1868
 3969PP      PP14073   0.473   6.450  10.901 -0.0603 -0.3218 -0.0207
 3970PP      PP14074   4.975  12.151   2.411  0.0784  0.0182 -0.2619
 3971PP      PP14075   0.932  15.209   2.412 -0.0407 -0.2368  0.1087
 3972PP      PP14076  11.074   1.341   9.569  0.1655  0.2028  0.1297
 3973PP      PP14077  14.602  11.421  11.429 -0.0955  0.1939 -0.0146
 3974PP      PP14078   1.647  10.688   9.080 -0.0761 -0.1729  0.0025
 3975PP      PP14079   6.609  16.209   4.134  0.1594 -0.2151 -0.0827
 3976PP      PP14080   8.976  12.259   3.792 -0.3242 -0.1061 -0.1182
 3977PP      PP14081  12.282  14.829   3.571 -0.0245 -0.1187  0.1145
 3978PP      PP14082   7.243  13.444   4.402  0.0626  0.0038  0.2259
 3979PP      PP14083  12.845   0.390   8.713  0.0136 -0.0034  0.1694
 3980PP      PP14084  11.602   8.141   2.186 -0.1803  0.2008  0.1149
 3981PP      PP14085  14.013  10.836  11.608 -0.1871  0.3453 -0.0188
 3982PP      PP14086   8.030   9.961   3.113 -0.1755  0.1388 -0.2396
 3983PP      PP14087   9.288   4.724  11.175  0.0248  0.1565 -0.1884
 3984PP      PP14088   3.591  10.468  12.703  0.4103 -0.0233 -0.1750
 3985PP      PP14089  12.715  11.227   0.722 -0.2960 -0.1535 -0.0925
 3986PP      PP14090   5.805   4.351  11.235 -0.1559  0.2938  0.2263
 3987PP      PP14091   6.153  11.033   0.142 -0.1316  0.1491 -0.0628
 3988PP      PP14092  10.119  14.258   1.292 -0.1244 -0.1506 -0.0557
 3989PP      PP14093   0.001  10.171   4.381  0.0259  0.1740 -0.4177
 3990PP      PP14094  12.573   4.292  10.991  0.3877 -0.0632  0.1641
 3991PP      PP14095  16.346   2.977   1.549 -0.0842 -0.0131  0.1707
 3992PP      PP14096  11.991   9.320   1.623 -0.2539  0.3098  0.1677
 3993PP      PP14097  14.480  12.634  11.447 -0.0081 -0.1899  0.4348
 3994PP      PP14098   7.677  14.253   4.196  0.4303  0.2430 -0.5674
 3995PP      PP14099   5.593  11.818  10.635 -0.1921 -0.0642  0.3026
 3996PP      PP14100  12.691   3.552   2.157  0.0377 -0.0979 -0.0012
 3997PP      PP14101   1.505  15.960  12.618  0.1917  0.1774 -0.1786
 3998PP      PP14102   8.266   7.932   9.346  0.1826  0.2658 -0.1811
 3999PP      PP14103   8.347   6.604  11.447  0.0699 -0.3236  0.3066
 4000PP      PP14104   6.667  12.898  12.531  0.0781  0.1372 -0.1003
 4001PP      PP14105  15.184  14.940   4.244 -0.1264  0.0639 -0.1154
 4002PP      PP14106   8.953  13.833   4.005  0.2034 -0.0586  0.0104
 4003PP      PP14107  11.925   6.879  10.008 -0.3182 -0.1411  0.2049
 4004PP      PP14108   6.622   0.275   9.818 -0.1096 -0.0772 -0.1808
 4005PP      PP14109   9.289   4.328   8.423 -0.0509 -0.0744  0.0956
 4006PP      PP14110   6.147   3.660   0.620 -0.2432 -0.1443  0.1869
 4007PP      PP14111   6.910   7.301  12.485 -0.0544  0.5438 -0.0509
 4008PP      PP14112   4.340   1.665  11.670  0.1222 -0.0499  0.3099
 4009PP      PP14113   7.096  15.126   1.138  0.2369 -0.0213  0.0604
 4010PP      PP14114   6.970   4.809   2.957 -0.2061  0.0419  0.3271
 4011PP      PP14115  15.927   9.841   8.728  0.1848  0.2841 -0.1590
 4012PP      PP14116  11.671   9.046   3.433 -0.0335 -0.0536  0.2855
 4013PP      PP14117   3.463   4.996   2.996 -0.0579 -0.0340  0.2869
 4014PP      PP14118   1.164   1.116   1.277  0.0114  0.2623 -0.0983
 4015PP      PP14119   4.546  16.303   3.297  0.0393 -0.0957 -0.2344
 4016PP      PP14120   2.289  11.059  10.972 -0.0784 -0.0806  0.1495
 4017PP      PP14121   4.867   4.417   3.270 -0.0617 -0.3196 -0.0350
 4018PP      PP14122   1.932  10.275  10.576  0.0002 -0.1734 -0.2099
 4019PP      PP14123   2.455  11.288   3.437  0.0161  0.1635  0.1037
 4020PP      PP14124   1.407  15.891   3.256 -0.1925  0.0090  0.2697
 4021PP      PP14125  10.843  12.181   3.366  0.0611  0.0940  0.2036
 4022PP      PP14126  12.525   4.228  12.167 -0.0297 -0.4523  0.2895
 4023PP      PP14127   6.780  11.207  10.449  0.0517  0.2020 -0.2353
 4024PP      PP14128   6.337   4.342   9.493  0.1072 -0.1388  0.1297
 4025PP      PP14129  13.843   5.557   0.598 -0.2739  0.2734 -0.0749
 4026PP      PP14130  12.830   9.793   2.983  0.2704  0.0784 -0.2084
 4027PP      PP14131   2.750   9.662  11.817 -0.0624 -0.1936  0.2870
 4028PP      PP14132   8.335   0.436   2.699  0.1033 -0.2709 -0.2498
 4029PP      PP14133  12.873   3.143   3.634  0.0367 -0.1855 -0.3354
 4030PP      PP14134  10.509   4.082   0.047 -0.2122 -0.0347  0.0069
 4031PP      PP14135  14.293  10.249  11.082  0.0158 -0.0878 -0.1096
 4032PP      PP14136   4.455   3.447   0.646  0.0206  0.2916 -0.3306
 4033PP      PP14137   5.581   8.687  12.204  0.1927  0.1218  0.0107
 4034PP      PP14138   1.210   0.152   3.225 -0.0961 -0.3109  0.1989
 4035PP      PP14139   5.570   8.845   9.155  0.0249 -0.3108  0.0542
 4036PP      PP14140  15.973  10.686   1.638 -0.1229  0.3115 -0.2961
 4037PP      PP14141   3.950   1.734   2.694  0.1874 -0.2679  0.1410
 4038PP      PP14142   0.343   7.478   8.930 -0.1638 -0.0961  0.1173
 4039PP      PP14143   0.017   9.679   9.694 -0.3752  0.2194 -0.2918
 4040PP      PP14144  14.202  14.426  10.076  0.0319 -0.3252  0.1054
 4041PP      PP14145  10.809  12.583   1.901 -0.2761  0.2514  0.1603
 4042PP      PP14146   5.542   7.441   3.990 -0.2348 -0.1262 -0.0745
 4043PP      PP14147  14.155   8.269   0.433  0.1473 -0.1552  0.0485
 4044PP      PP14148   8.078   7.087   7.731  0.1730 -0.2340  0.0764
 4045PP      PP14149  14.861   8.772   2.714 -0.0415  0.0130 -0.1694
 4046PP      PP14150   4.207   7.500  11.578  0.1309 -0.1709  0.0558
 4047PP      PP14151  15.105  13.764  12.210  0.0973 -0.1854 -0.1646
 4048PP      PP14152   5.643   4.155   1.964 -0.2004 -0.0510  0.4827
 4049PP      PP14153   3.414   8.301   2.756 -0.2893 -0.1589  0.2963
 4050PP      PP14154  13.457   4.336   2.385 -0.0166 -0.1487  0.0452
 4051PP      PP14155  13.920   7.564   9.238  0.3266  0.1040  0.0136
 4052PP      PP14156   7.250   2.770   8.724  0.3268  0.0041 -0.1109
 4053PP      PP14157  12.122   1.318  10.308 -0.0167  0.1010 -0.1043
 4054PP      PP14158   0.899  14.880   0.997  0.0722  0.1802  0.0756
 4055PP      PP14159   7.643  11.853   2.012  0.1118 -0.3251 -0.0362
 4056PP      PP14160   9.328   6.544   9.674  0.0150 -0.0860  0.0473
 4057PP      PP14161   9.885  15.648   4.814  0.2422 -0.2791 -0.1260
 4058PP      PP14162   1.010   2.612   2.500 -0.0552 -0.1191  0.5829
 4059PP      PP14163   3.286  14.450  11.528 -0.0049  0.1143 -0.1372
 4060PP      PP14164   5.060   5.009   3.349 -0.0333 -0.1046  0.1924
 4061PP      PP14165  11.467   2.118  10.022 -0.2191 -0.1736  0.2085
 4062PP      PP14166   0.589  10.220   9.856 -0.2144  0.2746 -0.0853
 4063PP      PP14167   1.843   7.938   0.061 -0.3245  0.1048  0.0951
 4064PP      PP14168   0.742  11.978   8.129 -0.2818 -0.0400 -0.0075
 4065PP      PP14169   6.778   0.091   0.718 -0.4702  0.0952 -0.2194
 4066PP      PP14170  11.054  12.345   0.532  0.1270 -0.3233 -0.1595
 4067PP      PP14171  15.368   2.779   9.065  0.1429  0.2013  0.0996
 4068PP      PP14172  15.342   6.686   1.343  0.0986 -0.0821 -0.2111
 4069PP      PP14173  11.424  14.389   2.117  0.1444 -0.2550  0.3574
 4070PP      PP14174   0.567   7.215   7.313  0.0560  0.0542  0.1158
 4071PP      PP14175  12.329  14.009   3.060 -0.1032 -0.1317  0.1495
 4072PP      PP14176   5.501   0.556   9.257  0.1247 -0.0646 -0.3049
 4073PP      PP14177   6.755   8.275  12.077  0.0730 -0.0515  0.4188
 4074PP      PP14178   9.643  10.176   0.693 -0.0222  0.1801  0.0307
 4075PP      PP14179   5.892  14.967  10.725 -0.4621 -0.1151 -0.1296
 4076PP      PP14180  13.890   2.009   8.899 -0.0519 -0.0187  0.2263
 4077PP      PP14181  11.413   4.069  11.982 -0.2425  0.3083  0.1871
 4078PP      PP14182   9.727   3.955  11.594  0.3157 -0.1705 -0.0683
 4079PP      PP14183   0.313   1.533   2.124 -0.1507  0.0044  0.1513
 4080PP      PP14184  11.485  11.140   1.916  0.3109  0.1761 -0.3451
 4081PP      PP14185   4.696  10.492   2.285 -0.0353 -0.1072  0.3534
 4082PP      PP14186  10.167   6.533   0.385  0.2111  0.0337  0.0482
 4083PP      PP14187   8.973  14.953   0.937  0.1177 -0.0971  0.0175
 4084PP      PP14188   5.270   8.638   9.646  0.3649  0.0824 -0.0232
 4085PP      PP14189   5.036   9.027  11.410 -0.1384 -0.1079 -0.3340
 4086PP      PP14190  10.834   7.373   9.485 -0.1599  0.0765 -0.2063
 4087PP      PP14191   5.307   1.275  11.445 -0.0498  0.0868 -0.1226
 4088PP      PP14192  11.374   9.751   8.828 -0.0469 -0.1452  0.0646
 4089PP      PP14193  14.089   2.119   3.220  0.3639 -0.0926  0.2047
 4090PP      PP14194   3.903   3.154   2.556 -0.0435  0.0917 -0.0189
 4091PP      PP14195   4.847   4.571   0.296  0.1170 -0.0660  0.0537
 4092PP      PP14196   7.139   0.378   4.652  0.3757  0.0016 -0.4022
 4093PP      PP14197  10.752  10.484   0.594 -0.2983 -0.0320 -0.1668
 4094PP      PP14198   9.694   4.982  10.989  0.0240 -0.0880 -0.0556
 4095PP      PP14199   9.573  14.961   1.451 -0.1241  0.3031  0.1471
 4096PP      PP14200   5.198  13.329   9.191 -0.0817  0.0786  0.0481
 4097PP      PP14201   8.759  10.822   9.364  0.1220 -0.1132  0.1130
 4098PP      PP14202  14.816  11.106   9.562 -0.4610  0.2356 -0.1587
 4099PP      PP14203   3.336  11.258   8.816 -0.2361 -0.2874 -0.0653
 4100PP      PP14204   8.092   0.518   2.180  0.0445  0.2320  0.0996
 4101PP      PP14205   7.010  11.416   9.601  0.0606  0.1191 -0.0743
 4102PP      PP14206  11.349   6.091   9.311  0.3949 -0.1690 -0.0450
 4103PP      PP14207   9.532   6.498   8.640  0.4449  0.2737 -0.2487
 4104PP      PP14208   1.021   1.887   9.291 -0.1104  0.1967 -0.1426
 4105PP      PP14209  14.272   4.062   2.806  0.3770 -0.1981  0.0798
 4106PP      PP14210   0.054  12.658   2.175  0.1499 -0.0957  0.4137
 4107PP      PP14211  15.803   9.715   9.651 -0.2550  0.2394  0.2656
 4108PP      PP14212  14.769  13.185   0.327  0.2930 -0.1024 -0.0556
 4109PP      PP14213   1.563   1.321   2.795 -0.0166 -0.0265 -0.1780
 4110PP      PP14214  12.767  10.073   1.253 -0.1509 -0.0118  0.3441
 4111PP      PP14215  10.384  13.420   0.619  0.1003 -0.1731  0.2644
 4112PP      PP14216  15.513  10.128  12.570  0.1018 -0.2527 -0.1549
 4113PP      PP14217   6.903   7.353  10.042  0.1398  0.0630  0.1164
 4114PP      PP14218  13.981   3.943   9.291  0.1852  0.4683  0.1110
 4115PP      PP14219  10.923   4.672   0.591 -0.3355 -0.0018 -0.0684
 4116PP      PP14220   5.518   5.166   7.806  0.2092 -0.2832 -0.0631
 4117PP      PP14221   7.753   1.167  10.690 -0.0919  0.0109 -0.1062
 4118PP      PP14222  11.519   7.579  12.132 -0.3009 -0.0619  0.0061
 4119PP      PP14223  11.087   1.284   4.286 -0.1077 -0.1398 -0.0435
 4120PP      PP14224  11.909  12.273   4.485 -0.1086 -0.3188  0.1852
 4121PP      PP14225   4.187   7.153   0.692  0.0977  0.4948 -0.0234
 4122PP      PP14226   1.857  15.560   0.674 -0.2149  0.1790 -0.0816
 4123PP      PP14227   5.218   9.653   9.083  0.1415 -0.1121 -0.0264
 4124PP      PP14228   2.173   0.649   9.515 -0.1209 -0.0931 -0.5296
 4125PP      PP14229   9.435  12.999  11.994 -0.1613  0.0719 -0.2286
 4126PP      PP14230  13.705   8.678  10.216  0.1740  0.1114  0.1315
 4127PP      PP14231   3.870   7.156   3.599 -0.0002  0.1371  0.2536
 4128PP      PP14232   2.946   8.711   9.642  0.1876 -0.1400  0.1935
 4129PP      PP14233   3.615   3.150  10.040 -0.1304 -0.2768 -0.0608
 4130PP      PP14234   9.725   6.535   3.707  0.0572 -0.5409 -0.1577
 4131PP      PP14235  14.126  14.552   2.293 -0.1922 -0.2774 -0.0673
 4132PP      PP14236   8.363  12.534   4.643 -0.0880 -0.0857 -0.2413
 4133PP      PP14237   6.387  10.248  11.767  0.2021  0.1403  0.0479
 4134PP      PP14238  15.790  13.023   3.760  0.2478  0.3122  0.2612
 4135PP      PP14239   6.806   5.614   1.206 -0.2205  0.3513  0.0618
 4136PP      PP14240   3.388  11.438   9.873  0.1698 -0.1634 -0.0642
 4137PP      PP14241   7.445  15.215  10.482  0.1117  0.1701  0.2276
 4138PP      PP14242   1.107   3.998   3.949 -0.0673 -0.0783  0.1508
 4139PP      PP14243   2.498   0.058  12.713 -0.2444  0.0339 -0.1423
 4140PP      PP14244   0.196  11.088  12.551  0.0772  0.0227 -0.2034
 4141PP      PP14245   2.800  12.805   3.138  0.0850 -0.2005 -0.0950
 4142PP      PP14246  11.700   0.851  12.130  0.3161  0.1780 -0.1048
 4143PP      PP14247  13.194  11.938   4.584  0.0058 -0.1894 -0.0874
 4144PP      PP14248   3.632   5.987   0.778 -0.1448 -0.0654 -0.1256
 4145PP      PP14249  12.463   3.882   8.178 -0.0964  0.1644 -0.1296
 4146PP      PP14250   3.651   7.472   8.567  0.0038  0.0923  0.1347
 4147PP      PP14251  12.950  15.253   2.675 -0.1515 -0.1306 -0.0569
 4148PP      PP14252  15.587   3.904   2.288  0.1547 -0.0549  0.1973
 4149PP      PP14253  15.967   0.355  11.835 -0.3204  0.2597  0.0616
 4150PP      PP14254  13.486   5.074   1.633 -0.0860 -0.0082 -0.2944
 4151PP      PP14255   4.076  15.727   0.806  0.0487  0.0427  0.0185
 4152PP      PP14256   8.856   9.790   4.206 -0.0121  0.0481  0.1098
 4153PP      PP14257  16.297  12.211  12.417  0.1998  0.2820  0.4427
 4154PP      PP14258  15.088   7.041   4.021  0.0094 -0.0210  0.3806
 4155PP      PP14259   8.109   4.963   1.043 -0.1204  0.1903  0.0793
 4156PP      PP14260   7.938   3.558   2.631  0.2225  0.3021 -0.2838
 4157PP      PP14261   4.910  14.859   9.831 -0.3876  0.4903  0.0128
 4158PP      PP14262  15.275  15.933   8.958  0.2009 -0.0613 -0.1534
 4159PP      PP14263  13.854   1.879  11.742 -0.2581 -0.2721 -0.0455
 4160PP      PP14264   6.083   0.411   1.534 -0.2874  0.0370 -0.1442
 4161PP      PP14265   7.576  10.374   8.990  0.0189  0.1572 -0.3084
 4162PP      PP14266   5.557  11.212  12.195 -0.2271 -0.1001  0.1977
 4163PP      PP14267  12.312   6.843   0.049  0.1962 -0.1885  0.2871
 4164PP      PP14268   2.602   9.378   8.867 -0.1011  0.0925 -0.1223
 4165PP      PP14269   6.415  11.470  11.611  0.1608 -0.1907 -0.1730
 4166PP      PP14270  11.635  12.665   4.750 -0.3833 -0.1265  0.1936
 4167PP      PP14271   0.296   2.271   9.476  0.2470  0.0121  0.0204
 4168PP      PP14272  10.543   0.575  11.274  0.0626  0.2023  0.1489
 4169PP      PP14273  13.436  13.467  11.839  0.2152  0.0766 -0.1366
 4170PP      PP14274   8.154   7.502   9.181  0.0208 -0.0960  0.0072
 4171PP      PP14275   7.690  12.322  10.835 -0.1671  0.3486 -0.0009
 4172PP      PP14276   7.432   0.563   1.967  0.3607  0.1893 -0.0679
 4173PP      PP14277   8.640   3.549   2.387 -0.0672 -0.4708  0.0708
 4174PP      PP14278   0.492   3.241   0.974  0.1977  0.2678 -0.2446
 4175PP      PP14279   7.981   5.009   8.727 -0.0894  0.0786 -0.1205
 4176PP      PP14280   7.976   5.005  11.529 -0.0213 -0.2335 -0.2426
 4177PP      PP14281  14.313   2.062  11.778  0.4832 -0.4095  0.1707
 4178PP      PP14282   7.838   8.629  10.416 -0.0811  0.0157 -0.1139
 4179PP      PP14283  16.351   1.766   3.781 -0.2058  0.1101 -0.0175
 4180PP      PP14284   6.352   8.870   8.563 -0.1756  0.2749  0.2435
 4181PP      PP14285   9.894  13.071  11.082 -0.2827  0.0420  0.1374
 4182PP      PP14286   4.823  15.435   2.317 -0.3253 -0.1689 -0.1222
 4183PP      PP14287   4.405  11.988   3.667 -0.0440  0.2896 -0.0948
 4184PP      PP14288  15.722  15.763   9.178 -0.1038  0.1256  0.0291
 4185PP      PP14289   3.723  12.652   0.142  0.1304  0.2753 -0.1739
 4186PP      PP14290  12.974   0.575   1.185 -0.0366  0.2095 -0.0663
 4187PP      PP14291   7.976   9.096   3.186 -0.0135 -0.0585  0.2407
 4188PP      PP14292  13.464   3.209  12.199  0.1271  0.1538 -0.1102
 4189PP      PP14293   7.129  15.219  11.879 -0.1782  0.0465  0.0320
 4190PP      PP14294   4.478   5.293   3.998 -0.0362 -0.0545  0.3706
 4191PP      PP14295   2.355  15.925   9.893 -0.1169 -0.0333 -0.0660
 4192PP      PP14296  11.447   6.074   9.781  0.1119  0.0434 -0.0669
 4193PP      PP14297   3.267   3.399  10.315 -0.3496  0.0550  0.0360
 4194PP      PP14298   4.997   6.627   8.433  0.1081 -0.0626  0.0367
 4195PP      PP14299   3.246   6.723   8.848  0.1580 -0.0585  0.0557
 4196PP      PP14300  16.291  12.899   9.156  0.1082 -0.1706  0.1365
 4197PP      PP14301   4.329   8.897  10.137  0.2727  0.0960  0.0372
 4198PP      PP14302  12.090  11.286  12.148  0.0677  0.1859  0.0867
 4199PP      PP14303   1.171  10.119  11.416  0.0376  0.3633  0.1641
 4200PP      PP14304  10.280   0.259   2.496 -0.2178 -0.0891 -0.0248
 4201PP      PP14305   7.688  15.343   2.972 -0.2192  0.2982 -0.0134
 4202PP      PP14306   9.624  15.453  10.515 -0.0909  0.0730  0.2163
 4203PP      PP14307  11.226   4.215  10.521  0.3290 -0.0805 -0.1648
 4204PP      PP14308  10.967   9.843  10.277  0.3037  0.1233  0.0084
 4205PP      PP14309  13.958  15.550   3.253  0.2446 -0.1254  0.0160
 4206PP      PP14310  10.648   7.258  12.226 -0.0412  0.0362 -0.0991
 4207PP      PP14311   2.457  14.129   2.196 -0.1044 -0.0856  0.1412
 4208PP      PP14312  12.042  14.196   0.353 -0.0290 -0.1573 -0.1076
 4209PP      PP14313   5.085   2.946  11.971 -0.1933  0.1009 -0.2145
 4210PP      PP14314   4.637  14.972   0.536  0.2030 -0.1277 -0.2593
 4211PP      PP14315  12.605   0.562   0.873 -0.0901  0.2552  0.0766
 4212PP      PP14316   6.626   6.332  12.483  0.3485 -0.0955  0.1432
 4213PP      PP14317   0.869   2.565   3.126  0.1252  0.0855  0.0969
 4214PP      PP14318   9.720  16.206  11.217  0.0568 -0.0033  0.2695
 4215PP      PP14319   1.259   9.747   0.929  0.0389 -0.3414 -0.0271
 4216PP      PP14320   2.109   6.463   9.898 -0.0950 -0.0183  0.3081
 4217PP      PP14321  14.186   8.628   8.013 -0.2774  0.3797  0.2579
 4218PP      PP14322  11.789   6.586   0.715  0.1415 -0.1890  0.0296
 4219PP      PP14323   2.104   5.287   0.604  0.1511  0.0386  0.1411
 4220PP      PP14324   8.103   5.744  12.026  0.0628 -0.0684 -0.0189
 4221PP      PP14325   7.910   4.534   8.592  0.1959  0.3202 -0.0695
 4222PP      PP14326  13.274   7.015   8.779  0.5174 -0.3033  0.1799
 4223PP      PP14327  14.054   0.762   0.983  0.1295 -0.0946  0.0718
 4224PP      PP14328   6.397   1.187  12.231 -0.0290 -0.1638 -0.0541
 4225PP      PP14329  13.100   7.600   0.354 -0.0068 -0.0716  0.2981
 4226PP      PP14330   7.143   7.628   0.900  0.2170  0.0375 -0.0333
 4227PP      PP14331   4.134  15.013  10.700 -0.1355 -0.3075 -0.1110
 4228PP      PP14332  11.981  11.003   2.674 -0.0651 -0.0578  0.1239
 4229PP      PP14333  12.191   4.006   2.154 -0.1139  0.1260 -0.2936
 4230PP      PP14334   5.040  10.571  10.091  0.0545  0.0174  0.0792
 4231PP      PP14335  10.634   7.786   7.724  0.0668  0.0429 -0.0857
 4232PP      PP14336   6.883  14.957   0.337 -0.0541  0.1018 -0.1776
 4233PP      PP14337   6.285  11.171   3.673  0.0684 -0.0507  0.1743
 4234PP      PP14338   7.158   0.717  10.658  0.0162  0.0010 -0.0088
 4235PP      PP14339  12.551   1.119   8.998  0.0790 -0.0166  0.2869
 4236PP      PP14340   8.371  12.044   9.332  0.0281  0.0513 -0.0653
 4237PP      PP14341  15.074  12.409   1.107  0.0656  0.0401  0.2821
 4238PP      PP14342   1.886   7.153   0.267 -0.0836  0.0376 -0.1507
 4239PP      PP14343  10.746   3.743   9.023 -0.0535  0.1809 -0.0839
 4240PP      PP14344   3.391   2.353   1.927 -0.1190 -0.2147  0.0876
 4241PP      PP14345  15.104  15.362  11.613  0.0472  0.2165 -0.0131
 4242PP      PP14346  11.502   0.276   0.874  0.3307  0.0026 -0.2382
 4243PP      PP14347   6.753   8.768  11.972  0.0195 -0.0444  0.0035
 4244PP      PP14348   1.959  10.085  11.457  0.0145 -0.0540  0.0488
 4245PP      PP14349   8.330   7.503  10.742 -0.0241 -0.3281  0.1565
 4246PP      PP14350   1.919   5.821   9.114 -0.1452  0.0655 -0.6236
 4247PP      PP14351  12.046   2.511   8.863  0.1443  0.4803 -0.0407
 4248PP      PP14352   6.846  10.876  12.299  0.0309 -0.0584 -0.1819
 4249PP      PP14353  12.847   7.893   1.844 -0.1674  0.0685 -0.2618
 4250PP      PP14354  12.532  12.062  10.516  0.1426  0.0542  0.0280
 4251PP      PP14355   1.293  13.788   9.037 -0.0806  0.2130  0.2614
 4252PP      PP14356   7.955   1.645  10.083  0.0160  0.3070  0.0858
 4253PP      PP14357   7.195   6.753  11.260 -0.0181 -0.0513  0.0726
 4254PP      PP14358   9.287   2.438   1.370  0.0634 -0.0319 -0.1601
 4255PP      PP14359  15.932  12.538   2.133 -0.0580  0.0214  0.2324
 4256PP      PP14360  11.720   5.405   2.231  0.3152 -0.0227  0.0063
 4257PP      PP14361   7.003  12.554  11.403 -0.1160 -0.2471  0.0863
 4258PP      PP14362   0.002  14.673   8.602  0.0486 -0.0492  0.2424
 4259PP      PP14363   6.209  11.456   3.249  0.1817 -0.0140 -0.1197
 4260PP      PP14364  11.567  15.693  10.046  0.0227 -0.4419  0.3643
 4261PP      PP14365   8.069   5.839   3.828 -0.0787  0.2568 -0.1558
 4262PP      PP14366  12.475  13.776  10.656  0.1370  0.1323  0.1618
 4263PP      PP14367  10.242   7.696   2.849 -0.1606 -0.0201 -0.1578
 4264PP      PP14368   2.906  11.475  10.118  0.1294  0.0336 -0.0148
 4265PP      PP14369   8.812  10.649   1.274 -0.1968  0.0441  0.0114
 4266PP      PP14370   6.993   3.706   9.217  0.0305  0.1688  0.4146
 4267PP      PP14371  11.929   2.652   0.765 -0.1199  0.1448 -0.2879
 4268PP      PP14372  13.742   9.911   1.219  0.3661 -0.0560 -0.1092
 4269PP      PP14373   9.150  16.185  11.970 -0.0579  0.1185  0.0829
 4270PP      PP14374   3.341   4.400   2.056  0.1424 -0.1248  0.2629
 4271PP      PP14375  11.008  11.523   2.795  0.1404  0.2531 -0.1671
 4272PP      PP14376  10.072  15.821  12.020 -0.0695 -0.1511 -0.1621
 4273PP      PP14377  10.710  15.218  12.224 -0.3779 -0.1290 -0.1893
 4274PP      PP14378  14.722   0.680   3.287 -0.1425  0.3803  0.1096
 4275PP      PP14379  10.056  11.349   3.959 -0.0596  0.3570 -0.0608
 4276PP      PP14380   5.442  15.467  11.492  0.1658  0.0773  0.3867
 4277PP      PP14381   8.826   2.875   8.728 -0.1397  0.1072 -0.0304
 4278PP      PP14382   6.863  11.286  12.041 -0.1783  0.0763 -0.3556
 4279PP      PP14383  14.603   7.448   0.016 -0.0590  0.0886 -0.1064
 4280PP      PP14384  11.748  12.103   3.302  0.0180  0.1125  0.0144
 4281PP      PP14385   9.890   0.863   1.762 -0.4245  0.2986 -0.3132
 4282PP      PP14386   0.599   0.202  11.776  0.0446 -0.2027  0.1243
 4283PP      PP14387  11.785   9.420   0.702 -0.0034  0.1051  0.0055
 4284PP      PP14388  16.288  13.768  11.328  0.1398 -0.0337 -0.1648
 4285PP      PP14389  14.109   8.564   1.414 -0.1512 -0.0588  0.1589
 4286PP      PP14390   0.291  10.999   9.898  0.2642 -0.0620  0.0906
 4287PP      PP14391   2.488  10.827   8.889 -0.3660 -0.0561 -0.0128
 4288PP      PP14392  10.586   4.875   3.342  0.1502  0.1718  0.0218
 4289PP      PP14393  14.619  13.595   9.417  0.0050 -0.0641  0.3031
 4290PP      PP14394   6.279   6.628   1.018  0.1460 -0.1098  0.0930
 4291PP      PP14395  13.689   8.494   7.787 -0.1842  0.2362 -0.1315
 4292PP      PP14396   6.489  15.975   2.746  0.1458  0.0363  0.0309
 4293PP      PP14397  12.463   0.506  11.316  0.1538 -0.3059  0.1235
 4294PP      PP14398   5.240  10.443   2.243  0.3221  0.0149 -0.0678
 4295PP      PP14399   9.272  10.979  11.636  0.0604 -0.2129 -0.1541
 4296PP      PP14400  11.916   6.423   0.214 -0.0460  0.2549  0.1083
 4297PP      PP14401   7.404   4.187   1.547  0.2418 -0.0473  0.0527
 4298PP      PP14402   7.558   2.157   1.310  0.0243 -0.0927  0.0269
 4299PP      PP14403   4.635  11.908   8.687  0.0570  0.3761 -0.2020
 4300PP      PP14404   0.285   0.180   3.973  0.0775 -0.1213 -0.0789
 4301PP      PP14405   8.600   9.484  10.961 -0.1974 -0.4143  0.0518
 4302PP      PP14406   8.206  11.553   8.897 -0.1109 -0.0419  0.0996
 4303PP      PP14407  12.971  13.375   3.171 -0.0962  0.0133 -0.0182
 4304PP      PP14408   2.614   2.730  10.836  0.2068 -0.0236 -0.1294
 4305PP      PP14409  12.927  10.413   9.114 -0.2464 -0.0915  0.3634
 4306PP      PP14410   9.820  13.390   9.581 -0.1239  0.0821 -0.4164
 4307PP      PP14411  15.492  13.435  11.971  0.0901 -0.4325  0.1035
 4308PP      PP14412  13.029   7.200   2.693 -0.0155  0.1384 -0.0556
 4309PP      PP14413   6.753   2.475  12.019 -0.1362  0.0420  0.2160
 4310PP      PP14414  15.597  10.646   0.363  0.0085  0.0213 -0.1611
 4311PP      PP14415  11.450   8.544   1.890 -0.0974  0.1073 -0.1879
 4312PP      PP14416   6.808   6.846  12.704  0.0218  0.0494 -0.0829
 4313PP      PP14417   2.937  15.687  12.465  0.0144 -0.0712  0.2206
 4314PP      PP14418  11.143  13.091   9.312 -0.0241  0.0301 -0.1272
 4315PP      PP14419   8.689   9.045   3.824  0.2924 -0.0245  0.2088
 4316PP      PP14420  10.642   7.813   1.225  0.1268  0.2174 -0.3420
 4317PP      PP14421   4.232  13.040   7.846 -0.2088  0.0921 -0.0306
 4318PP      PP14422  11.317  12.845   9.917  0.0472 -0.0958  0.1161
 4319PP      PP14423  13.107   5.497   1.177  0.0550 -0.0853 -0.1400
 4320PP      PP14424  11.786  11.069  12.509 -0.0087 -0.2841  0.0268
 4321PP      PP14425  11.385  13.989  11.943 -0.4039 -0.0904 -0.0982
 4322PP      PP14426   5.352   7.166   8.721  0.2046  0.1365  0.2008
 4323PP      PP14427  12.261   7.495  10.090  0.0574  0.2176  0.1964
 4324PP      PP14428   1.848   2.263   9.605  0.1363 -0.0996  0.2175
 4325PP      PP14429   4.790   4.936   8.570 -0.1427 -0.3946  0.3498
 4326PP      PP14430  12.582   4.871  11.966 -0.0783  0.0919 -0.0385
 4327PP      PP14431   3.318  12.522   9.330 -0.2449  0.1172 -0.1020
 4328PP      PP14432   8.569   2.478   2.205 -0.3294  0.0716 -0.0020
 4329PP      PP14433  10.529   0.237  11.612 -0.3054 -0.0363 -0.2612
 4330PP      PP14434  15.374  10.058   8.183 -0.0092 -0.0093  0.1033
 4331PP      PP14435   4.686   2.565   8.886  0.0513  0.0363  0.1332
 4332PP      PP14436   6.440   7.867  11.937 -0.0014  0.3117 -0.2689
 4333PP      PP14437  16.187   5.340  12.586  0.2262  0.0512  0.2938
 4334PP      PP14438   7.587   8.365  12.279  0.2965 -0.1422  0.1437
 4335PP      PP14439  15.106   9.727   8.521  0.1799  0.0557  0.0475
 4336PP      PP14440   2.719   3.142   2.973 -0.0872  0.3792 -0.1971
 4337PP      PP14441  10.825   6.025   9.728  0.1777 -0.0376 -0.0608
 4338PP      PP14442   2.386   4.871  11.456 -0.0213 -0.0971  0.3378
 4339PP      PP14443   5.287   4.439   1.912  0.0012  0.1057 -0.4163
 4340PP      PP14444  14.754  12.977  12.519  0.0613  0.0390  0.2467
 4341PP      PP14445  11.557  11.299   2.694  0.2378  0.2172  0.0900
 4342PP      PP14446   0.822   9.173   9.164  0.0734  0.2028 -0.0305
 4343PP      PP14447   9.077  12.507   1.297 -0.0705  0.3192 -0.0123
 4344PP      PP14448  13.418  13.287   1.568 -0.1173 -0.4699 -0.0884
 4345PP      PP14449  15.890   2.708  10.784  0.0753 -0.0408  0.2021
 4346PP      PP14450   6.102   1.896   3.676 -0.4383 -0.1890 -0.1086
 4347PP      PP14451   5.200   7.682   4.224  0.2723  0.1784 -0.3051
 4348PP      PP14452  10.862  15.756  12.453  0.1722 -0.2132 -0.2519
 4349PP      PP14453  11.619   7.058   2.108 -0.0185 -0.1900  0.1650
 4350PP      PP14454   2.307   1.504   2.152 -0.0138 -0.2060 -0.0094
 4351PP      PP14455  10.853   8.003   2.418  0.3298 -0.1194 -0.2157
 4352PP      PP14456   8.218   5.621  10.774  0.0808 -0.0496  0.2357
 4353PP      PP14457   2.015   7.576  10.619  0.0797 -0.3888  0.2943
 4354PP      PP14458   2.002  11.038  11.778 -0.0977 -0.1062 -0.2458
 4355PP      PP14459   5.496  13.936   1.378 -0.1392  0.0491 -0.3113
 4356PP      PP14460  13.773  10.864   8.628  0.2940  0.1079  0.0863
 4357PP      PP14461   3.752  12.798  11.828  0.1251 -0.2509  0.3793
 4358PP      PP14462   5.865   0.230   2.334 -0.0492 -0.2909  0.0968
 4359PP      PP14463   8.700  15.443   0.822 -0.2738  0.2007  0.0462
 4360PP      PP14464   1.994   3.922  10.082 -0.1427 -0.0343 -0.0211
 4361PP      PP14465   2.836   9.036   9.271  0.0246 -0.0637  0.1852
 4362PP      PP14466   5.015   0.946   0.271 -0.1182  0.3803 -0.0354
 4363PP      PP14467   7.751  15.759   9.349 -0.1553  0.2453  0.2609
 4364PP      PP14468   9.047  10.695  10.512  0.1317 -0.0301 -0.1840
 4365PP      PP14469   0.354   2.252  11.525  0.0385  0.0592 -0.1090
 4366PP      PP14470   8.822  10.259  11.439 -0.0994  0.0245  0.4286
 4367PP      PP14471   3.460   1.482   0.837  0.0630  0.1752 -0.1044
 4368PP      PP14472   7.728   4.319   4.108  0.1555 -0.0294 -0.0589
 4369PP      PP14473   5.245   0.451   9.692  0.1297 -0.2719  0.1747
 4370PP      PP14474   2.596   2.957  12.744  0.1854  0.1593  0.2320
 4371PP      PP14475  15.036   5.706   8.225 -0.2058 -0.2668 -0.1731
 4372PP      PP14476  11.720   4.023   9.194 -0.0736  0.0157 -0.1889
 4373PP      PP14477   1.330   9.916   2.007 -0.1732 -0.0268  0.0403
 4374PP      PP14478   0.418  12.254  11.686  0.0682  0.2942  0.5001
 4375PP      PP14479   6.341  14.653   8.808 -0.1704 -0.0646  0.2633
 4376PP      PP14480  15.187   2.117   8.317  0.4940 -0.0353 -0.1086
 4377PP      PP14481   2.472   6.272  12.357 -0.1937 -0.1598 -0.2670
 4378PP      PP14482   5.290   5.622   3.472 -0.0080  0.2414  0.1927
 4379PP      PP14483  15.999  16.087   9.447 -0.3288  0.3469  0.0360
 4380PP      PP14484   7.193  12.083   2.668  0.0529 -0.1178  0.0897
 4381PP      PP14485   6.986   4.901   9.623  0.0079  0.2379  0.4287
 4382PP      PP14486  10.359   1.658  11.012 -0.2382  0.0227  0.0412
 4383PP      PP14487   8.386  10.457   8.458 -0.0225 -0.0790  0.0401
 4384PP      PP14488   9.238   8.163   8.637  0.1646 -0.2100  0.1472
 4385PP      PP14489   1.137   1.764   9.887  0.1502  0.1603  0.0502
 4386PP      PP14490  12.081   3.101   8.799 -0.2276  0.2557  0.0900
 4387PP      PP14491  16.035   9.022   2.851 -0.0220  0.0284 -0.2219
 4388PP      PP14492  12.242  15.927   1.721  0.1577 -0.3668 -0.1792
 4389PP      PP14493  15.421  11.394   1.234 -0.0570 -0.1121  0.1837
 4390PP      PP14494   9.465  13.886   3.100  0.1357  0.0786 -0.2135
 4391PP      PP14495   4.694   6.247   1.860  0.3625 -0.0399 -0.1247
 4392PP      PP14496  11.918  11.539   4.935 -0.0365  0.2859  0.2730
 4393PP      PP14497   3.519   8.703   2.395 -0.0012  0.0366 -0.1174
 4394PP      PP14498   5.252   4.042   3.446  0.1214 -0.0334  0.1001
 4395PP      PP14499  10.581  11.787  11.536  0.0422 -0.2071  0.3011
 4396PP      PP14500   1.028   3.764  10.903 -0.1372  0.1226 -0.0351
 4397PP      PP14501  15.208   4.688   2.920  0.0145  0.2579 -0.3843
 4398PP      PP14502   9.593   1.704   1.081  0.0910  0.0226 -0.2813
 4399PP      PP14503   7.120  11.896  12.621  0.2208  0.2474  0.1185
 4400PP      PP14504   1.644   4.077   4.210 -0.0610  0.0705 -0.1396
 4401PP      PP14505   6.690   7.505  10.774  0.2585 -0.1002 -0.2165
 4402PP      PP14506  11.719  14.030   2.288  0.2542 -0.0509  0.1607
 4403PP      PP14507   6.738  16.246  11.466  0.1821 -0.1925 -0.2330
 4404PP      PP14508   1.234   0.703   9.065  0.2698  0.0303  0.1039
 4405PP      PP14509   9.218   0.336   4.691 -0.1825 -0.2326  0.2143
 4406PP      PP14510   8.799  12.648  12.039  0.1369  0.1271  0.2076
 4407PP      PP14511   1.374   5.668   8.064 -0.0758  0.1710 -0.1033
 4408PP      PP14512   5.717   0.351   3.481  0.0972 -0.0661  0.1051
 4409PP      PP14513  11.609   7.136   3.190 -0.0261 -0.0337  0.0285
 4410PP      PP14514  13.331  11.765   1.496 -0.0866 -0.4812 -0.0241
 4411PP      PP14515  11.312   7.145   7.868 -0.0810 -0.0157  0.0445
 4412PP      PP14516   4.711  10.224   3.556 -0.1318 -0.2190 -0.0202
 4413PP      PP14517  15.772   2.637   9.372  0.2353 -0.1224 -0.1483
 4414PP      PP14518  15.261   4.868  10.485  0.2647 -0.0855 -0.1312
 4415PP      PP14519   0.211  14.665   0.131  0.0932 -0.2837  0.3595
 4416PP      PP14520   9.215   8.176  12.681 -0.1317  0.3016  0.0402
 4417PP      PP14521  12.602  13.613   2.883  0.0037 -0.0155  0.0713
 4418PP      PP14522  14.937   6.383   3.203 -0.2471  0.2216 -0.3819
 4419PP      PP14523   1.911   8.383   3.535  0.1818  0.2030 -0.0839
 4420PP      PP14524   4.043   3.048   9.806  0.0429 -0.1153 -0.0230
 4421PP      PP14525   0.847  10.883   9.304 -0.1868 -0.1159  0.0233
 4422PP      PP14526   4.605   0.242  10.832  0.1861  0.1139 -0.5103
 4423PP      PP14527  10.137   2.458  10.795  0.0977 -0.1459  0.1008
 4424PP      PP14528  13.847   3.277  12.508 -0.0745 -0.0307 -0.3950
 4425PP      PP14529   1.648  15.110   3.736  0.1959 -0.1019  0.1546
 4426PP      PP14530   3.719   0.305  11.119 -0.0523 -0.0676  0.1253
 4427PP      PP14531   2.734  15.922   2.106  0.1207 -0.2379  0.0264
 4428PP      PP14532   9.495  14.670   4.636 -0.1146  0.0854 -0.0646
 4429PP      PP14533   0.256   0.395  11.066  0.1604 -0.0067 -0.0053
 4430PP      PP14534  10.506  13.909   8.970  0.1667  0.1222 -0.0241
 4431PP      PP14535   7.639   0.798   8.913  0.0725  0.2458  0.1500
 4432PP      PP14536  12.319  12.306  10.179 -0.1610  0.1792  0.0016
 4433PP      PP14537   0.200   2.340   1.111 -0.2175  0.2228  0.1338
 4434PP      PP14538  10.672  15.057  11.044  0.1037 -0.2739 -0.3862
 4435PP      PP14539   3.943  10.793   2.760 -0.1131  0.5296 -0.1875
 4436PP      PP14540   8.800   8.983   2.420  0.0086  0.0510 -0.2303
 4437PP      PP14541  12.882   0.619   9.192  0.2701 -0.2182  0.1058
 4438PP      PP14542  15.386   9.638  11.490  0.1374 -0.0105 -0.1997
 4439PP      PP14543  11.409  14.848  11.538 -0.0406 -0.2803 -0.0067
 4440PP      PP14544   1.485  15.236  12.710  0.0765 -0.2048  0.1198
 4441PP      PP14545  16.067   3.304   4.122 -0.2281 -0.0118 -0.1242
 4442PP      PP14546   4.312  13.848   0.731 -0.0942 -0.2182  0.0369
 4443PP      PP14547   7.591   8.805   2.134 -0.4672  0.2708 -0.2882
 4444PP      PP14548  16.148   0.292   0.326  0.0674  0.1757  0.1309
 4445PP      PP14549  15.085   8.618  10.856 -0.2847  0.3232  0.5434
 4446PP      PP14550   8.304   9.185   9.434 -0.2805  0.0290 -0.1535
 4447PP      PP14551  16.295   9.792   2.545 -0.1667  0.1166 -0.0030
 4448PP      PP14552   6.032   1.238   2.097  0.0976 -0.4308 -0.0332
 4449PP      PP14553  13.685   2.134  12.555  0.0217  0.1382  0.2890
 4450PP      PP14554  10.217  11.097   0.599  0.1273 -0.1324  0.2462
 4451PP      PP14555  10.205   3.352   0.027  0.0706  0.0834 -0.0957
 4452PP      PP14556   0.537  14.775   2.882  0.2447  0.0854  0.2343
 4453PP      PP14557  10.911   2.851   9.071  0.2738 -0.1068  0.0737
 4454PP      PP14558   8.919  14.366  11.898  0.0425 -0.3679  0.1518
 4455PP      PP14559  15.146   1.157   1.049  0.2319  0.0576 -0.0919
 4456PP      PP14560  15.319  10.341  10.844  0.0323  0.0191 -0.2814
 4457PP      PP14561   8.401   5.153   4.629  0.3698 -0.2630  0.3165
 4458PP      PP14562   7.173   6.307   2.056 -0.0456  0.0871 -0.0168
 4459PP      PP14563  12.635  16.003   1.276  0.0281  0.4842  0.1501
 4460PP      PP14564   5.986  12.230   2.932 -0.2694  0.0726 -0.1250
 4461PP      PP14565   9.068  14.115   3.296  0.5208  0.3912  0.1203
 4462PP      PP14566  12.541  14.847  11.028 -0.0245  0.1141 -0.2112
 4463PP      PP14567  12.448   1.544   1.264 -0.0492  0.3835  0.2686
 4464PP      PP14568  12.035  13.717   2.486  0.0051  0.0015 -0.3763
 4465PP      PP14569   8.952   9.450   3.592  0.0136 -0.3078 -0.4780
 4466PP      PP14570   2.603   0.501  12.486 -0.0837  0.2702 -0.1333
 4467PP      PP14571  14.936  10.514   3.301  0.1308  0.0948 -0.3363
 4468PP      PP14572  14.271  12.612   9.232 -0.0905  0.2203 -0.1352
 4469PP      PP14573  15.894  14.261   0.288 -0.2204  0.2355 -0.2335
 4470PP      PP14574   5.900   6.536  10.146 -0.0503 -0.2057  0.4319
 4471PP      PP14575   3.230   4.107   3.220  0.1457  0.2365  0.1419
 4472PP      PP14576  10.406  13.821  10.528 -0.0196  0.2317  0.0137
 4473PP      PP14577  13.666   7.606   9.819 -0.2061 -0.2348 -0.3103
 4474PP      PP14578  12.559  11.159  10.875  0.0155  0.0077  0.2649
 4475PP      PP14579  16.295   5.426   0.372  0.2096  0.4579  0.2764
 4476PP      PP14580  13.311   2.766   3.843 -0.0827  0.3816  0.0646
 4477PP      PP14581  10.470  13.024   3.396  0.1204 -0.0365  0.0621
 4478PP      PP14582   2.330   0.571   3.723  0.2476 -0.0033  0.2159
 4479PP      PP14583   2.934   8.962   8.804  0.0026  0.4642  0.1402
 4480PP      PP14584   8.801  15.742  11.309 -0.2191  0.1538  0.2724
 4481PP      PP14585  14.876  15.468  11.192 -0.1152  0.1848 -0.1143
 4482PP      PP14586   8.306   4.483  10.338 -0.2106 -0.1739 -0.1026
 4483PP      PP14587   2.870   3.363   2.583 -0.1630 -0.1299  0.2932
 4484PP      PP14588   1.619   7.838   9.650 -0.2672  0.0809 -0.3184
 4485PP      PP14589   8.219   5.314   0.568 -0.0161  0.1014 -0.0763
 4486PP      PP14590   8.158   7.148  10.460 -0.0763  0.1099 -0.1113
 4487PP      PP14591   1.601  14.646   3.530 -0.3492 -0.1046 -0.2883
 4488PP      PP14592   7.592   5.250   2.401 -0.2875 -0.1363  0.2039
 4489PP      PP14593   5.337   5.768  10.927 -0.0244  0.1585 -0.2072
 4490PP      PP14594   0.115   7.486  11.515 -0.0335  0.2386 -0.1254
 4491PP      PP14595  14.012   2.259   0.737  0.1274 -0.2215  0.2355
 4492PP      PP14596   6.279   1.616   1.845 -0.1967  0.0083 -0.2108
 4493PP      PP14597  13.174   8.518  10.839  0.1543 -0.0412 -0.0902
 4494PP      PP14598  13.822   3.293   8.630  0.1538 -0.0052  0.1332
 4495PP      PP14599  13.109   6.455   8.799 -0.1672 -0.0834  0.2965
 4496PP      PP14600   2.924   0.083   8.456 -0.1814  0.2961  0.2991
 4497PP      PP14601   5.899  15.688   9.405 -0.1140 -0.1741 -0.2337
 4498PP      PP14602  10.875  10.719  10.208 -0.2303 -0.0675  0.3734
 4499PP      PP14603  10.400   7.684   9.641  0.2613 -0.4454 -0.0106
 4500PP      PP14604   3.713   7.539  11.522 -0.0323  0.3072  0.1339
 4501PP      PP14605   6.148  13.994   9.352 -0.3500 -0.0986 -0.3268
 4502PP      PP14606   9.896   4.285   8.846  0.1728 -0.3502  0.1485
 4503PP      PP14607   2.285   6.949   3.626  0.0967  0.1818  0.0419
 4504PP      PP14608  11.987   2.679   8.001  0.1633  0.1948 -0.0413
 4505PP      PP14609  14.403  12.212   0.712 -0.3376 -0.0895  0.0382
 4506PP      PP14610  14.003  13.844  10.477  0.2043  0.0003 -0.1097
 4507PP      PP14611  15.802   9.285   8.697  0.1914  0.0604 -0.1238
 4508PP      PP14612   3.422   7.242   2.120  0.0415  0.1960  0.0948
 4509PP      PP14613  11.908  10.254   9.404 -0.4912  0.0510 -0.0089
 4510PP      PP14614   7.973   6.993   8.297  0.2097 -0.2769 -0.3573
 4511PP      PP14615  11.866   2.891   9.256  0.3282 -0.0935  0.1297
 4512PP      PP14616   5.849   1.978   2.512 -0.1525  0.1284  0.2977
 4513PP      PP14617   6.856   1.989   9.791 -0.2895 -0.0137  0.1433
 4514PP      PP14618  12.353  14.231  10.356 -0.0136  0.1582  0.0374
 4515PP      PP14619  10.019   9.801   8.437 -0.1368 -0.2244 -0.0582
 4516PP      PP14620   4.064  11.611   3.649  0.1175 -0.0905  0.1263
 4517PP      PP14621  10.581  10.247  10.087 -0.0988 -0.3356 -0.2002
 4518PP      PP14622   8.947  11.353  11.359  0.2098  0.0294  0.0378
 4519PP      PP14623   5.447  10.378   2.782 -0.0792  0.1631  0.0769
 4520PP      PP14624  11.460   0.576   1.505 -0.3103  0.2710 -0.0082
 4521PP      PP14625  10.334  11.437  12.438  0.0972 -0.0590 -0.2114
 4522PP      PP14626   6.154   2.726   1.356  0.0778  0.1608  0.0581
 4523PP      PP14627  11.979   9.089   9.387  0.2279  0.0819  0.1684
 4524PP      PP14628   0.988   7.403   2.097 -0.1138 -0.4041  0.0816
 4525PP      PP14629  15.830   3.271   0.531 -0.1308 -0.1202  0.0077
 4526PP      PP14630   4.829   3.045  10.273 -0.0749  0.0750 -0.1378
 4527PP      PP14631  13.269  16.011  11.871  0.1612  0.1063 -0.0382
 4528PP      PP14632  13.992   4.831   7.982 -0.1643 -0.0068  0.1767
 4529PP      PP14633   5.942   0.014  12.126  0.0431  0.2683  0.1434
 4530PP      PP14634  13.628  12.872   0.667 -0.1581 -0.3051  0.4238
 4531PP      PP14635   4.014   3.124   0.750 -0.1788  0.1664  0.2248
 4532PP      PP14636  11.173  11.800   3.198 -0.2122  0.1643 -0.1148
 4533PP      PP14637  14.452   5.929   1.889  0.0908  0.1521  0.0238
 4534PP      PP14638   8.205  15.506   3.886  0.1603 -0.1102 -0.0305
 4535PP      PP14639  15.705   8.313   8.437 -0.2834  0.1895 -0.0700
 4536PP      PP14640   6.377   1.903   9.247  0.0354 -0.0092  0.4762
 4537PP      PP14641  13.478  12.748  12.164  0.0107  0.2334  0.0242
 4538PP      PP14642  12.165  12.344   2.363  0.0456 -0.1800 -0.0074
 4539PP      PP14643  11.482   1.415  12.027  0.1144  0.0819 -0.0852
 4540PP      PP14644  12.148   3.878   2.828  0.1253  0.2066  0.1666
 4541PP      PP14645  10.341   8.912   1.202 -0.1228 -0.3727 -0.2817
 4542PP      PP14646  16.096  12.030   9.007  0.0161 -0.0514  0.3867
 4543PP      PP14647   2.455   0.750  10.499 -0.0493 -0.0201 -0.3118
 4544PP      PP14648  14.834   3.018  10.830 -0.0382 -0.0473  0.1650
 4545PP      PP14649   5.778  11.032   8.154 -0.2759 -0.2913 -0.0135
 4546PP      PP14650   2.153   3.634   2.546 -0.0532  0.1078  0.2112
 4547PP      PP14651   4.123  10.563   2.270 -0.0277  0.2404  0.0392
 4548PP      PP14652  16.134  14.085  10.935 -0.0105 -0.2773  0.0330
 4549PP      PP14653   2.954  11.932   9.200 -0.0379  0.2501 -0.2120
 4550PP      PP14654   1.018   8.735   8.378 -0.1129  0.3374  0.0780
 4551PP      PP14655   0.843   1.528   3.329 -0.1025  0.0845 -0.0052
 4552PP      PP14656   5.227  16.248   0.468  0.2061 -0.4352 -0.1274
 4553PP      PP14657   2.628  14.522   3.479 -0.0633  0.1506  0.1171
 4554PP      PP14658  10.595  11.561   2.048 -0.0574 -0.2371  0.0320
 4555PP      PP14659   0.754  10.687  12.360  0.1766 -0.1397  0.2305
 4556PP      PP14660   5.076   2.929   9.224  0.0087 -0.2749  0.0198
 4557PP      PP14661   2.788  10.341   0.544  0.2249  0.0135 -0.2342
 4558PP      PP14662  16.240  12.243   0.634 -0.0247  0.0249  0.2106
 4559PP      PP14663   8.199   1.950  11.152 -0.1377 -0.0889 -0.1722
 4560PP      PP14664  14.418   3.073  11.263  0.1491  0.0654 -0.1020
 4561PP      PP14665  11.862  11.535   1.950  0.2873 -0.0254  0.1388
 4562PP      PP14666  12.153   1.057  12.713 -0.2458 -0.0123  0.1824
 4563PP      PP14667   9.048   6.687   4.775  0.1279 -0.1117  0.1417
 4564PP      PP14668   8.977  10.377   9.322 -0.1814 -0.4733  0.1370
 4565PP      PP14669   9.834  10.839   1.067 -0.0883 -0.0457  0.2386
 4566PP      PP14670  14.257  10.256  12.648 -0.1313 -0.2574  0.0349
 4567PP      PP14671   6.705   6.238  11.548 -0.1854  0.0094  0.0115
 4568PP      PP14672  10.689   2.473   2.331  0.2892  0.0033 -0.1218
 4569PP      PP14673   5.674   2.959   9.772 -0.0035  0.1969 -0.0415
 4570PP      PP14674   5.851   0.764  10.188  0.1849 -0.0909 -0.1220
 4571PP      PP14675  12.694   7.462   1.799 -0.1438 -0.2540 -0.1600
 4572PP      PP14676   5.781   4.693   3.025  0.2477 -0.0704  0.2059
 4573PP      PP14677  15.823   1.131   0.854  0.1020  0.0072  0.1233
 4574PP      PP14678   8.234  13.215  10.009  0.1594  0.0610 -0.2306
 4575PP      PP14679   7.670  13.309   2.684 -0.1029  0.1084  0.3471
 4576PP      PP14680   9.617   5.842   2.951  0.3415 -0.0802  0.0786
 4577PP      PP14681   3.005   3.414   9.915 -0.0993 -0.3323 -0.1909
 4578PP      PP14682  10.274   0.230  12.617  0.0763  0.4742  0.1778
 4579PP      PP14683   2.328   3.060   8.545  0.0975  0.1503  0.1387
 4580PP      PP14684   4.441   0.232  12.106  0.2020  0.0659  0.0907
 4581PP      PP14685   0.400  10.409  12.017 -0.1026 -0.1934  0.2154
 4582PP      PP14686  12.796   9.577   2.444  0.1694  0.1640 -0.1477
 4583PP      PP14687  12.399  10.146   9.303 -0.2924 -0.0851  0.0207
 4584PP      PP14688   8.060   8.039  11.387  0.2474  0.1242 -0.1313
 4585PP      PP14689   9.861  12.442   4.044  0.1905 -0.3303 -0.5481
 4586PP      PP14690   7.829  11.543  12.610 -0.0058  0.0267 -0.1012
 4587PP      PP14691   6.289   1.119   3.105  0.3978 -0.2554  0.1293
 4588PP      PP14692   9.219   5.643   9.198  0.0525  0.1162 -0.1390
 4589PP      PP14693  10.013   9.919  11.872 -0.3750  0.3352  0.0747
 4590PP      PP14694  10.286   6.174  11.527 -0.1124 -0.1143 -0.0509
 4591PP      PP14695  15.565  10.600   4.262  0.0077 -0.3868 -0.2386
 4592PP      PP14696  14.317  15.155  10.319 -0.1352  0.1993  0.2719
 4593PP      PP14697   0.606   5.787   9.669 -0.2976  0.0174 -0.1042
 4594PP      PP14698   7.850   6.223  12.040 -0.2262  0.0190 -0.0466
 4595PP      PP14699   8.523  12.426   3.651  0.1181 -0.1576 -0.2858
 4596PP      PP14700   6.655   4.738   8.785  0.1914 -0.1848 -0.1633
 4597PP      PP14701   9.888   6.811   1.829  0.0192  0.1118 -0.0753
 4598PP      PP14702  10.959   9.356  10.075 -0.0185 -0.0324  0.2429
 4599PP      PP14703   0.338   7.471   9.514 -0.2250 -0.1600 -0.1912
 4600PP      PP14704  15.489   3.197   9.258  0.2795 -0.2334 -0.0929
 4601PP      PP14705   1.051  14.377   1.100  0.0751 -0.2596  0.1523
 4602PP      PP14706  14.947  14.950   2.476 -0.1373 -0.3467 -0.0961
 4603PP      PP14707  13.920  14.169   9.653  0.2563  0.0618 -0.5165
 4604PP      PP14708   0.510   4.422  10.060 -0.1391 -0.2277 -0.2599
 4605PP      PP14709   4.915   3.169   1.851  0.0087  0.0860  0.0680
 4606PP      PP14710   6.625   1.029   5.578  0.1445 -0.2105 -0.1757
 4607PP      PP14711  11.007   8.421   0.120 -0.1101  0.3112 -0.3739
 4608PP      PP14712   0.107   5.415  11.939  0.2816  0.2106 -0.1666
 4609PP      PP14713   7.923  15.082  10.237 -0.2727 -0.0934 -0.1009
 4610PP      PP14714  14.689   7.313   9.544  0.3673  0.0864 -0.2516
 4611PP      PP14715   9.126   6.663  12.382  0.1068 -0.0270  0.2024
 4612PP      PP14716  12.771   8.754  10.225  0.0301 -0.0534  0.0568
 4613PP      PP14717  10.651   1.655   6.250  0.0621 -0.0426  0.2549
 4614PP      PP14718   4.436  13.186   9.855 -0.1066 -0.1291  0.2152
 4615PP      PP14719  11.625  11.775  10.570 -0.0140  0.1093 -0.2321
 4616PP      PP14720  16.226  15.683   0.221 -0.2774 -0.2013  0.0525
 4617PP      PP14721   5.052  14.204  10.442 -0.0930 -0.0693  0.0006
 4618PP      PP14722   1.211   5.410   9.577  0.0339  0.2094 -0.2136
 4619PP      PP14723  10.677   6.485  11.604  0.3663 -0.2091  0.1964
 4620PP      PP14724   2.206   6.673  10.942  0.0958  0.1561 -0.0679
 4621PP      PP14725  11.685  11.550  12.711 -0.2672 -0.1871 -0.1833
 4622PP      PP14726  16.213   4.172   0.759 -0.3882  0.1246 -0.0351
 4623PP      PP14727   3.425  11.268  12.721  0.3230  0.2639  0.0242
 4624PP      PP14728   8.753   0.253  11.446  0.1237 -0.1886 -0.4520
 4625PP      PP14729  11.688  10.209  10.704  0.0443  0.2065  0.1729
 4626PP      PP14730  14.764  12.748  11.848 -0.2497  0.0383 -0.2661
 4627PP      PP14731  15.350  11.126   8.426 -0.0953  0.2054  0.2705
 4628PP      PP14732   0.189  15.221   3.624  0.3327 -0.1429  0.0271
 4629PP      PP14733   1.648   9.870   9.090  0.1943  0.2199  0.2222
 4630PP      PP14734  15.077  15.873  11.450 -0.2763 -0.2335  0.0299
 4631PP      PP14735  13.354   5.643  11.436 -0.1698  0.0678 -0.0839
 4632PP      PP14736   2.194  12.950   3.055  0.1153  0.1866  0.1025
 4633PP      PP14737   6.574   2.032  12.215  0.3908 -0.1454 -0.0548
 4634PP      PP14738   3.387  13.011   9.009  0.0090 -0.0567  0.0626
 4635PP      PP14739   8.130  10.434   4.072  0.0315 -0.1025 -0.0969
 4636PP      PP14740  15.445  16.005   9.754  0.0080  0.1406  0.1221
 4637PP      PP14741   1.692   3.049   1.574  0.0190 -0.1498  0.0571
 4638PP      PP14742   7.669  14.898   9.714  0.0330  0.0629 -0.1091
 4639PP      PP14743   5.072   0.752   3.919  0.0374 -0.2369  0.0237
 4640PP      PP14744   8.335  14.401   2.770 -0.0503  0.1876  0.0051
 4641PP      PP14745   5.280  15.452   0.492  0.0047 -0.0884  0.1311
 4642PP      PP14746   5.583   5.108   0.076  0.0325 -0.0719  0.0163
 4643PP      PP14747   6.737   0.458  10.298  0.2177 -0.0828  0.0891
 4644PP      PP14748   6.623   9.766   2.128  0.0850  0.1830 -0.1687
 4645PP      PP14749  10.042  12.541  12.483  0.1343 -0.0050 -0.1875
 4646PP      PP14750  15.251   3.941  10.678 -0.1847  0.3820  0.0490
 4647PP      PP14751   9.927   8.942  11.891  0.2654  0.0201  0.0979
 4648PP      PP14752   7.337   5.596   2.993  0.0729 -0.2057 -0.0780
 4649PP      PP14753  13.125   0.363   8.222 -0.1618  0.3069  0.1191
 4650PP      PP14754   4.523  13.466   1.004  0.0050 -0.1823  0.0899
 4651PP      PP14755   7.297  11.035  12.430 -0.1760 -0.0656 -0.0110
 4652PP      PP14756  15.504   0.460   9.492 -0.2286  0.4357  0.2640
 4653PP      PP14757  15.361   7.300  11.395 -0.4316  0.0177 -0.2029
 4654PP      PP14758   4.080  14.955   4.186  0.1872  0.0781  0.3403
 4655PP      PP14759   7.894   4.073   8.244  0.1090 -0.4026 -0.2571
 4656PP      PP14760   1.540  11.797   0.419  0.0160  0.0681  0.3608
 4657PP      PP14761   1.322   5.535   8.535  0.3103  0.3210  0.3294
 4658PP      PP14762   9.391  14.897   0.230 -0.1202 -0.0036  0.1033
 4659PP      PP14763   3.447  12.444   2.168 -0.1454  0.0312  0.1174
 4660PP      PP14764  11.105   9.366   2.122 -0.2680  0.1675 -0.2787
 4661PP      PP14765   6.855   3.946   1.985  0.1258 -0.2717 -0.0301
 4662PP      PP14766  11.487   1.241   9.405 -0.1443 -0.2284 -0.1095
 4663PP      PP14767  12.662  13.952   1.964  0.2303  0.1382 -0.0192
 4664PP      PP14768  14.750   7.277   8.557  0.0248 -0.0245 -0.3084
 4665PP      PP14769   1.770  13.506   9.157  0.1724  0.3927 -0.2648
 4666PP      PP14770  15.231   8.477   0.592 -0.0708 -0.1673  0.0831
 4667PP      PP14771  14.327   9.341   0.802 -0.1412  0.2237 -0.3519
 4668PP      PP14772   8.995   0.129   9.405  0.2086 -0.1213 -0.3988
 4669PP      PP14773   5.986   7.977   2.737 -0.3372  0.2450  0.3082
 4670PP      PP14774  14.160   0.680  10.721 -0.3131  0.2683  0.1062
 4671PP      PP14775   7.126  12.552   3.885 -0.0732 -0.0313 -0.0456
 4672PP      PP14776   3.906   0.263   4.544  0.5347  0.1344 -0.1336
 4673PP      PP14777   5.381   4.955   2.656 -0.2077 -0.2015 -0.0311
 4674PP      PP14778   7.612  11.868  11.590 -0.0937  0.0289 -0.2566
 4675PP      PP14779   6.567   2.306   9.503  0.0501  0.0978  0.3559
 4676PP      PP14780  13.108   5.519   9.125  0.2589  0.1951  0.2999
 4677PP      PP14781   4.533  15.311  11.813  0.0171 -0.1212 -0.2873
 4678PP      PP14782  12.741   5.134   3.783  0.0504 -0.0495  0.2547
 4679PP      PP14783   4.333   7.045   3.855  0.1250  0.0795  0.3118
 4680PP      PP14784  16.043  13.074   2.342  0.0718  0.0665 -0.1704
 4681PP      PP14785  12.290  11.878   9.295 -0.3324 -0.1392 -0.0285
 4682PP      PP14786   5.106   7.534   0.822  0.0737 -0.1240 -0.0086
 4683PP      PP14787   6.580   8.336   1.210  0.0262 -0.4459 -0.4345
 4684PP      PP14788  10.559  11.741   1.169  0.3357 -0.1120  0.0921
 4685PP      PP14789   3.535   8.667   1.730  0.1058  0.0759  0.1936
 4686PP      PP14790   1.875  11.504  11.688 -0.1995  0.0626  0.2801
 4687PP      PP14791   2.192   1.556   8.906  0.0742  0.1118 -0.0813
 4688PP      PP14792  12.476   1.262   2.342  0.1444  0.0098  0.2909
 4689PP      PP14793  12.761   7.337   8.743  0.1933  0.1839 -0.2152
 4690PP      PP14794   0.535   2.693   2.722 -0.0986 -0.0333  0.0037
 4691PP      PP14795  15.556   9.167  12.634 -0.0437 -0.4542 -0.1320
 4692PP      PP14796   3.609   2.851   9.477  0.1651  0.2727 -0.2600
 4693PP      PP14797   6.680   7.697  12.751 -0.4437 -0.0102 -0.2438
 4694PP      PP14798   9.725  14.094   2.648 -0.0489  0.1728 -0.0240
 4695PP      PP14799   4.020   3.384   3.504  0.2662 -0.1905 -0.0812
 4696PP      PP14800   0.774   2.676  10.760  0.0268 -0.0263 -0.2432
 4697PP      PP14801   4.435  13.262   3.119 -0.0823 -0.1837  0.1022
 4698PP      PP14802   7.990   6.628   8.007 -0.2570 -0.0293  0.3476
 4699PP      PP14803   0.011   1.298   3.819 -0.0372 -0.1383  0.1994
 4700PP      PP14804  15.991  14.425   2.784 -0.0772 -0.2854  0.0931
 4701PP      PP14805   2.207  15.952   9.075  0.2573 -0.0401 -0.1140
 4702PP      PP14806  12.979  12.224   2.969 -0.1075 -0.0370 -0.0173
 4703PP      PP14807   4.937   5.955   3.908 -0.0410  0.2500 -0.3382
 4704PP      PP14808   0.437   2.234  10.002 -0.0359 -0.0597  0.0691
 4705PP      PP14809  14.057   6.438   9.296 -0.3623  0.1324 -0.1192
 4706PP      PP14810   5.556   0.916   1.317  0.1519 -0.0466  0.2760
 4707PP      PP14811  13.100  13.060  12.361 -0.1791 -0.2599  0.0869
 4708PP      PP14812  10.901   9.530  11.059  0.3732 -0.0640  0.0041
 4709PP      PP14813  15.564   7.742   2.084 -0.3604  0.0977  0.0704
 4710PP      PP14814  10.190   4.905   3.658  0.3569  0.4092  0.1757
 4711PP      PP14815   6.919  13.387  11.435  0.1572 -0.0320  0.0716
 4712PP      PP14816   7.862   1.299  12.537  0.0040 -0.2730  0.2860
 4713PP      PP14817   2.600   0.645   1.354 -0.1450 -0.3733 -0.0532
 4714PP      PP14818   1.418   3.110   4.149 -0.0952  0.2911 -0.0789
 4715PP      PP14819  11.266   5.654   9.003  0.1028 -0.0820  0.1116
 4716PP      PP14820  10.875   6.101   9.171 -0.3724  0.4931 -0.1480
 4717PP      PP14821   3.158   8.503   1.387  0.0383 -0.2872  0.2573
 4718PP      PP14822  15.660   6.326   8.215  0.0815 -0.1663  0.1965
 4719PP      PP14823  16.267   5.630   8.936  0.0953 -0.1077  0.1709
 4720PP      PP14824  12.332   2.717   8.549  0.2589 -0.3121  0.0779
 4721PP      PP14825  14.765   7.833   9.376 -0.0726 -0.1248  0.0145
 4722PP      PP14826   3.091   5.506   0.036 -0.0795  0.0949  0.1455
 4723PP      PP14827   2.916   0.022   3.013 -0.0119  0.0188 -0.0256
 4724PP      PP14828  11.111   6.944   8.274  0.0949  0.1185 -0.0843
 4725PP      PP14829  13.049  14.392   4.739  0.2393  0.0639  0.1128
 4726PP      PP14830  15.346  10.510   9.084 -0.1635 -0.1721 -0.1444
 4727PP      PP14831   8.471  14.170  12.120 -0.3461 -0.1550 -0.0380
 4728PP      PP14832  11.547  11.956   9.847  0.3403 -0.1323 -0.1803
 4729PP      PP14833   5.684   4.629   2.138 -0.0585  0.1097 -0.1563
 4730PP      PP14834  11.027   3.002   2.031 -0.1616  0.2229  0.2512
 4731PP      PP14835  15.147  13.246   3.725 -0.0412 -0.3713  0.0377
 4732PP      PP14836   4.375  13.544   9.535  0.0367 -0.4219  0.0850
 4733PP      PP14837   1.996  14.240   3.746 -0.2439 -0.2669  0.3582
 4734PP      PP14838   5.920  16.245  10.907  0.0087  0.0623 -0.0005
 4735PP      PP14839   8.586  12.543   4.203  0.1542  0.1247 -0.3139
 4736PP      PP14840  10.896  11.361   3.366 -0.2131  0.2478 -0.0581
 4737PP      PP14841   3.933   2.474   1.549 -0.0390  0.0125  0.0538
 4738PP      PP14842  13.993  16.150  10.075 -0.2334 -0.2608 -0.2580
 4739PP      PP14843   1.087   0.732   3.212 -0.0261  0.3136  0.3046
 4740PP      PP14844  16.325  10.517  11.134  0.0999  0.1692 -0.1303
 4741PP      PP14845   5.759   3.895   0.867 -0.3167  0.1729 -0.4765
 4742PP      PP14846   3.509   2.619   3.266 -0.2090 -0.1298  0.1740
 4743PP      PP14847   4.716   4.293   1.401 -0.0341  0.1047  0.3119
 4744PP      PP14848  11.690  16.123  10.368 -0.0544 -0.1068 -0.3250
 4745PP      PP14849   0.744   6.571   1.708  0.1797  0.2966 -0.3946
 4746PP      PP14850  10.452  15.142  11.489 -0.0900 -0.1402 -0.1831
 4747PP      PP14851  10.744   2.056  11.501  0.4273  0.1061  0.1361
 4748PP      PP14852   6.276   8.165  10.898  0.0117  0.0388 -0.1403
 4749PP      PP14853  15.546   7.070  10.064  0.1208 -0.1463 -0.0061
 4750PP      PP14854  10.545   4.966  10.518  0.0246  0.0401  0.3578
 4751PP      PP14855  14.229   1.342   2.145  0.4586  0.1806 -0.3357
 4752PP      PP14856   0.166   4.330  11.856 -0.1060 -0.0625 -0.0485
 4753PP      PP14857  13.121  12.609   2.614  0.2007  0.0633  0.0767
 4754PP      PP14858   0.369  15.788  11.395  0.2720 -0.1622  0.0946
 4755PP      PP14859   6.744  10.770   3.500  0.0931  0.0697  0.1822
 4756PP      PP14860   5.949  14.694   1.554  0.2876  0.2957 -0.1232
 4757PP      PP14861  11.880   3.426   9.295  0.0728 -0.0306  0.1227
 4758PP      PP14862   0.008  13.925  10.360  0.0621  0.0505 -0.1850
 4759PP      PP14863   6.146  11.777   1.833 -0.0653  0.0035 -0.3287
 4760PP      PP14864   8.317  10.919   1.500 -0.1794 -0.2195  0.0715
 4761PP      PP14865   5.309   6.346  10.134 -0.1071 -0.1398 -0.0121
 4762PP      PP14866   8.002  13.659  10.202 -0.0478 -0.1868 -0.1657
 4763PP      PP14867  12.995   3.771   2.962 -0.3536 -0.3433  0.4157
 4764PP      PP14868  10.245  10.042  10.979  0.0945 -0.0675  0.1526
 4765PP      PP14869   8.056   6.076   1.015  0.1630 -0.3110 -0.3814
 4766PP      PP14870  15.891   9.091   0.297 -0.0956 -0.0652  0.0059
 4767PP      PP14871   2.662  13.354   8.263  0.1051  0.2737  0.2900
 4768PP      PP14872  14.508  13.890  12.364 -0.1651  0.0405  0.0273
 4769PP      PP14873   5.609   7.739   0.092 -0.3296  0.3198  0.2791
 4770PP      PP14874   8.378   4.691   8.591 -0.0578 -0.1288 -0.0240
 4771PP      PP14875   3.527  12.071  12.458 -0.0546 -0.1105 -0.1982
 4772PP      PP14876   6.594   3.414   0.334 -0.1835 -0.0584 -0.0558
 4773PP      PP14877   3.179  13.228  12.508 -0.0927 -0.0546  0.0384
 4774PP      PP14878   0.794   7.900  12.318  0.2123 -0.1544 -0.1570
 4775PP      PP14879   9.119   7.640   1.027 -0.0266 -0.0211 -0.0461
 4776PP      PP14880  14.717  10.750   1.702  0.1804  0.0077  0.0694
 4777PP      PP14881  11.894  12.430   8.164  0.2359  0.2617 -0.0691
 4778PP      PP14882  10.170   5.721   0.583 -0.0113  0.0111  0.0250
 4779PP      PP14883   4.104  14.893   2.723  0.0902 -0.0891 -0.2088
 4780PP      PP14884  15.584  10.539  10.417 -0.3067 -0.2731 -0.2621
 4781PP      PP14885   3.597  12.643  12.383  0.0393  0.0689 -0.2606
 4782PP      PP14886   4.411  14.026   9.285 -0.3504  0.1625 -0.0754
 4783PP      PP14887   4.506   6.596  11.101 -0.1375  0.1217  0.1347
 4784PP      PP14888   7.522   4.149   4.572 -0.1338 -0.0535 -0.2845
 4785PP      PP14889   6.551  13.975   0.274  0.1409 -0.0227  0.2787
 4786PP      PP14890  10.334   9.432   3.106  0.2804  0.0436 -0.1463
 4787PP      PP14891  14.884  11.749   4.455 -0.3723  0.1842 -0.2665
 4788PP      PP14892   7.053  15.581  10.310  0.2702  0.1554  0.3493
 4789PP      PP14893   6.644   2.080  12.756 -0.1436 -0.1022 -0.0177
 4790PP      PP14894  15.930   1.305   9.450 -0.2460 -0.0981 -0.0269
 4791PP      PP14895   9.553  13.606  10.080  0.3290  0.2039  0.2613
 4792PP      PP14896  15.057  10.047  10.423  0.0549  0.1675 -0.1567
 4793PP      PP14897   2.490   8.806   8.935 -0.3666 -0.1469  0.2619
 4794PP      PP14898   1.214   3.685  12.236  0.1484  0.1718  0.1789
 4795PP      PP14899   9.427  10.638   0.864 -0.2293  0.0161 -0.3875
 4796PP      PP14900  10.635  12.409   9.774 -0.3389  0.1305  0.1406
 4797PP      PP14901  11.227   4.227   3.487  0.2866 -0.0185 -0.0790
 4798PP      PP14902  11.561   6.731   0.280 -0.1398  0.0503 -0.0993
 4799PP      PP14903   0.713   4.935   2.523 -0.2886  0.0483  0.0236
 4800PP      PP14904   9.822   0.338   9.558  0.0304 -0.0431 -0.0058
 4801PP      PP14905   4.452  10.770   9.389 -0.3027 -0.1365 -0.0067
 4802PP      PP14906   5.756   1.454   9.023 -0.1140 -0.1945 -0.3577
 4803PP      PP14907  12.025   1.929  12.346  0.1301 -0.0369  0.0788
 4804PP      PP14908  13.515   4.157   9.447  0.1124 -0.1553  0.0030
 4805PP      PP14909  11.309  12.090   4.162 -0.0988  0.2475  0.0077
 4806PP      PP14910   4.708  10.627  10.688  0.1945  0.1132 -0.0096
 4807PP      PP14911   9.179   6.168  10.696 -0.3358  0.0351  0.0123
 4808PP      PP14912   7.404   5.133   3.976  0.0865 -0.1390 -0.0083
 4809PP      PP14913   3.471  11.217   2.634  0.3212  0.0187 -0.2342
 4810PP      PP14914  11.799   2.564  11.496 -0.1870 -0.1457  0.0830
 4811PP      PP14915  13.377  14.205   0.636  0.1122 -0.0570 -0.0118
 4812PP      PP14916  10.802   8.808   3.692 -0.1971  0.1317 -0.0549
 4813PP      PP14917   4.518  16.111  12.233  0.0506 -0.1201  0.1752
 4814PP      PP14918  12.803  13.977  10.248  0.0426  0.2521 -0.2492
 4815PP      PP14919   2.763   0.417  11.680 -0.2283 -0.0099 -0.0361
 4816PP      PP14920   3.751   6.738   9.066 -0.0574 -0.0779  0.1505
 4817PP      PP14921   1.730   8.959   9.359  0.0809  0.0112  0.0397
 4818PP      PP14922  14.713   3.330   2.434 -0.0120  0.1802  0.1859
 4819PP      PP14923  10.568  13.964  11.493  0.2665  0.1329 -0.1506
 4820PP      PP14924  15.241   2.458   9.490 -0.0901  0.0573  0.1419
 4821PP      PP14925   9.073  12.190   2.249  0.2645  0.4625 -0.0693
 4822PP      PP14926   9.220   0.121   9.869 -0.1217  0.3129 -0.1853
 4823PP      PP14927  10.499   1.137  10.018 -0.0698  0.0106  0.1408
 4824PP      PP14928  15.152   1.651   1.042  0.1602  0.1101  0.1497
 4825PP      PP14929   3.779  15.490  10.873 -0.0368  0.0693 -0.2646
 4826PP      PP14930  16.041   6.699   3.678  0.3385  0.1175  0.1731
 4827PP      PP14931  15.838   2.256  12.622 -0.0483  0.3764 -0.1189
 4828PP      PP14932   2.061   3.790   2.066  0.2473 -0.1381 -0.0206
 4829PP      PP14933   9.214   7.894  10.581  0.1674  0.4110 -0.0681
 4830PP      PP14934  12.233  16.341  11.842 -0.0303 -0.0731  0.0611
 4831PP      PP14935  10.035   9.812   0.904 -0.2318  0.1947  0.0167
 4832PP      PP14936   8.727   2.455   9.409  0.0744  0.0316  0.0168
 4833PP      PP14937   0.348   8.070   8.838  0.0900 -0.1989 -0.0140
 4834PP      PP14938  15.442  15.952  10.622  0.0500  0.1787 -0.2526
 4835PP      PP14939   2.910  11.188   2.371  0.1831 -0.0343  0.3165
 4836PP      PP14940   7.624   4.804   3.684 -0.1859 -0.0231 -0.2987
 4837PP      PP14941   7.762  13.951   1.716 -0.1135 -0.1327  0.0602
 4838PP      PP14942   3.571   6.397  11.626 -0.2426  0.0188 -0.1830
 4839PP      PP14943  10.083   4.772  10.098  0.2482 -0.1726 -0.2865
 4840PP      PP14944   6.297   5.894   9.695 -0.0334 -0.3446  0.0182
 4841PP      PP14945  13.245   7.134  11.101  0.0216 -0.3729 -0.2909
 4842PP      PP14946   3.329   0.068  10.848 -0.0336 -0.0243  0.0327
 4843PP      PP14947   2.683  15.418   1.898  0.1573  0.1608  0.0643
 4844PP      PP14948   0.119  13.203   4.485  0.4495  0.1113 -0.0690
 4845PP      PP14949   9.682  15.634   2.444  0.1037 -0.0993  0.2228
 4846PP      PP14950  14.739   0.410   8.929  0.3019  0.1822  0.1397
 4847PP      PP14951   8.223  15.365   0.598  0.1937  0.1352 -0.1980
 4848PP      PP14952   2.016   4.012   3.348  0.0278 -0.0755 -0.0292
 4849PP      PP14953   8.470  13.199   3.909  0.1744 -0.3630  0.3170
 4850PP      PP14954   1.657  14.003   4.131 -0.0728 -0.0110 -0.1339
 4851PP      PP14955   8.535  15.756   2.969 -0.2582  0.2162  0.3120
 4852PP      PP14956   9.443  13.029   3.349  0.0923 -0.2071  0.1197
 4853PP      PP14957   9.083  12.744   9.070  0.1263 -0.0227 -0.0464
 4854PP      PP14958  12.019   7.264   0.779  0.3520 -0.0564 -0.0433
 4855PP      PP14959  12.336   8.392   3.841  0.1936  0.2156 -0.5102
 4856PP      PP14960  11.175  15.482   0.148  0.0069  0.0659  0.0272
 4857PP      PP14961   8.704   7.823   3.490  0.1142  0.2399  0.0710
 4858PP      PP14962   9.604  15.486   4.295  0.0209  0.0334  0.0034
 4859PP      PP14963  14.171  14.849   9.785 -0.0039  0.1592  0.0468
 4860PP      PP14964   8.242   2.736   2.554 -0.0212 -0.0157  0.0453
 4861PP      PP14965  12.350   6.101   9.507  0.1631  0.0138  0.0968
 4862PP      PP14966   8.342   6.004   4.278  0.0914  0.1787 -0.0287
 4863PP      PP14967  12.335   5.214   8.292  0.1951 -0.3630 -0.0950
 4864PP      PP14968  14.594  14.521  11.840  0.0184  0.1724  0.0123
 4865PP      PP14969   6.166  15.335   9.803 -0.0150  0.0851 -0.0771
 4866PP      PP14970   4.094  12.363  10.479  0.0597 -0.3601 -0.1713
 4867PP      PP14971   0.071  15.888   1.546 -0.0067  0.2734  0.0605
 4868PP      PP14972  11.017   3.431  12.148 -0.1246 -0.1457  0.0846
 4869PP      PP14973  10.314  10.024   1.306 -0.1669  0.1486 -0.0445
 4870PP      PP14974  13.586   2.265  11.081  0.1275  0.1004  0.4752
 4871PP      PP14975  10.361   2.554   2.687 -0.1341  0.0927  0.2409
 4872PP      PP14976   1.512   0.871  12.276  0.0623  0.1648  0.1546
 4873PP      PP14977   0.109   4.196   1.273  0.0912 -0.3019 -0.1285
 4874PP      PP14978  15.759  14.296   1.784 -0.1360 -0.1928  0.0602
 4875PP      PP14979   0.841   6.879   8.294 -0.0078 -0.0903  0.1008
 4876PP      PP14980   5.421   9.861   2.769 -0.0679  0.0184  0.1112
 4877PP      PP14981   6.962   4.861   2.074 -0.2856 -0.1401  0.0418
 4878PP      PP14982   8.020   1.812   3.886  0.3565  0.1640 -0.0495
 4879PP      PP14983   6.563  15.767  12.347 -0.0027  0.1478  0.0861
 4880PP      PP14984   3.203   4.695   9.884  0.0276  0.0245 -0.0073
 4881PP      PP14985   7.127  10.408   2.585  0.2453  0.0470 -0.0285
 4882PP      PP14986   7.965   1.410   0.829  0.0256  0.0233 -0.2040
 4883PP      PP14987   2.283  13.142   2.199 -0.1178  0.2531 -0.1826
 4884PP      PP14988  11.688   2.160   0.038 -0.0805 -0.1021 -0.0719
 4885PP      PP14989   5.421  12.043   9.837  0.1253 -0.2738 -0.1819
 4886PP      PP14990   5.838   9.316   9.375  0.1097 -0.0175  0.0681
 4887PP      PP14991  13.120   0.429   2.154 -0.2525  0.1514 -0.3649
 4888PP      PP14992   5.440  15.863   3.476  0.2137  0.0571  0.0808
 4889PP      PP14993   2.636  15.776  10.719 -0.1969  0.2846  0.0616
 4890PP      PP14994  12.542   0.656   9.698  0.0094 -0.0939  0.0613
 4891PP      PP14995   5.543   8.632   3.328 -0.0877  0.2897 -0.1659
 4892PP      PP14996   3.582  12.373   8.658 -0.1801 -0.0328 -0.2767
 4893PP      PP14997   8.758  16.319   9.861  0.2091  0.2453  0.3112
 4894PP      PP14998   3.185   7.799   8.123  0.1931  0.2822  0.2696
 4895PP      PP14999   5.299   8.851   0.195 -0.0391 -0.0372 -0.0648
 4896PP      PP15000  10.979   0.488   1.771  0.1280  0.3029  0.2552
 4897PP      PP15001  15.297   9.797  11.042  0.4305  0.0796  0.4746
 4898PP      PP15002   4.720   8.518  10.011 -0.1373  0.3632 -0.2213
 4899PP      PP15003  13.648   4.860  10.345 -0.1661 -0.0053 -0.3111
 4900PP      PP15004   3.368  11.627   2.896  0.3483 -0.2357  0.1007
 4901PP      PP15005   1.057   5.605  10.065  0.0762  0.0390  0.1055
 4902PP      PP15006  13.854  15.575   4.161 -0.1784 -0.1156 -0.0625
 4903PP      PP15007  13.023   1.998   8.358 -0.4994  0.0406  0.1905
 4904PP      PP15008   5.683   0.940  11.270  0.2221 -0.2310 -0.0615
 4905PP      PP15009   4.655  13.487   8.220 -0.4747  0.3231 -0.4242
 4906PP      PP15010   9.507  11.712   3.633 -0.3718 -0.1183 -0.2559
 4907PP      PP15011   2.936   2.917   8.862  0.0460 -0.3690  0.0382
 4908PP      PP15012  15.392  15.650  11.092 -0.1005 -0.1347  0.0717
 4909PP      PP15013  12.383   8.988  11.000  0.2922 -0.0462 -0.3151
 4910PP      PP15014   2.499  13.001   0.462 -0.3410 -0.4663  0.1439
 4911PP      PP15015  15.619   3.816   0.069  0.0688 -0.1638  0.1490
 4912PP      PP15016   5.160  10.189   1.441 -0.5900  0.0498  0.2954
 4913PP      PP15017   4.477   1.462   4.408  0.1819 -0.1967  0.3763
 4914PP      PP15018  10.818   0.144   3.881  0.1152 -0.0292  0.3966
 4915PP      PP15019   0.533   0.670   3.132 -0.0322  0.0945  0.2027
 4916PP      PP15020   8.596   1.113   4.056  0.1381  0.0317 -0.1927
 4917PP      PP15021   1.283   6.030  11.346 -0.2459 -0.0012  0.1913
 4918PP      PP15022   8.852  11.549   4.396  0.1324 -0.3438 -0.4019
 4919PP      PP15023  13.300   6.894  10.638  0.1885  0.2059  0.3988
 4920PP      PP15024  12.349  11.359   9.459  0.1383 -0.2276  0.1871
 4921PP      PP15025   4.564   7.468  11.109  0.0523 -0.0488 -0.3674
 4922PP      PP15026   7.426   6.194   2.673 -0.4091 -0.0768 -0.1779
 4923PP      PP15027  13.495   5.880  10.858 -0.3472  0.1444 -0.2885
 4924PP      PP15028  12.389   9.241  11.442  0.2450 -0.2906  0.1153
 4925PP      PP15029   0.869   3.062   0.040  0.2029 -0.1125 -0.1262
 4926PP      PP15030  14.099  13.571  11.786 -0.1952 -0.1005  0.2728
 4927PP      PP15031  10.535   2.114   4.188 -0.1123 -0.0462  0.4087
 4928PP      PP15032   4.465   7.558   1.919 -0.1067  0.0239  0.2261
 4929PP      PP15033   2.920   3.348  12.636 -0.2540  0.3275 -0.0679
 4930PP      PP15034   1.027  15.717  12.669 -0.1868 -0.0258  0.0522
 4931PP      PP15035  14.947   3.430  10.512 -0.0402 -0.3382  0.3058
 4932PP      PP15036  14.145   9.038   1.730  0.2165 -0.2563  0.2139
 4933PP      PP15037   3.278   4.164   0.604  0.0843 -0.1576 -0.2697
 4934PP      PP15038   8.365   7.966   2.611  0.1106 -0.2179 -0.0761
 4935PP      PP15039   6.567   0.430   0.352  0.0154  0.1532  0.1586
 4936PP      PP15040   8.665  11.900   2.468  0.1052  0.0903 -0.0211
 4937PP      PP15041   1.688  10.069   0.318  0.2043 -0.0621  0.0530
 4938PP      PP15042   9.263  11.438   1.660 -0.1345  0.2816  0.0978
 4939PP      PP15043   2.541   7.033   0.546  0.2109  0.2758 -0.0456
 4940PP      PP15044  14.214   6.897  10.675 -0.2812  0.3867  0.0673
 4941PP      PP15045   6.117   2.834  12.729 -0.1442  0.1405  0.2677
 4942PP      PP15046  13.617   9.313  11.756 -0.0593  0.1529  0.0378
 4943PP      PP15047   7.574  11.904   8.780 -0.2407  0.0802 -0.1673
 4944PP      PP15048  14.762   4.527   4.397 -0.1466  0.1153 -0.1929
 4945PP      PP15049   5.785   6.621   1.772 -0.0857  0.1626 -0.0046
 4946PP      PP15050   4.099   5.078   3.054  0.1928  0.1168 -0.0055
 4947PP      PP15051  16.167   6.863   9.721  0.0281  0.2351  0.1466
 4948PP      PP15052  12.147   0.429   1.096 -0.0700  0.1622 -0.2682
 4949PP      PP15053  12.174  11.148  11.148 -0.3042 -0.1731 -0.0981
 4950PP      PP15054   9.142   5.460  12.238  0.3622  0.1041  0.2182
 4951PP      PP15055   1.542  12.700   0.448 -0.0717 -0.0656  0.0869
 4952PP      PP15056   7.181   9.841   4.053 -0.1589  0.1670 -0.0420
 4953PP      PP15057  10.165   9.045  10.396 -0.1124  0.1441 -0.1861
 4954PP      PP15058   3.918  13.500   7.748 -0.0808  0.3546  0.2961
 4955PP      PP15059   0.466   8.775   8.269  0.1114 -0.2112 -0.1025
 4956PP      PP15060   7.959   5.103  12.757  0.0695  0.0914 -0.0451
 4957PP      PP15061  10.558  10.837   2.769  0.0937 -0.1125  0.2520
 4958PP      PP15062  13.878   6.389   8.495  0.0325  0.0234  0.1011
 4959PP      PP15063   9.897   5.294   0.715  0.1529  0.2317  0.0848
 4960PP      PP15064   1.565   1.556  10.341  0.0980  0.0734 -0.2386
 4961PP      PP15065  10.449   4.582   0.463 -0.0501  0.0589 -0.0414
 4962PP      PP15066   0.077  14.100   0.155 -0.2735  0.2456  0.2672
 4963PP      PP15067  10.831   5.850  12.231 -0.2848 -0.0381 -0.1364
 4964PP      PP15068  15.778  11.609  11.986  0.1537 -0.1607 -0.1502
 4965PP      PP15069   6.452  11.078   2.027 -0.0327 -0.0725 -0.0102
 4966PP      PP15070   4.439   6.630  11.586  0.2488 -0.0630 -0.0028
 4967PP      PP15071   9.494   7.524   9.782  0.0612 -0.0956  0.2189
 4968PP      PP15072   8.482  11.780   1.099 -0.1161 -0.0799  0.4281
 4969PP      PP15073   2.878  16.270   9.806  0.3146  0.3445  0.1291
 4970PP      PP15074  10.924  14.977   0.416  0.1940 -0.4163  0.0645
 4971PP      PP15075  14.341   1.292   9.680  0.1594 -0.0452  0.2023
 4972PP      PP15076   4.017  15.030   9.152  0.1386  0.0454  0.1586
 4973PP      PP15077   2.643  12.480   9.949  0.1196  0.2890 -0.0768
 4974PP      PP15078   0.361  12.580   0.915  0.0319  0.2891 -0.0408
 4975PP      PP15079   2.926  13.275   2.638 -0.0248  0.2511  0.0397
 4976PP      PP15080   8.911   9.482   3.084 -0.2985  0.2010 -0.1194
 4977PP      PP15081   0.525  12.013   3.362  0.0877 -0.0718  0.2622
 4978PP      PP15082   7.596  15.737   2.693 -0.1380 -0.2141 -0.3722
 4979PP      PP15083  15.126   7.116   7.818 -0.2334 -0.0394  0.0069
 4980PP      PP15084   5.998   2.074  10.116  0.0229 -0.0726  0.2560
 4981PP      PP15085  12.358   4.331   9.596  0.2690  0.2615  0.2972
 4982PP      PP15086   7.960  14.195   3.174  0.1006  0.3041  0.0507
 4983PP      PP15087   3.768  10.009   9.697  0.1755  0.1085  0.1348
 4984PP      PP15088   5.909  11.487   0.116  0.1744 -0.0395 -0.1390
 4985PP      PP15089  14.300   0.231  12.685  0.0757 -0.3290 -0.2911
 4986PP      PP15090   9.585   7.994  11.951  0.0043 -0.1024 -0.0360
 4987PP      PP15091   0.648  13.479   2.225  0.0144  0.2808  0.0511
 4988PP      PP15092  11.660   2.380   3.264 -0.1217 -0.1874 -0.2743
 4989PP      PP15093   8.406   3.567   3.218  0.1338 -0.0952  0.1397
 4990PP      PP15094   6.018  12.780   3.130  0.0226 -0.2513 -0.0848
 4991PP      PP15095  11.046  14.095   1.358 -0.0138  0.1528  0.0175
 4992PP      PP15096  11.161  13.335   1.786 -0.1314  0.0772  0.0095
 4993PP      PP15097  11.368   2.769   1.382  0.2016  0.3112 -0.3245
 4994PP      PP15098   2.867   5.587  12.004  0.0326  0.2088  0.2501
 4995PP      PP15099   7.953  13.529  11.460  0.2033 -0.4337  0.3327
 4996PP      PP15100  10.539  14.216   0.994  0.1553  0.1516 -0.1361
 4997PP      PP15101  12.944   2.149  10.887  0.1351  0.1615  0.0646
 4998PP      PP15102   0.984  10.675   0.719 -0.0153 -0.1329 -0.0409
 4999PP      PP15103   7.022   4.302   3.649  0.3922  0.0273 -0.1767
 5000PP      PP15104  15.184   7.353  10.441  0.0470 -0.4307  0.2383
 5001PP      PP15105   1.339   2.025  12.656 -0.0146 -0.0380  0.2850
 5002PP      PP15106   2.529  15.600   8.986 -0.0672  0.2047 -0.1419
 5003PP      PP15107   0.938   5.932   8.678  0.5179 -0.2039 -0.2762
 5004PP      PP15108   6.305   1.742   2.328  0.0313 -0.0479 -0.1562
 5005PP      PP15109   7.153   6.235   9.966 -0.2502  0.1599 -0.1208
 5006PP      PP15110  15.180  14.037   4.149  0.0356  0.2318  0.2019
 5007PP      PP15111   9.169   4.205   0.722  0.0883 -0.1805  0.1918
 5008PP      PP15112   9.202  11.417   2.683  0.0683  0.0971 -0.1158
 5009PP      PP15113  12.604  16.263   0.339  0.2371 -0.0057  0.2799
 5010PP      PP15114   4.980  15.956   8.720 -0.2943 -0.1175  0.2076
 5011PP      PP15115   8.594   0.621  11.038 -0.1920 -0.1456 -0.1729
 5012PP      PP15116   6.503   3.792  11.862  0.0300 -0.0531 -0.0338
 5013PP      PP15117   3.388  13.854   1.511  0.2987  0.0524  0.0781
 5014PP      PP15118   3.275  13.012   2.873 -0.0803  0.0505  0.0231
 5015PP      PP15119  12.456   6.298  11.235 -0.0950  0.2276  0.1627
 5016PP      PP15120  14.142   5.018   4.117 -0.0385  0.0920 -0.0796
 5017PP      PP15121   0.283  14.752   1.921  0.3118 -0.3073 -0.0013
 5018PP      PP15122   9.451   6.733   1.090 -0.1064  0.2426  0.0342
 5019PP      PP15123   5.816   9.404  10.352 -0.1417 -0.1803  0.0497
 5020PP      PP15124   7.548  10.440   4.325  0.0131  0.1431 -0.0474
 5021PP      PP15125  15.849  11.935   0.536  0.1706 -0.0122  0.1245
 5022PP      PP15126   7.927   5.642   0.781 -0.1575 -0.3952  0.1047
 5023PP      PP15127  11.591  14.752   4.357  0.3476  0.3635  0.1649
 5024PP      PP15128  14.278  15.881   0.867  0.1594  0.0388 -0.0065
 5025PP      PP15129   9.472   2.503  10.186 -0.0911  0.1403  0.2740
 5026PP      PP15130   5.692   1.822   1.027  0.2125  0.0048 -0.1499
 5027PP      PP15131  13.493   5.016  12.526  0.2224  0.1231  0.0143
 5028PP      PP15132   4.072  15.858   1.664  0.0560  0.0679 -0.0700
 5029PP      PP15133   1.707   7.023  11.587 -0.2027  0.2074 -0.2054
 5030PP      PP15134  13.049  13.033  10.629 -0.0208  0.1224 -0.2796
 5031PP      PP15135   6.201   2.394   9.079 -0.2244  0.0671 -0.2112
 5032PP      PP15136  12.993   3.683   9.944 -0.1329  0.1983  0.0982
 5033PP      PP15137  15.142   0.026   1.751 -0.2923 -0.0679 -0.0524
 5034PP      PP15138  13.384  12.316   3.317  0.0491 -0.0616  0.0867
 5035PP      PP15139   4.822  11.850  11.130 -0.2977 -0.2937 -0.1471
 5036PP      PP15140  16.139   3.636   1.904  0.2174  0.1826  0.0536
 5037PP      PP15141   0.053   7.027   1.027 -0.2283  0.3419 -0.1858
 5038PP      PP15142   8.868   1.993   8.747 -0.4253  0.0661  0.0674
 5039PP      PP15143   5.171   7.958   7.950 -0.5238  0.1932 -0.2137
 5040PP      PP15144   2.495  11.365  12.729 -0.2316 -0.0456 -0.0380
 5041PP      PP15145   0.437  14.196  12.435 -0.1424  0.4274  0.2311
 5042PP      PP15146  15.343  15.073  12.462 -0.3677 -0.0054 -0.2303
 5043PP      PP15147   4.619  15.864   1.464  0.0765  0.0649  0.0436
 5044PP      PP15148   3.954   9.198  12.142 -0.1540  0.1464 -0.2627
 5045PP      PP15149   5.631   7.407   1.542 -0.2853  0.0541  0.1086
 5046PP      PP15150   7.065  15.549  11.084  0.0498  0.0868 -0.1178
 5047PP      PP15151  13.126  10.593   3.877  0.0211  0.1667  0.0705
 5048PP      PP15152  11.447   2.344  12.345 -0.1416 -0.2743  0.0352
 5049PP      PP15153  12.904   3.302   7.723 -0.2186  0.0433 -0.2774
 5050PP      PP15154   5.036   7.034  10.366 -0.3684  0.0387  0.1349
 5051PP      PP15155   9.480   4.605  12.257 -0.4546  0.1295 -0.1332
 5052PP      PP15156  12.339  12.556  11.812  0.4081  0.2063  0.1145
 5053PP      PP15157   5.432  15.145   3.048 -0.2030  0.2272  0.2795
 5054PP      PP15158  10.869   1.189   3.150 -0.0809  0.1632  0.1871
 5055PP      PP15159   3.718   7.901  10.945  0.1912 -0.2080  0.0734
 5056PP      PP15160   6.002   6.796   9.471  0.3042 -0.0156 -0.4517
 5057PP      PP15161  12.637  12.100  12.522 -0.0289  0.2139  0.0737
 5058PP      PP15162   6.398  13.718   3.405  0.4280  0.0389 -0.1574
 5059PP      PP15163   6.987   6.685  11.698  0.0587  0.2034  0.0368
 5060PP      PP15164  11.803   0.248  11.889 -0.0839 -0.1453  0.3704
 5061PP      PP15165  11.480   1.313  12.560 -0.0964 -0.0412 -0.0555
 5062PP      PP15166  16.277   1.999   2.795 -0.2135  0.3448 -0.2875
 5063PP      PP15167   5.518   7.125   1.987 -0.3343  0.3496  0.0315
 5064PP      PP15168  11.947   1.054   9.098 -0.1689  0.2257  0.1638
 5065PP      PP15169   1.802  14.294   2.762 -0.0935 -0.0990 -0.1744
 5066PP      PP15170  13.515  16.063  12.606 -0.0143  0.1737  0.1441
 5067PP      PP15171   2.469  12.614   9.446  0.2048 -0.0411  0.1643
 5068PP      PP15172   9.855   1.007  10.022  0.1325 -0.0504 -0.1396
 5069PP      PP15173   7.097   7.043   1.975 -0.1962  0.0575 -0.0341
 5070PP      PP15174   3.113   2.158   0.262 -0.3234  0.0298  0.4396
 5071PP      PP15175  12.835   1.106  12.057  0.1389  0.1609 -0.2302
 5072PP      PP15176   8.038  15.577   2.182 -0.3255 -0.1330 -0.2796
 5073PP      PP15177  12.181   7.740  11.618 -0.1061  0.0585 -0.1697
 5074PP      PP15178   0.764  15.914  11.112  0.1123 -0.0974 -0.0024
 5075PP      PP15179  14.703   3.684   3.780  0.3768  0.1160  0.4195
 5076PP      PP15180   9.416   8.854  12.633  0.0980 -0.3502 -0.2606
 5077PP      PP15181  13.991  10.371  11.875  0.2147 -0.2033 -0.1471
 5078PP      PP15182   9.831   5.719   8.281 -0.0293  0.1959  0.0093
 5079PP      PP15183  16.243  12.161   2.146  0.3504  0.0210 -0.2740
 5080PP      PP15184   5.282  13.988   9.621 -0.0165 -0.2461  0.3061
 5081PP      PP15185   4.264   0.599   9.412  0.1386 -0.1374  0.1392
 5082PP      PP15186  16.357   6.028   1.170  0.5201 -0.0816 -0.0960
 5083PP      PP15187  10.784  14.240  11.806 -0.1425 -0.4713  0.2232
 5084PP      PP15188  13.080   1.379   3.500  0.0099  0.2210 -0.0087
 5085PP      PP15189   4.579   2.835  11.544  0.0398  0.1043  0.0413
 5086PP      PP15190  12.433   9.946  12.277 -0.1170 -0.0780  0.0529
 5087PP      PP15191  11.767  14.995  10.570 -0.0346 -0.0599  0.1051
 5088PP      PP15192  15.514   8.149   1.275  0.1601 -0.1063  0.4489
 5089PP      PP15193   2.362   4.880   8.419 -0.2600  0.1605  0.1639
 5090PP      PP15194  14.114   2.293   1.381  0.2758  0.1612 -0.0809
 5091PP      PP15195   0.262  10.972   9.361 -0.0869 -0.2663 -0.1267
 5092PP      PP15196   2.023  15.468   2.961  0.0902  0.2613 -0.2068
 5093PP      PP15197  15.519  13.740   4.471 -0.1101  0.0369  0.3612
 5094PP      PP15198   5.946  10.838  12.315  0.1458 -0.1239 -0.1148
 5095PP      PP15199   7.099   6.018   3.727 -0.1086 -0.0442  0.1661
 5096PP      PP15200   0.937  16.074   3.518  0.0583  0.1345  0.0781
 5097PP      PP15201  15.668   1.285   1.328  0.0262  0.0255 -0.1788
 5098PP      PP15202   9.415   6.114  12.228 -0.0374  0.2729 -0.1221
 5099PP      PP15203  11.561   4.818   9.247  0.2597  0.3503 -0.0121
 5100PP      PP15204   4.361   9.419   0.153  0.3387 -0.2273 -0.3071
 5101PP      PP15205  14.511   5.095  11.261 -0.1222 -0.0923 -0.0140
 5102PP      PP15206  15.195   3.507   2.235 -0.0936 -0.0634  0.0700
 5103PP      PP15207   2.813   5.293  12.400 -0.1019  0.0328 -0.1654
 5104PP      PP15208  10.558  11.928  10.542  0.0542 -0.1974  0.4686
 5105PP      PP15209  15.141   7.094   8.318  0.1321  0.3891 -0.1741
 5106PP      PP15210   8.946   1.068   2.933  0.1491 -0.0156 -0.0810
 5107PP      PP15211   9.190  13.434   2.971  0.2425 -0.1601 -0.2541
 5108PP      PP15212  10.815   0.665   3.250 -0.0458  0.3204 -0.0778
 5109PP      PP15213   2.436   6.831   1.074  0.1659  0.1229  0.1843
 5110PP      PP15214  14.467   8.763   8.429 -0.0069  0.1292  0.0125
 5111PP      PP15215  10.726  10.333   3.280 -0.2576 -0.1588  0.0849
 5112PP      PP15216   8.607   7.853   9.802 -0.2468 -0.0342  0.1525
 5113PP      PP15217   2.575  16.084   3.350  0.0046 -0.2090  0.0200
 5114PP      PP15218   7.606  11.619  10.405 -0.1411  0.1010  0.1729
 5115PP      PP15219   7.758   4.354  10.736  0.0989 -0.2619  0.3168
 5116PP      PP15220   5.141  13.650   8.254  0.3470 -0.1295  0.3117
 5117PP      PP15221   6.472  11.616   3.619  0.1601  0.1295  0.2683
 5118PP      PP15222   5.218   4.579   1.434 -0.1273  0.0176  0.2538
 5119PP      PP15223  13.620  11.939  11.577  0.1660 -0.1229 -0.2911
 5120PP      PP15224  13.085   0.144   2.657 -0.0136 -0.1294 -0.1645
 5121PP      PP15225  12.293   1.360   3.397 -0.2324 -0.1544  0.0447
 5122PP      PP15226  10.412   8.333   1.617  0.2113 -0.1655 -0.0614
 5123PP      PP15227   9.854   7.099   1.123  0.0181  0.0543 -0.1003
 5124PP      PP15228  12.849   5.738   7.809  0.2399  0.0644  0.2721
 5125PP      PP15229  15.202  13.790   0.391  0.0680  0.1430  0.0151
 5126PP      PP15230  12.836   5.488   2.019 -0.2350  0.1073 -0.0602
 5127PP      PP15231  10.608   8.666  11.059  0.2435 -0.0353 -0.2815
 5128PP      PP15232   6.755   8.898   1.453  0.1185 -0.3147  0.1616
 5129PP      PP15233   8.131   0.673   1.597 -0.3558  0.1077  0.3613
 5130PP      PP15234  12.921  15.267   9.668  0.2212  0.1290  0.1273
 5131PP      PP15235  12.038   6.889  11.683  0.0905 -0.1759 -0.0333
 5132PP      PP15236   1.955   4.963   3.933 -0.0368 -0.0696  0.1060
 5133PP      PP15237  10.343   3.778  11.570 -0.1457 -0.0594  0.0360
 5134PP      PP15238  16.214   1.482   9.955 -0.1150 -0.0471  0.0761
 5135PP      PP15239  11.516   2.231   3.980  0.2872  0.1409 -0.1070
 5136PP      PP15240   2.307  15.146   3.310 -0.0326  0.0505 -0.0954
 5137PP      PP15241  12.883  11.155   4.575  0.2499 -0.1135 -0.0868
 5138PP      PP15242  11.439   8.951   9.392 -0.0776  0.0679 -0.0794
 5139PP      PP15243  13.658   4.318   9.913  0.0663  0.1737  0.1857
 5140PP      PP15244   9.193  10.956   0.393  0.0757 -0.1170 -0.0658
 5141PP      PP15245   6.214  14.084  10.116  0.3130  0.0309 -0.1524
 5142PP      PP15246   1.964  10.161  10.003  0.1002  0.0581 -0.1700
 5143PP      PP15247   7.222   9.099   2.389  0.0197 -0.1597  0.1524
 5144PP      PP15248   5.842   6.705  12.535  0.4541  0.2032  0.2452
 5145PP      PP15249   5.764  13.182  11.822 -0.0636  0.0088  0.2412
 5146PP      PP15250  12.900   3.037   9.150 -0.0997  0.0238 -0.2448
 5147PP      PP15251   2.511  16.106   1.693  0.0252 -0.2971  0.1966
 5148PP      PP15252   0.498   7.013   8.718 -0.2598  0.0607  0.0144
 5149PP      PP15253   1.192   6.857  12.228 -0.0235 -0.1222 -0.3337
 5150PP      PP15254  13.341   7.083  11.914  0.2519  0.0903  0.1612
 5151PP      PP15255  12.984   5.763  10.725 -0.2216 -0.0515 -0.0948
 5152PP      PP15256   6.277   1.995   2.843  0.0105  0.3617  0.0595
 5153PP      PP15257   6.153   4.357   1.789  0.1449  0.0536  0.1561
 5154PP      PP15258   9.079   0.796   0.473  0.0246 -0.1369 -0.1170
 5155PP      PP15259  10.389   2.259  12.662 -0.1510  0.3601 -0.1319
 5156PP      PP15260  15.213   0.036  10.719 -0.1293  0.2373 -0.1679
 5157PP      PP15261  14.774   0.243  10.705  0.2347 -0.0659  0.0004
 5158PP      PP15262   6.747   6.061   8.228 -0.1179 -0.3183 -0.2828
 5159PP      PP15263  16.003   1.615   1.634 -0.3481  0.1058 -0.0694
 5160PP      PP15264  15.050   9.789  11.820 -0.0232  0.0176  0.0788
 5161PP      PP15265  12.427   9.449   3.898 -0.1242 -0.1051 -0.2999
 5162PP      PP15266  11.727  13.004  11.517  0.5097  0.0147 -0.1072
 5163PP      PP15267   2.557   7.585   9.343  0.1963 -0.0148  0.1013
 5164PP      PP15268  14.637   5.599  11.380 -0.1071  0.1017  0.2087
 5165PP      PP15269  12.083  12.390  10.665  0.0674 -0.0556  0.1759
 5166PP      PP15270   5.501   9.122   2.349  0.0399  0.1547 -0.0946
 5167PP      PP15271  13.277   0.688   8.780  0.2246  0.0297 -0.1863
 5168PP      PP15272  15.540   3.069   2.418  0.2113  0.2458 -0.1945
 5169PP      PP15273   2.732   1.299  11.115 -0.1020  0.0703  0.1696
 5170PP      PP15274  15.615  13.249  10.707  0.0629  0.1480 -0.1668
 5171PP      PP15275  12.056  13.336   1.666  0.1210 -0.1593  0.1294
 5172PP      PP15276   7.919  13.562  12.471  0.0877 -0.0695 -0.0458
 5173PP      PP15277   0.512  16.065  11.887 -0.1064  0.1391  0.0094
 5174PP      PP15278   7.869   1.005   1.946 -0.0490 -0.1813 -0.0227
 5175PP      PP15279   5.425   1.074   2.682  0.1333 -0.2408  0.2341
 5176PP      PP15280   9.430  11.586   2.320  0.3748 -0.0249  0.1023
 5177PP      PP15281  10.562  14.421   2.156  0.1407 -0.0787 -0.0193
 5178PP      PP15282   0.060   5.062   1.730  0.0031  0.1265  0.1387
 5179PP      PP15283   5.351   1.952   2.381  0.3317 -0.2324 -0.1050
 5180PP      PP15284   5.977  12.451   3.484 -0.0436  0.1560  0.0308
 5181PP      PP15285   6.953   4.931  12.434 -0.1082 -0.2478  0.5058
 5182PP      PP15286   4.907  13.872   9.278  0.3239  0.2319 -0.0259
 5183PP      PP15287  14.215   1.950   9.505  0.0691 -0.3903 -0.0001
 5184PP      PP15288  10.940  16.014   1.494 -0.1100 -0.3397  0.0391
 5185PP      PP15289  13.023   6.019   3.448  0.0933  0.2324  0.0678
 5186PP      PP15290  15.414   9.177  10.119 -0.2099 -0.1969 -0.0592
 5187PP      PP15291   8.777  15.714   1.318  0.0110 -0.0994  0.2363
 5188PP      PP15292  16.281   7.647  11.950 -0.3518 -0.2268 -0.0092
 5189PP      PP15293   2.500   0.996  12.451 -0.0407  0.0028  0.3278
 5190PP      PP15294  13.543   0.143   0.436  0.0116  0.0287 -0.4313
 5191PP      PP15295   1.563   9.194   9.896  0.0684 -0.0487  0.1486
 5192PP      PP15296   6.999  15.583   1.314  0.0462 -0.1644  0.1048
 5193PP      PP15297  10.330   5.723  10.493 -0.0480  0.0883 -0.0927
 5194PP      PP15298   6.570  15.248  10.215  0.1044 -0.1994 -0.3716
 5195PP      PP15299  15.507  15.276  11.919 -0.2149 -0.1661 -0.0590
 5196PP      PP15300   3.308  11.246  10.381  0.0415  0.3002 -0.1415
 5197PP      PP15301   2.358  12.785  12.111  0.3433 -0.1403  0.3593
 5198PP      PP15302  15.049   4.461   9.457 -0.2845  0.0439 -0.1250
 5199PP      PP15303   2.461   4.502   8.093  0.2148 -0.1308  0.0684
 5200PP      PP15304   3.821  16.244   3.434  0.2091  0.0658  0.1343
 5201PP      PP15305   4.836   5.582  10.337 -0.0593  0.1224  0.1466
 5202PP      PP15306   3.565  15.726  10.326  0.0606  0.1200  0.0648
 5203PP      PP15307  15.589  14.270  11.060  0.0986 -0.1865  0.0735
 5204PP      PP15308   7.312   2.579   4.332 -0.1300  0.4433 -0.2077
 5205PP      PP15309   2.714  12.002   1.402 -0.2915 -0.0562  0.1820
 5206PP      PP15310   1.408   4.910   1.762 -0.1352 -0.0476 -0.0123
 5207PP      PP15311  15.897  11.400   9.738 -0.2097  0.0999 -0.1007
 5208PP      PP15312   5.027   3.055   0.595 -0.1943  0.0354  0.1805
 5209PP      PP15313   6.917   0.233   1.299  0.3022  0.0860 -0.2343
 5210PP      PP15314  12.076   2.145   4.170 -0.0946 -0.1029 -0.1027
 5211PP      PP15315   2.582   4.944   2.429 -0.1759 -0.2322 -0.1141
 5212PP      PP15316   5.499   2.030   8.909 -0.3072 -0.1759 -0.0454
 5213PP      PP15317   6.762   7.246   8.634 -0.2830 -0.3190 -0.1008
 5214PP      PP15318  13.378   2.809   9.391  0.1904  0.0519 -0.0551
 5215PP      PP15319   8.065   3.627   4.173  0.2231  0.1181  0.3812
 5216PP      PP15320  15.294  11.487   1.742  0.2174  0.2297  0.2760
 5217PP      PP15321   6.995  14.068   9.791 -0.1475 -0.1964 -0.2480
 5218PP      PP15322   8.696  10.453   3.450 -0.0153 -0.1959 -0.1783
 5219PP      PP15323   3.853   8.926   8.693 -0.2184 -0.1585 -0.2519
 5220PP      PP15324   2.282   0.997   2.062  0.2208 -0.0295 -0.0221
 5221PP      PP15325   6.615   8.778   3.351 -0.2438  0.1925  0.1416
 5222PP      PP15326   4.393  15.965   2.044 -0.0756  0.2029 -0.0070
 5223PP      PP15327   9.209   1.055   4.154  0.0934 -0.0492  0.0044
 5224PP      PP15328   6.809  10.230  11.455 -0.1276  0.1504  0.0957
 5225PP      PP15329   4.360  15.264   0.913 -0.0937  0.0514 -0.0378
 5226PP      PP15330  14.928   4.971   9.680 -0.3341 -0.1167  0.2628
 5227PP      PP15331  14.331  13.852  10.937 -0.0565  0.3007 -0.1924
 5228PP      PP15332  16.252  10.379   3.154  0.2691  0.3064  0.1891
 5229PP      PP15333  13.448  12.751  10.607 -0.1352  0.0974  0.3566
 5230PP      PP15334   4.443  11.588   1.510 -0.0157 -0.2557  0.1353
 5231PP      PP15335  13.593  11.231   8.279 -0.2334 -0.0299 -0.0410
 5232PP      PP15336  15.447   6.869   3.161 -0.0272  0.1241 -0.0037
 5233PP      PP15337  13.519  15.419   9.644 -0.0885 -0.2667 -0.2859
 5234PP      PP15338  12.384   4.948  10.636  0.0507  0.1533 -0.0180
 5235PP      PP15339  13.595   4.730   9.571  0.0142  0.1112  0.2891
 5236PP      PP15340  14.394   9.922  10.462 -0.0208 -0.1512  0.0501
 5237PP      PP15341   3.703  13.415  10.290  0.1757 -0.0128 -0.3171
 5238PP      PP15342  14.486  10.771   3.788  0.2355  0.0049  0.3397
 5239PP      PP15343  11.941   4.101   9.733  0.4737  0.1350  0.2620
 5240PP      PP15344  13.877  12.436  12.220  0.0078  0.0855 -0.1006
 5241PP      PP15345   8.960   4.760   2.040  0.0847 -0.0209  0.4777
 5242PP      PP15346  11.484   7.505   8.184 -0.2773 -0.0611 -0.2818
 5243PP      PP15347  12.056   2.641   3.448 -0.0654 -0.2232  0.0239
 5244PP      PP15348   9.166   0.835   1.042  0.1045  0.1190  0.1600
 5245PP      PP15349   1.150  16.102   0.743  0.0362  0.1543 -0.0605
 5246PP      PP15350   9.944   6.583   1.300 -0.2459  0.0420 -0.1494
 5247PP      PP15351   8.778  10.648   2.861 -0.2165  0.4481  0.0712
 5248PP      PP15352   1.471   6.941   9.354 -0.2087 -0.1094 -0.0094
 5249PP      PP15353   7.426   0.900   4.453 -0.1486 -0.0869 -0.1627
 5250PP      PP15354  10.345  11.458   9.582  0.0210  0.2052 -0.0848
 5251PP      PP15355   7.154   0.258   2.868 -0.0337 -0.0368  0.2611
 5252PP      PP15356   8.138   5.223   1.551  0.0090  0.1187 -0.0441
 5253PP      PP15357   4.003   0.762   4.288 -0.0565  0.0099  0.0800
 5254PP      PP15358   6.592  14.657   2.487  0.2133 -0.1557  0.1199
 5255PP      PP15359  13.145   0.210  10.176  0.3522  0.0368 -0.0568
 5256PP      PP15360  10.530   6.574   9.396 -0.0639  0.1066 -0.2108
 5257PP      PP15361   6.884  11.590  10.140  0.2123 -0.4571 -0.0805
 5258PP      PP15362  12.196   4.024   9.131  0.1246  0.2331  0.2709
 5259PP      PP15363   5.928  14.038  10.791 -0.1394 -0.2374 -0.2508
 5260PP      PP15364  13.713  14.443   0.325 -0.1078  0.0953 -0.2037
 5261PP      PP15365  15.824   0.176   8.950 -0.1148 -0.1713 -0.0753
 5262PP      PP15366  15.520   6.194   1.503  0.0679  0.3090 -0.3074
 5263PP      PP15367  15.062   8.361  10.099  0.1606 -0.1047 -0.2305
 5264PP      PP15368   7.563   5.468   1.912 -0.1219 -0.3409 -0.0597
 5265PP      PP15369  13.309   2.783   9.916  0.0304 -0.1668  0.0104
 5266PP      PP15370   3.917  12.099   2.101  0.2638  0.0318  0.4424
 5267PP      PP15371  14.379   6.621   0.496 -0.1031 -0.0287  0.0110
 5268PP      PP15372   7.637   2.548  10.427  0.0460 -0.1577  0.0530
 5269PP      PP15373  11.785  12.707  10.882 -0.3818 -0.0168  0.0168
 5270PP      PP15374  13.727   1.411  11.965 -0.0088 -0.0289  0.0521
 5271PP      PP15375  12.726   0.867  12.658 -0.0077 -0.1353  0.2806
 5272PP      PP15376   7.157   2.788   5.142  0.1977  0.1159 -0.2285
 5273PP      PP15377  12.867   5.128   8.465 -0.0072 -0.1057  0.0476
 5274PP      PP15378   6.720  14.243  10.140 -0.2074  0.0998 -0.1542
 5275PP      PP15379   9.487  11.353  12.014  0.0649  0.0850  0.0467
 5276PP      PP15380   4.108  13.799   8.956  0.0488 -0.2801 -0.0952
 5277PP      PP15381  14.773  13.120   1.949  0.0875 -0.4237  0.1565
 5278PP      PP15382   2.936   1.278   1.112 -0.1680 -0.1749  0.0414
 5279PP      PP15383   3.005  12.018   2.895 -0.0931  0.5679 -0.0452
 5280PP      PP15384   6.973   8.674   9.210 -0.0874 -0.0062 -0.1673
 5281PP      PP15385  11.361   7.615   9.710 -0.1011 -0.3423  0.3130
 5282PP      PP15386   1.527   0.491   1.372  0.0908  0.1273  0.1209
 5283PP      PP15387   2.542   8.304   1.283  0.1559  0.1939  0.0526
 5284PP      PP15388  10.767   0.594  11.918 -0.0527 -0.1481  0.2255
 5285PP      PP15389   6.502   2.754  10.283 -0.0945  0.1127  0.2121
 5286PP      PP15390  11.553   3.790   1.467 -0.3207 -0.0816 -0.2230
 5287PP      PP15391  12.834   5.165   9.297 -0.2233  0.0603  0.0712
 5288PP      PP15392   1.178  10.998  12.279  0.0750  0.0693  0.0442
 5289PP      PP15393   8.461  14.270   3.265 -0.0720 -0.1660 -0.2844
 5290PP      PP15394  15.398   6.588   3.853  0.1566 -0.0459  0.4773
 5291PP      PP15395  10.643   7.003   9.155 -0.1433  0.0049  0.4120
 5292PP      PP15396  14.088  15.052   3.925 -0.0529 -0.3087  0.0097
 5293PP      PP15397   7.551   7.828  10.171 -0.1402  0.2781  0.0515
 5294PP      PP15398   8.051   2.037  11.839  0.2480  0.0221 -0.2412
 5295PP      PP15399  12.883   8.866  11.139  0.3165  0.2028 -0.0617
 5296PP      PP15400   4.994   8.590   1.010  0.2447  0.1739 -0.0392
 5297PP      PP15401   5.293  11.357   1.682 -0.1233  0.0004 -0.0148
 5298PP      PP15402   9.258   0.733   2.800 -0.0372  0.1333 -0.0793
 5299PP      PP15403  10.755   4.068  10.351  0.1194 -0.1749 -0.0796
 5300PP      PP15404   7.426   9.362  11.486 -0.1008  0.2311 -0.2427
 5301PP      PP15405  11.542   3.714   3.240  0.1392  0.1578 -0.3288
 5302PP      PP15406   5.734  11.817   2.216 -0.0204  0.1754  0.0976
 5303PP      PP15407   2.778  10.081   2.524  0.3444  0.1212 -0.3308
 5304PP      PP15408   3.973   4.125   1.206 -0.0255 -0.2465  0.0296
 5305PP      PP15409   3.865   4.259  12.568 -0.1145  0.1424  0.2338
 5306PP      PP15410   6.574  11.533   9.004 -0.1056  0.1266 -0.1755
 5307PP      PP15411   7.479   3.512  10.648  0.1140  0.0121 -0.0906
 5308PP      PP15412   6.095   9.566   8.879  0.0535  0.3860 -0.2408
 5309PP      PP15413  14.084  13.689   9.412  0.1359 -0.3266  0.5722
 5310PP      PP15414   8.805   4.040   1.556 -0.0862 -0.0977  0.1615
 5311PP      PP15415  15.370   0.603   4.259  0.0406  0.0800  0.2442
 5312PP      PP15416   2.159   6.758   8.044 -0.0342  0.3980 -0.1675
 5313PP      PP15417   5.119   0.389  10.827 -0.0091 -0.2867  0.1070
 5314PP      PP15418  10.625  14.597   4.165  0.5302 -0.0483 -0.3295
 5315PP      PP15419  15.909   6.498  10.570 -0.3525 -0.1114 -0.3259
 5316PP      PP15420  11.754   8.624   3.813 -0.1667 -0.0983 -0.0531
 5317PP      PP15421   2.383  15.885   0.543  0.3230 -0.1007  0.2045
 5318PP      PP15422   4.234   9.525   1.431 -0.0143  0.1113  0.1885
 5319PP      PP15423  15.770   7.358   3.095  0.0273 -0.1488  0.0796
 5320PP      PP15424  14.283  11.743  10.971  0.0684 -0.1636 -0.2310
 5321PP      PP15425   5.313   3.630  10.263 -0.1431  0.0865 -0.0930
 5322PP      PP15426   4.184   5.582   8.447  0.1953 -0.2752 -0.0030
 5323PP      PP15427  10.039   9.102  10.904  0.1767  0.0249  0.1724
 5324PP      PP15428   8.290   6.076  11.603 -0.1840  0.0482  0.3787
 5325PP      PP15429  14.808   8.564  12.395  0.0503 -0.1860 -0.0144
 5326PP      PP15430  11.993  13.607  10.876  0.0642 -0.2359 -0.3062
 5327PP      PP15431  13.725   7.205   8.932 -0.3651  0.0126  0.0621
 5328PP      PP15432  15.330   3.340  12.510  0.1399  0.0835  0.2605
 5329PP      PP15433   1.815   9.273  11.452 -0.1232  0.1645 -0.2121
 5330PP      PP15434   1.187   1.896   0.765  0.1263  0.0296  0.1319
 5331PP      PP15435  10.543   1.230  11.929 -0.0019 -0.0013 -0.0320
 5332PP      PP15436   8.856  13.992  10.618 -0.0464 -0.0828  0.0174
 5333PP      PP15437  14.987   2.798   0.367 -0.0688 -0.0174 -0.0818
 5334PP      PP15438   3.811   6.595  10.773  0.1292 -0.0056 -0.1987
 5335PP      PP15439   0.141   6.477   7.890  0.0624 -0.0703 -0.3046
 5336PP      PP15440   0.820   7.314  12.162 -0.2634  0.2245 -0.1306
 5337PP      PP15441   4.415  16.089   2.856 -0.1403 -0.1987 -0.1134
 5338PP      PP15442   2.649   4.979   1.788 -0.0696  0.2114  0.0458
 5339PP      PP15443  13.883   3.731  12.223  0.2294 -0.0000 -0.0421
 5340PP      PP15444  10.979  10.567   1.305  0.1060  0.1320 -0.2034
 5341PP      PP15445  10.314  13.655  11.844  0.0181  0.0351  0.1191
 5342PP      PP15446   6.030   9.752  11.866 -0.2450 -0.2125  0.1589
 5343PP      PP15447  14.947   8.631   1.947 -0.0573  0.2755 -0.1057
 5344PP      PP15448   6.037  11.069  11.866  0.2000  0.0425  0.2664
 5345PP      PP15449   9.567   6.844   7.818  0.0317 -0.0532  0.2585
 5346PP      PP15450   9.092  14.335   3.843  0.3308 -0.0497 -0.2695
 5347PP      PP15451   8.845  11.769   2.884  0.2395  0.0905 -0.0617
 5348PP      PP15452   9.347   0.619   3.782 -0.0659  0.4792  0.2684
 5349PP      PP15453   7.730  12.769  11.607 -0.0037  0.1948  0.0674
 5350PP      PP15454  11.710   7.999   8.474 -0.1371 -0.2128  0.3056
 5351PP      PP15455   5.672   2.482   9.958 -0.0713 -0.1136  0.1768
 5352PP      PP15456   5.103  12.822   8.775  0.0334 -0.1614  0.0649
 5353PP      PP15457   2.276   6.802   3.184 -0.2213  0.2931  0.2932
 5354PP      PP15458   1.776   1.537   0.746  0.1359 -0.0186 -0.1090
 5355PP      PP15459  13.092   8.623   9.747  0.3805  0.3659 -0.2089
 5356PP      PP15460  11.943   5.721   8.133 -0.1052 -0.3962  0.0198
 5357PP      PP15461   3.852   6.049  12.089  0.0951 -0.0705  0.0615
 5358PP      PP15462   9.046   3.872   1.194  0.0129 -0.2568 -0.0034
 5359PP      PP15463   2.935   0.845  11.263  0.0270  0.0814 -0.3418
 5360PP      PP15464   4.963   7.428  10.718 -0.0698 -0.0905  0.0665
 5361PP      PP15465   1.951   8.989   2.826  0.0063 -0.2579 -0.1905
 5362PP      PP15466   1.333   6.856   8.428 -0.0935 -0.0027  0.2244
 5363PP      PP15467   7.259  11.545  11.834  0.0579 -0.1297 -0.2523
 5364PP      PP15468   7.767  10.966   4.123 -0.0889 -0.0404  0.0714
 5365PP      PP15469  16.340  13.901   9.812 -0.2362 -0.2390 -0.0545
 5366PP      PP15470  14.879   3.676   3.288 -0.0315 -0.1608 -0.1984
 5367PP      PP15471   3.426   5.575   8.929 -0.1498  0.5021 -0.2266
 5368PP      PP15472   9.338   5.060   1.858  0.1054  0.2519  0.1089
 5369PP      PP15473  15.653   5.303   9.537 -0.0231 -0.0410  0.1719
 5370PP      PP15474   5.320   6.299  11.035  0.0006 -0.1854 -0.1119
 5371PP      PP15475   8.084  10.624   0.254  0.0900  0.3243  0.1008
 5372PP      PP15476  12.557   3.869   0.159  0.2834  0.0718  0.1088
 5373PP      PP15477  11.242   4.714   9.883 -0.3340  0.2727  0.0610
 5374PP      PP15478  10.248   2.067   2.407  0.2560 -0.0172 -0.1745
 5375PP      PP15479  14.100  12.708   9.781  0.0784 -0.1310 -0.1898
 5376PP      PP15480  14.872   7.841  12.515  0.1707  0.1218 -0.1702
 5377PP      PP15481   2.638   1.407  10.603  0.2441  0.1081 -0.2732
 5378PP      PP15482  14.889   3.042   2.806  0.0101 -0.2800 -0.0320
 5379PP      PP15483   8.890  14.972   3.974  0.0904 -0.2737  0.1263
 5380PP      PP15484  13.343  11.358   2.735  0.1461 -0.0269 -0.0724
 5381PP      PP15485   2.018   0.534  11.476  0.0643  0.0236 -0.3191
 5382PP      PP15486  15.739   9.661   2.582  0.0147 -0.2112  0.2421
 5383PP      PP15487  12.911  13.560  10.456 -0.1644  0.0705 -0.1294
 5384PP      PP15488  10.701   9.469   9.492  0.0582 -0.0241  0.2705
 5385PP      PP15489  10.434  15.518   1.072 -0.1427 -0.2351 -0.0824
 5386PP      PP15490   1.610  14.526   1.998 -0.1650 -0.1071  0.2905
 5387PP      PP15491  10.291   3.380  11.961  0.1829  0.2417  0.0818
 5388PP      PP15492   4.014   0.849   3.284  0.0331  0.1139 -0.0428
 5389PP      PP15493  13.018   2.024   8.886  0.0725 -0.1463 -0.1655
 5390PP      PP15494  14.014   7.571   0.307  0.0174  0.1514 -0.0232
 5391PP      PP15495  14.619   9.351   0.352  0.4683  0.0972 -0.4676
 5392PP      PP15496   8.318   7.792  11.729 -0.1283 -0.3020  0.1844
 5393PP      PP15497  15.582   8.616   0.018 -0.0304 -0.1512  0.3383
 5394PP      PP15498   1.241  15.461   9.582 -0.2053  0.1845 -0.0946
 5395PP      PP15499   6.448   6.835   9.878  0.2255  0.1358  0.0512
 5396PP      PP15500   2.744   1.802   9.393 -0.1431 -0.0510  0.1534
 5397PP      PP15501   3.555  15.785   9.009  0.0116  0.0461 -0.1408
 5398PP      PP15502   9.169   7.640  10.128  0.0325  0.0293  0.1882
 5399PP      PP15503   3.845  13.143   8.734  0.2090  0.1151 -0.3628
 5400PP      PP15504   3.773   3.596   0.460  0.1227 -0.0936  0.0917
 5401PP      PP15505   4.037  14.243   8.675  0.1959 -0.1339 -0.2428
 5402PP      PP15506  15.784   7.315   0.414  0.0267 -0.0895 -0.2144
 5403PP      PP15507   1.624   2.009   0.600  0.5091 -0.0260 -0.2639
 5404PP      PP15508  15.161   5.178  10.079  0.1153 -0.2668  0.1169
 5405PP      PP15509   2.045  16.137  12.502  0.0421  0.1643 -0.1866
 5406PP      PP15510   7.446  12.661   9.593 -0.0526 -0.2183 -0.2935
 5407PP      PP15511  12.196   7.314   3.397  0.1200 -0.0232 -0.2461
 5408PP      PP15512   9.931  13.686   4.215  0.0949 -0.0327  0.1733
 5409PP      PP15513   8.512  13.870   9.821  0.0363  0.2646 -0.1658
 5410PP      PP15514   0.313   3.478  10.148 -0.2218 -0.1814 -0.2001
 5411PP      PP15515   1.099   1.066   3.977 -0.1429  0.2381  0.1210
 5412PP      PP15516  14.673  10.278  10.648 -0.1437  0.0960 -0.1307
 5413PP      PP15517   2.153   0.546  10.899 -0.4746  0.1737  0.0086
 5414PP      PP15518   9.115  13.283   3.809 -0.0225 -0.1355  0.0500
 5415PP      PP15519  15.847   7.872   0.579  0.0357 -0.1874  0.0814
 5416PP      PP15520  12.872   0.602  10.201 -0.1630  0.1837  0.0673
 5417PP      PP15521   3.987   2.941   3.263 -0.2223  0.0344  0.0990
 5418PP      PP15522   3.533   1.451  11.397  0.4127 -0.0521 -0.2426
 5419PP      PP15523  12.198   5.797  12.555 -0.0264 -0.3078  0.3055
 5420PP      PP15524   5.355  13.536   1.097  0.1236 -0.0782  0.1340
 5421PP      PP15525   4.580  15.725   0.945 -0.0158  0.2140 -0.1322
 5422PP      PP15526  16.064  13.397  12.245  0.0992  0.2363  0.0187
 5423PP      PP15527   8.040   6.208   3.468  0.1737  0.3801  0.0399
 5424PP      PP15528   4.131   0.917   1.667  0.1891 -0.0492  0.1305
 5425PP      PP15529   8.893   8.533  10.405 -0.0088 -0.1194 -0.1104
 5426PP      PP15530   4.238   2.819   8.763  0.0452  0.0049 -0.1146
 5427PP      PP15531   9.719  10.395   2.658  0.0459  0.1581 -0.1062
 5428PP      PP15532   7.324   2.023   2.054 -0.0471 -0.0813  0.0404
 5429PP      PP15533   9.358   3.346   2.952 -0.1622  0.2044  0.0520
 5430PP      PP15534  12.113  15.542  11.832 -0.0686 -0.1325 -0.1057
 5431PP      PP15535  15.044  14.770   2.934  0.1918 -0.3134 -0.1168
 5432PP      PP15536   4.671   3.307  11.782  0.1992 -0.3450 -0.1810
 5433PP      PP15537  13.464  12.324  11.877  0.0914 -0.0619  0.2319
 5434PP      PP15538   3.382   9.892  11.950 -0.0446 -0.1276  0.0458
 5435PP      PP15539  11.280   8.064  10.955  0.1847 -0.0191 -0.0323
 5436PP      PP15540  15.155   5.759  10.258  0.0083 -0.2306  0.1525
 5437PP      PP15541   9.383   6.288   0.588  0.3382 -0.3515 -0.3035
 5438PP      PP15542  13.586   2.249   1.580  0.0184  0.2231 -0.0975
 5439PP      PP15543   1.719  11.265  11.288  0.2280 -0.1507 -0.2803
 5440PP      PP15544   5.552   0.076   9.354 -0.0997 -0.0716  0.1512
 5441PP      PP15545   6.370   3.621  11.411  0.0239  0.0075 -0.1635
 5442PP      PP15546  13.861  14.626   9.452  0.1472  0.1313  0.1829
 5443PP      PP15547  14.209   9.591   1.684  0.1456 -0.0161 -0.0935
 5444PP      PP15548   1.204   8.780   1.002 -0.3520 -0.2230 -0.0491
 5445PP      PP15549   9.549  13.395   2.590  0.0296  0.0090 -0.1193
 5446PP      PP15550   9.622  12.657   9.736  0.2552  0.0327 -0.0427
 5447PP      PP15551  12.972   1.654   2.813  0.1512  0.0315 -0.1846
 5448PP      PP15552   3.012  15.709   9.635  0.1424  0.1133  0.1047
 5449PP      PP15553  14.268   1.958   1.062  0.0786 -0.0108  0.0718
 5450PP      PP15554   3.700   3.225  12.585 -0.0901  0.2566  0.0271
 5451PP      PP15555   4.455   6.416   3.899 -0.0434 -0.1847 -0.0091
 5452PP      PP15556   8.723  14.190  10.190 -0.3005  0.0062  0.0806
 5453PP      PP15557   0.341  13.870   3.291  0.0239  0.2587  0.4091
 5454PP      PP15558   9.287   9.184   0.732  0.1720 -0.3368 -0.2477
 5455PP      PP15559  14.859  15.949  10.463  0.0932  0.4226  0.0923
 5456PP      PP15560  15.177   3.515   8.461 -0.2741 -0.1059 -0.0233
 5457PP      PP15561  11.620  11.232  10.553  0.0057 -0.1689  0.1965
 5458PP      PP15562   8.433  15.628   3.433 -0.2949  0.3021 -0.0937
 5459PP      PP15563   4.114   0.659   2.482  0.3231 -0.0335  0.1163
 5460PP      PP15564  13.533   0.820   0.898  0.1816 -0.1480  0.1560
 5461PP      PP15565  13.030   9.506   0.154  0.0910  0.2777 -0.3867
 5462PP      PP15566  16.197   6.330   2.975  0.0636  0.1295 -0.2517
 5463PP      PP15567  15.710  11.302   3.918  0.2143 -0.0857 -0.2996
 5464PP      PP15568  15.618   9.265   9.629 -0.1773 -0.0307  0.0094
 5465PP      PP15569   7.241   6.966   8.705 -0.0030 -0.4161  0.2638
 5466PP      PP15570  16.140   7.168   0.023 -0.5107 -0.0011 -0.1779
 5467PP      PP15571   3.350  10.210   9.481 -0.3477  0.1226  0.2319
 5468PP      PP15572   5.533  12.992   4.038 -0.0663  0.1012  0.0032
 5469PP      PP15573   6.388  12.831  10.822  0.0168  0.1686 -0.3527
 5470PP      PP15574   6.316   3.830   1.060  0.1880 -0.0997 -0.0359
 5471PP      PP15575   8.664   3.719   2.822 -0.1209  0.2009  0.0929
 5472PP      PP15576   2.320  12.261   1.490 -0.1257 -0.0996  0.2779
 5473PP      PP15577   4.042   6.165   1.137 -0.2696 -0.2176 -0.0668
 5474PP      PP15578   2.907   6.778   0.950  0.4009 -0.2950  0.0438
 5475PP      PP15579   2.986  14.218   0.713 -0.1527 -0.0485  0.1137
 5476PP      PP15580   5.517   9.567   3.675  0.3376  0.1252 -0.2431
 5477PP      PP15581   3.046  15.618   9.126 -0.0215 -0.1875  0.2341
 5478PP      PP15582   0.305  13.039   4.046  0.2420 -0.0365 -0.1802
 5479PP      PP15583   0.193  12.397   8.824  0.2117 -0.0483 -0.1890
 5480PP      PP15584   8.969  11.191   4.048  0.0929 -0.0631  0.3611
 5481PP      PP15585  15.031   7.063  12.119  0.0845  0.3396  0.3535
 5482PP      PP15586  10.898  10.014   8.920  0.0653  0.2495 -0.0104
 5483PP      PP15587  14.582  10.283   1.552 -0.2316 -0.2612  0.0379
 5484PP      PP15588  12.476  10.638   3.374  0.0612 -0.0064 -0.2256
 5485PP      PP15589  13.886  13.673   3.023 -0.2249  0.0071  0.1150
 5486PP      PP15590   0.109   0.100  12.078  0.3970  0.1521  0.1835
 5487PP      PP15591  10.884  12.614   9.265  0.1742 -0.0312  0.1584
 5488PP      PP15592  15.717  15.708   3.849 -0.0272 -0.0676 -0.1233
 5489PP      PP15593  13.744  15.389  10.135 -0.2240 -0.0433  0.2387
 5490PP      PP15594   5.582  12.487  10.218 -0.0261  0.1705 -0.1661
 5491PP      PP15595   5.545  14.777   2.540 -0.2217 -0.2965  0.0376
 5492PP      PP15596  12.674  10.513   2.872 -0.2147 -0.1039 -0.1022
 5493PP      PP15597  10.771   0.976  12.373 -0.0988 -0.2176 -0.0731
 5494PP      PP15598   8.412  10.240   9.972 -0.2139  0.0283  0.2159
 5495PP      PP15599   8.985  15.310  11.579 -0.1028 -0.0759 -0.3793
 5496PP      PP15600   9.280   0.734  11.722  0.1815  0.0656  0.1894
 5497PP      PP15601  13.148  13.784   1.424  0.1596 -0.1604  0.0209
 5498PP      PP15602   2.300   0.509  11.974  0.1834 -0.0857 -0.1138
 5499PP      PP15603   6.392   0.743   4.085  0.1918  0.2467 -0.0275
 5500PP      PP15604   0.592   7.430   1.114  0.0600  0.2208 -0.2126
 5501PP      PP15605   6.041   2.374   3.243  0.0344  0.2036  0.2138
 5502PP      PP15606   8.703   1.718  10.574 -0.1889 -0.0642 -0.3340
 5503PP      PP15607   1.008   0.650   1.402  0.0490 -0.1750 -0.2893
 5504PP      PP15608  11.752   5.455   0.318 -0.1816  0.1156  0.0121
 5505PP      PP15609   5.930   2.981  11.910 -0.0001  0.2639  0.0578
 5506PP      PP15610  14.810   6.407   3.671  0.3385 -0.0357 -0.4165
 5507PP      PP15611  11.095  12.052  10.725 -0.1292  0.0745  0.0988
 5508PP      PP15612  12.016   1.391   2.522 -0.2856  0.3182 -0.1021
 5509PP      PP15613   4.948   3.595   8.556 -0.0402 -0.3135  0.3600
 5510PP      PP15614   1.145  10.762   8.711  0.0559  0.0538  0.1697
 5511PP      PP15615  11.184   6.349  10.164  0.0512  0.1593 -0.0366
 5512PP      PP15616  10.144  13.463  12.282  0.5532 -0.0716  0.0432
 5513PP      PP15617   0.484   8.019   1.533  0.4516 -0.2639  0.1783
 5514PP      PP15618   0.353  10.898  12.129  0.0783  0.2476  0.0288
 5515PP      PP15619   9.653  12.594   3.115  0.0915 -0.1851 -0.0245
 5516PP      PP15620   6.983  11.823  12.150 -0.2468 -0.0981 -0.0197
 5517PP      PP15621   8.580  10.203   9.031  0.0821  0.3105  0.2381
 5518PP      PP15622  14.815   9.562  10.259  0.1645 -0.3013  0.0603
 5519PP      PP15623  15.032   7.621  11.656  0.2497  0.0862  0.1556
 5520PP      PP15624   0.669  15.091  11.562  0.0682  0.0256 -0.1554
 5521PP      PP15625   1.442  12.474   0.944  0.0778 -0.0940 -0.0406
 5522PP      PP15626  10.635   2.344   1.000  0.0492  0.0702 -0.1887
 5523PP      PP15627  12.737  15.344   2.077  0.2857 -0.0827 -0.1303
 5524PP      PP15628   8.052   6.914   9.199 -0.2463 -0.1002  0.0362
 5525PP      PP15629   2.455   4.459  10.264 -0.3220  0.0560 -0.3749
 5526PP      PP15630  12.228  13.866  12.278 -0.1014 -0.1854  0.1144
 5527PP      PP15631   6.759  14.409   0.769 -0.1085 -0.4413  0.1535
 5528PP      PP15632   2.242   5.008   0.228 -0.2161  0.1688  0.2217
 5529PP      PP15633  10.728   0.894   9.484 -0.0976  0.2389  0.0341
 5530PP      PP15634  12.179  13.010  12.160 -0.2602 -0.1826  0.0990
 5531PP      PP15635   4.851   8.915   8.277  0.0037  0.3658 -0.1408
 5532PP      PP15636  10.654   3.303   3.732 -0.0532 -0.1921 -0.2686
 5533PP      PP15637   2.503   9.644   8.372  0.0849 -0.1247 -0.0534
 5534PP      PP15638   0.710   0.555   4.168  0.1302  0.0905  0.0180
 5535PP      PP15639   4.682  13.375   9.132  0.0520 -0.3276  0.0473
 5536PP      PP15640   0.947   2.870   4.238 -0.1565 -0.1471  0.2143
 5537PP      PP15641  12.815   7.651  11.704  0.0510  0.0965  0.0938
 5538PP      PP15642  11.201  10.191  11.028  0.0349  0.0362 -0.1311
 5539PP      PP15643  11.392   3.219   1.152 -0.1219 -0.0229 -0.3512
 5540PP      PP15644   2.278   4.165   3.808 -0.0931  0.3493 -0.2247
 5541PP      PP15645  16.153   5.916  10.913  0.1058  0.0896 -0.1100
 5542PP      PP15646   2.343   9.664  12.709  0.3990 -0.0987 -0.2176
 5543PP      PP15647   4.306  15.181   9.942 -0.4244 -0.3687 -0.1316
 5544PP      PP15648  15.131   1.390   8.905 -0.0684  0.1422 -0.1415
 5545PP      PP15649  13.274   2.120   0.318  0.3469  0.1733  0.0409
 5546PP      PP15650  16.049  10.300  12.475  0.2581 -0.2923 -0.0652
 5547PP      PP15651  14.953   1.437   9.888  0.2421 -0.0509  0.1002
 5548PP      PP15652   7.348  11.553  12.318  0.0026  0.1173  0.2200
 5549PP      PP15653   1.281   0.760  11.873 -0.3118 -0.0725  0.3899
 5550PP      PP15654   9.239  13.772  11.925  0.1946 -0.0352 -0.0174
 5551PP      PP15655   3.158  10.229   2.769  0.0598 -0.0739  0.0300
 5552PP      PP15656  14.680  11.995   9.791  0.0614  0.3803  0.0552
 5553PP      PP15657   2.364  11.925   1.066  0.0975 -0.0787  0.2394
 5554PP      PP15658   3.911  15.972  11.644  0.3284 -0.1761 -0.0135
 5555PP      PP15659  10.343  10.931   9.723 -0.2781  0.1379 -0.1082
 5556PP      PP15660   6.495  12.934   2.103 -0.0233 -0.0744  0.0236
 5557PP      PP15661   9.282  12.619   3.833  0.2342  0.2942  0.0109
 5558PP      PP15662   5.037  15.086   8.039  0.3324 -0.1704  0.0249
 5559PP      PP15663  13.616   4.978   0.618 -0.2782  0.0969  0.1138
 5560PP      PP15664  13.165  14.022  12.670  0.1160  0.1778  0.0092
 5561PP      PP15665  14.072   0.173  12.008  0.2847  0.0963 -0.0575
 5562PP      PP15666   3.008   2.169  11.071 -0.3206 -0.1249  0.2360
 5563PP      PP15667  10.094  12.221  10.479  0.0697 -0.0195 -0.0015
 5564PP      PP15668  15.641   0.404   3.030  0.2229  0.3808 -0.1312
 5565PP      PP15669  10.513   4.624   2.403 -0.1895 -0.0199 -0.1079
 5566PP      PP15670  16.044  14.945   3.472 -0.0380 -0.2437 -0.0108
 5567PP      PP15671  14.336  10.591   1.315  0.4588  0.2156  0.0120
 5568PP      PP15672   8.939   1.878   9.249  0.1522 -0.0728 -0.0199
 5569PP      PP15673   7.923  12.572   9.417 -0.3329 -0.0177 -0.0933
 5570PP      PP15674   4.462   2.078   3.227 -0.4628 -0.0487 -0.1611
 5571PP      PP15675   6.555  14.281  12.283  0.0555 -0.2718 -0.0503
 5572PP      PP15676  10.377  13.856   9.462  0.2846 -0.2019  0.1440
 5573PP      PP15677   0.470  12.206  10.366  0.0009 -0.1171 -0.1027
 5574PP      PP15678   5.672  14.227  12.601  0.0139 -0.1321 -0.1743
 5575PP      PP15679   3.957   9.426   3.509 -0.3437 -0.2176 -0.1001
 5576PP      PP15680   7.218  14.837   9.178  0.1053  0.1552 -0.0157
 5577PP      PP15681  10.760   3.459   9.848 -0.1588  0.2166  0.2392
 5578PP      PP15682   8.398  15.034   3.932 -0.1100  0.1084 -0.0324
 5579PP      PP15683  14.121   7.255  11.054 -0.2802  0.1505  0.0812
 5580PP      PP15684   2.200   8.440   2.222 -0.0428  0.1001  0.0902
 5581PP      PP15685   9.432   2.625  11.898  0.1150  0.1698  0.1599
 5582PP      PP15686  14.751   4.196  11.790  0.1709 -0.1974  0.1596
 5583PP      PP15687   3.169   5.745   4.017  0.2966  0.0785  0.1669
 5584PP      PP15688   8.481   6.952  11.823  0.0100 -0.1044 -0.2315
 5585PP      PP15689   5.258  12.074  10.327  0.2052 -0.3262  0.3489
 5586PP      PP15690   9.320   7.555  11.709 -0.1793  0.0093  0.0590
 5587PP      PP15691   5.062   0.364   0.198 -0.1067 -0.3989  0.0262
 5588PP      PP15692   7.348   0.014   8.425  0.0916  0.3323 -0.2120
 5589PP      PP15693   9.624   7.692   9.237  0.3680  0.1718  0.1239
 5590PP      PP15694   2.890   5.190  10.691 -0.0490 -0.0876  0.2239
 5591PP      PP15695   6.591   0.632   1.668 -0.0538 -0.0840 -0.1568
 5592PP      PP15696   3.587  14.311   1.201  0.1125 -0.0280 -0.0887
 5593PP      PP15697  12.893  15.231   4.408  0.0620  0.2782 -0.2488
 5594PP      PP15698  14.273   3.520   9.584 -0.1925 -0.0660 -0.2479
 5595PP      PP15699   5.825   8.819   2.187 -0.0905  0.2551 -0.2837
 5596PP      PP15700   8.365  10.725   2.187 -0.0488  0.1514  0.1011
 5597PP      PP15701   1.659  14.056   2.335 -0.0952  0.0812 -0.1648
 5598PP      PP15702  11.729   5.857   0.613  0.0257  0.1044  0.1086
 5599PP      PP15703   0.938  12.876  10.009  0.0295  0.1894  0.0179
 5600PP      PP15704  10.195   7.177   1.668 -0.3390 -0.1973 -0.3590
 5601PP      PP15705   3.414   8.577  12.229 -0.1646 -0.1013 -0.1947
 5602PP      PP15706  14.554  15.502   0.638 -0.1010  0.0096 -0.1589
 5603PP      PP15707  11.842   7.949   3.115  0.2507  0.1354 -0.1492
 5604PP      PP15708  12.180   3.650   3.858 -0.0608  0.3072  0.0590
 5605PP      PP15709  13.828   1.526  10.742 -0.1607  0.1295  0.3105
 5606PP      PP15710   9.204   1.530  11.717 -0.1044 -0.0574  0.2349
 5607PP      PP15711  16.160  15.360   3.858 -0.0603 -0.1951 -0.2155
 5608PP      PP15712   6.641  15.693   8.828 -0.3641 -0.2280  0.1097
 5609PP      PP15713   4.558   4.329   2.373  0.2429  0.1558  0.0324
 5610PP      PP15714  12.783   6.932   0.135 -0.0316 -0.2113  0.0105
 5611PP      PP15715   2.218   3.114  11.360  0.1488 -0.1723  0.2749
 5612PP      PP15716   1.345   8.148   2.274 -0.4029 -0.0334  0.1885
 5613PP      PP15717  13.602   6.626   3.537 -0.3577 -0.1230 -0.3817
 5614PP      PP15718   4.545   7.717   3.060  0.2599  0.3466 -0.2856
 5615PP      PP15719   1.162   1.538   9.004 -0.2298  0.2509 -0.0837
 5616PP      PP15720  12.054   8.866  11.478  0.2421 -0.0594  0.1930
 5617PP      PP15721  14.616  10.818  10.658  0.0180  0.3724 -0.3291
 5618PP      PP15722   4.706   1.034   3.755  0.2702  0.1478  0.1636
 5619PP      PP15723   9.745   7.474   2.944 -0.0489  0.0531 -0.2037
 5620PP      PP15724   1.108   8.268   9.175 -0.1104  0.0998 -0.4358
 5621PP      PP15725  15.992  13.790  12.604  0.1101 -0.0896  0.0815
 5622PP      PP15726  10.809   9.876   1.516  0.1399  0.2587  0.0066
 5623PP      PP15727  10.632  12.509  12.491 -0.1904  0.2503  0.1594
 5624PP      PP15728  11.314   5.682  12.230  0.0980  0.3064  0.0061
 5625PP      PP15729   2.148   4.451   2.101 -0.2863 -0.3226  0.3207
 5626PP      PP15730   6.427  12.188   1.898 -0.3008  0.1907  0.2032
 5627PP      PP15731   3.703  10.850  10.373  0.0484 -0.2823 -0.0433
 5628PP      PP15732   3.411   2.117   1.385 -0.0835  0.0516 -0.2249
 5629PP      PP15733   2.371   5.231  10.845 -0.0575  0.1713 -0.2951
 5630PP      PP15734  12.158   6.584   2.415 -0.1077  0.0908 -0.2258
 5631PP      PP15735  12.337   3.680   9.544  0.1842 -0.3307  0.1463
 5632PP      PP15736   1.494  12.423   9.269 -0.1855  0.3431 -0.2290
 5633PP      PP15737  13.327   2.462  12.299  0.2742  0.1083 -0.1435
 5634PP      PP15738  14.317  10.203   9.771  0.0282 -0.0972  0.0315
 5635PP      PP15739   1.453  16.237  11.900  0.2517 -0.0130 -0.0665
 5636PP      PP15740   4.189   5.203   0.531 -0.2567  0.2725 -0.1372
 5637PP      PP15741   6.091   0.672   3.312  0.0325 -0.2659  0.0586
 5638PP      PP15742  13.036  15.413   9.141 -0.3417  0.0449  0.2256
 5639PP      PP15743   6.551  13.062   0.253  0.0567  0.0056  0.1016
 5640PP      PP15744   4.837   1.070  10.225 -0.1001  0.4927  0.0641
 5641PP      PP15745   5.628   3.187   1.229 -0.2313  0.1491 -0.1055
 5642PP      PP15746   6.615  12.784   2.689  0.1038  0.1492  0.0047
 5643PP      PP15747   3.120  14.809  11.843 -0.1593  0.0866  0.2367
 5644PP      PP15748   0.625   0.736  12.602 -0.0778  0.1361  0.0696
 5645PP      PP15749   6.577  12.620  10.372 -0.2130  0.1450  0.1929
 5646PP      PP15750   2.188   2.132   8.548  0.0874 -0.0392  0.0815
 5647PP      PP15751   7.286   3.421  11.856 -0.2928  0.1090 -0.0061
 5648PP      PP15752   1.522  13.292   0.323 -0.0198  0.0549 -0.0437
 5649PP      PP15753   9.455  11.089   9.713 -0.0910 -0.1766 -0.1747
 5650PP      PP15754  15.205   1.477  11.920  0.0677 -0.1210 -0.3048
 5651PP      PP15755   0.971  12.635   9.592 -0.0741  0.0629 -0.1105
 5652PP      PP15756   3.422  13.224  12.019  0.2444 -0.1190  0.2460
 5653PP      PP15757  15.710  12.482   3.776  0.4141 -0.1467  0.2158
 5654PP      PP15758   3.797  15.263   8.784  0.1036 -0.0257  0.0190
 5655PP      PP15759  13.650   4.158   8.974  0.1151 -0.3274  0.2894
 5656PP      PP15760  15.486  14.576   2.864  0.1779  0.1194  0.2235
 5657PP      PP15761   4.915  13.430   2.769  0.0635  0.1657 -0.2903
 5658PP      PP15762  13.712   1.090  12.390  0.0189  0.0854 -0.1518
 5659PP      PP15763  15.438  10.368   1.436  0.0496 -0.0448 -0.0199
 5660PP      PP15764   3.097  15.635  11.625  0.1378  0.2544  0.1961
 5661PP      PP15765   2.309   0.271   2.391  0.2147 -0.0155 -0.1051
 5662PP      PP15766   0.980   1.390   2.415 -0.3594 -0.2255  0.2630
 5663PP      PP15767   4.762  12.336  10.601  0.0643 -0.3895 -0.1796
 5664PP      PP15768   4.077   7.570  11.075 -0.0235 -0.1395 -0.3355
 5665PP      PP15769   6.369   6.567   3.467  0.2796 -0.0744  0.2362
 5666PP      PP15770   3.832   5.683   1.090  0.1998  0.1603  0.1190
 5667PP      PP15771   2.537   3.907   2.600 -0.2924 -0.1259 -0.0573
 5668PP      PP15772   2.149  11.383   3.887 -0.2810 -0.1557 -0.0498
 5669PP      PP15773   5.202   5.324   8.591 -0.3563  0.1466  0.1848
 5670PP      PP15774   3.937   8.165   8.235 -0.3583 -0.0833  0.1173
 5671PP      PP15775   9.428   0.368   1.890 -0.2100 -0.0520 -0.0636
 5672PP      PP15776   7.879   5.415   1.175 -0.0244 -0.0224  0.0560
 5673PP      PP15777   7.054   8.559   3.216  0.0163  0.0086 -0.2670
 5674PP      PP15778   4.413  11.762   9.127 -0.1841  0.1493 -0.0482
 5675PP      PP15779   1.283  13.684  12.107 -0.1375  0.1597  0.2024
 5676PP      PP15780   7.306   7.106  12.113  0.1483  0.1876 -0.0412
 5677PP      PP15781   3.987   4.562   4.242  0.0880  0.1328 -0.1733
 5678PP      PP15782   5.300   8.507  10.141  0.0124 -0.1152 -0.0907
 5679PP      PP15783   7.175  13.503   3.420 -0.3165  0.1764  0.1952
 5680PP      PP15784   1.614   5.770   1.138 -0.1780 -0.0203  0.1349
 5681PP      PP15785   0.576   1.745   2.529  0.0687 -0.0536  0.4245
 5682PP      PP15786  14.163   8.996  12.503 -0.3725  0.1747  0.0110
 5683PP      PP15787  14.941   0.518   3.965 -0.1986  0.0638 -0.1208
 5684PP      PP15788   7.931   9.209   1.197 -0.1605 -0.1273 -0.1123
 5685PP      PP15789  11.763   9.887  12.288 -0.0635 -0.1071  0.1401
 5686PP      PP15790   3.590   6.069   2.765  0.2612 -0.0039 -0.1419
 5687PP      PP15791  16.306  14.161   4.563 -0.1188  0.1769  0.1016
 5688PP      PP15792   9.642   6.610  12.404 -0.0957 -0.0093 -0.0797
 5689PP      PP15793   2.511   5.570   2.819 -0.4381  0.1411  0.1001
 5690PP      PP15794  11.858  10.732  11.908 -0.0659 -0.0751 -0.1756
 5691PP      PP15795   7.002   1.617   1.928 -0.1591  0.2330 -0.1804
 5692PP      PP15796  14.447   9.571  11.154 -0.0643  0.0993 -0.1361
 5693PP      PP15797  14.604  16.326   2.450  0.1006 -0.2764  0.2240
 5694PP      PP15798   3.081   4.106  12.059  0.2999 -0.1491 -0.0998
 5695PP      PP15799  14.121  15.097   3.443  0.2065 -0.0832 -0.0558
 5696PP      PP15800   9.146  15.704   4.283  0.1273 -0.1138 -0.1661
 5697PP      PP15801  11.086  12.790   1.500 -0.2027  0.1291 -0.1277
 5698PP      PP15802   7.551   9.435   1.441 -0.0153  0.1618  0.1302
 5699PP      PP15803  12.406   2.761  12.364 -0.1961 -0.3098  0.2518
 5700PP      PP15804   3.777   0.705   1.252  0.0767 -0.1219 -0.2594
 5701PP      PP15805   6.382   4.193   3.535 -0.0928 -0.2298 -0.3166
 5702PP      PP15806  16.019   3.610  11.383 -0.0286 -0.2523 -0.1082
 5703PP      PP15807  11.427  11.924  11.506 -0.1446 -0.0632 -0.2830
 5704PP      PP15808   5.349   2.795   2.004  0.0428  0.3139 -0.2924
 5705PP      PP15809  15.476  13.557  12.457  0.1749  0.1472 -0.2784
 5706PP      PP15810  16.305   3.717   1.371 -0.1882  0.2383  0.2046
 5707PP      PP15811   8.052   0.854   0.544 -0.1884 -0.1701  0.1065
 5708PP      PP15812   6.254   7.995   8.072  0.2275  0.0376  0.1491
 5709PP      PP15813  13.146   9.142   1.348  0.2113 -0.3297  0.1423
 5710PP      PP15814   4.407   9.663  11.407 -0.2454  0.1849  0.0568
 5711PP      PP15815   3.570   6.550   2.875 -0.0165  0.0974  0.0861
 5712PP      PP15816   0.889   4.463   1.599  0.1474  0.1241  0.0605
 5713PP      PP15817   3.847  11.136  12.100  0.1086  0.0557  0.0006
 5714PP      PP15818   3.194   6.931   2.811 -0.0417  0.0782  0.0891
 5715PP      PP15819  15.996   4.408   1.229 -0.0024 -0.2973  0.3160
 5716PP      PP15820  11.648   1.458   1.415  0.0739  0.2307  0.3180
 5717PP      PP15821   5.806  10.274   0.450  0.3056  0.2794  0.1507
 5718PP      PP15822  13.993   1.542   9.257  0.0360 -0.1703  0.3828
 5719PP      PP15823   5.122   3.615   0.138 -0.3089  0.2681  0.1015
 5720PP      PP15824  16.162   0.790   3.799 -0.4414  0.0452 -0.0412
 5721PP      PP15825  15.203   1.482  10.865  0.0503 -0.0049 -0.1117
 5722PP      PP15826  12.679   1.119   3.262  0.1334 -0.4995 -0.0350
 5723PP      PP15827   0.793  14.900  12.225  0.1693  0.2198 -0.3707
 5724PP      PP15828   6.266  16.064   3.719 -0.2626 -0.0896 -0.1008
 5725PP      PP15829  14.228  10.268   8.663  0.0966 -0.2261  0.3661
 5726PP      PP15830   4.509  14.912   9.348  0.2549  0.0539  0.0234
 5727PP      PP15831  14.724   4.578   3.070 -0.0562  0.1485 -0.2374
 5728PP      PP15832   2.746  15.490   3.451 -0.0131 -0.1056 -0.0628
 5729PP      PP15833   6.581   6.191  10.749 -0.1131  0.1484 -0.0109
 5730PP      PP15834   6.999   1.196  12.237  0.1061  0.1119 -0.3116
 5731PP      PP15835   8.311   4.458   1.135 -0.0832 -0.2558 -0.2326
 5732PP      PP15836   5.599   0.164   1.371  0.2776 -0.0037 -0.4057
 5733PP      PP15837  10.085   0.734   9.217 -0.3022  0.0227  0.0201
 5734PP      PP15838   7.534   9.903   3.135 -0.2186  0.0091 -0.0855
 5735PP      PP15839  13.447   1.514   2.146  0.2218  0.3903 -0.1839
 5736PP      PP15840   2.089   8.799  10.732 -0.0773 -0.0380  0.1172
 5737PP      PP15841   0.345  16.227   1.833  0.2935  0.3238  0.1535
 5738PP      PP15842   6.450   9.651   0.018  0.1274  0.0210  0.0092
 5739PP      PP15843  10.777  13.382   9.693 -0.3397 -0.0087 -0.1284
 5740PP      PP15844  15.412   6.241   0.997 -0.0985 -0.1836 -0.0623
 5741PP      PP15845  11.117   2.642   0.146  0.1693 -0.3254 -0.2163
 5742PP      PP15846   0.850   8.433   1.754 -0.0758 -0.0932  0.1024
 5743PP      PP15847  15.600   1.378   3.349 -0.3123  0.2945 -0.0333
 5744PP      PP15848   2.939   0.299  11.205  0.0826 -0.1084  0.1209
 5745PP      PP15849   9.043  14.212   9.470 -0.0788 -0.1195 -0.0896
 5746PP      PP15850   8.644  13.690  11.122 -0.0187 -0.0234  0.2529
 5747PP      PP15851  11.743   6.882   2.759 -0.0105 -0.2596  0.0117
 5748PP      PP15852   2.140   7.813   8.558 -0.3170  0.0156  0.2921
 5749PP      PP15853  13.715   3.243   1.906 -0.0420  0.5062  0.0660
 5750PP      PP15854  14.302  12.929   1.921 -0.0036 -0.1341 -0.0107
 5751PP      PP15855   5.475   9.185  12.159 -0.1938 -0.2356  0.0819
 5752PP      PP15856  10.409   7.144   2.188 -0.1039 -0.1464 -0.0014
 5753PP      PP15857   0.725  11.233  11.593 -0.1433  0.1837 -0.0939
 5754PP      PP15858   5.326   3.129  10.156 -0.1123 -0.3475  0.2257
 5755PP      PP15859  14.143   2.929   0.617 -0.3338  0.0718  0.0668
 5756PP      PP15860   0.544   9.535  11.145  0.0197 -0.1925  0.1156
 5757PP      PP15861   8.858   9.061   9.617  0.2629 -0.3846 -0.1623
 5758PP      PP15862  12.650   4.761   3.010  0.1053 -0.0223  0.2156
 5759PP      PP15863  10.791   7.540   9.962 -0.0653  0.2539  0.1926
 5760PP      PP15864  10.780  10.583   9.731  0.1600  0.0030 -0.0207
 5761PP      PP15865   0.236   3.426   8.950  0.4288  0.0954 -0.2519
 5762PP      PP15866  10.187   8.599  10.149 -0.0243 -0.0318  0.2937
 5763PP      PP15867   3.835   7.742   1.656 -0.0611  0.0803  0.3847
 5764PP      PP15868   9.717  11.272   3.524 -0.0344 -0.2862 -0.1802
 5765PP      PP15869   5.558   8.240   0.940 -0.1949  0.1290  0.1918
 5766PP      PP15870   5.141  14.674  10.780 -0.0474 -0.0295  0.0131
 5767PP      PP15871  12.765   2.584   0.374  0.0848 -0.3062 -0.0374
 5768PP      PP15872  10.139  13.699   4.634  0.1089  0.0312  0.1794
 5769PP      PP15873   8.718   6.300  11.469  0.5762  0.2406 -0.2282
 5770PP      PP15874  13.001  13.529   9.560 -0.0093  0.1131  0.1401
 5771PP      PP15875  10.902   3.010  12.523 -0.2173  0.3980 -0.2512
 5772PP      PP15876   9.810   2.364   0.657 -0.2278  0.2275  0.1177
 5773PP      PP15877   1.995   2.494   3.125 -0.0892  0.0945  0.0373
 5774PP      PP15878   7.986  10.224   0.921  0.0009  0.2906  0.0813
 5775PP      PP15879  12.217  13.743   3.497 -0.0890 -0.1361  0.1436
 5776PP      PP15880  14.994  16.164   2.746 -0.0563  0.2249  0.0103
 5777PP      PP15881  14.958   2.698   1.429  0.2632 -0.1756  0.1514
 5778PP      PP15882  11.541  10.169   9.074  0.1420 -0.0852  0.1223
 5779PP      PP15883   8.514  15.444  11.603 -0.0798 -0.1168 -0.1525
 5780PP      PP15884   8.918  15.099  10.151  0.1561  0.4305 -0.0689
 5781PP      PP15885   8.005   6.336  10.365  0.0342  0.0182 -0.0254
 5782PP      PP15886   2.588  11.125  11.559  0.1456  0.2102 -0.0080
 5783PP      PP15887   9.344  14.802   1.861  0.2056 -0.2518 -0.1273
 5784PP      PP15888   6.395   0.497   8.973  0.0356 -0.0483  0.0361
 5785PP      PP15889  15.727   1.706   9.278  0.1231  0.0560 -0.0524
 5786PP      PP15890   0.658  12.004   0.871 -0.0725 -0.1660  0.0481
 5787PP      PP15891   4.493   1.933  12.383 -0.3571 -0.3351  0.0414
 5788PP      PP15892   5.310   9.325   9.531 -0.3066 -0.0801  0.1095
 5789PP      PP15893   7.222   3.411   9.724  0.1063  0.1993 -0.1542
 5790PP      PP15894  14.463  11.410  10.605 -0.0758  0.1953  0.2396
 5791PP      PP15895  14.171   0.741  10.204  0.0471  0.0358 -0.4775
 5792PP      PP15896   3.179   4.643  11.995 -0.2813 -0.2314 -0.2007
 5793PP      PP15897   4.531   3.391  11.314  0.1470  0.2891 -0.0068
 5794PP      PP15898   4.938   0.778  10.565  0.0156  0.0776 -0.1516
 5795PP      PP15899   0.326   3.039   3.638 -0.1643 -0.0376 -0.2520
 5796PP      PP15900  14.189   2.509  12.063  0.2240 -0.4031  0.1817
 5797PP      PP15901   7.562   6.830   0.897 -0.1261 -0.1101  0.1401
 5798PP      PP15902  16.125   3.593   0.314  0.2055  0.0872  0.0405
 5799PP      PP15903   4.635   6.861   9.630 -0.1861  0.0340 -0.0607
 5800PP      PP15904   6.304   9.141   1.512 -0.0928 -0.1497  0.1446
 5801PP      PP15905   4.400  11.797  12.586  0.0737  0.0098  0.0753
 5802PP      PP15906  10.797   0.903   2.025  0.0589 -0.3336  0.0547
 5803PP      PP15907  10.748  14.073  12.696 -0.1911 -0.1327 -0.1713
 5804PP      PP15908   4.597   8.006   2.120  0.1191 -0.1994  0.1282
 5805PP      PP15909   1.474   7.326  12.330  0.0640 -0.3796 -0.1116
 5806PP      PP15910   7.993   2.033   8.375 -0.0185 -0.1485 -0.0102
 5807PP      PP15911   9.687  16.216   8.958  0.0353  0.3533  0.1955
 5808PP      PP15912   4.464   9.391   2.296  0.1818  0.2184  0.0007
 5809PP      PP15913   7.579   0.643   0.782 -0.3661 -0.1916  0.1854
 5810PP      PP15914   4.389  11.767   9.990  0.2192 -0.5152 -0.2486
 5811PP      PP15915   4.302   0.175   4.907  0.0093  0.1941 -0.1445
 5812PP      PP15916   7.801   0.249  11.467  0.0592 -0.1099  0.4359
 5813PP      PP15917   9.350  15.892  11.133 -0.1688 -0.0226 -0.0672
 5814PP      PP15918   0.960  10.715   0.070  0.0439 -0.0014  0.0731
 5815PP      PP15919   3.822  11.020  12.655  0.1329  0.0865 -0.2349
 5816PP      PP15920   3.844   4.201   9.995 -0.0084 -0.0230 -0.1091
 5817PP      PP15921   7.815  12.854   8.683  0.0584 -0.0359 -0.0623
 5818PP      PP15922  11.471  16.303  11.707  0.3872  0.0836 -0.2558
 5819PP      PP15923  15.549   5.925   7.304 -0.1632  0.1266 -0.2191
 5820PP      PP15924   4.967   5.737   9.745 -0.2871 -0.1129 -0.1651
 5821PP      PP15925  10.698   9.782   0.268 -0.0066 -0.2728 -0.0503
 5822PP      PP15926  12.806  14.690   0.335  0.1223  0.2895 -0.0522
 5823PP      PP15927  15.540   6.291  12.697 -0.0977 -0.0708  0.3024
 5824PP      PP15928   7.070  14.619   3.238  0.0984  0.0925  0.1599
 5825PP      PP15929  13.188  10.698  12.412  0.0150 -0.2327 -0.0457
 5826PP      PP15930  10.082  15.445   4.385 -0.1335  0.2185 -0.1168
 5827PP      PP15931  13.491   6.076   3.909  0.0899 -0.0789 -0.3397
 5828PP      PP15932   6.720   8.505  11.017  0.2185 -0.1784 -0.0268
 5829PP      PP15933   6.523   3.344   9.292  0.1304 -0.0929  0.0748
 5830PP      PP15934  15.022  10.298   0.144  0.0914 -0.0252 -0.1727
 5831PP      PP15935  14.276   4.338   0.472  0.0442  0.1177 -0.1713
 5832PP      PP15936  14.500   6.075   1.384 -0.2447  0.0995 -0.2396
 5833PP      PP15937   9.873   5.048   1.826  0.0354 -0.1451  0.0199
 5834PP      PP15938  11.156   3.781   1.765  0.0865  0.3735  0.2968
 5835PP      PP15939   9.717  14.573   9.066  0.0715  0.1951  0.2076
 5836PP      PP15940   4.372   4.428   7.965 -0.1042  0.1407  0.0230
 5837PP      PP15941   8.002   1.423   0.268  0.0397 -0.1337  0.1638
 5838PP      PP15942   1.892   1.629  11.397  0.0560  0.2173 -0.1976
 5839PP      PP15943   2.621   8.742   3.196  0.2757  0.0815 -0.3508
 5840PP      PP15944  11.631   0.951   0.719 -0.3793  0.0175  0.1210
 5841PP      PP15945   4.187   9.683   0.560 -0.2219  0.0045  0.0731
 5842PP      PP15946   9.858  15.111  10.764 -0.1648 -0.4486 -0.1763
 5843PP      PP15947   2.977   9.904   9.334 -0.0519 -0.0436 -0.0537
 5844PP      PP15948  15.799  15.630   9.665 -0.3369 -0.1064  0.1029
 5845PP      PP15949   2.197  14.278   3.169  0.0486  0.0180 -0.1201
 5846PP      PP15950   9.707  13.141   0.817  0.0218 -0.0215 -0.1684
 5847PP      PP15951  12.349   1.775  11.517  0.1550 -0.0877 -0.4473
 5848PP      PP15952   1.072  13.964   0.894  0.0252  0.0181  0.0691
 5849PP      PP15953  14.451  13.541   8.960  0.1220 -0.1226  0.0638
 5850PP      PP15954  14.445   4.888   8.905 -0.0364  0.2088 -0.2285
 5851PP      PP15955   7.095   6.259   1.132 -0.0442 -0.1381  0.0623
 5852PP      PP15956   5.933   6.443   7.982 -0.3971  0.0286  0.0032
 5853PP      PP15957   3.615  14.561   7.910  0.4261  0.3877  0.0424
 5854PP      PP15958  14.540   9.094  11.343 -0.2234 -0.2025  0.1062
 5855PP      PP15959   7.619   9.000   4.197  0.0352  0.0547  0.0944
 5856PP      PP15960   2.058  13.373  11.826  0.4038  0.1054 -0.1946
 5857PP      PP15961   1.211  11.532   3.205 -0.0712  0.1422  0.0540
 5858PP      PP15962   3.402   1.951   0.919 -0.0350  0.1794  0.0949
 5859PP      PP15963  14.966   7.977   8.355 -0.1174 -0.1416  0.1585
 5860PP      PP15964  14.924   3.989   9.361 -0.0932  0.1852  0.0101
 5861PP      PP15965   8.986  15.301   2.178 -0.2218  0.0487 -0.1048
 5862PP      PP15966   4.007   1.705   2.137  0.1364  0.4234  0.2495
 5863PP      PP15967  12.802   0.541   0.407 -0.1671  0.2699  0.0165
 5864PP      PP15968   8.938   4.902   9.989 -0.0410 -0.0265  0.2365
 5865PP      PP15969  12.618  13.328   0.818 -0.2663  0.1261  0.2020
 5866PP      PP15970  11.212   9.679   1.224  0.2062  0.1176  0.1844
 5867PP      PP15971  12.315  13.294   2.629  0.0530  0.1252 -0.1417
 5868PP      PP15972   1.320   3.665   8.498 -0.3053 -0.1290  0.1630
 5869PP      PP15973   4.683  12.547   8.758  0.1225  0.1150 -0.0488
 5870PP      PP15974   8.046   0.858   3.964 -0.0417 -0.1603  0.0921
 5871PP      PP15975  12.766  13.015   3.760  0.2963  0.0256 -0.2515
 5872PP      PP15976  15.491   8.905  11.672 -0.0161  0.0467 -0.2027
 5873PP      PP15977  14.226   8.355   1.988  0.2131  0.2585 -0.1117
 5874PP      PP15978   3.947  13.284   9.564  0.0418 -0.2774  0.4198
 5875PP      PP15979   1.374  14.141   3.806  0.1388 -0.1330  0.2503
 5876PP      PP15980  15.456   2.864   1.930 -0.2992  0.1237 -0.0057
 5877PP      PP15981   2.278   2.569  12.692  0.2472  0.0191  0.1740
 5878PP      PP15982   5.330   6.915   7.691  0.0220 -0.0945 -0.0014
 5879PP      PP15983  11.368   6.773   8.684 -0.1096 -0.1972  0.0134
 5880PP      PP15984  12.180  16.270  10.379  0.0435  0.1175 -0.1435
 5881PP      PP15985  14.479   2.468  12.594  0.4602  0.0860 -0.1618
 5882PP      PP15986  10.546  10.195   2.104 -0.2894 -0.2221  0.0804
 5883PP      PP15987  11.748   2.669   3.889  0.2297  0.0687  0.0638
 5884PP      PP15988  16.336  10.108   8.335  0.2247 -0.2148 -0.3764
 5885PP      PP15989  11.358   1.296  11.515 -0.0860  0.1060  0.0849
 5886PP      PP15990  14.533  15.103   9.552  0.1852  0.0065 -0.0734
 5887PP      PP15991  12.892   2.841   2.610 -0.3730 -0.1037 -0.1014
 5888PP      PP15992   5.748   3.037  10.955 -0.1521  0.0502 -0.2030
 5889PP      PP15993  13.537   7.910   7.943  0.0814 -0.3985  0.1541
 5890PP      PP15994  15.618  15.782   0.272  0.1474  0.1937 -0.0905
 5891PP      PP15995  13.276   8.871  11.495  0.0541 -0.0672 -0.2272
 5892PP      PP15996   4.460   4.854   2.159 -0.1795 -0.1022  0.0729
 5893PP      PP15997  11.053   7.534   0.278  0.0617 -0.0587 -0.1757
 5894PP      PP15998  13.590   8.316  10.590 -0.3626 -0.2232  0.1212
 5895PP      PP15999  15.032   6.332   2.371  0.0622 -0.0292 -0.0656
 5896PP      PP16000  11.218   1.346   0.502  0.1422  0.0664  0.0592
 5897PP      PP16001   0.616  10.056  10.866  0.1834  0.2800 -0.0151
 5898PP      PP16002   8.596  11.556  10.466  0.1604 -0.0874  0.1382
 5899PP      PP16003  11.808  15.957   2.726 -0.1718  0.1308 -0.1274
 5900PP      PP16004   2.049   7.018  10.524  0.2989  0.0958 -0.0850
 5901PP      PP16005   0.778  16.239   2.926 -0.0227  0.0728 -0.0596
 5902PP      PP16006  15.230   1.917  11.186 -0.0319  0.2976  0.4080
 5903PP      PP16007  14.133   0.278  10.418  0.0698  0.0600 -0.4379
 5904PP      PP16008  11.716   6.185   3.638  0.3328 -0.0096 -0.1427
 5905PP      PP16009  12.246   3.908  11.928  0.2082  0.0448 -0.1332
 5906PP      PP16010  11.531   1.906  11.894  0.4130 -0.2335 -0.3679
 5907PP      PP16011   0.233  12.493   0.411 -0.1953 -0.0918  0.1418
 5908PP      PP16012  10.879   9.501  12.078  0.0124 -0.0835  0.2065
 5909PP      PP16013   6.374  14.183  10.584 -0.1503  0.0620 -0.0071
 5910PP      PP16014  11.965   5.611  12.147 -0.0254  0.1128  0.0104
 5911PP      PP16015   2.489  14.726   3.030  0.1267  0.0952  0.0208
 5912PP      PP16016   7.100   5.458  10.033  0.2036 -0.0838 -0.0862
 5913PP      PP16017  11.752   4.686   9.811 -0.0791  0.0748  0.3071
 5914PP      PP16018   4.527   8.828   2.346  0.0454 -0.1224 -0.0282
 5915PP      PP16019   8.615   5.693   3.888  0.2500  0.0295  0.0431
 5916PP      PP16020  14.636  15.080   4.116 -0.0473  0.2632  0.2471
 5917PP      PP16021   1.218  12.402   1.647 -0.2289 -0.1393 -0.2943
 5918PP      PP16022   7.859   1.818  12.234 -0.3500  0.1975 -0.2025
 5919PP      PP16023   6.053  13.731   2.675 -0.0433  0.0130  0.2598
 5920PP      PP16024   5.825   7.162  11.483  0.1293 -0.2731  0.1866
 5921PP      PP16025  12.592   3.307   0.442  0.1238 -0.3743 -0.4524
 5922PP      PP16026  14.179   4.176  10.656 -0.0867  0.0339 -0.0606
 5923PP      PP16027  13.678   8.396   9.267  0.1418  0.0211  0.0586
 5924PP      PP16028   9.715  13.730  11.686 -0.2080 -0.1853  0.1082
 5925PP      PP16029  10.935  14.938  11.904  0.3253 -0.0587  0.1671
 5926PP      PP16030  11.720  11.531  10.167  0.2131  0.1743 -0.1038
 5927PP      PP16031   2.662   4.922  12.738  0.3296  0.0832 -0.3525
 5928PP      PP16032   7.945   0.282  10.377  0.1817  0.0478 -0.1074
 5929PP      PP16033   3.758   8.168   2.026 -0.2002 -0.1444 -0.0524
 5930PP      PP16034  11.518  14.259   0.672  0.1260 -0.0706  0.2809
 5931PP      PP16035   4.012  11.908   0.169 -0.1949  0.0784 -0.0698
 5932PP      PP16036   4.418   7.901  10.849 -0.1547  0.0163 -0.3182
 5933PP      PP16037   4.315   9.418  10.209  0.0722  0.4489  0.2152
 5934PP      PP16038  14.215  12.783   1.301 -0.0384  0.2295  0.1399
 5935PP      PP16039  15.879   7.251  11.138 -0.0043 -0.0402 -0.1755
 5936PP      PP16040   3.568   1.981   0.379  0.0760  0.0980  0.1154
 5937PP      PP16041   5.242   1.717  11.169 -0.0335 -0.1182 -0.1610
 5938PP      PP16042   0.791   5.296   1.370 -0.2908  0.0806 -0.1520
 5939PP      PP16043   7.582   0.153   0.320  0.0735 -0.0947 -0.0934
 5940PP      PP16044  12.981   1.165  11.126 -0.1027  0.0848  0.0468
 5941PP      PP16045   2.976  15.170   2.208 -0.3134 -0.0998 -0.2316
 5942PP      PP16046  12.950  12.381   4.555  0.0707  0.1692  0.0608
 5943PP      PP16047   9.285   7.797  12.280  0.2208  0.2215  0.0091
 5944PP      PP16048  11.775  13.197  11.971  0.2451  0.0888  0.1012
 5945PP      PP16049  14.288   5.242   9.822  0.1458  0.0287 -0.0047
 5946PP      PP16050   9.899   9.426   9.645 -0.0468 -0.1530  0.1382
 5947PP      PP16051   6.146   8.115   3.215  0.4766 -0.2449  0.1969
 5948PP      PP16052  14.420  11.811   2.292  0.0438  0.1849  0.2110
 5949PP      PP16053   6.091   6.593   0.523 -0.1741  0.2853 -0.1114
 5950PP      PP16054  13.920   4.601   2.293 -0.1350  0.2850  0.1904
 5951PP      PP16055  12.388   3.536   8.598 -0.0912  0.0805  0.0622
 5952PP      PP16056   1.289  16.043  10.884  0.3023  0.0745 -0.0621
 5953PP      PP16057  11.255   5.446  11.329  0.2700 -0.2420  0.4988
 5954PP      PP16058   9.414   5.362  10.351 -0.2674 -0.0787 -0.2026
 5955PP      PP16059  10.840  11.281  11.365 -0.0103  0.0883  0.3684
 5956PP      PP16060   6.130   0.045   1.868 -0.0340 -0.2305 -0.0321
 5957PP      PP16061   9.770   1.313   2.035  0.1327 -0.0677  0.0240
 5958PP      PP16062  14.905   6.427   1.631 -0.1209 -0.1925 -0.1850
 5959PP      PP16063   0.784  10.378   8.098  0.1103  0.4536  0.2047
 5960PP      PP16064   1.965   0.857   2.945  0.0922  0.1569  0.1156
 5961PP      PP16065   8.600  12.876   9.865  0.1395  0.1432 -0.1633
 5962PP      PP16066  14.075  14.507   1.604 -0.2174 -0.1485 -0.1376
 5963PP      PP16067  15.777   4.885   9.319 -0.0415  0.0462 -0.2101
 5964PP      PP16068   3.750   8.925  11.764 -0.0095 -0.0352  0.1102
 5965PP      PP16069   4.715   0.040   8.995 -0.0595 -0.3310 -0.1340
 5966PP      PP16070   8.862  13.424  12.537  0.0531 -0.2295 -0.1936
 5967PP      PP16071  13.647   6.537  10.023  0.2201  0.0813 -0.0062
 5968PP      PP16072   1.643  10.674   1.755 -0.0775 -0.0277  0.0937
 5969PP      PP16073  14.886   8.448   3.759  0.1979 -0.2820 -0.1997
 5970PP      PP16074   5.839  11.099   7.364 -0.0047 -0.0262  0.1115
 5971PP      PP16075  13.928  16.248   0.090 -0.1647 -0.1141 -0.0599
 5972PP      PP16076   2.062  15.341  11.848 -0.2970  0.0253  0.2534
 5973PP      PP16077   1.547   5.085  12.008 -0.2322  0.0927 -0.0709
 5974PP      PP16078   0.450   8.334   2.002 -0.1699 -0.0069  0.1402
 5975PP      PP16079   2.776   0.416  10.325  0.2922  0.0341  0.0063
 5976PP      PP16080   1.155  12.328  11.640  0.0818 -0.1362  0.2593
 5977PP      PP16081  10.622  15.467   4.474 -0.0062 -0.0850  0.1322
 5978PP      PP16082   6.498  12.315  11.787  0.0536 -0.1428 -0.0516
 5979PP      PP16083   7.080   8.898   1.903 -0.0940 -0.0347 -0.1425
 5980PP      PP16084  13.150   4.401   1.697 -0.0246  0.0476 -0.0545
 5981PP      PP16085   1.975   9.322   0.646 -0.1649 -0.0906 -0.0776
 5982PP      PP16086  10.807  11.460  12.645  0.2342  0.1119 -0.3538
 5983PP      PP16087   2.486  11.590   9.553  0.0706  0.1566  0.0530
 5984PP      PP16088   2.340  11.206   0.410 -0.1349  0.1100  0.1598
 5985PP      PP16089   4.547  13.241  10.783 -0.0433 -0.1370  0.2434
 5986PP      PP16090   5.885   0.801   1.801  0.0960 -0.2198  0.1278
 5987PP      PP16091  11.578   4.585   1.807 -0.0562  0.0187  0.1413
 5988PP      PP16092   8.242   9.432  10.595 -0.1182  0.1095  0.0495
 5989PP      PP16093  13.043   0.862   3.591 -0.0892 -0.4015  0.2467
 5990PP      PP16094   9.229   7.326   8.396 -0.1694 -0.2492  0.2417
 5991PP      PP16095  15.967   9.694   0.663 -0.0925 -0.5051  0.3711
 5992PP      PP16096  13.589  14.479  10.848  0.0971 -0.1377  0.0545
 5993PP      PP16097   6.031  11.427   2.754  0.1067  0.0378 -0.1288
 5994PP      PP16098   5.666   8.931   9.673 -0.3059 -0.4466  0.0498
 5995PP      PP16099  10.125  12.802  10.514 -0.0710 -0.3481 -0.2255
 5996PP      PP16100  11.738   4.395  11.279 -0.0620  0.3438 -0.1215
 5997PP      PP16101   3.260  10.758   9.467 -0.1017  0.2176 -0.1668
 5998PP      PP16102   1.951  15.092  11.450 -0.1200  0.1278  0.0456
 5999PP      PP16103   1.818  15.057   3.294  0.0613  0.1142 -0.0431
 6000PP      PP16104   4.995   7.169   9.798  0.1576  0.0975 -0.2003
 6001PP      PP16105  10.160  10.357   9.099 -0.2925  0.0519  0.2172
 6002PP      PP16106   0.413   6.502  12.724 -0.0164 -0.3262 -0.1112
 6003PP      PP16107   9.121   3.848  11.720  0.1235 -0.3283 -0.0804
 6004PP      PP16108   7.233  15.246   0.126  0.0620 -0.3745 -0.0618
 6005PP      PP16109   3.614   7.933  11.977  0.0668  0.0117  0.0689
 6006PP      PP16110  12.727   4.628   1.822 -0.2381 -0.0210 -0.0234
 6007PP      PP16111   2.755   7.470   2.073 -0.3463  0.2616  0.0223
 6008PP      PP16112   4.222   4.550   9.896  0.2405 -0.1139 -0.0136
 6009PP      PP16113   8.302   5.021  11.091  0.1072  0.1014 -0.0495
 6010PP      PP16114   7.028  11.148   9.155 -0.2104  0.0571 -0.0697
 6011PP      PP16115   4.974  13.669  11.817  0.0413  0.1895  0.0056
 6012PP      PP16116   3.148   0.482   1.939 -0.1130 -0.0561  0.4680
 6013PP      PP16117   1.646   0.871   9.691  0.0613 -0.2383  0.2456
 6014PP      PP16118  15.399   8.977  10.772 -0.2021  0.1484 -0.0079
 6015PP      PP16119   0.331   5.372  12.383 -0.1420 -0.0143  0.1198
 6016PP      PP16120   2.021   1.035   9.176  0.0792  0.1511 -0.1024
 6017PP      PP16121   0.682  10.783   1.903  0.1278 -0.0656  0.0266
 6018PP      PP16122  14.661   0.911   3.748 -0.0900 -0.1931  0.0903
 6019PP      PP16123  14.800  11.614  10.941 -0.0588 -0.1347  0.2228
 6020PP      PP16124   5.932   9.352   2.249 -0.0243 -0.0580 -0.3922
 6021PP      PP16125   2.302   1.921  11.503 -0.0510  0.0895  0.2786
 6022PP      PP16126   7.627   6.186   8.121  0.0608  0.0346  0.0046
 6023PP      PP16127   9.679  11.856   0.766  0.0098  0.4438  0.0130
 6024PP      PP16128   6.225   3.193   0.616 -0.2164 -0.0133  0.1990
 6025PP      PP16129   6.331   0.765  12.605  0.1266  0.0661  0.2031
 6026PP      PP16130   2.544   1.184   2.522 -0.0491  0.1753 -0.2908
 6027PP      PP16131   7.763  15.747  11.276  0.2144  0.1316 -0.2978
 6028PP      PP16132   4.076   9.137   1.116 -0.0629 -0.0372  0.0184
 6029PP      PP16133  11.231   8.117   9.278  0.3755  0.2590 -0.0844
 6030PP      PP16134   4.067   7.219   8.575 -0.3024  0.0420 -0.0473
 6031PP      PP16135   3.552   8.523  10.440 -0.0810 -0.4618  0.0194
 6032PP      PP16136   8.801   6.409  12.714  0.2166 -0.1198 -0.2534
 6033PP      PP16137   4.169  13.347   9.074 -0.2439  0.0861  0.0195
 6034PP      PP16138  13.521  11.173   0.807 -0.1519  0.0620  0.0143
 6035PP      PP16139  13.682  14.103  10.078  0.1109 -0.0586 -0.1541
 6036PP      PP16140  13.360  15.534   4.460 -0.3746 -0.5428 -0.0936
 6037PP      PP16141   8.619  12.497  10.605  0.0418  0.3002  0.0603
 6038PP      PP16142   1.073   7.512   1.023  0.2746  0.1169 -0.1178
 6039PP      PP16143   6.799  15.236  12.584  0.1284 -0.1239 -0.0771
 6040PP      PP16144   4.356   2.366   1.322  0.1239 -0.1854 -0.0577
 6041PP      PP16145   6.500   7.679   1.922  0.2650 -0.1502  0.4830
 6042PP      PP16146   4.252   6.260   7.845 -0.2438 -0.1704 -0.0995
 6043PP      PP16147   8.804   5.306   2.676 -0.0193 -0.0869 -0.0327
 6044PP      PP16148   4.642   8.007  10.016 -0.0132 -0.1451  0.1281
 6045PP      PP16149  10.915   6.285   2.733 -0.0961 -0.0217  0.0925
 6046PP      PP16150  15.166   0.850   0.633  0.1147 -0.1746  0.0413
 6047PP      PP16151   6.170   5.315  10.917  0.2012  0.0373 -0.0980
 6048PP      PP16152  14.534  14.773  12.438  0.1809  0.0415 -0.0170
 6049PP      PP16153   3.937   8.869   1.498  0.1340  0.1836 -0.2510
 6050PP      PP16154   1.076  11.736   9.775  0.4670 -0.0505 -0.2293
 6051PP      PP16155  10.146   6.280   9.087 -0.2313 -0.1153  0.1977
 6052PP      PP16156   6.930  11.238   2.313 -0.1625  0.0194 -0.1011
 6053PP      PP16157  11.593  11.097   9.964 -0.2577 -0.0257  0.2324
 6054PP      PP16158  14.559   3.721   1.595 -0.1164  0.4229 -0.0328
 6055PP      PP16159   6.125  13.300   0.787  0.0247  0.0261  0.0241
 6056PP      PP16160  15.487  15.470   0.805 -0.3250  0.1029 -0.0520
 6057PP      PP16161   6.916   6.678  10.737  0.3303 -0.1081  0.0549
 6058PP      PP16162  12.022   3.014  11.768  0.0196 -0.0673  0.2271
 6059PP      PP16163   8.560  14.458  11.506 -0.0918  0.2990 -0.2709
 6060PP      PP16164   8.231  10.224   2.430  0.1769 -0.0615  0.1294
 6061PP      PP16165   8.953   3.284   1.957 -0.2825 -0.2796 -0.0518
 6062PP      PP16166   0.748  16.051  12.370  0.3042  0.0037  0.1870
 6063PP      PP16167  13.658  12.386  11.385  0.1335  0.0803  0.1229
 6064PP      PP16168   6.023   2.421   3.800 -0.0792 -0.0026  0.2757
 6065PP      PP16169  16.057  13.218  10.527  0.1498 -0.2948  0.2145
 6066PP      PP16170  14.213   4.498   1.009 -0.4066 -0.4668 -0.1192
 6067PP      PP16171   5.506  13.389   1.588  0.0742 -0.0779  0.1078
 6068PP      PP16172   6.711   6.530   2.470 -0.1302 -0.0460  0.0582
 6069PP      PP16173  12.006  12.947   3.399  0.1700 -0.0743  0.0778
 6070PP      PP16174  12.437   2.884   3.615 -0.0175  0.1659  0.0077
 6071PP      PP16175   6.122  12.652   2.665  0.1507 -0.0339 -0.0512
 6072PP      PP16176   4.079  14.567  11.057 -0.0757  0.0994 -0.0294
 6073PP      PP16177   2.167  14.346   8.349  0.0345 -0.0702 -0.1458
 6074PP      PP16178   2.948   5.572   3.028 -0.1045 -0.1138  0.2953
 6075PP      PP16179  13.552  10.049   0.560 -0.0506 -0.1014 -0.0314
 6076PP      PP16180   7.314  14.330   0.467 -0.0163  0.3839 -0.0817
 6077PP      PP16181   1.417   1.592   3.311  0.1920  0.0477 -0.0535
 6078PP      PP16182   9.069   6.164   7.625  0.0434 -0.2910 -0.1179
 6079PP      PP16183  12.402  10.279   0.845  0.0123 -0.1961 -0.2243
 6080PP      PP16184   7.839   7.220   3.189 -0.0473 -0.0807  0.0954
 6081PP      PP16185   2.946  11.929  12.183 -0.1114 -0.0777 -0.0805
 6082PP      PP16186  13.945  12.684  10.310 -0.0661 -0.1438  0.4593
 6083PP      PP16187   8.246  13.503   8.724 -0.1198 -0.0415 -0.0518
 6084PP      PP16188  15.261   1.500  12.455  0.0563  0.0068 -0.0203
 6085PP      PP16189   0.058   7.686   7.974 -0.0000 -0.0849 -0.3592
 6086PP      PP16190   3.591  15.670   0.621 -0.0492  0.1544  0.0904
 6087PP      PP16191   0.754   4.322   9.598 -0.3157  0.0464  0.0681
 6088PP      PP16192   1.162   8.041   1.584 -0.1306  0.1516  0.1218
 6089PP      PP16193   9.132  10.988  12.229 -0.0960  0.1794 -0.0238
 6090PP      PP16194  14.034   7.085   1.733  0.0888  0.0971  0.1303
 6091PP      PP16195   7.656   8.752  12.570  0.0759 -0.0614 -0.2357
 6092PP      PP16196   2.520   4.373   2.539  0.1609 -0.0265 -0.0757
 6093PP      PP16197   1.675   2.370  12.571  0.1621  0.4339  0.1183
 6094PP      PP16198  10.641  11.856   1.679 -0.3700  0.2677  0.1235
 6095PP      PP16199   8.133   6.768   0.501 -0.0813 -0.0399  0.0455
 6096PP      PP16200  12.524   9.654   9.785  0.0207 -0.1883 -0.1096
 6097PP      PP16201   2.499   0.619  11.269 -0.0249  0.1869  0.0427
 6098PP      PP16202   8.092   4.672   3.958  0.0221  0.1238  0.0185
 6099PP      PP16203   3.198  13.944  11.429  0.3265 -0.0692  0.0964
 6100PP      PP16204  14.386   1.670  11.443  0.0559 -0.0663  0.0096
 6101PP      PP16205   4.403   2.889   1.464  0.1343  0.0789  0.1941
 6102PP      PP16206  13.530   7.364   0.646  0.1345 -0.1655  0.0278
 6103PP      PP16207   8.772   1.028  12.295  0.0302  0.3821  0.2158
 6104PP      PP16208   9.428   2.512   4.826 -0.4138 -0.2138  0.0021
 6105PP      PP16209  11.591  10.611   0.144 -0.2928 -0.1180 -0.0281
 6106PP      PP16210  13.676   0.694   8.437  0.0343  0.1540  0.0588
 6107PP      PP16211   5.439  14.790   9.234  0.1377 -0.2911 -0.2302
 6108PP      PP16212  14.786   5.186   1.500  0.1158  0.0696  0.1333
 6109PP      PP16213   9.904  15.862  11.528 -0.1765  0.0547 -0.0466
 6110PP      PP16214   4.297   1.888   4.592 -0.1915  0.1892 -0.0325
 6111PP      PP16215  12.079   2.027   8.904  0.1028  0.0945 -0.2168
 6112PP      PP16216   9.096   8.615   0.748  0.0652  0.0306 -0.3225
 6113PP      PP16217   9.683   9.186  10.610 -0.1861  0.4412 -0.1229
 6114PP      PP16218  13.590  12.452   2.095  0.2938  0.1467  0.0344
 6115PP      PP16219   2.888   4.828   1.408  0.0145 -0.0472  0.0551
 6116PP      PP16220  12.386   6.750  10.831  0.0357 -0.0120  0.2253
 6117PP      PP16221   8.428   9.583  12.274  0.0706 -0.0575  0.0487
 6118PP      PP16222   6.834   7.250   0.847  0.1393 -0.2996  0.2179
 6119PP      PP16223   5.393   7.734  10.706  0.1291  0.0999 -0.0872
 6120PP      PP16224  16.100  14.444  10.476  0.0262  0.0187  0.1667
 6121PP      PP16225   2.952   2.751   9.832 -0.0548  0.0205  0.0071
 6122PP      PP16226  13.800   2.479   3.643 -0.0249 -0.1301  0.1546
 6123PP      PP16227   1.259  10.598  11.282 -0.1644 -0.0102 -0.0511
 6124PP      PP16228  13.145   6.402   9.312 -0.0132  0.0854 -0.1913
 6125PP      PP16229  15.906   3.379   8.896  0.2017  0.1660  0.1126
 6126PP      PP16230  11.228   7.332   8.577  0.0363 -0.4448  0.0371
 6127PP      PP16231  15.853   4.298   9.270 -0.0809  0.1026 -0.4743
 6128PP      PP16232   3.332   2.915   1.865  0.2021  0.0648 -0.1584
 6129PP      PP16233   1.810  15.549   2.360 -0.1580 -0.2483  0.0995
 6130PP      PP16234  10.378  14.684   3.233  0.0211 -0.1425  0.0959
 6131PP      PP16235   5.147   8.453  12.666  0.1785  0.0589 -0.0517
 6132PP      PP16236   4.605  10.950   7.589 -0.1007  0.1788 -0.0275
 6133PP      PP16237  12.745   2.983   1.326  0.0336  0.0070  0.2738
 6134PP      PP16238   0.782   9.778   2.892 -0.0054 -0.0425  0.0688
 6135PP      PP16239   2.037  14.438  12.697  0.2131 -0.0160  0.2958
 6136PP      PP16240   4.561   8.591   1.904 -0.3185  0.0040  0.2044
 6137PP      PP16241  14.793  15.101  10.136 -0.0009 -0.3009 -0.2190
 6138PP      PP16242   4.162   6.081  11.671  0.1922 -0.0167  0.0950
 6139PP      PP16243  14.661   4.799   3.536 -0.0060 -0.1940  0.0838
 6140PP      PP16244   4.517   2.324   2.700  0.4006  0.0355  0.3083
 6141PP      PP16245   3.481   4.088   2.510 -0.2420  0.0109 -0.4662
 6142PP      PP16246   3.619  15.824   8.471  0.0621  0.2970  0.2523
 6143PP      PP16247  12.888   3.072   2.189 -0.2376  0.2097 -0.0339
 6144PP      PP16248   4.492   7.139   2.273  0.2270  0.1936  0.5063
 6145PP      PP16249   5.166   6.488  10.591  0.0522 -0.1478 -0.1746
 6146PP      PP16250   6.060   9.082  10.004 -0.0530  0.1103  0.1887
 6147PP      PP16251   3.965  14.706   1.257  0.1266  0.1101  0.2369
 6148PP      PP16252   0.012   2.376  12.698 -0.2341 -0.2010 -0.1487
 6149PP      PP16253   9.010  14.252   0.498 -0.0466 -0.0337 -0.0258
 6150PP      PP16254  13.672   5.210   3.765  0.2658 -0.1647  0.0966
 6151PP      PP16255  16.206   3.006  10.588  0.2514  0.0274  0.1835
 6152PP      PP16256  12.020  10.220  10.260 -0.0225 -0.0913  0.1412
 6153PP      PP16257   5.031  14.857   8.947 -0.3158 -0.3562 -0.0824
 6154PP      PP16258   0.679   7.951   0.997  0.0261 -0.0137 -0.0441
 6155PP      PP16259   9.208  15.048   2.945 -0.1236  0.0494 -0.1663
 6156PP      PP16260  10.262   9.532   1.406  0.1199 -0.1048  0.0281
 6157PP      PP16261  16.209  11.294  12.032 -0.1969  0.1585 -0.0326
 6158PP      PP16262  14.242   7.304   8.807  0.2252  0.0010  0.1066
 6159PP      PP16263   0.551  15.580   3.565  0.1856  0.0329  0.2888
 6160PP      PP16264  14.483  12.938   3.144  0.2035  0.0444  0.0208
 6161PP      PP16265  10.854   0.368  10.418  0.0520  0.2612  0.0658
 6162PP      PP16266   4.703   1.199  11.421  0.4000  0.0975 -0.1664
 6163PP      PP16267   1.055  14.317  11.334 -0.0354 -0.0374 -0.0686
 6164PP      PP16268  15.912  11.955  12.379  0.0710  0.3948 -0.1507
 6165PP      PP16269   9.678  16.063  10.685 -0.1069 -0.2681  0.0458
 6166PP      PP16270   0.710   6.831   3.906 -0.2654 -0.0363  0.0717
 6167PP      PP16271   6.042  15.817   0.130 -0.0014 -0.0017  0.3233
 6168PP      PP16272   7.135  11.780   8.463  0.1128 -0.0076  0.2256
 6169PP      PP16273  16.021   5.091   7.979  0.1594 -0.1075  0.0880
 6170PP      PP16274  15.818   5.413   3.815  0.0725 -0.2845  0.1460
 6171PP      PP16275   6.245  11.068  10.328  0.1879 -0.3834 -0.2005
 6172PP      PP16276   6.459  14.716   0.592 -0.5301  0.4697  0.1032
 6173PP      PP16277   1.458   5.745   9.089  0.1929 -0.1284 -0.2324
 6174PP      PP16278   9.224   5.518   2.973 -0.0280 -0.1787  0.1704
 6175PP      PP16279  10.428  10.829   4.054 -0.0589 -0.0959  0.0262
 6176PP      PP16280   7.854   2.736   0.758 -0.1115 -0.0661 -0.0109
 6177PP      PP16281  14.391   7.896   0.659 -0.0059 -0.3640 -0.1352
 6178PP      PP16282   0.332   1.826   9.282  0.2879 -0.0724 -0.0389
 6179PP      PP16283   3.145   0.801   3.342  0.1073 -0.1401 -0.0264
 6180PP      PP16284  14.207   3.701   1.202  0.0273  0.0710  0.5015
 6181PP      PP16285   9.254  13.092   0.584  0.0262 -0.0112  0.0018
 6182PP      PP16286   7.534   2.106   2.916  0.0701 -0.1906 -0.3157
 6183PP      PP16287   2.108  13.356   2.797 -0.1025  0.1964  0.0019
 6184PP      PP16288  13.028   8.033  11.980 -0.1263  0.0882  0.3680
 6185PP      PP16289   7.051   3.489   2.088  0.0248 -0.0536  0.3035
 6186PP      PP16290  14.087   4.681   1.657 -0.0181  0.0779 -0.0932
 6187PP      PP16291   3.254  12.273   1.608  0.3545  0.2440  0.0208
 6188PP      PP16292  10.123   6.980   0.583  0.1232  0.0550 -0.1849
 6189PP      PP16293  12.547   4.044   4.006 -0.4329 -0.0833 -0.1878
 6190PP      PP16294   1.868  15.077   2.180 -0.0348  0.0535  0.2853
 6191PP      PP16295   2.851   6.718   8.464  0.0274  0.1383 -0.0674
 6192PP      PP16296   4.982  15.512   9.711 -0.0985 -0.3600 -0.1159
 6193PP      PP16297   5.210   9.776  11.067 -0.2907 -0.0463 -0.1497
 6194PP      PP16298   2.974   8.192   0.955 -0.0657 -0.0301 -0.1343
 6195PP      PP16299   3.201   3.539   2.961  0.5206  0.0159 -0.0768
 6196PP      PP16300   1.433   2.033  10.205 -0.0014 -0.0470 -0.1759
 6197PP      PP16301   7.345   0.015  10.980  0.0104  0.3480 -0.2680
 6198PP      PP16302   7.181   2.260   9.045  0.1116 -0.2355  0.0357
 6199PP      PP16303   1.060   4.523   2.465  0.0962  0.3483 -0.0978
 6200PP      PP16304   2.604   7.268   3.515  0.0372 -0.0809  0.1721
 6201PP      PP16305  14.434   3.587  10.104  0.2632 -0.0956 -0.1949
 6202PP      PP16306   7.038  11.588   0.236 -0.0634 -0.0649  0.2292
 6203PP      PP16307   1.432   2.704   3.104  0.0125  0.0706 -0.1496
 6204PP      PP16308  14.503   7.529   9.960 -0.1524  0.0040 -0.0976
 6205PP      PP16309  13.410   3.163   0.078 -0.1193 -0.0631 -0.3478
 6206PP      PP16310  10.522  13.953   1.950 -0.1985 -0.1092 -0.1751
 6207PP      PP16311  14.234   1.873   0.479 -0.2588 -0.1194 -0.0030
 6208PP      PP16312  11.882  16.071   2.261 -0.0238 -0.1806 -0.2131
 6209PP      PP16313  10.953  16.338   1.911  0.0449 -0.0822 -0.0012
 6210PP      PP16314   8.970   6.597   1.311  0.1567  0.1643  0.1278
 6211PP      PP16315  15.116  12.677   2.177 -0.1096 -0.0630 -0.0848
 6212PP      PP16316  13.711   5.655   9.972 -0.0851  0.0403 -0.4655
 6213PP      PP16317   5.864   1.210   0.573 -0.1151  0.3198 -0.3099
 6214PP      PP16318  10.671   1.317   8.596 -0.1847  0.3203  0.2025
 6215PP      PP16319  14.612  15.918   9.454 -0.3012  0.1254  0.0616
 6216PP      PP16320  12.530  11.165   8.495 -0.1515 -0.3674  0.1193
 6217PP      PP16321   4.345   3.727   3.886 -0.1065  0.1545  0.2358
 6218PP      PP16322  13.522   6.923   8.073  0.2678  0.1267 -0.1436
 6219PP      PP16323   1.822  16.125   5.033  0.2550  0.3611  0.2876
 6220PP      PP16324  10.338   4.457   2.821  0.0728  0.0338  0.0973
 6221PP      PP16325  15.494   2.759   9.839 -0.0563  0.1639  0.0684
 6222PP      PP16326   3.019   2.696  11.203 -0.0219 -0.1926 -0.0434
 6223PP      PP16327   2.510  15.941  12.642 -0.1596 -0.0209  0.1698
 6224PP      PP16328   5.460   0.703   0.094  0.0427  0.0837 -0.0857
 6225PP      PP16329   8.604  10.908  12.238 -0.1738  0.0729  0.1252
 6226PP      PP16330   8.032   3.946  10.287 -0.1701 -0.0155  0.0720
 6227PP      PP16331   0.509   8.411  10.808 -0.1261 -0.0751  0.4508
 6228PP      PP16332  14.463   9.330  10.617 -0.2501 -0.1753 -0.2767
 6229PP      PP16333   3.102  12.947   9.474  0.4009 -0.2472 -0.0526
 6230PP      PP16334   3.734   3.769   1.792  0.0061 -0.0886 -0.2142
 6231PP      PP16335  11.825  12.660  10.167  0.0581 -0.0682 -0.0864
 6232PP      PP16336  10.998   6.607   9.098  0.1497 -0.0246  0.0304
 6233PP      PP16337   0.473   3.429   0.014 -0.2965 -0.0127 -0.3310
 6234PP      PP16338   6.235   9.294   0.996 -0.0677 -0.1983 -0.0117
 6235PP      PP16339  14.841  13.186   8.903 -0.0841 -0.0187 -0.0847
 6236PP      PP16340   0.835  15.657  11.532 -0.0790  0.2050  0.0461
 6237PP      PP16341   6.444  15.652   3.522  0.0619  0.0192 -0.3608
 6238PP      PP16342   4.879  10.479   0.728  0.0062 -0.1859 -0.0553
 6239PP      PP16343  11.449   2.943   8.874  0.0958  0.0389  0.0705
 6240PP      PP16344   8.993   8.939   1.595  0.5441 -0.0168  0.3697
 6241PP      PP16345  10.575   3.650   3.423  0.3499 -0.0735  0.0375
 6242PP      PP16346   9.176   3.737   1.984 -0.0718 -0.0680 -0.0200
 6243PP      PP16347  16.256  10.731   3.520 -0.0160  0.1609 -0.3566
 6244PP      PP16348   4.967  14.537   2.561  0.2457 -0.0638 -0.1842
 6245PP      PP16349   4.450   1.713   9.888 -0.1337 -0.0630  0.0956
 6246PP      PP16350   4.599  14.621  10.835  0.0018 -0.0126  0.3754
 6247PP      PP16351  15.069   7.839   2.397  0.3443 -0.2041  0.0373
 6248PP      PP16352   1.621   0.811  11.461 -0.1228 -0.0173  0.1243
 6249PP      PP16353   4.231   6.937   3.251  0.0881 -0.2191  0.0604
 6250PP      PP16354   9.689  12.696   1.003  0.2786  0.2512  0.0354
 6251PP      PP16355   3.020   2.236   2.290  0.0736  0.1044 -0.1279
 6252PP      PP16356   8.322   4.037   1.583 -0.1606 -0.0828  0.0634
 6253PP      PP16357  15.469  16.216  11.773 -0.0858 -0.3939  0.3019
 6254PP      PP16358   0.686   6.278   8.364  0.0591  0.1126 -0.0291
 6255PP      PP16359  15.948   0.908   0.393 -0.2233  0.0043  0.2472
 6256PP      PP16360  16.112  15.457  10.246 -0.1308 -0.3120  0.0082
 6257PP      PP16361  11.800  14.847   0.337  0.1847 -0.0318  0.1945
 6258PP      PP16362  12.808   7.257   7.936  0.1766  0.1386  0.0829
 6259PP      PP16363   3.899  14.744  12.021 -0.2880  0.1258 -0.0046
 6260PP      PP16364   7.989  13.880  11.112  0.2174  0.2723 -0.1223
 6261PP      PP16365   5.624  11.433   0.793 -0.2990 -0.0171  0.2514
 6262PP      PP16366   8.314  12.804  12.241  0.0225  0.1280 -0.0326
 6263PP      PP16367  13.852  16.075   4.156 -0.1430  0.0212 -0.1208
 6264PP      PP16368   7.061  11.621   3.741  0.0525 -0.1071 -0.0316
 6265PP      PP16369   1.947  14.990   9.998 -0.1229  0.1997 -0.1129
 6266PP      PP16370   4.864  12.378   1.020 -0.0940  0.0637 -0.0273
 6267PP      PP16371   2.781  10.121   1.576  0.2653 -0.1579 -0.1134
 6268PP      PP16372   6.924   7.980  11.720 -0.0810  0.2362 -0.1176
 6269PP      PP16373  11.260   4.728  12.090  0.4527  0.1726 -0.2245
 6270PP      PP16374  12.128   4.654   0.711  0.1923  0.1983 -0.1544
 6271PP      PP16375   3.740  15.308   0.086 -0.0453  0.0950  0.2684
 6272PP      PP16376  10.051   1.201  12.032 -0.0708  0.0418  0.1120
 6273PP      PP16377   6.974   8.009   3.005 -0.1144  0.0061  0.0189
 6274PP      PP16378  12.560   1.427   0.174 -0.0686 -0.2482 -0.1707
 6275PP      PP16379  10.343  11.269  10.103  0.1017  0.3952  0.1814
 6276PP      PP16380   5.818   4.677   1.124  0.2122 -0.1978  0.0296
 6277PP      PP16381   2.226   7.911  12.531  0.0982 -0.1247  0.1888
 6278PP      PP16382   2.003  12.271  12.127 -0.2699  0.0594  0.2964
 6279PP      PP16383   6.458   5.340   8.884 -0.0958  0.1686  0.0570
 6280PP      PP16384   9.355   3.282   0.307  0.1220  0.1544  0.0177
 6281PP      PP16385  10.569   7.840   1.698 -0.2341 -0.2387  0.0941
 6282PP      PP16386   4.407   2.797  11.103 -0.0666 -0.6559 -0.1682
 6283PP      PP16387   4.521  14.238   8.068  0.2259  0.0023  0.2097
 6284PP      PP16388   1.879  11.643   3.006 -0.1335  0.4214 -0.0321
 6285PP      PP16389   7.139  12.724   0.714  0.2696  0.2927  0.1855
 6286PP      PP16390   9.357   6.552   1.890 -0.0072 -0.2450 -0.2062
 6287PP      PP16391  13.181  13.008  11.864  0.1081 -0.3076 -0.1222
 6288PP      PP16392   4.443   5.001   9.637 -0.2987  0.0778  0.0593
 6289PP      PP16393   3.792   3.720  12.713 -0.0118  0.2514 -0.0015
 6290PP      PP16394   3.041   5.728   2.104 -0.3251  0.4054  0.3133
 6291PP      PP16395   4.766   7.217  11.934 -0.0029  0.3396 -0.5272
 6292PP      PP16396  13.760   7.856  12.484  0.0858  0.1554  0.1669
 6293PP      PP16397   1.593   8.994   8.767 -0.1329 -0.3368 -0.2154
 6294PP      PP16398   0.371   1.909   1.487  0.1403  0.4028  0.0494
 6295PP      PP16399   0.227  12.952   0.332  0.0614  0.0727  0.3198
 6296PP      PP16400   5.426  10.653   8.113 -0.3739 -0.0147  0.0246
 6297PP      PP16401   9.741   0.053   9.976 -0.0434 -0.1353 -0.1329
 6298PP      PP16402  12.461   1.945  12.657 -0.1518  0.0599  0.0264
 6299PP      PP16403  13.549  10.392   3.178  0.2025 -0.0865 -0.2406
 6300PP      PP16404   6.461   5.934  12.051  0.1793  0.2266  0.1448
 6301PP      PP16405   7.317  13.970  12.508 -0.0502  0.2199  0.2871
 6302PP      PP16406   2.115   5.064   3.339  0.1347  0.0530  0.2093
 6303PP      PP16407   1.843   2.937  11.052 -0.1086  0.1238  0.2237
 6304PP      PP16408  14.998  14.664   8.403 -0.1755 -0.1873  0.2192
 6305PP      PP16409  10.407   5.217   8.969 -0.0928  0.1391  0.1876
 6306PP      PP16410   0.789  11.139   8.851  0.1278  0.3199  0.0425
 6307PP      PP16411   4.403   6.847  12.237  0.1952  0.3200 -0.0780
 6308PP      PP16412  11.524   2.376   8.132  0.2747  0.4103 -0.0396
 6309PP      PP16413   9.061  12.331   0.025 -0.1045  0.1290 -0.2281
 6310PP      PP16414  11.001  11.050   2.937 -0.0273  0.0690  0.1340
 6311PP      PP16415  15.764   2.086   2.729  0.0181  0.0604  0.2138
 6312PP      PP16416   9.606   9.871  12.193  0.3573  0.0757  0.1433
 6313PP      PP16417   7.530  14.806   1.137  0.0682  0.1939 -0.2408
 6314PP      PP16418   4.511   0.712  12.218  0.1087  0.2402 -0.0006
 6315PP      PP16419   0.986  10.876  10.095  0.0801 -0.3300  0.1725
 6316PP      PP16420   9.938   4.672   9.125 -0.2603  0.0524  0.1935
 6317PP      PP16421  11.679  13.135  10.260  0.4600 -0.0224  0.1460
 6318PP      PP16422  10.778   6.661   8.020 -0.0609  0.0706  0.0818
 6319PP      PP16423  10.282  11.436   1.498 -0.2557  0.1301 -0.3090
 6320PP      PP16424   8.497  13.133  11.258 -0.0269  0.0779  0.0086
 6321PP      PP16425   4.766  11.080   9.274 -0.1623 -0.1194 -0.0504
 6322PP      PP16426   6.209   8.446  11.398  0.3445  0.1811  0.1136
 6323PP      PP16427  16.249  13.165  11.553  0.0794 -0.1351  0.0414
 6324PP      PP16428  13.070  15.437   3.546 -0.0103  0.1941 -0.0313
 6325PP      PP16429   3.681   8.287   9.958  0.1293  0.1226 -0.1302
 6326PP      PP16430  13.420  13.810   9.687 -0.1146  0.1951  0.1901
 6327PP      PP16431   7.569   0.868   2.301  0.1009  0.1611  0.0623
 6328PP      PP16432  12.264   4.477  11.822  0.0508  0.0459  0.1207
 6329PP      PP16433   5.461  11.241   8.523 -0.2979 -0.4184  0.0354
 6330PP      PP16434  11.857   9.083   1.117  0.0846  0.1703  0.1402
 6331PP      PP16435  10.680   0.960   4.090  0.2457  0.0869  0.0988
 6332PP      PP16436   1.724   6.922   2.493  0.3505  0.3147  0.0104
 6333PP      PP16437   8.137   2.234   2.333  0.1603  0.1616 -0.0013
 6334PP      PP16438  16.330   6.241  12.733 -0.3734  0.0908  0.0768
 6335PP      PP16439  11.124  15.121  10.813  0.1930 -0.2628  0.1013
 6336PP      PP16440   4.203   0.462   1.395 -0.0834 -0.2036 -0.1939
 6337PP      PP16441   8.776   6.602  11.096 -0.0616  0.2321  0.2088
 6338PP      PP16442   3.138  13.564   3.092 -0.0671  0.4102  0.1545
 6339PP      PP16443  14.886   5.221  12.716  0.0407 -0.2003  0.0843
 6340PP      PP16444  15.964  15.565   3.458  0.1553  0.1076 -0.0257
 6341PP      PP16445  15.206  10.262  11.417 -0.2950  0.2829  0.0550
 6342PP      PP16446   6.752  12.539   1.914  0.2399 -0.0480 -0.0939
 6343PP      PP16447  13.393   7.812   2.075 -0.2320  0.0431  0.3259
 6344PP      PP16448  11.273   7.782   0.712 -0.0186 -0.4313 -0.1781
 6345PP      PP16449  14.928   4.743  10.838 -0.3177 -0.2156  0.0108
 6346PP      PP16450   6.250  15.574   8.427  0.0396  0.0608  0.1086
 6347PP      PP16451   3.427   1.783   3.837 -0.1801 -0.2855 -0.3826
 6348PP      PP16452   0.757  14.837   9.359  0.2338  0.2064  0.1450
 6349PP      PP16453   4.888   0.766   3.409  0.0209 -0.0298 -0.0213
 6350PP      PP16454  12.363  13.810  11.730  0.0455 -0.0854 -0.1660
 6351PP      PP16455   1.626  16.229   2.980 -0.1653 -0.2276  0.0138
 6352PP      PP16456  11.017  14.165  12.231  0.0504 -0.0131 -0.3144
 6353PP      PP16457   1.384   3.677   9.804  0.0320  0.1742  0.4200
 6354PP      PP16458   4.479  14.967   8.822  0.2349 -0.0267  0.0231
 6355PP      PP16459   5.848   7.172   8.637  0.1448 -0.1981 -0.0321
 6356PP      PP16460   3.492   3.111   0.392 -0.1092  0.0943 -0.0546
 6357PP      PP16461   6.297   9.274  10.496  0.3309 -0.1842  0.0715
 6358PP      PP16462   6.050   2.439  12.225  0.2318 -0.0623  0.0108
 6359PP      PP16463  10.915  11.494   0.868 -0.1131  0.0027 -0.0776
 6360PP      PP16464   5.829   2.053  11.814 -0.0295 -0.1615  0.1826
 6361PP      PP16465  10.739   7.006   1.884 -0.1221 -0.3358  0.0044
 6362PP      PP16466   7.008   1.454   8.777 -0.1356 -0.2836  0.1583
 6363PP      PP16467   5.201  10.370   8.853 -0.1599  0.0597 -0.0055
 6364PP      PP16468   0.060  16.108  11.679 -0.1785  0.1747  0.2315
 6365PP      PP16469  11.813  15.118   1.808 -0.1810  0.3553  0.1580
 6366PP      PP16470   8.989   7.893   9.160 -0.0118  0.0629 -0.0296
 6367PP      PP16471   9.288  10.996   2.947 -0.0863  0.0859 -0.4669
 6368PP      PP16472   4.989   9.116   2.478 -0.0962 -0.0710 -0.0148
 6369PP      PP16473  15.850  15.377   2.979  0.0940 -0.2400  0.1130
 6370PP      PP16474   4.421   0.111   8.521  0.0752 -0.1484 -0.2036
 6371PP      PP16475   8.010   0.218  12.517 -0.0247  0.4362 -0.2212
 6372PP      PP16476  13.008  15.603   4.048  0.0032  0.0977  0.1829
 6373PP      PP16477   8.185   2.106  10.021 -0.1477  0.0995 -0.1643
 6374PP      PP16478   3.976  13.342  11.985 -0.4413  0.0398  0.0570
 6375PP      PP16479   7.266  13.915   2.420 -0.1879  0.4532 -0.2253
 6376PP      PP16480   9.864  12.490   0.543 -0.0958  0.1710  0.0610
 6377PP      PP16481  12.691   4.699   3.485 -0.2206  0.0048  0.1792
 6378PP      PP16482  14.642   6.901   0.812 -0.1401 -0.1126 -0.1450
 6379PP      PP16483  12.252   1.087   1.448 -0.3151  0.1128  0.0423
 6380PP      PP16484   1.885  15.891  12.060 -0.3033 -0.0832 -0.0354
 6381PP      PP16485   2.412   8.853   2.620 -0.0053 -0.3081 -0.3340
 6382PP      PP16486   5.800   8.481  11.071 -0.0621 -0.0774 -0.2394
 6383PP      PP16487   0.158  12.675  12.652 -0.1330  0.0642 -0.0893
 6384PP      PP16488  10.166  13.899  12.586  0.1112 -0.0019 -0.0917
 6385PP      PP16489   9.846   3.288   2.984  0.1263 -0.1613 -0.2029
 6386PP      PP16490   5.223   5.622  11.706  0.1949 -0.4486  0.1474
 6387PP      PP16491   6.207   9.840   9.336  0.1860 -0.2780  0.0637
 6388PP      PP16492  12.495  16.083   3.502  0.2747  0.2396  0.2576
 6389PP      PP16493   3.871  11.330   0.716 -0.3661 -0.0840 -0.1580
 6390PP      PP16494   1.214  13.652   2.194  0.0505  0.0155  0.1368
 6391PP      PP16495   0.616   6.918   7.832 -0.0974 -0.1696 -0.2840
 6392PP      PP16496  16.133  14.877   0.405 -0.0904 -0.2857 -0.0869
 6393PP      PP16497   3.008   3.528   8.922 -0.4003 -0.1126 -0.2589
 6394PP      PP16498  13.390  10.505   8.461 -0.2336 -0.2492 -0.0231
 6395PP      PP16499  15.028   6.682   9.227  0.3036  0.1992  0.2007
 6396PP      PP16500  10.675   2.992  11.965 -0.3291 -0.0009 -0.0659
 6397PP      PP16501   1.476  14.607   1.171 -0.3034 -0.2736  0.1394
 6398PP      PP16502   7.050   4.759  11.208 -0.2014  0.1654  0.0462
 6399PP      PP16503   6.075  10.330  12.298 -0.1463  0.0894  0.2238
 6400PP      PP16504   4.508  12.847   2.667 -0.1028 -0.0166  0.1437
 6401PP      PP16505   7.533   7.051   8.066  0.1904 -0.1314  0.2177
 6402PP      PP16506   7.116   5.174   1.155  0.0589 -0.0961 -0.0019
 6403PP      PP16507   3.135   9.135   3.145 -0.0711  0.2088 -0.2917
 6404PP      PP16508   4.686  13.881   1.979 -0.0776 -0.3455 -0.1529
 6405PP      PP16509   4.384  14.477   1.130  0.1052 -0.0189 -0.0140
 6406PP      PP16510  14.381  13.628   2.984  0.0774 -0.2690 -0.1064
 6407PP      PP16511  14.287   2.004   0.021 -0.2694  0.1159  0.2150
 6408PP      PP16512   9.072  16.193   4.670  0.0824 -0.0675 -0.1133
 6409PP      PP16513   9.590  15.425  12.009 -0.1295  0.3111  0.0762
 6410PP      PP16514   7.394   5.180   9.706  0.1350 -0.1147  0.0744
 6411PP      PP16515   1.928  15.458   3.953  0.2215 -0.0473  0.0534
 6412PP      PP16516   0.167   7.469   0.106 -0.1531  0.1879  0.0038
 6413PP      PP16517  16.329  12.845   3.112  0.2256 -0.0928 -0.0324
 6414PP      PP16518  12.722   4.617   1.325  0.0088  0.0296  0.0008
 6415PP      PP16519   5.255  10.793   1.743 -0.0893 -0.0451  0.0698
 6416PP      PP16520   2.665   9.901   0.362 -0.1601  0.1989 -0.0143
 6417PP      PP16521  12.565   5.466  10.864  0.0749  0.0163 -0.3059
 6418PP      PP16522  14.657   4.012   0.222  0.0441  0.1033  0.0837
 6419PP      PP16523   4.498  15.919   9.131 -0.0238 -0.2083 -0.0201
 6420PP      PP16524  12.512  14.794   2.595 -0.3210 -0.3539 -0.3019
 6421PP      PP16525   0.939  13.395   1.244  0.0297 -0.1293 -0.0501
 6422PP      PP16526  14.808  12.430   3.673 -0.0227  0.0827  0.0515
 6423PP      PP16527  14.188  11.798   0.923 -0.1321  0.0547 -0.0129
 6424PP      PP16528  10.912   6.530   8.546  0.0135 -0.0626 -0.0343
 6425PP      PP16529  15.972   8.146   2.696 -0.1220  0.2675 -0.1754
 6426PP      PP16530   2.957   7.265   9.369  0.2283 -0.2056 -0.0027
 6427PP      PP16531   2.934   7.521   9.842 -0.0038 -0.2289 -0.2547
 6428PP      PP16532   3.950   7.616  12.527 -0.0549 -0.3226  0.1593
 6429PP      PP16533   9.350   1.088  10.493  0.1222  0.0565  0.0206
 6430PP      PP16534   7.582   9.599   2.314  0.2714  0.1017 -0.0980
 6431PP      PP16535   8.009   9.686   3.759 -0.2305 -0.3156  0.0145
 6432PP      PP16536  13.300  10.442   0.591 -0.3164 -0.0792  0.1931
 6433PP      PP16537   9.331   2.253  12.264 -0.0226  0.2483  0.0102
 6434PP      PP16538   0.754   4.927   0.503 -0.0291 -0.1274  0.1386
 6435PP      PP16539  10.468   5.395  10.812 -0.2672 -0.1796 -0.4595
 6436PP      PP16540   5.811   1.251   9.620 -0.2370  0.0981  0.2913
 6437PP      PP16541   7.528   7.779  10.732  0.0828  0.3081  0.2687
 6438PP      PP16542   3.725  15.577  11.369  0.1181  0.5134 -0.2192
 6439PP      PP16543  11.932  11.982   2.171 -0.0279 -0.0815  0.2638
 6440PP      PP16544   0.336   1.781   3.060 -0.1134  0.1129 -0.1670
 6441PP      PP16545  16.234   4.056  11.105  0.1208  0.0457  0.1662
 6442PP      PP16546  11.707  15.147  11.248  0.1258 -0.3199 -0.1908
 6443PP      PP16547   0.395  16.110   4.806  0.0689 -0.2684  0.0512
 6444PP      PP16548   8.000   5.851  11.198  0.1284  0.2981 -0.4126
 6445PP      PP16549  12.436   8.951   0.259  0.2788  0.4844 -0.0356
 6446PP      PP16550  10.257   6.815  10.066  0.0676  0.0142  0.1527
 6447PP      PP16551   8.238  11.289  12.376 -0.0644  0.1044  0.4575
 6448PP      PP16552   2.052   7.349   8.468  0.2132 -0.3305  0.0032
 6449PP      PP16553   5.729   9.828  11.154  0.2372  0.2218 -0.1841
 6450PP      PP16554   0.591   4.058   2.359 -0.1115  0.0875 -0.0245
 6451PP      PP16555   6.036   0.718  11.594  0.3061 -0.3082 -0.1345
 6452PP      PP16556  12.542   0.080  12.221 -0.0456 -0.0192  0.0488
 6453PP      PP16557   4.037  11.341   2.832  0.1098  0.2650 -0.0446
 6454PP      PP16558  15.238  11.916   9.413 -0.1581 -0.2467 -0.0589
 6455PP      PP16559  10.388  15.707   4.059 -0.1876  0.4157 -0.0331
 6456PP      PP16560   7.743  10.018   1.449 -0.0819 -0.1788 -0.1944
 6457PP      PP16561  12.266   3.607   2.440 -0.1540 -0.4136 -0.1323
 6458PP      PP16562  12.949   1.316   2.284  0.0606  0.1408  0.0510
 6459PP      PP16563   5.150   7.945  12.584 -0.0689  0.2516  0.0106
 6460PP      PP16564   3.043  10.900   2.742 -0.0787 -0.0017 -0.0280
 6461PP      PP16565  11.022   1.168  11.078 -0.1340 -0.1859 -0.0426
 6462PP      PP16566  14.527   6.497   9.014 -0.3104  0.2660  0.2103
 6463PP      PP16567  11.135   9.017  11.005 -0.5298  0.1644 -0.0558
 6464PP      PP16568   0.702  11.671  12.759  0.0046  0.2661 -0.3404
 6465PP      PP16569  15.103  16.289   8.665  0.2892 -0.0149  0.2022
 6466PP      PP16570   6.826   6.435   3.489 -0.1493 -0.4515 -0.0975
 6467PP      PP16571   1.314   1.592   0.423  0.0842 -0.0959 -0.0044
 6468PP      PP16572   1.575   9.698   9.867 -0.1582 -0.0216  0.0139
 6469PP      PP16573   6.605  12.372   1.430 -0.0535  0.0799  0.2493
 6470PP      PP16574  13.269  11.428   8.678  0.0368  0.0717  0.0972
 6471PP      PP16575  14.656   1.048  10.038 -0.0253  0.0166 -0.1711
 6472PP      PP16576   7.005  10.953   0.889  0.0697  0.0342 -0.0202
 6473PP      PP16577   9.106   1.843   9.686  0.2536  0.0234  0.0494
 6474PP      PP16578  12.736   9.734  11.392 -0.0750 -0.0676 -0.4682
 6475PP      PP16579   3.082  13.444   9.686  0.0758  0.0725  0.1098
 6476PP      PP16580   1.442  15.776  11.779  0.2105 -0.1383  0.1850
 6477PP      PP16581  15.390   9.089   8.733  0.1824 -0.1195  0.5471
 6478PP      PP16582   5.383   3.245   0.316  0.3808  0.1487 -0.0913
 6479PP      PP16583   8.767   1.489  12.027 -0.1427 -0.1691 -0.0542
 6480PP      PP16584   2.079   0.038   9.204  0.0753  0.1306  0.0447
 6481PP      PP16585   8.235   5.382   2.078  0.0481 -0.2652  0.0178
 6482PP      PP16586   5.355   2.192   0.927  0.2778 -0.3869 -0.1438
 6483PP      PP16587   3.481   0.538  11.977  0.0798  0.0713  0.1199
 6484PP      PP16588   3.421   4.159  10.821  0.4198  0.2990 -0.2850
 6485PP      PP16589  14.011   6.112   8.884  0.0664 -0.1788 -0.0952
 6486PP      PP16590  10.095   1.556   1.688  0.0827  0.2728 -0.1060
 6487PP      PP16591   2.998  14.368   1.664 -0.0293  0.1395  0.1073
 6488PP      PP16592  14.658   5.468   8.548  0.3196  0.1616  0.0654
 6489PP      PP16593  13.724   4.012   8.429 -0.0242 -0.0052 -0.0462
 6490PP      PP16594   3.481  13.846  10.344  0.0987  0.5440  0.0061
 6491PP      PP16595   0.829   8.489  12.144 -0.2493 -0.3979 -0.1112
 6492PP      PP16596  12.066  10.695  11.260 -0.1879  0.2157  0.3004
 6493PP      PP16597  12.874   5.448  11.643  0.2548  0.0860  0.0059
 6494PP      PP16598   6.036  12.252  12.062  0.0847  0.1857  0.1733
 6495PP      PP16599  11.332   9.164   1.212  0.3702  0.1237  0.0989
 6496PP      PP16600  15.982   8.633   1.895  0.1737  0.2530 -0.1438
 6497PP      PP16601   4.790   6.101   2.906 -0.0120 -0.0616 -0.0220
 6498PP      PP16602   0.467  13.930  12.014 -0.3118  0.5510  0.0593
 6499PP      PP16603   8.546   8.316   3.469 -0.4238 -0.2450 -0.2799
 6500PP      PP16604  15.717   4.988   2.665  0.2471 -0.0661  0.0449
 6501PP      PP16605   8.479  14.510   1.173 -0.1361  0.3082  0.1689
 6502PP      PP16606  12.646  14.393   2.983  0.0413 -0.2102 -0.0086
 6503PP      PP16607   0.996   7.349   8.554  0.1525 -0.0713 -0.1288
 6504PP      PP16608   4.610   3.279  12.408  0.0172 -0.0022 -0.2511
 6505PP      PP16609   8.321   6.624   0.010 -0.0156  0.1294  0.0353
 6506PP      PP16610   0.069   7.453   2.407 -0.3098 -0.1113  0.0725
 6507PP      PP16611  13.978  11.625   4.312 -0.0021  0.3718  0.0048
 6508PP      PP16612  12.035  10.528   1.037 -0.1682  0.1688  0.0921
 6509PP      PP16613   6.992   5.154   8.710 -0.0116 -0.1139 -0.2211
 6510PP      PP16614  15.929   6.313  12.383  0.1897 -0.0691 -0.0350
 6511PP      PP16615   5.357  13.186   0.633 -0.4076  0.0499  0.0965
 6512PP      PP16616  10.965   6.282   0.266 -0.2567  0.0150  0.4054
 6513PP      PP16617  13.507  14.135   9.302  0.3149  0.0771  0.0295
 6514PP      PP16618  12.951  14.205   1.033 -0.1049 -0.0386  0.0166
 6515PP      PP16619   6.563  16.170   0.008 -0.3003 -0.1772 -0.0494
 6516PP      PP16620   7.904   5.329  11.140 -0.0676  0.1877  0.2403
 6517PP      PP16621   5.964  14.094  11.385 -0.1625 -0.0909 -0.2602
 6518PP      PP16622   9.662  12.253   2.271 -0.0028  0.0834 -0.1069
 6519PP      PP16623   3.164  16.188   2.211 -0.1531  0.0411  0.1536
 6520PP      PP16624   3.131   2.373   0.965  0.2569 -0.1811 -0.2534
 6521PP      PP16625  10.825   4.004   0.407  0.3714 -0.1788 -0.0848
 6522PP      PP16626  15.000   9.264   1.364 -0.1489  0.1521  0.1694
 6523PP      PP16627  12.870  13.215   8.675  0.1396  0.2958 -0.1807
 6524PP      PP16628   2.646   1.361   4.197  0.4089  0.1468  0.2927
 6525PP      PP16629  10.416   2.826  10.503  0.0076 -0.1102 -0.1258
 6526PP      PP16630   6.387   1.057   1.718 -0.4232 -0.3541  0.2279
 6527PP      PP16631   5.764  11.946  10.182 -0.1718 -0.1720 -0.0489
 6528PP      PP16632  11.147  14.517  12.575 -0.0654 -0.0989 -0.0451
 6529PP      PP16633  12.553   5.938  11.584 -0.0001 -0.1530 -0.0225
 6530PP      PP16634   0.505   2.712  11.596  0.0216  0.2849 -0.1581
 6531PP      PP16635  11.822   7.085   0.024 -0.0607 -0.2645  0.0457
 6532PP      PP16636  14.993   2.179   1.445  0.2254 -0.0064  0.0144
 6533PP      PP16637  11.533   2.433   0.441  0.1147 -0.2046  0.2095
 6534PP      PP16638   4.016   2.264   2.741 -0.0743  0.0750 -0.3934
 6535PP      PP16639   3.636   6.955  11.612  0.0910  0.0355  0.0690
 6536PP      PP16640  15.110   6.575   0.229 -0.0849 -0.0752  0.0469
 6537PP      PP16641  14.963  10.892   3.641 -0.1030  0.0212 -0.0001
 6538PP      PP16642  13.881  15.032   2.473 -0.1122  0.0036 -0.0715
 6539PP      PP16643  14.197   9.842   8.387 -0.1101 -0.2100  0.0208
 6540PP      PP16644   9.448  14.398   3.304  0.1487  0.1440 -0.0978
 6541PP      PP16645   9.715  15.175   2.784  0.0068 -0.2076 -0.0792
 6542PP      PP16646   0.754   0.896  10.056  0.1616  0.1489  0.1196
 6543PP      PP16647   7.241   7.456   8.238 -0.0038  0.0803  0.1220
 6544PP      PP16648  15.595   5.671   1.560 -0.2996 -0.1675  0.3307
 6545PP      PP16649  13.441  11.814   2.076 -0.0107  0.0804 -0.2055
 6546PP      PP16650   1.488   4.991   9.460  0.1968  0.0251  0.1216
 6547PP      PP16651   9.195   1.900   1.407 -0.3860  0.3453  0.0447
 6548PP      PP16652   0.320   6.649  10.441  0.0292  0.0132  0.2593
 6549PP      PP16653  14.911   5.407  10.471  0.3223 -0.1656  0.3453
 6550PP      PP16654  12.707   6.762   9.473 -0.0237  0.3471 -0.3913
 6551PP      PP16655   5.077  14.599  11.230 -0.2390 -0.0210  0.0477
 6552PP      PP16656   8.594   4.056  12.663  0.1361 -0.0792  0.2492
 6553PP      PP16657   5.966  10.892   9.209 -0.1501  0.0765 -0.2095
 6554PP      PP16658  11.192  15.537   4.318 -0.0393  0.0392  0.0484
 6555PP      PP16659   2.920  14.122   7.639 -0.1009 -0.2156  0.1551
 6556PP      PP16660  12.207  11.353   2.301 -0.0261 -0.1016 -0.2083
 6557PP      PP16661   1.403   5.582  10.673 -0.3209  0.0272  0.1649
 6558PP      PP16662  10.118   6.450  12.492 -0.2109 -0.2318  0.1142
 6559PP      PP16663   8.902   0.925   3.668 -0.0549 -0.1378 -0.4667
 6560PP      PP16664  14.309  13.495   9.784  0.0985  0.0140  0.0640
 6561PP      PP16665   9.927   6.092   7.806 -0.0557 -0.0849  0.2135
 6562PP      PP16666  10.969  11.150   1.943 -0.1002 -0.1353  0.0101
 6563PP      PP16667   7.734   8.647   1.461 -0.3271 -0.4017  0.1556
 6564PP      PP16668  13.121  12.513   0.390  0.2230  0.0997 -0.4012
 6565PP      PP16669  15.765  10.129   4.295 -0.0479 -0.0298  0.1219
 6566PP      PP16670   6.935   7.883   9.406 -0.1425 -0.2347  0.1966
 6567PP      PP16671   8.363   1.051   0.868 -0.1166  0.2395  0.1452
 6568PP      PP16672   8.819  15.584   2.575  0.3847  0.1418  0.1521
 6569PP      PP16673  13.220  14.834   8.745  0.0870 -0.4591  0.0422
 6570PP      PP16674  12.685  15.101   8.984  0.2941  0.3703 -0.1113
 6571PP      PP16675  11.471   3.475  10.077 -0.1167  0.0523 -0.0469
 6572PP      PP16676   5.049   9.218   3.036 -0.1709  0.1503 -0.0062
 6573PP      PP16677   4.080   6.397   0.278  0.0376 -0.2006 -0.0958
 6574PP      PP16678   0.596   6.405   2.834 -0.2996  0.3031  0.0138
 6575PP      PP16679   3.164  14.747   2.440  0.1131  0.0351  0.0489
 6576PP      PP16680   7.327   5.530   3.621  0.1289  0.0076  0.4156
 6577PP      PP16681   4.710  15.624   4.564 -0.2145 -0.6006  0.0797
 6578PP      PP16682   3.651   2.085  12.067 -0.0085 -0.3723 -0.0203
 6579PP      PP16683   9.119  13.808  11.348  0.1539  0.2147  0.0986
 6580PP      PP16684   2.755  12.929   2.228 -0.1469  0.3685 -0.0934
 6581PP      PP16685  10.080  15.315   3.203  0.1776  0.0180 -0.1117
 6582PP      PP16686  15.412   8.318  10.600  0.1760  0.0350 -0.0098
 6583PP      PP16687  15.041  15.598   2.444 -0.2544  0.3889 -0.2192
 6584PP      PP16688   7.862  14.375   0.358 -0.0586  0.1647  0.1092
 6585PP      PP16689  13.659  14.875   9.064 -0.0010 -0.1832 -0.1302
 6586PP      PP16690   7.548   6.790   0.411  0.1703 -0.1337 -0.0388
 6587PP      PP16691  14.902  14.750   3.656  0.1246 -0.0387  0.1412
 6588PP      PP16692   4.352   5.493  10.946  0.2262  0.0926  0.1036
 6589PP      PP16693  12.904   8.093  10.920  0.3353 -0.3454  0.0649
 6590PP      PP16694  13.243   4.849  10.614  0.0395  0.1129 -0.0768
 6591PP      PP16695   9.223   9.031   8.914  0.1194 -0.0831  0.0730
 6592PP      PP16696   8.485  11.967  10.826  0.1084  0.0289  0.0755
 6593PP      PP16697   2.486   4.006  11.305 -0.2369  0.1232 -0.0554
 6594PP      PP16698   8.181   5.900   0.408 -0.2119 -0.1592 -0.1335
 6595PP      PP16699  10.485  13.462   8.644  0.3510 -0.2601 -0.0667
 6596PP      PP16700   2.106  16.057   3.582 -0.2628 -0.0814  0.0031
 6597PP      PP16701  15.481   4.776   1.851 -0.1514  0.0093 -0.1935
 6598PP      PP16702  15.598   0.123   8.469  0.0039  0.0755  0.1879
 6599PP      PP16703   3.274   5.188   1.372 -0.1357  0.0700 -0.0128
 6600PP      PP16704  16.167  12.074   1.348 -0.1521  0.0072  0.3023
 6601PP      PP16705   7.422   0.835  12.279 -0.0618 -0.0522  0.0488
 6602PP      PP16706   1.323   7.517   1.705  0.0163 -0.1505  0.0097
 6603PP      PP16707   9.299  15.773   1.026 -0.1076  0.0598  0.2043
 6604PP      PP16708   9.405   9.361   7.996  0.2409  0.0492 -0.0565
 6605PP      PP16709   1.221  12.122   9.517 -0.0223  0.1699 -0.1911
 6606PP      PP16710   9.300   5.653   9.953  0.0166  0.0503  0.0146
 6607PP      PP16711  11.089   3.263   3.411  0.0414  0.0824 -0.2862
 6608PP      PP16712   8.077   4.362  11.280 -0.0482  0.2083  0.0831
 6609PP      PP16713   9.741   9.707   7.786 -0.3221 -0.0212 -0.1650
 6610PP      PP16714   8.900   4.122   9.704  0.0738 -0.0069  0.1546
 6611PP      PP16715   8.073   8.566  11.229 -0.3269  0.1263 -0.1827
 6612PP      PP16716   4.605   9.007   8.730  0.2231  0.0174  0.0236
 6613PP      PP16717   8.520   3.805  11.640 -0.1823  0.0522  0.4287
 6614PP      PP16718   7.644   7.113  12.495  0.1186  0.2305 -0.0268
 6615PP      PP16719   2.153   4.280   0.735  0.1702  0.2783  0.1916
 6616PP      PP16720  12.508   7.550   9.120 -0.5256 -0.0189 -0.0492
 6617PP      PP16721  10.077   6.073   3.288 -0.3100  0.0256  0.1341
 6618PP      PP16722  10.756   9.089  11.444  0.1999 -0.1138  0.3776
 6619PP      PP16723  11.989   2.165   0.855 -0.4103  0.1436 -0.0446
 6620PP      PP16724  15.125   5.675  12.530 -0.1290  0.1047  0.2168
 6621PP      PP16725  15.288  11.999   0.185 -0.1039  0.2566  0.1523
 6622PP      PP16726   5.941   7.206  11.028 -0.2666 -0.4562 -0.0205
 6623PP      PP16727  14.696   9.669   8.268 -0.1168  0.2544  0.1950
 6624PP      PP16728  13.583   6.260   9.057 -0.1107  0.1506 -0.3822
 6625PP      PP16729   0.863   7.317   4.390  0.1275 -0.0717 -0.2581
 6626PP      PP16730  14.367  12.233   2.552  0.1566  0.0917  0.1361
 6627PP      PP16731   0.069  15.734   3.525 -0.0498  0.0973  0.3009
 6628PP      PP16732  15.899   5.431   8.369 -0.0893 -0.1503  0.0843
 6629PP      PP16733   4.954  14.598   9.359  0.3340  0.0324  0.0633
 6630PP      PP16734  13.525  11.355   2.265 -0.1460 -0.1797  0.0683
 6631PP      PP16735  14.198   7.095   1.021  0.2449 -0.0652 -0.1047
 6632PP      PP16736  15.877   8.922   9.944  0.0269  0.1562  0.3392
 6633PP      PP16737   7.526   3.859  10.259 -0.0733 -0.1160  0.1173
 6634PP      PP16738   9.514   2.368  10.701 -0.0389  0.2181 -0.0428
 6635PP      PP16739   6.736  15.491  11.621  0.0161 -0.1020  0.0251
 6636PP      PP16740  15.457   2.103   9.237  0.3258 -0.0759  0.0123
 6637PP      PP16741  12.197   6.148   2.722 -0.1164  0.0576 -0.0082
 6638PP      PP16742  10.787  12.300   1.459 -0.3769  0.1418  0.0038
 6639PP      PP16743   9.455  14.347   0.921  0.3510  0.2196 -0.3030
 6640PP      PP16744   4.280  11.610   2.418 -0.2924 -0.0468  0.0838
 6641PP      PP16745   4.121   4.235   3.753  0.1569 -0.2469  0.2769
 6642PP      PP16746   6.212   5.456   1.926 -0.1499 -0.1702 -0.0547
 6643PP      PP16747  14.426   4.268   8.543 -0.1037  0.2586  0.4272
 6644PP      PP16748   7.885   8.319   1.848  0.0275 -0.2390 -0.0031
 6645PP      PP16749  10.348   6.326   1.646  0.1999  0.0887  0.1203
 6646PP      PP16750   9.575   5.426   9.604 -0.1565  0.0894  0.0257
 6647PP      PP16751  11.657   6.512   2.004 -0.1459  0.2418 -0.1009
 6648PP      PP16752   2.680  13.187  10.460  0.2463  0.1997  0.1626
 6649PP      PP16753   4.805  14.583   0.218 -0.1602 -0.0669 -0.0339
 6650PP      PP16754  11.379   1.148   8.384  0.1728  0.0564 -0.3487
 6651PP      PP16755   9.655   7.334  10.855 -0.1292 -0.1296 -0.2758
 6652PP      PP16756   1.302   0.537   2.313  0.0778  0.0867  0.1474
 6653PP      PP16757   2.411   4.038   4.264 -0.0521 -0.1541  0.2192
 6654PP      PP16758   7.818  15.561   1.498 -0.2351 -0.1743 -0.0698
 6655PP      PP16759  10.029   5.407   2.270 -0.4094 -0.1030  0.1099
 6656PP      PP16760   2.005   3.054  10.017 -0.3586 -0.0681 -0.1382
 6657PP      PP16761   6.084   7.617   0.699  0.2549 -0.1874  0.1531
 6658PP      PP16762   6.595   9.075  12.440  0.1781  0.2130  0.2431
 6659PP      PP16763   8.845  10.923  12.738 -0.1653  0.0585 -0.2528
 6660PP      PP16764   3.438  13.662  12.308  0.1812  0.2971 -0.3048
 6661PP      PP16765  12.370   2.202  10.237  0.1728  0.0678 -0.2109
 6662PP      PP16766   1.526   9.369   1.242  0.0775  0.2021  0.0772
 6663PP      PP16767  13.161  13.008   3.476  0.0256 -0.0831  0.1320
 6664PP      PP16768  15.145  10.822  11.379 -0.0567 -0.1336  0.0171
 6665PP      PP16769  15.080  12.390  10.651  0.3555  0.0549 -0.1444
 6666PP      PP16770   5.970   1.550   2.775 -0.0648 -0.0301 -0.2264
 6667PP      PP16771   5.250   0.779  11.114  0.0174  0.3345  0.1097
 6668PP      PP16772   8.522   3.593   8.502 -0.3080 -0.2465 -0.0004
 6669PP      PP16773  10.217   4.123   9.324  0.2741  0.0558  0.2055
 6670PP      PP16774  10.687  13.394   9.153  0.2725 -0.0391  0.1094
 6671PP      PP16775   8.443  15.321   2.334  0.0496  0.1640  0.1640
 6672PP      PP16776   2.970   9.129  11.367 -0.2724 -0.2156  0.3406
 6673PP      PP16777  10.958   0.194   9.497  0.2907  0.0511 -0.2244
 6674PP      PP16778   1.716  14.600   8.389  0.1174  0.3357  0.2063
 6675PP      PP16779   7.138  13.999  10.261  0.0569 -0.0339 -0.0500
 6676PP      PP16780  10.602   3.936   9.778  0.0563 -0.1414 -0.0101
 6677PP      PP16781  11.846   8.675  12.332 -0.3159 -0.1154 -0.1057
 6678PP      PP16782   5.308   3.357   2.268 -0.0328  0.0385  0.3097
 6679PP      PP16783   5.909  15.392  12.024 -0.0727  0.0461 -0.4154
 6680PP      PP16784   8.684   1.533   8.608 -0.2832  0.0757 -0.1031
 6681PP      PP16785   4.638   3.490   7.799  0.2037  0.0822  0.1705
 6682PP      PP16786  11.583   3.375   3.571  0.1737 -0.1492  0.0709
 6683PP      PP16787  16.061  13.884   4.235 -0.2784  0.2493  0.0803
 6684PP      PP16788  14.783   4.420   0.500 -0.1703 -0.2205 -0.0683
 6685PP      PP16789   6.681  10.959   8.789 -0.0332  0.0931 -0.0547
 6686PP      PP16790   9.525  10.486   9.399 -0.0515  0.0624 -0.1455
 6687PP      PP16791   1.767   4.212  11.882 -0.1163 -0.4991  0.0965
 6688PP      PP16792   8.907  12.646   1.903 -0.3044 -0.1472  0.2901
 6689PP      PP16793   7.993   6.319  11.089 -0.2302 -0.0337 -0.1357
 6690PP      PP16794  15.323   5.974  12.202 -0.1019 -0.0170  0.0549
 6691PP      PP16795   8.329  12.306  12.344  0.1983 -0.1511  0.0293
 6692PP      PP16796   9.095   3.064  10.558 -0.0862  0.0405 -0.1529
 6693PP      PP16797   6.976   3.227   4.914  0.1460 -0.2767 -0.3922
 6694PP      PP16798   8.804   1.471   9.645 -0.3647 -0.0547 -0.0972
 6695PP      PP16799   3.889  15.857   0.218 -0.2840  0.1961  0.0177
 6696PP      PP16800  13.750   1.990   9.419  0.1692  0.1237  0.2106
 6697PP      PP16801   8.491  11.972   8.837  0.0933  0.0702 -0.1873
 6698PP      PP16802  14.015  14.706  12.731 -0.1484 -0.0518  0.2242
 6699PP      PP16803   5.636  12.897   0.012 -0.3120 -0.3204 -0.0229
 6700PP      PP16804   5.863   6.964   4.114 -0.2678  0.3902 -0.1648
 6701PP      PP16805  13.575   5.170   9.838 -0.0956 -0.0904  0.3511
 6702PP      PP16806   0.593   7.449  11.158 -0.3484  0.3571  0.3392
 6703PP      PP16807   5.112  11.743   1.457 -0.0645 -0.1051 -0.1655
 6704PP      PP16808   6.285   5.406   9.394 -0.0252 -0.3423 -0.0964
 6705PP      PP16809  14.210  12.002  12.236  0.0564 -0.0761  0.0257
 6706PP      PP16810   8.106   3.039   0.092 -0.1493  0.0515  0.2287
 6707PP      PP16811   1.649   3.863   9.227  0.1301 -0.3199 -0.1281
 6708PP      PP16812  13.919   8.388   2.457 -0.1613  0.3991  0.2555
 6709PP      PP16813  12.853  11.990   9.227  0.0025  0.0660 -0.1051
 6710PP      PP16814   8.674   8.171  10.655 -0.1538  0.4971 -0.3045
 6711PP      PP16815   2.718   1.122   4.639 -0.1758 -0.3404  0.3112
 6712PP      PP16816   8.603  13.343   1.243  0.0051 -0.0642 -0.1893
 6713PP      PP16817   3.902   1.835  12.569 -0.0063  0.0330  0.1488
 6714PP      PP16818  12.651   3.111   8.759  0.0478 -0.1529 -0.0280
 6715PP      PP16819   1.741   9.647   1.816 -0.1956  0.2145 -0.1881
 6716PP      PP16820  11.896   5.706   1.930  0.1839  0.2618 -0.2169
 6717PP      PP16821  10.364  12.169   8.819 -0.0414  0.0375 -0.2109
 6718PP      PP16822   9.851   2.731   0.969  0.0424  0.3366 -0.2851
 6719PP      PP16823  10.653   4.202  11.308  0.3167 -0.0241  0.0801
 6720PP      PP16824  12.824   7.313   9.418  0.0762 -0.0345 -0.1590
 6721PP      PP16825  11.348   9.755   9.864  0.0496 -0.0487 -0.0637
 6722PP      PP16826   2.615   8.732   2.076  0.0113  0.1212  0.1655
 6723PP      PP16827  14.363  14.029   9.131  0.3230 -0.0873 -0.2614
 6724PP      PP16828  12.332  12.509   0.647 -0.0955  0.2240  0.1795
 6725PP      PP16829   1.735   4.247   9.548  0.2326  0.1960  0.2577
 6726PP      PP16830  11.996  13.097  12.725  0.1212 -0.0233 -0.0311
 6727PP      PP16831   5.926   0.200  11.621  0.0367 -0.2659 -0.0926
 6728PP      PP16832   3.396   9.721   7.625  0.1709  0.1473 -0.2508
 6729PP      PP16833  14.058   6.619   0.924 -0.3956 -0.2334 -0.0132
 6730PP      PP16834   3.527  13.606  11.752  0.0753 -0.2785 -0.1318
 6731PP      PP16835   6.913   1.595  11.960  0.1639  0.1574  0.1326
 6732PP      PP16836   3.029  13.995  12.463 -0.3201  0.2134  0.3408
 6733PP      PP16837   6.823   4.643   8.238  0.2853  0.2295  0.1707
 6734PP      PP16838  13.813   8.207   8.749  0.1417 -0.1268 -0.0091
 6735PP      PP16839  14.562  11.339   8.725  0.1207  0.6641 -0.0911
 6736PP      PP16840  11.498   1.210  10.991 -0.0719  0.3168 -0.0621
 6737PP      PP16841   0.031   4.704   3.558 -0.0569 -0.0154 -0.1605
 6738PP      PP16842  12.468   3.433   9.099  0.3167 -0.1212  0.2466
 6739PP      PP16843  15.114   7.410   2.844 -0.0840 -0.0797 -0.1475
 6740PP      PP16844   3.163   7.663   8.765 -0.3238 -0.2953  0.1022
 6741PP      PP16845   8.665  10.871   3.760  0.3319 -0.0165 -0.1797
 6742PP      PP16846   6.547   1.215  10.105  0.2064 -0.0888  0.2661
 6743PP      PP16847  14.456   0.632   8.202 -0.1084  0.0987  0.0959
 6744PP      PP16848  10.118   4.741   9.623 -0.0364  0.0201 -0.2745
 6745PP      PP16849   8.754   0.627   0.851  0.0983 -0.0597  0.1059
 6746PP      PP16850   5.379  10.791   3.014  0.0632  0.2707  0.0449
 6747PP      PP16851   1.544   9.923   8.144  0.1145 -0.2037 -0.0212
 6748PP      PP16852   1.257   4.068   2.820 -0.1397  0.2288 -0.0406
 6749PP      PP16853   8.144  10.831  12.570 -0.2370 -0.3739  0.0654
 6750PP      PP16854   2.533   9.144   0.969  0.0859 -0.0023  0.3733
 6751PP      PP16855   7.927   1.849  12.719 -0.2220  0.2762  0.1486
 6752PP      PP16856  11.057   5.556   8.438  0.2942  0.1334 -0.0943
 6753PP      PP16857   2.570   3.683  11.845  0.1056 -0.0249  0.2062
 6754PP      PP16858   5.512  15.738   8.898 -0.1605  0.1922  0.0389
 6755PP      PP16859  12.885   0.065   9.306 -0.0834 -0.0660  0.0332
 6756PP      PP16860  10.702  10.965   0.103 -0.1801 -0.1702 -0.0389
 6757PP      PP16861   0.321   2.753   0.796  0.0405 -0.0539 -0.3834
 6758PP      PP16862  13.252  12.870   0.028 -0.0606  0.0736 -0.1240
 6759PP      PP16863  12.653   1.308   0.748  0.1168  0.3268  0.0519
 6760PP      PP16864   4.765   4.655   9.759 -0.3452 -0.0032  0.1627
 6761PP      PP16865   1.689   5.780   3.947  0.0887  0.2037 -0.1071
 6762PP      PP16866  10.051  13.530   1.558  0.1010 -0.1533 -0.2108
 6763PP      PP16867   4.744   0.009   3.742  0.1572 -0.1089 -0.0803
 6764PP      PP16868   3.191   0.933   2.095 -0.4234 -0.4270  0.0952
 6765PP      PP16869   6.895   6.131  11.981  0.2561  0.1877 -0.2467
 6766PP      PP16870  11.191   0.771   1.035  0.0683 -0.1412  0.1655
 6767PP      PP16871   8.192   2.875   1.331  0.0648 -0.3717 -0.2547
 6768PP      PP16872  13.939   8.776   8.575 -0.0031 -0.0809 -0.1312
 6769PP      PP16873   4.849  13.108   9.634 -0.0275  0.2784  0.0959
 6770PP      PP16874   9.708   3.824  12.351  0.0181 -0.3795 -0.0335
 6771PP      PP16875  14.002   8.648   9.677 -0.0431 -0.2252  0.2327
 6772PP      PP16876  15.874   2.884   8.981  0.3670  0.0158 -0.1170
 6773PP      PP16877   2.379   0.010   0.424 -0.2205  0.0068  0.0658
 6774PP      PP16878  14.208   9.231   3.614  0.0846  0.0221  0.1373
 6775PP      PP16879  13.743   4.026  10.847 -0.2095  0.0483  0.2481
 6776PP      PP16880  15.764  12.192   2.502 -0.2383 -0.0385  0.1863
 6777PP      PP16881   8.288  12.598  10.212 -0.1371 -0.2572  0.2334
 6778PP      PP16882   9.972   1.699   9.296 -0.2103  0.2490  0.4388
 6779PP      PP16883   4.791  15.745   3.238 -0.1521 -0.1559 -0.3606
 6780PP      PP16884   0.125  11.960   1.746 -0.1624 -0.0241  0.0996
 6781PP      PP16885  12.212   3.587   0.483  0.0593 -0.0371 -0.0708
 6782PP      PP16886   1.550  14.287  11.235 -0.1784 -0.1077 -0.0979
 6783PP      PP16887  10.214  11.673   2.912  0.3030 -0.0558  0.2713
 6784PP      PP16888  15.892   7.934  12.045  0.2724  0.1497 -0.1152
 6785PP      PP16889   0.961   3.486   1.204 -0.0983  0.1371  0.0474
 6786PP      PP16890   0.806  11.684   8.610 -0.0882  0.0172 -0.0516
 6787PP      PP16891  13.188   3.219   1.256  0.1186 -0.4897  0.2495
 6788PP      PP16892   1.664   0.532  12.643 -0.1191  0.2861  0.1364
 6789PP      PP16893   5.116   5.318   2.912  0.0850 -0.1243 -0.0021
 6790PP      PP16894  10.765  11.377   1.512 -0.0937  0.3229  0.0190
 6791PP      PP16895   9.229   5.987   3.241 -0.0938  0.2694  0.2168
 6792PP      PP16896   3.349   7.926   9.826  0.1748 -0.1563 -0.1155
 6793PP      PP16897  15.905   1.694   3.561 -0.2634  0.0122  0.0103
 6794PP      PP16898   5.492   6.840  11.818  0.1933  0.0509 -0.0927
 6795PP      PP16899  12.386  10.222   2.088 -0.2574 -0.3180 -0.1687
 6796PP      PP16900  13.799   6.878   2.656  0.1087  0.1867 -0.0020
 6797PP      PP16901   2.432   9.123   8.401  0.0942 -0.2734 -0.1237
 6798PP      PP16902   5.380  10.468   0.521 -0.2627  0.0577 -0.2047
 6799PP      PP16903  14.435   3.781  11.991 -0.2076 -0.0487 -0.1970
 6800PP      PP16904   3.724   4.016   0.762  0.0524 -0.2218 -0.0211
 6801PP      PP16905  15.166  10.688  12.175 -0.0270 -0.3047  0.2369
 6802PP      PP16906   9.065  13.246   2.001 -0.0699 -0.0733 -0.1022
 6803PP      PP16907  10.815   5.934  10.309 -0.0868 -0.2738  0.1187
 6804PP      PP16908  11.736   2.056   2.279  0.2602  0.2307  0.0771
 6805PP      PP16909   4.784   5.158   2.036 -0.2264 -0.2022 -0.0512
 6806PP      PP16910   8.879   6.110   9.407 -0.0189 -0.3373  0.0587
 6807PP      PP16911  14.543   0.401  11.874 -0.0029 -0.1603 -0.1323
 6808PP      PP16912  12.298   5.377   0.120 -0.2681 -0.2975 -0.1039
 6809PP      PP16913   5.314  12.572   3.100  0.2754  0.0459 -0.2535
 6810PP      PP16914   5.094  10.067  10.205  0.1553  0.1369 -0.1387
 6811PP      PP16915   4.648  15.532   8.787 -0.0308 -0.3587 -0.0797
 6812PP      PP16916   2.374   5.116  12.351 -0.1533 -0.3388 -0.0079
 6813PP      PP16917   7.699   4.604   2.272 -0.1867  0.3418 -0.1034
 6814PP      PP16918  13.061  11.225  10.633  0.1333 -0.0441  0.1008
 6815PP      PP16919   3.257  14.138   9.671 -0.2656  0.1337 -0.0043
 6816PP      PP16920  14.363   6.370  12.419  0.1923 -0.0996 -0.0776
 6817PP      PP16921   1.766   3.457  10.144 -0.0561 -0.1358  0.0976
 6818PP      PP16922   8.229  14.909   2.099 -0.3740  0.3071 -0.2338
 6819PP      PP16923  13.879   5.336   7.898  0.0257  0.0299 -0.1135
 6820PP      PP16924   0.017   4.411  12.648 -0.1476 -0.2990 -0.1811
 6821PP      PP16925   3.663  15.603   2.346  0.2265 -0.1446 -0.0292
 6822PP      PP16926  11.239   6.141   3.564 -0.0579 -0.0857  0.0555
 6823PP      PP16927   1.006   5.789  10.995  0.1994  0.0512 -0.0443
 6824PP      PP16928   4.242   3.908  12.627 -0.2246 -0.0867  0.3788
 6825PP      PP16929   4.410  10.252   3.160 -0.1542  0.3718  0.0394
 6826PP      PP16930  11.719  15.307  12.425 -0.3345 -0.2710 -0.3053
 6827PP      PP16931   6.508   9.232  11.903 -0.0548 -0.0293  0.0876
 6828PP      PP16932  13.788   7.067   3.723 -0.2463 -0.0077 -0.0764
 6829PP      PP16933  15.891  12.650   2.935 -0.0423 -0.0231  0.0108
 6830PP      PP16934   6.658   7.600   3.058  0.2077  0.1725  0.3524
 6831PP      PP16935  11.279   3.746  10.574  0.1207  0.0631  0.0773
 6832PP      PP16936  13.151   8.646   1.341  0.2650  0.1898  0.3045
 6833PP      PP16937   7.459   1.374   8.853  0.0380  0.4154 -0.2056
 6834PP      PP16938  15.119   3.362   3.616 -0.1145 -0.1810 -0.1763
 6835PP      PP16939   0.370  14.933  11.900 -0.2001  0.2614  0.2079
 6836PP      PP16940   5.778   2.794   2.995  0.2426  0.0680  0.0244
 6837PP      PP16941   1.291   8.160   9.778 -0.0834 -0.0279 -0.2224
 6838PP      PP16942   7.962   7.552   3.645 -0.0695 -0.0182 -0.1247
 6839PP      PP16943   8.080   1.007   4.555  0.0004  0.0360 -0.0358
 6840PP      PP16944   4.215   4.112   8.321  0.0450 -0.1232  0.0172
 6841PP      PP16945  10.551   0.222   3.368 -0.0864 -0.1079  0.2550
 6842PP      PP16946   6.544  10.777   2.429  0.1313  0.0133  0.1460
 6843PP      PP16947   0.057  15.056   2.267  0.1863  0.3769  0.3056
 6844PP      PP16948   5.110   6.180   0.409  0.0722  0.3198 -0.1433
 6845PP      PP16949   3.744   6.876   1.001  0.1666  0.2314  0.3671
 6846PP      PP16950  12.290   3.428  10.447 -0.0473  0.0306 -0.1169
 6847PP      PP16951  14.462   0.861   2.739  0.1779 -0.1733 -0.2711
 6848PP      PP16952   7.196   4.355   9.261  0.0927  0.1255  0.1969
 6849PP      PP16953  13.453   7.589  10.993 -0.0305  0.4145 -0.1895
 6850PP      PP16954  11.978   2.199   9.924  0.3867  0.0750 -0.0048
 6851PP      PP16955  13.172  15.459   1.097  0.2112  0.3458  0.2069
 6852PP      PP16956   9.686   1.593   0.159 -0.0703  0.2939 -0.3375
 6853PP      PP16957  13.078   2.906  11.305  0.1021 -0.0500  0.3104
 6854PP      PP16958   1.930   5.227  10.491  0.2934 -0.0898 -0.1375
 6855PP      PP16959   8.780  13.369   4.791  0.1166 -0.0495 -0.1066
 6856PP      PP16960   4.422   2.197   9.729  0.2383  0.0612 -0.4606
 6857PP      PP16961  13.887   4.232   1.961  0.0344  0.1147 -0.0258
 6858PP      PP16962   0.151   7.202   9.908 -0.0522  0.2885  0.2020
 6859PP      PP16963  11.087   0.320   1.319  0.2868  0.0541 -0.0616
 6860PP      PP16964  14.001   4.658  10.650 -0.0523 -0.0063 -0.3278
 6861PP      PP16965   7.770   2.335  12.272  0.0814 -0.0869 -0.4470
 6862PP      PP16966  12.488   4.280  12.633 -0.2734  0.0127  0.1855
 6863PP      PP16967  10.165  10.583  11.115 -0.0557 -0.4072 -0.4008
 6864PP      PP16968   0.996   0.105   4.434  0.0699 -0.0823  0.0030
 6865PP      PP16969   0.718   6.925   1.111  0.0692  0.2504  0.2000
 6866PP      PP16970   3.869  15.795   7.962  0.2215  0.0125  0.1543
 6867PP      PP16971   2.525  11.988   0.087  0.1251  0.3912  0.0163
 6868PP      PP16972   2.813   5.887  12.479 -0.0654 -0.2139  0.1142
 6869PP      PP16973  16.023   2.706   9.799  0.2412 -0.0364 -0.2487
 6870PP      PP16974  10.230   4.636   8.737 -0.1988 -0.3157  0.0846
 6871PP      PP16975   4.731   4.933  10.159 -0.2808  0.0033 -0.3892
 6872PP      PP16976   1.565  14.762   4.693 -0.2992  0.1786  0.2597
 6873PP      PP16977  14.992  13.803   9.758 -0.0935  0.1463  0.1827
 6874PP      PP16978  14.244  11.851   8.968 -0.4673  0.0147 -0.0343
 6875PP      PP16979   3.472  15.887   3.147  0.0356 -0.2139  0.0173
 6876PP      PP16980   6.536   7.209   2.759  0.0515 -0.0006  0.1100
 6877PP      PP16981  14.173  14.302  11.842 -0.2829 -0.2904 -0.1460
 6878PP      PP16982   8.046  10.206  10.323 -0.2504  0.0456 -0.2301
 6879PP      PP16983   2.475  12.097   1.929  0.2147  0.2479 -0.0974
 6880PP      PP16984  12.489  16.092   9.996  0.0430  0.1225  0.0945
 6881PP      PP16985   2.829   4.284  10.719 -0.0573  0.0259 -0.0221
 6882PP      PP16986   8.255  16.168  10.877  0.1968  0.1254  0.1700
 6883PP      PP16987  11.461   5.332   2.712 -0.3823 -0.0137  0.1320
 6884PP      PP16988  10.399   7.413  11.011  0.0015  0.1344 -0.3055
 6885PP      PP16989  13.533  15.560  10.538  0.0936  0.1771  0.0367
 6886PP      PP16990  16.222   0.770   3.183  0.0681 -0.0703  0.4050
 6887PP      PP16991   9.217   4.591   1.605 -0.1936 -0.0467  0.4795
 6888PP      PP16992   8.784  15.622   9.131 -0.2838  0.0441  0.3454
 6889PP      PP16993   4.043  15.980  12.487  0.0221  0.3251  0.2193
 6890PP      PP16994  14.421  15.979  12.624  0.1173  0.2261 -0.0195
 6891PP      PP16995   6.760   2.605   9.855 -0.1383 -0.0578  0.2057
 6892PP      PP16996  14.787   7.190   3.263 -0.0762  0.0731 -0.0377
 6893PP      PP16997  10.254  10.371  11.629 -0.0844  0.0019 -0.2272
 6894PP      PP16998   1.910   0.196   2.077 -0.1703  0.1559  0.0359
 6895PP      PP16999   0.854   9.683   2.364 -0.2865  0.1034 -0.1664
 6896PP      PP17000  13.478   0.544   2.910  0.2124  0.1371 -0.1095
 6897PP      PP17001   1.597   7.449   9.363 -0.3858  0.0686  0.2656
 6898PP      PP17002   2.116   3.102  12.710  0.1741 -0.0232 -0.1684
 6899PP      PP17003  10.550   8.660   7.566  0.1723 -0.1682  0.4363
 6900PP      PP17004   1.029   5.744   1.197 -0.3910 -0.2812  0.3727
 6901PP      PP17005   6.504   5.150   3.375 -0.0402  0.2405 -0.1196
 6902PP      PP17006  10.229   8.275   0.324  0.2065 -0.2480 -0.1445
 6903PP      PP17007  15.534   1.794   0.627 -0.1171 -0.1479  0.0425
 6904PP      PP17008   9.559  15.183   2.126 -0.1137 -0.0583  0.2370
 6905PP      PP17009   1.521   1.910   2.669 -0.2165  0.0633 -0.1392
 6906PP      PP17010   6.045  11.944   3.389 -0.0130  0.1108 -0.2394
 6907PP      PP17011   1.299   6.152   1.260  0.0368 -0.1057 -0.1415
 6908PP      PP17012  11.570  13.868   9.020  0.1769 -0.0577 -0.0620
 6909PP      PP17013   0.985   9.288  11.240 -0.1639  0.0377  0.0480
 6910PP      PP17014   1.323   0.275  12.119  0.1768 -0.2172  0.1693
 6911PP      PP17015   8.396   0.683   4.346  0.0134  0.0179 -0.0288
 6912PP      PP17016   8.757   0.236   1.361 -0.3275  0.1897 -0.0171
 6913PP      PP17017   1.874   2.076  10.532  0.1170  0.1684 -0.0912
 6914PP      PP17018   1.265   9.992  11.889 -0.0641 -0.0741 -0.0163
 6915PP      PP17019  13.463  13.003   9.314  0.2775  0.1293  0.0027
 6916PP      PP17020  12.685   7.640   8.216 -0.1299 -0.0701  0.1654
 6917PP      PP17021   6.169   4.542   8.508 -0.0279  0.1542  0.1863
 6918PP      PP17022   3.368  10.220  10.453 -0.3146 -0.1190 -0.4901
 6919PP      PP17023   1.711  11.510   1.626  0.3025 -0.1827  0.2538
 6920PP      PP17024  16.358   9.397   2.061  0.2482 -0.1657 -0.1672
 6921PP      PP17025   8.320  15.883  10.441  0.0937  0.3045  0.1704
 6922PP      PP17026  12.292   0.757   2.503 -0.2184  0.0849  0.1591
 6923PP      PP17027   6.916   3.780   8.343 -0.1573  0.3688 -0.0633
 6924PP      PP17028   0.820  12.544   2.530  0.0382 -0.1417 -0.0098
 6925PP      PP17029   0.864  12.457   0.967 -0.0487  0.0839  0.1629
 6926PP      PP17030  16.271   1.764   3.286  0.1530 -0.0021  0.2294
 6927PP      PP17031   0.557  15.034   4.231  0.1030 -0.1042 -0.1635
 6928PP      PP17032   9.002   1.709   8.243 -0.0149  0.0955  0.3039
 6929PP      PP17033   4.817   5.415   3.674  0.0422  0.1426 -0.1849
 6930PP      PP17034  11.890   3.205  10.103  0.2970  0.2238  0.3271
 6931PP      PP17035   7.616  14.082   9.221  0.2450  0.3414  0.0175
 6932PP      PP17036  12.877  15.061   1.124 -0.2795  0.1319  0.3908
 6933PP      PP17037   6.920  12.241  10.765 -0.0078 -0.1635 -0.3495
 6934PP      PP17038   9.702   1.581  10.341 -0.1421 -0.2511 -0.1609
 6935PP      PP17039   0.260   7.232   7.693 -0.3572  0.1288 -0.0145
 6936PP      PP17040   9.312  14.514   1.399  0.0149  0.2674  0.1321
 6937PP      PP17041  11.097   4.830  12.555  0.1597  0.1253  0.0253
 6938PP      PP17042   6.140  14.244   2.445 -0.3777 -0.1248 -0.2529
 6939PP      PP17043   1.095   6.624   7.932 -0.1001 -0.1368  0.2228
 6940PP      PP17044   0.626   9.026  12.097 -0.1011  0.0104  0.0620
 6941PP      PP17045   2.253   2.515   1.227  0.0892  0.1733 -0.2772
 6942PP      PP17046   2.922   5.693   3.496 -0.0242 -0.2059  0.0549
 6943PP      PP17047  13.863  14.409  10.454  0.1713  0.1238 -0.0058
 6944PP      PP17048   5.234   4.343  11.323  0.0887 -0.2587  0.2276
 6945PP      PP17049   9.694  11.157   1.948  0.3025 -0.1571  0.1892
 6946PP      PP17050  11.244  11.486  10.874  0.1426 -0.0190 -0.2405
 6947PP      PP17051  12.857   6.360   0.128 -0.0616 -0.0458  0.1043
 6948PP      PP17052   6.052   8.408   0.960 -0.1315  0.2224  0.0805
 6949PP      PP17053  15.222  10.711   1.738  0.1223 -0.0415  0.1967
 6950PP      PP17054  12.775   4.368   9.339  0.3013  0.0393 -0.0787
 6951PP      PP17055  10.984   7.950   9.652  0.3021 -0.1552  0.0382
 6952PP      PP17056  13.606   0.149   9.836  0.3857  0.0074 -0.1386
 6953PP      PP17057  14.819  15.157  12.612 -0.1201 -0.1990 -0.0379
 6954PP      PP17058   0.795   7.857   1.988 -0.2581 -0.0835 -0.0767
 6955PP      PP17059   8.116   3.747  12.530  0.0128 -0.1685  0.1079
 6956PP      PP17060   9.635   6.700  10.025  0.0268 -0.1602 -0.0851
 6957PP      PP17061   9.525   9.273  11.160 -0.0718  0.1472  0.0223
 6958PP      PP17062   2.016  10.860   8.268  0.0337  0.1478  0.0370
 6959PP      PP17063  13.909   8.562  12.661  0.0063  0.1567 -0.4836
 6960PP      PP17064   9.112  15.987   9.624  0.1414 -0.3195 -0.0770
 6961PP      PP17065   6.336   7.029   3.677  0.0044 -0.1491  0.1708
 6962PP      PP17066  11.318   5.780   0.354  0.0305  0.0019  0.1839
 6963PP      PP17067   7.769   6.618  12.628 -0.3005 -0.2437 -0.3372
 6964PP      PP17068   1.573   2.162   3.167 -0.1582  0.1279 -0.2576
 6965PP      PP17069   8.716   9.583   0.584 -0.2173 -0.0066 -0.0710
 6966PP      PP17070  15.281  12.331   3.941  0.0345 -0.0142 -0.1914
 6967PP      PP17071   5.192   2.825   4.225  0.3903  0.2203 -0.3324
 6968PP      PP17072  11.925  11.406   9.738  0.1609  0.2387 -0.2057
 6969PP      PP17073   5.693  14.393   9.454  0.2834  0.1483  0.1058
 6970PP      PP17074  13.694   8.498   3.526 -0.0162  0.0274 -0.0433
 6971PP      PP17075   6.791  11.340   3.330 -0.1780 -0.0582  0.3436
 6972PP      PP17076   4.754  14.417   2.018 -0.0491  0.0797 -0.0301
 6973PP      PP17077  16.146   0.533   9.065 -0.0641  0.1566 -0.0173
 6974PP      PP17078   5.417   2.526   4.616  0.1326  0.0698 -0.1589
 6975PP      PP17079   4.586  12.310   1.833  0.0243  0.1168  0.2826
 6976PP      PP17080  15.964   0.637   2.084 -0.1178 -0.4349  0.2340
 6977PP      PP17081   4.106   6.327  11.095 -0.0471  0.1957 -0.1071
 6978PP      PP17082   8.671  12.783   0.587 -0.0131 -0.1120 -0.3210
 6979PP      PP17083   7.829  12.847  12.063 -0.3091 -0.0550  0.1052
 6980PP      PP17084   5.973  15.354   4.119  0.0661 -0.1670  0.1973
 6981PP      PP17085   0.295   2.128  10.552  0.0343 -0.2924 -0.3439
 6982PP      PP17086   1.112  12.125   3.803 -0.3107  0.0347 -0.0645
 6983PP      PP17087   4.159   6.630   9.324  0.1788  0.0010 -0.0933
 6984PP      PP17088   4.420  13.744  11.104 -0.0005 -0.0198  0.0061
 6985PP      PP17089  16.274   3.984  11.590 -0.1285 -0.0857  0.2450
 6986PP      PP17090   7.013  10.593   0.498  0.3086 -0.0918  0.3206
 6987PP      PP17091  15.484   3.552   1.205 -0.0713  0.2750  0.0251
 6988PP      PP17092  13.546  10.828   4.138 -0.1333  0.4285 -0.0510
 6989PP      PP17093  13.349  16.313   8.932  0.2102  0.3814 -0.2519
 6990PP      PP17094   9.535  16.219   2.992  0.2769  0.1033 -0.2274
 6991PP      PP17095   7.861   2.443   0.034  0.0481  0.0275 -0.1588
 6992PP      PP17096  11.336  15.652   1.132 -0.0878 -0.0896  0.3178
 6993PP      PP17097   4.436   6.444   2.654  0.0094 -0.0957  0.1930
 6994PP      PP17098   2.268   8.118  12.037  0.0062  0.0008 -0.1266
 6995PP      PP17099   7.012   5.086   7.989 -0.0959 -0.3903 -0.0458
 6996PP      PP17100   3.838   9.306  10.392  0.3502  0.0311 -0.1329
 6997PP      PP17101   4.717   7.649   1.034 -0.0038 -0.2238 -0.3762
 6998PP      PP17102  14.755   4.119  10.870 -0.0198  0.0828  0.0395
 6999PP      PP17103  15.825   1.027   3.038 -0.2433 -0.2190 -0.0971
 7000PP      PP17104   9.070  16.230  11.406 -0.1605  0.2455  0.0825
 7001PP      PP17105   6.743  14.336  11.829 -0.0110 -0.1292  0.2096
 7002PP      PP17106  13.239  14.982   9.485 -0.1638 -0.0890 -0.0415
 7003PP      PP17107   6.080   6.703   8.401  0.1388 -0.1780 -0.0109
 7004PP      PP17108  15.898  12.476  12.238 -0.3156 -0.1844 -0.0381
 7005PP      PP17109  11.549   2.451   7.010  0.1911  0.0768 -0.1863
 7006PP      PP17110   4.953   9.684   1.147  0.0340 -0.1883 -0.1031
 7007PP      PP17111   5.614  11.689   8.635  0.0587 -0.0374  0.0703
 7008PP      PP17112  15.046   4.171   3.500  0.1305  0.2272  0.1199
 7009PP      PP17113   6.408  13.744   2.384  0.2227 -0.0317 -0.5456
 7010PP      PP17114  16.347   5.701  10.505  0.2662 -0.0794 -0.2794
 7011PP      PP17115   2.769   5.403   8.173 -0.1003 -0.4187  0.0872
 7012PP      PP17116   0.191   9.091   8.611 -0.3925 -0.1194  0.0224
 7013PP      PP17117   6.059  11.099   9.817  0.1243  0.1281 -0.2172
 7014PP      PP17118   7.199   8.014  12.159  0.0901 -0.2333  0.1249
 7015PP      PP17119  12.719   2.055  11.298 -0.0266 -0.0555  0.4782
 7016PP      PP17120   8.465   5.188   8.722 -0.0107 -0.0222 -0.2557
 7017PP      PP17121  10.411   3.074   1.636  0.2168 -0.0899 -0.2378
 7018PP      PP17122  13.097  12.275  11.277 -0.3612  0.1020  0.0798
 7019PP      PP17123   0.029   9.566   3.393  0.2322  0.3604 -0.0785
 7020PP      PP17124   2.608  10.851   0.180  0.3042  0.1320 -0.0907
 7021PP      PP17125  10.261   6.311   2.516 -0.2585 -0.0197 -0.3160
 7022PP      PP17126   5.761   7.246  12.498  0.2112  0.2400  0.5132
 7023PP      PP17127   3.238   0.148   0.707 -0.0197  0.0229 -0.1512
 7024PP      PP17128   8.800   0.686   0.026 -0.1148  0.1637  0.0428
 7025PP      PP17129   8.276  10.440  12.205  0.3093  0.3154 -0.5419
 7026PP      PP17130  11.207   3.110  11.632  0.3080  0.1006 -0.1229
 7027PP      PP17131   0.961  13.912   9.616 -0.2966  0.2521 -0.0140
 7028PP      PP17132   4.954   1.671   1.008  0.0041 -0.0089  0.0702
 7029PP      PP17133   9.795  14.897   4.266  0.0872 -0.1835 -0.2090
 7030PP      PP17134  15.286  10.946   4.016 -0.1440  0.0434  0.0357
 7031PP      PP17135   4.447   1.201   9.948  0.1864  0.1249  0.3199
 7032PP      PP17136   4.646   5.535   9.381 -0.2300 -0.1420 -0.2309
 7033PP      PP17137  15.859  13.072   0.910  0.0278 -0.0451 -0.2415
 7034PP      PP17138  12.362   2.644  11.857  0.2838 -0.0209 -0.0861
 7035PP      PP17139   9.434   1.305   4.598 -0.1799  0.3509 -0.1186
 7036PP      PP17140   5.014   1.405  12.438 -0.2871  0.0622  0.1164
 7037PP      PP17141   4.862   3.971  10.116 -0.1415  0.1783  0.0930
 7038PP      PP17142  13.394   2.948   2.347  0.2981 -0.0991  0.3961
 7039PP      PP17143   0.137  16.026   9.574 -0.1269  0.0918 -0.2829
 7040PP      PP17144   8.087   0.120   9.799  0.3271  0.1428  0.1014
 7041PP      PP17145   0.755   9.349  12.443  0.1700  0.0301 -0.2020
 7042PP      PP17146   5.900   3.293   4.383  0.0624 -0.0648  0.2722
 7043PP      PP17147   2.736  14.140   4.323  0.0178 -0.0607 -0.2334
 7044PP      PP17148   5.767  13.994   9.750 -0.2812  0.5718 -0.0032
 7045PP      PP17149   8.026  12.999   0.511  0.2101 -0.1866  0.1060
 7046PP      PP17150   8.702   9.455   1.489 -0.1714  0.3175  0.0785
 7047PP      PP17151   5.800   5.718  10.592  0.2299 -0.0526  0.0631
 7048PP      PP17152   1.121  14.354  12.647 -0.2152 -0.1570  0.4385
 7049PP      PP17153   6.714   3.436   2.929 -0.2210  0.2395  0.0313
 7050PP      PP17154  13.048  11.137  12.539 -0.1065 -0.1329 -0.2078
 7051PP      PP17155   4.529   4.153   9.731 -0.1080  0.0987 -0.0201
 7052PP      PP17156   0.659   3.259   4.398 -0.1234 -0.0006  0.0285
 7053PP      PP17157  14.208  12.924   0.345 -0.0389  0.0527 -0.0063
 7054PP      PP17158   3.085  14.428  10.702  0.1527  0.1536  0.0927
 7055PP      PP17159   9.589   5.398   3.737  0.1603  0.2504 -0.2129
 7056PP      PP17160   9.626   9.811   0.362 -0.0679  0.1673 -0.1334
 7057PP      PP17161   7.643  13.249  11.743  0.1721 -0.1753  0.0983
 7058PP      PP17162   4.030  14.140   1.042  0.1939  0.0718 -0.1088
 7059PP      PP17163  14.024   9.862  10.949  0.1893 -0.4014 -0.0843
 7060PP      PP17164   7.617   3.349   2.239 -0.4763 -0.0400  0.0761
 7061PP      PP17165   9.920  12.429   2.698 -0.1767 -0.2486  0.0321
 7062PP      PP17166   1.437   1.136   0.568  0.1581 -0.0759  0.1281
 7063PP      PP17167  12.047  12.859   1.801  0.0542 -0.2048  0.2426
 7064PP      PP17168  15.925   7.364  11.633  0.1275  0.0340  0.1125
 7065PP      PP17169  12.856   0.549   3.861 -0.0245  0.1469  0.2720
 7066PP      PP17170   5.666   1.537   2.365 -0.3472 -0.1407  0.3336
 7067PP      PP17171   8.821  14.131   2.370  0.0897 -0.3687 -0.1722
 7068PP      PP17172  11.239  10.601  10.658 -0.1557  0.1677  0.3619
 7069PP      PP17173  13.191   9.202  11.148 -0.0660  0.1001  0.1729
 7070PP      PP17174  14.461   2.114   2.765 -0.0226  0.2299 -0.1916
 7071PP      PP17175   1.238   4.027   9.478 -0.1613  0.0561  0.1293
 7072PP      PP17176  16.313  11.812   0.867 -0.0498  0.2948 -0.0835
 7073PP      PP17177   2.756   2.153   3.885  0.0097 -0.0185  0.2312
 7074PP      PP17178   7.897  10.307   9.338 -0.2402 -0.0100  0.0050
 7075PP      PP17179   3.434   5.408  11.458 -0.0093  0.1677  0.1427
 7076PP      PP17180   4.458   4.268   4.181  0.0462  0.1639  0.1889
 7077PP      PP17181   3.081  10.114  11.477 -0.1649 -0.0855 -0.1333
 7078PP      PP17182   3.960   9.742  12.042  0.0800 -0.0885 -0.1267
 7079PP      PP17183   2.206   7.025  11.272 -0.1327  0.0548  0.0012
 7080PP      PP17184  13.822  10.529   8.207 -0.1450  0.1149  0.1677
 7081PP      PP17185  10.868  11.362   8.507 -0.1626 -0.1810  0.1348
 7082PP      PP17186   5.334   7.297  11.649  0.2865 -0.1282  0.2299
 7083PP      PP17187  13.550   4.939   7.812  0.0401 -0.2273 -0.1443
 7084PP      PP17188   4.973  10.996   1.392  0.1092 -0.0147 -0.0652
 7085PP      PP17189   7.104   3.071   2.454 -0.0742 -0.0737 -0.1718
 7086PP      PP17190  11.501  13.381   9.011 -0.1423 -0.1219 -0.0788
 7087PP      PP17191   1.097   7.725   2.481  0.1484  0.0318  0.5161
 7088PP      PP17192  14.539   5.726  11.844  0.0168  0.1165 -0.0516
 7089PP      PP17193  12.449   8.256  12.708 -0.0171  0.1369  0.3783
 7090PP      PP17194   7.225  16.152   0.552 -0.4112  0.0485  0.0493
 7091PP      PP17195   1.495   3.348   1.928 -0.0812  0.0572 -0.1846
 7092PP      PP17196  15.761   1.979   2.245 -0.1590  0.0210  0.0385
 7093PP      PP17197   3.259   8.933   8.451 -0.0161 -0.0102 -0.1066
 7094PP      PP17198   5.504   5.404  11.349  0.2842  0.1523 -0.0141
 7095PP      PP17199  14.141  16.211   9.583 -0.0180 -0.0383 -0.4392
 7096PP      PP17200   3.151   5.855  11.606 -0.1602  0.1171  0.0287
 7097PP      PP17201  16.296   9.924   0.024  0.2077 -0.0692  0.0072
 7098PP      PP17202  11.968   6.922   9.498 -0.0559 -0.0893  0.0719
 7099PP      PP17203   8.672   9.413   0.061 -0.0332  0.0331  0.1665
 7100PP      PP17204   1.269   7.028   1.109 -0.3264  0.0719  0.3416
 7101PP      PP17205   4.331   4.008  10.213  0.0688 -0.2979  0.0457
 7102PP      PP17206  15.809  11.582   0.879 -0.2297  0.2613 -0.0407
 7103PP      PP17207   0.844  13.906  11.752  0.2389  0.3043  0.0869
 7104PP      PP17208   9.402  13.646   0.861  0.2063  0.0086 -0.0707
 7105PP      PP17209  10.846   0.996   3.637 -0.0120  0.2474 -0.0139
 7106PP      PP17210   8.412   3.264   4.385 -0.0084  0.0635  0.0358
 7107PP      PP17211   6.169  10.612  11.475 -0.1845 -0.1064 -0.3789
 7108PP      PP17212  12.997   4.851   8.870  0.0323 -0.0436 -0.1544
 7109PP      PP17213  10.045  16.160  12.634  0.0473  0.0693  0.1749
 7110PP      PP17214  16.078  10.969   8.478 -0.0143  0.1536 -0.1298
 7111PP      PP17215  12.725  12.935  12.103 -0.0370  0.1543  0.2779
 7112PP      PP17216  16.111   8.981   3.595  0.1467  0.0394 -0.2331
 7113PP      PP17217   1.934   1.002   4.040 -0.1380 -0.0207  0.0404
 7114PP      PP17218  11.147   5.152   2.371  0.1164 -0.0620 -0.1021
 7115PP      PP17219   4.249   3.303  12.052 -0.2611 -0.0953  0.1393
 7116PP      PP17220   2.888   9.219   1.523  0.0322  0.0326  0.1315
 7117PP      PP17221   4.538  12.747  11.971 -0.0088  0.1297 -0.0291
 7118PP      PP17222  10.432  10.072  12.278  0.0278  0.0585 -0.1151
 7119PP      PP17223   6.676  12.608   0.517  0.0579 -0.0011 -0.2080
 7120PP      PP17224   2.611   5.384  10.256  0.4190  0.1546  0.0731
 7121PP      PP17225  12.738  14.681  12.169 -0.1751  0.0956 -0.2036
 7122PP      PP17226   8.805   0.428  12.387  0.1033  0.1633  0.4516
 7123PP      PP17227   4.781  15.297  10.112 -0.1955 -0.4071 -0.1177
 7124PP      PP17228  13.063  11.243   2.254  0.1988 -0.0379  0.0416
 7125PP      PP17229   2.299  14.827  11.090 -0.1888 -0.0348 -0.4490
 7126PP      PP17230  15.610  16.282   1.608  0.0149  0.0565 -0.1221
 7127PP      PP17231  12.807   4.645   0.092 -0.1342 -0.0074  0.1420
 7128PP      PP17232   0.761   0.061   0.921 -0.0120  0.2803 -0.1101
 7129PP      PP17233  12.076  10.312  12.173 -0.0675  0.2251  0.1849
 7130PP      PP17234  10.468  16.093   3.769  0.2907  0.0141  0.1158
 7131PP      PP17235  11.001  14.357   2.389 -0.3572  0.4149 -0.0737
 7132PP      PP17236   6.975   6.458   0.214 -0.1905  0.3927  0.1194
 7133PP      PP17237   6.732   1.110   2.559 -0.2603  0.0429  0.0682
 7134PP      PP17238   1.304  10.270   9.035  0.0103 -0.0454 -0.0646
 7135PP      PP17239   6.396  14.728  10.585 -0.2011  0.0573 -0.1259
 7136PP      PP17240   3.520   1.130   8.649  0.1420 -0.3092 -0.0409
 7137PP      PP17241   3.640   2.826   0.943  0.1094 -0.2042  0.0666
 7138PP      PP17242  15.754   3.342   3.230  0.1489 -0.2745 -0.0258
 7139PP      PP17243   6.714   8.195  10.199  0.3162 -0.0651 -0.0177
 7140PP      PP17244   0.263  13.671   0.871  0.1717 -0.0878  0.2797
 7141PP      PP17245   4.875   9.488  12.167  0.0046 -0.0397 -0.1053
 7142PP      PP17246   4.599   4.442   3.725 -0.0692  0.0462  0.0001
 7143PP      PP17247   7.801   5.962   8.878 -0.1112 -0.2393  0.3576
 7144PP      PP17248   6.893   3.465  12.158 -0.0360 -0.0140  0.2847
 7145PP      PP17249  12.098   6.731   8.345  0.1342 -0.0415  0.0403
 7146PP      PP17250   4.539   5.996   0.309  0.4151  0.0625  0.0565
 7147PP      PP17251   1.831  15.803  10.925 -0.1508 -0.0304 -0.0716
 7148PP      PP17252  11.993  13.362   3.647  0.0888  0.2008  0.2348
 7149PP      PP17253  15.614   9.891   3.919 -0.1700 -0.0764  0.2903
 7150PP      PP17254   5.481  13.082   8.797 -0.0683  0.0726 -0.1133
 7151PP      PP17255   6.216   4.852   4.181  0.0929  0.1323 -0.3386
 7152PP      PP17256   1.811   4.642  12.112  0.0626  0.0482  0.0269
 7153PP      PP17257   9.238  11.956   0.964 -0.1049 -0.3387  0.0356
 7154PP      PP17258   3.511   5.367   9.369 -0.0876 -0.3795  0.0829
 7155PP      PP17259  12.055  11.963   4.138  0.0479  0.0256 -0.3418
 7156PP      PP17260   5.460   8.567  10.686  0.3085 -0.0386 -0.1714
 7157PP      PP17261  12.581   1.597   7.873 -0.0750  0.1034  0.3388
 7158PP      PP17262  11.429  12.100   0.800  0.2023  0.2172 -0.3369
 7159PP      PP17263  11.224  11.381   3.737 -0.3360  0.2868  0.1618
 7160PP      PP17264  10.167   0.886   9.674 -0.1830  0.1111  0.3454
 7161PP      PP17265   1.936   2.068   8.981 -0.2226  0.1566 -0.2663
 7162PP      PP17266  12.208   5.750  10.976 -0.4238 -0.0465  0.1130
 7163PP      PP17267  10.813   1.606  11.029 -0.1972  0.1726 -0.1800
 7164PP      PP17268   6.358  10.268  11.196 -0.0342 -0.0085 -0.1538
 7165PP      PP17269   9.943   9.519  12.449 -0.1704  0.0301  0.2086
 7166PP      PP17270   2.795  10.949  10.980 -0.0355 -0.3586  0.2004
 7167PP      PP17271   4.500   5.055  11.072  0.1426 -0.4410  0.2297
 7168PP      PP17272   8.768   9.171  10.561 -0.0023  0.1847  0.0068
 7169PP      PP17273   5.715   6.249  12.594  0.1395  0.2022 -0.2481
 7170PP      PP17274   0.530   8.471   1.132  0.0870 -0.1476 -0.5577
 7171PP      PP17275   3.063   8.954   1.908  0.0750 -0.0576 -0.0989
 7172PP      PP17276  11.015  11.856  11.145 -0.1662  0.2607 -0.0494
 7173PP      PP17277  12.372  11.271   4.565 -0.1616  0.1878  0.1095
 7174PP      PP17278   5.523  10.294   3.686  0.0419  0.3677  0.0423
 7175PP      PP17279  16.019  13.650   4.689 -0.0357  0.1313  0.2411
 7176PP      PP17280   2.400   3.830   1.073  0.2657  0.1958  0.0400
 7177PP      PP17281  15.094  13.562  11.531  0.0320  0.0197  0.0540
 7178PP      PP17282   3.583   3.851  10.332 -0.0067  0.0870 -0.2053
 7179PP      PP17283   4.981   9.616   2.711 -0.2463 -0.2162  0.0525
 7180PP      PP17284   4.078   9.778   3.073 -0.0466 -0.1939  0.0683
 7181PP      PP17285   7.887  15.061   2.458  0.1095  0.0001  0.1114
 7182PP      PP17286   4.333  11.355   1.978 -0.0832 -0.0277  0.2954
 7183PP      PP17287   4.433   1.450  11.019 -0.1019 -0.1152  0.1320
 7184PP      PP17288   8.929   9.090   0.438 -0.1853  0.3811 -0.1140
 7185PP      PP17289  13.173   5.167  10.111 -0.0119  0.0275 -0.0810
 7186PP      PP17290   6.373  15.304  11.345 -0.1209  0.1939 -0.0975
 7187PP      PP17291  13.808  11.041   1.989 -0.3663 -0.1317  0.3476
 7188PP      PP17292   0.252   2.574   3.753  0.1630 -0.0835  0.2150
 7189PP      PP17293   1.172  16.010   2.673 -0.0494 -0.0960  0.4108
 7190PP      PP17294   8.180  10.415   1.476  0.1989 -0.2078 -0.4175
 7191PP      PP17295   1.642  13.466   1.648 -0.2556 -0.6151  0.0258
 7192PP      PP17296  10.769   5.817  10.829 -0.0938  0.0722  0.0631
 7193PP      PP17297   4.583  14.517   3.540 -0.0871  0.2496  0.0452
 7194PP      PP17298   2.985   4.132  11.126 -0.2569  0.0678 -0.0043
 7195PP      PP17299  11.545   5.971  11.414  0.2026  0.0348 -0.2920
 7196PP      PP17300  12.858   4.587  12.296 -0.0808 -0.4259  0.1732
 7197PP      PP17301   9.890  11.783  10.807 -0.0254  0.2429  0.2085
 7198PP      PP17302  12.788  11.595   8.484  0.1989 -0.3804  0.0858
 7199PP      PP17303  15.640   9.095   2.571  0.1175 -0.0530  0.0327
 7200PP      PP17304   7.990   8.931   0.102  0.1883  0.1016  0.1126
 7201PP      PP17305  12.962  15.887  10.269 -0.0291  0.1086 -0.2195
 7202PP      PP17306   2.924  13.966   2.128 -0.1248  0.2408  0.0141
 7203PP      PP17307   5.037   7.384   6.970  0.1938 -0.0224 -0.0607
 7204PP      PP17308  10.440   5.432   0.933  0.0348  0.1046  0.0203
 7205PP      PP17309  14.943   3.163   0.048  0.1420 -0.2416 -0.0011
 7206PP      PP17310   8.583  13.914   8.601 -0.2288  0.2744  0.1861
 7207PP      PP17311   4.147   4.452  10.440  0.2350 -0.1934 -0.0179
 7208PP      PP17312   3.962   1.705   4.206  0.1827  0.0707 -0.0906
 7209PP      PP17313   1.204  13.738  10.317 -0.0965  0.1781 -0.0710
 7210PP      PP17314   1.858  11.187   9.088 -0.1891 -0.2090 -0.0409
 7211PP      PP17315   1.130  14.592   9.138  0.2530  0.0432 -0.0171
 7212PP      PP17316   7.387  15.892  10.877  0.1592  0.0157  0.0328
 7213PP      PP17317   0.513  16.033   2.581 -0.0411  0.2925 -0.1251
 7214PP      PP17318   2.425  14.567   3.936 -0.2613  0.1222  0.3109
 7215PP      PP17319   6.215   2.580   9.876 -0.0441  0.0778 -0.1240
 7216PP      PP17320  10.736  11.709  12.098  0.2035  0.1012  0.0830
 7217PP      PP17321   3.452   0.082   3.001 -0.2704  0.1523 -0.0787
 7218PP      PP17322   1.579   2.938  10.260 -0.0370 -0.1289 -0.0555
 7219PP      PP17323   6.259   6.278   9.210  0.0093 -0.0982  0.0495
 7220PP      PP17324   8.005   5.130  10.704 -0.1848 -0.2848 -0.2059
 7221PP      PP17325  15.088   0.112  11.496  0.0353  0.3149 -0.1855
 7222PP      PP17326   3.043   3.417   0.934  0.0856  0.2556  0.2295
 7223PP      PP17327   4.622   7.423   0.563 -0.0674 -0.0557  0.2545
 7224PP      PP17328   9.423   4.187  11.147 -0.1852 -0.0602 -0.1069
 7225PP      PP17329   7.222   4.880  10.141  0.1961  0.1244 -0.1510
 7226PP      PP17330   5.738   3.439   9.959  0.1183 -0.0141  0.1102
 7227PP      PP17331   1.163  13.672   3.607 -0.2927 -0.0531 -0.0842
 7228PP      PP17332   8.926  10.150   2.759  0.1485  0.0300  0.0869
 7229PP      PP17333   7.584   4.621   4.493 -0.1678 -0.0328 -0.0637
 7230PP      PP17334   6.143   8.937   3.658  0.1560  0.2956 -0.2313
 7231PP      PP17335  14.688  15.645   3.806 -0.3097  0.0983  0.0670
 7232PP      PP17336  13.705  14.137   4.121 -0.0753 -0.0518 -0.3362
 7233PP      PP17337   7.596   8.779  11.995 -0.1392 -0.2362 -0.1179
 7234PP      PP17338  10.190  15.809   9.938  0.2341 -0.0177  0.0111
 7235PP      PP17339   5.134  14.768   0.583 -0.0049 -0.2871  0.4063
 7236PP      PP17340   2.809  10.206  11.913 -0.1664  0.1488 -0.2053
 7237PP      PP17341   3.083   0.898  12.259 -0.2746 -0.0491 -0.0179
 7238PP      PP17342  12.116  11.520   3.387  0.1807  0.2296 -0.6952
 7239PP      PP17343   5.860  12.963   8.306  0.0757 -0.1586  0.1217
 7240PP      PP17344   3.390   2.548   0.040  0.0111  0.0849 -0.1998
 7241PP      PP17345  15.406  13.598   1.398 -0.2347  0.1251 -0.2631
 7242PP      PP17346   2.816  15.552  11.130 -0.2408 -0.1737 -0.0722
 7243PP      PP17347   3.850   8.032  11.384 -0.3323 -0.2069  0.0838
 7244PP      PP17348   5.355  15.965  11.245 -0.0026  0.3157 -0.0504
 7245PP      PP17349  14.782   5.423   3.601  0.0546  0.0168 -0.3735
 7246PP      PP17350  13.734   5.513   1.778  0.0096 -0.1113 -0.1898
 7247PP      PP17351  15.669   4.437  12.316 -0.0413  0.0403 -0.2615
 7248PP      PP17352  12.443   2.156  10.807  0.0369  0.2647  0.0960
 7249PP      PP17353   4.477  14.192   1.627 -0.2767  0.0027 -0.0340
 7250PP      PP17354  16.132  10.010   3.992  0.1759  0.1170  0.3654
 7251PP      PP17355  14.799  13.870   3.191 -0.1599  0.0137  0.1330
 7252PP      PP17356   1.530   8.417   1.529  0.0511 -0.3016 -0.0536
 7253PP      PP17357  12.181  15.383  12.450  0.0534  0.0951  0.0411
 7254PP      PP17358  11.045  10.495   8.752 -0.0719  0.0696 -0.2501
 7255PP      PP17359   7.499   3.259   8.638 -0.1045  0.3208 -0.0107
 7256PP      PP17360   8.427   8.818   3.197 -0.2453 -0.3719  0.0359
 7257PP      PP17361  16.350   7.335  12.386  0.1056 -0.0368 -0.1334
 7258PP      PP17362   8.464   8.762  10.535 -0.2139  0.1446 -0.1190
 7259PP      PP17363  10.964   7.570   1.588 -0.0810 -0.1140 -0.2459
 7260PP      PP17364   6.989  13.924   0.554  0.0182  0.1173 -0.0241
 7261PP      PP17365  11.337  15.529  10.981 -0.0990  0.0259  0.0535
 7262PP      PP17366  10.309  11.812   9.201 -0.1590 -0.0271  0.5783
 7263PP      PP17367   1.656  12.301   0.203 -0.0493 -0.1280 -0.2751
 7264PP      PP17368   6.168   2.826  11.146  0.1004 -0.2451  0.2671
 7265PP      PP17369   3.669   0.729   9.887 -0.3521  0.0181  0.2020
 7266PP      PP17370  12.642  11.570  10.574  0.0990  0.1260  0.2594
 7267PP      PP17371  12.466   4.167   3.561 -0.0831  0.0316  0.2016
 7268PP      PP17372   1.271  15.128   1.168 -0.0708  0.4164  0.2283
 7269PP      PP17373  12.611   5.039  11.460  0.0977  0.1149 -0.0189
 7270PP      PP17374   8.628   4.795  12.513  0.0148  0.3121 -0.0830
 7271PP      PP17375   2.806   3.831  12.341  0.0946  0.1552 -0.0475
 7272PP      PP17376  13.628   8.946   1.352  0.1697 -0.0760 -0.0472
 7273PP      PP17377  15.435  12.600  10.081 -0.1790  0.1329 -0.2758
 7274PP      PP17378  10.921   4.638  10.221 -0.4168  0.0801 -0.1243
 7275PP      PP17379  13.623   5.280  11.527  0.0186 -0.0522  0.0906
 7276PP      PP17380   7.936  10.554  11.769  0.3109 -0.3321 -0.0788
 7277PP      PP17381   6.668   5.717  10.958 -0.1359  0.0491  0.1040
 7278PP      PP17382  14.260   4.438   3.320  0.1727 -0.1681 -0.2024
 7279PP      PP17383   1.856  12.751  12.491 -0.0327 -0.2689  0.2037
 7280PP      PP17384  15.653   1.921   0.193  0.1916 -0.2317 -0.0427
 7281PP      PP17385  14.511   8.584  10.457  0.2287  0.3880  0.1443
 7282PP      PP17386  11.041   4.816   3.554 -0.2600  0.1623  0.1131
 7283PP      PP17387   1.140   9.488   4.036 -0.1051  0.1372 -0.3167
 7284PP      PP17388   9.942  10.730   2.301 -0.0120 -0.1028 -0.0938
 7285PP      PP17389   6.027  14.465  12.324 -0.1610 -0.0286 -0.0015
 7286PP      PP17390  13.289   1.001  12.619  0.1971  0.1520 -0.1341
 7287PP      PP17391   8.931  11.266   3.133  0.2530  0.0146 -0.0757
 7288PP      PP17392   5.513  11.176  10.770 -0.0625  0.1231 -0.1352
 7289PP      PP17393  15.247  14.912  11.775 -0.1473 -0.5997 -0.1669
 7290PP      PP17394  15.715  12.473   0.539 -0.0882 -0.2005 -0.1362
 7291PP      PP17395  16.074  15.010  11.359  0.0194 -0.1979 -0.2097
 7292PP      PP17396  15.545   3.762  12.319 -0.0196 -0.3145 -0.1897
 7293PP      PP17397   2.477   5.471   3.443 -0.3505 -0.2029  0.2277
 7294PP      PP17398   1.602   1.156   4.624  0.0206  0.1879  0.2476
 7295PP      PP17399  14.232  16.211   2.036 -0.0806  0.2564 -0.1594
 7296PP      PP17400   6.288   9.706   8.439 -0.0164  0.2493  0.1576
 7297PP      PP17401  12.197   0.939   2.011  0.2736 -0.3046  0.1828
 7298PP      PP17402   8.832   7.325  11.685  0.0006 -0.0248 -0.0650
 7299PP      PP17403   5.631   3.985  12.164 -0.0212 -0.2224  0.1463
 7300PP      PP17404   4.068   7.309   2.532  0.0932 -0.0089 -0.0331
 7301PP      PP17405   1.435   0.562   3.512 -0.2308  0.3178  0.1204
 7302PP      PP17406   3.565   3.099   1.458  0.0517  0.0240 -0.3337
 7303PP      PP17407   2.466   9.397   0.450  0.0986 -0.1658 -0.2584
 7304PP      PP17408   9.543   7.295   3.863  0.1404  0.0233  0.1889
 7305PP      PP17409  12.004   2.243   3.708 -0.0351  0.1213 -0.2798
 7306PP      PP17410   7.980   8.137  10.366 -0.0608  0.1889  0.0574
 7307PP      PP17411  10.322   2.666  11.824  0.0443 -0.2558 -0.0278
 7308PP      PP17412   9.263   5.128   2.475  0.1284 -0.1436  0.0526
 7309PP      PP17413   4.018  14.877   8.159  0.0343  0.1295  0.1444
 7310PP      PP17414   2.015   2.084   3.558 -0.0839 -0.2969 -0.2930
 7311PP      PP17415   2.091   7.980  10.327  0.0050 -0.0198  0.3795
 7312PP      PP17416  11.674  13.620  10.347 -0.1016  0.2620  0.0452
 7313PP      PP17417   5.017   1.633   8.908  0.1480 -0.0958 -0.0548
 7314PP      PP17418   4.006  16.052   8.901  0.0574  0.0140 -0.1232
 7315PP      PP17419   2.959   5.230   2.153 -0.0043 -0.1974  0.1008
 7316PP      PP17420   6.214   7.872   1.129  0.2739 -0.1026  0.3135
 7317PP      PP17421   8.439  10.211   1.997 -0.1089  0.3980  0.1590
 7318PP      PP17422   7.802   3.984   2.401  0.2279  0.1641 -0.2615
 7319PP      PP17423  11.228  15.817  11.563  0.1444 -0.1532 -0.1521
 7320PP      PP17424   2.103  13.830   2.352  0.1999  0.1367  0.0495
 7321PP      PP17425   5.698   6.211   0.780  0.0393 -0.0498  0.1157
 7322PP      PP17426   5.096  11.790   8.848 -0.1028 -0.1421 -0.0586
 7323PP      PP17427  12.079   3.059   8.267  0.1608 -0.3311  0.1839
 7324PP      PP17428  10.559  15.355   9.811 -0.0068 -0.1153 -0.0124
 7325PP      PP17429  10.867   7.738  11.105 -0.2433 -0.2613 -0.1589
 7326PP      PP17430   1.840   9.728   1.297  0.1477 -0.4403 -0.1103
 7327PP      PP17431  10.000   2.964  11.365  0.1181 -0.2571 -0.1594
 7328PP      PP17432   9.718  10.096   9.165 -0.1949 -0.2146  0.2108
 7329PP      PP17433   2.270  12.065  11.785 -0.3571  0.0994 -0.0757
 7330PP      PP17434  12.448   9.484   2.869  0.2133  0.1490  0.1535
 7331PP      PP17435   6.292   3.273   4.030  0.1162  0.1488  0.2112
 7332PP      PP17436  10.928  12.662  11.139  0.0685 -0.0955 -0.0676
 7333PP      PP17437   2.620   0.858   4.221 -0.1461  0.0882 -0.1205
 7334PP      PP17438  16.007   0.400  12.286  0.0219 -0.2880  0.2167
 7335PP      PP17439   3.261  11.579   0.892 -0.1279 -0.1348  0.1532
 7336PP      PP17440  11.229   4.803   2.750 -0.1290 -0.1321  0.0303
 7337PP      PP17441   4.131   2.679   2.430  0.1891  0.3965  0.3657
 7338PP      PP17442  15.937   8.239  10.966  0.3266  0.0778 -0.3043
 7339PP      PP17443   7.902  13.588   0.471 -0.0139  0.2014  0.1315
 7340PP      PP17444   6.998  12.536   9.736  0.2523 -0.0126 -0.0153
 7341PP      PP17445   0.773  11.099   8.322 -0.1106 -0.1766  0.1912
 7342PP      PP17446   6.925   9.547  10.209 -0.0948 -0.0232  0.1778
 7343PP      PP17447  13.318   8.119   1.268  0.0223  0.0486 -0.0996
 7344PP      PP17448   0.648  12.937   1.225 -0.2063 -0.2964 -0.0569
 7345PP      PP17449  11.291  14.277   9.279 -0.0300 -0.0190  0.1445
 7346PP      PP17450  12.523   7.418   0.745  0.0263 -0.1723 -0.0307
 7347PP      PP17451  10.505   6.407   0.040  0.0559 -0.0359 -0.0229
 7348PP      PP17452   2.455  11.887   0.579 -0.1000  0.0912 -0.0304
 7349PP      PP17453  15.256  11.422  12.734 -0.2656  0.0329  0.1839
 7350PP      PP17454  16.144  14.697   4.430  0.2556  0.1463  0.1533
 7351PP      PP17455   9.760   9.939   9.636 -0.4068 -0.2588 -0.1240
 7352PP      PP17456  11.333  13.292  10.662 -0.0240  0.2770  0.3279
 7353PP      PP17457   3.784  11.475  10.180  0.2744 -0.1860  0.4008
 7354PP      PP17458  13.697  11.292   3.846  0.0734  0.3012  0.2288
 7355PP      PP17459   4.422   7.018   2.774  0.3622 -0.1619 -0.1855
 7356PP      PP17460   5.208   5.151  10.165 -0.0189 -0.2430 -0.2025
 7357PP      PP17461  11.587  12.088   3.766  0.0049  0.1484  0.0887
 7358PP      PP17462   5.616   7.893   8.233 -0.0411 -0.1274  0.1851
 7359PP      PP17463   6.545  11.793   0.534  0.0420  0.0001 -0.2879
 7360PP      PP17464   3.380   7.268   8.956 -0.0812 -0.2754  0.0808
 7361PP      PP17465   8.344   2.011   1.717  0.0557  0.1733 -0.4055
 7362PP      PP17466  10.087   3.242   3.494  0.2755 -0.0550  0.2256
 7363PP      PP17467  15.220   3.465   0.352 -0.0172  0.3063 -0.2357
 7364PP      PP17468   5.885  12.735  11.944  0.2266 -0.3167  0.2570
 7365PP      PP17469  15.105  12.025   9.989  0.0248  0.0428 -0.0046
 7366PP      PP17470   9.415  10.012   2.756  0.2528 -0.1481  0.3707
 7367PP      PP17471   1.199   6.375  12.143 -0.2288 -0.0556 -0.1403
 7368PP      PP17472   4.322   1.503   1.635  0.0058 -0.0505  0.1852
 7369PP      PP17473   0.025   0.252   2.038 -0.0076 -0.0668  0.2878
 7370PP      PP17474  16.124  10.015  10.873  0.2531  0.0618  0.0000
 7371PP      PP17475   6.535   4.670   1.686 -0.0582  0.1252  0.2044
 7372PP      PP17476  12.687   1.648   3.332 -0.3095 -0.1026  0.2800
 7373PP      PP17477  10.495   2.769   0.017 -0.2089 -0.1039  0.1536
 7374PP      PP17478   3.551  15.653  12.448 -0.0626  0.1553 -0.2294
 7375PP      PP17479   5.578   4.964  10.524 -0.0738  0.1092  0.0500
 7376PP      PP17480   3.408   6.151   3.831  0.0408  0.0088 -0.2656
 7377PP      PP17481   0.664  11.584   0.575  0.4572  0.0407 -0.1624
 7378PP      PP17482  15.497   0.399  10.446  0.0240  0.3512  0.2071
 7379PP      PP17483  13.210  15.678  12.388 -0.1748 -0.1853  0.0432
 7380PP      PP17484  10.084  14.062  11.468 -0.1272 -0.1091 -0.0463
 7381PP      PP17485  10.724   6.653  12.108  0.2102  0.0255 -0.2201
 7382PP      PP17486   8.281  12.479   9.722  0.0059  0.0557  0.1843
 7383PP      PP17487  10.987   5.023   1.413  0.1028  0.0753 -0.0460
 7384PP      PP17488  14.249  11.329   3.804 -0.1216 -0.0908  0.0339
 7385PP      PP17489  13.006   0.153  12.457 -0.1579 -0.0729 -0.1146
 7386PP      PP17490  12.923   9.662  12.465 -0.0393 -0.1519  0.2846
 7387PP      PP17491  13.792   1.098  10.040  0.1174 -0.0549  0.0693
 7388PP      PP17492   1.107   3.637   1.690  0.3712  0.0567 -0.3858
 7389PP      PP17493  12.931   4.451  10.476  0.1818  0.0497 -0.0761
 7390PP      PP17494   4.767   6.573  10.330 -0.1694 -0.1447 -0.0972
 7391PP      PP17495   0.122  10.575  12.649  0.2075 -0.3135  0.1225
 7392PP      PP17496  10.279  11.791  11.974  0.4225 -0.1860  0.0484
 7393PP      PP17497   1.867   7.980   1.037  0.0906 -0.1179 -0.3639
 7394PP      PP17498   1.057   8.954  12.438  0.0994 -0.0223  0.1227
 7395PP      PP17499   4.330   3.937   2.179  0.0496 -0.1532  0.1836
 7396PP      PP17500   7.198   1.265   1.381 -0.0572 -0.3738 -0.1806
 7397PP      PP17501  13.904  13.274   0.689  0.0290 -0.0167 -0.1097
 7398PP      PP17502  14.671   0.823  11.540  0.2226  0.1790  0.3382
 7399PP      PP17503  15.798  12.096   2.993  0.0328 -0.0955 -0.2468
 7400PP      PP17504   7.617  11.320   0.367 -0.0329 -0.3112 -0.3999
 7401PP      PP17505   8.080  11.208   4.619  0.2066 -0.3490  0.0805
 7402PP      PP17506   4.791  11.434   1.183 -0.1929 -0.1293  0.3601
 7403PP      PP17507   5.589   9.901  10.106  0.1477 -0.0564 -0.0827
 7404PP      PP17508   3.292  15.455   3.218  0.2537 -0.0218  0.1147
 7405PP      PP17509   1.506  13.065   0.780  0.0132 -0.1120  0.0432
 7406PP      PP17510   1.592   1.071   0.106  0.5711  0.0429  0.0711
 7407PP      PP17511  12.389  10.540   9.649 -0.1347  0.0801 -0.1449
 7408PP      PP17512   1.445  11.538  10.984  0.1890 -0.0265  0.1194
 7409PP      PP17513   5.179  12.073  10.819  0.0294 -0.0622  0.0012
 7410PP      PP17514   5.000  13.184   1.119  0.1082 -0.3307 -0.1992
 7411PP      PP17515   3.004   5.175   2.704 -0.0522  0.2881 -0.2430
 7412PP      PP17516  13.144   6.924   3.578  0.0572 -0.0667 -0.1770
 7413PP      PP17517  12.230  11.631  10.276  0.2124 -0.1936  0.0657
 7414PP      PP17518  14.039   5.865  10.291  0.2280 -0.1773 -0.2190
 7415PP      PP17519  11.976   7.678   8.232 -0.2160  0.3426 -0.1200
 7416PP      PP17520   6.705   1.288   3.770  0.0606  0.1087  0.1215
 7417PP      PP17521   9.491  16.083  11.613 -0.0466  0.2196  0.0349
 7418PP      PP17522   3.083   9.680   2.932 -0.0589 -0.0109 -0.3365
 7419PP      PP17523  15.993   6.469   1.966  0.1086  0.0983  0.0036
 7420PP      PP17524   6.011   0.647   4.534  0.2170 -0.0870 -0.1735
 7421PP      PP17525  11.995   2.892   1.169 -0.2794  0.1714  0.1505
 7422PP      PP17526  10.450  13.802   3.646 -0.2723 -0.0378  0.3089
 7423PP      PP17527   5.386   5.477   1.501  0.1765  0.1442  0.1430
 7424PP      PP17528   6.049   3.068  10.113 -0.0626 -0.1144 -0.3870
 7425PP      PP17529   3.775   4.203   2.018 -0.0227 -0.0214 -0.0420
 7426PP      PP17530   3.969  14.449   2.766 -0.2454 -0.1171  0.0246
 7427PP      PP17531   1.524  15.248  11.735 -0.0835 -0.0607  0.0493
 7428PP      PP17532  12.320  15.341   1.717  0.0200 -0.0573 -0.3138
 7429PP      PP17533   1.835   7.509   1.688  0.3535 -0.0581 -0.2630
 7430PP      PP17534   0.685  12.478   1.438  0.0356  0.0914 -0.0846
 7431PP      PP17535   2.039  16.339   1.464  0.2131 -0.1453 -0.2941
 7432PP      PP17536  15.720   0.626  10.884  0.1180 -0.2157 -0.0750
 7433PP      PP17537   7.235   6.504   8.153  0.0774 -0.2072 -0.0585
 7434PP      PP17538   4.165  13.496   2.553  0.1434 -0.0429 -0.2644
 7435PP      PP17539   7.658   5.252   9.208 -0.2288 -0.1227  0.2376
 7436PP      PP17540   7.909  10.572   1.864 -0.0517 -0.1998 -0.1899
 7437PP      PP17541  12.939  10.902   1.913  0.3440 -0.0707 -0.1063
 7438PP      PP17542   4.377  15.744   9.744 -0.1705  0.1300  0.1408
 7439PP      PP17543   1.920  13.023  11.075 -0.0021 -0.1767 -0.0350
 7440PP      PP17544  15.859  12.163   0.986  0.0183 -0.2082 -0.2467
 7441PP      PP17545  12.951  15.935   1.630  0.0357 -0.2858  0.0588
 7442PP      PP17546   0.715  12.177   2.927 -0.1656  0.2096  0.0910
 7443PP      PP17547   7.130   8.923  11.653 -0.5153  0.0333 -0.0968
 7444PP      PP17548   1.422  15.198  10.027  0.0528  0.2093  0.1447
 7445PP      PP17549   0.028  10.255   0.409 -0.0769 -0.0198 -0.2201
 7446PP      PP17550   7.997   7.083   1.445  0.1618 -0.0063  0.0057
 7447PP      PP17551   5.581   6.193  10.533  0.3932  0.2437 -0.3307
 7448PP      PP17552   5.751   5.961  11.752 -0.1413  0.0282  0.2453
 7449PP      PP17553  13.813  10.918  11.076 -0.2183  0.3502  0.1183
 7450PP      PP17554   3.120   4.729  10.722 -0.4032  0.0895  0.0116
 7451PP      PP17555   2.722   0.154   1.520  0.0931  0.0581 -0.0048
 7452PP      PP17556   8.973   7.088   0.423 -0.5523 -0.0665  0.4515
 7453PP      PP17557   0.392   3.515   9.568  0.1400 -0.0025 -0.1495
 7454PP      PP17558   9.899   1.238   0.631 -0.2291 -0.0724 -0.0352
 7455PP      PP17559  15.749   7.036  10.624  0.0131  0.2755  0.3392
 7456PP      PP17560   5.891   5.345  12.386  0.0599  0.0055  0.0122
 7457PP      PP17561   3.051   0.598   8.626  0.1052 -0.2259  0.0274
 7458PP      PP17562  15.564  12.317   1.442  0.0263  0.3581 -0.2403
 7459PP      PP17563   2.360   1.440   9.373 -0.1564  0.4019 -0.0016
 7460PP      PP17564  13.878  10.302   9.054 -0.0661 -0.2379  0.3590
 7461PP      PP17565  15.158  15.838   0.329 -0.2624  0.1790  0.2465
 7462PP      PP17566   9.905   1.816   2.078  0.2998  0.0355 -0.4929
 7463PP      PP17567   5.913  11.397  11.493 -0.0176  0.2266  0.1140
 7464PP      PP17568  13.605   4.503  10.951  0.0225  0.0887  0.0901
 7465PP      PP17569   3.630  10.921   0.791  0.0721 -0.1906  0.4933
 7466PP      PP17570   2.588   4.018  10.404  0.0958 -0.0527 -0.2858
 7467PP      PP17571   4.609  11.425   8.277 -0.0992  0.1295  0.0658
 7468PP      PP17572  12.170   9.685   9.430 -0.2938 -0.2283 -0.2575
 7469PP      PP17573   5.392   0.521   2.127  0.1153  0.0424  0.0493
 7470PP      PP17574   1.179   0.240   1.087  0.4843  0.2227  0.1025
 7471PP      PP17575   1.794   4.709  11.602 -0.1046  0.1014 -0.3153
 7472PP      PP17576   6.560   6.217   0.240 -0.0512  0.2779  0.2269
 7473PP      PP17577   0.750   8.155   9.628 -0.0309 -0.2418  0.1728
 7474PP      PP17578   1.765   8.913   0.878 -0.2748 -0.2139 -0.0708
 7475PP      PP17579   7.330   4.176  12.124 -0.0423 -0.1070  0.1567
 7476PP      PP17580  12.490   3.679   3.047  0.3248 -0.1411 -0.0056
 7477PP      PP17581  12.912   3.215   0.817  0.2449  0.1740 -0.2291
 7478PP      PP17582   4.868  15.847   2.789 -0.0288 -0.3295 -0.0339
 7479PP      PP17583   6.053   7.625   1.637 -0.1125  0.2659 -0.0785
 7480PP      PP17584   8.042  13.291   0.119  0.1833 -0.0755 -0.2271
 7481PP      PP17585   9.477   5.839   4.599 -0.1070  0.0827 -0.2202
 7482PP      PP17586  12.969  15.998   0.111 -0.1893  0.2186 -0.1617
 7483PP      PP17587   4.432  12.198   2.294  0.0531  0.1818 -0.3428
 7484PP      PP17588   3.809  16.172   9.877  0.1158 -0.2075  0.0389
 7485PP      PP17589   6.635  15.690  11.163 -0.0668 -0.0905 -0.0348
 7486PP      PP17590  14.371   6.806   1.392  0.1580  0.4139 -0.2804
 7487PP      PP17591  10.414   7.681   3.765  0.0513 -0.0082  0.2703
 7488PP      PP17592   8.805   9.221   8.173  0.0162  0.2295  0.0849
 7489PP      PP17593   7.488   4.651   9.717 -0.0171 -0.0843  0.2596
 7490PP      PP17594   0.994   6.718   7.439  0.2457  0.0883  0.0599
 7491PP      PP17595   2.490  14.672   8.553  0.1345 -0.1130 -0.1294
 7492PP      PP17596  12.668  10.229   3.287 -0.1163  0.2577  0.0005
 7493PP      PP17597  15.115   6.262   8.304 -0.1885  0.2371  0.2184
 7494PP      PP17598   8.579   3.901  10.230 -0.1899  0.0276  0.0476
 7495PP      PP17599   0.565  14.332   3.201  0.3580  0.1049  0.2260
 7496PP      PP17600   3.411  14.480   3.821  0.1738  0.0681  0.0678
 7497PP      PP17601  13.081   2.551   2.191 -0.2967  0.1291 -0.0699
 7498PP      PP17602  15.472   0.925   0.201  0.1278  0.0145  0.3530
 7499PP      PP17603   8.976   2.237  11.256 -0.0702 -0.1169  0.1885
 7500PP      PP17604   9.590  11.218   0.784 -0.1687 -0.0505 -0.3131
 7501PP      PP17605   9.233   7.347   1.838  0.1634 -0.0249  0.4843
 7502PP      PP17606   7.058  12.235   9.374  0.3209 -0.0363  0.1735
 7503PP      PP17607   1.582   1.407   1.374  0.0676 -0.0358 -0.0003
 7504PP      PP17608   7.548  11.759   0.767  0.1870  0.0107  0.0259
 7505PP      PP17609   6.820   3.194   0.664 -0.0196 -0.0184  0.2970
 7506PP      PP17610   3.386   6.033   2.282 -0.1617  0.1722  0.1989
 7507PP      PP17611   5.846   1.297   1.143 -0.2676 -0.0361  0.1248
 7508PP      PP17612  13.657   5.671  12.053  0.1740  0.2378  0.0210
 7509PP      PP17613   3.462   8.614   3.265  0.1622  0.0241 -0.2211
 7510PP      PP17614   3.351   3.274   8.584 -0.1896 -0.1582 -0.0978
 7511PP      PP17615  11.293  12.137   9.311 -0.1786  0.4331 -0.4381
 7512PP      PP17616  11.605  13.134   1.679  0.0780  0.0917  0.0810
 7513PP      PP17617   2.933   7.126   1.426 -0.2755  0.1630 -0.1425
 7514PP      PP17618   5.319   9.653   0.264 -0.1667 -0.2337  0.0638
 7515PP      PP17619  13.568  14.967  11.099  0.3084  0.2250  0.1545
 7516PP      PP17620   7.279   3.829   2.387  0.0330 -0.1807 -0.1612
 7517PP      PP17621   0.364   4.904  11.794  0.2082 -0.2019  0.0171
 7518PP      PP17622   1.654   3.040   3.468  0.0809  0.3532  0.0220
 7519PP      PP17623   3.101   0.483   9.890  0.0979 -0.0711 -0.2300
 7520PP      PP17624   8.563   9.531   9.579 -0.3463  0.0507 -0.1322
 7521PP      PP17625  11.146   5.598  10.505 -0.3239 -0.1525 -0.1969
 7522PP      PP17626  15.030   2.263   2.981  0.3787 -0.1884 -0.1220
 7523PP      PP17627   6.484   4.480   0.469 -0.0470  0.0957 -0.0194
 7524PP      PP17628   5.070   9.073  11.954 -0.1002 -0.0093 -0.3868
 7525PP      PP17629   3.530  13.107   8.038 -0.0940  0.0284 -0.2884
 7526PP      PP17630   7.496  11.886  10.893  0.2167  0.0520 -0.1209
 7527PP      PP17631   6.186   1.165  11.425  0.0001 -0.3250  0.0268
 7528PP      PP17632   7.604  11.982  12.576  0.1587  0.3083  0.1353
 7529PP      PP17633  14.322   5.399  10.413 -0.0700  0.0738  0.0011
 7530PP      PP17634  11.238  15.851   3.345 -0.0419 -0.2884  0.2408
 7531PP      PP17635  15.945  10.817   1.147  0.4901 -0.0061 -0.2276
 7532PP      PP17636  13.468  14.433   3.674 -0.1941  0.0014 -0.1459
 7533PP      PP17637  10.954  15.705   9.228 -0.2904  0.3355 -0.0590
 7534PP      PP17638  15.826   9.362   1.186 -0.1542  0.1202 -0.1403
 7535PP      PP17639   5.292   7.957   0.567  0.0383  0.0394 -0.0635
 7536PP      PP17640   2.156  12.705   2.582 -0.2047 -0.0300  0.2342
 7537PP      PP17641   4.018   2.497  11.473 -0.0124  0.1388 -0.0412
 7538PP      PP17642  15.895   3.107   9.532  0.0311 -0.0501 -0.1026
 7539PP      PP17643   6.069  16.324   1.207 -0.0451 -0.0515  0.2229
 7540PP      PP17644  13.415  14.609  10.318 -0.0353  0.0341  0.0857
 7541PP      PP17645   3.925   5.102  12.289 -0.1141  0.0388  0.2667
 7542PP      PP17646  10.999   1.116  11.936  0.0642 -0.0974  0.0646
 7543PP      PP17647   7.226  13.024   1.084 -0.1251 -0.0178  0.1067
 7544PP      PP17648   7.297   7.562  11.797 -0.0108 -0.1995 -0.0874
 7545PP      PP17649   2.901   6.874   9.675  0.1425  0.1455 -0.3709
 7546PP      PP17650   9.706   0.289  10.901 -0.0240 -0.2072 -0.0123
 7547PP      PP17651  13.270   7.913   9.513  0.0909  0.1370  0.0026
 7548PP      PP17652  10.039  13.958   1.779  0.2098 -0.0601 -0.1632
 7549PP      PP17653  10.116   1.196  10.948  0.3341  0.0183 -0.0116
 7550PP      PP17654  13.832   5.705   0.002  0.0782  0.1553 -0.1028
 7551PP      PP17655   4.572   2.053  11.783 -0.0332 -0.1722  0.1997
 7552PP      PP17656  14.227  12.305   9.601  0.0098  0.0168 -0.1780
 7553PP      PP17657   2.308   4.664  12.049 -0.0312  0.1813 -0.1453
 7554PP      PP17658   3.498   0.076   1.222 -0.1220 -0.1194  0.2186
 7555PP      PP17659   5.228   4.815   8.807 -0.0354 -0.0155 -0.0732
 7556PP      PP17660  14.729   3.207   3.912 -0.0397  0.0238 -0.0785
 7557PP      PP17661   8.641   7.131  10.313 -0.3224  0.0123  0.0242
 7558PP      PP17662   7.344   7.318   0.581 -0.2318 -0.0208 -0.1384
 7559PP      PP17663  15.037   1.033  12.601  0.1071  0.2449  0.0740
 7560PP      PP17664   4.217   4.918  11.482 -0.1120 -0.1403  0.3865
 7561PP      PP17665   1.684   5.147  10.899  0.0372 -0.1360 -0.1485
 7562PP      PP17666   9.715   0.940  12.474  0.1778 -0.3560  0.1824
 7563PP      PP17667  15.408   9.023   1.249 -0.2775 -0.3204  0.0746
 7564PP      PP17668   8.933   5.296   7.569  0.2245  0.0160  0.0109
 7565PP      PP17669   5.452  13.905   0.181  0.1520 -0.0955  0.0136
 7566PP      PP17670   2.671   9.873   8.899  0.0646 -0.3885  0.0900
 7567PP      PP17671  13.622   5.405  11.071 -0.1037 -0.2881  0.2034
 7568PP      PP17672  13.308   7.502   8.833  0.1876 -0.1550  0.0691
 7569PP      PP17673   2.162   2.598   8.379  0.0103 -0.0120 -0.0359
 7570PP      PP17674   7.287  13.652  11.653 -0.2169 -0.3733  0.1223
 7571PP      PP17675  12.221   4.412  11.274  0.0498 -0.0653 -0.0236
 7572PP      PP17676   4.616   5.091   0.217 -0.1003  0.2450 -0.0679
 7573PP      PP17677  13.953  12.693   8.890 -0.1559 -0.1388 -0.1787
 7574PP      PP17678   8.204   3.218  12.410  0.1714  0.0867 -0.1443
 7575PP      PP17679   0.979   6.647   3.438  0.0249  0.2114 -0.1426
 7576PP      PP17680   0.283   5.813  12.182  0.0064 -0.0981 -0.0637
 7577PP      PP17681   8.903   7.460   8.933 -0.2972  0.2908  0.1752
 7578PP      PP17682  15.626   8.911   3.257  0.1506 -0.1839 -0.1819
 7579PP      PP17683  14.969  14.823  10.756  0.1578  0.1560 -0.1705
 7580PP      PP17684  16.277   1.918   0.187  0.0979 -0.2071 -0.2293
 7581PP      PP17685   9.087  11.947   1.411 -0.0215  0.1243  0.3454
 7582PP      PP17686   4.305  11.743  10.460  0.0352  0.3823 -0.0342
 7583PP      PP17687  15.412   4.133  11.988 -0.0827 -0.0055  0.3713
 7584PP      PP17688   8.728  13.696   3.182  0.1599  0.1225  0.4132
 7585PP      PP17689   0.833   8.497   3.129  0.1594  0.0764 -0.1671
 7586PP      PP17690   1.233   2.365  10.950  0.0922  0.2692  0.0612
 7587PP      PP17691  14.075  13.183   3.174  0.0877 -0.2971  0.2385
 7588PP      PP17692  11.792  13.164   2.586 -0.1663 -0.1416 -0.0715
 7589PP      PP17693   3.715   6.716   3.315  0.1525 -0.0742 -0.2574
 7590PP      PP17694   6.354   1.477   3.416 -0.0775 -0.1465 -0.2606
 7591PP      PP17695   1.287   1.495   1.799  0.0211  0.2730  0.0974
 7592PP      PP17696   6.116   2.626   0.429  0.0691  0.1743 -0.2214
 7593PP      PP17697  10.743  15.548   2.250  0.0529  0.2793  0.1643
 7594PP      PP17698  11.226  10.417   0.882  0.1139  0.3175 -0.1631
 7595PP      PP17699   5.218   5.783   0.687  0.4185 -0.3261  0.1891
 7596PP      PP17700   2.529  15.033   0.399  0.2730 -0.2780 -0.2121
 7597PP      PP17701  14.980   9.703   0.579  0.0709  0.1895  0.2439
 7598PP      PP17702  14.278   0.634  12.297  0.1694  0.1766  0.0324
 7599PP      PP17703   2.071  11.530  10.968 -0.3186  0.0265 -0.2432
 7600PP      PP17704   2.504   2.736  11.450 -0.0339 -0.0638  0.0292
 7601PP      PP17705   8.182   3.705   0.677 -0.0872  0.3339  0.0389
 7602PP      PP17706   1.109   6.115   9.106 -0.2503 -0.0691  0.2402
 7603PP      PP17707   4.751   2.060  10.132 -0.0062 -0.2959  0.2348
 7604PP      PP17708  15.930   1.322  10.731  0.1044 -0.0084  0.2710
 7605PP      PP17709   3.459   6.133   9.900  0.0968  0.0823  0.0557
 7606PP      PP17710   5.974   7.963   9.742 -0.1707  0.0080  0.2860
 7607PP      PP17711   5.280   6.323   4.119  0.1512 -0.2695 -0.2400
 7608PP      PP17712  15.001  13.435   2.333  0.2493 -0.3721 -0.1028
 7609PP      PP17713   2.645  13.139  12.292 -0.0759 -0.0169 -0.3687
 7610PP      PP17714   8.526   7.464   3.805 -0.1626  0.1537  0.3150
 7611PP      PP17715   2.930  16.239  12.357 -0.2704  0.0346  0.0205
 7612PP      PP17716  12.045  13.474  11.412 -0.2418 -0.1921 -0.0739
 7613PP      PP17717  15.835   5.993   7.764 -0.0101 -0.1650  0.0888
 7614PP      PP17718   5.046   8.112   1.054 -0.0380 -0.2950  0.0722
 7615PP      PP17719   9.343  12.441   2.647  0.0722 -0.2734 -0.0624
 7616PP      PP17720   9.092  13.784   2.621  0.1163 -0.0258  0.2464
 7617PP      PP17721   4.068  15.245   3.175  0.2898 -0.0529  0.1854
 7618PP      PP17722  14.664  12.243   9.314 -0.2288 -0.2369  0.1365
 7619PP      PP17723   5.989  11.314  12.405 -0.2487 -0.3521  0.1535
 7620PP      PP17724  11.816   0.383  10.498 -0.3311 -0.1649 -0.0163
 7621PP      PP17725  10.584  10.061   2.656  0.3376  0.0434 -0.0527
 7622PP      PP17726  15.786   5.692   8.796  0.1008 -0.0816  0.2574
 7623PP      PP17727   4.312   8.711   8.303  0.2118 -0.2741  0.3323
 7624PP      PP17728  13.515  15.329   3.354 -0.0487 -0.1239  0.1152
 7625PP      PP17729   7.668   4.411   1.079  0.0641  0.0374  0.0373
 7626PP      PP17730   7.423   7.984   2.666  0.1854 -0.0311 -0.0056
 7627PP      PP17731  11.451   4.416   3.944 -0.3764 -0.1511  0.0681
 7628PP      PP17732   4.134  14.347  10.063  0.1647 -0.0488 -0.0457
 7629PP      PP17733   2.003   8.435  12.466  0.4695 -0.1071 -0.0828
 7630PP      PP17734   9.847   8.878   3.627  0.2371  0.3268  0.1087
 7631PP      PP17735  10.819   5.278  10.226 -0.0332  0.0355 -0.1176
 7632PP      PP17736   0.537   1.272  12.564 -0.1224 -0.2218 -0.0324
 7633PP      PP17737  11.802  14.641  10.995  0.1594  0.2495  0.1712
 7634PP      PP17738  14.163  14.748   0.975 -0.1048  0.1670  0.1767
 7635PP      PP17739   7.000  10.649   9.138  0.0932  0.0699  0.0519
 7636PP      PP17740   1.135   5.934   0.121  0.1613  0.0578 -0.0933
 7637PP      PP17741  14.151  13.429  10.702  0.0723  0.0271 -0.0652
 7638PP      PP17742  10.672   1.286   2.346  0.1528  0.2684  0.0490
 7639PP      PP17743   6.238   0.338  10.131 -0.2385  0.1660 -0.1304
 7640PP      PP17744   6.595  14.250   3.407  0.2114 -0.0141  0.2143
 7641PP      PP17745   7.942   1.629   2.768 -0.2529  0.0869 -0.0036
 7642PP      PP17746   8.276   3.873   3.705 -0.1641  0.1146  0.1351
 7643PP      PP17747  15.902   2.087   1.545  0.0524  0.5903 -0.0796
 7644PP      PP17748   4.444  16.254  11.220 -0.1575  0.0773 -0.0618
 7645PP      PP17749   0.560  12.922  11.081  0.2677 -0.0470 -0.2497
 7646PP      PP17750   9.748  13.561  12.589 -0.2668  0.4454  0.1667
 7647PP      PP17751  11.342   1.911  10.495 -0.3158  0.0624 -0.0772
 7648PP      PP17752   6.140   6.399   9.745 -0.3838  0.0962 -0.0068
 7649PP      PP17753  10.584  12.775  10.801  0.2073 -0.1638  0.5065
 7650PP      PP17754  12.228  10.186   0.332  0.2607 -0.0203  0.2501
 7651PP      PP17755   9.465  12.773   1.482 -0.0515  0.0095  0.1754
 7652PP      PP17756  12.464  14.790  12.706 -0.0528 -0.3234  0.1182
 7653PP      PP17757   5.788  10.003   8.937 -0.1553  0.1712  0.4051
 7654PP      PP17758  10.696  10.823   1.654  0.0177  0.1578  0.1007
 7655PP      PP17759  13.056   3.145  12.454  0.1049  0.2484 -0.1698
 7656PP      PP17760   1.600   4.799   8.868 -0.1366  0.2626 -0.1859
 7657PP      PP17761   5.838   0.591   4.075 -0.2340  0.0824 -0.0376
 7658PP      PP17762  15.572   3.385   1.985 -0.0616 -0.2724 -0.3104
 7659PP      PP17763   0.318   4.428   9.228 -0.2237  0.0237  0.1296
 7660PP      PP17764  10.847   3.724   0.866  0.0669  0.2849 -0.0678
 7661PP      PP17765   8.683  10.424   3.968  0.0519  0.0511  0.0562
 7662PP      PP17766  12.585   1.581   9.212  0.0793 -0.0418  0.1200
 7663PP      PP17767   1.165  14.208   2.080 -0.0499 -0.3076 -0.4976
 7664PP      PP17768  13.950   4.772   2.766 -0.1672 -0.0397 -0.1756
 7665PP      PP17769   5.694   3.157   1.990 -0.0905 -0.1348  0.3632
 7666PP      PP17770  14.076   1.439   8.764  0.0115 -0.1813  0.0987
 7667PP      PP17771   7.251   9.598  12.272 -0.1665  0.0759  0.0525
 7668PP      PP17772   7.517  11.006   4.887 -0.1209  0.0623  0.0951
 7669PP      PP17773   7.059   9.158   8.947  0.1577 -0.0974  0.0747
 7670PP      PP17774   1.463  15.767   9.232 -0.0826  0.2267 -0.2067
 7671PP      PP17775   7.715   6.843   8.830 -0.0564  0.0444 -0.4505
 7672PP      PP17776   6.623   2.660   2.462 -0.0237 -0.0049  0.0029
 7673PP      PP17777   3.438  13.903   2.007 -0.1293  0.0376  0.2806
 7674PP      PP17778  13.574   0.080   3.922  0.0444 -0.2030 -0.0369
 7675PP      PP17779  12.929  15.969   9.185  0.4283 -0.3106 -0.2054
 7676PP      PP17780   3.784  11.826   8.594 -0.0107  0.2067  0.0605
 7677PP      PP17781   1.124   3.520   4.164 -0.2819  0.3021  0.1425
 7678PP      PP17782   1.444   9.377  11.122 -0.0999  0.1449 -0.1336
 7679PP      PP17783  11.993   2.446  12.465 -0.0411  0.0606 -0.0863
 7680PP      PP17784   4.069   5.430   9.463  0.0414 -0.1561 -0.0015
 7681PP      PP17785  13.388  16.108  10.106  0.0999 -0.1608 -0.1092
 7682PP      PP17786   2.915   0.873   1.682 -0.0385 -0.0289 -0.3002
 7683PP      PP17787   6.062   1.688   9.744  0.1914 -0.1096  0.0659
 7684PP      PP17788   4.379   7.344  12.321  0.3177 -0.0691  0.0947
 7685PP      PP17789   7.011   8.132   0.925  0.4410 -0.0264 -0.2242
 7686PP      PP17790   8.468  15.243  10.027  0.0408  0.0255 -0.0412
 7687PP      PP17791   3.831   0.730   9.214  0.3756  0.2184  0.4587
 7688PP      PP17792  14.738   1.092  10.609 -0.1872 -0.0698  0.2311
 7689PP      PP17793   9.040   4.965  12.090 -0.0178  0.0001 -0.0704
 7690PP      PP17794  10.886  14.393   9.658  0.1372 -0.4122 -0.2530
 7691PP      PP17795   2.928  11.607   1.660  0.0640  0.0311  0.0045
 7692PP      PP17796   2.773   0.311   0.967 -0.2162 -0.0243  0.2286
 7693PP      PP17797   6.457   8.351   8.436 -0.0067  0.3010 -0.3355
 7694PP      PP17798  12.705  13.351  12.437 -0.1842  0.1741  0.0885
 7695PP      PP17799  16.263   7.080  11.900  0.3327  0.0214 -0.1896
 7696PP      PP17800  15.832   1.205   3.735  0.0454 -0.0008  0.2138
 7697PP      PP17801   8.493   3.141  10.929  0.1634  0.3803 -0.0559
 7698PP      PP17802   1.687  11.413   3.600 -0.3184  0.2852  0.2071
 7699PP      PP17803   8.952  12.973   1.548 -0.0761 -0.1563  0.2047
 7700PP      PP17804   7.576  14.351   2.702 -0.0945 -0.0215 -0.0998
 7701PP      PP17805  13.572   1.860   1.295  0.0175 -0.0061 -0.0531
 7702PP      PP17806   0.838  10.267  11.723 -0.2704  0.2437  0.2185
 7703PP      PP17807   8.637  11.763  11.530 -0.1533  0.0524 -0.0944
 7704PP      PP17808  12.629   3.768  12.295 -0.4517 -0.1213 -0.4458
 7705PP      PP17809  13.102   9.709  11.079 -0.1712  0.0506  0.2805
 7706PP      PP17810  13.867   6.882   3.155 -0.0433 -0.0875 -0.1346
 7707PP      PP17811   4.765   2.148   4.582  0.2167  0.0157 -0.0919
 7708PP      PP17812   5.225   1.281   1.591  0.1644 -0.2450  0.0749
 7709PP      PP17813  16.054  12.945  12.644 -0.0406 -0.0061 -0.0744
 7710PP      PP17814  12.658   8.212   2.948 -0.0867 -0.0105  0.4498
 7711PP      PP17815   3.426   1.138   4.896 -0.1277  0.1321  0.1006
 7712PP      PP17816   4.358  10.493   1.445  0.0334 -0.0680  0.0754
 7713PP      PP17817   5.750   8.821   8.658  0.1262  0.1919  0.4510
 7714PP      PP17818   1.487   8.643   9.978 -0.0295  0.0914 -0.0980
 7715PP      PP17819   1.501   4.434   0.168 -0.0567 -0.1332  0.0365
 7716PP      PP17820   3.033   7.051  11.669  0.2434  0.0098 -0.0806
 7717PP      PP17821   2.318   8.875  12.565  0.0397  0.1309 -0.1393
 7718PP      PP17822   4.914  15.552   1.764 -0.2262 -0.2588  0.2476
 7719PP      PP17823  11.176  12.425   2.355  0.3285  0.0614 -0.0428
 7720PP      PP17824   0.747  15.697   0.485  0.1625  0.0229  0.3941
 7721PP      PP17825  16.135  11.651   1.725 -0.1520  0.1579 -0.1317
 7722PP      PP17826  15.761   3.279   0.035 -0.0215  0.1363 -0.0873
 7723PP      PP17827  11.626   7.204   0.423  0.2594 -0.1123  0.0592
 7724PP      PP17828  14.094   3.344   1.576 -0.1771 -0.0465 -0.2280
 7725PP      PP17829  14.520  12.731   2.739  0.1404 -0.0351  0.2539
 7726PP      PP17830   8.924  14.434   0.918 -0.0300 -0.0188 -0.0609
 7727PP      PP17831   0.313  11.568   3.012  0.3875  0.1132  0.2219
 7728PP      PP17832   5.038  10.719   3.634 -0.2114  0.0776  0.2269
 7729PP      PP17833   1.615   1.125   3.680  0.3387 -0.1237 -0.1841
 7730PP      PP17834   9.110   4.277   0.208 -0.0612 -0.1904  0.0323
 7731PP      PP17835   7.177   0.679   2.614  0.4382 -0.2125  0.0527
 7732PP      PP17836  11.835   4.156  11.694  0.1763 -0.0320  0.2962
 7733PP      PP17837  10.975   5.500  12.643 -0.1280 -0.0081 -0.0450
 7734PP      PP17838  15.716   5.803  10.568  0.0227 -0.1348 -0.0661
 7735PP      PP17839   4.674   9.895   0.534  0.0518  0.1953 -0.2983
 7736PP      PP17840   0.562   3.860   0.450  0.0232 -0.2589  0.2207
 7737PP      PP17841  15.200  15.756   3.926  0.0648 -0.2929  0.0227
 7738PP      PP17842  15.624  10.448   0.941  0.1103 -0.1373  0.2962
 7739PP      PP17843  10.952   7.406   1.053  0.1108  0.0261 -0.0296
 7740PP      PP17844   0.310   6.715   0.773  0.0078 -0.0494  0.0482
 7741PP      PP17845  10.496   5.879   3.044  0.0081 -0.1283 -0.0409
 7742PP      PP17846   5.207   7.641   9.604  0.0024 -0.0490  0.0550
 7743PP      PP17847  10.464   6.867  12.472  0.3712  0.3497 -0.0238
 7744PP      PP17848   2.722  16.249  10.269  0.1160 -0.1839  0.0358
 7745PP      PP17849   2.866  15.968   8.838 -0.4402  0.1280  0.3368
 7746PP      PP17850  15.556   1.694  11.640 -0.1126 -0.0396 -0.1232
 7747PP      PP17851  11.918  15.769  12.271 -0.0955 -0.1094  0.0977
 7748PP      PP17852  11.380   1.465   1.001  0.1101 -0.2663  0.1584
 7749PP      PP17853   0.482   4.115   2.858 -0.0492  0.0530  0.0370
 7750PP      PP17854   5.324   3.008   3.764 -0.1864 -0.1789  0.0249
 7751PP      PP17855   3.681   2.313   9.359 -0.0617 -0.4254  0.1724
 7752PP      PP17856  15.292   1.430  11.333  0.1772  0.0664 -0.2805
 7753PP      PP17857  10.740   0.333   4.781  0.2526  0.1848 -0.1387
 7754PP      PP17858  12.951  13.476  10.920 -0.1582  0.0957 -0.2571
 7755PP      PP17859  13.313  13.022   2.808  0.1854 -0.2419  0.0026
 7756PP      PP17860   6.838  13.862   2.034 -0.1175  0.5938  0.0580
 7757PP      PP17861   5.238   7.197   9.258  0.1995  0.1427 -0.1354
 7758PP      PP17862  12.312  11.831   2.527  0.0816 -0.0565  0.3576
 7759PP      PP17863   2.239   6.227   2.812  0.0073  0.2071 -0.0152
 7760PP      PP17864   2.466   7.700   8.130 -0.2186  0.0127  0.3875
 7761PP      PP17865   2.223   5.722   1.343 -0.0007 -0.0155 -0.1011
 7762PP      PP17866   4.987  16.351   2.947  0.0326 -0.0020  0.1812
 7763PP      PP17867  16.183  12.088   4.041 -0.1805  0.1644  0.0231
 7764PP      PP17868  14.133  15.629  10.287  0.1357  0.0240 -0.1034
 7765PP      PP17869  13.108   7.834   2.465 -0.0214  0.0176 -0.1623
 7766PP      PP17870   6.222  10.015   3.114 -0.3073 -0.1617 -0.2026
 7767PP      PP17871  14.532  13.397   4.684  0.0421 -0.0964  0.0614
 7768PP      PP17872   0.457  14.161  11.414 -0.1318  0.1051  0.1177
 7769PP      PP17873   5.486   6.378  11.529  0.1101 -0.0730 -0.0491
 7770PP      PP17874   8.712   1.789  11.164 -0.0937 -0.2831 -0.0881
 7771PP      PP17875  13.314  14.370   2.765  0.3316 -0.1285  0.3039
 7772PP      PP17876  14.803  12.193   0.320  0.3611 -0.3018 -0.0150
 7773PP      PP17877   6.664  14.852   9.302  0.1590 -0.1248  0.0931
 7774PP      PP17878   0.588  15.424  11.163  0.0983 -0.2472 -0.1265
 7775PP      PP17879   8.378   8.680   3.911  0.0190 -0.1192 -0.0502
 7776PP      PP17880   5.286   1.734   3.342 -0.0641 -0.1840 -0.0095
 7777PP      PP17881   5.760   4.955  11.946  0.1110 -0.0489 -0.0202
 7778PP      PP17882   3.189   1.331   2.486  0.0013 -0.1774  0.4434
 7779PP      PP17883   1.132  12.543  12.239  0.0754  0.0305 -0.2374
 7780PP      PP17884   6.734  15.363  12.101  0.0619  0.0404 -0.2086
 7781PP      PP17885   6.172  15.433   4.653  0.0706  0.1361  0.1454
 7782PP      PP17886   1.327   4.915   2.273 -0.0377  0.0779  0.3759
 7783PP      PP17887   0.106  16.338  10.096  0.2512  0.0192  0.0466
 7784PP      PP17888   9.144  10.351  10.214 -0.0097  0.1326 -0.0784
 7785PP      PP17889  13.261  10.177   1.014 -0.0771 -0.4147  0.0687
 7786PP      PP17890   3.330   5.812  11.111  0.2065  0.1754  0.1749
 7787PP      PP17891  13.230   1.779   3.701 -0.2129 -0.1351  0.0161
 7788PP      PP17892   6.765  10.415   0.136  0.0492  0.1588 -0.0180
 7789PP      PP17893   8.009   8.640   9.902 -0.1180 -0.0434 -0.0751
 7790PP      PP17894   3.657  16.085   2.070  0.1549  0.2512 -0.1613
 7791PP      PP17895  14.362   9.933  12.255  0.1956 -0.3187  0.1523
 7792PP      PP17896  11.057  11.684   9.020  0.1277 -0.1282 -0.2514
 7793PP      PP17897  15.306   6.044   3.080 -0.1578  0.0073  0.2233
 7794PP      PP17898   7.135   6.143  12.599 -0.2667 -0.1385  0.2623
 7795PP      PP17899  14.007   1.997   2.659  0.3633  0.0410  0.2134
 7796PP      PP17900   2.397   3.515   2.988  0.2381 -0.1332  0.0888
 7797PP      PP17901  10.690  12.589   3.669  0.0860  0.0639  0.1906
 7798PP      PP17902   3.086   3.849  10.523 -0.1388 -0.0870  0.1721
 7799PP      PP17903  11.403  13.431  11.653 -0.0664  0.1803  0.4246
 7800PP      PP17904  16.234   7.971   9.159 -0.1015 -0.0964 -0.3083
 7801PP      PP17905   8.914  14.769   2.120 -0.4964  0.2259  0.1167
 7802PP      PP17906   7.409   1.062   3.290 -0.3303  0.1252 -0.0857
 7803PP      PP17907  15.568   2.324   0.628  0.2373  0.2970  0.0178
 7804PP      PP17908   4.561  12.113   3.190 -0.1324  0.1474 -0.0114
 7805PP      PP17909  15.562   0.322   1.953 -0.4144  0.0447  0.1404
 7806PP      PP17910  14.599   8.961   0.018 -0.1855  0.1082 -0.1451
 7807PP      PP17911  11.819   6.109  11.968  0.2609 -0.0265 -0.0395
 7808PP      PP17912   1.012   1.713  11.759  0.1951 -0.0542 -0.0158
 7809PP      PP17913  13.437   9.983   2.575  0.1363 -0.2167  0.2317
 7810PP      PP17914   2.897   6.263   1.188  0.0172  0.0936 -0.0007
 7811PP      PP17915   1.006  11.896   0.309  0.0775  0.1253  0.0950
 7812PP      PP17916   7.439  13.174  12.268  0.2035  0.0558  0.0765
 7813PP      PP17917   9.963  16.094   3.846 -0.1095 -0.1140  0.3665
 7814PP      PP17918   6.987  15.010  10.144  0.0998  0.0733  0.0539
 7815PP      PP17919  10.165   7.608   0.951 -0.1520 -0.0566 -0.0047
 7816PP      PP17920   7.673  16.302   9.596  0.0575 -0.2522  0.1166
 7817PP      PP17921   5.391  14.258   2.661  0.0808  0.0416 -0.1293
 7818PP      PP17922  16.088   8.675   3.252 -0.1119  0.0043 -0.2016
 7819PP      PP17923   2.457   2.521   8.815 -0.1053 -0.3124  0.0986
 7820PP      PP17924  10.265   6.434   3.005  0.0551 -0.0220  0.0470
 7821PP      PP17925   1.964  14.437  10.908  0.2951 -0.0454  0.1217
 7822PP      PP17926  11.487   5.633   9.425  0.2874 -0.1219 -0.1797
 7823PP      PP17927   5.999   6.975   1.231 -0.0730  0.0507 -0.0914
 7824PP      PP17928   4.578   5.204  11.819 -0.1304  0.0008  0.0808
 7825PP      PP17929  13.792   7.890   0.580 -0.1624  0.0830  0.0828
 7826PP      PP17930  14.538   2.546  10.899  0.1037 -0.2190  0.2590
 7827PP      PP17931  10.671   0.361   2.210  0.0626 -0.4376  0.0698
 7828PP      PP17932   8.298   2.738   3.568 -0.0371 -0.2844 -0.1343
 7829PP      PP17933  13.333  15.012  11.714  0.2219  0.0089 -0.1189
 7830PP      PP17934   5.245   4.760   0.967  0.5662  0.0686 -0.2760
 7831PP      PP17935   4.266   4.443   2.755  0.0618 -0.1673 -0.3131
 7832PP      PP17936   2.591  13.549   2.294 -0.1570 -0.3280 -0.1087
 7833PP      PP17937  15.324  10.287   0.572  0.0687  0.0744 -0.1858
 7834PP      PP17938   8.391  11.281   1.115  0.0168  0.1398  0.2421
 7835PP      PP17939  10.301   6.625   2.097  0.1520 -0.2958  0.1353
 7836PP      PP17940  12.746   3.330   2.636  0.4198  0.0308  0.0741
 7837PP      PP17941   5.055   7.619   0.202 -0.2674 -0.1366 -0.2040
 7838PP      PP17942   8.388   0.033  10.211  0.0369  0.2300 -0.3774
 7839PP      PP17943   2.494   3.208   3.446  0.0265  0.1491 -0.0821
 7840PP      PP17944  15.863  13.757   1.621  0.1884  0.1687 -0.0928
 7841PP      PP17945   6.238   7.582  10.579 -0.1447  0.4595 -0.2442
 7842PP      PP17946   1.018   2.871  10.029  0.1846 -0.0043 -0.2943
 7843PP      PP17947   6.906   7.105  10.472  0.0213 -0.0661 -0.0099
 7844PP      PP17948   3.449   7.317   1.085 -0.2733 -0.2161  0.1383
 7845PP      PP17949   2.345   0.295   1.815 -0.1568 -0.1029  0.2088
 7846PP      PP17950   9.766  10.525  10.315  0.0566  0.2414  0.1205
 7847PP      PP17951  13.342   2.417   0.706  0.1556  0.0624 -0.0654
 7848PP      PP17952   3.029   1.314  12.555  0.0364  0.2317  0.2040
 7849PP      PP17953  15.700   4.294   8.009 -0.1488 -0.0588 -0.0918
 7850PP      PP17954   9.684   7.824   2.078 -0.0157  0.6346 -0.0269
 7851PP      PP17955   4.750   6.405   0.232 -0.2298 -0.0638 -0.0843
 7852PP      PP17956   2.217   7.433   8.926  0.0054  0.0057 -0.1392
 7853PP      PP17957   4.650  10.671   3.325  0.0101 -0.1717  0.3804
 7854PP      PP17958  11.950   0.502   1.603 -0.1828  0.2674 -0.0125
 7855PP      PP17959   4.310  13.099  11.588  0.1962  0.0651  0.1559
 7856PP      PP17960  12.850   2.291  12.077  0.1563 -0.1931 -0.0273
 7857PP      PP17961   0.376   3.448   3.921  0.0022 -0.2280  0.0097
 7858PP      PP17962   2.059   5.577   3.187 -0.1568  0.1673 -0.1448
 7859PP      PP17963  16.344   2.992   8.820  0.1392  0.0015  0.0024
 7860PP      PP17964   4.754   4.068   4.532  0.1677  0.0877 -0.0481
 7861PP      PP17965   0.782   3.628   3.656  0.1717  0.2797  0.0214
 7862PP      PP17966   7.673  10.808   3.252 -0.0865  0.3491  0.1067
 7863PP      PP17967   7.240  16.184   1.856  0.3995  0.5159  0.1558
 7864PP      PP17968   5.094  11.281  11.944  0.1032  0.0112 -0.0154
 7865PP      PP17969  13.153   9.389  10.381  0.0021  0.1955  0.1125
 7866PP      PP17970  14.363   5.301  12.747 -0.1462 -0.0865 -0.1979
 7867PP      PP17971  11.313  12.302   3.243 -0.1904  0.0851 -0.2621
 7868PP      PP17972   0.380  12.367  11.156  0.0664 -0.1641 -0.0958
 7869PP      PP17973   4.399   4.364   0.247  0.0969  0.4473  0.0193
 7870PP      PP17974  15.639  14.769  11.229  0.1338 -0.1138  0.3824
 7871PP      PP17975   4.111   3.580  11.632 -0.2069 -0.0961 -0.0899
 7872PP      PP17976  14.147   5.494  11.289  0.1028  0.0100 -0.0888
 7873PP      PP17977   1.555   7.991   9.059  0.0166  0.1871  0.0771
 7874PP      PP17978   7.801   2.154  10.875  0.2453 -0.1102 -0.1466
 7875PP      PP17979  13.183   7.856  11.407  0.2002  0.1498 -0.0287
 7876PP      PP17980  13.646  10.979   3.278  0.1183 -0.1139  0.0149
 7877PP      PP17981   4.063  14.357   7.650 -0.1847  0.0031  0.1269
 7878PP      PP17982  13.262   8.869   1.804 -0.0980 -0.2407  0.1134
 7879PP      PP17983   6.411  15.087   1.317  0.1458 -0.1781  0.1802
 7880PP      PP17984  10.709  13.048   1.820 -0.0611 -0.0643  0.0223
 7881PP      PP17985  12.826  14.507  12.621  0.1454  0.0438  0.1577
 7882PP      PP17986  12.490   1.365  11.827 -0.2188  0.1170  0.1157
 7883PP      PP17987   5.343   8.151  10.454  0.1203  0.1304  0.2227
 7884PP      PP17988   4.594   6.777   4.219 -0.1878 -0.0137  0.0070
 7885PP      PP17989  10.470   2.645   9.034 -0.1011  0.0172  0.0811
 7886PP      PP17990   6.424  15.721   2.334 -0.0666  0.0238  0.0737
 7887PP      PP17991   3.732  11.627   2.481 -0.2183  0.4446 -0.1345
 7888PP      PP17992   2.366   8.199   8.270 -0.1014  0.0212  0.0049
 7889PP      PP17993   3.164   6.347  11.297 -0.2503 -0.1678  0.0089
 7890PP      PP17994   7.425  11.932   0.296 -0.0453 -0.1556  0.3424
 7891PP      PP17995   5.531   2.579   3.525 -0.2315  0.1371 -0.1744
 7892PP      PP17996   7.474  11.966   3.092 -0.2832  0.3732 -0.1353
 7893PP      PP17997   3.389   0.537   0.949  0.0577 -0.0565 -0.0312
 7894PP      PP17998   7.512  14.337   3.734  0.3446  0.0910 -0.1344
 7895PP      PP17999   0.246   0.397  10.509 -0.0859 -0.0459  0.3719
 7896PP      PP18000   9.259   9.532   8.915 -0.2382  0.1518 -0.1934
 7897PP      PP18001   9.879   3.299   8.700  0.1875 -0.0186 -0.3523
 7898PP      PP18002   9.600   9.538   8.573  0.0798 -0.1813  0.1425
 7899PP      PP18003   6.645   4.382  11.279 -0.4174 -0.0863  0.2598
 7900PP      PP18004  11.197  11.134   0.005 -0.1062  0.0762  0.1723
 7901PP      PP18005  14.249  10.645   9.139 -0.1067 -0.0476  0.0922
 7902PP      PP18006   9.139   1.737   0.007 -0.0172 -0.0109  0.4135
 7903PP      PP18007   2.589  13.498  10.121  0.1118 -0.0617 -0.0285
 7904PP      PP18008  13.907  12.293   3.319 -0.0833  0.4483  0.1625
 7905PP      PP18009  12.833  14.719   3.365 -0.0876  0.2216  0.0206
 7906PP      PP18010  14.045   8.067   9.985 -0.0724 -0.1901 -0.1585
 7907PP      PP18011  13.968   2.583  11.124  0.1364 -0.1856  0.0161
 7908PP      PP18012  10.639   4.637   8.352  0.0322 -0.0523 -0.0821
 7909PP      PP18013   9.914  13.002   2.934  0.0360  0.2141  0.0837
 7910PP      PP18014   0.609  11.308  10.715  0.2660  0.0362  0.2859
 7911PP      PP18015   5.506   9.486   8.236 -0.1178  0.2784 -0.1058
 7912PP      PP18016   0.859  11.241   1.546 -0.1169  0.0677 -0.2194
 7913PP      PP18017   5.819  14.529   8.563 -0.0889 -0.2336 -0.1432
 7914PP      PP18018   1.823  10.762   1.143  0.1938 -0.0545  0.2491
 7915PP      PP18019   0.987  13.628  11.303  0.0394  0.0951 -0.1139
 7916PP      PP18020   3.412   7.376   9.493  0.1334 -0.2713  0.0043
 7917PP      PP18021  12.927   6.027   1.946  0.2325 -0.2404  0.0135
 7918PP      PP18022  14.201   1.121  12.191 -0.3594 -0.0049 -0.3518
 7919PP      PP18023   1.623   2.953  12.722  0.2337 -0.3070  0.0233
 7920PP      PP18024  16.230  12.262  11.396 -0.0246 -0.0760 -0.2244
 7921PP      PP18025  12.012  13.170   8.458 -0.0810 -0.0140  0.0146
 7922PP      PP18026   9.621   1.952  12.638  0.1643  0.0345 -0.3808
 7923PP      PP18027  12.446   7.277  12.472 -0.2159  0.0105 -0.1523
 7924PP      PP18028   8.877  12.539   4.704  0.0515 -0.1771  0.0911
 7925PP      PP18029   8.314   4.447   8.176 -0.0472 -0.0698  0.0710
 7926PP      PP18030   8.750   2.959   4.224 -0.0963  0.1734 -0.2564
 7927PP      PP18031   8.989  11.717   2.046  0.1374  0.1378 -0.0381
 7928PP      PP18032  14.032   1.665   3.513  0.2516  0.1435 -0.2191
 7929PP      PP18033  15.602   9.668   8.394 -0.1046  0.0622  0.3061
 7930PP      PP18034   7.505   5.586  11.307  0.1559 -0.3438  0.0623
 7931PP      PP18035   3.020  10.826   0.505  0.2315 -0.0366  0.1679
 7932PP      PP18036   8.643   6.658   0.897 -0.0437  0.0448 -0.1402
 7933PP      PP18037   1.246   4.413   1.940  0.1783  0.1324 -0.5474
 7934PP      PP18038  16.249   1.272   3.328  0.1602 -0.0826 -0.0923
 7935PP      PP18039   4.948  10.474  12.348 -0.2936  0.1734 -0.2366
 7936PP      PP18040   6.352  11.317   1.613  0.0825 -0.2372 -0.1656
 7937PP      PP18041  10.446  16.268   2.946  0.0507  0.3420 -0.3641
 7938PP      PP18042   4.646   1.163  10.651  0.2882 -0.1378  0.4153
 7939PP      PP18043   0.352   5.678  10.110  0.0302 -0.2001  0.1863
 7940PP      PP18044  13.882   5.246   2.823  0.2025  0.1487  0.1238
 7941PP      PP18045  14.232  14.225   4.097  0.3679 -0.1380 -0.2504
 7942PP      PP18046  13.474   1.126   8.717 -0.1678  0.2537  0.0385
 7943PP      PP18047  10.204   0.153   1.280  0.3457  0.0290 -0.0067
 7944PP      PP18048  10.469   0.423   0.484  0.2324 -0.0392 -0.0477
 7945PP      PP18049   6.070  10.321   9.266  0.1578  0.0180 -0.1712
 7946PP      PP18050   7.183  10.650   1.724 -0.2001  0.1955 -0.1716
 7947PP      PP18051   7.413  12.683  11.131 -0.0746  0.2592 -0.1565
 7948PP      PP18052   8.134   8.028   0.907 -0.2514 -0.0309  0.0007
 7949PP      PP18053  10.879   7.714  12.233 -0.3090  0.1107 -0.0111
 7950PP      PP18054   0.341  12.865  10.504  0.0116  0.1554  0.0457
 7951PP      PP18055  14.940  12.832   2.608  0.0615 -0.0254  0.1070
 7952PP      PP18056  11.818  15.258   4.299  0.0784  0.1420 -0.2087
 7953PP      PP18057   6.070  13.829   2.091 -0.2956 -0.2478 -0.1525
 7954PP      PP18058  16.088   4.756   3.971  0.1204 -0.1124 -0.1150
 7955PP      PP18059   9.375  12.967   2.848 -0.0716 -0.0524 -0.1091
 7956PP      PP18060  13.079   8.415   3.209  0.2472  0.1333  0.1714
 7957PP      PP18061  14.558  10.739   8.732 -0.2132 -0.2595 -0.0480
 7958PP      PP18062   8.312   9.986   4.104 -0.1627  0.1204  0.2803
 7959PP      PP18063   4.537  14.224  10.321 -0.0739 -0.3824  0.3352
 7960PP      PP18064  13.195   5.717   1.726  0.0026  0.0981  0.0162
 7961PP      PP18065   3.624  12.269   9.635 -0.1432  0.2113  0.2573
 7962PP      PP18066   8.995  13.837   1.683  0.0318 -0.0380 -0.1953
 7963PP      PP18067  15.375   8.262   9.586 -0.1831 -0.3484  0.0125
 7964PP      PP18068  15.103   2.434   1.842  0.2610  0.1528 -0.1317
 7965PP      PP18069  15.984  15.517  11.413 -0.0040  0.0196 -0.0908
 7966PP      PP18070  13.246   6.213   9.947 -0.1394  0.1057  0.2163
 7967PP      PP18071   0.125   8.661  12.510 -0.0422 -0.1457  0.1297
 7968PP      PP18072   5.739   0.156   3.956  0.1910 -0.1590 -0.2835
 7969PP      PP18073  10.086  14.790  10.475 -0.1987 -0.0635  0.0525
 7970PP      PP18074  11.906   5.238  10.834  0.3200 -0.0528 -0.0692
 7971PP      PP18075  14.803  11.977  11.375  0.0189  0.0794 -0.3017
 7972PP      PP18076   1.390   2.704   1.249  0.1405 -0.2411 -0.0677
 7973PP      PP18077  13.757   1.000  10.580 -0.0635 -0.4935 -0.4684
 7974PP      PP18078  13.963  12.801  11.399  0.0643  0.3587 -0.3212
 7975PP      PP18079   1.252  14.717   9.633 -0.1137  0.0999  0.0960
 7976PP      PP18080  15.449  12.355   2.050 -0.2702  0.2494  0.4879
 7977PP      PP18081   6.658   5.780   3.890 -0.1937 -0.2455  0.2821
 7978PP      PP18082   1.283  15.607  12.308  0.1663 -0.0956 -0.0407
 7979PP      PP18083  14.387   9.331   8.481 -0.0227 -0.1224  0.1834
 7980PP      PP18084   8.243   4.513   2.230  0.3007 -0.2061 -0.1709
 7981PP      PP18085  11.325   7.532  12.606  0.2385 -0.0863  0.1762
 7982PP      PP18086   4.099   1.193   4.157  0.1877 -0.0767  0.1868
 7983PP      PP18087   9.879   6.326   1.939 -0.0292  0.0701  0.1955
 7984PP      PP18088   9.372   8.142   2.385 -0.0669 -0.1051 -0.0727
 7985PP      PP18089  10.298  13.457   3.259 -0.1512 -0.1431  0.1125
 7986PP      PP18090   1.709   1.564   8.995 -0.1449 -0.1208 -0.0994
 7987PP      PP18091   2.554   3.641   8.892 -0.1302  0.2013 -0.2951
 7988PP      PP18092   1.105  11.428  10.233 -0.0225  0.2958  0.0512
 7989PP      PP18093   1.179  15.358   3.403  0.3341 -0.1649  0.1505
 7990PP      PP18094   5.889   2.303   4.480  0.1578 -0.0473 -0.1189
 7991PP      PP18095  15.400   6.875  12.411  0.2500  0.1646  0.2207
 7992PP      PP18096   7.715   1.106   2.725 -0.0655 -0.0766  0.0295
 7993PP      PP18097   2.502   0.018   3.802  0.2597  0.1205 -0.0653
 7994PP      PP18098  11.440  13.824   0.342 -0.0629 -0.2279  0.0637
 7995PP      PP18099   6.148   7.957  11.485 -0.1015 -0.2527  0.1902
 7996PP      PP18100  13.967   5.587  11.717  0.0941  0.2464  0.0759
 7997PP      PP18101   5.391  11.790   8.168 -0.0173 -0.0046 -0.2384
 7998PP      PP18102  11.536  15.146   2.777  0.2169  0.1748 -0.0151
 7999PP      PP18103  10.635   4.704  11.988 -0.2540  0.2051 -0.2271
 8000PP      PP18104   3.824   8.761  10.811  0.0778  0.0481 -0.0303
 8001PP      PP18105   2.629   8.397   2.421  0.2094 -0.0531  0.2946
 8002PP      PP18106  13.588   7.125   9.777  0.0665 -0.1637 -0.0141
 8003PP      PP18107  15.430   4.084  10.180  0.1567 -0.0194  0.3215
 8004PP      PP18108  11.451   8.337  12.651 -0.3878  0.3593 -0.2852
 8005PP      PP18109  15.544   9.877   1.828  0.0329  0.0289 -0.1465
 8006PP      PP18110   9.643   6.315   3.249 -0.1971  0.2264 -0.2478
 8007PP      PP18111  11.542  10.476  11.147 -0.2262  0.1919 -0.4108
 8008PP      PP18112   0.772  11.166   3.653  0.1747  0.1677 -0.1551
 8009PP      PP18113   5.401  12.188   2.116  0.1740  0.0598 -0.0863
 8010PP      PP18114  14.005   9.519  10.490  0.2831  0.1649 -0.1361
 8011PP      PP18115   4.774   5.924   0.797 -0.3153 -0.2613  0.2923
 8012PP      PP18116   2.149   9.824  10.744 -0.1743  0.2165  0.0555
 8013PP      PP18117   1.482   3.630   1.302 -0.0336  0.2133 -0.0899
 8014PP      PP18118   3.164   2.380  10.197 -0.3157  0.2055  0.0801
 8015PP      PP18119  13.048   3.051   0.401 -0.1005 -0.0534 -0.0450
 8016PP      PP18120  12.217   6.819   3.247  0.2070 -0.1875  0.2254
 8017PP      PP18121  14.755   8.299  11.864 -0.3078  0.0550 -0.0156
 8018PP      PP18122   5.633  11.273   7.788 -0.0751 -0.0757  0.0141
 8019PP      PP18123   8.548   2.359   0.576  0.0209  0.1200  0.0039
 8020PP      PP18124   2.501  10.740   9.878  0.0572  0.2610  0.1099
 8021PP      PP18125   4.814  12.746   9.226 -0.0932  0.1414  0.2702
 8022PP      PP18126   5.995   7.447   2.756  0.2427 -0.1053  0.1516
 8023PP      PP18127   5.085   3.373  11.592  0.0229  0.1826  0.2144
 8024PP      PP18128   0.358  10.031   8.736  0.1312  0.0898 -0.2557
 8025PP      PP18129   5.056  13.896   2.876  0.2203  0.1507  0.1174
 8026PP      PP18130   1.334  12.026  12.061  0.0675 -0.0763  0.0737
 8027PP      PP18131  13.424   9.852   3.133  0.1203  0.3331 -0.1976
 8028PP      PP18132  11.988  15.996   3.173 -0.2038 -0.6270 -0.3319
 8029PP      PP18133  16.183   5.071  11.615  0.2648  0.3107  0.1610
 8030PP      PP18134  10.545   9.752  10.761 -0.0230 -0.1536  0.0738
 8031PP      PP18135  15.400   8.854  12.219 -0.0389 -0.0851  0.0835
 8032PP      PP18136  11.382  14.118   2.648 -0.0050 -0.1620  0.3402
 8033PP      PP18137  14.390  14.345   1.951  0.0335  0.0498  0.0986
 8034PP      PP18138  12.529   0.928  11.011 -0.2624 -0.3338  0.3233
 8035PP      PP18139   0.102  12.036  10.819 -0.1682 -0.0861 -0.2941
 8036PP      PP18140  14.664  15.131   2.052 -0.0540  0.1015 -0.2683
 8037PP      PP18141   9.323   3.098   4.160 -0.1435  0.2417  0.0729
 8038PP      PP18142  10.856   0.843  10.268  0.3347  0.0839  0.0977
 8039PP      PP18143  12.752  15.780   9.711 -0.0422 -0.1675 -0.4076
 8040PP      PP18144   6.430  15.234   3.810 -0.3677  0.0482 -0.3139
 8041PP      PP18145   4.965   5.747  12.488 -0.2326 -0.0070 -0.2316
 8042PP      PP18146   7.838   0.283   1.751 -0.0721  0.0401  0.0547
 8043PP      PP18147  10.797   0.416  12.351  0.0017 -0.2320 -0.0261
 8044PP      PP18148   5.608   8.278   2.043 -0.2354  0.0352  0.0909
 8045PP      PP18149   6.720   6.670  11.189 -0.3157 -0.2478  0.4594
 8046PP      PP18150   6.293   1.775   0.809 -0.3057 -0.0216 -0.1743
 8047PP      PP18151  14.856  14.331   0.122  0.2324  0.0589 -0.1775
 8048PP      PP18152  13.396   1.824   9.168  0.0783 -0.0121  0.0307
 8049PP      PP18153  15.921   7.082   1.255  0.4696  0.3601 -0.0759
 8050PP      PP18154  13.262   7.616   2.984 -0.0926  0.1808  0.2848
 8051PP      PP18155   8.694   9.487   8.635 -0.0982  0.1489 -0.0720
 8052PP      PP18156   1.848  13.379   9.683  0.1765 -0.1099 -0.0827
 8053PP      PP18157  12.520  14.429  11.327 -0.0806  0.3871  0.1238
 8054PP      PP18158   5.472   1.225  12.602  0.1166  0.1967  0.1349
 8055PP      PP18159   9.433   8.158   9.154 -0.1214  0.2445  0.3276
 8056PP      PP18160  12.175   1.295   9.481 -0.2458 -0.2676  0.2980
 8057PP      PP18161   9.288  15.459   4.755 -0.1598 -0.1028 -0.0593
 8058PP      PP18162  13.921   2.651  10.182 -0.1661 -0.0456  0.0072
 8059PP      PP18163  14.159   3.505   3.145  0.1743 -0.2304  0.0096
 8060PP      PP18164   4.952   0.367  12.484 -0.2569  0.1475  0.0492
 8061PP      PP18165   1.695  14.122   1.277  0.2740 -0.0814  0.1378
 8062PP      PP18166  10.665   5.913   0.011  0.1804  0.1763  0.2815
 8063PP      PP18167   9.185   4.495   4.330  0.4334 -0.2485 -0.5095
 8064PP      PP18168  13.428   1.312   9.685  0.1553  0.1262 -0.2778
 8065PP      PP18169   8.996   9.936  11.023 -0.0110 -0.0941 -0.0921
 8066PP      PP18170   1.595  16.227   4.550 -0.1272  0.2594 -0.1864
 8067PP      PP18171   9.289  11.719  11.586 -0.0254  0.0708  0.0626
 8068PP      PP18172  15.197   9.540  10.593  0.2740  0.0664 -0.0497
 8069PP      PP18173   7.633   5.639   7.876  0.0168  0.0380 -0.0927
 8070PP      PP18174  12.761   4.379   9.966 -0.3283 -0.2748 -0.0542
 8071PP      PP18175   9.606   7.007   8.278  0.2127  0.2317 -0.0113
 8072PP      PP18176   5.975   9.295   8.390 -0.0619 -0.3999 -0.3600
 8073PP      PP18177  11.389  15.491  10.500  0.0196  0.2713  0.0065
 8074PP      PP18178  14.937  15.203   0.398 -0.0747  0.4521 -0.1182
 8075PP      PP18179  14.968  10.519   1.333 -0.0030  0.0860  0.1499
 8076PP      PP18180   5.407  14.457   8.264 -0.0166  0.0063 -0.0909
 8077PP      PP18181   8.398  11.633  12.751 -0.1265  0.0792 -0.1006
 8078PP      PP18182  16.158  11.919   2.703  0.0771 -0.0954  0.2800
 8079PP      PP18183   8.207   0.185   4.483  0.1644 -0.0369 -0.0680
 8080PP      PP18184   1.788  13.387   1.169  0.2117  0.0508 -0.1979
 8081PP      PP18185  13.540   6.094   2.631 -0.1699 -0.0877 -0.4596
 8082PP      PP18186  10.120   7.039  10.923  0.0656  0.0497  0.2115
 8083PP      PP18187   3.609   2.688   9.986 -0.0296  0.0691 -0.2280
 8084PP      PP18188  16.329   6.310   8.846 -0.1028 -0.1047  0.2793
 8085PP      PP18189  16.291  10.620  12.106 -0.3434  0.0834 -0.0336
 8086PP      PP18190  13.348   5.845   2.210  0.0137 -0.0002 -0.1816
 8087PP      PP18191   6.553   5.078   8.331  0.2289  0.1788 -0.2021
 8088PP      PP18192   7.459   2.967  11.943  0.2072  0.2558  0.1627
 8089PP      PP18193  13.905   0.738  11.174 -0.0720  0.0053 -0.1368
 8090PP      PP18194   4.881   2.622   0.358 -0.0130 -0.2984 -0.0131
 8091PP      PP18195  12.905   1.098  10.100 -0.0594  0.0544  0.0721
 8092PP      PP18196  12.174   4.039   0.754 -0.1486  0.0195  0.1228
 8093PP      PP18197   7.324  13.689   1.910  0.4218  0.0381  0.0257
 8094PP      PP18198  12.603  13.191   4.314  0.0153 -0.5134  0.0214
 8095PP      PP18199   7.608   1.183  10.118 -0.0424 -0.1541 -0.1444
 8096PP      PP18200  10.218   2.957   8.659 -0.4335 -0.1663 -0.1734
 8097PP      PP18201   8.172   2.646  12.073 -0.0547  0.3216  0.0761
 8098PP      PP18202   3.055   2.420   3.551 -0.3121 -0.3106 -0.1397
 8099PP      PP18203   2.208   1.132   9.774  0.3568 -0.2453 -0.0624
 8100PP      PP18204   9.616  12.402  12.347 -0.1031 -0.3571 -0.0561
 8101PP      PP18205  13.434  14.166   1.267 -0.0694 -0.0951 -0.0538
 8102PP      PP18206   8.689   5.361   0.424  0.0859  0.1226  0.0069
 8103PP      PP18207   6.910   0.798  12.498  0.0252  0.1467 -0.3126
 8104PP      PP18208   9.922  15.467   3.905  0.0586 -0.0790  0.0188
 8105PP      PP18209  15.618   9.929   0.947 -0.2276 -0.1208 -0.0527
 8106PP      PP18210   3.929   7.567   9.705  0.1638 -0.0177  0.0717
 8107PP      PP18211  10.861   4.745   9.401 -0.3057 -0.2686  0.2588
 8108PP      PP18212   3.100   8.226   2.355 -0.0098 -0.0527 -0.0197
 8109PP      PP18213  13.886   9.936   2.801  0.2109  0.2759 -0.0650
 8110PP      PP18214   2.492   3.375  10.801 -0.0636 -0.0321 -0.3741
 8111PP      PP18215   9.526   5.601   0.708  0.1221  0.0312  0.2130
 8112PP      PP18216  10.452   9.347   9.064 -0.1326  0.0724  0.1311
 8113PP      PP18217  10.117   8.588   0.864 -0.1493  0.0785 -0.1296
 8114PP      PP18218   1.102   1.956   8.670  0.0144 -0.0234 -0.0938
 8115PP      PP18219  10.421  12.362   9.267  0.1868 -0.0822 -0.2266
 8116PP      PP18220  11.096  15.333   0.743 -0.0989  0.1653  0.0865
 8117PP      PP18221   4.934  15.266   0.810 -0.0416 -0.0634  0.0932
 8118PP      PP18222  13.379   5.050   9.193  0.2337  0.0952 -0.0151
 8119PP      PP18223   3.906   5.917   1.550  0.1040 -0.1125  0.4570
 8120PP      PP18224   3.004  12.853   0.557  0.1147 -0.1000 -0.3103
 8121PP      PP18225  11.271   7.163   9.162  0.0830 -0.0936 -0.1115
 8122PP      PP18226   7.268   8.945   0.059 -0.1682  0.2331  0.2791
 8123PP      PP18227   2.965   0.794   0.008 -0.0832 -0.1618  0.0206
 8124PP      PP18228  10.227   7.147   3.515  0.1267  0.2560  0.0249
 8125PP      PP18229   6.372  15.311  12.424 -0.0481  0.1341  0.1042
 8126PP      PP18230   9.109  14.903  11.321  0.0412 -0.0989 -0.1356
 8127PP      PP18231   1.509  15.399   8.869  0.0368 -0.1458  0.0326
 8128PP      PP18232  13.815  15.930  10.702 -0.1711  0.1181  0.0259
 8129PP      PP18233   7.346  12.526   2.886 -0.0931 -0.3729 -0.1416
 8130PP      PP18234   3.252  14.165   0.215 -0.2242 -0.1756  0.1052
 8131PP      PP18235  14.352   8.839   7.594  0.0080 -0.0622  0.0331
 8132PP      PP18236   6.194   1.365   3.892  0.0790 -0.1869 -0.2856
 8133PP      PP18237  12.378  11.020   3.013  0.1572 -0.0427  0.1498
 8134PP      PP18238   8.018   2.303   2.832  0.0770 -0.1025 -0.3089
 8135PP      PP18239  15.719   6.386  11.634 -0.2751  0.2451 -0.1861
 8136PP      PP18240  11.746  11.122   1.491 -0.0161  0.2617 -0.0190
 8137PP      PP18241   9.267   6.168   9.055  0.0480 -0.0187  0.0667
 8138PP      PP18242   1.801   7.343  11.093 -0.2442  0.2168 -0.1101
 8139PP      PP18243  11.460   7.446   1.586 -0.0978  0.0220 -0.0185
 8140PP      PP18244   0.814  15.273   1.456 -0.2364 -0.2234  0.0136
 8141PP      PP18245  11.683   5.511  10.491  0.1040  0.2484 -0.2289
 8142PP      PP18246   5.766   9.289   3.316  0.0075 -0.1187 -0.1051
 8143PP      PP18247  12.536  11.500   0.264  0.0183 -0.0355  0.2667
 8144PP      PP18248   2.959   4.706   2.111  0.1589  0.2386  0.0798
 8145PP      PP18249   2.277   7.281   7.995 -0.0374 -0.0155  0.0599
 8146PP      PP18250   3.626  10.921   9.851 -0.1296 -0.0737  0.2585
 8147PP      PP18251   8.255   6.491  11.964 -0.0223 -0.1289  0.1478
 8148PP      PP18252   1.055  16.151   0.270  0.2346  0.0887  0.0355
 8149PP      PP18253   1.729   3.837  10.478 -0.1926  0.4770  0.1085
 8150PP      PP18254  10.692   5.119  12.480 -0.2356  0.0371 -0.1832
 8151PP      PP18255   0.809   3.534  10.235 -0.0167 -0.0722  0.3574
 8152PP      PP18256  11.476   4.591  10.341  0.2112 -0.1324 -0.0685
 8153PP      PP18257   6.924  14.669  11.402  0.4794  0.2088  0.0199
 8154PP      PP18258   8.698  11.419   3.552 -0.3941  0.3615  0.1669
 8155PP      PP18259   7.179   4.552   8.787 -0.0635  0.1669 -0.0569
 8156PP      PP18260   3.156   6.617   3.267  0.2107  0.0828 -0.0797
 8157PP      PP18261  16.244   6.090  11.950 -0.1949  0.0588  0.0241
 8158PP      PP18262   2.866   2.912  12.325 -0.0651 -0.1572  0.0597
 8159PP      PP18263  12.905   7.479  11.193  0.2715  0.3729 -0.0695
 8160PP      PP18264   6.948   7.836   9.943 -0.3478 -0.3482 -0.0591
 8161PP      PP18265   1.298  15.593   2.401  0.2057  0.0644 -0.4493
 8162PP      PP18266  11.114   8.488   9.509  0.1390  0.2725  0.2723
 8163PP      PP18267   6.363  13.069   1.242  0.0917  0.0189  0.1218
 8164PP      PP18268   6.779   2.409   0.855 -0.0618 -0.2069 -0.1887
 8165PP      PP18269   8.175  15.949   4.206 -0.0008 -0.1553 -0.3465
 8166PP      PP18270  13.166   6.525   3.320  0.0469  0.3021  0.1979
 8167PP      PP18271  12.220   2.258   2.454 -0.1539  0.0596  0.0182
 8168PP      PP18272  15.389   4.716   8.198  0.1807  0.0211 -0.0563
 8169PP      PP18273   5.731   3.398   0.797  0.1015  0.0110  0.0389
 8170PP      PP18274   0.405  11.083   2.292  0.2321  0.4154 -0.0559
 8171PP      PP18275   1.715  15.336  12.207 -0.1762 -0.3513 -0.0347
 8172PP      PP18276  14.047   0.312   9.848 -0.0234 -0.2319  0.0213
 8173PP      PP18277   6.202  12.620   1.688 -0.0312 -0.2213 -0.1159
 8174PP      PP18278  14.330  10.971   2.156 -0.1966 -0.0742 -0.0773
 8175PP      PP18279   8.512   0.084  12.227  0.2455 -0.0348  0.0123
 8176PP      PP18280   0.869   4.292   3.143  0.0034 -0.2761 -0.3252
 8177PP      PP18281   3.080  15.253   0.431  0.0806 -0.2348 -0.0269
 8178PP      PP18282   2.578  10.072  12.373  0.3019 -0.0386 -0.2967
 8179PP      PP18283   6.360   1.542   4.541  0.3179 -0.0035 -0.2805
 8180PP      PP18284   5.795   8.370   8.357  0.2028 -0.1896  0.0463
 8181PP      PP18285  13.868  10.829   0.880  0.2696  0.0191  0.2537
 8182PP      PP18286   2.110   6.862   2.022  0.2127 -0.0102 -0.0414
 8183PP      PP18287  14.112   5.769   1.048  0.0862 -0.3369  0.0605
 8184PP      PP18288   6.115   2.980  10.616 -0.2577 -0.1062 -0.1146
 8185PP      PP18289  11.917  12.612  12.357 -0.0639  0.0836  0.1062
 8186PP      PP18290  10.714  10.556  10.890 -0.3794  0.0234 -0.0034
 8187PP      PP18291   1.392  12.012  10.054  0.0750  0.0100  0.0336
 8188PP      PP18292  14.131   0.700  11.792 -0.2150  0.2408  0.2283
 8189PP      PP18293  11.456   9.729   2.438 -0.1747 -0.1521  0.2495
 8190PP      PP18294   0.800   6.231  10.503  0.0043 -0.0531 -0.1159
 8191PP      PP18295   8.730  15.582  10.349  0.1285  0.2703  0.0302
 8192PP      PP18296  15.086   0.489   1.132 -0.3400 -0.0464  0.2040
 8193PP      PP18297   5.265  12.735   0.264 -0.0592 -0.1976 -0.2993
 8194PP      PP18298   2.488   6.493   9.000  0.0180  0.0160 -0.1678
 8195PP      PP18299  15.638  14.708   0.425  0.3527  0.1901 -0.1664
 8196PP      PP18300   5.212  12.866  12.464  0.0987 -0.1321  0.1413
 8197PP      PP18301   0.525  13.091  11.592  0.0959  0.0699  0.2758
 8198PP      PP18302  16.295   7.217  10.804 -0.0258  0.2063 -0.0751
 8199PP      PP18303  14.887  14.249  10.623 -0.3568  0.2056  0.1382
 8200PP      PP18304   7.175   8.148   3.436  0.0625  0.0015  0.1847
 8201PP      PP18305   0.417   5.044   8.385 -0.0472  0.0421 -0.3829
 8202PP      PP18306  12.776  10.400  11.412  0.0057 -0.1128 -0.0420
 8203PP      PP18307  12.450  16.292   9.501  0.0302 -0.2193 -0.2198
 8204PP      PP18308   3.458  11.780   0.082  0.0512  0.1918  0.1966
 8205PP      PP18309   1.509  11.111   1.383 -0.0402 -0.0029  0.3828
 8206PP      PP18310  11.503   3.239  12.062  0.1806  0.2742 -0.2901
 8207PP      PP18311   0.700   3.829   1.423 -0.1611  0.0077 -0.1539
 8208PP      PP18312   0.238  11.886   0.458 -0.0863 -0.2963 -0.2795
 8209PP      PP18313   6.108  15.492   8.898 -0.0997 -0.0981  0.4334
 8210PP      PP18314   1.171   8.283   2.771  0.1878 -0.2047 -0.0260
 8211PP      PP18315   9.326   5.218  11.335  0.1882  0.1293  0.1997
 8212PP      PP18316  14.840   9.999   3.392  0.1130  0.0714  0.0184
 8213PP      PP18317  12.971  14.929   2.294 -0.1903 -0.1154 -0.0071
 8214PP      PP18318   2.949  13.144   8.749  0.2031 -0.0179 -0.0223
 8215PP      PP18319   6.194   3.780   3.871 -0.0554 -0.0890  0.0544
 8216PP      PP18320   8.868  11.324  11.882 -0.0720  0.1182  0.3473
 8217PP      PP18321   8.084   5.372   8.420 -0.1423  0.2237  0.0135
 8218PP      PP18322   2.238  14.657   0.457  0.0876  0.1857  0.1318
 8219PP      PP18323   3.393   8.542   0.429  0.1561  0.0345 -0.2006
 8220PP      PP18324  15.157  11.502  10.255 -0.0609  0.0859 -0.1304
 8221PP      PP18325   2.627   7.034   0.028 -0.0123  0.1569 -0.1025
 8222PP      PP18326   5.525   4.095  12.742  0.0118  0.1127  0.0252
 8223PP      PP18327   4.686  14.881   2.822  0.2025  0.1727  0.1262
 8224PP      PP18328  15.187   0.380   0.532  0.1246  0.1220  0.1110
 8225PP      PP18329   7.207  10.478   3.436 -0.0977  0.0087  0.0196
 8226PP      PP18330  13.088  12.942   4.455 -0.0006 -0.0057 -0.3634
 8227PP      PP18331   8.131   2.364   9.549 -0.0850 -0.2423 -0.2110
 8228PP      PP18332  10.536   9.349  10.435 -0.1489  0.2954  0.5113
 8229PP      PP18333  15.373   8.957   0.641  0.0576 -0.2238 -0.3532
 8230PP      PP18334   7.513  10.023  12.566  0.0883  0.1962  0.0806
 8231PP      PP18335  12.523  10.631   1.252 -0.0952 -0.0926  0.1455
 8232PP      PP18336  11.145  15.859   2.406 -0.0505 -0.1017  0.0866
 8233PP      PP18337  15.001   0.319   9.337  0.0177  0.0193 -0.1326
 8234PP      PP18338   6.381   7.382   0.409 -0.1857 -0.0585 -0.2360
 8235PP      PP18339   3.047  13.285   0.270 -0.1530 -0.3152  0.0109
 8236PP      PP18340   8.579   5.985   7.991 -0.3520 -0.1580  0.2117
 8237PP      PP18341   3.128   6.094  10.301 -0.1553 -0.1807 -0.0139
 8238PP      PP18342   2.819  10.792  10.259  0.1559  0.1860  0.3248
 8239PP      PP18343   3.735  16.098  12.111  0.0609 -0.3726  0.0372
 8240PP      PP18344  16.037   5.746   0.145  0.0749  0.0462  0.2100
 8241PP      PP18345   8.075   9.854   9.776 -0.1542  0.0038  0.2151
 8242PP      PP18346   0.016   0.740   1.646  0.2176 -0.0315  0.1505
 8243PP      PP18347  15.798  13.979   2.178  0.0904 -0.0227 -0.0462
 8244PP      PP18348   1.344   5.359   1.256  0.1506 -0.0792 -0.0618
 8245PP      PP18349   0.148   9.112   1.707  0.0596 -0.0042  0.3866
 8246PP      PP18350  14.392   8.474   0.045 -0.0572  0.1029  0.1502
 8247PP      PP18351   4.490   0.804   2.908 -0.5904  0.1987 -0.0661
 8248PP      PP18352   1.566   8.564   8.493  0.0888  0.2339 -0.3676
 8249PP      PP18353   0.315   1.871  11.056  0.2791  0.0056 -0.1958
 8250PP      PP18354   1.635  10.952   2.699 -0.0470 -0.0867 -0.2345
 8251PP      PP18355  10.690   2.443  12.018  0.2081 -0.3292 -0.3364
 8252PP      PP18356   4.835  14.514   1.445  0.0001  0.3623  0.1431
 8253PP      PP18357   2.249  12.613   8.763 -0.1501 -0.0936 -0.0424
 8254PP      PP18358  13.673   7.994  10.286 -0.2401  0.3099 -0.1132
 8255PP      PP18359   4.472  10.513  11.200 -0.1142  0.0076 -0.1559
 8256PP      PP18360   1.567   3.588  12.598 -0.1634  0.0174 -0.0337
 8257PP      PP18361  12.434  10.625   8.335 -0.0125  0.2728 -0.0291
 8258PP      PP18362   6.148  16.077   4.481  0.0621 -0.0246  0.4676
 8259PP      PP18363   3.865   9.121   9.622  0.0475  0.1969 -0.0476
 8260PP      PP18364   9.071   0.785   2.223 -0.0855 -0.2253 -0.0626
 8261PP      PP18365   9.387  10.252   2.245  0.0751  0.2275 -0.1193
 8262PP      PP18366  11.387  11.205   3.232 -0.0190 -0.0181  0.0290
 8263PP      PP18367   1.739   4.813   7.748 -0.2041 -0.2147 -0.2608
 8264PP      PP18368  12.884   7.106  11.601  0.2845 -0.1897 -0.0623
 8265PP      PP18369   2.668  14.911   1.679 -0.0199 -0.2407 -0.1980
 8266PP      PP18370   4.035  13.526   3.101  0.0642 -0.0938 -0.3336
 8267PP      PP18371  11.773   2.736   8.566  0.2020 -0.0541  0.1274
 8268PP      PP18372  14.591   3.952   0.726  0.3006 -0.3631 -0.4083
 8269PP      PP18373  11.101   7.956   0.009 -0.0352 -0.0170 -0.0518
 8270PP      PP18374   6.262   5.797  10.716 -0.1495  0.1372  0.0967
 8271PP      PP18375   8.572  13.829   1.218  0.1696 -0.0985  0.0906
 8272PP      PP18376   4.202   6.418   1.983  0.2492 -0.3265 -0.1592
 8273PP      PP18377  16.103   2.998  11.135 -0.0760  0.0687  0.0746
 8274PP      PP18378   3.400  12.126   0.833 -0.0016 -0.0668  0.0658
 8275PP      PP18379   5.046  12.145   2.930 -0.0677 -0.0161 -0.0921
 8276PP      PP18380   3.154  15.889   4.097  0.2673 -0.2106 -0.1083
 8277PP      PP18381   2.477   3.443   3.871 -0.0484 -0.1081  0.1548
 8278PP      PP18382  12.607   4.894   0.568 -0.1761  0.0055 -0.0431
 8279PP      PP18383  11.703  15.391   0.889  0.2099  0.3030 -0.2843
 8280PP      PP18384  13.742  15.585   2.442 -0.0796  0.0474 -0.3155
 8281PP      PP18385  15.681   0.212   2.428  0.0397  0.1781 -0.1899
 8282PP      PP18386   7.535   9.859  10.143 -0.2555 -0.1032 -0.0679
 8283PP      PP18387   9.562   6.971   4.297  0.1021  0.1319 -0.0451
 8284PP      PP18388   6.880   2.414   3.240 -0.0074  0.5335 -0.2877
 8285PP      PP18389  15.234  11.752  11.226  0.2242 -0.1974  0.0323
 8286PP      PP18390  10.077   3.980  11.976 -0.2201  0.0187 -0.3987
 8287PP      PP18391   7.217   5.946   8.210  0.2308  0.1072 -0.1883
 8288PP      PP18392  15.057   9.061   7.817  0.1906 -0.3748 -0.0698
 8289PP      PP18393   2.081  11.248  10.520 -0.2405 -0.1609 -0.1201
 8290PP      PP18394  15.856   5.174   1.693 -0.3541  0.2649 -0.1232
 8291PP      PP18395  14.259  11.023   4.763 -0.2247 -0.0616 -0.2130
 8292PP      PP18396  14.279   0.143   9.165  0.0202  0.3537  0.0615
 8293PP      PP18397   4.723   2.506   3.124  0.2851  0.2442  0.2205
 8294PP      PP18398  15.004  15.164   3.327 -0.2182 -0.2178 -0.1362
 8295PP      PP18399   9.613   1.574   2.436 -0.2074 -0.1571 -0.4011
 8296PP      PP18400  11.176  10.831   9.835  0.1421 -0.2133 -0.3360
 8297PP      PP18401   4.591   8.536   3.636 -0.0324 -0.0912 -0.0211
 8298PP      PP18402  13.299   1.812   3.171 -0.2776  0.1308  0.0461
 8299PP      PP18403   8.226   7.973   3.762 -0.0062  0.0412  0.2374
 8300PP      PP18404  11.745   8.159  10.254 -0.0937 -0.2779 -0.1457
 8301PP      PP18405   8.091   7.221  12.728 -0.3791 -0.0050  0.0448
 8302PP      PP18406  15.221  13.090  11.772  0.2557  0.0218  0.2154
 8303PP      PP18407   9.139   1.904   3.782 -0.2971  0.1744  0.3607
 8304PP      PP18408  12.347   1.079   9.892  0.2798  0.3969  0.0584
 8305PP      PP18409  12.993   3.635  11.058  0.0885  0.2766 -0.1293
 8306PP      PP18410   2.773   3.491  10.361 -0.1231 -0.1125  0.1659
 8307PP      PP18411  16.007   7.562  10.593 -0.2385  0.0776  0.0335
 8308PP      PP18412  13.684   0.098   2.859  0.0136  0.1066 -0.3324
 8309PP      PP18413   4.233   5.074   8.647 -0.0669  0.0570 -0.1202
 8310PP      PP18414  13.422   9.884  10.655  0.1153  0.0744  0.3206
 8311PP      PP18415  14.466  10.439   2.376 -0.0580 -0.2084 -0.2086
 8312PP      PP18416   9.888   6.090   3.875 -0.1758  0.0805  0.2462
 8313PP      PP18417   4.186   6.092   8.581 -0.1003  0.0131 -0.3626
 8314PP      PP18418  13.531   4.963   2.434  0.2321  0.2667 -0.1129
 8315PP      PP18419   2.572   1.371   3.181 -0.0016  0.1829  0.0018
 8316PP      PP18420   2.751   9.447   3.223 -0.1279 -0.0403 -0.1134
 8317PP      PP18421  11.941  14.432   2.989 -0.1353  0.1677  0.0120
 8318PP      PP18422   5.413   3.873  11.173  0.2126  0.0028  0.1915
 8319PP      PP18423   8.292   3.677   9.635 -0.1431  0.1633 -0.0678
 8320PP      PP18424  14.458   1.881   3.649 -0.0450  0.2674  0.1763
 8321PP      PP18425   3.793  10.332   2.565  0.1593 -0.1062  0.0612
 8322PP      PP18426   4.152  10.212   0.571  0.0930  0.1063  0.3012
 8323PP      PP18427  14.660   5.514   9.522  0.0845  0.1798 -0.0935
 8324PP      PP18428   4.297   1.633   3.435  0.2277 -0.0128 -0.4285
 8325PP      PP18429   7.605  16.263   1.077 -0.2133 -0.1729 -0.1332
 8326PP      PP18430   9.832   9.722   1.379  0.2329 -0.1328 -0.0047
 8327PP      PP18431  14.933  10.925  10.220 -0.0316  0.1093 -0.0496
 8328PP      PP18432   1.506   8.046  11.720  0.1510 -0.0235  0.2217
 8329PP      PP18433  14.814  10.358   2.024  0.0224  0.0379 -0.0291
 8330PP      PP18434  16.147   1.645   2.314 -0.0961  0.1905 -0.3016
 8331PP      PP18435  14.939   6.877   2.930 -0.0261 -0.1093 -0.0283
 8332PP      PP18436   7.102   7.331   1.324 -0.3233  0.0200  0.1837
 8333PP      PP18437  11.175  15.231   2.404  0.0532 -0.2077  0.2054
 8334PP      PP18438   0.735   0.472   4.725  0.0795 -0.1837  0.1369
 8335PP      PP18439   4.911  15.357   2.990  0.0563  0.0394  0.0880
 8336PP      PP18440   2.867   2.441   1.501  0.0304  0.2980 -0.0545
 8337PP      PP18441  10.159   3.950   3.782  0.1490  0.0422  0.0779
 8338PP      PP18442   6.688   1.344  12.584  0.0138  0.0332  0.1956
 8339PP      PP18443  10.429  12.739   0.651 -0.2720 -0.0534 -0.1500
 8340PP      PP18444  15.169  12.530   0.546  0.0116 -0.1488  0.1383
 8341PP      PP18445   7.930   0.774  11.265  0.3367  0.3011  0.2442
 8342PP      PP18446   8.451   0.276   0.070  0.0021 -0.0987  0.0057
 8343PP      PP18447   6.586   8.571  12.429  0.3583 -0.0694  0.4079
 8344PP      PP18448  15.807  15.456   1.207 -0.0427  0.4744  0.0290
 8345PP      PP18449   3.036   8.122   8.932  0.0263 -0.0595 -0.3483
 8346PP      PP18450  11.288   8.914  10.314 -0.2573 -0.0157  0.0990
 8347PP      PP18451  13.603   5.551   8.380 -0.3274 -0.1895 -0.1417
 8348PP      PP18452   3.835   4.702   2.877 -0.2105  0.2276 -0.2302
 8349PP      PP18453   2.958  11.711   8.748 -0.1122 -0.2190 -0.0688
 8350PP      PP18454   5.617   9.872   0.691 -0.0221 -0.0362 -0.0669
 8351PP      PP18455  12.314   0.092  10.898  0.2457 -0.1102 -0.2296
 8352PP      PP18456   8.666  15.484   4.063 -0.1467 -0.3448  0.1960
 8353PP      PP18457  15.801  15.058   0.765  0.1913 -0.1490 -0.0346
 8354PP      PP18458  13.933  10.579  12.330  0.0014  0.0390  0.3916
 8355PP      PP18459  12.094  15.581   2.060 -0.0230 -0.0570 -0.0044
 8356PP      PP18460  11.774   5.985  10.835 -0.1185  0.6121  0.0079
 8357PP      PP18461  13.430  10.671   1.057  0.1327 -0.0568 -0.0509
 8358PP      PP18462  12.087  10.877   0.234 -0.2115 -0.0049  0.0674
 8359PP      PP18463   6.838   8.847   8.607 -0.0440  0.0341 -0.2666
 8360PP      PP18464   6.430  11.097  12.420  0.3495  0.1744  0.1792
 8361PP      PP18465  14.179   4.260  12.118  0.1208  0.1693  0.0695
 8362PP      PP18466  13.700  13.522   2.100  0.1691 -0.0479  0.0909
 8363PP      PP18467   5.209   8.212   8.373 -0.0636  0.1754  0.2029
 8364PP      PP18468   9.204  10.592   2.534 -0.1466 -0.1548 -0.0885
 8365PP      PP18469   9.150  12.599  11.021  0.0205  0.0490 -0.1072
 8366PP      PP18470   6.383  16.014   1.673 -0.1244  0.1101  0.0982
 8367PP      PP18471   6.807  15.361   9.247 -0.0160 -0.0539  0.4055
 8368PP      PP18472  15.156   4.057   0.324  0.0883 -0.1493 -0.1988
 8369PP      PP18473   4.121  11.627  12.148 -0.3071  0.1973 -0.3397
 8370PP      PP18474   1.593   0.962   1.080 -0.3452  0.0479 -0.1544
 8371PP      PP18475   5.661  10.630   1.378 -0.1593 -0.1510  0.1164
 8372PP      PP18476   7.055   2.924  11.407 -0.0337  0.1688  0.0062
 8373PP      PP18477  10.547   3.255  10.768 -0.3127 -0.3008  0.2488
 8374PP      PP18478   0.891  14.429  12.102  0.1312 -0.0852 -0.3004
 8375PP      PP18479  13.325   4.009  11.199 -0.0537 -0.0771  0.1926
 8376PP      PP18480  16.164   2.863   2.398 -0.1269  0.0063 -0.2150
 8377PP      PP18481  13.722   6.679  10.534  0.0747  0.0195  0.1136
 8378PP      PP18482   9.353   6.824   2.824  0.1525 -0.1785  0.4735
 8379PP      PP18483   0.753   9.603   3.682 -0.2113 -0.0904  0.1051
 8380PP      PP18484   4.275   0.108   3.707 -0.0325  0.2405 -0.2352
 8381PP      PP18485   2.487   0.275   4.525 -0.1002  0.1528 -0.2479
 8382PP      PP18486   7.750  16.258   4.337 -0.0656 -0.0472  0.0662
 8383PP      PP18487  10.842  13.903   9.699  0.1616 -0.1023 -0.1294
 8384PP      PP18488  15.128   2.094   4.088  0.3370 -0.2075  0.5184
 8385PP      PP18489  14.911   8.187  11.088 -0.0921 -0.0370  0.1172
 8386PP      PP18490  12.218   8.427  11.716  0.0319  0.3831 -0.1806
 8387PP      PP18491  14.555  14.968   0.771 -0.1023  0.1742 -0.0319
 8388PP      PP18492   4.048   2.954  11.647  0.0967  0.1111  0.1808
 8389PP      PP18493   7.091   7.146  11.556  0.1745  0.0700 -0.1146
 8390PP      PP18494  14.350   0.051   8.637  0.0112 -0.1411 -0.0168
 8391PP      PP18495  12.172   3.174   2.740  0.1292  0.1760  0.0019
 8392PP      PP18496   4.817   5.736   3.292  0.4159 -0.0737 -0.2381
 8393PP      PP18497   5.231  13.118   8.337 -0.1333 -0.0175 -0.3959
 8394PP      PP18498  14.354   6.427   3.372  0.0717  0.1480 -0.0961
 8395PP      PP18499   7.310  16.101   0.055 -0.0265 -0.2814  0.1742
 8396PP      PP18500   3.398  11.758  11.304 -0.2034 -0.0227 -0.0249
 8397PP      PP18501   1.736   9.898   2.491  0.5316  0.1004 -0.1578
 8398PP      PP18502  12.406  13.684   4.332  0.2007  0.0830  0.1602
 8399PP      PP18503  15.851  12.110   1.827 -0.0138 -0.3237 -0.0143
 8400PP      PP18504   2.145   2.249   0.614  0.1475 -0.2421  0.2062
 8401PP      PP18505   9.330   0.704  11.078 -0.1312 -0.3015 -0.3358
 8402PP      PP18506  10.450   8.779   0.090  0.1465  0.2159 -0.2003
 8403PP      PP18507  15.665   1.341  12.123  0.2842 -0.0023  0.1710
 8404PP      PP18508  13.984   9.894   9.947  0.1003 -0.2922  0.1205
 8405PP      PP18509   1.101   2.297   9.943  0.2848  0.0314 -0.0239
 8406PP      PP18510   5.057   5.876   8.430  0.1113  0.1050 -0.3538
 8407PP      PP18511  13.355   7.456  10.279  0.0392  0.2127 -0.0031
 8408PP      PP18512   1.504  15.688  10.011  0.4446 -0.1688 -0.2127
 8409PP      PP18513   9.425  11.434  10.207 -0.2162  0.1481 -0.0476
 8410PP      PP18514   1.377   2.146  11.789  0.1179  0.3758  0.2324
 8411PP      PP18515   8.366   0.677  11.457  0.1794  0.0738  0.1036
 8412PP      PP18516   4.128   8.174  12.323 -0.0868 -0.1296  0.3331
 8413PP      PP18517   8.528  11.251   2.840  0.0128  0.1227  0.1612
 8414PP      PP18518   9.354   2.264   0.156  0.0965  0.0560  0.0923
 8415PP      PP18519   7.379  12.784  10.099  0.3448 -0.0487  0.1107
 8416PP      PP18520   7.657   6.392   2.243 -0.2291  0.0226 -0.0214
 8417PP      PP18521   0.926   0.023  12.029  0.2294 -0.2622 -0.2082
 8418PP      PP18522   0.138   0.286  11.577 -0.1303  0.0847  0.0859
 8419PP      PP18523   5.853   1.309   1.632  0.0108 -0.2585 -0.0736
 8420PP      PP18524   1.003  13.133   3.531  0.0630  0.2053 -0.0289
 8421PP      PP18525  13.719   4.096  11.770 -0.0854  0.1296 -0.1326
 8422PP      PP18526   3.838  10.918   8.697 -0.0432 -0.4604  0.1061
 8423PP      PP18527   9.868   1.513  12.412  0.2562  0.0562  0.2369
 8424PP      PP18528   4.047  15.544   2.104  0.0467 -0.0552  0.1584
 8425PP      PP18529   5.834   5.503   0.190  0.3064 -0.1935 -0.2498
 8426PP      PP18530   4.721   7.000   0.865 -0.1380  0.0113 -0.1110
 8427PP      PP18531   1.341   1.242   9.987  0.0012 -0.1440  0.1705
 8428PP      PP18532   0.380   0.183   2.611  0.2028 -0.1385 -0.2903
 8429PP      PP18533   6.247   9.563  10.001  0.0638  0.3754 -0.0994
 8430PP      PP18534  16.333   5.305   0.928 -0.0752  0.0348 -0.3108
 8431PP      PP18535   9.354   7.295  12.169  0.0854  0.0943  0.2389
 8432PP      PP18536  14.395   1.717   4.519  0.0336  0.1472 -0.1922
 8433PP      PP18537   5.870  14.231  11.879  0.0331 -0.0952 -0.1963
 8434PP      PP18538  11.808   4.307   0.015 -0.1485 -0.4983  0.2702
 8435PP      PP18539  10.439  12.236   2.761 -0.0491 -0.1585 -0.2008
 8436PP      PP18540  10.337   5.142   0.533 -0.2154  0.3114 -0.0510
 8437PP      PP18541   7.592  15.389   1.050 -0.1720  0.1483  0.0784
 8438PP      PP18542   5.357  13.026   1.997  0.2561 -0.2948  0.2582
 8439PP      PP18543  10.255  14.811   2.267 -0.0982  0.1194 -0.1790
 8440PP      PP18544   0.754  15.706   4.072  0.0667 -0.4993 -0.0610
 8441PP      PP18545   6.868   1.749   4.550  0.2811  0.2404  0.2375
 8442PP      PP18546  16.335   3.447   3.035  0.0697  0.1248  0.2453
 8443PP      PP18547   3.227   2.102  10.598 -0.1932  0.0986  0.2688
 8444PP      PP18548   4.164   9.704   8.326 -0.1606 -0.0754  0.1174
 8445PP      PP18549  14.577   4.923  12.411 -0.2559 -0.0475 -0.0690
 8446PP      PP18550   2.450  12.906   3.471  0.2054 -0.3617 -0.2250
 8447PP      PP18551   3.304   6.446   8.384 -0.0305 -0.0956 -0.3235
 8448PP      PP18552   5.401  10.840   9.864  0.1532 -0.0884  0.0187
 8449PP      PP18553  10.313  14.955   0.441 -0.1251  0.0726  0.1388
 8450PP      PP18554  12.295   9.329  10.653 -0.0301 -0.3595  0.1277
 8451PP      PP18555   1.925  10.312   8.297  0.2966  0.1879  0.1070
 8452PP      PP18556   1.975   1.947   0.984  0.5540 -0.2427  0.0769
 8453PP      PP18557  11.953   4.376  10.189  0.1036  0.1976 -0.1885
 8454PP      PP18558   9.025  15.745  11.822  0.3981 -0.1430  0.2911
 8455PP      PP18559  12.447   1.349  11.305 -0.1305 -0.2370 -0.1304
 8456PP      PP18560   1.760  13.578  12.247 -0.0110  0.1527 -0.2168
 8457PP      PP18561   7.594   4.100   9.133 -0.2410 -0.0859  0.1418
 8458PP      PP18562   3.654  13.935   8.787  0.0832 -0.1259  0.2658
 8459PP      PP18563  12.163   8.766   0.933  0.2596 -0.1897  0.1357
 8460PP      PP18564  13.574   0.883   7.984  0.0027  0.0066  0.2795
 8461PP      PP18565  13.756   9.990   3.484  0.0260 -0.1098 -0.1401
 8462PP      PP18566  13.800   9.032   0.114 -0.1670 -0.1205  0.0194
 8463PP      PP18567  12.849   8.240  12.399 -0.1449  0.1145 -0.1485
 8464PP      PP18568  15.517   4.237   3.270  0.0872  0.3521 -0.0558
 8465PP      PP18569  14.239   4.552   7.399 -0.0660  0.4982  0.0686
 8466PP      PP18570   9.837  10.671   0.592  0.1577 -0.1136 -0.0847
 8467PP      PP18571  13.678   9.072  11.367  0.0934  0.1840  0.0349
 8468PP      PP18572   7.701  14.942   8.821 -0.0943 -0.3051 -0.3212
 8469PP      PP18573   0.151   4.552   2.876 -0.0430 -0.4721  0.0667
 8470PP      PP18574   9.679   4.219   9.345 -0.3453  0.0217 -0.5417
 8471PP      PP18575   2.680   7.073  11.121 -0.2228  0.0290 -0.0154
 8472PP      PP18576   0.506   8.116  10.301 -0.1740  0.0975 -0.1459
 8473PP      PP18577   4.645  16.273  10.310  0.1146  0.1798  0.2576
 8474PP      PP18578   2.017   2.731   2.622 -0.0768  0.0277 -0.0316
 8475PP      PP18579   0.396  13.932   1.693 -0.0125 -0.0322 -0.4055
 8476PP      PP18580   0.687   8.530   0.251 -0.1624  0.1397  0.0636
 8477PP      PP18581   8.913  14.575   3.106  0.0870 -0.1244  0.2868
 8478PP      PP18582   2.775  10.656   2.378 -0.2813  0.3053 -0.1080
 8479PP      PP18583   3.302  13.399   2.120 -0.1911  0.1202 -0.0516
 8480PP      PP18584  12.162   3.440  11.436  0.0884 -0.2109 -0.0649
 8481PP      PP18585   2.400  11.935   3.034 -0.1495  0.0454  0.0043
 8482PP      PP18586   8.752   2.614   3.289  0.0416 -0.4516  0.0394
 8483PP      PP18587   2.910   4.350   1.753  0.1591  0.1622  0.0206
 8484PP      PP18588   8.130  10.667  10.103 -0.0123  0.0733  0.1721
 8485PP      PP18589   8.995   6.602   9.272  0.0782 -0.1880  0.1497
 8486PP      PP18590  13.173  12.020   1.040 -0.1826  0.0745  0.2304
 8487PP      PP18591   5.473  10.111   7.961  0.1247 -0.1497  0.1463
 8488PP      PP18592   4.243   5.912   9.347  0.0018  0.2845 -0.1718
 8489PP      PP18593   3.930   2.777  10.940 -0.0292 -0.3767  0.0343
 8490PP      PP18594  13.058   9.165   2.460 -0.1804 -0.3590 -0.0456
 8491PP      PP18595   8.323   2.417  11.101 -0.0164 -0.0147 -0.2503
 8492PP      PP18596   4.621   7.449   3.592  0.1755 -0.2417  0.1516
 8493PP      PP18597   5.950   5.915   9.372 -0.1530  0.1535  0.1206
 8494PP      PP18598   9.123   7.093   2.460  0.0520 -0.0734  0.0884
 8495PP      PP18599  10.155  12.945   1.642 -0.1078 -0.0339 -0.3153
 8496PP      PP18600  12.963  15.809  11.354  0.2692  0.1982  0.1980
 8497PP      PP18601   4.675   0.289   1.295 -0.2896 -0.4002  0.0932
 8498PP      PP18602  12.626   1.422  10.335 -0.1081 -0.2822  0.0664
 8499PP      PP18603  13.347  15.800   3.365 -0.1715 -0.0263  0.0778
 8500PP      PP18604   6.304  14.569  11.953  0.3491 -0.0697 -0.1015
 8501PP      PP18605  14.283   0.452   0.628 -0.0961  0.2672 -0.0388
 8502PP      PP18606  12.832   1.953  10.360 -0.4179  0.0476  0.2007
 8503PP      PP18607   1.135   5.021  10.014 -0.1395 -0.0524  0.2010
 8504PP      PP18608  11.935  12.874   9.686 -0.0080 -0.0974 -0.0163
 8505PP      PP18609   0.277  13.403  11.255  0.2764 -0.1216  0.1142
 8506PP      PP18610   2.522   7.376  12.360  0.3258  0.2739  0.0001
 8507PP      PP18611   0.936   3.427   3.200  0.0382  0.1188  0.0245
 8508PP      PP18612   7.914  10.476   2.819  0.0201 -0.0610 -0.3620
 8509PP      PP18613   2.956  11.515  11.340  0.0771 -0.0135  0.0892
 8510PP      PP18614   4.076   2.601   9.618  0.0975 -0.1175  0.1226
 8511PP      PP18615   1.377  15.002   3.075 -0.0549  0.0744  0.2075
 8512PP      PP18616   6.963  11.325   2.850 -0.0813 -0.0711  0.2478
 8513PP      PP18617  10.398  13.055   2.251  0.0504  0.1250  0.0349
 8514PP      PP18618   0.587  12.044   8.888 -0.0412  0.2169 -0.4454
 8515PP      PP18619   7.387  12.677   2.262  0.0078 -0.2112 -0.0253
 8516PP      PP18620   9.339  11.974  12.574  0.1942 -0.1564 -0.0233
 8517PP      PP18621   7.177  10.437   1.069  0.0149 -0.2167 -0.0172
 8518PP      PP18622  13.664   8.868  10.898 -0.4523  0.1696 -0.0764
 8519PP      PP18623  14.651   7.283   2.825 -0.0043  0.1599  0.0840
 8520PP      PP18624   0.032  12.452   9.879 -0.0468 -0.1934 -0.1221
 8521PP      PP18625  10.257  15.713   2.267  0.3611 -0.1044 -0.0323
 8522PP      PP18626   2.605  13.489  11.623  0.0758  0.1627  0.1137
 8523PP      PP18627   0.099  14.767   9.991 -0.2960  0.2133  0.0178
 8524PP      PP18628   5.404   0.814  11.835  0.1538  0.2208 -0.1506
 8525PP      PP18629   9.219   1.556  10.519  0.1881  0.0984 -0.0427
 8526PP      PP18630  13.548  10.017  11.103 -0.3219  0.0749 -0.1678
 8527PP      PP18631   5.229  15.326   8.915 -0.1873  0.0585  0.2494
 8528PP      PP18632   5.785   4.157   8.979 -0.0449 -0.0289 -0.0229
 8529PP      PP18633   1.737  13.315   3.114 -0.0321 -0.0431 -0.1890
 8530PP      PP18634   3.478   2.732   4.706 -0.1674  0.1298  0.2719
 8531PP      PP18635   2.853  15.749  10.236  0.2035 -0.1485  0.2680
 8532PP      PP18636  12.700   1.868   0.401  0.1150 -0.2251 -0.2163
 8533PP      PP18637   0.770   0.215   0.117 -0.0208  0.0779  0.4120
 8534PP      PP18638   5.063   9.363   8.107  0.0400 -0.0143 -0.0305
 8535PP      PP18639   5.836  10.074  12.649 -0.1159 -0.0847 -0.2013
 8536PP      PP18640  16.276   0.061   9.216  0.0718 -0.3138  0.3705
 8537PP      PP18641   6.429  10.706  11.949 -0.0017  0.1100 -0.2904
 8538PP      PP18642  16.247  15.713   4.458  0.0685 -0.1118  0.2319
 8539PP      PP18643  15.745   6.871   2.269  0.1827  0.2465 -0.1173
 8540PP      PP18644  11.167  14.556   4.228 -0.0201 -0.2906 -0.2524
 8541PP      PP18645   7.432  13.486  12.628  0.0599  0.0611  0.2202
 8542PP      PP18646  10.334   0.944   0.621  0.2076 -0.1543  0.0883
 8543PP      PP18647  10.678  13.618   1.020  0.1592 -0.1854 -0.2436
 8544PP      PP18648   6.273   1.162   9.631 -0.1519 -0.0618 -0.2673
 8545PP      PP18649   2.220   0.137   3.342  0.0636 -0.4457 -0.0952
 8546PP      PP18650  16.032   5.517   9.835  0.0783  0.3149  0.1922
 8547PP      PP18651   7.545   6.063  11.128  0.2597  0.0247 -0.2038
 8548PP      PP18652   6.929   6.091   2.646  0.0127 -0.3222  0.0004
 8549PP      PP18653   5.321   0.568   4.796 -0.4465 -0.0191 -0.1570
 8550PP      PP18654   9.122  13.388   0.228 -0.2454  0.1441  0.0866
 8551PP      PP18655   6.291  12.591   0.161  0.4039  0.1399 -0.1400
 8552PP      PP18656   0.840   1.927  10.930  0.0513  0.0493  0.0774
 8553PP      PP18657   0.664   9.005  10.871  0.0330 -0.4798  0.1438
 8554PP      PP18658  12.309  10.070  11.408  0.0120  0.1670 -0.0269
 8555PP      PP18659   5.437   1.666  11.849 -0.0347 -0.1210  0.0305
 8556PP      PP18660   6.409   2.849   8.329  0.0933 -0.1167 -0.0235
 8557PP      PP18661   7.789  14.060   2.244 -0.0076  0.0497  0.0223
 8558PP      PP18662   1.050  11.777   2.844 -0.0442  0.1073 -0.0083
 8559PP      PP18663  14.912   6.356   9.850  0.0093 -0.0151  0.0284
 8560PP      PP18664   2.087   4.626   2.668 -0.1287  0.2791  0.1179
 8561PP      PP18665  12.885  11.606  12.587 -0.1728 -0.0932  0.0119
 8562PP      PP18666  14.353   1.058   8.473  0.0874 -0.4729 -0.1529
 8563PP      PP18667  10.576   5.370  12.048  0.0352 -0.2048 -0.0751
 8564PP      PP18668   5.863   7.490   2.163 -0.2175 -0.2629 -0.1240
 8565PP      PP18669   2.061   2.130   0.143 -0.3123  0.2470 -0.0260
 8566PP      PP18670   1.944  13.556   4.315  0.2799 -0.1318  0.0360
 8567PP      PP18671   0.411   2.033   3.831  0.0510  0.5585  0.2980
 8568PP      PP18672  13.234  11.817  11.276 -0.0804 -0.1643  0.1356
 8569PP      PP18673  11.154  13.394   0.934  0.1086  0.0216  0.1152
 8570PP      PP18674   3.120  11.018   9.891  0.3725 -0.0297 -0.0558
 8571PP      PP18675   5.726   8.661   1.662  0.0557 -0.1302  0.2414
 8572PP      PP18676   0.706   5.958  11.445  0.4792  0.1937 -0.4178
 8573PP      PP18677   4.813   9.293  10.293  0.0078  0.1859 -0.3398
 8574PP      PP18678   5.487  12.242   2.664 -0.0542 -0.0543 -0.1229
 8575PP      PP18679   9.101   2.039  10.753  0.0260  0.2677 -0.0637
 8576PP      PP18680   0.973   7.105   2.575 -0.2650 -0.0781  0.0672
 8577PP      PP18681   0.317   6.772   1.987  0.0051 -0.2357  0.0899
 8578PP      PP18682   8.983   3.509   0.113 -0.3165  0.1034  0.5709
 8579PP      PP18683   5.446   5.766   9.457  0.0396  0.1884  0.1982
 8580PP      PP18684   1.780   6.830   3.509  0.0117  0.4244 -0.0241
 8581PP      PP18685  15.020   5.070   8.300 -0.3386  0.0810 -0.0484
 8582PP      PP18686  15.522   4.406   1.058 -0.0085  0.2640  0.1804
 8583PP      PP18687   0.471   1.098  10.436 -0.1283 -0.0013 -0.2229
 8584PP      PP18688  12.664   0.247   9.950 -0.4972  0.2747  0.1729
 8585PP      PP18689  15.972  10.175   1.729  0.1205  0.0599 -0.1364
 8586PP      PP18690  14.168   3.146  10.153  0.3924 -0.3123 -0.0924
 8587PP      PP18691   3.681  10.951   8.157 -0.0072  0.2455  0.3865
 8588PP      PP18692   9.850   4.751  12.618  0.0796  0.4411 -0.3832
 8589PP      PP18693   1.334   2.884   1.990 -0.0409  0.0063  0.1275
 8590PP      PP18694   3.026   7.564   1.206  0.3734 -0.0339  0.0394
 8591PP      PP18695  14.669  14.329  12.395  0.1084 -0.0932  0.1028
 8592PP      PP18696  16.023   9.207  10.977  0.3774  0.0868 -0.0322
 8593PP      PP18697   2.698   6.471   0.022  0.0601  0.0585  0.1392
 8594PP      PP18698   5.071  14.608  12.244  0.0400  0.3672 -0.1801
 8595PP      PP18699   3.129  14.659   7.856 -0.0252  0.3678 -0.1844
 8596PP      PP18700  11.959   1.795   2.807 -0.2882  0.0399  0.1324
 8597PP      PP18701   8.257   8.583   0.460 -0.1092 -0.1113  0.1061
 8598PP      PP18702   0.331   1.794   9.735  0.1170  0.1565  0.2062
 8599PP      PP18703   2.550   6.907  10.655  0.2384  0.1792  0.3387
 8600PP      PP18704   0.271   6.091   8.216 -0.0281 -0.1192  0.0652
 8601PP      PP18705   0.234  15.201   2.758  0.1758  0.0370  0.0142
 8602PP      PP18706  15.697   8.604   2.440 -0.0561  0.0722 -0.0788
 8603PP      PP18707   8.063   1.529   1.826 -0.2767  0.1143 -0.0999
 8604PP      PP18708  16.235  13.782   1.258 -0.1167  0.1200  0.0702
 8605PP      PP18709  11.613  14.442  12.423 -0.0867  0.0792  0.0751
 8606PP      PP18710   5.237   0.205  11.596 -0.1648  0.0837  0.3163
 8607PP      PP18711  13.511  15.560   1.981 -0.1338 -0.1159 -0.0081
 8608PP      PP18712  10.826   0.736  10.845  0.3471  0.1484 -0.0684
 8609PP      PP18713   3.109   6.299  12.600 -0.2029  0.1271 -0.3065
 8610PP      PP18714   8.597   9.798   2.355  0.3383 -0.0742 -0.1694
 8611PP      PP18715   6.499  14.273  11.428 -0.0129  0.1511 -0.1398
 8612PP      PP18716   6.028   6.581   3.082 -0.0262  0.1878  0.3342
 8613PP      PP18717   4.819   3.331   9.522  0.0743 -0.1469  0.2791
 8614PP      PP18718   3.591   6.109  12.617  0.3147 -0.0593  0.1613
 8615PP      PP18719   3.668   2.300   3.666 -0.0920 -0.1963  0.1863
 8616PP      PP18720  10.198   9.725  11.443  0.2845 -0.4567  0.3099
 8617PP      PP18721  10.826   8.540  11.974  0.1736 -0.0007 -0.0457
 8618PP      PP18722   3.128   5.606   9.650  0.0492  0.0196  0.3418
 8619PP      PP18723   2.789  13.830   9.187  0.0984 -0.2199 -0.0134
 8620PP      PP18724   3.586  15.019   3.961  0.1515 -0.1944 -0.1984
 8621PP      PP18725  10.288  15.162   9.415  0.0923  0.1360  0.3193
 8622PP      PP18726   6.862   4.060   9.609 -0.1802 -0.0338 -0.1554
 8623PP      PP18727  11.994   7.452   3.865 -0.0777 -0.3007  0.0896
 8624PP      PP18728   7.621  15.661  12.747 -0.0936  0.0914 -0.1937
 8625PP      PP18729   2.413   4.715   9.063  0.0902 -0.1001  0.0655
 8626PP      PP18730  15.604   6.972   3.631  0.0223  0.0377  0.3364
 8627PP      PP18731   1.850   3.787  12.105 -0.0369  0.1309 -0.2293
 8628PP      PP18732  14.911   9.590  11.322  0.3724 -0.1221 -0.1481
 8629PP      PP18733   1.675   0.072  12.396  0.1295  0.1275 -0.0837
 8630PP      PP18734   7.456   2.013  12.503  0.0113  0.0664 -0.1345
 8631PP      PP18735  10.643   6.970  11.255  0.2486  0.1071 -0.1427
 8632PP      PP18736   2.258  10.061   8.633 -0.2715 -0.5785  0.1445
 8633PP      PP18737  13.568  14.066  10.582 -0.0536 -0.0131 -0.2591
 8634PP      PP18738  13.252  10.974   3.581  0.0223  0.0318 -0.1675
 8635PP      PP18739   6.766   5.155  12.034  0.1962 -0.1721  0.0146
 8636PP      PP18740  14.475  14.159   1.489 -0.0196  0.0623  0.1586
 8637PP      PP18741   4.010   1.365  10.825 -0.0901 -0.0368 -0.1751
 8638PP      PP18742  10.831  12.120   9.002 -0.2044 -0.0805  0.0442
 8639PP      PP18743   6.515   9.755  10.365 -0.0621 -0.0830  0.1998
 8640PP      PP18744   3.642  14.761   2.659  0.1685  0.2407  0.1939
 8641PP      PP18745   3.584   9.219  10.836 -0.0718  0.2442  0.1846
 8642PP      PP18746   6.347   9.995   0.391  0.1896  0.1129 -0.1254
 8643PP      PP18747   9.922   9.333   4.017  0.0912 -0.0631  0.2081
 8644PP      PP18748   6.663   9.406   8.372  0.0067 -0.1726 -0.1165
 8645PP      PP18749   8.287   8.141  12.111 -0.1733  0.1246  0.0087
 8646PP      PP18750   3.019  12.044  11.213 -0.0383 -0.4231 -0.1697
 8647PP      PP18751   7.020   9.640   8.955  0.1808 -0.1778 -0.0634
 8648PP      PP18752   1.312   6.292  10.665 -0.1123 -0.2570  0.1018
 8649PP      PP18753   8.250  12.925   2.718  0.2121 -0.3394 -0.2361
 8650PP      PP18754   5.533  16.088  12.373 -0.2864  0.2439  0.1228
 8651PP      PP18755  13.946   8.118  12.053  0.0103  0.2333  0.2588
 8652PP      PP18756  16.278  12.312   3.084  0.2615  0.4274 -0.1024
 8653PP      PP18757   8.068   4.301   3.650 -0.1914 -0.0123  0.0196
 8654PP      PP18758   6.814   7.261  11.966 -0.1020 -0.1432  0.1400
 8655PP      PP18759  16.024   1.491  11.602  0.0178  0.0792 -0.2105
 8656PP      PP18760   5.694   4.501   1.563  0.2091  0.1817  0.3428
 8657PP      PP18761  12.964  10.015   1.748 -0.0256  0.3184 -0.5390
 8658PP      PP18762   8.299  14.059  11.685 -0.1869  0.0867  0.0674
 8659PP      PP18763   2.703   6.597   1.497 -0.1617  0.1047 -0.0174
 8660PP      PP18764  15.239   1.987  12.657  0.0225  0.0529 -0.1808
 8661PP      PP18765   4.059  12.691   9.647 -0.0226 -0.0868  0.1445
 8662PP      PP18766  15.907   3.865   8.167  0.0339 -0.1470 -0.0189
 8663PP      PP18767  14.396  16.354   2.983  0.0943 -0.1131 -0.2600
 8664PP      PP18768  15.132  11.727   1.053  0.0473 -0.2442 -0.0297
 8665PP      PP18769   7.408  10.782   8.217 -0.2426 -0.0512  0.3103
 8666PP      PP18770  13.296   5.217   8.156 -0.1088  0.0368  0.1570
 8667PP      PP18771  11.037   8.352   8.212  0.1875  0.0486  0.2782
 8668PP      PP18772   5.988  13.574  11.012  0.1596 -0.0189 -0.0540
 8669PP      PP18773  12.330   2.711   1.458 -0.0548 -0.0838 -0.1375
 8670PP      PP18774   8.774   4.502  11.136  0.0151 -0.0108 -0.2214
 8671PP      PP18775   3.486  14.730  12.638  0.0443  0.0988 -0.0615
 8672PP      PP18776   7.074   9.514  11.134 -0.1611 -0.3495 -0.0005
 8673PP      PP18777  15.923   4.690   1.648 -0.0562  0.2584 -0.0190
 8674PP      PP18778   1.831  13.512   2.107  0.2732  0.3338 -0.1193
 8675PP      PP18779   6.243  11.822   2.405 -0.1506 -0.0230  0.1471
 8676PP      PP18780  13.667  11.912   4.642  0.1400  0.0195 -0.0428
 8677PP      PP18781   1.421   4.614  11.082  0.2043 -0.1850  0.0425
 8678PP      PP18782  13.531   7.907   3.323  0.4081  0.1350  0.0517
 8679PP      PP18783  10.468   6.173  10.670 -0.3023  0.2508  0.1238
 8680PP      PP18784  12.686  16.256  10.467 -0.2829  0.2172  0.0663
 8681PP      PP18785   8.055  15.202   1.186 -0.0267 -0.3177  0.2060
 8682PP      PP18786   7.283  14.051   2.975  0.0125 -0.1339 -0.1994
 8683PP      PP18787   8.167   6.444   2.047 -0.1217  0.1505  0.0324
 8684PP      PP18788  11.379  10.773   0.544  0.3311 -0.2103  0.1845
 8685PP      PP18789   7.210  10.210   0.182  0.0796  0.4751 -0.1388
 8686PP      PP18790   7.984   7.621   8.428  0.2446  0.1565  0.2375
 8687PP      PP18791  14.712   7.230  11.719 -0.0192  0.3229 -0.0409
 8688PP      PP18792   2.894  16.144   0.066  0.0643  0.1295  0.0775
 8689PP      PP18793   2.611   4.455   0.250 -0.2370 -0.0944 -0.4375
 8690PP      PP18794  10.135  15.546   2.803  0.1459  0.1531 -0.1549
 8691PP      PP18795   8.458   8.258  10.226  0.3523  0.1235  0.4435
 8692PP      PP18796   3.189   4.718   0.987  0.3720 -0.1290 -0.2457
 8693PP      PP18797  14.295   7.725   1.893  0.1837 -0.0960 -0.3167
 8694PP      PP18798  13.800   0.911   2.810 -0.1070 -0.0843 -0.1603
 8695PP      PP18799   5.494  13.893  11.621  0.0190  0.0241 -0.1114
 8696PP      PP18800   4.404   2.730   0.244 -0.0181 -0.0473 -0.1732
 8697PP      PP18801  13.553   2.217   2.398  0.0271  0.0669 -0.0010
 8698PP      PP18802   6.456  13.890   8.406  0.1593 -0.4128 -0.0831
 8699PP      PP18803   9.013   6.116   2.452  0.0001  0.0921 -0.3037
 8700PP      PP18804   5.650  13.078  12.263 -0.1701 -0.2734 -0.0336
 8701PP      PP18805   9.644   6.084  12.700  0.0548  0.0549  0.1599
 8702PP      PP18806   1.798   5.347   8.628 -0.0469 -0.2379 -0.2341
 8703PP      PP18807   2.680   6.014   2.678 -0.1436  0.3723 -0.0492
 8704PP      PP18808   7.057   9.551   0.625  0.1863 -0.2045 -0.0095
 8705PP      PP18809  12.044   0.581   3.299  0.0630  0.2059 -0.0954
 8706PP      PP18810  15.085   4.212   2.899 -0.0855  0.2685  0.0988
 8707PP      PP18811   4.587  16.258   9.666 -0.0103  0.2830  0.3557
 8708PP      PP18812   0.706   0.704   9.059  0.1425 -0.3148  0.1094
 8709PP      PP18813   5.400   6.218   8.653 -0.1323  0.2301  0.0417
 8710PP      PP18814   6.955   6.987   8.112  0.0323  0.3654 -0.1856
 8711PP      PP18815   4.263   9.385   7.940  0.2295  0.1144  0.3087
 8712PP      PP18816   9.988  13.846   3.209  0.0002  0.0924  0.1925
 8713PP      PP18817   5.879  10.087   9.648 -0.0821  0.1316  0.1413
 8714PP      PP18818  10.863  12.712  10.161  0.4523  0.0670  0.0965
 8715PP      PP18819  14.243  14.929   1.959  0.1823  0.2729  0.0296
 8716PP      PP18820   0.705   3.777   4.252 -0.0885 -0.0529  0.1068
 8717PP      PP18821   4.031   6.310   3.174  0.1075  0.1663  0.1276
 8718PP      PP18822  14.173   3.604   7.845 -0.1121  0.2147 -0.0086
 8719PP      PP18823  15.497   5.209   8.124  0.2091  0.0661 -0.1727
 8720PP      PP18824   2.578   7.701  10.132  0.2113  0.0687  0.1716
 8721PP      PP18825   4.510  12.978   0.225  0.1179  0.1868 -0.0907
 8722PP      PP18826   6.495  13.359   3.916  0.0993 -0.0024  0.1709
 8723PP      PP18827  13.884  14.266   1.964  0.3372  0.1802  0.0704
 8724PP      PP18828   6.413   8.207   2.306 -0.0467  0.0720  0.0454
 8725PP      PP18829  13.849   2.611   3.186  0.0871 -0.0558 -0.1187
 8726PP      PP18830  11.027  13.629   2.630  0.0077 -0.2960 -0.2393
 8727PP      PP18831   4.098   3.222   0.250 -0.0106 -0.1490  0.2078
 8728PP      PP18832  15.013  12.141   2.129 -0.1127  0.0563 -0.1259
 8729PP      PP18833   5.751   1.580  10.097 -0.3293  0.0754 -0.1985
 8730PP      PP18834   8.678   3.674   0.682 -0.3403 -0.1640  0.0077
 8731PP      PP18835  10.560  11.709   8.642  0.1441 -0.1053  0.0113
 8732PP      PP18836  15.916  15.823   1.564  0.1562 -0.2643 -0.0982
 8733PP      PP18837   8.635  11.162   4.631  0.1054 -0.0335 -0.1525
 8734PP      PP18838  11.248   0.945  12.357  0.0640 -0.4016  0.1723
 8735PP      PP18839  13.249   6.666   9.716  0.2994 -0.2085 -0.1166
 8736PP      PP18840  15.553   2.432   3.114  0.2943  0.2017 -0.0837
 8737PP      PP18841   1.684   0.004   4.024 -0.3353  0.1391  0.1793
 8738PP      PP18842   4.904  10.140   1.961  0.0764 -0.1549 -0.0038
 8739PP      PP18843   6.632  14.497   0.127 -0.3039  0.0052 -0.2027
 8740PP      PP18844   3.051   7.212   0.723 -0.1077  0.0127 -0.0986
 8741PP      PP18845  11.079   2.097  11.010  0.0802  0.2179 -0.1145
 8742PP      PP18846  10.608   5.921   0.914 -0.0307 -0.1184 -0.0750
 8743PP      PP18847   7.828   6.493  11.570  0.2151  0.0145  0.0827
 8744PP      PP18848  14.885   3.054  11.743 -0.0317  0.0527  0.0095
 8745PP      PP18849  14.550   3.781  10.539 -0.1768  0.0350  0.2398
 8746PP      PP18850  13.295   3.337  11.394  0.4662 -0.0364  0.0247
 8747PP      PP18851   9.123  10.215   3.940  0.1146 -0.0380 -0.2128
 8748PP      PP18852  14.385   4.543   2.719 -0.0016 -0.2491 -0.1484
 8749PP      PP18853   0.853   3.144   3.815 -0.0489 -0.0171  0.0890
 8750PP      PP18854   0.909   3.129  11.045 -0.1122  0.1981  0.0783
 8751PP      PP18855   5.524  10.964   0.962  0.4903 -0.2702 -0.2383
 8752PP      PP18856   0.224  12.584   3.441 -0.2727  0.3465  0.5105
 8753PP      PP18857   3.525  16.332   3.821 -0.1782  0.0347 -0.0996
 8754PP      PP18858   3.582   9.920   2.964  0.1211  0.0951 -0.1395
 8755PP      PP18859  10.068  10.421  12.144  0.0329 -0.0182  0.1204
 8756PP      PP18860  11.036   0.501   2.770  0.1614 -0.0838  0.0513
 8757PP      PP18861   6.415  14.803  11.314  0.5661  0.1021 -0.1637
 8758PP      PP18862  14.446   8.948   3.143 -0.1133 -0.2505 -0.2906
 8759PP      PP18863  10.146   8.187   8.529  0.0160 -0.0265 -0.1544
 8760PP      PP18864  10.662   6.548   2.384 -0.1210 -0.0571  0.0084
 8761PP      PP18865  10.679  15.400   0.070  0.4589  0.0530  0.0785
 8762PP      PP18866   6.423  11.033   9.182  0.0116 -0.1610 -0.0311
 8763PP      PP18867   2.067  14.029  10.399 -0.0215  0.1447 -0.0187
 8764PP      PP18868  10.731   3.858   2.102  0.0594  0.1165  0.3631
 8765PP      PP18869  16.278   7.267   3.060 -0.0062  0.0781  0.1895
 8766PP      PP18870   2.137  14.704   3.440  0.2103  0.0355 -0.1664
 8767PP      PP18871   0.629   8.846   9.905  0.0867 -0.0290  0.1049
 8768PP      PP18872   2.878   2.637   0.354 -0.0262 -0.1331 -0.1926
 8769PP      PP18873   0.725   3.331  11.828 -0.0810  0.1388 -0.0787
 8770PP      PP18874  14.825   5.644   1.080  0.0008 -0.1291  0.0567
 8771PP      PP18875  12.934   1.587  12.120 -0.1499 -0.0900  0.2435
 8772PP      PP18876  11.737   6.390   2.568  0.1129  0.0089 -0.1332
 8773PP      PP18877  12.493   5.289  10.324  0.1111 -0.1279  0.0754
 8774PP      PP18878  15.748   7.275   8.657 -0.2467  0.1873  0.1406
 8775PP      PP18879   1.536  15.346  11.207  0.1181  0.0689 -0.1431
 8776PP      PP18880   6.322   6.285   8.289  0.0858  0.2416  0.1446
 8777PP      PP18881   7.447   6.851   3.986 -0.0060  0.0092 -0.0892
 8778PP      PP18882   4.699   6.863   3.551  0.0274  0.0435 -0.2330
 8779PP      PP18883  11.082   3.137   9.851  0.1855  0.1639 -0.2872
 8780PP      PP18884   2.125   2.861   3.503 -0.0557 -0.0080 -0.0874
 8781PP      PP18885  15.992  10.568  11.676 -0.0821  0.1123 -0.0252
 8782PP      PP18886   7.402   4.869   0.119 -0.1121  0.0228  0.0431
 8783PP      PP18887  14.845  15.953   4.211  0.1854  0.2135  0.2769
 8784PP      PP18888   5.176  16.065   2.515  0.0759 -0.0067  0.1873
 8785PP      PP18889  16.008   3.315   2.304 -0.0339 -0.3404  0.0479
 8786PP      PP18890   3.508  11.549   3.639 -0.1597 -0.0443 -0.1087
 8787PP      PP18891  13.177   3.956   8.972  0.2923  0.3565  0.1110
 8788PP      PP18892  14.567  12.506   1.013  0.1744  0.0534  0.0377
 8789PP      PP18893  11.958  14.852   3.942 -0.0121  0.3597  0.0655
 8790PP      PP18894  11.287   0.983   3.942 -0.0897 -0.1270 -0.0310
 8791PP      PP18895  14.788   4.710  11.587 -0.1151  0.0155 -0.0119
 8792PP      PP18896   7.748   7.286  11.992 -0.1521 -0.0589 -0.1170
 8793PP      PP18897   6.422   8.780   1.001 -0.1095  0.1656  0.3234
 8794PP      PP18898   1.345  12.587  11.229 -0.1053 -0.0415 -0.1004
 8795PP      PP18899   5.784   2.976   0.419  0.2581 -0.0974 -0.0742
 8796PP      PP18900   8.371   9.248   2.319 -0.2436  0.0332  0.1744
 8797PP      PP18901   5.358   4.102   2.856  0.1400  0.2156  0.4703
 8798PP      PP18902   8.770  11.969   9.688 -0.3373 -0.1936  0.0696
 8799PP      PP18903   4.088   7.131  10.800  0.2102  0.2503  0.0081
 8800PP      PP18904   1.746   8.441   0.340 -0.2029  0.0584  0.0870
 8801PP      PP18905  15.118   8.082   0.099 -0.2127  0.0255  0.0998
 8802PP      PP18906   7.922  12.719   4.895  0.1807  0.1922 -0.1867
 8803PP      PP18907  13.766   5.405   2.339 -0.3262 -0.1285 -0.0250
 8804PP      PP18908  15.061  12.893  10.965  0.1320  0.1944  0.0243
 8805PP      PP18909   7.391   3.049   1.409 -0.1260 -0.2416  0.0844
 8806PP      PP18910  13.912  15.242   0.081  0.3666 -0.2621  0.2007
 8807PP      PP18911  11.203  15.326   3.194 -0.0826 -0.0656 -0.0498
 8808PP      PP18912   4.642   3.270   9.079 -0.1343  0.0148  0.0454
 8809PP      PP18913   7.515   8.826   0.911  0.0681 -0.2020  0.1451
 8810PP      PP18914  15.758  13.934   3.438  0.1882 -0.1372  0.1533
 8811PP      PP18915   3.125  15.952  11.164  0.0589 -0.1728  0.3138
 8812PP      PP18916  15.143   5.728  10.804  0.0920 -0.1505  0.0777
 8813PP      PP18917   1.823   9.724  11.091 -0.1742  0.2429 -0.0925
 8814PP      PP18918   7.683  13.759   4.299 -0.0355  0.0354  0.0195
 8815PP      PP18919   8.469   9.307  11.447  0.1278 -0.4321  0.0769
 8816PP      PP18920   6.997   6.324  10.448  0.3845  0.2273  0.1652
 8817PP      PP18921   3.651  15.834   3.680  0.2917 -0.1755  0.1768
 8818PP      PP18922   4.919   2.483   9.375  0.2804 -0.0290 -0.4524
 8819PP      PP18923   9.588  15.361   0.430 -0.1173 -0.4633 -0.1601
 8820PP      PP18924   4.593  12.673   7.975 -0.0727 -0.2171 -0.1602
 8821PP      PP18925   6.420  16.111   8.592  0.1571 -0.1767 -0.2171
 8822PP      PP18926   4.725   4.360  11.416 -0.0702 -0.3218 -0.0909
 8823PP      PP18927   7.325  11.820  10.038  0.1096  0.1732 -0.1879
 8824PP      PP18928  15.086   6.046  11.728 -0.0229 -0.1853  0.0984
 8825PP      PP18929  15.344  13.061   9.939  0.0050 -0.1761  0.1168
 8826PP      PP18930  11.960  14.195  11.519 -0.2257 -0.1553 -0.0092
 8827PP      PP18931  12.929  14.071   0.412 -0.0591 -0.1430 -0.2300
 8828PP      PP18932   1.416   4.542   1.465 -0.1368  0.1012  0.0859
 8829PP      PP18933   5.339  12.965  10.139 -0.2396  0.1984 -0.1382
 8830PP      PP18934   9.538   2.953  10.374 -0.0811  0.3521  0.1967
 8831PP      PP18935   6.833   0.825   5.156 -0.0948 -0.0942  0.0950
 8832PP      PP18936  12.718   8.810   1.601  0.0448  0.3039  0.3396
 8833PP      PP18937   8.720  14.027   3.616 -0.1121  0.0559  0.1351
 8834PP      PP18938   3.846   9.102   1.970  0.3817  0.0770 -0.0584
 8835PP      PP18939  15.444  13.382   0.172 -0.3555 -0.0628  0.2089
 8836PP      PP18940  15.411  11.676   8.996  0.0675 -0.1181  0.0778
 8837PP      PP18941   5.159   6.798   9.487 -0.0032  0.1298  0.1493
 8838PP      PP18942   7.462   8.337  10.415  0.1509 -0.3564 -0.0640
 8839PP      PP18943   8.041   4.619   0.185 -0.2490  0.0442 -0.1774
 8840PP      PP18944   2.326   9.721   9.752  0.2325  0.1317  0.0853
 8841PP      PP18945   9.179  14.455   8.997  0.0556  0.1400 -0.1234
 8842PP      PP18946  16.195   1.002   9.762 -0.2716 -0.0722  0.0530
 8843PP      PP18947   6.761  12.102   2.214  0.0506  0.1643 -0.0459
 8844PP      PP18948   6.297  13.481   0.324 -0.0025  0.2183 -0.1560
 8845PP      PP18949   8.689  16.190   0.280  0.2310 -0.3340  0.0498
 8846PP      PP18950  15.220  13.959   0.965  0.1013  0.1535  0.3584
 8847PP      PP18951  11.598  11.832   8.942  0.1283  0.0583  0.0982
 8848PP      PP18952   0.209   5.029   0.593  0.3175 -0.0377  0.1127
 8849PP      PP18953  15.603   6.899   8.303  0.2183  0.4164 -0.0862
 8850PP      PP18954   1.817   6.109   7.811  0.0830  0.1699 -0.2131
 8851PP      PP18955   5.022   9.370   8.623  0.1242 -0.0563  0.1664
 8852PP      PP18956   2.945   3.843   1.784  0.2405  0.0550 -0.1106
 8853PP      PP18957   9.773   3.771   8.536 -0.1182  0.4110 -0.1551
 8854PP      PP18958  13.588   5.434  10.475 -0.2040  0.3169 -0.0541
 8855PP      PP18959   1.870  11.199  12.217 -0.1387 -0.0572  0.0265
 8856PP      PP18960   2.610   1.947  10.253  0.0266 -0.3065 -0.1685
 8857PP      PP18961  10.191   8.145   9.799  0.2048 -0.1293  0.1712
 8858PP      PP18962   7.690  15.316   1.947 -0.0358 -0.0691 -0.0049
 8859PP      PP18963   2.320   0.232  10.521 -0.2528  0.0418  0.0890
 8860PP      PP18964   9.728   6.398   9.311 -0.5401 -0.0799 -0.2407
 8861PP      PP18965   4.227   2.909  12.594  0.1848  0.3261 -0.0558
 8862PP      PP18966  14.941   7.376   2.395 -0.2163  0.1151  0.2282
 8863PP      PP18967  15.053   4.985   3.808 -0.1205 -0.3007  0.0105
 8864PP      PP18968   5.422  16.353  10.706  0.2724 -0.0266 -0.0896
 8865PP      PP18969   9.879   8.328   1.718  0.1143  0.0669 -0.2000
 8866PP      PP18970   3.335   9.178   2.309  0.3610 -0.2318  0.0390
 8867PP      PP18971   2.317   8.137   3.209 -0.1915  0.2132 -0.2746
 8868PP      PP18972   8.397   7.570  10.157 -0.0318 -0.0104 -0.1126
 8869PP      PP18973   0.160  12.150   3.694 -0.1281  0.1140  0.2671
 8870PP      PP18974   8.785   6.994   8.412  0.4701  0.2211 -0.1524
 8871PP      PP18975   9.341   6.043   9.569 -0.0604 -0.1042  0.2633
 8872PP      PP18976   3.952   0.343   3.433 -0.1498  0.1013  0.0144
 8873PP      PP18977  15.861  10.176   8.316  0.1215  0.2262  0.2331
 8874PP      PP18978   4.508   8.233  10.536 -0.0784  0.2082 -0.0875
 8875PP      PP18979   0.885  11.673  12.293 -0.1946 -0.2006  0.1573
 8876PP      PP18980   1.655  15.081   9.590  0.1414  0.2081  0.1987
 8877PP      PP18981   9.458  14.694   9.908 -0.1347 -0.2442 -0.0491
 8878PP      PP18982   4.368  12.070  10.870  0.0912 -0.0383  0.3346
 8879PP      PP18983  13.092  14.830  11.247  0.5116 -0.0711 -0.1135
 8880PP      PP18984   4.758   2.810  12.466  0.0709 -0.1025 -0.4906
 8881PP      PP18985   9.241   6.087   8.563 -0.0208  0.2195  0.1323
 8882PP      PP18986   4.483   3.823   1.279 -0.1423 -0.3489 -0.3654
 8883PP      PP18987   6.955   9.515   2.599  0.1433  0.0892  0.0932
 8884PP      PP18988   1.522   7.527   0.734  0.1860 -0.2942 -0.0712
 8885PP      PP18989  11.736   4.592  11.972  0.2439 -0.0087 -0.0406
 8886PP      PP18990   0.258   0.655   2.136 -0.2791  0.1644 -0.1404
 8887PP      PP18991  10.750   7.585   2.134 -0.2944  0.1044 -0.0884
 8888PP      PP18992  16.115  14.005   0.817 -0.0017  0.1491 -0.0640
 8889PP      PP18993  10.800   8.066   0.414 -0.0875 -0.1048 -0.2115
 8890PP      PP18994   9.803   1.583  11.079  0.0998  0.1051  0.3701
 8891PP      PP18995   3.340   0.201   0.234  0.3408 -0.1013 -0.0763
 8892PP      PP18996   9.178  16.204  10.731  0.2233  0.2748 -0.3130
 8893PP      PP18997  11.773   4.812   2.690 -0.1534 -0.1775  0.0792
 8894PP      PP18998   0.971   6.521  12.650 -0.0625  0.0327 -0.2982
 8895PP      PP18999  11.226   7.867   8.359  0.1278 -0.1141  0.1389
 8896PP      PP19000   1.681   5.628  12.276  0.1280 -0.0755  0.3299
 8897PP      PP19001   9.705   0.187   3.824 -0.1560 -0.2001  0.3317
 8898PP      PP19002  16.258  11.148   1.604  0.0545 -0.0618  0.0297
 8899PP      PP19003  13.290   6.828   1.420  0.0332 -0.1411  0.2535
 8900PP      PP19004  14.081  13.912  12.173  0.0285  0.1818  0.4278
 8901PP      PP19005  10.112   1.321  10.266 -0.2597 -0.0256  0.1190
 8902PP      PP19006   7.396  16.273   4.987 -0.1917 -0.1938 -0.0849
 8903PP      PP19007   3.435  14.272  12.399 -0.2183 -0.0883  0.0516
 8904PP      PP19008  15.746   5.912   1.146  0.0920 -0.2145  0.4493
 8905PP      PP19009   3.312   7.651   0.760 -0.1190 -0.0300  0.1828
 8906PP      PP19010  12.724   3.500  11.460  0.1211  0.2878  0.3079
 8907PP      PP19011  15.928   6.011   3.256 -0.0675  0.1014  0.0165
 8908PP      PP19012   8.579   3.661  12.372  0.2561 -0.1315 -0.0461
 8909PP      PP19013  11.470   8.347   1.400  0.4836 -0.0203  0.1864
 8910PP      PP19014   9.854   5.191  11.545 -0.1277 -0.1197 -0.0491
 8911PP      PP19015   3.861   6.385   2.422 -0.0034 -0.0735 -0.1897
 8912PP      PP19016   1.645   4.519   2.294  0.1160 -0.3220  0.0343
 8913PP      PP19017  10.251   5.795   1.840 -0.0240 -0.5389  0.1598
 8914PP      PP19018   1.556   4.082   8.319 -0.0339 -0.0497  0.1530
 8915PP      PP19019   1.526  11.994   0.917 -0.2780 -0.3394 -0.1873
 8916PP      PP19020   1.894   5.015   2.417  0.2004  0.1648 -0.1270
 8917PP      PP19021  11.367  16.174   2.103 -0.3521 -0.1785  0.3536
 8918PP      PP19022   0.752   2.709   3.626 -0.1061  0.1371  0.2631
 8919PP      PP19023  11.224  12.400   1.168  0.5868  0.0620 -0.0432
 8920PP      PP19024   4.227   9.277   9.159 -0.1418  0.1449 -0.0863
 8921PP      PP19025  12.460   7.168   1.503  0.0035 -0.0693  0.2765
 8922PP      PP19026   1.782  15.531   3.366 -0.0936 -0.0108  0.0584
 8923PP      PP19027  10.020  15.239   2.346 -0.1084  0.1070 -0.0774
 8924PP      PP19028   8.871   3.330   8.909 -0.1074 -0.0484  0.2116
 8925PP      PP19029  10.028   2.155   4.205  0.2206 -0.1322 -0.3209
 8926PP      PP19030  15.331   5.026  11.698  0.2901 -0.0597 -0.0372
 8927PP      PP19031  10.623  13.620  10.107  0.2689 -0.2467  0.5126
 8928PP      PP19032   3.752   6.656   1.473  0.2700 -0.0236 -0.1991
 8929PP      PP19033   9.458  13.109   9.859 -0.0941 -0.1462  0.3315
 8930PP      PP19034   7.438   6.978   1.502  0.2956 -0.1863  0.4763
 8931PP      PP19035   7.126   0.707   1.568 -0.1774  0.1669 -0.0065
 8932PP      PP19036   0.561   3.071   9.784  0.2703 -0.2260 -0.0561
 8933PP      PP19037   9.642  15.908   9.695  0.1386  0.1604 -0.1163
 8934PP      PP19038  12.945   4.265   3.618  0.0185  0.3398  0.1827
 8935PP      PP19039  16.185   9.566  11.779 -0.2577  0.4116 -0.1556
 8936PP      PP19040   2.042  10.159  12.359  0.1954  0.2123 -0.0887
 8937PP      PP19041  12.342   5.819   8.443 -0.1296 -0.0948  0.1541
 8938PP      PP19042   3.900  13.972   1.722  0.2126  0.3101  0.0002
 8939PP      PP19043  11.015  10.673  11.887  0.3040  0.0621  0.3729
 8940PP      PP19044  12.496   2.215   8.626  0.1418 -0.0817 -0.0669
 8941PP      PP19045  12.990   3.187  10.031  0.0489  0.2732 -0.0706
 8942PP      PP19046   2.688   4.520   8.581 -0.0994  0.1157  0.1156
 8943PP      PP19047   3.081   5.107   7.956  0.2456  0.1558 -0.0886
 8944PP      PP19048   4.005  11.486   8.183  0.1061  0.2149  0.0553
 8945PP      PP19049   5.709   4.890  11.377  0.1384  0.0012 -0.0647
 8946PP      PP19050   3.304   5.365   8.360  0.0040 -0.3101 -0.0712
 8947PP      PP19051  12.130   8.182   8.693  0.2663  0.0101 -0.2244
 8948PP      PP19052   8.897   6.438   2.892  0.1736 -0.4058 -0.0629
 8949PP      PP19053   3.060  12.229  10.450 -0.0855 -0.1505  0.0050
 8950PP      PP19054  12.789   8.169  10.317  0.0329 -0.0795  0.2918
 8951PP      PP19055  14.295   3.080   4.021  0.4341 -0.4568  0.3241
 8952PP      PP19056   6.645   9.750   3.284  0.3315 -0.0373 -0.4059
 8953PP      PP19057   3.786  12.023   3.682  0.2646  0.1519  0.0410
 8954PP      PP19058   2.207   5.092   2.857 -0.2436  0.2110  0.0544
 8955PP      PP19059   6.563   3.952  12.722  0.1129 -0.3465  0.1969
 8956PP      PP19060   6.697   5.628   2.463  0.1284  0.0068  0.3798
 8957PP      PP19061   2.504   5.318  11.862  0.0957 -0.1450 -0.0969
 8958PP      PP19062   3.918   5.947   0.366 -0.2036 -0.0238 -0.1258
 8959PP      PP19063  13.040  13.513   2.651 -0.1812 -0.0277 -0.1346
 8960PP      PP19064  14.817  10.543  11.175  0.0610  0.0942  0.0474
 8961PP      PP19065   1.793  12.383  11.245  0.2113 -0.0743 -0.0033
 8962PP      PP19066   9.885  16.148   1.282  0.0815  0.1253 -0.0778
 8963PP      PP19067   6.717   5.516   1.781  0.0355 -0.1596 -0.0334
 8964PP      PP19068   8.876   2.295   1.590  0.2466 -0.1307  0.0942
 8965PP      PP19069   6.689  13.062  11.181 -0.1793 -0.0614  0.1047
 8966PP      PP19070   6.524  11.995  10.393  0.0538 -0.3523  0.0421
 8967PP      PP19071   4.241  11.638   7.228 -0.1887  0.0720  0.3280
 8968PP      PP19072   6.417  14.767  10.057  0.0441  0.0681 -0.3574
 8969PP      PP19073  11.751   9.710   1.971 -0.2249 -0.1053  0.3903
 8970PP      PP19074   2.076   8.841   0.474  0.4166  0.1935 -0.1859
 8971PP      PP19075   2.522   7.279   9.710  0.1243 -0.0966 -0.0668
 8972PP      PP19076   4.125   7.656   8.355  0.0168 -0.3133  0.1133
 8973PP      PP19077   6.772   5.366   0.522 -0.0757 -0.0879 -0.1220
 8974PP      PP19078   7.881   3.870  11.401 -0.0774 -0.0810  0.1614
 8975PP      PP19079   1.450  14.497  12.173  0.0402  0.2975 -0.0034
 8976PP      PP19080   3.719   6.648  10.015  0.0208  0.1839  0.0047
 8977PP      PP19081   1.608  11.041  10.430  0.0123  0.0175  0.2094
 8978PP      PP19082   0.533   6.445   8.813 -0.0755  0.3137  0.0240
 8979PP      PP19083  14.110  15.575   3.750  0.0064  0.0265 -0.2076
 8980PP      PP19084  14.172  15.251   2.837  0.1998 -0.1317 -0.0192
 8981PP      PP19085  10.681   9.856   3.155 -0.1109 -0.0954  0.3791
 8982PP      PP19086  10.863   1.704  11.885  0.4608  0.1925  0.0314
 8983PP      PP19087   7.881   1.464   9.159 -0.0454 -0.0817 -0.3153
 8984PP      PP19088  15.258   0.872  11.478  0.2746 -0.0759 -0.1702
 8985PP      PP19089  12.709   3.157  10.553 -0.0673  0.0634 -0.0496
 8986PP      PP19090   4.687  12.054   9.667 -0.0722 -0.1621 -0.0491
 8987PP      PP19091   6.305  14.890  12.641  0.0354 -0.1873 -0.3091
 8988PP      PP19092   4.201  13.148   1.864 -0.1959 -0.3710 -0.0893
 8989PP      PP19093  14.794   2.133  11.326 -0.3724 -0.0109  0.2162
 8990PP      PP19094   1.212  11.412   0.585  0.0116 -0.1500 -0.0199
 8991PP      PP19095   3.366   9.052   7.960 -0.0298 -0.0131 -0.1466
 8992PP      PP19096   6.163   2.234  11.297  0.3230  0.0211  0.1950
 8993PP      PP19097  14.711  13.883   1.036 -0.0759  0.1735  0.2704
 8994PP      PP19098  14.673   6.726  10.484  0.0245 -0.1702  0.0325
 8995PP      PP19099   8.151   3.197   3.397  0.0877 -0.0848 -0.1890
 8996PP      PP19100  13.992   0.499   3.091  0.0336 -0.0544  0.0667
 8997PP      PP19101  12.262   1.709   3.770 -0.0107 -0.1063 -0.1472
 8998PP      PP19102   6.232  11.702   8.441  0.0802 -0.3311  0.2576
 8999PP      PP19103   1.468  10.109   1.178 -0.0415 -0.2691 -0.0998
 9000PP      PP19104  12.527   7.001   8.353  0.0881  0.0310  0.0050
 9001PP      PP19105   1.838   5.313   2.042 -0.1903 -0.0694 -0.2176
 9002PP      PP19106   7.909  14.982  10.780  0.2340 -0.0508  0.2981
 9003PP      PP19107   7.281   9.141   8.523 -0.0793  0.1720 -0.1005
 9004PP      PP19108  12.551   2.097   9.099 -0.0419 -0.1709  0.0867
 9005PP      PP19109   9.432   4.169   9.826 -0.0275  0.0289  0.2807
 9006PP      PP19110  10.374  14.960   4.539 -0.5165 -0.4355  0.1398
 9007PP      PP19111  10.578   3.949   2.995 -0.0784 -0.1419 -0.1169
 9008PP      PP19112   0.219  13.525   4.073 -0.2747 -0.2538  0.2161
 9009PP      PP19113   8.293   1.836   8.711  0.2366  0.1089 -0.3673
 9010PP      PP19114   1.856   6.396   4.283  0.1870  0.2867  0.0496
 9011PP      PP19115  11.424  14.915   3.227 -0.2210 -0.0273 -0.3201
 9012PP      PP19116  14.360  13.714   1.370 -0.0291  0.2799  0.1974
 9013PP      PP19117   5.591  16.024   2.039 -0.1515  0.1526  0.0465
 9014PP      PP19118  11.905   8.515   1.232 -0.2021  0.1935 -0.1072
 9015PP      PP19119  10.803  14.651  10.120 -0.0290 -0.1870  0.2360
 9016PP      PP19120   8.807   4.410  10.099  0.2317 -0.2532 -0.0739
 9017PP      PP19121  13.143  10.119   0.262  0.1475 -0.1531 -0.0628
 9018PP      PP19122   8.981   6.910   1.869  0.0568  0.3020 -0.1898
 9019PP      PP19123   5.335   0.542   1.092  0.0561 -0.1199 -0.0871
 9020PP      PP19124   6.692   6.398  10.017  0.0228 -0.1517  0.1260
 9021PP      PP19125   7.277   1.900  10.494  0.2113  0.0902  0.1543
 9022PP      PP19126   3.448   9.763   0.023  0.1499 -0.1795  0.2637
 9023PP      PP19127  10.716   1.721  12.718  0.2351 -0.4058 -0.1238
 9024PP      PP19128  12.892   9.252  11.556 -0.0293 -0.1394  0.0800
 9025PP      PP19129  13.262  14.209   4.313  0.2245 -0.0480  0.0934
 9026PP      PP19130  14.525   4.498  10.533  0.0349 -0.0510 -0.1837
 9027PP      PP19131   3.108   6.721   2.280 -0.1195 -0.3305  0.1946
 9028PP      PP19132   9.114   3.425   8.445 -0.0201  0.1478  0.0863
 9029PP      PP19133  13.648  15.791  12.092 -0.1620 -0.1903  0.1177
 9030PP      PP19134   1.332   9.391  11.687  0.0260 -0.1106 -0.1526
 9031PP      PP19135  15.657   9.594  10.272 -0.2672  0.5173 -0.0501
 9032PP      PP19136  11.713   0.221   3.617  0.0579 -0.1430 -0.1372
 9033PP      PP19137  16.227  14.796   1.511 -0.0203  0.1536  0.2907
 9034PP      PP19138  14.981   6.936  12.620 -0.1038 -0.0046  0.2635
 9035PP      PP19139   8.967   8.793  11.902 -0.1209 -0.1324 -0.1058
 9036PP      PP19140  15.480   4.422   8.600  0.0858 -0.0176 -0.2313
 9037PP      PP19141  10.176   7.469  11.491 -0.2529 -0.0891 -0.0809
 9038PP      PP19142   5.254  11.365   1.135  0.3181 -0.1644  0.1859
 9039PP      PP19143  11.945   0.012  11.385  0.0414  0.0197 -0.1461
 9040PP      PP19144   4.841   7.481  10.195 -0.0561 -0.1701 -0.1502
 9041PP      PP19145  15.153   3.266   8.929 -0.2643  0.3155 -0.0569
 9042PP      PP19146   9.807   5.539   9.186 -0.2330 -0.3029 -0.0611
 9043PP      PP19147  10.188   6.004  11.033 -0.1296  0.3701  0.1426
 9044PP      PP19148   8.429   4.102   9.355  0.0334 -0.2066  0.1633
 9045PP      PP19149  13.213   3.734   9.452  0.2209 -0.0162 -0.0746
 9046PP      PP19150  10.643   4.174   8.116  0.3885 -0.1742 -0.0117
 9047PP      PP19151   0.528  14.876   3.537 -0.1962  0.1225  0.3467
 9048PP      PP19152  13.245  11.477   0.209  0.2567 -0.0687 -0.1600
 9049PP      PP19153   9.462   0.005   9.406  0.1288 -0.1199 -0.1933
 9050PP      PP19154  16.102   6.076   2.469 -0.2531 -0.5098  0.2435
 9051PP      PP19155  12.146   9.475   3.343  0.2366 -0.1043  0.3334
 9052PP      PP19156  14.442  11.294   2.978 -0.1365  0.1914  0.0640
 9053PP      PP19157   2.003   3.510   9.109  0.5427 -0.0593 -0.0551
 9054PP      PP19158   5.356   8.917   1.089 -0.0729 -0.0180  0.1698
 9055PP      PP19159   3.650   9.886   8.341 -0.0752 -0.3331 -0.1626
 9056PP      PP19160   1.624   4.269  11.424 -0.2866  0.0225 -0.0099
 9057PP      PP19161  15.383  15.044   1.225 -0.2149 -0.1380 -0.0394
 9058PP      PP19162  13.541   8.344   0.877 -0.1864 -0.0907 -0.1066
 9059PP      PP19163  15.520   6.471  12.166 -0.4110  0.0431  0.2049
 9060PP      PP19164   5.069  15.540   3.720  0.0423  0.0641  0.1161
 9061PP      PP19165   0.911   3.204   1.980 -0.1384 -0.1369  0.0627
 9062PP      PP19166  14.247  11.961  10.465  0.0896  0.0903 -0.0313
 9063PP      PP19167   3.095  10.212   8.576 -0.0301  0.1684 -0.2678
 9064PP      PP19168  10.140   5.231  10.350 -0.0277  0.1982  0.1665
 9065PP      PP19169  15.387  14.503  11.529  0.0276 -0.2011 -0.4312
 9066PP      PP19170   5.980  10.408   3.402  0.0397  0.2244 -0.0832
 9067PP      PP19171   3.600  14.797   9.374  0.1916 -0.0676  0.2315
 9068PP      PP19172  14.793  12.873  10.558  0.2285 -0.0242  0.0267
 9069PP      PP19173   2.441   0.114  11.097 -0.1069 -0.2414 -0.0622
 9070PP      PP19174  12.955   7.843   3.320 -0.1186  0.0896  0.1472
 9071PP      PP19175   2.808   3.956   3.725 -0.1275  0.3060 -0.0829
 9072PP      PP19176   3.564   7.748   9.142 -0.1077 -0.0571 -0.1349
 9073PP      PP19177   6.977   0.543   9.147  0.3388  0.0950 -0.1642
 9074PP      PP19178   5.918   8.495   9.997  0.0206  0.1557 -0.0968
 9075PP      PP19179   4.292  14.000   9.748  0.1594  0.1584  0.3925
 9076PP      PP19180   7.512  14.702  10.442 -0.1406  0.1018 -0.3913
 9077PP      PP19181  12.116   3.305  12.272  0.2049  0.1164 -0.0182
 9078PP      PP19182   6.790   2.963  11.808  0.1069 -0.4482  0.0437
 9079PP      PP19183   2.526   1.757   1.763 -0.1694  0.0709  0.0481
 9080PP      PP19184   6.585  10.329  10.150  0.4029  0.0360  0.0999
 9081PP      PP19185   5.790   0.090   8.391  0.0467  0.2250 -0.1038
 9082PP      PP19186   3.927   1.305   3.576 -0.1242  0.0929  0.1746
 9083PP      PP19187   4.632  10.858   3.955 -0.2814 -0.0760 -0.3098
 9084PP      PP19188  14.804  12.854   1.308  0.0351  0.0772  0.1479
 9085PP      PP19189   8.500   7.725  12.238  0.0888  0.3526  0.1455
 9086PP      PP19190  15.020   9.138  11.538  0.1246 -0.1909 -0.1137
 9087PP      PP19191  12.585   3.110   8.168  0.0331 -0.0182  0.0051
 9088PP      PP19192   3.148   5.070   3.405 -0.1661  0.0648  0.1536
 9089PP      PP19193   7.579  16.136   3.280 -0.2028  0.0735 -0.1111
 9090PP      PP19194  12.422  12.850   9.594 -0.1489  0.4302 -0.0070
 9091PP      PP19195  14.038   5.902   8.421 -0.0460  0.1725  0.0564
 9092PP      PP19196   6.538   2.565  12.664 -0.0088 -0.1079 -0.0192
 9093PP      PP19197  11.200   9.817   0.152 -0.1129  0.1276 -0.0604
 9094PP      PP19198   6.462  15.134   8.929 -0.1749 -0.0612  0.1314
 9095PP      PP19199   9.503   2.425   8.759 -0.0228  0.3363 -0.0455
 9096PP      PP19200  12.407   2.633   0.940  0.2727 -0.0897  0.1127
 9097PP      PP19201  15.428  16.195   0.001 -0.0321  0.0292 -0.2684
 9098PP      PP19202   6.028  11.331   2.193  0.3331  0.0986 -0.4043
 9099PP      PP19203   6.850  11.705   2.520 -0.0975 -0.1180  0.0149
 9100PP      PP19204   6.632  16.264  10.108  0.0490 -0.2938 -0.1175
 9101PP      PP19205  10.025   5.963   2.269  0.4239  0.2587 -0.1196
 9102PP      PP19206  15.943   1.802  12.505  0.1120 -0.0705 -0.4434
 9103PP      PP19207  11.187   6.415   2.319  0.0221  0.2998  0.0240
 9104PP      PP19208   9.633   2.102   3.180 -0.1011  0.1106  0.0610
 9105PP      PP19209  10.540   7.060  11.754  0.1314  0.2837  0.1135
 9106PP      PP19210  15.932   4.351  10.100 -0.3899 -0.2630 -0.1304
 9107PP      PP19211  13.482  15.109   1.469 -0.3186 -0.0454 -0.1442
 9108PP      PP19212  11.106   3.570   0.113  0.1486  0.0456 -0.1521
 9109PP      PP19213   6.743  11.222   3.820 -0.0702 -0.1174 -0.1251
 9110PP      PP19214   1.343   6.582   2.572  0.0871 -0.2093  0.2752
 9111PP      PP19215  12.856   2.326   0.799  0.0335 -0.2732 -0.1094
 9112PP      PP19216   6.643  13.210   9.259 -0.1227 -0.0101  0.0055
 9113PP      PP19217  11.803   1.752   3.958 -0.2785 -0.0478 -0.1733
 9114PP      PP19218  14.799  15.525   9.710  0.2254  0.2060  0.3099
 9115PP      PP19219   2.370  13.459   0.137  0.7336  0.0386 -0.0663
 9116PP      PP19220   0.428  15.681   8.656  0.2657 -0.1784 -0.0612
 9117PP      PP19221  15.023  13.560  10.411  0.2801  0.1718 -0.0167
 9118PP      PP19222   2.835  11.428   9.170 -0.2428  0.1766  0.1601
 9119PP      PP19223  15.531  13.958  12.719 -0.3389 -0.0067 -0.0028
 9120PP      PP19224   9.745   3.505   1.352  0.1081  0.0486 -0.2484
 9121PP      PP19225  15.611  11.088   0.842 -0.2382  0.1200  0.2743
 9122PP      PP19226   0.424  14.567   9.609 -0.1019 -0.1491  0.1149
 9123PP      PP19227  10.122   0.348   3.103 -0.6315  0.0976 -0.0292
 9124PP      PP19228   6.070  10.556  12.732  0.2814 -0.1238  0.0885
 9125PP      PP19229   0.058   8.141   2.324 -0.1355 -0.1339  0.1278
 9126PP      PP19230  13.316   2.667  10.910  0.0829  0.2344 -0.1598
 9127PP      PP19231   4.236  11.729   7.801 -0.4891 -0.0835  0.1010
 9128PP      PP19232  11.587   1.396   8.031  0.1112  0.1698  0.1797
 9129PP      PP19233   0.747   0.979  11.195 -0.4299 -0.0290  0.1888
 9130PP      PP19234   1.186  12.233   0.598  0.0978 -0.2616 -0.0146
 9131PP      PP19235   6.647  15.288   2.153  0.2034 -0.0075 -0.1206
 9132PP      PP19236  15.266   1.644   8.454 -0.5143 -0.1406 -0.4219
 9133PP      PP19237  10.325   3.091   2.771  0.0931 -0.3427 -0.3142
 9134PP      PP19238   0.661   4.028  10.307 -0.1578 -0.2838  0.1425
 9135PP      PP19239   3.397   5.083   8.838 -0.1113  0.0916  0.0424
 9136PP      PP19240   8.411  11.045   9.138 -0.2112  0.0512  0.1413
 9137PP      PP19241   6.207  13.104  12.439  0.1915 -0.2566  0.0128
 9138PP      PP19242   7.252   8.442   8.491  0.1559 -0.0658  0.1309
 9139PP      PP19243  12.466   1.513   2.926 -0.0740 -0.2502 -0.0690
 9140PP      PP19244   7.754  12.017   4.180 -0.3010  0.1732 -0.1008
 9141PP      PP19245  14.112   2.892   3.545 -0.1417  0.1506  0.0625
 9142PP      PP19246   2.094   1.885  12.482  0.1224 -0.3112  0.0062
 9143PP      PP19247  11.470   4.276   9.595 -0.0964  0.0678  0.0170
 9144PP      PP19248   5.191   3.470   9.155 -0.0578  0.0018  0.0411
 9145PP      PP19249  11.182  12.618  12.613  0.1799 -0.2235  0.1259
 9146PP      PP19250  15.618   5.736  11.119  0.0757  0.1490 -0.0475
 9147PP      PP19251   9.053   3.219   0.620 -0.0076  0.3089  0.1142
 9148PP      PP19252  15.709  14.314  11.860 -0.1409 -0.3376  0.3851
 9149PP      PP19253   1.948   3.462   1.700 -0.0094 -0.2934 -0.2368
 9150PP      PP19254   3.589   3.560   4.177  0.0499  0.0785  0.2949
 9151PP      PP19255  13.355   1.942  11.964 -0.1256 -0.1312  0.0317
 9152PP      PP19256   0.511  15.854   0.948  0.0898  0.3678  0.1825
 9153PP      PP19257  13.388   9.572   8.736  0.0898  0.2536 -0.2093
 9154PP      PP19258  12.563  10.031  10.159  0.1552  0.0547 -0.2917
 9155PP      PP19259   4.979  12.581   8.322  0.0160 -0.1137  0.1649
 9156PP      PP19260   1.234  10.640   2.613 -0.2554 -0.0459  0.4411
 9157PP      PP19261   9.466   2.076   4.113  0.3574  0.1957 -0.0715
 9158PP      PP19262  11.985   6.060  11.259 -0.0562  0.0254  0.0473
 9159PP      PP19263   3.193  13.050   9.997 -0.0265 -0.2504 -0.0792
 9160PP      PP19264  13.842   0.581   3.903 -0.1073 -0.0922  0.1495
 9161PP      PP19265  10.671  11.456  10.434  0.2975  0.3279  0.1228
 9162PP      PP19266   5.529  12.394  11.891 -0.0352 -0.3591  0.0072
 9163PP      PP19267  16.137   5.274   2.459  0.0047 -0.0008  0.1640
 9164PP      PP19268  11.906  12.482   0.883  0.1703  0.1353  0.1829
 9165PP      PP19269   6.269  10.197   2.355 -0.1773  0.1672  0.1727
 9166PP      PP19270   2.729   6.938   1.888 -0.0796  0.1053  0.0053
 9167PP      PP19271   4.408  11.181  11.988 -0.1256  0.0870 -0.1646
 9168PP      PP19272   6.216   8.576   1.437 -0.4415 -0.4380  0.4003
 9169PP      PP19273  11.297  10.939   2.465 -0.0409  0.0800 -0.1386
 9170PP      PP19274   5.230   5.512   8.123  0.0070  0.0639  0.0921
 9171PP      PP19275   3.357  16.068   0.987  0.2284 -0.0181  0.2559
 9172PP      PP19276   9.192   9.083   4.488 -0.1110  0.1101  0.1212
 9173PP      PP19277   2.683   7.875  12.256 -0.1694 -0.0343  0.2299
 9174PP      PP19278  10.416   5.487   0.152 -0.2026  0.0739  0.0775
 9175PP      PP19279  15.563   3.118   8.677  0.2494 -0.3525 -0.1616
 9176PP      PP19280  10.961   5.821  11.356  0.0186  0.1089 -0.2230
 9177PP      PP19281  10.660   2.074   2.035 -0.0664 -0.2055  0.0651
 9178PP      PP19282   6.701  15.769  10.654 -0.1391 -0.0930 -0.2234
 9179PP      PP19283  16.012  11.706   3.680 -0.1628  0.1250 -0.1459
 9180PP      PP19284   2.820  14.082  11.714 -0.2692  0.1048 -0.1512
 9181PP      PP19285   9.375   0.517   9.501  0.0831  0.1114 -0.3246
 9182PP      PP19286  13.073  12.134   8.237  0.2368  0.0637  0.0399
 9183PP      PP19287  11.746  13.744   1.649 -0.1562  0.0591 -0.2319
 9184PP      PP19288  10.732   4.118   3.424 -0.2442  0.1100  0.0109
 9185PP      PP19289   5.007   0.244  10.398  0.2205  0.1988  0.2289
 9186PP      PP19290   7.077   2.684   1.668  0.0311  0.2228 -0.1878
 9187PP      PP19291   7.625   6.094   1.846 -0.2057 -0.5372  0.1679
 9188PP      PP19292  11.237   1.893   2.037  0.2694  0.0927  0.1305
 9189PP      PP19293  10.219   9.850   9.351  0.4048 -0.0733  0.0403
 9190PP      PP19294  15.687   0.754   3.437 -0.1660  0.0424  0.0853
 9191PP      PP19295   9.237  15.425   8.797  0.2021 -0.1285 -0.2154
 9192PP      PP19296  15.970   5.435  10.994  0.1710 -0.1321 -0.2012
 9193PP      PP19297   2.100   7.455  11.521 -0.1442  0.0508 -0.3593
 9194PP      PP19298  14.247   5.728   0.322 -0.0337  0.0475 -0.4243
 9195PP      PP19299  12.607   8.573   2.425 -0.0684 -0.0316 -0.0826
 9196PP      PP19300   7.409   9.321  10.194  0.0898  0.2031  0.3358
 9197PP      PP19301   9.102   9.887  11.584 -0.1023 -0.2716 -0.0428
 9198PP      PP19302   5.212  12.496  10.582  0.2340  0.1375 -0.2876
 9199PP      PP19303   9.984   3.794   0.879  0.1108 -0.2391 -0.1374
 9200PP      PP19304  13.137   1.391   0.860  0.2133  0.2027 -0.0924
 9201PP      PP19305  16.114  10.464   2.129  0.0938  0.0005  0.1581
 9202PP      PP19306  13.639   6.024   0.822  0.0113  0.0055  0.1599
 9203PP      PP19307   1.893  13.158   8.790  0.0595  0.1272 -0.1334
 9204PP      PP19308   7.936  16.229   1.472  0.0887 -0.3477  0.1615
 9205PP      PP19309   5.096  11.862   0.897  0.0880  0.1232  0.1643
 9206PP      PP19310   1.608  12.677   1.447  0.0430 -0.2651 -0.0425
 9207PP      PP19311  11.399   1.666   8.583 -0.1269 -0.1653  0.3605
 9208PP      PP19312   2.750   7.642   0.663  0.0920 -0.1250  0.0106
 9209PP      PP19313   2.807   6.886   9.023 -0.2993 -0.1410  0.1236
 9210PP      PP19314  14.294   2.352  11.399 -0.4197  0.1684 -0.1897
 9211PP      PP19315  12.694  10.867  10.449  0.0297 -0.0572  0.2031
 9212PP      PP19316  11.386  14.864  12.259  0.0862  0.0222 -0.0502
 9213PP      PP19317  12.052   9.633  10.204 -0.0789 -0.3215 -0.3984
 9214PP      PP19318  12.592   1.570   2.033 -0.3059 -0.0746 -0.3170
 9215PP      PP19319   3.203  15.336  12.672  0.0119 -0.1320 -0.0567
 9216PP      PP19320   6.861   1.088   1.789 -0.3288 -0.0001 -0.0193
 9217PP      PP19321   4.090  12.603   2.461 -0.0347 -0.0325 -0.0152
 9218PP      PP19322  11.351  15.019   1.296  0.0146  0.3311 -0.0250
 9219PP      PP19323  16.170   1.402   1.149 -0.0523 -0.4338  0.0550
 9220PP      PP19324  11.084  14.157  10.080 -0.0257  0.0199  0.2957
 9221PP      PP19325   1.578   6.169   2.231  0.2600  0.2368 -0.1212
 9222PP      PP19326   8.993   0.295  11.912  0.2739 -0.1656  0.0610
 9223PP      PP19327   4.832   4.803  11.599 -0.0962 -0.3233  0.2337
 9224PP      PP19328  10.370   1.157   1.891  0.0178  0.4285  0.2499
 9225PP      PP19329  12.180   9.355  11.885  0.2349  0.0648 -0.2295
 9226PP      PP19330  14.966  11.518   8.535  0.0312  0.1578  0.0310
 9227PP      PP19331  13.133   6.111   7.706  0.0644 -0.1226 -0.0903
 9228PP      PP19332   5.284   9.346   1.331  0.0475  0.2303  0.0136
 9229PP      PP19333   8.587   3.612   1.874 -0.3090 -0.2602 -0.1333
 9230PP      PP19334  15.886   8.942  11.901  0.2833  0.2975 -0.4829
 9231PP      PP19335   2.805   9.542   0.745  0.1736 -0.1359  0.0687
 9232PP      PP19336   8.946   5.519  11.241  0.1278  0.1257  0.3514
 9233PP      PP19337  16.261   2.808   9.345  0.0568 -0.4364  0.2208
 9234PP      PP19338  10.172  14.950   2.809  0.1791  0.2565 -0.2769
 9235PP      PP19339   4.951   0.744  11.521 -0.3229  0.2693  0.1297
 9236PP      PP19340   7.994   0.466   9.457  0.0019  0.0441 -0.0515
 9237PP      PP19341   6.660  14.427  11.003  0.0127 -0.3662  0.2351
 9238PP      PP19342   7.948   3.012  11.825  0.1962  0.2063 -0.1726
 9239PP      PP19343   1.147  14.870  11.712 -0.0241 -0.4225 -0.2359
 9240PP      PP19344   3.758  14.375   9.021 -0.0202 -0.0372  0.0763
 9241PP      PP19345   2.313  15.987  11.815 -0.1440 -0.0826 -0.4034
 9242PP      PP19346  14.468   8.806  11.986 -0.0477 -0.2405 -0.0171
 9243PP      PP19347   0.800   8.995   0.170 -0.0284  0.2738  0.1056
 9244PP      PP19348   9.173   3.225   9.935 -0.2231 -0.0735  0.1857
 9245PP      PP19349  14.280   2.187   2.280 -0.2094  0.0646  0.0968
 9246PP      PP19350  14.767   7.722  10.330  0.2010  0.1381 -0.0304
 9247PP      PP19351  10.121   5.933   0.124  0.2941 -0.1675 -0.3402
 9248PP      PP19352  11.190  10.211   1.607 -0.1315  0.0704 -0.5644
 9249PP      PP19353   4.917   8.719  11.008  0.1305  0.0573 -0.0859
 9250PP      PP19354   8.809  15.305  12.022  0.0558 -0.2040 -0.0108
 9251PP      PP19355  15.647  15.393  10.073  0.4430  0.1402 -0.1150
 9252PP      PP19356   9.141   5.221   3.822 -0.0960 -0.2095 -0.0504
 9253PP      PP19357  15.453  16.049   3.676 -0.0800  0.1112  0.2378
 9254PP      PP19358  14.569   6.241   0.088  0.3539  0.0138  0.3594
 9255PP      PP19359   2.658   2.659   3.120 -0.2851 -0.0379  0.2470
 9256PP      PP19360   7.561   8.319  11.334 -0.1295  0.0922 -0.0382
 9257PP      PP19361   4.996  11.211   7.373  0.1864 -0.0219 -0.0552
 9258PP      PP19362   8.553   6.273   2.474  0.1016  0.0452  0.0381
 9259PP      PP19363  14.530  13.519   3.924 -0.0897  0.2159  0.0235
 9260PP      PP19364   7.534   1.559   0.105  0.2589 -0.1480 -0.1660
 9261PP      PP19365   0.970   8.327  12.618  0.3423 -0.0392 -0.5050
 9262PP      PP19366   4.814  13.399  11.228 -0.1225 -0.1628  0.1048
 9263PP      PP19367  11.369   6.630   1.433 -0.0679  0.2337 -0.0838
 9264PP      PP19368   3.043  11.729   0.432 -0.1926 -0.2046  0.3031
 9265PP      PP19369  11.514   7.927   1.712 -0.0314  0.1020  0.0122
 9266PP      PP19370  15.826  12.798   4.186 -0.1892 -0.3080  0.0402
 9267PP      PP19371  14.935  12.158   3.296  0.1713  0.2554 -0.0535
 9268PP      PP19372   0.336   0.407   3.561 -0.0336  0.1484 -0.1153
 9269PP      PP19373   5.499   9.407   2.808 -0.0410  0.1392  0.0143
 9270PP      PP19374   7.011  13.324   3.917 -0.0797  0.1404 -0.2192
 9271PP      PP19375  11.186  13.668   9.353  0.0062  0.0214  0.1582
 9272PP      PP19376   6.474  16.084   1.086 -0.0608  0.2878 -0.0269
 9273PP      PP19377  10.614   0.570   1.444  0.2032  0.1553 -0.1991
 9274PP      PP19378   0.855  12.474  11.212 -0.0085 -0.2051  0.0788
 9275PP      PP19379   6.416  12.915   8.624  0.2969 -0.3079  0.3172
 9276PP      PP19380  14.947   4.161   1.575  0.0356 -0.0376  0.0122
 9277PP      PP19381  11.930  15.572  10.385  0.1829  0.1131 -0.1041
 9278PP      PP19382  14.831   7.542   1.951  0.0829  0.0502  0.0894
 9279PP      PP19383   8.567   2.169  10.319 -0.1068  0.0958 -0.3079
 9280PP      PP19384  13.524   1.357   9.193  0.1035  0.1082  0.2918
 9281PP      PP19385  14.750  11.224   0.017  0.3434  0.1856 -0.2337
 9282PP      PP19386  16.296   9.894   8.996 -0.2715 -0.1305  0.3027
 9283PP      PP19387   4.712   9.335   1.558  0.1800 -0.0659  0.1537
 9284PP      PP19388   7.927  12.474   4.297 -0.0453  0.1123  0.0353
 9285PP      PP19389   5.768   5.786   3.261  0.0564 -0.0777 -0.0561
 9286PP      PP19390   6.661   1.118   4.377  0.3370  0.0366 -0.0934
 9287PP      PP19391   5.903  15.307   0.313  0.0201  0.0222 -0.0411
 9288PP      PP19392  11.335   4.418  12.560 -0.1033  0.0172  0.0736
 9289PP      PP19393   7.094   5.550  10.502 -0.1649 -0.2891 -0.0679
 9290PP      PP19394   9.401  10.192  11.185  0.3059 -0.0519  0.1109
 9291PP      PP19395   4.142   3.012  10.301  0.1814  0.1506  0.1460
 9292PP      PP19396   6.499  11.125   2.940  0.1879  0.0279 -0.1271
 9293PP      PP19397   8.834  16.186  10.398 -0.0761 -0.0302  0.2900
 9294PP      PP19398   8.337   8.354   9.577  0.2917  0.3867 -0.1175
 9295PP      PP19399   2.115   6.150  10.643 -0.0051 -0.0022  0.2021
 9296PP      PP19400  15.592  12.675   2.549  0.0548 -0.2835  0.4360
 9297PP      PP19401   1.486   0.161  10.721 -0.0850  0.1358 -0.2442
 9298PP      PP19402   6.782   1.165  11.607  0.1136  0.0299 -0.2507
 9299PP      PP19403  11.294   4.252   0.848  0.1955  0.3500  0.3831
 9300PP      PP19404   8.091  11.169   0.259 -0.0208  0.1251 -0.0309
 9301PP      PP19405  16.021   4.190   0.250  0.2105 -0.1613  0.0079
 9302PP      PP19406   3.851  10.310  10.547 -0.2119 -0.0685 -0.2712
 9303PP      PP19407   0.150   4.609  11.412 -0.4199  0.0251  0.0787
 9304PP      PP19408  15.616  10.475   1.952  0.0878  0.3201 -0.0323
 9305PP      PP19409  13.698   3.671   9.518 -0.0126  0.3322  0.0895
 9306PP      PP19410   8.871   2.618  12.178 -0.2153  0.1486  0.1385
 9307PP      PP19411   9.529  10.842  10.643 -0.5210 -0.1882 -0.0034
 9308PP      PP19412  14.074  14.518  12.287  0.2269  0.3151 -0.0278
 9309PP      PP19413   3.846   2.994  12.131  0.0844 -0.0521 -0.2530
 9310PP      PP19414   3.345   0.353   3.497  0.1840 -0.2024 -0.0011
 9311PP      PP19415   5.038  16.003   3.952  0.4855 -0.1400  0.2127
 9312PP      PP19416   1.299   8.739   0.045 -0.2968 -0.1090 -0.0473
 9313PP      PP19417   7.322   2.249   3.996  0.0715 -0.2775 -0.1724
 9314PP      PP19418  11.303   7.749   1.203 -0.0374  0.1359  0.0435
 9315PP      PP19419   9.649  11.886  10.242  0.0328  0.0553  0.2913
 9316PP      PP19420  10.254   0.938   1.431  0.3058  0.0620  0.2021
 9317PP      PP19421   1.202   5.306   3.541 -0.1419  0.0711  0.0957
 9318PP      PP19422   1.012   4.489   1.037 -0.0654 -0.1021  0.1500
 9319PP      PP19423   3.458   2.459   0.575 -0.1537  0.3102  0.0678
 9320PP      PP19424  16.253   3.218  12.289  0.3471 -0.2995 -0.3484
 9321PP      PP19425   3.480   2.095   8.785  0.0308 -0.0619 -0.0222
 9322PP      PP19426  10.896   6.705  12.686  0.0436 -0.0781 -0.0377
 9323PP      PP19427  11.597   1.348   4.220  0.3091  0.0138  0.1275
 9324PP      PP19428  10.358  13.287  10.796 -0.0044  0.1154  0.1593
 9325PP      PP19429  13.819   0.710   1.893 -0.1563 -0.1416  0.2285
 9326PP      PP19430   9.523  12.743   0.187  0.2147 -0.0791  0.0460
 9327PP      PP19431   3.488  16.014   1.530 -0.0248  0.1825  0.4428
 9328PP      PP19432   1.615  15.206   2.694 -0.0099  0.0578 -0.0082
 9329PP      PP19433   0.425   6.427   1.301  0.0308 -0.0290  0.0368
 9330PP      PP19434   2.022  14.148   1.898  0.0251 -0.0708 -0.2921
 9331PP      PP19435   0.085  10.865  11.724  0.2537 -0.0148 -0.1587
 9332PP      PP19436  14.598  13.726  10.515  0.0081 -0.1029  0.0955
 9333PP      PP19437   3.308  13.150  10.502 -0.0927  0.3883  0.1796
 9334PP      PP19438   1.302   7.547   9.851  0.5531 -0.0036 -0.1985
 9335PP      PP19439   4.918  14.326   9.759 -0.2885 -0.2694  0.0305
 9336PP      PP19440   7.234  16.071   2.425  0.1313  0.2193 -0.2341
 9337PP      PP19441  14.318   7.543  11.435 -0.0077 -0.0322 -0.1184
 9338PP      PP19442  12.340   6.667  10.270  0.2211 -0.0765 -0.2058
 9339PP      PP19443  13.209   8.262   7.763  0.2963  0.2613  0.0956
 9340PP      PP19444  11.879   8.431   0.591  0.0907  0.0719  0.0462
 9341PP      PP19445  12.199   8.823   1.502  0.2238 -0.2782 -0.0142
 9342PP      PP19446  13.633  13.479  10.537 -0.1477 -0.2638  0.0278
 9343PP      PP19447   8.198   2.935  10.562  0.0147  0.2155 -0.0101
 9344PP      PP19448  12.175  10.563   9.124  0.1939 -0.1044 -0.2895
 9345PP      PP19449   7.038   8.976  10.201 -0.1722 -0.2951 -0.3437
 9346PP      PP19450   7.152  10.987   1.409  0.4421 -0.3845  0.2901
 9347PP      PP19451   7.000  11.766   9.079  0.0956  0.2036  0.0048
 9348PP      PP19452  15.969   2.187   3.266 -0.0671  0.0469  0.1217
 9349PP      PP19453  13.595   3.500  11.778  0.1120 -0.2772  0.1727
 9350PP      PP19454   7.889   5.501   8.836 -0.4730 -0.2924 -0.2092
 9351PP      PP19455   3.978  11.957  10.170  0.3970  0.1645  0.0315
 9352PP      PP19456   0.118  14.759  12.348 -0.0589 -0.0403  0.1104
 9353PP      PP19457   2.058  12.304   2.238 -0.1439  0.2697 -0.3632
 9354PP      PP19458  15.164   4.636   3.484  0.1655 -0.1003 -0.1078
 9355PP      PP19459   1.283   8.712   9.536  0.1039  0.0360  0.0911
 9356PP      PP19460   3.646   6.177  11.176 -0.1540  0.0765  0.0544
 9357PP      PP19461   4.272   5.550   2.280  0.2305  0.1081 -0.0164
 9358PP      PP19462  15.252   7.509   8.658  0.2050  0.3218 -0.2414
 9359PP      PP19463   8.458  15.917   2.483 -0.0313 -0.1810  0.1294
 9360PP      PP19464  13.430   3.644  10.708  0.0603  0.0767 -0.0309
 9361PP      PP19465  16.302   9.330   1.024  0.2736  0.2289  0.2391
 9362PP      PP19466  13.869   7.013  11.425 -0.1284  0.1191  0.1459
 9363PP      PP19467   3.984   4.553   8.334 -0.0037 -0.1772 -0.2699
 9364PP      PP19468   5.260  10.931  12.450  0.2300  0.1908 -0.0356
 9365PP      PP19469  13.429   6.296  12.744 -0.0270 -0.1215 -0.1563
 9366PP      PP19470  14.977   6.800   8.735 -0.0583  0.0076 -0.0155
 9367PP      PP19471   1.533   0.981   1.574  0.0949 -0.0984 -0.2429
 9368PP      PP19472   5.999   3.258   9.051  0.2946  0.2298  0.2227
 9369PP      PP19473   9.951  15.713   1.476  0.2735  0.0836 -0.3854
 9370PP      PP19474   9.327   5.053   8.620 -0.0347  0.1014 -0.0920
 9371PP      PP19475   3.418  12.406   3.506  0.0371 -0.0183 -0.3521
 9372PP      PP19476  10.117   9.872   1.829 -0.2769 -0.2106 -0.2038
 9373PP      PP19477   7.391  11.566   1.629  0.0947 -0.1302 -0.1937
 9374PP      PP19478  16.052   4.461  10.803  0.2089  0.4214  0.0061
 9375PP      PP19479   0.059  13.510   2.551 -0.2275 -0.0382 -0.1378
 9376PP      PP19480   9.888   4.722   0.890  0.2952 -0.0515 -0.0428
 9377PP      PP19481   0.911   5.334   0.855 -0.0914  0.5141 -0.3389
 9378PP      PP19482   7.677  14.836   2.052  0.4342 -0.0784  0.3426
 9379PP      PP19483  15.540  14.971   3.157 -0.0688 -0.2783 -0.0782
 9380PP      PP19484  15.423  11.170  12.278 -0.1228  0.0165 -0.1668
 9381PP      PP19485   9.749  11.776   9.409 -0.0839 -0.1106 -0.0737
 9382PP      PP19486  13.092  10.870  11.954 -0.0786 -0.5568  0.3586
 9383PP      PP19487   6.089  12.017   7.973  0.0937  0.2616 -0.1600
 9384PP      PP19488   7.857  12.199   0.509 -0.0937 -0.1110 -0.1565
 9385PP      PP19489  14.112   6.712  11.095 -0.2264 -0.2453  0.1254
 9386PP      PP19490   7.835   8.440  11.709  0.2307 -0.2776  0.1752
 9387PP      PP19491  10.477   0.517   8.977 -0.0716  0.0927  0.0394
 9388PP      PP19492   7.438   3.982   1.123  0.0271  0.0978 -0.1446
 9389PP      PP19493   9.461   5.160   9.077 -0.0540 -0.1155 -0.0458
 9390PP      PP19494  15.046   1.871   9.148  0.2408 -0.2631  0.1947
 9391PP      PP19495  14.032   8.890  11.641 -0.0707 -0.0126 -0.1195
 9392PP      PP19496   6.607   6.090   1.105  0.2039 -0.0457 -0.0614
 9393PP      PP19497   8.585   4.901  11.980 -0.1480  0.0178 -0.2360
 9394PP      PP19498   5.797   2.865   8.871 -0.1873 -0.0953  0.2121
 9395PP      PP19499   3.560   3.943   9.524 -0.0552 -0.0853 -0.2215
 9396PP      PP19500  14.598  13.862   0.211  0.0823 -0.2531 -0.2000
 9397PP      PP19501  15.911  11.660   4.171  0.1025 -0.1473 -0.1182
 9398PP      PP19502   0.781   7.412  11.689  0.1305 -0.2562 -0.0650
 9399PP      PP19503   1.885   9.226   3.689  0.0925 -0.3062 -0.1525
 9400PP      PP19504  13.807   0.485   8.833 -0.1162 -0.0173 -0.2587
 9401PP      PP19505  15.752   3.342  12.213 -0.0800  0.2203  0.0571
 9402PP      PP19506  16.169   0.323  10.735  0.3321 -0.0392  0.0072
 9403PP      PP19507   0.485   7.248   2.284  0.1787  0.0760  0.0284
 9404PP      PP19508  14.304  10.013   9.263  0.0037 -0.2369 -0.0249
 9405PP      PP19509   2.115   1.268   0.939 -0.0216 -0.0095 -0.2885
 9406PP      PP19510  14.611   4.789   2.160  0.1886  0.2114  0.0798
 9407PP      PP19511   2.696  13.283   3.201  0.0637  0.0896 -0.0288
 9408PP      PP19512   0.675   1.452   9.583 -0.5084 -0.0762 -0.1760
 9409PP      PP19513   8.820   7.574  10.992  0.1140 -0.2729  0.0495
 9410PP      PP19514   7.825   8.170   9.437  0.0441  0.0644 -0.0665
 9411PP      PP19515  13.626   2.668   2.720  0.0922  0.0744  0.3462
 9412PP      PP19516  15.958   8.438   1.120 -0.0493  0.3223  0.0848
 9413PP      PP19517   2.460   7.854  10.689  0.0264  0.1013 -0.0841
 9414PP      PP19518  10.256   2.958   2.169 -0.0703 -0.0038  0.0427
 9415PP      PP19519   9.673   1.926  12.095  0.0372  0.0223 -0.2760
 9416PP      PP19520   8.207   9.307  12.661 -0.0083 -0.2930  0.2579
 9417PP      PP19521   9.238   3.110  12.085  0.0362  0.1199  0.0272
 9418PP      PP19522   8.161  12.092   2.224  0.4197  0.0435 -0.0778
 9419PP      PP19523   3.191   3.293  12.153 -0.1392 -0.1217 -0.3082
 9420PP      PP19524   5.185   6.144  12.654  0.1462 -0.3766 -0.0882
 9421PP      PP19525  15.653   2.191  11.866 -0.0424  0.0478  0.0049
 9422PP      PP19526   3.578   1.322   3.920 -0.1501 -0.0277  0.0437
 9423PP      PP19527   2.019  14.576   0.943 -0.1481 -0.2754 -0.1641
 9424PP      PP19528   2.412   1.737   3.543  0.1603  0.0264 -0.2773
 9425PP      PP19529   1.492   5.670   2.360 -0.0474 -0.1347 -0.1578
 9426PP      PP19530   1.567   8.998   0.402  0.0760  0.1294 -0.2392
 9427PP      PP19531   7.074   2.368   0.233  0.2584 -0.0526  0.1236
 9428PP      PP19532   9.360   3.216  12.550  0.0139 -0.0118 -0.1269
 9429PP      PP19533   8.248  12.025   9.893 -0.1319  0.0817 -0.1835
 9430PP      PP19534   4.446  13.089   1.401  0.0725  0.1054 -0.2143
 9431PP      PP19535   6.961  13.424  12.092 -0.1379  0.0470  0.1976
 9432PP      PP19536  15.035   6.840   3.472 -0.1730 -0.3165  0.0605
 9433PP      PP19537  13.828   7.995   9.525 -0.2517  0.0482 -0.4106
 9434PP      PP19538   1.998   0.845   0.680 -0.1272  0.0022  0.1595
 9435PP      PP19539   2.646  15.022   3.617  0.0310 -0.0642  0.2417
 9436PP      PP19540  13.802  14.583   3.259 -0.0547  0.0138 -0.2232
 9437PP      PP19541  12.344  10.537  11.752 -0.1946  0.2860 -0.1389
 9438PP      PP19542  13.633   2.300   1.118  0.0202 -0.0829  0.1026
 9439PP      PP19543   4.436  15.482   1.785 -0.2576 -0.0363 -0.5098
 9440PP      PP19544   2.190  13.712   9.980  0.2373  0.0680 -0.1014
 9441PP      PP19545   3.208  14.670   9.672 -0.0216 -0.0654 -0.1607
 9442PP      PP19546   9.261  10.451   8.784 -0.1165  0.2403  0.0593
 9443PP      PP19547   0.281   9.529   1.286  0.3077 -0.1841  0.0504
 9444PP      PP19548   3.860   2.971   3.942  0.0272 -0.4117  0.3442
 9445PP      PP19549   8.647   7.255   2.684  0.0094 -0.0479 -0.1477
 9446PP      PP19550   6.870  12.453  12.120 -0.3406 -0.0225  0.1154
 9447PP      PP19551   1.877   8.327   8.100 -0.0796 -0.0662  0.2221
 9448PP      PP19552  12.473   4.385   0.951  0.0880  0.3544  0.3378
 9449PP      PP19553   0.448   7.782  10.686 -0.0750  0.1785  0.0639
 9450PP      PP19554   6.031   2.979   3.418 -0.1477  0.1713 -0.0635
 9451PP      PP19555   5.123   0.487   2.902 -0.0374 -0.1535 -0.2329
 9452PP      PP19556   2.986  11.331   3.572 -0.3685 -0.0264  0.0071
 9453PP      PP19557   4.441   3.451   8.691  0.2540 -0.1754 -0.0451
 9454PP      PP19558  14.435   8.760   9.410 -0.0138  0.1128  0.1255
 9455PP      PP19559   5.451   7.104  10.714  0.2064 -0.0164  0.1873
 9456PP      PP19560  16.268   2.451   0.716  0.1249  0.1490 -0.2739
 9457PP      PP19561   3.254   2.378  11.508  0.1115 -0.0327 -0.2557
 9458PP      PP19562   6.065   5.172  10.460 -0.0653 -0.1854 -0.0450
 9459PP      PP19563  15.043   2.598   4.019  0.1407 -0.0980 -0.2475
 9460PP      PP19564   4.275   3.265  10.844 -0.0015 -0.1551 -0.3113
 9461PP      PP19565  12.695   8.793   0.661 -0.0055  0.0732  0.1037
 9462PP      PP19566   0.969   4.243  10.583 -0.0453 -0.0794  0.3766
 9463PP      PP19567  14.320   7.257   2.119  0.1784  0.0377  0.2264
 9464PP      PP19568   7.712   1.968   2.493  0.2163 -0.3074  0.0631
 9465PP      PP19569   6.309   0.025   8.988  0.0205 -0.0909  0.3197
 9466PP      PP19570  12.023   6.920   7.845  0.0003  0.4446 -0.0679
 9467PP      PP19571  15.536  11.856   2.088 -0.0110  0.2439  0.0853
 9468PP      PP19572  11.911  13.030   9.052 -0.1001 -0.3804 -0.2244
 9469PP      PP19573  14.344   6.834   7.814  0.0263 -0.5020 -0.0029
 9470PP      PP19574  15.627  11.013   1.632 -0.2864  0.0474 -0.2182
 9471PP      PP19575   3.184   8.753  11.598  0.0317  0.1582  0.0442
 9472PP      PP19576   1.460  12.326   8.740  0.4275  0.0959  0.0859
 9473PP      PP19577   7.039  11.101   9.967 -0.2842  0.0181  0.0533
 9474PP      PP19578   2.956   9.194   2.672 -0.0217  0.0725  0.1399
 9475PP      PP19579   9.629   7.753   3.325 -0.0121  0.0998 -0.1293
 9476PP      PP19580   7.028  15.995  10.002 -0.0673 -0.3871  0.1775
 9477PP      PP19581  10.176   7.209   3.010 -0.1670  0.0007  0.2692
 9478PP      PP19582  11.326   1.405   3.264  0.1737 -0.2124 -0.0375
 9479PP      PP19583  13.767   1.254  11.155 -0.1288  0.2503  0.0217
 9480PP      PP19584  12.584  12.220   3.326  0.1544  0.1909  0.2967
 9481PP      PP19585  12.500  13.352  11.292  0.1224 -0.2535  0.0571
 9482PP      PP19586   6.161   2.073   0.383  0.0311 -0.0536  0.1024
 9483PP      PP19587   1.314   5.840   0.606  0.1475 -0.0692 -0.0574
 9484PP      PP19588   6.198   4.711   3.342  0.2542 -0.0156 -0.0999
 9485PP      PP19589   7.086   4.005   0.158 -0.1569  0.0449  0.2308
 9486PP      PP19590   0.195   5.757   1.663  0.4346  0.1279 -0.0341
 9487PP      PP19591  15.377   6.585   9.797  0.0683  0.2748 -0.2843
 9488PP      PP19592  11.844   1.138   3.543  0.1100 -0.0031  0.0688
 9489PP      PP19593   9.889  15.732   3.410  0.0131  0.0212  0.0074
 9490PP      PP19594  14.139   6.182   0.647 -0.0057  0.0921 -0.0384
 9491PP      PP19595   0.192  14.576   9.152 -0.1980 -0.4249 -0.3546
 9492PP      PP19596  14.387  15.966   3.329  0.1167  0.1753 -0.1919
 9493PP      PP19597  15.800  12.814   1.431 -0.1578 -0.2731 -0.0983
 9494PP      PP19598   0.853   3.260   9.100 -0.1503 -0.1629  0.1210
 9495PP      PP19599   3.847   8.374   0.210 -0.4369 -0.0534 -0.0068
 9496PP      PP19600   6.586   9.599   0.795  0.0868 -0.2733  0.1771
 9497PP      PP19601   5.797   2.548  10.952 -0.0420  0.1774 -0.0600
 9498PP      PP19602   6.531  10.518   9.205  0.3832 -0.1811 -0.0825
 9499PP      PP19603  14.648  12.049  10.754  0.0564 -0.2097  0.0889
 9500PP      PP19604   7.201   0.160   9.725  0.1562 -0.1945 -0.0555
 9501PP      PP19605  10.587   3.781  10.756  0.0885  0.0597 -0.0039
 9502PP      PP19606   4.285   5.888   1.904  0.0049  0.1891 -0.0597
 9503PP      PP19607  10.814  13.051   0.436 -0.2047  0.2680 -0.0500
 9504PP      PP19608   1.872  14.951  10.953  0.1684 -0.0440 -0.0584
 9505PP      PP19609  13.444   6.209   1.923 -0.0335  0.0062  0.1072
 9506PP      PP19610  12.330   1.499   8.306  0.4293 -0.3092  0.0058
 9507PP      PP19611   7.031   4.161   4.604 -0.0062  0.1240  0.1080
 9508PP      PP19612   2.968  11.211   0.119  0.2551  0.0511  0.0050
 9509PP      PP19613  11.894  10.095   2.333 -0.0929  0.0803  0.1542
 9510PP      PP19614   4.473  11.386   0.702 -0.1648  0.1510 -0.1133
 9511PP      PP19615   7.605  11.251  10.830  0.1031 -0.2073 -0.0142
 9512PP      PP19616   6.986   2.750   0.524 -0.2949 -0.2349 -0.1006
 9513PP      PP19617  15.648  13.433  10.237  0.0580  0.1126  0.0358
 9514PP      PP19618  14.540   1.135   3.192  0.0844 -0.2040 -0.1257
 9515PP      PP19619   4.294   2.388  12.495 -0.2667  0.0687  0.1579
 9516PP      PP19620  11.645   2.124   8.699 -0.1772  0.0727  0.0477
 9517PP      PP19621  16.062  10.811   7.588 -0.1154 -0.2683  0.1666
 9518PP      PP19622  10.189   3.678   1.486  0.0523 -0.0129  0.2546
 9519PP      PP19623   8.839  15.055   2.606 -0.0007  0.0727 -0.1116
 9520PP      PP19624   6.587   7.699   0.743  0.2920  0.1498 -0.2488
 9521PP      PP19625  11.078   6.102   0.718 -0.1954 -0.1151  0.0394
 9522PP      PP19626  10.319   0.831   3.210  0.1940 -0.1975  0.1722
 9523PP      PP19627   7.316   9.539   9.353 -0.3327 -0.0560  0.1546
 9524PP      PP19628  15.500   6.816   0.633  0.0210  0.1202 -0.2496
 9525PP      PP19629   3.056   2.014   3.099 -0.0299 -0.0318  0.0815
 9526PP      PP19630  10.419   2.137   9.885  0.4045 -0.2691 -0.0738
 9527PP      PP19631   5.954  12.216   2.428  0.2000  0.2316  0.2488
 9528PP      PP19632  12.040  13.983   8.840  0.3098 -0.1641 -0.2629
 9529PP      PP19633  16.179  14.884   9.514  0.0324  0.0096 -0.3475
 9530PP      PP19634  11.842   1.758   3.455 -0.0932  0.0061 -0.0328
 9531PP      PP19635   0.246   6.942  12.749 -0.1394 -0.2029 -0.1356
 9532PP      PP19636   2.155   8.850   3.571  0.0737  0.1858  0.3905
 9533PP      PP19637  13.033  13.153   1.871 -0.1836  0.1982  0.0925
 9534PP      PP19638   4.079  15.904   3.861  0.1331  0.0195  0.2714
 9535PP      PP19639   0.408   1.600   4.022  0.0855 -0.3889 -0.3270
 9536PP      PP19640   6.765  10.062   9.001  0.2659 -0.0261 -0.0814
 9537PP      PP19641  15.574   6.754   0.150  0.1171 -0.2050  0.1704
 9538PP      PP19642  13.869   7.385  12.206 -0.2675  0.0180 -0.2563
 9539PP      PP19643  13.392  15.022   9.981 -0.0185 -0.2044  0.1738
 9540PP      PP19644   7.818   7.773   8.870  0.1990  0.1546  0.2276
 9541PP      PP19645  15.124   3.022   8.432 -0.0202 -0.0069 -0.1479
 9542PP      PP19646   3.023  11.682  10.886  0.3190 -0.0626  0.0215
 9543PP      PP19647   6.779  11.166   0.495 -0.1926  0.0926 -0.1155
 9544PP      PP19648   0.698   0.561  10.409  0.2278 -0.3837  0.3066
 9545PP      PP19649   0.861   9.459   0.389  0.0460 -0.2385 -0.2849
 9546PP      PP19650   0.928   4.184  11.320 -0.1954 -0.1210 -0.1029
 9547PP      PP19651   7.550   2.559   2.844 -0.0978 -0.3287 -0.0876
 9548PP      PP19652   6.236   8.721  10.986 -0.1102 -0.2187 -0.1794
 9549PP      PP19653   0.922   4.105  12.289 -0.3637 -0.1720  0.1026
 9550PP      PP19654   5.247  14.893  11.879 -0.1171  0.0005  0.0621
 9551PP      PP19655  16.054   9.221   8.277  0.1629 -0.0174 -0.0089
 9552PP      PP19656   3.719   1.999  10.581  0.0159  0.0096 -0.0277
 9553PP      PP19657   1.303  11.866  12.615  0.0577  0.0529 -0.0280
 9554PP      PP19658   6.104  10.333   1.375  0.0760 -0.0055 -0.2744
 9555PP      PP19659  14.420  13.320  10.280 -0.0149  0.1632 -0.1867
 9556PP      PP19660  15.842  13.958  11.472  0.1073  0.1783  0.1012
 9557PP      PP19661   3.930  10.281   3.036  0.0383 -0.3837 -0.4094
 9558PP      PP19662  16.341   4.665   0.883 -0.5610  0.1019  0.1788
 9559PP      PP19663   5.563   6.888   1.475 -0.1678  0.1644 -0.0259
 9560PP      PP19664   8.323   6.162   9.229 -0.1687 -0.1642 -0.1158
 9561PP      PP19665   3.734   0.130  11.627  0.0251  0.0893  0.1772
 9562PP      PP19666   5.225   7.319  12.137  0.2347 -0.2618 -0.0994
 9563PP      PP19667   7.122   5.299   1.639  0.2021  0.2214 -0.1402
 9564PP      PP19668   1.290   4.462  12.288  0.1751 -0.4051 -0.0761
 9565PP      PP19669   9.237  11.924   2.654  0.2928  0.0347  0.1418
 9566PP      PP19670  14.922   0.984   2.950  0.1606 -0.2357 -0.0518
 9567PP      PP19671  15.869  13.209   9.842 -0.1725  0.2114  0.0298
 9568PP      PP19672   2.634  13.651  12.515 -0.1878  0.2027 -0.1720
 9569PP      PP19673   9.484  14.037   9.155  0.0900  0.0306  0.0661
 9570PP      PP19674  14.582   1.406   8.764  0.1349  0.0153  0.1795
 9571PP      PP19675   3.247  13.428   0.739 -0.3014 -0.2573  0.2207
 9572PP      PP19676   7.581   6.367  10.119  0.1117 -0.2560 -0.2718
 9573PP      PP19677   8.363   5.803   8.512  0.2556 -0.1811  0.0219
 9574PP      PP19678   5.989   0.291   0.233  0.1909  0.1588 -0.1630
 9575PP      PP19679  14.771   9.674   1.115 -0.0392  0.0471  0.0174
 9576PP      PP19680   9.765   1.486  11.536  0.0215  0.0838 -0.0679
 9577PP      PP19681  10.581  11.249   3.795 -0.4432 -0.2969  0.0917
 9578PP      PP19682   3.218  11.153  12.229 -0.1011 -0.1668  0.1549
 9579PP      PP19683  10.470  11.372  11.790  0.2595 -0.1270 -0.0105
 9580PP      PP19684   6.824  15.420   4.056 -0.2979 -0.2606 -0.3434
 9581PP      PP19685   6.433   2.755  12.238 -0.1404  0.0415  0.0054
 9582PP      PP19686   6.685   1.829   0.584  0.1545  0.4092  0.1038
 9583PP      PP19687  13.180   2.152   2.706 -0.1067  0.1137 -0.0467
 9584PP      PP19688  16.194  12.976  12.010  0.1808 -0.1256  0.0903
 9585PP      PP19689  12.374  13.422   0.064  0.1116 -0.4411  0.2949
 9586PP      PP19690   6.000  14.631  11.503 -0.1797 -0.0278 -0.1410
 9587PP      PP19691  15.528   7.286   1.546 -0.1378 -0.2533 -0.0287
 9588PP      PP19692  14.037   0.983   8.804 -0.0241  0.0355  0.1798
 9589PP      PP19693   1.686  12.692  12.040  0.0356 -0.0193 -0.2184
 9590PP      PP19694   5.850  13.122  10.830 -0.0488  0.4501 -0.1853
 9591PP      PP19695   8.645  12.418   2.283  0.0839 -0.1580  0.0289
 9592PP      PP19696   0.737   0.457   2.310  0.0583 -0.4889  0.2625
 9593PP      PP19697  13.454  13.485   9.149  0.0004  0.2338 -0.0061
 9594PP      PP19698  14.380  12.487  10.564  0.1493  0.0230  0.2481
 9595PP      PP19699  11.188  13.692  10.268  0.0349  0.0314 -0.1200
 9596PP      PP19700   5.848  14.110   1.696 -0.0711 -0.0859  0.0774
 9597PP      PP19701   7.897   7.559  11.524 -0.2189 -0.2157  0.0124
 9598PP      PP19702   2.487  14.321   1.754  0.0504 -0.1683  0.1889
 9599PP      PP19703  16.006   6.174   1.499  0.2388  0.1092 -0.2611
 9600PP      PP19704   8.019   3.908   4.577 -0.2066  0.2825  0.0279
 9601PP      PP19705  12.061   0.954  11.087  0.1149 -0.0996 -0.0028
 9602PP      PP19706  11.088   8.773   8.494  0.1831  0.2159 -0.1109
 9603PP      PP19707   0.540   8.255   4.118  0.0482 -0.0756  0.5963
 9604PP      PP19708   8.029   7.171   8.734 -0.2892 -0.2107 -0.2092
 9605PP      PP19709  11.370   6.969  10.933 -0.1498  0.3113 -0.0365
 9606PP      PP19710   0.431  14.085   8.805  0.1476 -0.0878 -0.3058
 9607PP      PP19711  10.011  15.415  11.365  0.2379 -0.2625  0.1426
 9608PP      PP19712  15.960  16.158   0.230 -0.0984  0.0388  0.2028
 9609PP      PP19713  15.809  14.268   4.380  0.1577 -0.0004  0.1710
 9610PP      PP19714  10.948  13.886   2.212  0.1459 -0.0672  0.1086
 9611PP      PP19715   1.470  13.425  10.550  0.0937 -0.2693  0.0981
 9612PP      PP19716  15.590  14.506  12.686 -0.3621  0.0364  0.0977
 9613PP      PP19717  13.389   4.493   0.891  0.0451  0.0693 -0.0326
 9614PP      PP19718  14.960   5.931   2.734  0.0063  0.0429  0.0667
 9615PP      PP19719   9.812   7.065   2.630  0.0016 -0.2010  0.0953
 9616PP      PP19720  15.911   7.747   7.769  0.0796 -0.2229  0.0521
 9617PP      PP19721   9.379  12.604  11.393 -0.0158  0.0502  0.0882
 9618PP      PP19722   1.636   5.168   8.227 -0.0117  0.3266 -0.0109
 9619PP      PP19723  11.480   6.473  11.010  0.3677  0.2056 -0.1591
 9620PP      PP19724   5.617   4.565   0.031  0.0226  0.0672  0.0390
 9621PP      PP19725  15.619  10.568   2.477 -0.1556 -0.0880  0.1053
 9622PP      PP19726   4.738  14.359   8.954 -0.2782  0.0243  0.1619
 9623PP      PP19727  11.696   0.768   3.788  0.0281  0.1706 -0.0425
 9624PP      PP19728  14.954   3.877  10.228  0.1186  0.0004  0.1482
 9625PP      PP19729  13.511  12.872  11.521  0.0854 -0.0831  0.0982
 9626PP      PP19730   5.617   7.923   3.893 -0.3171  0.3986  0.0371
 9627PP      PP19731  15.954  13.265   9.265  0.0685  0.3058 -0.2552
 9628PP      PP19732   7.749  12.338   1.876  0.0250  0.3024  0.0760
 9629PP      PP19733   3.201   9.582   1.240 -0.2079  0.0089  0.4501
 9630PP      PP19734   7.767   2.046  10.357 -0.1136  0.1730  0.0899
 9631PP      PP19735   2.812  13.762  11.190 -0.0098 -0.0177 -0.2716
 9632PP      PP19736  13.398   1.697  12.668  0.1468 -0.0386 -0.0358
 9633PP      PP19737   4.993   5.324  10.928  0.1637 -0.0664  0.4448
 9634PP      PP19738   9.829   8.646   9.094 -0.3680  0.1289 -0.0414
 9635PP      PP19739  12.048   6.098   9.878 -0.0711 -0.2829 -0.2389
 9636PP      PP19740  12.072  15.948  10.724  0.0950  0.0062  0.0422
 9637PP      PP19741   2.336   0.152  11.570  0.1010 -0.1272  0.3345
 9638PP      PP19742  15.162   2.957   9.527 -0.1926 -0.3904 -0.1864
 9639PP      PP19743   9.042   9.316   4.029  0.0321  0.0431  0.0627
 9640PP      PP19744   1.033  14.693  10.607  0.0389  0.2899  0.0386
 9641PP      PP19745   1.127  10.208  12.654 -0.2247  0.3358 -0.0300
 9642PP      PP19746   2.244   9.649   0.907  0.1650  0.0853  0.2465
 9643PP      PP19747  13.412   2.183   8.590 -0.2953  0.0008  0.3544
 9644PP      PP19748  11.367  15.579   2.728  0.4309 -0.0476 -0.0941
 9645PP      PP19749   1.210  15.667   3.808  0.0204 -0.0499 -0.0630
 9646PP      PP19750  13.462  10.553   8.936  0.0864 -0.0895 -0.1918
 9647PP      PP19751  15.874  10.067   2.266 -0.0991  0.1759  0.0160
 9648PP      PP19752   6.085   5.766   2.750  0.1628 -0.1231 -0.0079
 9649PP      PP19753   6.087   4.860  12.577  0.1087 -0.2289 -0.0095
 9650PP      PP19754   2.947   0.139   8.944 -0.0058  0.3332  0.0704
 9651PP      PP19755   5.566   0.844   9.705 -0.4309 -0.0445  0.0053
 9652PP      PP19756   4.586   8.604  11.448 -0.0401  0.0619 -0.1427
 9653PP      PP19757   9.488   5.412  11.820 -0.0941  0.0381 -0.2528
 9654PP      PP19758   6.662  10.888   0.086 -0.0014 -0.2466 -0.0690
 9655PP      PP19759  14.202  15.287  11.707  0.0333  0.0690  0.0123
 9656PP      PP19760   2.222   8.699   1.735 -0.0389 -0.1867  0.0291
 9657PP      PP19761   4.869  15.901  11.221  0.1269 -0.2018  0.2132
 9658PP      PP19762   2.405   8.585   9.530  0.2141 -0.0073 -0.0821
 9659PP      PP19763  14.590   3.791   2.449  0.1984 -0.1194 -0.3121
 9660PP      PP19764   3.054  12.681   2.566 -0.1888  0.0153  0.2093
 9661PP      PP19765   9.896   4.450   1.887 -0.2083  0.2984 -0.6710
 9662PP      PP19766  10.165   0.545  11.757  0.0670 -0.0292 -0.1158
 9663PP      PP19767   2.592   5.625   9.824  0.1195  0.0901  0.2321
 9664PP      PP19768   7.088  12.118  11.783 -0.2132  0.2375  0.2250
 9665PP      PP19769   0.430  12.104  12.295 -0.2736  0.0601 -0.0592
 9666PP      PP19770  12.630   3.197  11.080 -0.0993  0.0186 -0.2988
 9667PP      PP19771  13.388  12.375  12.566  0.0096  0.1991  0.3315
 9668PP      PP19772   5.705   3.630   0.261 -0.0041  0.0238 -0.0427
 9669PP      PP19773   2.295   4.218   9.797  0.2019 -0.0595  0.2362
 9670PP      PP19774   6.628   6.868   3.167 -0.3047 -0.1499  0.1181
 9671PP      PP19775   6.763   1.022   1.325  0.0758 -0.0304 -0.0110
 9672PP      PP19776   4.570   1.297  12.199  0.0310 -0.0071 -0.0977
 9673PP      PP19777   3.032  13.258  11.500  0.1984  0.1503  0.2049
 9674PP      PP19778   3.775   4.704  10.019 -0.1646 -0.0357 -0.2811
 9675PP      PP19779   9.047   8.614  11.016 -0.3361  0.0482 -0.1998
 9676PP      PP19780   1.356  12.556   9.896  0.0517 -0.1070 -0.1569
 9677PP      PP19781   4.184  14.343   0.422 -0.3004 -0.3261  0.0275
 9678PP      PP19782   0.011   0.566   1.207  0.0095  0.0291  0.0770
 9679PP      PP19783   1.023  12.841   0.470 -0.3780 -0.3098  0.2563
 9680PP      PP19784   0.198  13.308  10.496 -0.3715 -0.0965 -0.0858
 9681PP      PP19785   3.659   0.863   1.935  0.2954  0.2133  0.0413
 9682PP      PP19786   9.744  14.817   3.242  0.2012 -0.1972  0.0735
 9683PP      PP19787   7.284   5.291  12.141  0.0567 -0.3615  0.2582
 9684PP      PP19788  12.498  12.476   3.781  0.2104  0.2501  0.0767
 9685PP      PP19789   8.564   3.561  11.194  0.1917  0.0664  0.1625
 9686PP      PP19790   2.384  11.891  12.330 -0.0143 -0.0985  0.0252
 9687PP      PP19791   6.857  14.821   8.810 -0.0829  0.2568 -0.2377
 9688PP      PP19792   5.383   1.030   2.045  0.0689 -0.2148  0.1113
 9689PP      PP19793   5.491   3.709  11.729 -0.0399  0.0562 -0.1553
 9690PP      PP19794   0.868   3.789   9.811 -0.5158  0.0373 -0.4022
 9691PP      PP19795   8.134  14.060   0.091  0.1163 -0.3094 -0.0206
 9692PP      PP19796   5.937   9.445  10.918  0.0446 -0.2568  0.1373
 9693PP      PP19797   0.928   9.739  12.714 -0.0644  0.0996 -0.1623
 9694PP      PP19798   3.114   0.515   2.957  0.0170  0.2293 -0.2501
 9695PP      PP19799  11.751   9.159  12.173 -0.1408 -0.0303 -0.0984
 9696PP      PP19800   8.805   1.029   4.472 -0.1460 -0.0955 -0.1591
 9697PP      PP19801   9.410   8.671   3.487  0.3357 -0.0418  0.1314
 9698PP      PP19802   0.592   3.953  10.891  0.0254 -0.1307  0.1149
 9699PP      PP19803   8.936  10.086   8.630  0.0139 -0.0738  0.0802
 9700PP      PP19804   0.937   5.572   9.161  0.0871 -0.2072  0.1951
 9701PP      PP19805  14.256   2.538   0.316  0.0401  0.0688  0.3129
 9702PP      PP19806   7.978   9.558   8.865  0.0843 -0.3117 -0.1374
 9703PP      PP19807   9.152   8.714   9.359  0.1269  0.0015  0.0635
 9704PP      PP19808   3.056   1.231  10.368 -0.0488 -0.0799  0.2951
 9705PP      PP19809  15.717   4.044  11.538  0.1022  0.3867 -0.2274
 9706PP      PP19810   6.770  10.889   9.548  0.1390  0.2697  0.2347
 9707PP      PP19811   2.809  15.219  11.889 -0.0517  0.3069  0.2979
 9708PP      PP19812  15.514   3.697   8.987  0.1137 -0.0277 -0.0750
 9709PP      PP19813   9.762   3.726   9.094 -0.2136  0.0138  0.1097
 9710PP      PP19814  13.507  15.514   3.800 -0.0009 -0.1854 -0.0666
 9711PP      PP19815  15.661  12.278   4.207 -0.5652 -0.1715  0.2756
 9712PP      PP19816   7.325   9.954   2.632 -0.2063  0.0541 -0.0532
 9713PP      PP19817   0.182   0.128   3.094  0.0282 -0.1655 -0.1862
 9714PP      PP19818   0.816   5.686   1.703  0.1648  0.0480  0.2894
 9715PP      PP19819  14.428  11.488  12.247 -0.3702 -0.0820 -0.1347
 9716PP      PP19820  15.827   9.068   7.807  0.0991  0.0178  0.0335
 9717PP      PP19821   6.206   6.676  11.031  0.1842  0.0138 -0.1613
 9718PP      PP19822   2.159  15.155   9.547  0.1808 -0.0018 -0.0358
 9719PP      PP19823  11.901   8.119   0.169  0.2404 -0.1081 -0.0966
 9720PP      PP19824   9.088  12.582   3.032 -0.1308 -0.1920 -0.1678
 9721PP      PP19825   8.239   8.662   1.539  0.0444 -0.1025  0.0657
 9722PP      PP19826   0.339  15.484   0.173 -0.0643 -0.3801  0.4593
 9723PP      PP19827  12.315   1.697   0.749  0.1144 -0.0266 -0.1079
 9724PP      PP19828  10.291  11.398  11.300  0.1036  0.0583  0.0855
 9725PP      PP19829   9.459   9.928  12.670  0.1357  0.1838 -0.0886
 9726PP      PP19830   6.409  11.645   1.072  0.0381 -0.0676 -0.0560
 9727PP      PP19831   7.959  10.127  11.959  0.0714  0.4652 -0.1265
 9728PP      PP19832   0.806  11.359   3.193  0.0292  0.0228 -0.0862
 9729PP      PP19833   4.618  16.212   0.968  0.3141  0.3318 -0.0070
 9730PP      PP19834   5.927  11.004   8.664  0.1815 -0.1226  0.0017
 9731PP      PP19835   4.691  12.202   9.183  0.1336  0.2424 -0.1760
 9732PP      PP19836  10.089   0.132   9.194 -0.0360  0.0613  0.1748
 9733PP      PP19837   0.006  10.059   3.568 -0.2797 -0.0087  0.2157
 9734PP      PP19838  13.206   3.616   1.003 -0.0063  0.1243  0.1917
 9735PP      PP19839   6.467   3.814   9.516  0.0700  0.1855 -0.1142
 9736PP      PP19840   9.477   1.921   9.289 -0.2116  0.1510  0.0382
 9737PP      PP19841   5.868   5.761  11.101 -0.1039  0.1763 -0.0333
 9738PP      PP19842   3.162  13.313   8.298  0.1288  0.0848  0.0788
 9739PP      PP19843   0.337   6.730   9.757  0.1040 -0.0000 -0.3752
 9740PP      PP19844  14.324   2.798   1.491 -0.0429  0.0865 -0.1856
 9741PP      PP19845   7.127   5.034  10.694  0.2652  0.0294 -0.0593
 9742PP      PP19846  13.203  15.662   8.208 -0.2011  0.1971  0.0009
 9743PP      PP19847   3.101   1.284   3.078  0.0564 -0.0304  0.0782
 9744PP      PP19848  11.595   1.314   2.161  0.0374 -0.1165  0.0237
 9745PP      PP19849  10.040  13.701   8.856  0.0364  0.1598 -0.0996
 9746PP      PP19850  12.624   1.707  10.953  0.2834  0.1912  0.0000
 9747PP      PP19851   0.120   8.108   2.816  0.2979  0.3734 -0.0477
 9748PP      PP19852  13.235  15.319  11.314  0.0422 -0.2703 -0.2029
 9749PP      PP19853   6.008  12.618  11.046 -0.1902 -0.1253 -0.1795
 9750PP      PP19854  11.074   2.709   2.573 -0.4153 -0.0088 -0.0833
 9751PP      PP19855   7.801   2.035   3.327  0.0717  0.1663 -0.0196
 9752PP      PP19856   3.642   4.697  10.726  0.2464  0.2085  0.1212
 9753PP      PP19857  10.727  14.627   0.064 -0.3282 -0.1775  0.0670
 9754PP      PP19858   5.002  16.154   3.421 -0.1971 -0.3124  0.0456
 9755PP      PP19859   0.104  10.560  10.648  0.1917  0.1379  0.2071
 9756PP      PP19860   2.069   7.210   0.789 -0.0721 -0.2842 -0.0295
 9757PP      PP19861   2.082   4.404   4.246 -0.1086 -0.0142 -0.0878
 9758PP      PP19862  15.030   9.239   9.780 -0.1344  0.2599  0.2757
 9759PP      PP19863  11.173   2.549   3.840  0.1951 -0.0464 -0.1244
 9760PP      PP19864  11.346   3.560   2.664  0.2286 -0.3157  0.0343
 9761PP      PP19865   5.383   6.837  12.312 -0.3626  0.1402 -0.0045
 9762PP      PP19866   2.985  12.389  11.636  0.1696 -0.0517 -0.0103
 9763PP      PP19867   4.338   2.333   8.633 -0.3992  0.1367 -0.1318
 9764PP      PP19868  10.072   4.296   9.808  0.1235  0.1863  0.1906
 9765PP      PP19869   8.654   6.217  12.273 -0.0476  0.1945 -0.0203
 9766PP      PP19870   4.728   4.222  11.915  0.0569 -0.1585 -0.2235
 9767PP      PP19871   6.047   3.338   9.553  0.0989 -0.0918 -0.0674
 9768PP      PP19872   5.428   8.033   3.349  0.1360 -0.1023 -0.1575
 9769PP      PP19873   8.748   1.935  12.440  0.3532  0.0527  0.3182
 9770PP      PP19874   8.724   9.716  10.504  0.0544 -0.3238  0.0839
 9771PP      PP19875   5.614   3.125   9.315  0.0924  0.3184  0.0005
 9772PP      PP19876  14.640  13.451  12.330  0.4109  0.2717  0.1689
 9773PP      PP19877   5.797   3.403   3.634  0.2175 -0.1750 -0.1830
 9774PP      PP19878  15.838  14.548   3.225  0.0110  0.1220 -0.0236
 9775PP      PP19879   0.396   4.875   2.074 -0.1215 -0.0986  0.0634
 9776PP      PP19880   0.364  13.367   1.294 -0.2614  0.1194  0.1840
 9777PP      PP19881  16.291   1.175   2.018 -0.1102 -0.2928  0.2147
 9778PP      PP19882  14.895  12.624   8.719  0.0918 -0.1050  0.2284
 9779PP      PP19883  13.795  13.030  10.979 -0.3690 -0.0632  0.1137
 9780PP      PP19884  12.205   4.743   8.474  0.1135 -0.1316  0.3474
 9781PP      PP19885   7.557   7.590   3.125 -0.1349  0.2054  0.1534
 9782PP      PP19886   8.951   4.391   1.225  0.1463 -0.0528 -0.4914
 9783PP      PP19887   0.909   1.078  10.667  0.0590  0.2954  0.0024
 9784PP      PP19888   7.781   2.868  10.069  0.0091  0.1205  0.1486
 9785PP      PP19889   8.122  13.054  11.697 -0.3651  0.0586 -0.1516
 9786PP      PP19890  10.564   8.855   2.096 -0.0574  0.0959 -0.1346
 9787PP      PP19891   9.329  14.718   0.652 -0.3006  0.1718  0.0274
 9788PP      PP19892   7.109   0.243   2.330  0.0360 -0.1088  0.0786
 9789PP      PP19893   4.962   0.072   1.604 -0.2067 -0.0280 -0.0678
 9790PP      PP19894   4.237   2.131   3.711  0.2024 -0.0349 -0.1129
 9791PP      PP19895  11.083  16.257   0.508 -0.0040  0.1853 -0.0082
 9792PP      PP19896  12.634   3.627   1.225  0.0365  0.1252 -0.0568
 9793PP      PP19897  12.054   5.189  12.507  0.1042 -0.5656 -0.1112
 9794PP      PP19898  10.824  10.131  10.644  0.1024 -0.2973  0.0283
 9795PP      PP19899   8.424  14.323   3.962  0.1570 -0.0729  0.5404
 9796PP      PP19900   4.355   0.324   4.250  0.1119 -0.1293  0.1967
 9797PP      PP19901  12.907   4.354   8.815 -0.2419  0.0755 -0.3604
 9798PP      PP19902  11.521  13.173   3.498  0.0586  0.1690  0.2070
 9799PP      PP19903   4.316   5.597   1.279  0.0481 -0.0273  0.1816
 9800PP      PP19904   6.313   0.294   8.474  0.1813 -0.3296 -0.0124
 9801PP      PP19905   6.238  13.371   2.131  0.0576  0.1083  0.0580
 9802PP      PP19906  13.889   8.291   8.246 -0.1339 -0.0808 -0.3517
 9803PP      PP19907   6.957   2.831  12.748 -0.1135  0.1469 -0.1380
 9804PP      PP19908   8.124  16.270   9.310 -0.2264  0.0934 -0.0146
 9805PP      PP19909   0.467  13.071  10.057 -0.0644  0.1199  0.1302
 9806PP      PP19910  16.021   6.644   0.031 -0.1143  0.0450  0.1652
 9807PP      PP19911  14.798  14.667   2.069  0.1285  0.2963  0.0048
 9808PP      PP19912  10.520  14.327   9.294 -0.1541  0.1664 -0.0164
 9809PP      PP19913   4.276  10.614  10.410  0.0565 -0.2307  0.1434
 9810PP      PP19914  12.881   4.080  11.351  0.3564  0.1271  0.2206
 9811PP      PP19915   8.027  11.601   2.216  0.0735 -0.0521  0.0475
 9812PP      PP19916   9.121   5.668   3.649  0.4603 -0.0119 -0.0312
 9813PP      PP19917   2.872   5.316   3.774  0.2018 -0.3731 -0.0214
 9814PP      PP19918  14.211  10.314   2.742  0.2992 -0.0010 -0.1341
 9815PP      PP19919   0.204   0.923   3.532  0.1089 -0.1522 -0.0809
 9816PP      PP19920  15.066  12.432   9.727  0.0156  0.1395  0.0366
 9817PP      PP19921   1.655   5.308   3.804 -0.0538  0.1777  0.0883
 9818PP      PP19922   0.191   5.516   8.501 -0.1703 -0.4535 -0.1441
 9819PP      PP19923  11.045  11.628  11.741  0.0711 -0.0503  0.0797
 9820PP      PP19924   3.884   6.882   0.278  0.0730  0.4081 -0.1074
 9821PP      PP19925   0.676   2.211   2.411  0.2247  0.0400  0.0026
 9822PP      PP19926   0.966   7.612  10.836 -0.0499  0.0367  0.0650
 9823PP      PP19927   8.769   9.825   9.923 -0.0860  0.0851 -0.1085
 9824PP      PP19928  11.753  10.147   3.585 -0.0930  0.0852  0.0101
 9825PP      PP19929   0.302   5.323   1.319 -0.1556  0.1314 -0.0655
 9826PP      PP19930   2.236  14.877   1.333 -0.2432  0.1282 -0.1119
 9827PP      PP19931  13.336   9.377   3.316  0.0427 -0.0283  0.1458
 9828PP      PP19932   7.785  12.512   9.922 -0.0125  0.0162  0.1969
 9829PP      PP19933  13.522   6.517  11.847  0.0019  0.1214  0.0823
 9830PP      PP19934   3.424   5.358   3.745 -0.0253  0.0617  0.2476
 9831PP      PP19935  11.524   0.673  10.857  0.0645  0.0618 -0.1080
 9832PP      PP19936  13.704  10.735   9.334  0.2039 -0.1451  0.3316
 9833PP      PP19937   7.379   8.027   9.626  0.0211 -0.1887 -0.1041
 9834PP      PP19938   8.141   1.363  10.442 -0.3583 -0.0106 -0.1810
 9835PP      PP19939   8.478  10.500  12.730 -0.2112 -0.0410 -0.2463
 9836PP      PP19940  12.528  14.682   2.100 -0.2898  0.0502  0.2498
 9837PP      PP19941   8.227   9.084   3.620  0.3366  0.3699  0.2949
 9838PP      PP19942  14.291   2.706   2.032 -0.0212 -0.4047 -0.0822
 9839PP      PP19943   6.498   0.150   1.522  0.1505  0.1461 -0.0326
 9840PP      PP19944   5.735   9.309   0.978  0.0367 -0.0919 -0.0401
 9841PP      PP19945   6.633   3.526  10.959 -0.0415  0.3419 -0.0551
 9842PP      PP19946   3.672  10.699  11.308 -0.2266  0.2845  0.2168
 9843PP      PP19947   4.966   2.156   0.465  0.0416 -0.0819  0.1256
 9844PP      PP19948   0.039   6.442   0.407  0.2911  0.5028  0.1096
 9845PP      PP19949   6.634   4.645   9.917 -0.3017 -0.1583 -0.0370
 9846PP      PP19950  15.994  11.141   4.369  0.3353  0.5345  0.0185
 9847PP      PP19951   6.772   0.218  11.026 -0.1100 -0.0548 -0.0144
 9848PP      PP19952   7.667   1.293   1.465  0.1330 -0.3455 -0.0969
 9849PP      PP19953   5.845   2.614  11.453  0.0809  0.4355  0.1805
 9850PP      PP19954   0.658   4.507  11.042 -0.1151 -0.0443 -0.0741
 9851PP      PP19955   7.385   1.818   9.981  0.0968  0.1916 -0.1280
 9852PP      PP19956  11.929   1.385  12.300 -0.1524  0.0946  0.0928
 9853PP      PP19957   3.811  12.330   2.937  0.1149  0.0298 -0.2179
 9854PP      PP19958   7.167   7.289   9.181 -0.1041 -0.2996 -0.2019
 9855PP      PP19959   0.816   6.973   2.004 -0.1084  0.3194 -0.3523
 9856PP      PP19960   9.211   9.918   3.312  0.1583  0.0149 -0.1601
 9857PP      PP19961  13.685   9.099  12.339 -0.3039  0.0210 -0.1825
 9858PP      PP19962  13.980  14.107   3.641 -0.1885  0.0838  0.1292
 9859PP      PP19963  16.148   4.944   9.741 -0.1009 -0.1325 -0.1603
 9860PP      PP19964   1.515   0.519   2.997  0.0109  0.2025 -0.0231
 9861PP      PP19965   5.975  12.465  11.518  0.0875 -0.0766 -0.1075
 9862PP      PP19966  11.057   3.672   3.149 -0.2109  0.3944 -0.0435
 9863PP      PP19967  11.750  14.729   9.441 -0.0826  0.3416 -0.0028
 9864PP      PP19968   7.931  14.040  12.357 -0.2585 -0.2689  0.6395
 9865PP      PP19969   7.553  14.748   4.560 -0.1864  0.2792 -0.1758
 9866PP      PP19970   5.804  15.717   2.434  0.4093  0.1638  0.3049
 9867PP      PP19971   7.826   1.409   3.729 -0.0550  0.1082 -0.0000
 9868PP      PP19972  15.721   4.875  11.441  0.1206 -0.0948  0.3380
 9869PP      PP19973   7.218   4.736   1.535  0.2073  0.1667 -0.0490
 9870PP      PP19974   1.610   4.826  10.118 -0.1498  0.2854 -0.5219
 9871PP      PP19975  12.251   4.993  11.118 -0.0219 -0.1236  0.1228
 9872PP      PP19976   3.341   3.316   3.731 -0.1830  0.2444 -0.0040
 9873PP      PP19977  10.152   1.662  11.967  0.0202  0.0042 -0.0918
 9874PP      PP19978  13.774   1.688  10.214 -0.0733  0.3659  0.0058
 9875PP      PP19979   1.884   4.085   2.448 -0.1021 -0.2174  0.2589
 9876PP      PP19980   4.984   6.561   7.783 -0.3607 -0.1049  0.0773
 9877PP      PP19981  16.151   8.442   8.168  0.1892 -0.2726 -0.0130
 9878PP      PP19982  14.955   2.928   3.287  0.0531  0.0023 -0.0386
 9879PP      PP19983  12.186  12.644  11.291 -0.1184  0.2025 -0.1684
 9880PP      PP19984  13.367   7.314   1.271  0.1114 -0.0167  0.1286
 9881PP      PP19985  14.800   5.604   3.133 -0.4715  0.2179 -0.2491
 9882PP      PP19986   7.073  14.078   3.542 -0.1306  0.0069 -0.0836
 9883PP      PP19987  16.224   6.353   8.349 -0.0083 -0.0349  0.0412
 9884PP      PP19988   6.704   4.498  12.613  0.2746 -0.0637 -0.0866
 9885PP      PP19989   2.123   3.351   1.259 -0.1383  0.0782 -0.1200
 9886PP      PP19990  11.849   7.408   9.765  0.2245 -0.1962 -0.0526
 9887PP      PP19991  13.584  11.327   9.878 -0.1978  0.2183  0.0185
 9888PP      PP19992  15.355  16.092   0.750 -0.1143  0.0171 -0.0204
 9889PP      PP19993   0.675  11.785   2.500  0.1458  0.4490  0.0129
 9890PP      PP19994  12.827   2.852   9.658 -0.0647  0.0495  0.0018
 9891PP      PP19995   6.173   3.701   9.992 -0.2178 -0.0215 -0.0385
 9892PP      PP19996   4.977   3.445   0.890  0.1431  0.1277 -0.3262
 9893PP      PP19997   9.551   5.464   2.019  0.0652  0.1159 -0.0445
 9894PP      PP19998   4.324   7.052  11.210  0.0513 -0.1749  0.0695
 9895PP      PP19999  15.077  11.479   9.251  0.1139 -0.0685  0.2766
 9896PP      PP20000  10.405  10.455   3.653  0.3158  0.3344 -0.0820
 9897PP      PP20001  13.495   9.656   0.260  0.0189 -0.1179 -0.1270
 9898PP      PP20002   2.913   3.943   4.326 -0.0612 -0.0938  0.0288
 9899PP      PP20003   5.953   6.705  11.863  0.0381  0.0709 -0.1503
 9900PP      PP20004  15.071  14.257   2.976 -0.3432 -0.1704 -0.0253
 9901PP      PP20005   7.030  15.014   3.872 -0.0297  0.0469  0.0365
 9902PP      PP20006   0.290   8.556  10.344 -0.2783  0.0827 -0.0897
 9903PP      PP20007   4.080   1.649  12.083 -0.0478 -0.2649 -0.0945
 9904PP      PP20008   6.568   1.347   2.156 -0.2110  0.0546  0.1794
 9905PP      PP20009   0.278  11.369   0.823  0.2663  0.0481  0.1779
 9906PP      PP20010   9.699   6.506   0.223  0.1887 -0.0695  0.0207
 9907PP      PP20011   8.345   7.505   3.304  0.0489  0.4089  0.2972
 9908PP      PP20012   4.775   3.166   0.163  0.5164 -0.0333 -0.0715
 9909PP      PP20013   9.819  14.865   0.461 -0.1994 -0.1488 -0.1647
 9910PP      PP20014  11.047  10.038   2.807  0.2338 -0.0222 -0.2625
 9911PP      PP20015  15.778  14.620   1.343  0.0466 -0.1367 -0.0756
 9912PP      PP20016   7.601  14.429  12.575  0.0635 -0.0005 -0.2147
 9913PP      PP20017   8.146   6.692   8.640  0.2658 -0.3327 -0.0335
 9914PP      PP20018   3.970   2.603   8.361  0.1359 -0.0223 -0.0747
 9915PP      PP20019  12.373   2.175   1.223 -0.1775  0.2004 -0.4845
 9916PP      PP20020   3.050   1.279  11.566 -0.1901 -0.2120  0.2954
 9917PP      PP20021   1.678  11.380  12.723  0.1370  0.3004 -0.0812
 9918PP      PP20022   3.718   9.542   0.403 -0.3578 -0.0353  0.0354
 9919PP      PP20023  16.193   9.820   1.072  0.4844 -0.1256  0.1401
 9920PP      PP20024   6.762  16.267   4.680 -0.0151 -0.0276  0.0672
 9921PP      PP20025  13.715   1.737  12.281  0.0878  0.1695 -0.2213
 9922PP      PP20026   5.483  12.466  12.373  0.1563 -0.0520  0.0088
 9923PP      PP20027  12.529  13.336   9.754  0.0260 -0.2149  0.1078
 9924PP      PP20028   7.361   6.530   3.029  0.0186 -0.3294 -0.1920
 9925PP      PP20029   9.154   7.377  10.643  0.1391  0.2943  0.0059
 9926PP      PP20030   3.224  15.613   2.092  0.0316  0.0142 -0.0527
 9927PP      PP20031  13.560   6.089  10.372 -0.2718  0.1297  0.2253
 9928PP      PP20032  14.721   0.540   0.755 -0.1819  0.1681 -0.1777
 9929PP      PP20033   5.852   5.996  10.147  0.0154 -0.3785  0.1163
 9930PP      PP20034   3.184   2.003  11.860 -0.0947  0.0896 -0.1503
 9931PP      PP20035   6.288   9.389  12.273  0.0724 -0.1351 -0.3787
 9932PP      PP20036   9.624   6.042  10.001 -0.1481 -0.3048  0.2142
 9933PP      PP20037  15.772   7.586  12.401  0.0664  0.0356  0.0828
 9934PP      PP20038   6.922  14.559   9.658 -0.5938  0.0081  0.0638
 9935PP      PP20039   6.666   8.238   9.208 -0.2448  0.2150  0.6040
 9936PP      PP20040   3.838  11.584   7.591 -0.5869  0.1654  0.0820
 9937PP      PP20041  12.423   8.325   9.442 -0.0093  0.1412  0.1682
 9938PP      PP20042   7.931   3.308   9.678  0.0228  0.0187 -0.0516
 9939PP      PP20043   7.029  11.094  11.281 -0.1087  0.1483 -0.0652
 9940PP      PP20044   9.318  12.370   3.432 -0.1163  0.1142 -0.1429
 9941PP      PP20045   4.079   9.802  10.532  0.0545 -0.0281 -0.0559
 9942PP      PP20046  14.472   7.018  11.339 -0.0213 -0.0323  0.5197
 9943PP      PP20047  13.110  10.692   0.106  0.0592 -0.2407 -0.3331
 9944PP      PP20048  15.085  12.917   9.539 -0.2773 -0.2828 -0.1988
 9945PP      PP20049  16.255   7.482   0.626 -0.0046 -0.0908  0.2200
 9946PP      PP20050   8.858  13.219   0.788 -0.0675  0.0637 -0.1145
 9947PP      PP20051   2.589   2.512  10.271 -0.2965 -0.0201  0.0630
 9948PP      PP20052   3.433  13.079   0.424  0.2273  0.2815 -0.1442
 9949PP      PP20053   8.526   0.857   0.418  0.0393 -0.2048 -0.0968
 9950PP      PP20054  13.679  12.988   1.183  0.0625  0.0180  0.2401
 9951PP      PP20055   5.626   4.949   9.292  0.1211  0.2440 -0.0523
 9952PP      PP20056   6.893  13.631   1.506  0.1440  0.1444  0.2505
 9953PP      PP20057   2.700  13.275  11.124 -0.0614  0.0569 -0.1595
 9954PP      PP20058   4.842  12.492  12.709 -0.0117  0.0740  0.0251
 9955PP      PP20059  13.383   3.319   3.785 -0.0559 -0.0009  0.0179
 9956PP      PP20060  12.098   5.743   1.039 -0.2031 -0.2177 -0.0506
 9957PP      PP20061  13.437   4.396  10.443  0.0565  0.3830 -0.0089
 9958PP      PP20062   6.238   8.848  11.699 -0.1902 -0.1256 -0.3853
 9959PP      PP20063   2.538   9.764  11.060  0.2430  0.1692 -0.0329
 9960PP      PP20064   1.946   9.168   1.822 -0.4121  0.2654 -0.0278
 9961PP      PP20065   1.201   2.471   9.528  0.1000 -0.1380 -0.0970
 9962PP      PP20066   1.134  15.181  10.499 -0.0755  0.0517 -0.3396
 9963PP      PP20067  15.440   0.646  10.023  0.4735  0.1509  0.1007
 9964PP      PP20068  15.417  14.153  12.271 -0.2225 -0.0555 -0.3017
 9965PP      PP20069   6.005   9.088   2.698 -0.1211  0.3405 -0.2219
 9966PP      PP20070  15.814   8.463   9.770 -0.1721  0.0957 -0.0087
 9967PP      PP20071  12.901   5.313   2.458 -0.2120  0.0369 -0.1250
 9968PP      PP20072   5.666   2.259  10.484 -0.0471  0.0202 -0.1298
 9969PP      PP20073   2.521   9.686   2.192 -0.1345  0.2534  0.1602
 9970PP      PP20074   3.985   8.630   1.955  0.3724 -0.1234  0.2240
 9971PP      PP20075   4.032   6.806   2.829 -0.0076 -0.3004 -0.1031
 9972PP      PP20076   7.784  16.063   0.507 -0.2380  0.0378  0.0361
 9973PP      PP20077   2.347  10.537  12.541 -0.0055  0.3150  0.1188
 9974PP      PP20078   9.423   6.714   9.101 -0.3182 -0.0408 -0.0241
 9975PP      PP20079   6.360   4.620   8.054  0.1915 -0.0968 -0.0889
 9976PP      PP20080   0.339   4.957  10.315  0.2727 -0.2679  0.2742
 9977PP      PP20081  13.428   1.356  10.256 -0.0669  0.1024  0.1911
 9978PP      PP20082  12.110   7.217   8.281  0.1558  0.1908 -0.2646
 9979PP      PP20083  10.923   0.544   9.128  0.0442 -0.3140 -0.1965
 9980PP      PP20084   3.369  13.014   1.037 -0.1641 -0.0430 -0.3884
 9981PP      PP20085   9.074   9.693   8.405  0.5179 -0.2799 -0.1582
 9982PP      PP20086  11.764   7.533  10.221 -0.1446  0.0941  0.0239
 9983PP      PP20087   5.372   5.740  10.136 -0.1540 -0.2265 -0.2142
 9984PP      PP20088  15.448  12.243  12.282 -0.0868  0.3524 -0.3127
 9985PP      PP20089   5.305   9.380   1.829 -0.2162 -0.0217  0.1011
 9986PP      PP20090   4.536   9.420  10.701  0.1777  0.1404  0.0393
 9987PP      PP20091   9.753  14.267   4.630 -0.0019 -0.2393  0.1561
 9988PP      PP20092   4.718   1.650  10.558  0.0406 -0.1425  0.1093
 9989PP      PP20093  12.842   7.554  10.138 -0.1599 -0.1309 -0.1635
 9990PP      PP20094  12.702   9.832   2.075 -0.1333 -0.1907 -0.1735
 9991PP      PP20095   5.789   7.480  10.460 -0.1905 -0.2533 -0.0874
 9992PP      PP20096   0.007   4.171   9.608  0.1850  0.0859  0.1513
 9993PP      PP20097   4.844  10.028  11.317  0.3213  0.1526  0.0280
 9994PP      PP20098   3.120   7.580   1.794 -0.0246 -0.5297  0.1851
 9995PP      PP20099   2.238  16.097   2.089  0.2916 -0.0908 -0.1298
 9996PP      PP20100  11.320   7.849  10.205 -0.0933 -0.0081  0.1431
 9997PP      PP20101  15.672   9.036   9.107  0.2753  0.1219  0.1724
 9998PP      PP20102   8.478  14.431  10.602 -0.0395  0.4539  0.2525
 9999PP      PP20103   7.842   9.672  12.398  0.1104  0.0624 -0.0366
10000PP      PP20104   9.260  10.005   9.667 -0.0285  0.1891  0.2683
10001PP      PP20105   2.455  16.334  12.151  0.0721 -0.0304 -0.2447
10002PP      PP20106   1.246   5.973   3.026  0.1118 -0.0364 -0.2501
10003PP      PP20107  14.888  14.928   8.811  0.0159 -0.0817  0.2816
10004PP      PP20108   6.302  16.186   2.335 -0.0381  0.0627 -0.1389
10005PP      PP20109  14.418   5.857   9.151 -0.0619 -0.1029 -0.2261
10006PP      PP20110   1.416   9.314   9.270 -0.0593  0.1659  0.0013
10007PP      PP20111   4.887  11.623   3.564  0.1461  0.0411 -0.1277
10008PP      PP20112   7.015  14.470  12.388 -0.4403  0.0127 -0.0179
10009PP      PP20113   7.003  14.174   0.059 -0.0133  0.1614 -0.1173
10010PP      PP20114   8.307   6.994   9.940  0.0880 -0.0757  0.2156
10011PP      PP20115   3.991  16.169   4.258  0.0487  0.2652 -0.5227
10012PP      PP20116   8.575  14.510   1.735 -0.2048  0.0620  0.0801
10013PP      PP20117   8.118   2.539  11.547 -0.1644 -0.0718  0.0602
10014PP      PP20118   9.142  15.386  11.086  0.3174 -0.2133  0.3930
10015PP      PP20119   2.984  11.997   1.989 -0.2137  0.0635 -0.1630
10016PP      PP20120   3.416   8.058   8.478 -0.1552 -0.1568 -0.4133
10017PP      PP20121   7.702  11.797   1.225  0.0289 -0.0158  0.0645
10018PP      PP20122   7.496   8.792  10.109 -0.1074  0.1426  0.2781
10019PP      PP20123  11.380  14.131   3.780  0.1019  0.1421 -0.1299
10020PP      PP20124   3.254   9.049   9.479 -0.2681 -0.0155  0.2066
10021PP      PP20125   9.422  16.220   0.897 -0.1640 -0.0914 -0.0724
10022PP      PP20126  13.608   9.344  10.744  0.0518 -0.1580 -0.2335
10023PP      PP20127   5.778  14.126   2.923 -0.0141 -0.1215  0.0443
10024PP      PP20128  12.588   5.069   9.804 -0.3584 -0.0579  0.1972
10025PP      PP20129   9.593  10.398   0.186 -0.2511  0.2799 -0.4768
10026PP      PP20130   8.429   1.626   0.019 -0.1067  0.2180 -0.2483
10027PP      PP20131   6.220   0.016   2.829  0.1453 -0.0795  0.0820
10028PP      PP20132  10.089   0.079   0.362 -0.1342 -0.0380  0.0833
10029PP      PP20133   4.368   9.995   8.837  0.0213  0.2063  0.1867
10030PP      PP20134   8.897  12.845   3.969 -0.1375 -0.2969  0.2267
10031PP      PP20135  11.866  11.083   3.158 -0.0304 -0.2508 -0.0644
10032PP      PP20136   0.634  11.283  10.201  0.1021  0.0242  0.2106
10033PP      PP20137   2.727  11.946  10.018 -0.0509 -0.0403  0.0847
10034PP      PP20138   2.690  12.962   1.693 -0.0938 -0.4127  0.2606
10035PP      PP20139   3.731   4.932  11.252 -0.1639  0.2464  0.0087
10036PP      PP20140   8.960  13.807   0.030  0.1186  0.2008 -0.1281
10037PP      PP20141  15.605   0.360  12.661  0.3791 -0.0123 -0.1423
10038PP      PP20142   6.340   6.755   2.739 -0.0783 -0.0167 -0.2130
10039PP      PP20143  15.538   1.402   0.111  0.1735  0.1115  0.0494
10040PP      PP20144   2.688  14.991   2.594 -0.1004  0.0793 -0.0637
10041PP      PP20145   6.778  16.233   2.115  0.0340  0.0206 -0.0725
10042PP      PP20146   2.426   7.434   2.501  0.1699  0.0558  0.1538
10043PP      PP20147   7.524   0.648   0.180  0.0600  0.3003 -0.1613
10044PP      PP20148   5.720   7.642  11.142  0.2271  0.1640  0.1829
10045PP      PP20149   9.590   8.747   0.405 -0.1741 -0.0794 -0.1401
10046PP      PP20150   9.914  14.220   8.708  0.0272  0.0341 -0.1334
10047PP      PP20151  12.355   2.269   0.564  0.0704 -0.1348 -0.0737
10048PP      PP20152  12.103  14.298   3.776 -0.1653 -0.0343 -0.0857
10049PP      PP20153   1.081   4.237  10.046  0.1388 -0.0467  0.2050
10050PP      PP20154   2.504   7.925   2.367  0.2560 -0.0910 -0.0441
10051PP      PP20155  16.097   9.516  10.538 -0.1094  0.2894  0.2831
10052PP      PP20156   9.473   4.575   8.963  0.1792 -0.1413  0.0524
10053PP      PP20157  13.929  11.298   2.907 -0.1303  0.1204  0.0428
10054PP      PP20158   1.825  13.821   2.998 -0.1056  0.1533 -0.0326
10055PP      PP20159   0.772   2.013  12.109  0.1871 -0.0234  0.2016
10056PP      PP20160   6.898  11.887   1.250  0.3021 -0.3459  0.1330
10057PP      PP20161  11.559  12.308  10.612 -0.0618  0.2675  0.0860
10058PP      PP20162   7.120   7.814  12.664  0.3102  0.4131  0.3271
10059PP      PP20163  15.662   6.822  11.842 -0.3661 -0.2053  0.0825
10060PP      PP20164   3.745  12.314   9.099 -0.2231  0.1145 -0.2757
10061PP      PP20165   6.426   7.152  11.208 -0.2599 -0.2838 -0.0676
10062PP      PP20166   3.007  16.308   1.198 -0.1923  0.1120  0.1741
10063PP      PP20167  11.528  10.000  10.264  0.0520 -0.0083 -0.0932
10064PP      PP20168   0.788   2.857   0.673 -0.2375  0.0542  0.4742
10065PP      PP20169   7.672  14.492  10.049  0.0209 -0.1606 -0.0835
10066PP      PP20170   8.722  11.215   1.962 -0.5177 -0.2404  0.0614
10067PP      PP20171   6.705   7.841   8.450  0.0055 -0.1303 -0.2413
10068PP      PP20172   6.006   3.694   3.290  0.1741  0.0885 -0.3838
10069PP      PP20173   1.494  11.518   2.644 -0.1853 -0.0972  0.0078
10070PP      PP20174  15.458  13.881  11.753  0.1189 -0.0254 -0.2129
10071PP      PP20175  11.051   5.130   9.712  0.0406  0.0292 -0.1836
10072PP      PP20176   2.273   5.365   8.402 -0.0284 -0.3894  0.0676
10073PP      PP20177   2.759  11.158   9.551  0.1929  0.4397  0.0290
10074PP      PP20178   5.241   4.891  11.344 -0.1655  0.1113 -0.2305
10075PP      PP20179   9.271  14.202   0.061 -0.0144 -0.1608 -0.2032
10076PP      PP20180   6.169  14.178   8.808  0.0187 -0.1439  0.0379
10077PP      PP20181   8.683   2.046   4.639  0.0178  0.3101 -0.0088
10078PP      PP20182   8.682   6.775   2.443 -0.0416  0.0334  0.0154
10079PP      PP20183   6.547   8.881  10.139  0.2106 -0.1398  0.2870
10080PP      PP20184  12.882   8.816   2.093 -0.3660  0.0310  0.0931
10081PP      PP20185   1.553   3.882   3.777  0.2542 -0.0913  0.0132
10082PP      PP20186   0.693  13.392   3.219  0.2579 -0.0749  0.0390
10083PP      PP20187  10.274   4.918   2.085  0.0320  0.3412 -0.0270
10084PP      PP20188   7.181   3.173   0.273  0.0510 -0.2407 -0.1031
10085PP      PP20189   7.388  14.395   9.625  0.1296 -0.1227 -0.1265
10086PP      PP20190  14.657   1.309   2.601  0.1378  0.0829  0.1367
10087PP      PP20191   0.044   9.487   9.228 -0.1861  0.2466  0.2004
10088PP      PP20192  11.903   0.896  10.116  0.0826  0.0431 -0.0534
10089PP      PP20193  12.938   5.099   3.225  0.1710  0.3281  0.0430
10090PP      PP20194   4.634  14.067   0.390  0.2152  0.2604 -0.2557
10091PP      PP20195  12.089  12.300   8.914  0.1431 -0.2853  0.3687
10092PP      PP20196   8.996  10.645  11.885 -0.1290 -0.1235  0.3194
10093PP      PP20197  13.665  12.855   3.322  0.0694 -0.0628  0.0002
10094PP      PP20198   7.686   6.348   8.577 -0.0036 -0.2013 -0.0546
10095PP      PP20199   3.898   5.367   2.023 -0.1380 -0.0013 -0.0388
10096PP      PP20200   6.672   3.882   0.502  0.0119 -0.0985  0.0672
10097PP      PP20201   7.893   2.986   2.930 -0.0365  0.0566  0.0639
10098PP      PP20202  13.392  11.619   4.172 -0.0159 -0.0039  0.1857
10099PP      PP20203   5.182  11.748  12.099 -0.0762 -0.1221  0.1055
10100PP      PP20204   8.509  10.260   3.007 -0.3262  0.1227  0.1778
10101PP      PP20205   3.564   5.703  10.196 -0.0439  0.0057 -0.0021
10102PP      PP20206   5.241   4.810   9.649 -0.2108  0.0091 -0.2588
10103PP      PP20207  14.307   4.892  10.250 -0.2403 -0.0305 -0.0351
10104PP      PP20208  11.987   2.239  11.841  0.0366  0.2229  0.0480
10105PP      PP20209  12.809  12.087   9.719 -0.0170 -0.1587 -0.0577
10106PP      PP20210  12.103   1.485   1.748 -0.2393 -0.3530  0.0770
10107PP      PP20211  16.109   9.371   2.517 -0.2224 -0.2914 -0.2821
10108PP      PP20212  14.422   7.699   8.458  0.2029 -0.1163  0.1797
10109PP      PP20213   0.914   0.902   1.979 -0.0657  0.1551  0.0835
10110PP      PP20214  14.440  15.453  11.340 -0.0669  0.1258 -0.1337
10111PP      PP20215   9.318   9.914   1.823 -0.3482  0.1602 -0.1117
10112PP      PP20216   9.984  16.052   2.777 -0.2562 -0.1599  0.2555
10113PP      PP20217   2.724   1.649   0.236  0.0594  0.1403  0.1346
10114PP      PP20218   6.807   2.862   2.904 -0.1538  0.1787 -0.1312
10115PP      PP20219   1.879   9.797   3.600 -0.0582 -0.0130 -0.0492
10116PP      PP20220   0.815  15.030  10.909 -0.1315  0.0360  0.1912
10117PP      PP20221   9.059  14.359  10.878  0.2212 -0.3026  0.1219
10118PP      PP20222   2.334  13.616  11.208 -0.3265  0.0042  0.2346
10119PP      PP20223   2.723   2.174  11.598  0.0100 -0.0360 -0.3031
10120PP      PP20224  13.172  11.526  10.215  0.0656  0.3757 -0.3512
10121PP      PP20225  13.417   6.581   2.824 -0.0134 -0.2194 -0.0865
10122PP      PP20226  10.957  15.045   2.838  0.1983  0.3714 -0.2076
10123PP      PP20227  11.046   6.068   1.983  0.1693 -0.0678  0.1856
10124PP      PP20228   8.209   0.515  10.792 -0.3981 -0.1118  0.2081
10125PP      PP20229   9.520   7.412   2.388  0.2090  0.0583  0.0831
10126PP      PP20230   3.353   6.040   1.267  0.2701 -0.2084  0.1591
10127PP      PP20231   6.957   2.941   4.206  0.0309 -0.1844  0.0310
10128PP      PP20232   9.375   4.127  12.058 -0.1552  0.1710 -0.2906
10129PP      PP20233  10.564   0.401   2.824  0.1802  0.0967  0.0234
10130PP      PP20234   9.994   4.097   2.971 -0.2569 -0.0918 -0.0780
10131PP      PP20235   1.579  16.352   1.081 -0.2281  0.1827  0.0538
10132PP      PP20236  11.611  14.325   0.206  0.0054  0.0397  0.0182
10133PP      PP20237  14.990   6.258  10.421 -0.2910 -0.1323 -0.3349
10134PP      PP20238   2.432  13.277   8.959  0.0850  0.2921 -0.1005
10135PP      PP20239   5.481  14.356  10.638 -0.2611 -0.0284  0.1144
10136PP      PP20240   3.779   6.186  10.261  0.0360  0.3014 -0.1772
10137PP      PP20241   5.421   2.596  11.230  0.0060 -0.1108  0.1877
10138PP      PP20242   7.249   1.461   0.755 -0.0488 -0.3208 -0.2892
10139PP      PP20243  11.417  14.718   3.728 -0.2354 -0.1903  0.1661
10140PP      PP20244   5.795   8.599  11.719 -0.0435  0.1867  0.1917
10141PP      PP20245   9.883  11.470   9.837 -0.0722 -0.0903 -0.0583
10142PP      PP20246   5.853  12.324   1.015  0.0106 -0.2115 -0.2159
10143PP      PP20247  14.723   3.536   0.317 -0.0065 -0.1685 -0.4098
10144PP      PP20248   1.890   7.844  10.983  0.0248  0.1327  0.1465
10145PP      PP20249   2.883   0.195   3.522  0.0253  0.2059  0.0311
10146PP      PP20250   2.352  11.125  12.165 -0.1621 -0.4419  0.0730
10147PP      PP20251  14.732  12.918   3.537 -0.0875 -0.1247  0.3860
10148PP      PP20252   8.719   0.066   0.836  0.1260  0.2076  0.2779
10149PP      PP20253   2.535   6.494   1.972  0.1463 -0.2031 -0.0184
10150PP      PP20254   6.777   6.528   7.930  0.2746  0.0368  0.2549
10151PP      PP20255  15.375  13.126   1.135  0.3112 -0.1046 -0.1639
10152PP      PP20256  11.508  13.146   8.529 -0.2096  0.5170  0.0376
10153PP      PP20257  14.987   4.184   9.831  0.0376 -0.1214 -0.0668
10154PP      PP20258   3.394   3.841  11.272  0.0643 -0.3550 -0.1522
10155PP      PP20259   4.516   2.827   9.506  0.1376 -0.1217  0.0891
10156PP      PP20260  14.366   3.368  12.310 -0.1910  0.0516  0.3561
10157PP      PP20261   2.578  13.313   3.674  0.0857  0.2818 -0.1700
10158PP      PP20262   3.649  11.364   8.477  0.1480  0.1659 -0.0073
10159PP      PP20263  15.198   7.357  12.439  0.3338  0.0062 -0.0342
10160PP      PP20264  14.153   7.985  11.631 -0.1886 -0.0493 -0.0416
10161PP      PP20265   2.349   2.983   4.012 -0.2087  0.2974  0.0099
10162PP      PP20266   1.907  14.487   1.499  0.2369 -0.1453 -0.1487
10163PP      PP20267   6.042  12.132  11.120  0.0090  0.2073  0.4716
10164PP      PP20268   6.302  12.481   1.044 -0.0294 -0.2721 -0.0069
10165PP      PP20269   1.183   4.758  10.615 -0.4467 -0.1041  0.0150
10166PP      PP20270  13.148   0.299  10.674 -0.4169  0.1760 -0.3107
10167PP      PP20271   1.244   6.018   3.583 -0.2140 -0.3365 -0.1953
10168PP      PP20272   5.099  10.903   0.633 -0.0544 -0.0555  0.0637
10169PP      PP20273   3.705   5.222  10.421  0.1245 -0.3945 -0.3049
10170PP      PP20274  14.108  11.042  12.209  0.0292  0.3363 -0.1723
10171PP      PP20275  12.408  16.035   2.341 -0.1498 -0.2312  0.2577
10172PP      PP20276   8.568  15.369  10.928 -0.2070 -0.0194  0.2135
10173PP      PP20277   3.519   0.192   2.081 -0.3031 -0.2419 -0.1025
10174PP      PP20278  11.918   2.368   1.330  0.1071  0.0214  0.1903
10175PP      PP20279   4.497   5.602   0.005  0.2252 -0.2708 -0.2672
10176PP      PP20280   8.901   0.378   3.612 -0.2840 -0.0149  0.1470
10177PP      PP20281  13.858   8.439  11.685  0.0118  0.1060 -0.2031
10178PP      PP20282   8.002   6.327   0.207 -0.0064 -0.0064  0.0649
10179PP      PP20283   2.767   4.371   9.848 -0.0701 -0.1828  0.0532
10180PP      PP20284  13.288   8.017   0.563  0.1458 -0.0328 -0.1896
10181PP      PP20285   4.607  10.911   0.637 -0.1715  0.1058  0.1742
10182PP      PP20286   8.633   6.691   0.395 -0.1587  0.1267  0.2271
10183PP      PP20287   3.045  10.247  12.348 -0.2125  0.0772 -0.0768
10184PP      PP20288  16.138   1.836  10.392  0.0265 -0.1125 -0.0777
10185PP      PP20289   4.515   1.375   8.547 -0.1490 -0.0370 -0.1918
10186PP      PP20290  13.651   6.986  12.436  0.1370 -0.3717  0.1428
10187PP      PP20291  12.444  12.928   0.331 -0.0005  0.4503  0.0410
10188PP      PP20292  14.482   2.206  10.494 -0.1068 -0.0819 -0.2264
10189PP      PP20293   4.754  11.052  12.487  0.1558  0.0330 -0.1444
10190PP      PP20294  11.017   5.561   2.798 -0.2178 -0.2641 -0.1318
10191PP      PP20295  14.776   1.108   9.528 -0.1496 -0.0887  0.0184
10192PP      PP20296   1.253   6.877   3.060  0.2048 -0.3311 -0.2180
10193PP      PP20297   0.920   5.467   2.660 -0.3759  0.0280  0.2045
10194PP      PP20298   4.817   4.038  11.031  0.2337 -0.0529  0.2099
10195PP      PP20299   0.156   7.882   0.339 -0.1932  0.2305 -0.0208
10196PP      PP20300   9.821   3.037   2.040 -0.0094  0.0505  0.1575
10197PP      PP20301   3.385   8.827  11.134  0.0712 -0.1942  0.1279
10198PP      PP20302  14.558   6.493   1.003 -0.0409  0.0085  0.2723
10199PP      PP20303   3.264  12.848  11.331  0.4757 -0.4415  0.3287
10200PP      PP20304  13.826   0.330  11.444 -0.0426  0.1211  0.2403
10201PP      PP20305   6.211   1.274   0.039 -0.3368 -0.2590 -0.1758
10202PP      PP20306   7.601   2.743   9.084 -0.2506  0.1717 -0.2013
10203PP      PP20307   0.125   1.146   0.238  0.3165  0.0868 -0.2803
10204PP      PP20308   8.045   8.758   9.384  0.1335 -0.0137 -0.2356
10205PP      PP20309   0.719  14.656   0.537 -0.0392 -0.2684 -0.2473
10206PP      PP20310   4.590  14.395   2.848  0.0610 -0.1122  0.0227
10207PP      PP20311  15.656   3.408   3.803 -0.2864  0.1322 -0.0834
10208PP      PP20312   0.270  14.435  12.007 -0.0829  0.0247  0.3588
10209PP      PP20313   5.038   6.190   2.384  0.0520 -0.2511 -0.0373
10210PP      PP20314   4.855  10.025   8.896  0.0065  0.2411 -0.2852
10211PP      PP20315  16.282   2.102  12.269  0.0079 -0.2281  0.0596
10212PP      PP20316   7.702  10.098   0.321  0.4108 -0.1125 -0.0090
10213PP      PP20317   0.298   9.758   1.724  0.1200 -0.0838  0.0498
10214PP      PP20318   4.491   7.550  10.510  0.2268 -0.0351 -0.2903
10215PP      PP20319   8.343  10.014  10.771  0.1861 -0.1175  0.0459
10216PP      PP20320   6.063  11.868  10.656 -0.0923 -0.1214  0.0740
10217PP      PP20321   6.562  12.100   8.596 -0.1824 -0.1230 -0.2213
10218PP      PP20322   3.155   3.985   9.043  0.1498  0.2017 -0.1264
10219PP      PP20323  12.189   3.924  10.497 -0.0049 -0.0654 -0.0905
10220PP      PP20324   7.546   9.256  11.989 -0.1478  0.1354  0.1189
10221PP      PP20325   0.019   5.233   2.919  0.2294  0.0152 -0.3680
10222PP      PP20326  12.662   5.529  12.510  0.0796 -0.2779 -0.2617
10223PP      PP20327   5.518   9.251   8.929  0.2462  0.2531 -0.0472
10224PP      PP20328   1.141   2.292   1.360 -0.0468 -0.1522 -0.3120
10225PP      PP20329  12.809   9.150   9.952  0.1794 -0.1661 -0.1912
10226PP      PP20330   8.856  12.254   2.755  0.1931  0.0298  0.3196
10227PP      PP20331   9.843   5.403   7.799  0.1917 -0.0300  0.1595
10228PP      PP20332   1.408  13.962   9.922  0.1450 -0.0721  0.2172
10229PP      PP20333   4.560  15.739  10.385 -0.2561 -0.1964  0.2082
10230PP      PP20334   0.975   0.288  10.138 -0.0741 -0.0646 -0.0249
10231PP      PP20335  12.526   2.405   3.408  0.1936  0.0396  0.0862
10232PP      PP20336  14.437   3.310  11.690 -0.0584  0.0682  0.0122
10233PP      PP20337  12.809   4.876  10.255 -0.1370 -0.0790  0.2613
10234PP      PP20338   4.025   1.860   9.849 -0.0102  0.0117  0.1920
10235PP      PP20339   3.239   6.453  10.809  0.1738 -0.1382 -0.0340
10236PP      PP20340   5.097  13.763  11.008 -0.1994 -0.2687 -0.1008
10237PP      PP20341  12.170  12.018   3.562  0.0168 -0.2812 -0.0874
10238PP      PP20342  13.183   9.871  12.105 -0.0621  0.4244  0.0017
10239PP      PP20343   5.911  15.113  11.236  0.2265  0.1326 -0.3900
10240PP      PP20344   2.992   1.726   4.150 -0.1192 -0.2923 -0.1041
10241PP      PP20345   5.051  12.868  11.310 -0.0037 -0.3009  0.0016
10242PP      PP20346   5.181   4.028   8.363  0.0289  0.1747  0.0718
10243PP      PP20347   3.187   2.222   4.112  0.1945 -0.1116 -0.1077
10244PP      PP20348  13.942   1.474  11.542 -0.1238 -0.2288 -0.3444
10245PP      PP20349  14.199  11.841   3.305 -0.0215  0.1671 -0.2178
10246PP      PP20350  10.316   5.667   1.364 -0.2815 -0.0974  0.5449
10247PP      PP20351  16.104   0.312   3.423  0.0515 -0.2082 -0.3326
10248PP      PP20352  13.303  13.676  11.366 -0.1374 -0.5285  0.4197
10249PP      PP20353   6.751  13.372   1.992 -0.0043  0.0802 -0.2796
10250PP      PP20354  11.116   0.347   8.674 -0.2090  0.2256  0.1266
10251PP      PP20355   8.817  15.110  12.470  0.2468  0.0615  0.1390
10252PP      PP20356   4.208  10.379   9.660  0.1830  0.2669  0.0931
10253PP      PP20357  15.250  14.101   9.372  0.1404  0.0215  0.1538
10254PP      PP20358  15.810   3.170  11.589 -0.1563 -0.2176  0.3126
10255PP      PP20359  15.726   2.719  11.316 -0.0316  0.1601  0.0942
10256PP      PP20360  12.542  15.587   4.275  0.1287  0.2327 -0.0302
10257PP      PP20361   2.019   7.503   1.156  0.1281  0.1146 -0.0770
10258PP      PP20362  14.049   4.315   0.041  0.0036  0.2139  0.1754
10259PP      PP20363  13.161   7.891  10.577  0.1532 -0.2724  0.1667
10260PP      PP20364   5.814   7.214  12.002  0.1752 -0.2086 -0.1768
10261PP      PP20365   4.605  14.811  11.309  0.2235 -0.0475 -0.1660
10262PP      PP20366   2.797  15.324   9.866  0.0742  0.0312  0.1062
10263PP      PP20367   5.261  14.259   9.227 -0.0855 -0.0652  0.1189
10264PP      PP20368   4.405  12.984   8.823  0.2527 -0.2339  0.0289
10265PP      PP20369  15.572   0.616   0.767  0.2605  0.0605  0.1939
10266PP      PP20370   3.186  11.981   1.231 -0.0013  0.1202 -0.1062
10267PP      PP20371   0.663  14.295   5.117  0.3209 -0.0893 -0.0753
10268PP      PP20372   3.668   2.539  11.776 -0.1877 -0.0839 -0.1811
10269PP      PP20373  13.531   5.232   1.076 -0.1165  0.2719  0.1554
10270PP      PP20374  10.924   7.290  10.928 -0.0756  0.0327 -0.1867
10271PP      PP20375   0.118  16.213   4.362 -0.2101 -0.1051  0.0632
10272PP      PP20376  13.433   0.585  11.689 -0.1367 -0.2944  0.1399
10273PP      PP20377   0.513  12.562  10.064  0.2845  0.1317  0.0737
10274PP      PP20378  15.758  14.068  10.549 -0.3231  0.2948 -0.3366
10275PP      PP20379  13.445  16.342   4.459  0.1375 -0.3848 -0.1490
10276PP      PP20380  13.077  11.474   3.803  0.1740 -0.3307 -0.1888
10277PP      PP20381  15.810   9.511   2.119 -0.2186 -0.4012 -0.3243
10278PP      PP20382   2.761  16.089   9.356 -0.1267 -0.2205  0.1402
10279PP      PP20383   1.510  15.467   1.475 -0.0852  0.0259  0.2054
10280PP      PP20384   2.621   8.122   9.306 -0.3248  0.0485  0.1164
10281PP      PP20385   4.130   4.702   1.250 -0.3045  0.0409  0.0178
10282PP      PP20386   0.140  10.879   1.936  0.2791  0.2727  0.1328
10283PP      PP20387   0.031   4.202   3.503 -0.1949  0.0241 -0.2071
10284PP      PP20388  10.823   9.107   1.113  0.0628  0.0662 -0.0773
10285PP      PP20389   7.605   7.807   1.023  0.0039 -0.1026  0.0294
10286PP      PP20390   2.960   7.180   2.406  0.2317 -0.0833 -0.2357
10287PP      PP20391   3.358  13.910   9.188  0.0704 -0.0395  0.1600
10288PP      PP20392   1.220  11.596   1.364 -0.2529  0.1254  0.4793
10289PP      PP20393  14.435   1.937  10.025 -0.1173 -0.0012  0.1877
10290PP      PP20394   1.341  15.688   0.328 -0.2235 -0.0602 -0.2757
10291PP      PP20395   5.907   1.492  12.016  0.1270  0.1969  0.1703
10292PP      PP20396   1.690   7.198   2.053  0.0005 -0.1058  0.4641
10293PP      PP20397  15.543   5.820   3.592 -0.1829 -0.0293  0.2866
10294PP      PP20398   1.770   2.739   3.943 -0.6113 -0.4967  0.2436
10295PP      PP20399   0.330  12.521   3.974 -0.0487 -0.4414 -0.0880
10296PP      PP20400   2.468  10.173   2.181  0.1587  0.1502  0.1421
10297PP      PP20401  15.737  11.785   9.437  0.0675  0.0662 -0.0303
10298PP      PP20402   3.316   3.500   0.084 -0.2845  0.2006 -0.1703
10299PP      PP20403   2.254   4.653   3.726  0.1419 -0.1986 -0.0789
10300PP      PP20404   0.115   8.194  10.608 -0.0815  0.2228  0.2313
10301PP      PP20405   8.493  15.439   5.138  0.3784 -0.0672 -0.1654
10302PP      PP20406   4.338  13.966  12.148  0.0317  0.4554  0.1478
10303PP      PP20407   9.030   2.338   3.986 -0.0253  0.1905 -0.0117
10304PP      PP20408   7.319   6.016   9.269 -0.0223  0.0209  0.1458
10305PP      PP20409   7.832   3.256   1.227  0.4120  0.3901  0.2561
10306PP      PP20410  14.901   4.304  11.312 -0.0587 -0.2579 -0.0551
10307PP      PP20411   9.970   4.712   0.360 -0.1683 -0.0415  0.0724
10308PP      PP20412   0.362   8.274   9.839 -0.3836  0.3230 -0.0696
10309PP      PP20413  14.003   6.891   2.196  0.1813  0.1698  0.1785
10310PP      PP20414  14.612  13.998  11.896  0.3699 -0.0099 -0.0872
10311PP      PP20415  13.370  11.214  11.135  0.0820  0.2765  0.1011
10312PP      PP20416  12.370  15.118  11.920 -0.0733  0.0245 -0.0614
10313PP      PP20417  14.947  15.922  10.975  0.2689 -0.2802  0.1382
10314PP      PP20418   1.124  11.094   0.970 -0.1500 -0.1151  0.0853
10315PP      PP20419  14.925  14.888   1.119 -0.1444 -0.2698  0.1267
10316PP      PP20420  13.009   2.369   9.393  0.0971 -0.0076  0.0649
10317PP      PP20421  10.451   6.306   8.202 -0.2197 -0.0654  0.3639
10318PP      PP20422  14.852   8.317   9.591 -0.1229  0.1648 -0.0401
10319PP      PP20423   6.572   6.316   3.917 -0.1085 -0.1291  0.2736
10320PP      PP20424   4.020   2.000   1.429 -0.1644  0.0569  0.1896
10321PP      PP20425   8.638  15.243   1.357  0.2283 -0.0020  0.0933
10322PP      PP20426   6.465   5.592   7.980 -0.1912  0.0001  0.5402
10323PP      PP20427   6.897   7.477   0.351 -0.1106  0.0436 -0.0455
10324PP      PP20428   3.843  14.102  12.077  0.3034  0.1214 -0.0929
10325PP      PP20429  12.194  14.553  11.905  0.2077 -0.1849 -0.1826
10326PP      PP20430  10.591  10.927  10.542 -0.0162  0.2086  0.1424
10327PP      PP20431   8.842   6.548   3.856  0.1648  0.3402  0.0407
10328PP      PP20432   3.194   2.911   0.766 -0.0849  0.0374 -0.0377
10329PP      PP20433   9.924   2.921  11.886 -0.1338 -0.4412  0.1960
10330PP      PP20434   5.030   8.585  11.741  0.3158 -0.1349  0.3452
10331PP      PP20435   2.207  13.010   9.805 -0.0710  0.2099  0.2699
10332PP      PP20436   9.557  13.819   4.580  0.1020 -0.1342  0.1076
10333PP      PP20437   1.333   2.512  11.512  0.1158 -0.1067 -0.1632
10334PP      PP20438   6.299   6.167   0.702  0.1473  0.0582  0.0012
10335PP      PP20439   5.488   6.928   0.297 -0.0172  0.0002  0.0996
10336PP      PP20440   7.201  16.282   4.428  0.1119 -0.0214  0.1319
10337PP      PP20441  11.859   3.494  11.872  0.1803 -0.2571 -0.0524
10338PP      PP20442  15.647  14.832  10.474  0.3460  0.0305 -0.0996
10339PP      PP20443   8.794  13.946  11.698 -0.2529  0.0471 -0.1585
10340PP      PP20444   1.376   5.289  12.531  0.1654  0.3082  0.1828
10341PP      PP20445  12.305  12.944   3.873 -0.0019  0.2930 -0.6512
10342PP      PP20446   2.022  10.479   2.406  0.1315 -0.1030 -0.1027
10343PP      PP20447   3.862   9.823   2.586  0.1265 -0.3627  0.1302
10344PP      PP20448  14.858  11.683   1.982  0.1844 -0.1297  0.1571
10345PP      PP20449   0.887   4.044   1.881 -0.0246  0.0840  0.1603
10346PP      PP20450   4.503   0.914   1.300 -0.1343  0.0844  0.0155
10347PP      PP20451  14.641   3.493   1.027 -0.0828 -0.0252  0.1006
10348PP      PP20452   4.210   4.407  11.492  0.2624  0.1006 -0.1851
10349PP      PP20453  15.191  11.239  11.125  0.1282  0.1698  0.1132
10350PP      PP20454   8.665   2.666   1.254  0.1020  0.0345  0.1597
10351PP      PP20455   4.095   5.096  10.812 -0.0835  0.0193  0.2338
10352PP      PP20456   2.241   6.576  10.428 -0.1507 -0.3023  0.1197
10353PP      PP20457   3.438   1.573  12.376 -0.4169 -0.0088  0.0828
10354PP      PP20458   2.525   9.283  11.506 -0.1366  0.0815 -0.0503
10355PP      PP20459   6.363   5.258   9.915  0.3570  0.1612  0.2869
10356PP      PP20460   7.828  13.963  10.551 -0.1458 -0.1311 -0.1821
10357PP      PP20461  11.829   1.368  11.359  0.0965  0.3496  0.2799
10358PP      PP20462   1.788  12.728   2.128 -0.3857  0.0901 -0.0819
10359PP      PP20463  16.012  14.438  11.441  0.0582 -0.0323 -0.0687
10360PP      PP20464   4.592  10.340  12.599 -0.0113 -0.2395  0.1883
10361PP      PP20465   1.484  12.846   3.222 -0.2212  0.1301  0.1388
10362PP      PP20466   5.712   9.683   1.928 -0.0414 -0.1054  0.2542
10363PP      PP20467  13.513  15.164   0.444 -0.0884  0.1765 -0.1367
10364PP      PP20468  12.168   6.317  10.756 -0.3752 -0.0670 -0.0335
10365PP      PP20469   2.365   2.996  10.414 -0.1267  0.0780  0.1348
10366PP      PP20470   0.238   5.435   2.189 -0.3295  0.0033  0.1492
10367PP      PP20471   1.371   1.142  10.477 -0.0789  0.1702  0.2911
10368PP      PP20472  10.504   8.899   9.531  0.1372  0.1597 -0.2174
10369PP      PP20473   3.613  10.389   8.897  0.2996  0.0127 -0.0657
10370PP      PP20474  11.491   9.138   9.902 -0.0450  0.3632  0.1067
10371PP      PP20475   6.967   4.318   1.306  0.1191  0.0348  0.1482
10372PP      PP20476  15.392   9.553   8.910  0.1171  0.1563  0.0294
10373PP      PP20477   9.874   0.411   2.107  0.1656  0.0898  0.1876
10374PP      PP20478  15.170  13.038   0.012  0.2190 -0.1536 -0.1308
10375PP      PP20479   9.740   1.042   9.397  0.0031  0.5812 -0.0829
10376PP      PP20480  10.234  16.232   8.710 -0.2270 -0.3505  0.0498
10377PP      PP20481   0.115  16.151   0.156 -0.3449  0.1782 -0.1433
10378PP      PP20482   9.595   8.763  10.879 -0.0206  0.0152  0.3080
10379PP      PP20483   0.664  10.716   9.767 -0.0064 -0.1931 -0.0265
10380PP      PP20484   6.129   5.772   4.079 -0.0592  0.3505 -0.1484
10381PP      PP20485   0.933  14.775   3.233  0.0490  0.0910 -0.1389
10382PP      PP20486  14.053  11.797   3.755 -0.0773 -0.0616  0.0177
10383PP      PP20487   0.434   4.412   1.800 -0.0274 -0.0343  0.1013
10384PP      PP20488  10.383   2.143  11.783  0.0228  0.0190 -0.1011
10385PP      PP20489  15.788   3.745  10.098  0.2746 -0.1185 -0.0639
10386PP      PP20490  15.185   8.988   1.713  0.0360 -0.4487  0.0552
10387PP      PP20491   4.872  12.870  10.858 -0.0366 -0.1480 -0.0063
10388PP      PP20492  15.454   6.033   1.992 -0.2783 -0.0324 -0.2097
10389PP      PP20493   1.341   6.659  11.690  0.1124 -0.1155 -0.2532
10390PP      PP20494  15.998  11.833   9.975  0.0357 -0.0509  0.1510
10391PP      PP20495   2.108   7.398  10.120 -0.0607 -0.0857  0.0668
10392PP      PP20496   5.880   1.695   0.492 -0.1263  0.1739 -0.1400
10393PP      PP20497  14.611   2.737   0.692 -0.0728  0.0914 -0.0389
10394PP      PP20498   0.663   0.324   0.587  0.1175 -0.0806 -0.1114
10395PP      PP20499  14.774  13.573   0.634  0.1658 -0.2208 -0.3748
10396PP      PP20500   6.946  12.483   2.489 -0.1692 -0.3513 -0.2609
10397PP      PP20501  13.245  12.312   1.453  0.0497  0.2996  0.1408
10398PP      PP20502   1.946   5.358   1.070 -0.1318  0.1260  0.2292
10399PP      PP20503  12.794   1.178   2.757 -0.2104  0.4660 -0.0217
10400PP      PP20504  15.198   1.326   0.505 -0.0402 -0.2131 -0.4233
10401PP      PP20505   2.678   4.857   0.931  0.0305 -0.0254 -0.2525
10402PP      PP20506  13.951  11.577  12.381 -0.0471 -0.0828 -0.1315
10403PP      PP20507   4.665   2.613   2.252  0.1368 -0.1325 -0.0600
10404PP      PP20508  15.677  11.419  10.280 -0.3345 -0.0346 -0.0163
10405PP      PP20509   0.549  15.021   9.826 -0.1875  0.1659  0.0159
10406PP      PP20510  10.182   0.232   9.872  0.1913  0.0730  0.2418
10407PP      PP20511   7.800   4.063   0.542 -0.0124  0.0200  0.3194
10408PP      PP20512   5.056   1.775   4.379 -0.1850 -0.1711  0.1186
10409PP      PP20513   6.302   4.491   1.282 -0.0307  0.0874  0.0498
10410PP      PP20514   9.672   3.329  10.078  0.2585 -0.2190  0.1143
10411PP      PP20515   5.446  12.956  10.605  0.0377  0.2108 -0.0434
10412PP      PP20516   9.407   2.344   2.380 -0.4632 -0.0087  0.3576
10413PP      PP20517   5.947   4.124   1.281 -0.1953  0.0947  0.0453
10414PP      PP20518   2.444   4.726  10.702 -0.0656 -0.0030  0.0760
10415PP      PP20519  13.193  15.147   3.985 -0.3313  0.0452  0.2098
10416PP      PP20520   3.134   9.393   0.387 -0.1207  0.4078 -0.2641
10417PP      PP20521   5.258   4.325   9.736 -0.0432  0.2102 -0.0804
10418PP      PP20522  12.888   6.234  12.381  0.3338 -0.1297  0.0755
10419PP      PP20523  15.433   4.332   2.546 -0.0913 -0.0768  0.2145
10420PP      PP20524  14.689  14.517   2.587  0.2759 -0.1216 -0.3797
10421PP      PP20525   8.423  11.586   3.187 -0.1147 -0.0015 -0.2848
10422PP      PP20526   0.333   1.548   3.513 -0.1617 -0.1428  0.2292
10423PP      PP20527   5.425  13.198   2.541 -0.0895  0.0436 -0.1656
10424PP      PP20528  14.892  13.883   1.453  0.1380 -0.1380  0.0406
10425PP      PP20529  14.150   8.002   0.027  0.1355  0.1012 -0.1893
10426PP      PP20530   0.598   5.022  11.268 -0.1275 -0.2746  0.0178
10427PP      PP20531  15.069   5.563  11.857 -0.1816  0.1464 -0.0850
10428PP      PP20532  11.246  13.922   3.163  0.1354  0.0143 -0.1946
10429PP      PP20533   5.954  13.558   1.712 -0.0055  0.0166  0.2873
10430PP      PP20534   7.856   2.963   4.912 -0.1829 -0.1894 -0.1769
10431PP      PP20535   6.600   3.058  10.719  0.0080  0.3122  0.1093
10432PP      PP20536   1.936   8.908  12.282  0.2091 -0.0570  0.0264
10433PP      PP20537   0.033   2.308   1.581 -0.4405  0.0431 -0.0682
10434PP      PP20538   3.716   0.363   9.613  0.0637 -0.0191 -0.0067
10435PP      PP20539   2.534  15.121   8.741 -0.2389 -0.1302 -0.0406
10436PP      PP20540   8.603   5.637   2.386  0.1800 -0.1257 -0.0149
10437PP      PP20541   0.311  10.959   3.757 -0.0298  0.0367  0.0746
10438PP      PP20542   1.867  15.829   8.717 -0.3804  0.0017  0.0570
10439PP      PP20543   3.731  12.171   1.311  0.1971 -0.0992  0.1285
10440PP      PP20544   5.326  16.251   8.994  0.0835 -0.1493 -0.2251
10441PP      PP20545   1.267   3.834  10.315 -0.2850  0.2384 -0.0653
10442PP      PP20546   7.508  15.434  12.236 -0.2173 -0.3076 -0.2924
10443PP      PP20547  13.916   4.805   9.196 -0.0339 -0.2234 -0.1482
10444PP      PP20548   8.361   5.143   2.886 -0.2378  0.1177  0.1053
10445PP      PP20549   0.823   4.665   2.073  0.3369 -0.1750  0.1149
10446PP      PP20550   4.205   9.938   1.127 -0.2864  0.0073  0.0517
10447PP      PP20551   7.540  12.827   1.719  0.3190 -0.2659 -0.2164
10448PP      PP20552  11.816  12.090  12.602 -0.0325 -0.2432 -0.1179
10449PP      PP20553   4.247  13.329  12.510  0.1562  0.2329 -0.0005
10450PP      PP20554  13.966   8.779   2.160  0.1450  0.3090  0.2355
10451PP      PP20555   5.160   8.959  10.504 -0.2881  0.1740 -0.0694
10452PP      PP20556   0.893   1.619  12.687  0.0851  0.0950 -0.0002
10453PP      PP20557  15.297  14.716   2.185  0.0323 -0.1821 -0.0037
10454PP      PP20558  14.578   0.646  10.517 -0.0739  0.2705 -0.1109
10455PP      PP20559   3.413  13.902   0.936  0.1481 -0.0446 -0.0837
10456PP      PP20560   0.707   0.477   1.855  0.0332 -0.2264 -0.0275
10457PP      PP20561   4.205   0.194   9.874 -0.0910 -0.0239 -0.1024
10458PP      PP20562   8.549  11.599   4.023 -0.0983 -0.0430  0.0688
10459PP      PP20563  11.634  10.360   1.436 -0.1437  0.4227  0.1115
10460PP      PP20564   3.557  10.884   9.076  0.0703  0.0077  0.1790
10461PP      PP20565  10.298  10.547   8.252 -0.0234 -0.0833  0.0133
10462PP      PP20566   2.033  11.696   9.128  0.0217  0.2043 -0.3986
10463PP      PP20567   4.553   9.087  11.106 -0.2677 -0.1928 -0.0534
10464PP      PP20568   3.132   8.908  10.719  0.0796  0.2174 -0.4551
10465PP      PP20569   1.834   6.968   1.622  0.0643 -0.2769 -0.2043
10466PP      PP20570  15.646   0.076  12.222 -0.0661 -0.0920 -0.1005
10467PP      PP20571  12.212  14.218   9.776  0.0533  0.0922 -0.1042
10468PP      PP20572  13.338   4.695   9.999 -0.0696 -0.0996  0.1245
10469PP      PP20573   9.509  11.511   1.196  0.0690  0.4215 -0.2771
10470PP      PP20574   9.059   9.438  11.335  0.1380  0.2157 -0.0345
10471PP      PP20575  13.925  14.578   3.833 -0.1265  0.1554 -0.0052
10472PP      PP20576  13.624  10.932  12.603  0.0134  0.0841 -0.0594
10473PP      PP20577   2.159  11.660   0.197  0.1633  0.0011  0.0331
10474PP      PP20578   2.051   7.011   7.488 -0.0032 -0.1173 -0.1895
10475PP      PP20579   6.044   2.800   9.412 -0.2369 -0.1236 -0.0404
10476PP      PP20580   0.828  12.056  11.999  0.0636 -0.1768  0.2564
10477PP      PP20581   9.539   4.135  10.676 -0.1407  0.1872  0.1015
10478PP      PP20582  10.716  11.486  10.922 -0.0189 -0.3640 -0.1073
10479PP      PP20583   6.252  14.184   3.033 -0.0707 -0.2635  0.2094
10480PP      PP20584  12.971   3.472   8.842 -0.1113  0.1540  0.1556
10481PP      PP20585  12.709  15.584   0.878 -0.0479  0.3844  0.0603
10482PP      PP20586   2.813   4.943  11.127 -0.0438  0.1470 -0.1032
10483PP      PP20587   6.247   9.140   3.192  0.4296 -0.0647  0.0813
10484PP      PP20588  15.617   9.500  10.837  0.0954 -0.2184  0.2359
10485PP      PP20589   8.466   8.449   0.877  0.2620  0.2024 -0.0204
10486PP      PP20590   0.378   6.902   1.485 -0.1447 -0.0899 -0.0735
10487PP      PP20591   1.021  11.947  10.416 -0.0205 -0.0053 -0.3645
10488PP      PP20592   0.264  10.791   0.389  0.0929  0.2659  0.1816
10489PP      PP20593   7.364   0.985  11.312  0.1493  0.2281  0.4033
10490PP      PP20594   2.390   0.536   0.144  0.1752 -0.0023  0.0339
10491PP      PP20595  13.959  10.571   2.245  0.3442 -0.0377 -0.2161
10492PP      PP20596   3.240   5.537   0.609 -0.0769 -0.1835 -0.2549
10493PP      PP20597   5.525   5.967   2.612 -0.1554 -0.0401  0.0961
10494PP      PP20598   3.542   8.122   0.562  0.0347 -0.1237 -0.2155
10495PP      PP20599   5.332  16.014   2.987 -0.0565 -0.4596 -0.1239
10496PP      PP20600   6.988  10.715   2.201  0.2549 -0.0458  0.1072
10497PP      PP20601  14.307  11.597   1.409 -0.2072 -0.2087 -0.2988
10498PP      PP20602   4.896   1.888   3.034 -0.1531 -0.0722 -0.0001
10499PP      PP20603   8.781  14.574   2.604 -0.0403 -0.0732 -0.2331
10500PP      PP20604   7.626  12.585   3.921  0.1088  0.3501 -0.3323
10501PP      PP20605  13.501  15.010  10.571  0.3556 -0.0910  0.1253
10502PP      PP20606  14.760   5.644   0.564 -0.1409  0.1838  0.1084
10503PP      PP20607   3.198   9.561   8.142 -0.0886 -0.1387  0.1463
10504PP      PP20608   3.119   6.901  10.938 -0.1580  0.3189  0.0355
10505PP      PP20609   9.732  15.168   4.740  0.0651 -0.1626 -0.5912
10506PP      PP20610   4.234   0.662   9.937  0.1428 -0.2308 -0.0743
10507PP      PP20611   0.803   0.926  12.085 -0.1229 -0.1510 -0.0147
10508PP      PP20612   4.913   0.998   2.834  0.1253  0.1340  0.0555
10509PP      PP20613  12.746   4.257   3.157 -0.2074  0.1025 -0.3141
10510PP      PP20614  11.023  11.840   2.263  0.2150 -0.0001  0.1805
10511PP      PP20615  14.697   5.394  10.033  0.1361  0.3558  0.1898
10512PP      PP20616  13.576  13.326   3.089 -0.3012  0.2731  0.0079
10513PP      PP20617   3.156  14.212   3.398 -0.0553  0.1764  0.2682
10514PP      PP20618  14.251   3.906  12.517  0.2364 -0.1396 -0.1169
10515PP      PP20619   4.403  10.195   2.601 -0.1658  0.0547  0.1767
10516PP      PP20620   8.085   5.190   9.948  0.1763  0.0394  0.1023
10517PP      PP20621   6.928  15.465   3.522 -0.1929 -0.2144 -0.0882
10518PP      PP20622  10.184   3.399   3.945  0.1052  0.3834 -0.0209
10519PP      PP20623  16.272   5.690   3.094  0.1057 -0.0413  0.2527
10520PP      PP20624  14.986  11.770   0.510 -0.1216 -0.0155  0.1118
10521PP      PP20625   0.511   5.301   1.772  0.0387 -0.2122 -0.2308
10522PP      PP20626  12.077  10.718   1.484  0.2621 -0.0168 -0.0549
10523PP      PP20627   3.877   8.583   2.880  0.0619 -0.0116  0.0178
10524PP      PP20628   4.671  12.396   2.737  0.0912 -0.1864 -0.0744
10525PP      PP20629  15.637   4.464   9.683 -0.0388  0.1069  0.1535
10526PP      PP20630  14.162   2.931  10.892  0.2499 -0.0762  0.0512
10527PP      PP20631  13.971   4.239   3.626  0.1805 -0.1454  0.2062
10528PP      PP20632   1.074  10.928  10.562 -0.1556 -0.2900 -0.1909
10529PP      PP20633   9.558  15.739   2.964 -0.0844 -0.1578  0.1246
10530PP      PP20634   4.814  13.166  10.334 -0.6217  0.1381  0.1979
10531PP      PP20635  10.320   9.240  11.770  0.0255 -0.1745 -0.0325
10532PP      PP20636   6.922  13.396  10.025 -0.0086  0.5068 -0.0877
10533PP      PP20637  13.617   1.677   0.394 -0.0807  0.0090  0.0154
10534PP      PP20638   6.200   4.067   8.722  0.0295 -0.2009 -0.0784
10535PP      PP20639   9.143  13.740  10.361  0.1573  0.0559  0.1813
10536PP      PP20640  14.658   7.352   0.618 -0.1532 -0.1475  0.1134
10537PP      PP20641   8.837   6.200   3.484 -0.0654 -0.1077  0.0971
10538PP      PP20642   5.623   0.102  11.219  0.1227  0.1631 -0.1375
10539PP      PP20643   4.116   4.801   3.671  0.0900  0.0388  0.0161
10540PP      PP20644  14.726   2.446   8.582 -0.0821  0.1171  0.0939
10541PP      PP20645  11.400   4.629  11.572  0.0012  0.5213  0.1166
10542PP      PP20646  15.199  11.630  11.818 -0.0992  0.0413 -0.0547
10543PP      PP20647  11.610  13.435   4.152  0.0860  0.1505 -0.2436
10544PP      PP20648  14.600   3.500   4.254 -0.2601  0.0258  0.0359
10545PP      PP20649  11.931   4.496   2.178  0.1102  0.1050 -0.1006
10546PP      PP20650  10.351   9.407  11.111  0.0854 -0.1505 -0.0966
10547PP      PP20651  12.921   3.324   3.134  0.0648  0.0520 -0.2313
10548PP      PP20652   5.462   2.160  12.137 -0.0571  0.1014 -0.0967
10549PP      PP20653  15.749   7.770   8.866 -0.1525 -0.0999 -0.0708
10550PP      PP20654   1.484  16.051   1.463 -0.0907  0.0673 -0.1949
10551PP      PP20655  13.401   9.281  12.658  0.1654 -0.2330 -0.1549
10552PP      PP20656   4.117   6.798   2.351 -0.0769 -0.1785  0.1654
10553PP      PP20657   7.922  11.701   3.163 -0.2677 -0.1217 -0.1803
10554PP      PP20658  11.161  13.576  11.224  0.1796  0.0260 -0.5601
10555PP      PP20659   4.397   3.159   8.249 -0.2395  0.0170 -0.1258
10556PP      PP20660  14.125   8.973   1.131  0.3911 -0.1980  0.2365
10557PP      PP20661  14.262   5.529   2.245 -0.0672  0.0869 -0.1251
10558PP      PP20662  12.245  13.899   0.960  0.0919  0.3486  0.2659
10559PP      PP20663   9.925  10.180  12.569 -0.4028 -0.2648  0.1838
10560PP      PP20664  16.274   1.443  11.123 -0.0759 -0.2318  0.0537
10561PP      PP20665   1.521   0.977   3.221 -0.0091 -0.1566 -0.0438
10562PP      PP20666   3.472   5.476   2.875 -0.2339 -0.0675 -0.2984
10563PP      PP20667   2.823   3.332   8.523  0.0561 -0.0344  0.1374
10564PP      PP20668  12.328   4.730  10.090 -0.0765  0.3267 -0.0063
10565PP      PP20669   5.995   8.115   0.025 -0.0031 -0.1248  0.0600
10566PP      PP20670  11.721   4.109   0.970  0.0997  0.1393 -0.3784
10567PP      PP20671  11.875  10.571   2.486 -0.2434  0.0058 -0.1157
10568PP      PP20672  15.378  14.378  10.610 -0.2207 -0.3152  0.0991
10569PP      PP20673   6.136  11.180   1.124 -0.1021 -0.0668  0.2576
10570PP      PP20674   5.730   6.149   9.014  0.0942  0.0102 -0.2331
10571PP      PP20675  15.128  10.743   0.858 -0.0120 -0.0556 -0.2554
10572PP      PP20676  10.439   9.741   8.833  0.2131  0.0987  0.0201
10573PP      PP20677   8.156   5.593  11.577 -0.0629 -0.3099  0.1157
10574PP      PP20678   7.014   0.650   0.210  0.2971 -0.0254  0.0335
10575PP      PP20679   4.961   1.524  10.035 -0.1709  0.0642  0.1930
10576PP      PP20680   3.539   4.618   8.645  0.2223  0.0459  0.1342
10577PP      PP20681   6.086   6.307  10.725 -0.0884  0.2357 -0.2980
10578PP      PP20682   1.985  14.062   0.851 -0.0434  0.1585 -0.0333
10579PP      PP20683   4.006   2.267   0.490  0.2584 -0.3111  0.0175
10580PP      PP20684  10.546  10.310   8.727 -0.0392 -0.1708  0.1254
10581PP      PP20685   0.136   1.308  11.577 -0.3408 -0.0059  0.0408
10582PP      PP20686   7.074  12.232  10.305  0.0695  0.1118  0.1790
10583PP      PP20687  15.304   1.046   9.751  0.1601 -0.3243 -0.0631
10584PP      PP20688   8.230   3.978  12.145  0.1847  0.0702 -0.1004
10585PP      PP20689   0.084  13.052  10.919  0.1323 -0.0781  0.0705
10586PP      PP20690  12.903  11.783   4.199 -0.1422  0.0453  0.3310
10587PP      PP20691  15.870   6.239   8.681  0.3158  0.0616 -0.0451
10588PP      PP20692   2.763  15.569   4.273  0.0096 -0.0077  0.2194
10589PP      PP20693   6.277   4.849  11.184 -0.1870  0.1719  0.1170
10590PP      PP20694   5.971   7.463   0.154 -0.2560  0.1211 -0.1024
10591PP      PP20695  13.568   1.419   3.958 -0.0450 -0.1159  0.1020
10592PP      PP20696  15.727   3.195  10.982 -0.3347 -0.0452 -0.1189
10593PP      PP20697   6.316   2.248  11.795  0.1985  0.1663 -0.0457
10594PP      PP20698   9.625   8.541   1.004 -0.1514  0.1914  0.1289
10595PP      PP20699   1.001  13.025  10.521  0.0618  0.4055 -0.1624
10596PP      PP20700  15.581   5.199   2.212  0.0016  0.3153  0.1260
10597PP      PP20701  10.801  10.027   3.667  0.0268 -0.1621 -0.1200
10598PP      PP20702   8.094   9.627  11.695  0.1862 -0.1768 -0.0230
10599PP      PP20703  14.631   2.453  11.761 -0.0493  0.2019 -0.0998
10600PP      PP20704  14.677   7.246   8.021 -0.2002 -0.2559  0.2829
10601PP      PP20705   9.208  13.911   2.097  0.0368  0.0476  0.1321
10602PP      PP20706   8.334  15.245  12.061  0.0602  0.0567  0.1532
10603PP      PP20707   4.844   5.267   9.012 -0.1899  0.0522  0.0554
10604PP      PP20708  13.085  10.879   0.593 -0.0883 -0.0176  0.0454
10605PP      PP20709  15.628   7.214  12.693  0.0664 -0.1496  0.1016
10606PP      PP20710  10.416   8.188   0.833 -0.0659 -0.0332  0.0372
10607PP      PP20711   4.434  14.480   9.605  0.0339  0.0880  0.0755
10608PP      PP20712   0.635   8.345   7.962  0.3692  0.0220 -0.1446
10609PP      PP20713  14.370   9.754  12.731 -0.0289  0.1803  0.0425
10610PP      PP20714   7.731   0.479   2.579 -0.0174  0.1213 -0.1347
10611PP      PP20715  10.856   9.397   1.517 -0.0970  0.0410 -0.0010
10612PP      PP20716  15.095   6.122  11.159  0.2283  0.0537 -0.1746
10613PP      PP20717   1.237   8.642   2.376 -0.1481 -0.4291  0.1513
10614PP      PP20718  10.877   3.640   4.095  0.0567  0.0459  0.1825
10615PP      PP20719   0.218  13.300   3.002  0.0018  0.0613 -0.0533
10616PP      PP20720   1.251  15.499   2.942 -0.0932  0.0195 -0.0024
10617PP      PP20721   6.916   2.699   4.687 -0.1277  0.4520  0.1428
10618PP      PP20722   2.900  15.127   3.184  0.0821  0.0694  0.0508
10619PP      PP20723   2.443   8.320   8.859 -0.0300 -0.0086 -0.0320
10620PP      PP20724  12.309  10.421  12.574  0.0857 -0.1923 -0.1826
10621PP      PP20725  10.136   5.832   2.741 -0.1180 -0.1943 -0.0075
10622PP      PP20726   5.700   8.258   3.000  0.0970  0.2082 -0.0171
10623PP      PP20727   5.078   6.446   1.495 -0.0787  0.1947  0.0469
10624PP      PP20728  10.976   3.354  10.437 -0.2095  0.0291 -0.1693
10625PP      PP20729  15.757   9.798   1.393 -0.1094  0.1553  0.2843
10626PP      PP20730   6.656  11.426  11.140  0.0345  0.1506 -0.1099
10627PP      PP20731  11.328   7.635  11.409 -0.1233  0.2049 -0.2397
10628PP      PP20732   3.852   8.156   2.565  0.0426  0.1043  0.2435
10629PP      PP20733  11.496   1.910   3.079 -0.1181 -0.1196  0.0935
10630PP      PP20734  11.002   2.003   3.073  0.0495  0.1070  0.2045
10631PP      PP20735  11.282   0.099  10.998  0.2506  0.3921  0.1569
10632PP      PP20736   3.546  15.150   2.249  0.1191 -0.0786  0.0094
10633PP      PP20737   3.817  13.066   0.722 -0.2619  0.3258  0.1034
10634PP      PP20738   0.880   1.938   3.728  0.0597  0.4702  0.0698
10635PP      PP20739   3.175  15.970   4.613 -0.1640 -0.0805 -0.0736
10636PP      PP20740  11.372   9.237   8.209  0.0031  0.2045 -0.2401
10637PP      PP20741   4.169  10.057  12.391 -0.3208  0.3427  0.2933
10638PP      PP20742   5.628   6.726   0.929  0.2296  0.1302 -0.1108
10639PP      PP20743   3.368   9.305   1.730 -0.0571 -0.0599  0.4790
10640PP      PP20744   1.620  14.608   9.956 -0.0614 -0.0162 -0.1155
10641PP      PP20745   5.766   6.223   2.199 -0.2701  0.3645  0.2616
10642PP      PP20746   4.837   1.664  11.424 -0.0716  0.2057  0.1313
10643PP      PP20747  12.886  12.548   4.066 -0.0316  0.0518  0.1154
10644PP      PP20748  13.869   6.383  12.456  0.0227  0.0170 -0.1882
10645PP      PP20749  13.181   8.149   8.815  0.1446 -0.0658  0.0449
10646PP      PP20750  14.374  14.217  10.505 -0.3033  0.0497  0.0293
10647PP      PP20751   4.672  15.624   4.065  0.0003  0.2053  0.3071
10648PP      PP20752  11.686   3.405   4.044 -0.0559 -0.0991  0.1799
10649PP      PP20753  14.178   5.435   9.275  0.1792 -0.3758  0.0428
10650PP      PP20754   9.450  11.273   9.214 -0.0195 -0.2658 -0.1092
10651PP      PP20755   0.945   2.845  11.962 -0.2838 -0.0216 -0.1975
10652PP      PP20756  13.601   5.484   9.404 -0.1326  0.3191  0.0890
10653PP      PP20757  15.380  15.097  10.819 -0.3113  0.3145  0.1763
10654PP      PP20758   0.592   8.825   2.151 -0.0303 -0.0146  0.0503
10655PP      PP20759   7.426   1.507  12.207  0.1749  0.1176 -0.0537
10656PP      PP20760   2.988   5.219   0.943 -0.0293  0.2237 -0.3492
10657PP      PP20761   2.264  14.061   2.752  0.0624  0.0706  0.2670
10658PP      PP20762   4.646   8.235  12.367  0.1950  0.2108  0.1093
10659PP      PP20763   4.459   0.514   3.301  0.2205 -0.1682  0.1433
10660PP      PP20764   2.380   2.876  12.233  0.0839 -0.0529  0.1790
10661PP      PP20765   5.974   2.423   2.761  0.0325  0.3073 -0.1507
10662PP      PP20766   4.019   4.167   2.490 -0.0557  0.2605  0.0593
10663PP      PP20767   7.941   0.230   3.984  0.0951 -0.1279  0.1704
10664PP      PP20768  14.192   3.172   1.067  0.1115 -0.2014 -0.1786
10665PP      PP20769   4.812   7.997   3.335  0.2729 -0.0083  0.1305
10666PP      PP20770  12.680  15.514  12.011  0.2868  0.0168 -0.1356
10667PP      PP20771  13.196   3.449   1.989  0.0553 -0.0051 -0.1460
10668PP      PP20772   4.014  12.667   8.739 -0.2337 -0.1405 -0.1207
10669PP      PP20773  14.057  14.305  10.906 -0.0698  0.2024 -0.2648
10670PP      PP20774  15.609   5.573   0.629  0.1387  0.1684  0.0961
10671PP      PP20775   5.353  10.229  11.036 -0.0079 -0.0800  0.0910
10672PP      PP20776  12.736  15.517   1.348 -0.0435 -0.2143 -0.1093
10673PP      PP20777   3.182   8.267  11.280 -0.2311  0.2597 -0.1579
10674PP      PP20778   6.381  14.466   1.564  0.0678 -0.0820 -0.2218
10675PP      PP20779   4.719   7.178   9.280 -0.0237  0.0723  0.3090
10676PP      PP20780   8.236   2.474   4.078 -0.1640 -0.3657  0.0865
10677PP      PP20781   4.534   3.180   9.896  0.1429  0.3553 -0.1219
10678PP      PP20782  10.799  15.444   3.989 -0.1620 -0.0199  0.0513
10679PP      PP20783   0.453   4.534   2.393 -0.1685 -0.1545 -0.1460
10680PP      PP20784   2.052  11.340   1.358  0.2967  0.1753  0.4964
10681PP      PP20785  12.231  11.272   0.556 -0.4996 -0.4165 -0.1846
10682PP      PP20786   0.581  14.275   0.262 -0.0011  0.0431  0.4215
10683PP      PP20787  12.057  12.984   4.594  0.0280  0.2556  0.1033
10684PP      PP20788   4.449   9.977   7.971  0.1198  0.2955 -0.0523
10685PP      PP20789  15.406  10.818   1.258  0.1040 -0.1563  0.0464
10686PP      PP20790   0.894   6.972  11.400 -0.0896 -0.0076  0.3036
10687PP      PP20791   8.585  13.660  12.064 -0.0995  0.0510  0.2852
10688PP      PP20792   9.245  11.449  12.677 -0.0756  0.3056 -0.2158
10689PP      PP20793   2.156  12.944   9.196  0.6438 -0.0031  0.1774
10690PP      PP20794   4.438  11.078   1.082  0.1338  0.0831  0.0312
10691PP      PP20795   5.803   4.421   7.817 -0.1775  0.1520  0.3183
10692PP      PP20796   8.498  10.445  11.130 -0.2443  0.0092  0.0926
10693PP      PP20797   5.362  15.148  10.088  0.2785  0.1528  0.1118
10694PP      PP20798   3.113  15.000  10.086  0.0763 -0.0228 -0.1926
10695PP      PP20799   4.791  11.004  10.352 -0.2080  0.1342 -0.2009
10696PP      PP20800   7.556   9.496   4.166 -0.1121 -0.1173  0.1226
10697PP      PP20801  12.673  10.529   0.263  0.1532  0.1429 -0.1376
10698PP      PP20802   9.613  15.912  12.161  0.1436 -0.2593 -0.0716
10699PP      PP20803  15.281  15.616   4.536  0.0907 -0.0619 -0.0874
10700PP      PP20804   7.028  10.876  10.848 -0.0075 -0.1375 -0.0640
10701PP      PP20805  12.878   8.544   8.081  0.0947  0.0843 -0.1205
10702PP      PP20806  16.103   9.987   9.940 -0.1085  0.1356 -0.0934
10703PP      PP20807  14.907   5.998   2.006  0.3629  0.1818  0.0542
10704PP      PP20808  13.972   6.648   8.059  0.1804  0.0388 -0.0110
10705PP      PP20809   4.961   4.292  10.625 -0.0597  0.1198  0.2298
10706PP      PP20810  10.553   0.487   4.135  0.1019 -0.0811  0.2199
10707PP      PP20811  15.310  13.883   3.514 -0.0980  0.0286 -0.4595
10708PP      PP20812   9.721   4.445  11.845 -0.1129  0.1841 -0.1749
10709PP      PP20813   6.055   3.237   2.279  0.0128  0.3232  0.1278
10710PP      PP20814   5.590   2.008   4.048 -0.3090 -0.0971 -0.5003
10711PP      PP20815  14.883   8.780   9.921 -0.3322  0.2388 -0.1880
10712PP      PP20816   0.693  13.974   2.135  0.2921  0.2520 -0.0066
10713PP      PP20817  10.994  15.736   4.758 -0.4040  0.2219  0.0043
10714PP      PP20818   0.249   0.854  11.200  0.1292  0.1604 -0.3817
10715PP      PP20819   2.464   7.384  10.541  0.0355 -0.0929  0.1369
10716PP      PP20820   3.727   3.322  11.818 -0.3525  0.1841  0.0773
10717PP      PP20821   8.052  10.644  11.301  0.1509  0.2334  0.0731
10718PP      PP20822   9.830   5.563   1.622  0.0161 -0.0616 -0.0832
10719PP      PP20823  14.353   7.965  11.107 -0.0507  0.0689  0.2330
10720PP      PP20824   5.844  16.045  11.384  0.0912  0.0678  0.0641
10721PP      PP20825  11.543   1.019   0.226 -0.2424 -0.0997 -0.0773
10722PP      PP20826   2.173   6.836   2.725 -0.0640  0.0562 -0.0436
10723PP      PP20827  11.223   2.721   0.877 -0.0072 -0.2620 -0.3710
10724PP      PP20828   0.204   9.972  10.577  0.1012 -0.1625 -0.3687
10725PP      PP20829   9.708   3.682   0.442  0.0730 -0.0833 -0.0636
10726PP      PP20830  15.782   9.110  10.454 -0.0240  0.0001 -0.1692
10727PP      PP20831   5.301   9.459  10.202 -0.1897 -0.0405  0.1144
10728PP      PP20832   9.908  12.633  11.616  0.0865  0.3458 -0.0784
10729PP      PP20833   5.910   0.544  12.521 -0.2570 -0.0030  0.2007
10730PP      PP20834   0.987   1.933   0.282 -0.0242 -0.2870  0.3329
10731PP      PP20835   1.763  11.028   9.589 -0.2481 -0.0877  0.0771
10732PP      PP20836  11.775   7.351   9.262  0.0492 -0.0767 -0.0340
10733PP      PP20837  15.116   6.914  10.604  0.1265 -0.2362 -0.1094
10734PP      PP20838   1.125   7.225  10.629 -0.3191 -0.2353  0.0853
10735PP      PP20839  10.038  15.200   1.339 -0.2926  0.3022 -0.1214
10736PP      PP20840   9.668   8.832  11.459 -0.0385 -0.1100 -0.1627
10737PP      PP20841   6.872  13.539  10.930 -0.1548  0.1235  0.3143
10738PP      PP20842   1.634  15.844  10.493  0.0760  0.1131 -0.0591
10739PP      PP20843  14.363   1.944  11.053 -0.0199 -0.0362 -0.2200
10740PP      PP20844   9.477   1.272   3.820 -0.3930 -0.0392  0.2880
10741PP      PP20845  14.412  11.932   4.113  0.1688  0.2507 -0.0813
10742PP      PP20846   2.036   1.073  12.277 -0.1191 -0.1354 -0.1828
10743PP      PP20847  12.551   7.809  11.138  0.1137  0.2613 -0.0023
10744PP      PP20848   0.371   2.620   9.091  0.3830  0.0118  0.1403
10745PP      PP20849  11.817   0.188   3.002 -0.1478 -0.0378 -0.0102
10746PP      PP20850   2.000  13.651   0.467  0.2899  0.2108  0.1253
10747PP      PP20851   6.654   2.500   1.395 -0.1210  0.0642  0.3930
10748PP      PP20852   4.970   2.560   1.868 -0.1128 -0.1597 -0.2101
10749PP      PP20853   0.930   5.749  10.489  0.0271 -0.2096  0.0465
10750PP      PP20854   1.939  12.074   8.642 -0.1443 -0.2110  0.1103
10751PP      PP20855   9.911  14.691  12.735 -0.1078 -0.0134 -0.0307
10752PP      PP20856   8.370   5.900   2.002 -0.0897 -0.2426  0.1303
10753PP      PP20857   7.279   6.735  12.530  0.2643  0.3037  0.3598
10754PP      PP20858   3.669  14.029   0.520 -0.1176  0.2950  0.0615
10755PP      PP20859   1.941  13.976   8.626  0.0842  0.2519 -0.2535
10756PP      PP20860  16.217   3.507  10.444  0.0305  0.2100  0.0854
10757PP      PP20861   8.475   4.057  11.248 -0.1793 -0.1383  0.0618
10758PP      PP20862   6.792   2.342   3.799  0.4238 -0.2281 -0.1023
10759PP      PP20863   2.552   8.027   0.195  0.1120 -0.0801  0.0896
10760PP      PP20864   1.625   4.977   3.385 -0.2737  0.0654 -0.1911
10761PP      PP20865   7.026   6.829   3.760 -0.0191 -0.0851 -0.1703
10762PP      PP20866   0.244   7.775   1.011 -0.1048 -0.2485  0.0061
10763PP      PP20867   2.532   6.959   2.337  0.0891 -0.1260  0.2581
10764PP      PP20868   2.761   2.233   4.499  0.3184  0.0935  0.0444
10765PP      PP20869   5.622  11.389   2.449  0.2924  0.1516  0.2638
10766PP      PP20870   6.887   1.976   9.261  0.1825  0.0006 -0.0270
10767PP      PP20871  13.816   5.223   0.163  0.0897  0.1596 -0.0518
10768PP      PP20872   3.748   6.869   2.000 -0.1962  0.0401  0.3469
10769PP      PP20873   6.637  10.110   2.717 -0.1467  0.2068 -0.1721
10770PP      PP20874   2.004  14.627   9.599  0.2171  0.0941  0.0925
10771PP      PP20875   2.218  15.501   0.309 -0.2709  0.0467 -0.2254
10772PP      PP20876   9.998   3.708   3.281 -0.0725  0.1219 -0.0363
10773PP      PP20877   3.948   1.608  11.266 -0.0232 -0.0247 -0.0622
10774PP      PP20878  14.091   5.422   8.390  0.1181  0.0860  0.2521
10775PP      PP20879   2.530   1.534  12.559  0.1122  0.1069  0.3334
10776PP      PP20880  10.254  10.560   3.217  0.1059 -0.1016  0.0260
10777PP      PP20881  12.693   7.736   9.566 -0.0587  0.0418 -0.0073
10778PP      PP20882   7.619   1.774   9.564 -0.0311 -0.1879  0.1037
10779PP      PP20883   4.504   5.969  10.400 -0.4193 -0.0572 -0.2712
10780PP      PP20884   6.759   5.069  10.168 -0.1394  0.2608  0.0287
10781PP      PP20885  14.851  16.195   0.010 -0.1229 -0.1686 -0.1486
10782PP      PP20886  11.911  11.473   9.243  0.0018  0.1061 -0.4760
10783PP      PP20887   6.975   2.098   1.681 -0.0778 -0.0553  0.0289
10784PP      PP20888   6.850  15.384   0.693 -0.1506 -0.0517  0.2540
10785PP      PP20889  11.279  10.180   3.351  0.1472 -0.1103  0.0385
10786PP      PP20890   9.248  15.980  10.135  0.3313  0.1179 -0.0927
10787PP      PP20891  16.169  12.593   1.685  0.3607 -0.1005 -0.1379
10788PP      PP20892  12.289  14.109   9.252  0.0599  0.1724  0.3077
10789PP      PP20893  16.070  15.188   1.957  0.4850 -0.2944  0.2804
10790PP      PP20894   9.902   1.857   3.831 -0.1791 -0.1506  0.1252
10791PP      PP20895   0.482   5.318   2.832  0.0956  0.0880  0.0674
10792PP      PP20896   8.475  11.958   0.554 -0.1276  0.2715 -0.2076
10793PP      PP20897  11.040   1.038   9.117  0.2802 -0.3182 -0.1462
10794PP      PP20898  15.784  16.340   0.742 -0.2464 -0.0269 -0.0994
10795PP      PP20899   8.798   7.905   0.221  0.0876  0.0311 -0.3321
10796PP      PP20900   5.403  12.505   1.106 -0.0341  0.0077 -0.2751
10797PP      PP20901   7.658  10.460  12.748 -0.2344 -0.0676 -0.1789
10798PP      PP20902   3.915   2.745   0.398  0.1633  0.0268 -0.1054
10799PP      PP20903  15.796  15.884  12.484 -0.0954  0.0388  0.2606
10800PP      PP20904  14.664   5.827  10.351 -0.0027 -0.1790 -0.1800
10801PP      PP20905   2.500   8.314  12.428 -0.3618  0.3163  0.4405
10802PP      PP20906   3.139  16.350   1.739 -0.2320 -0.0399  0.0054
10803PP      PP20907   9.274   5.230  10.791 -0.2194  0.1319  0.0700
10804PP      PP20908  14.093   4.294   8.157  0.2070 -0.1289  0.4713
10805PP      PP20909  13.224   5.068   3.601  0.0889  0.2065 -0.3157
10806PP      PP20910   9.693   8.362   8.406  0.0127  0.0096  0.1216
10807PP      PP20911   8.287   0.216   1.471  0.0804 -0.1686 -0.4863
10808PP      PP20912   5.045   1.066   9.709  0.3705 -0.0945  0.1025
10809PP      PP20913   7.810  14.951   1.562  0.1019 -0.1779 -0.2925
10810PP      PP20914   7.527   9.851   9.003  0.2725 -0.0057 -0.0507
10811PP      PP20915  16.306   4.768   8.864 -0.0990 -0.1309 -0.0468
10812PP      PP20916   4.574   9.840  10.946 -0.0838  0.0837 -0.3732
10813PP      PP20917   8.155  10.587   3.197 -0.1654 -0.3100  0.1093
10814PP      PP20918   6.819   5.648  11.825  0.0211 -0.2091 -0.1812
10815PP      PP20919   1.771   6.170   0.860 -0.0363  0.2449 -0.1183
10816PP      PP20920   1.283   4.095   1.533 -0.1937  0.0305  0.1560
10817PP      PP20921   2.799   0.382   4.120  0.2458  0.0307 -0.0261
10818PP      PP20922  12.604  15.179   3.329 -0.0829 -0.1377 -0.3135
10819PP      PP20923  12.666   9.951  10.967 -0.1140 -0.0949  0.1443
10820PP      PP20924  11.389   1.939   3.624 -0.1111  0.4688 -0.3455
10821PP      PP20925   8.008  10.009   8.374  0.2522 -0.5351  0.0418
10822PP      PP20926   8.726  13.550   8.200 -0.0923 -0.0832 -0.0495
10823PP      PP20927   9.483  12.095   3.068  0.3192  0.0644 -0.2003
10824PP      PP20928   1.626  16.182   9.019 -0.2235  0.1979 -0.0802
10825PP      PP20929   8.471   6.232  10.272 -0.0768 -0.0519  0.0379
10826PP      PP20930   0.806  13.832   0.058 -0.3634 -0.1147  0.0768
10827PP      PP20931  14.418  12.968  11.123  0.0195 -0.2078 -0.0498
10828PP      PP20932   8.431   0.202   3.402  0.0452  0.0812  0.0659
10829PP      PP20933   4.895  13.843   8.784  0.2292 -0.1287  0.0295
10830PP      PP20934  11.058  11.107  10.418 -0.0627  0.1661  0.0490
10831PP      PP20935  14.915  16.072   2.095  0.1506  0.1026  0.0143
10832PP      PP20936  11.203   7.849   2.074 -0.2948  0.0005 -0.0497
10833PP      PP20937   8.716  10.670   8.897  0.1838  0.1057 -0.3637
10834PP      PP20938   8.629   2.144  10.820 -0.1661  0.0168  0.2509
10835PP      PP20939  11.355  14.040  12.594 -0.0649  0.1195 -0.2672
10836PP      PP20940   6.659   6.780   8.397  0.2146 -0.1179 -0.0872
10837PP      PP20941  16.200   5.873   8.481 -0.1518  0.2900  0.1529
10838PP      PP20942   3.536   2.170   2.918  0.0250  0.3681 -0.0666
10839PP      PP20943   2.954   2.432   8.776 -0.2798 -0.2733  0.0122
10840PP      PP20944   2.291   6.174  11.132  0.2069  0.2355  0.0412
10841PP      PP20945   4.904   2.141   8.955 -0.0690 -0.0316  0.0026
10842PP      PP20946  11.029  14.009  10.869  0.2133 -0.2170 -0.0417
10843PP      PP20947   2.276   3.395   8.083  0.2833 -0.2892 -0.1294
10844PP      PP20948   7.409   4.019   9.606  0.0260 -0.0907  0.0774
10845PP      PP20949   6.733   7.443   8.161 -0.0561 -0.0943 -0.0592
10846PP      PP20950  13.443   3.994   1.791  0.1538 -0.3962 -0.0688
10847PP      PP20951   0.106  13.222   2.148 -0.2204 -0.3858  0.2512
10848PP      PP20952   7.128   9.778   2.237  0.0979  0.0590 -0.0933
10849PP      PP20953   2.745   6.101   9.395  0.2475 -0.2101 -0.1859
10850PP      PP20954  10.701  16.298  12.595 -0.1901  0.1858 -0.1654
10851PP      PP20955   2.516  13.545   7.844  0.2228 -0.0768 -0.4610
10852PP      PP20956   4.270   4.945  10.319  0.2165 -0.2096 -0.3275
10853PP      PP20957  13.313   1.347  12.280  0.1124 -0.3508 -0.0215
10854PP      PP20958  15.745   4.992  10.557 -0.1146  0.3611 -0.1565
10855PP      PP20959  11.354  14.499   1.133 -0.2779  0.2072 -0.0463
10856PP      PP20960   0.177   6.670   2.817 -0.0233  0.0918  0.0337
10857PP      PP20961   1.981   6.952   9.200 -0.1457 -0.0688 -0.0800
10858PP      PP20962   1.899  12.896   1.021 -0.0076 -0.0976  0.0024
10859PP      PP20963   5.695   5.345  10.215  0.1159 -0.1641  0.0498
10860PP      PP20964   2.508  16.197   1.166  0.1377 -0.2596  0.2107
10861PP      PP20965   0.803   4.742   9.257 -0.0125 -0.2154  0.1010
10862PP      PP20966   2.514  13.896   0.663  0.1806  0.0093  0.0570
10863PP      PP20967   1.763   2.151   4.027 -0.2056 -0.0791 -0.1002
10864PP      PP20968   1.115   0.155   1.594 -0.0648 -0.4920  0.2365
10865PP      PP20969  15.186  14.389   8.933  0.0717  0.0840  0.3338
10866PP      PP20970  13.584   8.306   9.812  0.2238  0.0212 -0.0101
10867PP      PP20971  13.517  10.551  11.689 -0.1885 -0.0245  0.0512
10868PP      PP20972  11.804  15.415   9.647  0.0160 -0.2652  0.0932
10869PP      PP20973   7.032  13.227  12.560  0.0958 -0.0453  0.2132
10870PP      PP20974   5.278   0.479   1.586 -0.1882  0.0089  0.1459
10871PP      PP20975   0.539  11.896   2.018 -0.1815  0.0078  0.1478
10872PP      PP20976  13.325  14.675   0.538 -0.1064 -0.0100 -0.0021
10873PP      PP20977  12.098  15.437   3.963  0.0277  0.0416  0.0589
10874PP      PP20978   5.795   8.007   9.236 -0.0560  0.1149 -0.1958
10875PP      PP20979  10.602  15.878   1.912  0.4221  0.1445  0.1007
10876PP      PP20980   1.922   6.310   8.377 -0.0376 -0.3297 -0.0670
10877PP      PP20981   6.298   8.695   2.412 -0.5063  0.1388 -0.1553
10878PP      PP20982  15.024   3.735   8.905  0.0739  0.0345 -0.2184
10879PP      PP20983  16.035  13.323   3.470 -0.0489  0.1098 -0.1693
10880PP      PP20984   6.488  10.022  12.259 -0.0012  0.1607  0.0621
10881PP      PP20985   0.656   6.206  11.883  0.0660 -0.2989  0.0320
10882PP      PP20986   4.471   3.680   9.892  0.1363  0.0115  0.1548
10883PP      PP20987  10.390   2.734   1.238 -0.1747 -0.0424 -0.3675
10884PP      PP20988   2.606   4.246  12.065 -0.1850  0.0938  0.0064
10885PP      PP20989   3.497   7.503  12.220 -0.4801 -0.0964  0.0497
10886PP      PP20990   3.706   8.485   8.582  0.0930 -0.1347  0.2903
10887PP      PP20991   2.811  11.081   8.020 -0.2032  0.1927  0.1951
10888PP      PP20992   9.927  12.960  12.102 -0.1424  0.2265 -0.0422
10889PP      PP20993   1.747   6.586  10.607  0.0442 -0.1398 -0.3791
10890PP      PP20994  14.483   3.749   9.128 -0.0204 -0.1203  0.5505
10891PP      PP20995   6.813  10.245  10.969  0.1190  0.4114 -0.3824
10892PP      PP20996   8.662  11.610   1.551  0.0610 -0.0946 -0.0700
10893PP      PP20997   3.067  14.644   0.941 -0.0075 -0.0097  0.2146
10894PP      PP20998   8.912   4.709   0.388  0.2459  0.2938  0.1872
10895PP      PP20999  14.834   8.628   8.092 -0.3774  0.3687  0.2401
10896PP      PP21000   7.301  15.631   1.956  0.1139 -0.5231 -0.0611
10897PP      PP21001   6.555   3.115  11.310 -0.1241  0.0088 -0.1283
10898PP      PP21002   8.928   5.280   8.379  0.6157  0.0190 -0.2835
10899PP      PP21003   2.279   9.184  11.945  0.1374  0.0050 -0.1253
10900PP      PP21004   0.001   6.209  10.584 -0.0721  0.0304  0.3730
10901PP      PP21005   7.323  14.244   1.976 -0.0471  0.0456 -0.0428
10902PP      PP21006   5.377  11.620   3.695 -0.3608  0.0611 -0.0494
10903PP      PP21007   9.125   4.934   3.451 -0.0075 -0.1142  0.0927
10904PP      PP21008   9.456   6.930   1.571  0.0851 -0.3343  0.0293
10905PP      PP21009  15.416  10.467   3.770 -0.1635 -0.1324 -0.0828
10906PP      PP21010   3.840  13.888   2.326  0.3892 -0.2366 -0.1624
10907PP      PP21011   0.084  11.613  10.447  0.0085  0.0660 -0.0596
10908PP      PP21012   6.604  13.530   0.695  0.1844 -0.1296 -0.0919
10909PP      PP21013  15.495   2.946   0.392 -0.1947 -0.0544 -0.1247
10910PP      PP21014  10.572   5.622   8.457 -0.1304 -0.2549 -0.0729
10911PP      PP21015   0.674   1.695   0.679 -0.1216  0.1001 -0.0720
10912PP      PP21016  15.207   4.617  11.926 -0.1980  0.0932 -0.1893
10913PP      PP21017   5.652   2.565  12.690 -0.0594 -0.0981 -0.2700
10914PP      PP21018   3.256   5.698  12.353 -0.0041 -0.0839  0.1461
10915PP      PP21019   9.631  10.829   3.244 -0.0051 -0.3454 -0.1094
10916PP      PP21020  12.114   3.035  10.688  0.0568 -0.0443 -0.2373
10917PP      PP21021   5.208   2.221   4.289 -0.3875 -0.0456  0.1853
10918PP      PP21022   7.564   2.809  11.427  0.0642  0.0108 -0.1259
10919PP      PP21023   2.299   3.526  10.205  0.2945  0.1660  0.0921
10920PP      PP21024  14.134   8.563   2.947  0.1305  0.2448  0.0084
10921PP      PP21025  11.397  14.370   3.358 -0.0993  0.3773 -0.2586
10922PP      PP21026  15.543   6.830  11.351 -0.2456  0.0249  0.0980
10923PP      PP21027  14.560   2.401   1.212 -0.0155 -0.1907 -0.0635
10924PP      PP21028   4.335   6.325  10.128  0.2837  0.2418 -0.3373
10925PP      PP21029   4.132   1.209   9.097  0.0051 -0.1226 -0.0159
10926PP      PP21030  13.381   8.257  12.319 -0.0903  0.0168 -0.0056
10927PP      PP21031   1.566   3.805   1.787 -0.0439 -0.3190  0.0538
10928PP      PP21032   9.354   8.300   2.934 -0.0310 -0.1880  0.3073
10929PP      PP21033   4.030   3.633   0.992  0.1295  0.1509  0.1325
10930PP      PP21034  12.416   0.542   1.814 -0.0592 -0.0002  0.1485
10931PP      PP21035   6.698   0.343   4.314 -0.0239 -0.4104  0.2984
10932PP      PP21036  11.337   2.980   9.386 -0.2302  0.1013  0.3317
10933PP      PP21037   5.198   6.252   0.914 -0.1092  0.0225  0.6043
10934PP      PP21038   7.659  13.028   3.664  0.2688 -0.3238 -0.3595
10935PP      PP21039  10.989   9.496   9.123  0.0797 -0.4455 -0.0148
10936PP      PP21040   3.992   1.398   8.620 -0.2409 -0.2783  0.1910
10937PP      PP21041   9.456   4.632   3.260  0.1259 -0.1412 -0.0592
10938PP      PP21042   3.146   6.082   3.049 -0.0757  0.1100 -0.3735
10939PP      PP21043   4.427  12.427   0.828 -0.0989 -0.2145  0.1369
10940PP      PP21044   1.124   0.523  12.544 -0.1506  0.0823  0.1510
10941PP      PP21045   9.321   6.513  11.036  0.2302  0.3140 -0.3076
10942PP      PP21046   5.282   4.566   2.970 -0.0118 -0.0260 -0.0227
10943PP      PP21047  11.746   4.712  12.493 -0.2252 -0.1718 -0.0445
10944PP      PP21048  12.564  12.976   1.996 -0.0887 -0.1586 -0.0859
10945PP      PP21049   1.375  13.141   1.295 -0.1218 -0.0745 -0.1598
10946PP      PP21050  12.589   8.529   1.139 -0.1514  0.0289  0.0206
10947PP      PP21051   2.753  13.849   2.713  0.1497  0.2412 -0.0884
10948PP      PP21052   9.524   6.168   2.292  0.0375  0.0413 -0.1675
10949PP      PP21053   0.625  13.245  10.718  0.3157 -0.0081 -0.3320
10950PP      PP21054   1.536   1.554   2.270  0.1785  0.1214 -0.5399
10951PP      PP21055  12.133  13.215  10.546 -0.1835  0.0375  0.1863
10952PP      PP21056  12.813  11.955   1.327 -0.0416  0.1491 -0.0691
10953PP      PP21057  14.609   9.109   8.035 -0.0799  0.0848  0.0351
10954PP      PP21058   4.936   6.204   3.413  0.2947  0.1443  0.1808
10955PP      PP21059  15.229   1.035  12.024 -0.0982  0.4040  0.2431
10956PP      PP21060   1.449  10.543  10.778  0.0100 -0.1675  0.1503
10957PP      PP21061   6.844   2.160  10.359 -0.1661 -0.0522 -0.0046
10958PP      PP21062   1.932   2.517  11.374  0.1913 -0.3710 -0.1536
10959PP      PP21063   4.125   3.417  12.499  0.0722  0.1216  0.4570
10960PP      PP21064  14.508   1.422   0.176 -0.0295 -0.0333 -0.0268
10961PP      PP21065  16.026   6.498   7.797  0.0069  0.2065 -0.3683
10962PP      PP21066   1.151   9.789   9.061  0.2115  0.0563 -0.0022
10963PP      PP21067   7.101   6.795   1.054  0.0555  0.0644  0.1454
10964PP      PP21068   9.339   6.781   3.866  0.0068 -0.2764  0.3860
10965PP      PP21069  15.993   6.596   0.584 -0.0750 -0.0367  0.0677
10966PP      PP21070   3.135   1.195   0.546 -0.2937  0.1030 -0.0588
10967PP      PP21071   2.125  11.022  12.622  0.2921 -0.0037 -0.3683
10968PP      PP21072   9.464   6.932  10.649  0.1341 -0.0613  0.1314
10969PP      PP21073   1.216  12.547   2.156 -0.1879 -0.0835  0.1250
10970PP      PP21074  10.154  15.349  10.442 -0.2375 -0.1561  0.1228
10971PP      PP21075   4.814  14.569  11.762  0.0131 -0.1815 -0.2123
10972PP      PP21076   0.122   1.497   1.645  0.1843  0.2697  0.1844
10973PP      PP21077   1.763   7.479  11.881 -0.2750 -0.0863  0.2256
10974PP      PP21078   7.180  14.690  11.861 -0.0552  0.3700 -0.1736
10975PP      PP21079   0.007   2.026   4.217  0.1788 -0.1268 -0.0348
10976PP      PP21080  11.239   5.565   0.799  0.0080  0.0256  0.1047
10977PP      PP21081  10.798  13.160  11.101  0.1959  0.1481 -0.0803
10978PP      PP21082  14.329  13.476   0.547 -0.2715  0.3656 -0.0876
10979PP      PP21083  12.605  15.101   0.695  0.1455 -0.0844 -0.0739
10980PP      PP21084  10.971   3.531  10.892 -0.2197  0.2246 -0.2364
10981PP      PP21085   0.682   8.988   8.712  0.0363 -0.1858 -0.2346
10982PP      PP21086   1.500   7.598  10.831 -0.1387 -0.1124 -0.0967
10983PP      PP21087   8.659   7.038  10.804  0.0644 -0.1056  0.0010
10984PP      PP21088   4.575   3.766   9.303  0.0130 -0.1797  0.0168
10985PP      PP21089  14.151   1.563   4.021  0.0518 -0.0187 -0.2633
10986PP      PP21090   5.116  16.074  11.727 -0.2538 -0.1998  0.0853
10987PP      PP21091  11.423   8.738   0.261  0.3397  0.0588 -0.1415
10988PP      PP21092  11.077  14.312   0.270 -0.1145  0.0418 -0.0614
10989PP      PP21093   2.079   8.534   8.575  0.3289 -0.1179 -0.3713
10990PP      PP21094   2.200   9.704   3.213  0.2871 -0.3540  0.6605
10991PP      PP21095  16.112  10.549   8.070 -0.2020 -0.1438 -0.0265
10992PP      PP21096  16.079  10.122  11.462 -0.2148  0.2185  0.0669
10993PP      PP21097   0.322   5.068   9.302 -0.1221  0.1215  0.2344
10994PP      PP21098   8.206   9.971  12.437  0.1019 -0.1498  0.3244
10995PP      PP21099   7.601   3.920   2.888  0.3065  0.2066 -0.0612
10996PP      PP21100   9.640   2.778  11.014  0.0349  0.2352 -0.0669
10997PP      PP21101   9.432   3.322   1.687 -0.0835 -0.1390  0.1060
10998PP      PP21102  12.866   5.890   2.429  0.2107 -0.1382 -0.2918
10999PP      PP21103  15.974  15.926   2.512  0.3660 -0.1899 -0.1626
11000PP      PP21104  11.390   0.451   3.206  0.1452  0.0844  0.0758
11001PP      PP21105   4.486   7.495   2.638 -0.0172 -0.0940 -0.1997
11002PP      PP21106   8.260  14.738  11.055  0.0049 -0.0709 -0.2140
11003PP      PP21107   5.558  12.826  11.440 -0.0992 -0.0112 -0.0539
11004PP      PP21108  12.364   3.706   1.753 -0.0842  0.0897  0.0661
11005PP      PP21109   2.492  11.523   2.725  0.0412 -0.2054  0.1021
11006PP      PP21110   0.992  15.817   9.674 -0.0097 -0.0915 -0.0948
11007PP      PP21111   3.842   7.404   1.955 -0.0581 -0.0006 -0.0119
11008PP      PP21112   0.401   9.257   9.596  0.0438  0.0100  0.2717
11009PP      PP21113  14.976   9.290  10.946 -0.3987 -0.0021  0.4304
11010PP      PP21114  13.999   3.842   1.662 -0.0173 -0.1896  0.0207
11011PP      PP21115   0.802   4.528  12.055  0.1055  0.0539  0.0216
11012PP      PP21116  15.782   4.766   0.254 -0.1180 -0.3276  0.0717
11013PP      PP21117   5.411  10.735  11.037 -0.1907 -0.0344  0.0903
11014PP      PP21118   1.723   4.463   3.687  0.2843  0.3567 -0.0315
11015PP      PP21119  15.575   9.034   2.016 -0.2027 -0.1076  0.2703
11016PP      PP21120   2.047   1.426   4.224  0.0217  0.1675  0.1639
11017PP      PP21121   0.094  10.113   9.448 -0.1628  0.2546  0.4799
11018PP      PP21122   4.971   9.664  10.574  0.0432  0.2017  0.1715
11019PP      PP21123   8.677   6.298  10.713  0.0909  0.3676 -0.4251
11020PP      PP21124   0.270  10.475   8.437 -0.0511 -0.2280 -0.2728
11021PP      PP21125   5.528   2.365   2.601  0.0580 -0.4131 -0.1870
11022PP      PP21126   2.589   9.165   9.749 -0.3048 -0.1123  0.1073
11023PP      PP21127  13.370  15.950   4.037 -0.1869  0.2899 -0.2490
11024PP      PP21128   0.470  15.056   0.398 -0.3154  0.1791  0.0126
11025PP      PP21129   6.679   0.623   2.550  0.0009 -0.2806 -0.0043
11026PP      PP21130   5.935  10.362   7.886  0.0083 -0.0107  0.1130
11027PP      PP21131   6.076  12.005   8.817 -0.2033  0.0180  0.2210
11028PP      PP21132  15.429  10.315   9.580  0.2343  0.0066  0.1154
11029PP      PP21133   8.391  10.928  11.069 -0.2567  0.1320 -0.0027
11030PP      PP21134   7.095   7.324   3.088 -0.1583 -0.0486 -0.0869
11031PP      PP21135  11.478   1.949   1.342 -0.4038  0.2437 -0.0087
11032PP      PP21136   1.488   1.651  11.835  0.1532  0.1597  0.4056
11033PP      PP21137   5.362   1.340   4.566 -0.0014  0.0430  0.1217
11034PP      PP21138  13.487  15.216   2.781 -0.1479 -0.0365 -0.0771
11035PP      PP21139   2.809   0.148   2.190  0.2370  0.2616  0.0510
11036PP      PP21140  13.446   7.366   7.902 -0.1129 -0.0138 -0.1384
11037PP      PP21141  14.372  14.666   3.613 -0.1353 -0.1443 -0.1507
11038PP      PP21142   1.313   7.305   2.861  0.2350 -0.2019 -0.2867
11039PP      PP21143   2.792  16.258  10.807  0.3061  0.0032  0.0198
11040PP      PP21144  14.734  15.593  10.192 -0.1032  0.3405  0.0815
11041PP      PP21145  10.030  10.258   8.642  0.0647  0.1122  0.2221
11042PP      PP21146   3.374   8.688   0.899 -0.0796  0.0222  0.0336
11043PP      PP21147   4.994   2.323   2.788 -0.0662  0.4616 -0.0285
11044PP      PP21148   8.156   1.026  10.852 -0.2855  0.0397 -0.1005
11045PP      PP21149   0.349   2.935  12.586 -0.1111  0.1020  0.1430
11046PP      PP21150   3.704   5.712   3.924  0.1413 -0.0558  0.0463
11047PP      PP21151  10.477   3.094   9.616 -0.0674 -0.2467  0.0222
11048PP      PP21152   3.613  15.621  11.880 -0.1916 -0.1223 -0.0910
11049PP      PP21153   0.588  12.926   2.969  0.1563 -0.0677 -0.1566
11050PP      PP21154   9.536   4.109   2.132  0.0574 -0.3274 -0.3643
11051PP      PP21155   5.933   6.751   2.236  0.3459 -0.2785  0.0755
11052PP      PP21156  16.229   5.295   9.391  0.2449  0.2776 -0.0688
11053PP      PP21157   9.873  15.543   1.937 -0.1041 -0.4279 -0.2740
11054PP      PP21158   8.762   7.258   9.857  0.2780 -0.3271 -0.2060
11055PP      PP21159  12.506   8.455  11.259 -0.2961  0.0706  0.1296
11056PP      PP21160   3.613   0.994   0.846  0.3184 -0.0573 -0.0286
11057PP      PP21161   0.072   0.709   0.467 -0.1935 -0.1879  0.0367
11058PP      PP21162   7.287   9.616   0.133  0.0344 -0.1613 -0.0164
11059PP      PP21163  14.215   7.629  12.463 -0.1464 -0.1848 -0.1732
11060PP      PP21164   1.692  10.632  11.728  0.1927  0.1998 -0.1699
11061PP      PP21165   9.672   3.911  10.221  0.1855  0.2940 -0.0078
11062PP      PP21166  12.212  13.704   1.933 -0.0827  0.0259 -0.1929
11063PP      PP21167   0.162   9.054   2.460 -0.1727 -0.0359  0.0547
11064PP      PP21168   9.158  12.726  10.071  0.2176  0.1772  0.0771
11065PP      PP21169   2.910   1.437   1.596 -0.0112 -0.2634  0.0175
11066PP      PP21170   6.877   2.905   3.417 -0.1428  0.0343  0.0311
11067PP      PP21171   0.798   1.402   1.895 -0.1898  0.0147  0.2378
11068PP      PP21172  11.609   6.752   7.969  0.3866 -0.0585  0.2078
11069PP      PP21173   0.952   5.225  10.476 -0.0953 -0.0792  0.2570
11070PP      PP21174   0.672   6.977  12.544 -0.2695 -0.0729 -0.3900
11071PP      PP21175   4.560   3.690   8.214  0.0111  0.2702  0.0496
11072PP      PP21176  10.305   7.316  10.124  0.0753  0.0816 -0.1411
11073PP      PP21177   0.386   6.247   9.576 -0.1119 -0.0478 -0.3708
11074PP      PP21178   4.027  12.653   0.512  0.1570  0.0667  0.0970
11075PP      PP21179   8.888  15.411   9.683 -0.0846  0.1117  0.2856
11076PP      PP21180  11.821  12.221   2.798  0.1405 -0.2628  0.0696
11077PP      PP21181   1.195  16.338   8.829  0.1201 -0.0976  0.1782
11078PP      PP21182  14.426   5.437   4.005  0.2213  0.0664  0.3530
11079PP      PP21183   1.926   4.168   0.162 -0.1590  0.1048 -0.1551
11080PP      PP21184   2.197   5.685   1.830 -0.2230  0.1353  0.0394
11081PP      PP21185   9.172   1.799  12.169  0.0637  0.3126 -0.0855
11082PP      PP21186   8.576  13.022   1.979 -0.0886 -0.0700  0.2134
11083PP      PP21187   1.199  11.101   2.868 -0.0786  0.0306 -0.2094
11084PP      PP21188  13.248   2.166  10.096  0.2248  0.2124 -0.2833
11085PP      PP21189  15.561   7.778  11.628  0.3008 -0.0204  0.1788
11086PP      PP21190  15.202  15.133  10.373  0.2383  0.1512  0.2949
11087PP      PP21191   3.610   5.633  12.758  0.2158  0.5516  0.0826
11088PP      PP21192   7.767   9.359   4.581  0.2760 -0.2595 -0.1476
11089PP      PP21193  12.164  12.995   0.800 -0.1719 -0.1107 -0.1153
11090PP      PP21194  13.136   6.959   9.314  0.2188 -0.1497 -0.0580
11091PP      PP21195   1.690   1.534  12.322 -0.1650 -0.2119 -0.1379
11092PP      PP21196   4.737   9.241   7.766  0.0606 -0.1690 -0.2278
11093PP      PP21197  10.207  11.054   1.916  0.1566  0.0041 -0.3040
11094PP      PP21198  12.517   6.935   0.566 -0.1793 -0.0516 -0.1376
11095PP      PP21199   5.499   2.101  11.372  0.2046  0.0490 -0.0294
11096PP      PP21200   4.532   9.777  11.921  0.2546 -0.0716  0.1662
11097PP      PP21201   0.707   1.503   1.405 -0.0061 -0.0059  0.0617
11098PP      PP21202  10.692  11.190   2.431  0.0789  0.3340  0.0222
11099PP      PP21203   4.183  15.485   8.396  0.1231  0.0785 -0.2306
11100PP      PP21204   0.583  14.324   1.344  0.1216  0.1486 -0.1618
11101PP      PP21205   6.471  12.590   3.119 -0.2845  0.3830  0.0892
11102PP      PP21206   1.713   6.291   3.723  0.0700 -0.0087 -0.3818
11103PP      PP21207  15.794  12.324  10.449  0.0446 -0.1304  0.0221
11104PP      PP21208   8.046  15.169   4.254  0.4766  0.0533  0.0583
11105PP      PP21209  11.979   9.955   8.966  0.2719 -0.3656 -0.4415
11106PP      PP21210  13.036   4.283   2.719  0.1777  0.2154  0.0447
11107PP      PP21211   5.094  14.913   1.313 -0.1064  0.2561 -0.1312
11108PP      PP21212   8.273  12.613  11.765 -0.2054  0.1025  0.0381
11109PP      PP21213   8.142   4.715   9.167 -0.0021  0.0732  0.2832
11110PP      PP21214  15.033  12.363   1.654  0.0381  0.0077  0.0847
11111PP      PP21215   5.868   2.345   0.709  0.1221 -0.2425 -0.0772
11112PP      PP21216   8.261  12.972   9.496 -0.0566 -0.1984  0.0811
11113PP      PP21217   1.985   6.361   1.882 -0.3037 -0.2866 -0.0223
11114PP      PP21218   2.265  10.598   0.506  0.0634 -0.0732  0.2241
11115PP      PP21219   5.588  15.974  10.285  0.0480 -0.0978  0.2116
11116PP      PP21220   5.209   2.010   1.830  0.3539 -0.0064  0.3267
11117PP      PP21221  13.071   8.704  12.326  0.0302 -0.0686 -0.0409
11118PP      PP21222   0.431   4.212  12.327 -0.0142  0.0292 -0.0270
11119PP      PP21223   5.601   5.205   8.858 -0.1239  0.1637  0.1799
11120PP      PP21224   4.808   1.842  10.963 -0.2913  0.1374  0.0473
11121PP      PP21225  13.713   7.238   0.085 -0.0286  0.0661  0.0005
11122PP      PP21226  10.568  14.880   3.638  0.0521 -0.0299 -0.0854
11123PP      PP21227   2.394  14.156  11.374 -0.0993  0.1566 -0.0122
11124PP      PP21228  16.261  11.610   9.296  0.0500 -0.0917 -0.0752
11125PP      PP21229   7.502   4.737   8.334  0.1573  0.3001 -0.2301
11126PP      PP21230   2.100   9.507   8.849 -0.0292 -0.0296  0.1643
11127PP      PP21231  10.449   3.066  11.490  0.0304  0.1632  0.0271
11128PP      PP21232  14.599  12.626   9.724 -0.2936  0.2090 -0.0595
11129PP      PP21233   7.583   4.236  11.244  0.0907  0.1810 -0.1408
11130PP      PP21234  12.006   0.095   2.567  0.3075 -0.0567  0.3104
11131PP      PP21235   8.177  15.312   1.804 -0.2652  0.1354  0.1515
11132PP      PP21236   3.355   3.901   2.109  0.0986  0.1616 -0.1638
11133PP      PP21237   7.844   7.162   0.641 -0.1540 -0.0715  0.1606
11134PP      PP21238  16.118  11.366  11.251  0.0820  0.0086 -0.0743
11135PP      PP21239   0.933   6.476  11.544 -0.1297 -0.0984  0.1331
11136PP      PP21240  12.325   6.520   9.777  0.0852  0.1604 -0.0891
11137PP      PP21241   4.566  10.491   0.350  0.1032 -0.1073  0.0768
11138PP      PP21242  15.915   9.355   3.248  0.0351  0.1167 -0.1074
11139PP      PP21243  11.130  13.229   4.343  0.0906 -0.0224  0.0027
11140PP      PP21244   6.322   8.059   8.873  0.0106 -0.2049  0.1367
11141PP      PP21245   5.486   0.776   3.616 -0.0436  0.1103 -0.2876
11142PP      PP21246  10.710   3.910   1.515  0.2852  0.0561  0.2470
11143PP      PP21247  15.455  15.318   1.670 -0.1963  0.0459 -0.3050
11144PP      PP21248   2.154   2.212  10.036  0.3401 -0.0013  0.1981
11145PP      PP21249  11.858   1.522  10.713  0.0287 -0.2802  0.0967
11146PP      PP21250   7.054   6.048   3.111 -0.2944 -0.2431 -0.0670
11147PP      PP21251   3.387  16.035  11.675 -0.0111 -0.1653 -0.2586
11148PP      PP21252  11.979   1.143  11.822 -0.1461 -0.1669 -0.1737
11149PP      PP21253   2.435   4.146  12.655  0.2540 -0.1586  0.2601
11150PP      PP21254   3.974  12.299   8.286  0.2366  0.0636 -0.0474
11151PP      PP21255   4.948  11.044   6.919 -0.1988  0.1010  0.1276
11152PP      PP21256   8.596   9.108   2.815 -0.0776 -0.0222 -0.1449
11153PP      PP21257   8.616  14.577   0.566 -0.1256  0.3273 -0.1656
11154PP      PP21258   8.917  11.176   8.986 -0.0680  0.0252  0.0964
11155PP      PP21259   8.551   4.059   2.074 -0.0067  0.1024  0.2399
11156PP      PP21260   5.342   9.616   2.312  0.2480  0.1638  0.1005
11157PP      PP21261  12.525   7.166   2.945  0.0348 -0.0038 -0.3142
11158PP      PP21262   8.546   0.389   9.388  0.1772 -0.0177  0.0185
11159PP      PP21263   5.593  13.714  12.491  0.0571  0.0721  0.0533
11160PP      PP21264  16.327   5.180  10.632 -0.1038  0.0237  0.1486
11161PP      PP21265   6.393   2.821   0.879 -0.6389  0.0582 -0.1341
11162PP      PP21266  11.351  13.033   3.038  0.3937  0.0086  0.0151
11163PP      PP21267  11.737   6.682  12.040  0.3275 -0.1755  0.1477
11164PP      PP21268   4.772  10.212   9.781  0.0584  0.0819  0.1403
11165PP      PP21269  14.631   5.338   9.046 -0.0418 -0.0451  0.2486
11166PP      PP21270   4.882   3.712  10.515 -0.0310 -0.1306  0.0162
11167PP      PP21271   8.836   3.464   4.172  0.1441  0.1186 -0.0253
11168PP      PP21272  12.465  14.291   1.214  0.1585  0.1385  0.2635
11169PP      PP21273   4.180  12.073   2.714 -0.0359 -0.4365 -0.0603
11170PP      PP21274  10.265   6.651  11.464 -0.0997 -0.0071 -0.0611
11171PP      PP21275   7.299   6.362  11.598  0.1172  0.0230  0.0486
11172PP      PP21276   1.344   9.583   2.362  0.3111 -0.1371  0.0200
11173PP      PP21277   0.369   3.063   9.309 -0.1694 -0.0019 -0.2806
11174PP      PP21278   1.664   6.270  12.476  0.3634 -0.1308 -0.1165
11175PP      PP21279  12.138   2.157   3.200 -0.1703  0.2332 -0.3141
11176PP      PP21280   2.344   4.706   0.568 -0.2112  0.2200 -0.1873
11177PP      PP21281   3.492  11.570  10.747  0.4780  0.3628  0.2514
11178PP      PP21282   9.351   5.755  11.452  0.1744 -0.2398  0.1983
11179PP      PP21283   4.331   9.115   1.773 -0.2388  0.0592  0.1280
11180PP      PP21284   7.778   3.370  12.581 -0.1594 -0.1397  0.1916
11181PP      PP21285   1.111   8.323   8.142 -0.2408 -0.0491  0.3633
11182PP      PP21286   3.839   6.474   0.738 -0.1272  0.4503 -0.3004
11183PP      PP21287  12.085   6.459   9.293  0.0912 -0.0357 -0.1240
11184PP      PP21288   9.711   9.820   2.091 -0.2729  0.0508  0.0393
11185PP      PP21289   5.741  11.367   3.536  0.0838  0.0482 -0.3053
11186PP      PP21290   9.245   2.052   8.493  0.2170 -0.1460 -0.0116
11187PP      PP21291  12.989  16.263   9.820  0.1700  0.1589 -0.1761
11188PP      PP21292   2.376  15.239   8.286 -0.2269  0.0330  0.3311
11189PP      PP21293   9.508  14.076   1.628 -0.1790  0.0411 -0.0051
11190PP      PP21294   5.769  12.557   3.916  0.1900  0.1202  0.2787
11191PP      PP21295   5.441  11.008   3.884  0.2126  0.1038  0.2999
11192PP      PP21296  12.011   3.604   8.232 -0.0717 -0.3335  0.2092
11193PP      PP21297  11.062   1.542   2.828 -0.3943 -0.0037  0.0187
11194PP      PP21298   4.169   0.461  10.770  0.0344 -0.1508 -0.0648
11195PP      PP21299   5.468   7.732   2.858 -0.1881 -0.2003  0.0884
11196PP      PP21300   4.856  15.035   1.743  0.0256 -0.3625 -0.4492
11197PP      PP21301   0.817   6.126   3.316 -0.0786  0.2209 -0.1873
11198PP      PP21302  10.570  14.807   1.842 -0.1289 -0.0156 -0.0223
11199PP      PP21303   2.928   0.935  10.727  0.4460  0.0271  0.2670
11200PP      PP21304   8.957   2.187   2.082  0.0645  0.2634  0.3212
11201PP      PP21305  14.394   9.458   3.083 -0.0444  0.1115 -0.0699
11202PP      PP21306  14.846  11.742  12.714  0.1463 -0.0550  0.2302
11203PP      PP21307   3.965   6.618  11.872  0.0114  0.0420  0.0742
11204PP      PP21308   9.264  12.250   9.599 -0.3410 -0.0998  0.1304
11205PP      PP21309  12.299   0.553  12.614  0.2037 -0.2392 -0.1162
11206PP      PP21310  16.268   2.726  11.532 -0.0015  0.1961 -0.0112
11207PP      PP21311   0.690   2.543  10.279 -0.0579 -0.3175 -0.0638
11208PP      PP21312  13.544   7.701   0.169  0.1754 -0.0860 -0.2495
11209PP      PP21313   2.008  16.223   2.598 -0.0645  0.0028 -0.1512
11210PP      PP21314   8.596  14.678  10.139  0.1071 -0.1128 -0.1078
11211PP      PP21315   2.878  10.391   9.041  0.2115 -0.0257  0.1767
11212PP      PP21316   9.569   3.936   3.660 -0.5377 -0.0187 -0.3122
11213PP      PP21317  15.110  10.519  10.484 -0.0639  0.1978 -0.0510
11214PP      PP21318   5.032  14.184  12.006  0.1779 -0.2342 -0.0806
11215PP      PP21319   1.852   3.236   2.670 -0.0588 -0.1355  0.0654
11216PP      PP21320   7.293  10.084   8.604  0.2718  0.1549  0.3086
11217PP      PP21321  11.154   0.182  12.022 -0.1283  0.0559  0.2738
11218PP      PP21322  10.766   1.450   0.810  0.1054  0.1545 -0.2695
11219PP      PP21323   4.996   6.941  10.865 -0.1809 -0.1538 -0.3019
11220PP      PP21324  14.240   7.451   7.718 -0.2883 -0.1584 -0.2814
11221PP      PP21325   5.722  10.041  12.088  0.0263 -0.2088  0.3711
11222PP      PP21326   5.864   5.856  12.268  0.1088 -0.0828 -0.2804
11223PP      PP21327   3.167   7.849  12.123 -0.1839  0.0203  0.3155
11224PP      PP21328  16.108  16.321   1.526 -0.3614 -0.0697 -0.0763
11225PP      PP21329  14.433  13.985   3.618 -0.0768  0.0458 -0.2102
11226PP      PP21330   6.718   4.593   9.374  0.2113  0.2447 -0.0388
11227PP      PP21331   4.184   1.059   2.168  0.1666 -0.2312  0.1753
11228PP      PP21332  13.988  15.764  12.551 -0.1550  0.0003 -0.1714
11229PP      PP21333   5.401   4.480   0.557  0.0879  0.3069  0.0119
11230PP      PP21334  14.937   5.097   0.460 -0.0289  0.3408 -0.0646
11231PP      PP21335   2.852   5.630   1.100  0.1051 -0.0772 -0.2348
11232PP      PP21336   7.254  13.551   2.868 -0.0367 -0.1930 -0.2037
11233PP      PP21337   1.724   2.006  12.183 -0.2060 -0.1397  0.1108
11234PP      PP21338   9.318  13.070   1.074  0.1619 -0.1279 -0.2474
11235PP      PP21339   7.844   2.273   3.751 -0.0629 -0.2252  0.1705
11236PP      PP21340   9.821   6.605   2.373 -0.0542 -0.2436  0.0728
11237PP      PP21341  13.700  15.476  11.488  0.0597  0.2602 -0.0611
11238PP      PP21342   6.869   8.393   3.696  0.1337 -0.3162 -0.2472
11239PP      PP21343   8.697   2.618   3.768 -0.1353 -0.1678 -0.1539
11240PP      PP21344   4.515   6.560   8.658  0.0571 -0.0058 -0.0546
11241PP      PP21345  14.017   9.297   2.149 -0.0061 -0.0033  0.1807
11242PP      PP21346  14.053  12.694   2.924  0.0457  0.2774  0.1294
11243PP      PP21347   4.237   3.399   9.539  0.2151  0.0788 -0.1465
11244PP      PP21348   4.154   2.696   0.965  0.1982 -0.3201 -0.1295
11245PP      PP21349   7.510  14.434   3.230  0.1255  0.1012  0.1659
11246PP      PP21350   0.959   9.192  10.538  0.0396 -0.1854 -0.1259
11247PP      PP21351  10.385   1.346   3.434  0.2460  0.0150  0.0026
11248PP      PP21352   4.216   5.457   3.502 -0.0384 -0.0893  0.0821
11249PP      PP21353  11.472  10.277  11.995  0.0326 -0.5893  0.2353
11250PP      PP21354  15.320  10.866   3.266  0.0994 -0.1302  0.0213
11251PP      PP21355  12.082  11.917   9.871 -0.2681 -0.3236 -0.0249
11252PP      PP21356   3.589   3.335   1.965 -0.2440 -0.1748 -0.1691
11253PP      PP21357   5.625  16.106   1.095  0.1219  0.1632  0.1816
11254PP      PP21358   9.164   8.916  11.423 -0.1940  0.1934 -0.2954
11255PP      PP21359  11.199  10.861   9.111 -0.3366  0.3221  0.1081
11256PP      PP21360   1.152   3.498   0.779 -0.0841  0.0093 -0.0143
11257PP      PP21361   2.202  15.741   1.569  0.1541  0.2797  0.1609
11258PP      PP21362   8.918  11.216  10.187  0.1516  0.0056 -0.1845
11259PP      PP21363  16.027   4.979   1.245  0.3215  0.0601  0.2293
11260PP      PP21364   4.911  13.881   0.062 -0.3707  0.0289  0.1132
11261PP      PP21365   0.708   5.329   3.556 -0.0986 -0.0189 -0.3357
11262PP      PP21366  12.329  15.114   4.429  0.1210 -0.2070  0.2221
11263PP      PP21367   6.140  15.206   2.235  0.0638  0.1144 -0.2603
11264PP      PP21368   4.435   9.376   3.160 -0.0876  0.2989 -0.1223
11265PP      PP21369  10.371   5.164  11.583 -0.0154  0.0663  0.2046
11266PP      PP21370   5.758   2.009   8.482 -0.0633  0.0554 -0.1266
11267PP      PP21371   7.238   6.425   0.662 -0.0946 -0.0254  0.1004
11268PP      PP21372   3.567   1.109   3.171 -0.1513 -0.1833  0.0327
11269PP      PP21373   2.398   5.346   1.007 -0.1657 -0.0542 -0.0155
11270PP      PP21374   4.220  13.226  10.389 -0.1857 -0.2250 -0.0469
11271PP      PP21375   6.985   4.339   0.763 -0.2489 -0.1980  0.1927
11272PP      PP21376  12.601  13.936   2.513 -0.2739 -0.1530 -0.1765
11273PP      PP21377   8.482  13.406   9.630 -0.1646  0.0971  0.2054
11274PP      PP21378   9.142   6.704   0.732 -0.0998  0.1413  0.1698
11275PP      PP21379   8.590  16.117   1.913 -0.1212 -0.3416  0.0702
11276PP      PP21380   6.117   7.115   3.209 -0.1300 -0.3253 -0.1773
11277PP      PP21381   8.671   2.574   2.777 -0.1654  0.0675  0.1645
11278PP      PP21382   2.373   1.877  10.651  0.2547 -0.1657 -0.0931
11279PP      PP21383   0.889   8.069  10.606  0.2272  0.0166  0.3731
11280PP      PP21384   0.302  12.419   1.801 -0.0005 -0.1404  0.1451
11281PP      PP21385   0.534  15.964   0.065 -0.0788  0.2507  0.0213
11282PP      PP21386  11.427   5.911   8.332  0.1729 -0.2631 -0.2089
11283PP      PP21387  13.894   7.706  10.669  0.1022 -0.0647 -0.0363
11284PP      PP21388   0.945  13.266   9.017  0.0785  0.1004 -0.0749
11285PP      PP21389  11.049   2.282   0.658  0.0864  0.2058 -0.2890
11286PP      PP21390   5.413   4.245   1.111  0.2515 -0.1884 -0.1487
11287PP      PP21391  11.359  12.861  10.959 -0.1333 -0.0889  0.2185
11288PP      PP21392   7.958   1.842   1.426  0.2066  0.0205 -0.5071
11289PP      PP21393   9.449   0.649   0.131 -0.0340 -0.0854  0.0760
11290PP      PP21394   1.461   8.075   7.889  0.0843 -0.4027  0.1425
11291PP      PP21395  11.631   6.917  11.342  0.0022 -0.1352 -0.1996
11292PP      PP21396   3.875  11.379   0.214 -0.1718  0.0089  0.3627
11293PP      PP21397  15.687  14.747   1.859 -0.0036 -0.0951  0.0428
11294PP      PP21398  14.669  15.072   2.914  0.1260  0.2085 -0.0900
11295PP      PP21399   9.627  15.269   3.476 -0.0371  0.0695 -0.0438
11296PP      PP21400  15.948   4.159   2.652  0.0890  0.2523  0.0801
11297PP      PP21401  10.818  13.282   2.247  0.0060  0.0504 -0.0097
11298PP      PP21402   3.327   6.885   9.312 -0.1908 -0.1179 -0.0909
11299PP      PP21403   5.425  15.768  11.929 -0.2499 -0.2223  0.1015
11300PP      PP21404  11.146   7.205   0.653  0.2026  0.0744 -0.1892
11301PP      PP21405   4.554   5.582   2.787  0.3258  0.4548 -0.2452
11302PP      PP21406   7.212   7.420  10.675 -0.2634 -0.0762  0.0704
11303PP      PP21407   5.297   8.195  10.983 -0.1595  0.0998  0.0982
11304PP      PP21408  13.868   4.985   8.419  0.1611 -0.1494  0.3775
11305PP      PP21409   6.436  16.287  12.232  0.0842 -0.2308 -0.1024
11306PP      PP21410   3.003  12.127  12.651 -0.3104 -0.0543  0.0112
11307PP      PP21411   1.293  13.739  11.623  0.0521 -0.1192 -0.2054
11308PP      PP21412   5.388   0.167   2.698  0.1031  0.2240  0.0647
11309PP      PP21413  11.486   4.364   1.370  0.1215 -0.0597  0.0428
11310PP      PP21414  10.937   1.952   1.637 -0.2508 -0.0790 -0.0114
11311PP      PP21415   3.424   1.516  11.873 -0.1133 -0.0698  0.2986
11312PP      PP21416   2.512  10.830   8.356  0.2384  0.2007 -0.0283
11313PP      PP21417   9.839   1.274   1.281  0.2919  0.0941  0.2012
11314PP      PP21418  10.462  14.472  11.500 -0.0285  0.1371  0.1392
11315PP      PP21419   7.711   3.366  11.565  0.0809  0.0802  0.0441
11316PP      PP21420  15.758   8.853   8.322 -0.1003 -0.1452 -0.0681
11317PP      PP21421   7.871   1.748  11.471  0.0231  0.0054 -0.1124
11318PP      PP21422   1.954   8.288   9.023 -0.2295  0.0012  0.1836
11319PP      PP21423   7.626  14.446   1.575  0.0112 -0.2173 -0.1284
11320PP      PP21424  13.566   5.760   8.970 -0.3233 -0.0534  0.2840
11321PP      PP21425  14.533   8.454  10.987 -0.3874  0.0871 -0.3599
11322PP      PP21426   1.280  16.296   2.093  0.1940 -0.0108  0.0562
11323PP      PP21427  15.365   7.493   0.656 -0.3734 -0.1986 -0.0467
11324PP      PP21428  10.991   7.541   8.062  0.2388 -0.0554  0.0560
11325PP      PP21429   7.435   6.328   0.234 -0.1414  0.1610  0.4712
11326PP      PP21430   7.449  12.194   9.747  0.0496 -0.1925 -0.1237
11327PP      PP21431  12.061  15.065   0.752 -0.2091 -0.0614  0.1932
11328PP      PP21432  11.448   0.225   1.847  0.1371  0.4620  0.1318
11329PP      PP21433   2.274  15.955   4.027 -0.3774  0.0845 -0.0839
11330PP      PP21434  11.465   1.464   3.750 -0.1066  0.0763 -0.1558
11331PP      PP21435  12.293   7.558   2.848  0.0566  0.3558  0.5960
11332PP      PP21436   3.275   0.586  10.836 -0.3054 -0.0254  0.1689
11333PP      PP21437   7.118   1.874   0.283  0.0095 -0.1741 -0.0353
11334PP      PP21438   9.371   3.178  10.984 -0.5013  0.0164  0.0871
11335PP      PP21439   5.471   2.601   9.533  0.0506 -0.1575  0.2325
11336PP      PP21440  11.491  13.814  10.822 -0.3380  0.1577 -0.0509
11337PP      PP21441   3.992   1.368   9.928 -0.0060  0.2034 -0.0994
11338PP      PP21442   6.515  12.079  12.306 -0.4244 -0.0404 -0.5704
11339PP      PP21443  13.785   3.525   0.428  0.0961 -0.1548  0.2140
11340PP      PP21444   8.427   5.747   0.822 -0.4308 -0.1309  0.0603
11341PP      PP21445   7.453   9.848   1.779  0.0769  0.2177 -0.2178
11342PP      PP21446  14.883   6.919   1.263  0.0199  0.3799 -0.0476
11343PP      PP21447  14.875   1.913   2.367  0.3090  0.1080  0.0466
11344PP      PP21448   0.129  14.411  11.035 -0.2754 -0.0502  0.1504
11345PP      PP21449  11.661   4.676   0.934 -0.0596 -0.0565 -0.0147
11346PP      PP21450  11.309   5.097   0.453  0.0676  0.0468 -0.2389
11347PP      PP21451   8.045   1.924   0.964  0.0730  0.1258  0.0892
11348PP      PP21452  15.826   4.630   0.771 -0.2704  0.0538  0.2013
11349PP      PP21453  13.157   1.520   0.375 -0.1346  0.2596  0.0831
11350PP      PP21454  10.275   6.716  11.988  0.0930  0.0032  0.1913
11351PP      PP21455   8.454  10.671  11.660  0.1489 -0.0775  0.0800
11352PP      PP21456   8.135   8.007  12.642  0.1872  0.0409  0.0859
11353PP      PP21457   9.124  14.683  12.605  0.0397  0.3114  0.1300
11354PP      PP21458   3.679  13.505   1.748 -0.1528  0.1324  0.3290
11355PP      PP21459   3.428   4.497   2.976  0.1766 -0.2970  0.3332
11356PP      PP21460  15.582   4.691  10.966  0.2262 -0.1357 -0.0713
11357PP      PP21461   7.992   2.375   1.492  0.3110  0.1678  0.0472
11358PP      PP21462   5.157   1.130   1.104  0.1137  0.1532  0.1077
11359PP      PP21463  15.939   2.357  10.071  0.1263 -0.1218 -0.1504
11360PP      PP21464  13.344   6.895   0.931 -0.3632  0.0538  0.1548
11361PP      PP21465   0.352   4.561   4.089  0.1221  0.3239 -0.1874
11362PP      PP21466   2.210   2.405  10.760  0.1577 -0.3163 -0.2507
11363PP      PP21467  11.787   1.362   9.894 -0.0216  0.2942  0.0149
11364PP      PP21468  15.603  11.901   3.871 -0.3305 -0.0753 -0.0378
11365PP      PP21469   1.544   0.823   2.620 -0.1355 -0.0642 -0.1987
11366PP      PP21470  14.459   0.108   3.548 -0.0954 -0.1984  0.1162
11367PP      PP21471  12.468   2.615   2.746  0.0449 -0.1904 -0.0691
11368PP      PP21472  14.113   9.514   2.641 -0.0986 -0.0776  0.0876
11369PP      PP21473   3.622   9.566  12.338 -0.2145  0.1474  0.0806
11370PP      PP21474   8.503  15.963   3.811 -0.2666  0.0104 -0.1246
11371PP      PP21475   4.268   1.693   8.252 -0.1530  0.4119 -0.2172
11372PP      PP21476   9.509  14.636  11.460  0.0427  0.2964  0.1805
11373PP      PP21477  12.727  14.383   9.555 -0.2246  0.1954 -0.2325
11374PP      PP21478   7.809  12.341   2.586  0.1980 -0.0641 -0.0823
11375PP      PP21479   1.400   9.447  10.629 -0.1424 -0.1484 -0.1957
11376PP      PP21480  14.161   1.256   2.646  0.1509 -0.2000 -0.0716
11377PP      PP21481  13.268   9.641  11.673 -0.2225  0.0176 -0.3896
11378PP      PP21482   4.231   0.546  11.262  0.1198 -0.0759 -0.0673
11379PP      PP21483  12.329  13.761  10.152 -0.1944 -0.1253  0.1743
11380PP      PP21484  12.549  13.509   2.207 -0.0184  0.0637 -0.0945
11381PP      PP21485  11.354   7.877   2.643  0.0566  0.0215  0.2347
11382PP      PP21486   1.310  10.320   1.685  0.0836  0.0422 -0.2677
11383PP      PP21487   2.601  10.650   1.709  0.2205 -0.1738 -0.1041
11384PP      PP21488   7.143  11.019   3.545 -0.0025  0.0276 -0.1244
11385PP      PP21489  10.607  15.166   3.206  0.0194 -0.2532  0.1519
11386PP      PP21490  12.004   9.937   3.194 -0.1532  0.0974 -0.0851
11387PP      PP21491   4.025   2.342  10.076  0.3315  0.2106 -0.1169
11388PP      PP21492  16.038  14.959   8.910  0.0093 -0.0564  0.1079
11389PP      PP21493   2.930  16.035   2.660  0.1172 -0.2005 -0.0928
11390PP      PP21494   2.615   5.477   1.916 -0.1304 -0.0289  0.1122
11391PP      PP21495   2.506  16.309   8.901  0.2355 -0.1536  0.0461
11392PP      PP21496  12.234   2.922   4.162  0.1001  0.1305 -0.2845
11393PP      PP21497   5.994   1.951  12.267  0.1808  0.0179  0.0725
11394PP      PP21498   1.081  16.275   9.390  0.0210  0.2870 -0.1594
11395PP      PP21499   9.330   1.977   2.688 -0.0507 -0.1834  0.4682
11396PP      PP21500   3.083   6.396   0.475  0.1285 -0.0674  0.0306
11397PP      PP21501  10.765   1.614   7.837  0.1592 -0.0666  0.1938
11398PP      PP21502   5.119   5.955  10.508  0.1472 -0.0933  0.1536
11399PP      PP21503   0.012   6.489   2.349 -0.0737  0.0221 -0.0878
11400PP      PP21504   7.907   1.107   3.268  0.0301  0.0272  0.1580
11401PP      PP21505   0.715   8.224   8.431 -0.0306 -0.0804 -0.0826
11402PP      PP21506   3.926   0.335   3.991 -0.3107 -0.1923 -0.1267
11403PP      PP21507   5.105   9.871   8.344 -0.3101  0.0727  0.0296
11404PP      PP21508  10.624   3.506   0.310  0.0034  0.0203 -0.0328
11405PP      PP21509  14.058  10.660   4.089 -0.1535  0.1794 -0.1076
11406PP      PP21510   9.245   0.688  12.227 -0.2975 -0.1626 -0.0240
11407PP      PP21511   5.399   8.766   2.800  0.3464  0.0657 -0.3409
11408PP      PP21512   5.544  14.554  12.164  0.1045  0.2058 -0.3864
11409PP      PP21513   9.221  12.654  12.437  0.2517 -0.0728  0.2504
11410PP      PP21514   5.186  13.107   3.506  0.0694  0.2857 -0.1303
11411PP      PP21515   2.446   6.765  12.338 -0.3204 -0.2782 -0.3295
11412PP      PP21516  11.104  15.033  10.305  0.1445 -0.1269  0.0312
11413PP      PP21517   7.424  12.218   1.452 -0.0214  0.0089 -0.2606
11414PP      PP21518  11.466   6.999   9.616  0.1708  0.3841 -0.1361
11415PP      PP21519   6.991   8.034   1.998  0.0055  0.0703  0.0823
11416PP      PP21520   7.822   8.109  10.895  0.1386 -0.0548 -0.1416
11417PP      PP21521  12.427   5.125   3.301  0.3649 -0.3174  0.1588
11418PP      PP21522  14.556  12.544  12.210  0.0606  0.0558 -0.0232
11419PP      PP21523   0.404  10.555   2.299  0.0986  0.0845 -0.4689
11420PP      PP21524   5.820   9.617  12.337 -0.2132 -0.1194 -0.3798
11421PP      PP21525   2.492   3.157   9.053  0.0498 -0.1367 -0.1431
11422PP      PP21526  11.810  15.786   4.106  0.1208  0.1880 -0.0931
11423PP      PP21527   4.883   5.716  11.299 -0.0537 -0.1275 -0.1256
11424PP      PP21528   8.059   7.123  11.271  0.0685 -0.2362  0.1166
11425PP      PP21529   4.154  14.293  11.671 -0.3725  0.2251 -0.0579
11426PP      PP21530   0.918   2.366  11.799 -0.1449  0.2322 -0.0197
11427PP      PP21531   4.471   2.476   1.800 -0.1450  0.1384 -0.1943
11428PP      PP21532   3.296   5.593  10.674 -0.0551  0.0481  0.0004
11429PP      PP21533   1.370  15.071   9.191  0.0982 -0.0384 -0.3122
11430PP      PP21534   5.642   7.752   0.895 -0.0728 -0.0681 -0.0826
11431PP      PP21535   0.312  15.791  10.147 -0.0485 -0.0487 -0.1363
11432PP      PP21536  10.002   3.237   9.230  0.0276 -0.0074 -0.3756
11433PP      PP21537  16.182   8.186   0.643  0.0024 -0.2300 -0.0523
11434PP      PP21538   1.937   3.203  10.522  0.0607  0.1253 -0.1642
11435PP      PP21539  13.808  13.545   9.977  0.0079 -0.1858  0.2078
11436PP      PP21540   8.664   2.716  10.603  0.2059  0.0610  0.0843
11437PP      PP21541   0.397  11.067   1.533  0.0544  0.0546 -0.1136
11438PP      PP21542   1.303   9.869   8.610  0.1013  0.0868  0.5064
11439PP      PP21543  15.624   0.196   3.629  0.1313  0.0102  0.1864
11440PP      PP21544  12.064  13.141  11.027  0.1155  0.0936 -0.1511
11441PP      PP21545  12.422   7.881   3.237  0.1185 -0.0441 -0.0878
11442PP      PP21546   2.934   3.802   1.245  0.0037 -0.0316  0.0952
11443PP      PP21547   0.621   6.787   0.333 -0.1978 -0.0850  0.1399
11444PP      PP21548  13.076  10.543  10.373 -0.1124 -0.0026 -0.0263
11445PP      PP21549   7.830  15.826   1.078 -0.0251  0.0278 -0.0026
11446PP      PP21550  13.563   0.681   9.675 -0.1302  0.0772 -0.4507
11447PP      PP21551   4.125  12.598  10.954 -0.2057 -0.2527  0.2371
11448PP      PP21552   6.266   1.749  11.112  0.0373  0.0493  0.1933
11449PP      PP21553   9.839   3.876   9.772 -0.1012  0.1294 -0.0373
11450PP      PP21554  11.712   2.835   2.891 -0.0166  0.0077 -0.2439
11451PP      PP21555  15.503  14.446  10.118  0.2281 -0.0885 -0.1756
11452PP      PP21556  13.943  13.447   4.491 -0.0962 -0.1366  0.0338
11453PP      PP21557   3.348   6.402   0.937  0.1656 -0.1363 -0.1116
11454PP      PP21558   1.189   7.174   8.022 -0.0936 -0.0275 -0.1269
11455PP      PP21559   9.126   5.976  11.849 -0.2908  0.1274  0.3819
11456PP      PP21560   1.946   2.591  10.287 -0.1039  0.0779 -0.0797
11457PP      PP21561  12.960   9.758  10.603  0.2045  0.2813  0.0782
11458PP      PP21562  12.122   9.062   2.962  0.1147  0.2685 -0.1890
11459PP      PP21563   0.307   5.880   0.437  0.2032 -0.0667 -0.2260
11460PP      PP21564  16.240   8.756   8.562  0.0486  0.2090 -0.1107
11461PP      PP21565  13.978   0.347   8.333 -0.1714 -0.0988  0.1896
11462PP      PP21566   1.231  13.064  12.171 -0.1382 -0.0272  0.0889
11463PP      PP21567  12.344  10.700   2.501  0.1068  0.0581  0.0344
11464PP      PP21568  13.559  11.550   9.462  0.0791 -0.0581 -0.0340
11465PP      PP21569  10.783   6.293   1.266  0.0853 -0.4119 -0.0788
11466PP      PP21570   1.691   6.127  10.982  0.1951  0.1658 -0.0304
11467PP      PP21571  10.945   4.725   2.172 -0.0835  0.2779  0.0589
11468PP      PP21572  11.164   6.469   9.598  0.5173 -0.1427 -0.2933
11469PP      PP21573  13.520  16.330   1.002  0.0708  0.1320 -0.0217
11470PP      PP21574   2.853  11.658   8.284 -0.1606 -0.1137  0.0676
11471PP      PP21575   3.839  11.137   1.632  0.1653  0.0472 -0.1000
11472PP      PP21576   7.254  10.286  11.654 -0.2825  0.1240 -0.0556
11473PP      PP21577  15.949   4.041  11.950  0.0010 -0.1560  0.0698
11474PP      PP21578   7.708   3.085  10.601 -0.1098  0.2332 -0.0191
11475PP      PP21579  10.830   9.081   8.817 -0.2836 -0.0156  0.0199
11476PP      PP21580  10.929  14.689   3.194  0.1720 -0.1571  0.1772
11477PP      PP21581  14.814  13.895  11.085  0.2454  0.0187 -0.1158
11478PP      PP21582   3.401  11.315   0.471 -0.0833 -0.0789 -0.2624
11479PP      PP21583   0.918   2.895   9.470  0.0882  0.0896 -0.0414
11480PP      PP21584  14.599   4.643   9.880  0.2249 -0.0085 -0.1021
11481PP      PP21585   3.080  15.319   3.961 -0.0079  0.1614 -0.2132
11482PP      PP21586   3.469  10.000   2.404  0.0496 -0.0845 -0.2154
11483PP      PP21587  11.553  14.131  10.262 -0.3137 -0.0926 -0.0726
11484PP      PP21588  13.875   9.337   1.284  0.0925 -0.2731  0.4377
11485PP      PP21589   8.796  10.075   0.622 -0.1751 -0.0479 -0.0008
11486PP      PP21590   7.904   4.901   9.613  0.2133  0.0028 -0.0151
11487PP      PP21591   0.629  10.186  12.640 -0.2255  0.0156  0.1155
11488PP      PP21592  14.596   7.486   9.069  0.1112 -0.0830  0.0645
11489PP      PP21593  14.102  15.905   1.433  0.0497  0.0238 -0.2790
11490PP      PP21594   9.055  11.770   8.788 -0.3836  0.0538  0.0622
11491PP      PP21595  15.546  12.654   9.497 -0.0565  0.2692 -0.4276
11492PP      PP21596   9.889   3.492  11.763 -0.3179  0.0734 -0.1707
11493PP      PP21597  14.802   4.890  10.245  0.0046  0.5650 -0.1475
11494PP      PP21598   0.934   6.261  10.994 -0.3209 -0.0686  0.2368
11495PP      PP21599   4.629  11.505   7.559 -0.4834 -0.1127  0.2500
11496PP      PP21600  13.497   5.872   0.359 -0.0485  0.3777  0.1737
11497PP      PP21601   6.245   9.180   0.016 -0.0540  0.2445  0.0122
11498PP      PP21602  13.567   1.410   1.121 -0.0581 -0.3380  0.2427
11499PP      PP21603   4.143   6.010  12.688  0.0886  0.0368 -0.2675
11500PP      PP21604  15.901   2.772   0.663 -0.0411  0.0707 -0.0254
11501PP      PP21605   8.059   0.476   3.512 -0.4086 -0.1318  0.0981
11502PP      PP21606   3.830   0.894  12.577 -0.0631 -0.3078  0.1862
11503PP      PP21607  10.819  14.180   3.431  0.1097 -0.0223  0.0715
11504PP      PP21608   8.092   5.300   7.800 -0.0003  0.0818 -0.2325
11505PP      PP21609  13.621  10.704  10.316  0.0410 -0.1715  0.1331
11506PP      PP21610   1.053  10.379  12.171  0.1589  0.0525  0.1208
11507PP      PP21611   2.933  13.326   9.177  0.0285 -0.1306 -0.0959
11508PP      PP21612   4.857  12.204  10.090  0.1150  0.0068  0.0456
11509PP      PP21613  10.583  12.036   0.472 -0.2231  0.1020  0.1868
11510PP      PP21614  10.136  10.926   3.621 -0.0423 -0.0164  0.1524
11511PP      PP21615  10.706   2.203   8.711 -0.2752 -0.0375 -0.0834
11512PP      PP21616  12.329  12.078   1.279 -0.4402 -0.2079 -0.2687
11513PP      PP21617   3.586  15.076   9.816 -0.0287 -0.1295 -0.0060
11514PP      PP21618   7.039   0.887   3.586  0.6290 -0.4201  0.2286
11515PP      PP21619   4.876  13.605   1.381  0.0205 -0.0908 -0.0853
11516PP      PP21620  13.073  12.825  10.199  0.1804  0.2802 -0.3019
11517PP      PP21621   9.976   5.973  12.297 -0.4915 -0.1155 -0.2041
11518PP      PP21622   2.994   6.541  11.751  0.1689  0.4200  0.1370
11519PP      PP21623  15.486   6.693  10.854  0.1140 -0.1709 -0.1329
11520PP      PP21624   0.554   5.843   2.879 -0.1797 -0.2729 -0.1677
11521PP      PP21625  15.128  11.873  10.603 -0.0753  0.0605 -0.0212
11522PP      PP21626   1.429   4.061   2.263 -0.0974  0.2455  0.0349
11523PP      PP21627  16.222   8.176   3.305 -0.0544 -0.3627  0.2571
11524PP      PP21628   0.882  14.756   1.484  0.0286  0.0140 -0.2197
11525PP      PP21629   8.756  12.423   9.814 -0.0885  0.0261 -0.1704
11526PP      PP21630   4.510  14.531   8.555 -0.0067  0.0648 -0.1333
11527PP      PP21631   8.407  14.928  10.555 -0.2177  0.3263  0.0326
11528PP      PP21632   7.578   2.098   0.274 -0.1927  0.1527 -0.2768
11529PP      PP21633   7.594   8.026  12.648  0.2322  0.0513  0.2878
11530PP      PP21634   4.826  14.169  10.895 -0.3518  0.1223 -0.1335
11531PP      PP21635   1.941  11.868  11.311 -0.0857 -0.0165 -0.4105
11532PP      PP21636  14.292  11.856   4.759 -0.2230 -0.1457 -0.0882
11533PP      PP21637   1.346   4.571   9.759  0.3521 -0.1558  0.2264
11534PP      PP21638   3.473   2.501   8.515  0.0278 -0.1619 -0.1571
11535PP      PP21639   0.319   8.873   0.169 -0.1712 -0.1136  0.1849
11536PP      PP21640   0.356   9.274   8.111 -0.1954  0.1163  0.1276
11537PP      PP21641  10.383   3.500   0.816  0.2112  0.1337  0.1162
11538PP      PP21642   3.628   2.414  11.135 -0.4391 -0.2577  0.0203
11539PP      PP21643  11.941   9.471  12.499  0.2827  0.0576 -0.0916
11540PP      PP21644  15.017  15.206   9.319 -0.0106 -0.0377 -0.0573
11541PP      PP21645  16.062  10.888  12.476 -0.3761 -0.0497 -0.0124
11542PP      PP21646  16.345   0.583  11.969  0.0183 -0.3478  0.1497
11543PP      PP21647   7.064   6.287  11.189 -0.0020  0.3105 -0.1292
11544PP      PP21648   5.810  16.230   3.516 -0.0059 -0.2129 -0.1527
11545PP      PP21649  12.234   6.429  12.150  0.4191  0.0275 -0.0773
11546PP      PP21650  15.866  15.372   0.374  0.1995 -0.0433  0.1148
11547PP      PP21651   2.799   4.909  10.254 -0.0975 -0.0197 -0.0316
11548PP      PP21652  14.797   8.382   8.578  0.0162 -0.0246 -0.2256
11549PP      PP21653  10.074  11.686   4.581 -0.0561 -0.0430  0.3670
11550PP      PP21654  10.665  15.810  10.318  0.1728 -0.1364 -0.0298
11551PP      PP21655   5.756   7.660   8.837  0.2537  0.1763  0.0538
11552PP      PP21656   4.530   7.150   1.408  0.2254  0.2018  0.2265
11553PP      PP21657   4.570   1.744   0.663  0.0125 -0.0519  0.0296
11554PP      PP21658   3.328  10.855  11.732  0.0606 -0.1114  0.1273
11555PP      PP21659  13.752   1.707   3.091  0.0168  0.0163  0.0539
11556PP      PP21660  14.622  10.267   9.010 -0.0344  0.0566 -0.3126
11557PP      PP21661   1.733   8.264  11.265 -0.2194  0.1757 -0.1563
11558PP      PP21662   8.554   8.965   1.333  0.2597  0.1448 -0.1554
11559PP      PP21663  12.569   9.458   0.282  0.1471  0.1778  0.3205
11560PP      PP21664   7.268   7.283   3.667  0.1373  0.0785  0.0477
11561PP      PP21665   8.149   1.611   3.350 -0.1925 -0.1104 -0.1200
11562PP      PP21666   0.168  11.759   2.295  0.2200  0.2132 -0.0644
11563PP      PP21667  14.368   7.570  10.653  0.0350 -0.0953 -0.2186
11564PP      PP21668  14.495  11.204   9.186  0.0211  0.1387 -0.0543
11565PP      PP21669   9.266  11.735  10.620 -0.2506 -0.1745  0.1434
11566PP      PP21670   4.735   6.630   3.064  0.0328 -0.0320  0.0928
11567PP      PP21671   0.228   2.046   0.667  0.1516 -0.1993 -0.1495
11568PP      PP21672  14.795   1.307  12.172  0.1673  0.2005 -0.0932
11569PP      PP21673   7.448  11.299  11.393  0.0129 -0.1991 -0.2650
11570PP      PP21674  10.573   1.456   4.160  0.0044 -0.1821 -0.0669
11571PP      PP21675   5.582   2.077  12.623  0.0053  0.1063  0.1816
11572PP      PP21676   8.465   2.641   8.996  0.0537  0.0175  0.2215
11573PP      PP21677  13.684   4.579   3.377 -0.0321 -0.1911  0.0645
11574PP      PP21678  15.469  14.918   9.948 -0.1979 -0.1494  0.0277
11575PP      PP21679  12.879  16.335   2.112 -0.3552 -0.0374 -0.3877
11576PP      PP21680   1.366   5.467   2.891 -0.0745  0.0479 -0.1162
11577PP      PP21681   9.124   9.090  10.973  0.1035 -0.1945  0.0176
11578PP      PP21682   2.833   7.345   8.913  0.3468 -0.1065 -0.2168
11579PP      PP21683   6.175   5.599  10.227  0.0400  0.2117 -0.0664
11580PP      PP21684   7.399  11.108   9.548 -0.0456 -0.2365  0.1839
11581PP      PP21685  16.251   8.246  12.352  0.1910  0.0327  0.2823
11582PP      PP21686   4.436  16.327   1.629 -0.1379  0.2942 -0.0174
11583PP      PP21687  10.777  11.506   0.392  0.2989  0.1616 -0.2108
11584PP      PP21688   7.085  12.829   0.225 -0.1853  0.0343  0.0955
11585PP      PP21689   5.800  13.085   9.903 -0.3398  0.0367 -0.1421
11586PP      PP21690   9.878  12.676   1.988  0.0300  0.0144 -0.0047
11587PP      PP21691   5.345   2.998   1.584 -0.0552  0.4123 -0.0763
11588PP      PP21692   4.792   4.740   1.713  0.2851  0.1046  0.0042
11589PP      PP21693   5.548  10.418  12.358  0.0376  0.4198 -0.1289
11590PP      PP21694   0.972   6.184   1.578 -0.1823 -0.2877  0.1109
11591PP      PP21695  15.246   8.158   8.762 -0.1883  0.0978  0.1564
11592PP      PP21696   8.250   4.350   3.215  0.0351 -0.0620 -0.0811
11593PP      PP21697   1.222  13.575   3.126  0.1624 -0.0934  0.0689
11594PP      PP21698  11.702   8.265   8.884  0.1291 -0.0922  0.2869
11595PP      PP21699   1.954   9.002   8.430 -0.2229  0.0015 -0.0147
11596PP      PP21700   1.616   8.104   4.124  0.1537 -0.1362 -0.0136
11597PP      PP21701  11.031  15.998   2.879 -0.0438  0.2394 -0.1855
11598PP      PP21702   9.931  12.194   1.880  0.2962 -0.1963 -0.2621
11599PP      PP21703   6.586  10.455   1.970  0.0116  0.0294 -0.3799
11600PP      PP21704  10.860   2.019  10.162  0.2633 -0.2809  0.2334
11601PP      PP21705  11.552   2.292   0.949 -0.0559 -0.0018 -0.1555
11602PP      PP21706   8.199   2.278  12.477 -0.1119 -0.0714 -0.0778
11603PP      PP21707   0.730  13.080   8.474 -0.1328  0.1735  0.0443
11604PP      PP21708   4.242  12.600  11.560  0.1271 -0.0043 -0.1823
11605PP      PP21709   9.702   4.950  10.354 -0.5138  0.0024 -0.1876
11606PP      PP21710   8.756  12.803   1.098 -0.1286 -0.0667 -0.0029
11607PP      PP21711   1.117   6.865   0.199 -0.5807 -0.1042 -0.0745
11608PP      PP21712   4.948   1.564   1.986  0.1469 -0.0911  0.0031
11609PP      PP21713   0.061   5.972   9.842  0.0614  0.0714  0.2453
11610PP      PP21714   4.628   1.808   9.270 -0.1989 -0.0585  0.0534
11611PP      PP21715  12.933   2.119   3.372  0.0452 -0.2156  0.3480
11612PP      PP21716  11.711  11.304  11.764  0.2519  0.0577  0.1133
11613PP      PP21717  12.957   3.578  10.428 -0.1358  0.1890 -0.1891
11614PP      PP21718   3.827  10.101   0.179 -0.0887 -0.0854 -0.3843
11615PP      PP21719   8.280   6.949   2.445  0.0810  0.0986  0.0775
11616PP      PP21720  12.880   5.878  11.234  0.0862 -0.0563 -0.0844
11617PP      PP21721   5.462  14.922   8.665 -0.0008 -0.0241  0.2874
11618PP      PP21722  11.859  10.768   3.701 -0.0610 -0.4110  0.2236
11619PP      PP21723   0.409   1.574   0.195 -0.0686  0.0991 -0.2247
11620PP      PP21724   2.466  14.283   9.082 -0.2522 -0.1529 -0.1366
11621PP      PP21725  15.708   9.350  11.663 -0.0501  0.2134 -0.2693
11622PP      PP21726   2.920   1.818   1.278  0.3128  0.1848  0.1736
11623PP      PP21727   0.056   1.474  12.585 -0.0134 -0.1845  0.0970
11624PP      PP21728   8.916   1.746   1.048 -0.1032 -0.3431 -0.1037
11625PP      PP21729   7.489   0.308  10.575  0.1298  0.2826 -0.2791
11626PP      PP21730  11.548   7.808   0.258  0.0083  0.1772 -0.2660
11627PP      PP21731  10.411  12.847   9.966 -0.1206 -0.0759  0.0499
11628PP      PP21732   7.194  10.689   0.084  0.1947 -0.2137  0.2117
11629PP      PP21733   1.618  12.200   1.437 -0.0934 -0.0517 -0.0556
11630PP      PP21734  16.078   4.296   3.109  0.0300 -0.2623 -0.2277
11631PP      PP21735   7.596  14.014   9.893 -0.1037 -0.0168  0.0138
11632PP      PP21736   2.806   9.234  10.483  0.0032  0.2454 -0.1579
11633PP      PP21737   1.038  15.473  10.902 -0.0925  0.0203 -0.0724
11634PP      PP21738   2.155   1.775   0.498 -0.0379  0.1532  0.0876
11635PP      PP21739   2.203   0.308   1.073 -0.0099 -0.2443  0.2627
11636PP      PP21740   7.472  11.604   4.036 -0.0442  0.2961  0.1051
11637PP      PP21741   7.465   4.125   2.047 -0.6234  0.1700 -0.3442
11638PP      PP21742   7.517   7.610  12.304 -0.2973 -0.0609  0.0102
11639PP      PP21743   8.759  12.901  12.446  0.1360 -0.0431 -0.0367
11640PP      PP21744  16.199  12.457   2.576  0.0638  0.2031 -0.4414
11641PP      PP21745  12.638   1.700   8.690 -0.1335  0.1559 -0.3020
11642PP      PP21746   4.406   7.811  12.713  0.0331 -0.2865 -0.0535
11643PP      PP21747  10.316  10.597   0.381 -0.1364 -0.2034 -0.1857
11644PP      PP21748  10.576   9.778   9.863  0.0682  0.0406  0.1528
11645PP      PP21749  14.205   7.926   9.144 -0.0419 -0.0892 -0.0029
11646PP      PP21750   7.257   6.033   7.750  0.3647 -0.1610  0.1433
11647PP      PP21751   8.433   7.554   8.716  0.0006  0.1547  0.2986
11648PP      PP21752   1.215  10.226   0.759  0.1074  0.3509 -0.2927
11649PP      PP21753   6.860  10.194   2.238 -0.6973  0.1620  0.0752
11650PP      PP21754  15.511   5.258   8.985  0.1530  0.1198  0.2174
11651PP      PP21755   6.179  15.895  10.617  0.1468  0.0198  0.2491
11652PP      PP21756   0.173  12.709  11.485 -0.0787  0.1677  0.1119
11653PP      PP21757   4.328  12.693   3.096 -0.0849  0.1332 -0.1653
11654PP      PP21758   4.567  15.009   3.790 -0.0808  0.0337  0.3053
11655PP      PP21759  16.096  10.738   0.606 -0.5614  0.0782  0.2684
11656PP      PP21760   5.937   0.821   0.250  0.0593 -0.1913  0.0627
11657PP      PP21761   3.477   2.825  10.881  0.0760  0.2170 -0.3027
11658PP      PP21762  11.124   2.752  11.932  0.1269  0.1860 -0.2560
11659PP      PP21763  16.338   6.470  10.068 -0.0942 -0.0648  0.0242
11660PP      PP21764   4.458  10.378  12.115  0.2414  0.1011  0.0968
11661PP      PP21765  10.374  11.705   4.068 -0.1297 -0.1020 -0.3722
11662PP      PP21766  13.859   3.235  10.554  0.0033 -0.1088 -0.0089
11663PP      PP21767  13.145  14.463  11.929  0.0660 -0.2395  0.2224
11664PP      PP21768  14.844   0.397  11.165 -0.0368  0.0115  0.1547
11665PP      PP21769   6.430  15.246   0.246  0.0901 -0.3940  0.0439
11666PP      PP21770   1.957   3.079   4.330 -0.0623 -0.2530 -0.0086
11667PP      PP21771   1.959   2.620   8.832 -0.0240 -0.2001 -0.1678
11668PP      PP21772   3.488   3.726   3.359 -0.0252 -0.2198  0.0570
11669PP      PP21773  14.619   2.758   4.233 -0.1329  0.1989  0.1630
11670PP      PP21774   6.517   6.665   9.302  0.2705 -0.0881  0.0503
11671PP      PP21775   1.472  14.440   4.325 -0.5385 -0.3048  0.2102
11672PP      PP21776   5.960   5.179   2.822 -0.0637  0.1091  0.0661
11673PP      PP21777   6.698   9.439   1.297  0.1360  0.1095  0.0238
11674PP      PP21778  12.275   7.068   2.487 -0.1034 -0.0137  0.2192
11675PP      PP21779   4.713   5.478   0.512 -0.2915 -0.0775  0.0262
11676PP      PP21780   2.110   1.393   3.687 -0.1085  0.2548  0.0735
11677PP      PP21781   8.219  16.300   0.339  0.0979 -0.0984 -0.1248
11678PP      PP21782  14.598   0.813  11.019  0.0247  0.0743  0.2317
11679PP      PP21783   2.742   1.719  11.610 -0.0667 -0.2807 -0.0760
11680PP      PP21784   9.886  14.381   5.116  0.1258  0.1578  0.0017
11681PP      PP21785   9.408   4.005   8.870 -0.2192 -0.2422  0.2330
11682PP      PP21786   1.288   7.249  11.246  0.1294 -0.0101 -0.0153
11683PP      PP21787   7.795   6.426   0.647  0.1581 -0.0438  0.1389
11684PP      PP21788   3.348   4.020   3.717  0.0014  0.1284  0.0187
11685PP      PP21789   6.790   9.290  11.484  0.0587  0.0953 -0.1694
11686PP      PP21790   9.099   8.578   1.962  0.2923  0.1486  0.0317
11687PP      PP21791   6.917   7.075  11.043 -0.0084  0.0712 -0.3202
11688PP      PP21792  10.712  13.788   3.136 -0.2353 -0.0905 -0.1085
11689PP      PP21793  14.479  13.227   1.540  0.0389  0.0566 -0.2056
11690PP      PP21794   9.160  14.327   2.777 -0.0673 -0.0492 -0.1745
11691PP      PP21795   6.559  15.558   1.029 -0.1384 -0.2865  0.0425
11692PP      PP21796   1.606  14.065  12.351  0.0964  0.1756  0.4785
11693PP      PP21797  11.432   5.131  11.791  0.2084  0.0377  0.1251
11694PP      PP21798   1.890  12.021  10.082 -0.0793 -0.2622 -0.1291
11695PP      PP21799   1.003  13.542  10.812  0.1010  0.1000 -0.1273
11696PP      PP21800  10.177   7.452  10.585 -0.0688  0.2035 -0.1564
11697PP      PP21801  10.252   3.981  10.138 -0.0257  0.0915 -0.2161
11698PP      PP21802  10.906   2.907  10.244  0.0280 -0.2112  0.0999
11699PP      PP21803   9.085  15.742  12.363  0.1540  0.1039  0.0027
11700PP      PP21804  13.288   1.129   2.572  0.3442 -0.0804 -0.1490
11701PP      PP21805   9.229   6.235   1.075  0.0095  0.2162  0.0783
11702PP      PP21806   6.451  12.297   9.543  0.1211 -0.0152 -0.0458
11703PP      PP21807   0.323   6.161  10.242  0.3498  0.2726  0.1385
11704PP      PP21808   2.112  12.276  12.586 -0.1677  0.0034 -0.1362
11705PP      PP21809   0.911   9.306   2.855 -0.2460 -0.3197  0.2519
11706PP      PP21810  13.040  13.375  10.063 -0.0908  0.0255 -0.3876
11707PP      PP21811  10.566   3.146   3.229 -0.1596 -0.2867 -0.0273
11708PP      PP21812  13.897   4.993   2.008 -0.2851  0.0730 -0.2491
11709PP      PP21813  13.632   6.739   1.885 -0.1789 -0.1517  0.1078
11710PP      PP21814   8.247  14.470  12.471 -0.0838 -0.0882 -0.1806
11711PP      PP21815  11.496  15.676  12.008 -0.0661  0.2216  0.0166
11712PP      PP21816   0.784   2.339   9.141  0.2090 -0.0090 -0.0791
11713PP      PP21817  13.564   7.951   9.087  0.2852  0.1064 -0.3356
11714PP      PP21818   3.241  15.639   1.225 -0.1628 -0.0744 -0.1941
11715PP      PP21819  12.288   5.466   3.761 -0.2398 -0.0981 -0.3865
11716PP      PP21820   6.075  12.716   9.558  0.1124 -0.0758  0.1298
11717PP      PP21821   6.681   4.148   9.123 -0.2707  0.0220  0.2821
11718PP      PP21822  15.475   3.528  11.321 -0.0679  0.1517  0.0511
11719PP      PP21823  12.751   6.600   8.512  0.0059  0.1235 -0.0874
11720PP      PP21824  12.926   4.438   2.216  0.1760  0.0657 -0.4963
11721PP      PP21825  11.996  12.544   3.765  0.0785 -0.1985 -0.1799
11722PP      PP21826   4.073  13.833   0.311 -0.0452  0.1210 -0.3137
11723PP      PP21827  16.358   6.704  10.855 -0.1489 -0.3086  0.0247
11724PP      PP21828   4.416   9.952   0.085 -0.2720  0.2704 -0.4113
11725PP      PP21829  11.319  16.353   2.612 -0.0471  0.2176 -0.0183
11726PP      PP21830  12.635   2.068   2.960 -0.0506 -0.1012  0.3132
11727PP      PP21831   2.897  16.326  11.867 -0.0366  0.0698 -0.1823
11728PP      PP21832   9.407   9.847   8.114 -0.1707 -0.0228  0.0587
11729PP      PP21833  11.556  13.664   3.663 -0.4084  0.0570 -0.0707
11730PP      PP21834   9.265   9.078  12.195 -0.0552 -0.0563 -0.0912
11731PP      PP21835   9.172  10.356   1.787  0.0935  0.0884 -0.0102
11732PP      PP21836   3.160   3.586   9.441 -0.0183 -0.2234 -0.5027
11733PP      PP21837   4.549   7.290   8.555 -0.0928  0.3192  0.0918
11734PP      PP21838   7.745   5.381  11.840 -0.0753 -0.2015 -0.0351
11735PP      PP21839  12.399  15.931  12.071  0.2017  0.2033  0.0749
11736PP      PP21840  11.334   1.897   0.526 -0.2233 -0.2431 -0.0022
11737PP      PP21841   5.201   2.796   2.931 -0.1804 -0.3897 -0.2696
11738PP      PP21842  15.383   3.553  10.339 -0.4015  0.2829 -0.2521
11739PP      PP21843  16.052   4.598   4.445 -0.0226 -0.0165 -0.3035
11740PP      PP21844   5.551  13.659   2.822 -0.0305 -0.1679 -0.1019
11741PP      PP21845   1.619   6.662   2.055  0.3269  0.0624  0.0146
11742PP      PP21846  10.613   3.031   0.882 -0.0365 -0.0048  0.1261
11743PP      PP21847  16.028   5.680   0.815 -0.0557 -0.3666 -0.0849
11744PP      PP21848  12.431   2.997   9.339  0.3309  0.3342 -0.1134
11745PP      PP21849  14.834  10.579  11.797  0.4024  0.2764  0.1593
11746PP      PP21850  12.844   9.721   3.525  0.2965 -0.1953  0.3766
11747PP      PP21851  12.299   8.589   2.849  0.3079 -0.1996 -0.1167
11748PP      PP21852   8.577   1.347   3.256  0.0646  0.1586 -0.0287
11749PP      PP21853   6.286   4.089  11.464  0.3133 -0.2280 -0.3307
11750PP      PP21854   0.512   6.141   1.717 -0.0730 -0.2017  0.0870
11751PP      PP21855   4.634  12.553   9.682 -0.0435 -0.0808 -0.2590
11752PP      PP21856   4.015  15.387   0.444 -0.1588  0.0431  0.0394
11753PP      PP21857   3.873   4.076  10.672 -0.1498  0.1379 -0.0036
11754PP      PP21858   4.213  11.604   9.539  0.0681 -0.3045 -0.0566
11755PP      PP21859  12.896   5.189  12.103  0.1798 -0.0455  0.0997
11756PP      PP21860   1.887  16.220  11.531 -0.0756 -0.4508 -0.1424
11757PP      PP21861   8.590   6.622   3.424  0.1766 -0.1580 -0.0464
11758PP      PP21862  14.811  10.627   2.661  0.2048  0.1127 -0.0048
11759PP      PP21863   8.162  10.766   3.674 -0.3158 -0.0006  0.1747
11760PP      PP21864   3.941   5.670  12.385 -0.5373  0.3008  0.2494
11761PP      PP21865  12.226  10.096   9.797 -0.3372 -0.0089 -0.0228
11762PP      PP21866   6.123  15.170   9.310 -0.2638 -0.0452  0.0799
11763PP      PP21867   4.228  15.744  12.032 -0.0755  0.1240  0.1876
11764PP      PP21868  11.658  11.068  11.334  0.0541  0.0830 -0.0342
11765PP      PP21869  13.939  12.104   2.826 -0.0017 -0.1039  0.1429
11766PP      PP21870   1.153  11.644   2.303  0.1376  0.0492  0.0321
11767PP      PP21871   3.205  12.837   1.640 -0.0015  0.2075 -0.2170
11768PP      PP21872  10.739   0.909   2.654 -0.1105  0.1195 -0.2578
11769PP      PP21873  11.779  16.312   9.357 -0.0428 -0.2348 -0.0420
11770PP      PP21874  14.270   3.773   3.504  0.4203 -0.2376 -0.2118
11771PP      PP21875   1.042   6.452   2.984 -0.3168  0.1510  0.4762
11772PP      PP21876   6.587   0.467   3.277 -0.0586 -0.0216  0.0365
11773PP      PP21877  10.318  11.203   0.113 -0.1381  0.0010  0.3708
11774PP      PP21878   7.431  10.884   8.904  0.2239  0.1727 -0.1009
11775PP      PP21879  13.694  10.381   2.670 -0.0788 -0.1029  0.0222
11776PP      PP21880   1.313   1.117  11.155  0.0267  0.2566  0.0443
11777PP      PP21881  15.073   1.507   1.586  0.1630  0.2439  0.3095
11778PP      PP21882   0.323   9.878   3.144 -0.0612  0.0858  0.2119
11779PP      PP21883  10.248   3.995   1.970  0.1117 -0.2989 -0.1667
11780PP      PP21884  10.388   5.623  12.375  0.0931 -0.4677 -0.1222
11781PP      PP21885   2.393  12.537  11.646  0.0986 -0.1737 -0.2287
11782PP      PP21886  14.057  16.231   2.520 -0.0859 -0.2348  0.2264
11783PP      PP21887   4.671  15.346   1.318 -0.2092 -0.1426 -0.0450
11784PP      PP21888   4.984  10.214   0.350  0.2101 -0.2721  0.0701
11785PP      PP21889   3.582   0.479   8.651 -0.0595 -0.3473 -0.2000
11786PP      PP21890  16.145  14.202   3.359  0.1821  0.0027  0.2759
11787PP      PP21891   0.546  12.951   3.593  0.2801  0.1015 -0.1138
11788PP      PP21892   4.211  13.774   8.051  0.2477  0.0716  0.1801
11789PP      PP21893   0.488   7.524  12.471 -0.1362 -0.2451 -0.0466
11790PP      PP21894   2.931  12.299   3.319 -0.1497 -0.1252 -0.1060
11791PP      PP21895   7.563   1.122   9.321 -0.3856  0.2189 -0.1863
11792PP      PP21896   2.614  13.773   9.694  0.2851 -0.4300  0.1775
11793PP      PP21897   8.604  15.058   1.860 -0.3563  0.3036  0.1886
11794PP      PP21898   3.685  14.976   7.652  0.0134  0.1437  0.3045
11795PP      PP21899  14.092  15.776  11.072  0.1023 -0.0010 -0.1562
11796PP      PP21900   9.765   2.412  12.472  0.0142 -0.2083  0.1571
11797PP      PP21901   2.515   2.760   9.406  0.0134  0.1825  0.5608
11798PP      PP21902   1.432   1.982  10.760  0.0586 -0.1288 -0.1465
11799PP      PP21903   1.244  16.200   9.918  0.2659  0.2259  0.0396
11800PP      PP21904   5.420   4.507  10.769 -0.1799  0.1155  0.1900
11801PP      PP21905   0.613  16.228   4.266 -0.2317 -0.1112  0.2076
11802PP      PP21906   5.616   4.954   8.458  0.0073 -0.3949  0.1396
11803PP      PP21907  10.651   8.702   3.225 -0.2929  0.2585  0.2547
11804PP      PP21908  15.149   4.868  11.250  0.1184 -0.0474 -0.0898
11805PP      PP21909   5.682   2.074   1.585 -0.1205 -0.0335 -0.1417
11806PP      PP21910   7.659  12.201   0.966  0.0350 -0.1749  0.0043
11807PP      PP21911   0.920   5.580   3.148  0.0954 -0.0535  0.3534
11808PP      PP21912  12.567  13.134  10.818  0.0858 -0.0202 -0.0256
11809PP      PP21913   0.377   5.220   7.864 -0.1754 -0.0121  0.0037
11810PP      PP21914   3.769  13.841   2.837 -0.3281 -0.3486 -0.1803
11811PP      PP21915   0.008  12.758   4.397 -0.2074  0.1273 -0.0582
11812PP      PP21916   9.026   2.793  10.079 -0.1774 -0.0065  0.0437
11813PP      PP21917  15.946  13.243  11.119 -0.1834  0.0200 -0.2554
11814PP      PP21918   3.346  11.756   8.397  0.4801 -0.0187 -0.1502
11815PP      PP21919  14.656   3.228   1.522  0.0596 -0.0632 -0.0160
11816PP      PP21920   0.531   9.316   2.066  0.0789  0.2290  0.2303
11817PP      PP21921   8.676  16.165  11.787  0.1009 -0.1073 -0.2527
11818PP      PP21922   8.964   3.485   1.516 -0.1627  0.0739  0.3366
11819PP      PP21923  12.922  11.030   3.018 -0.0376  0.1245 -0.2293
11820PP      PP21924   5.890   6.217   8.520  0.3330  0.1589  0.2296
11821PP      PP21925   7.330   8.738   8.891 -0.0101 -0.2212 -0.4021
11822PP      PP21926  12.681   6.472   3.567  0.0263  0.1862  0.0894
11823PP      PP21927  13.108   0.919   9.634 -0.1420  0.0971 -0.3816
11824PP      PP21928  10.069   1.741   3.368 -0.2888 -0.0235 -0.3056
11825PP      PP21929  10.563   5.422   7.967 -0.0185 -0.0175 -0.1113
11826PP      PP21930   0.982  14.190   8.876  0.2431 -0.0876  0.2077
11827PP      PP21931   7.756   0.481  12.181  0.0209 -0.0154 -0.1370
11828PP      PP21932   2.561   4.112   1.491  0.2448 -0.0640  0.1015
11829PP      PP21933  15.846  15.700   2.058  0.1406 -0.4363  0.1899
11830PP      PP21934   8.175  13.958   4.348  0.0137  0.1374  0.1014
11831PP      PP21935   4.600  15.332  11.309  0.1012  0.1046  0.0660
11832PP      PP21936  16.056  16.171   2.004  0.0604  0.0858 -0.1729
11833PP      PP21937  15.874   3.379   1.491  0.2913  0.2037 -0.2234
11834PP      PP21938  14.504   6.050   2.504  0.1804  0.0015  0.1950
11835PP      PP21939   7.346   3.788  11.433 -0.1904  0.1265 -0.0379
11836PP      PP21940   3.132   9.611  12.285  0.2125 -0.0650  0.1159
11837PP      PP21941   3.708  13.113  12.542  0.0568 -0.1640  0.0916
11838PP      PP21942   2.809  11.422   0.738  0.0567 -0.2066  0.1917
11839PP      PP21943   3.312   4.928  11.607  0.1478 -0.1841 -0.0406
11840PP      PP21944  13.481   5.966   3.460  0.1382  0.0265 -0.0327
11841PP      PP21945  11.806  11.456  10.998  0.0992  0.1908  0.4701
11842PP      PP21946  15.104   8.886  12.741 -0.2784 -0.1488  0.3645
11843PP      PP21947   3.729   2.696   2.814  0.1633  0.1314 -0.0036
11844PP      PP21948  11.523   4.844   2.238  0.2420 -0.0080 -0.1837
11845PP      PP21949   1.018  14.531   4.140  0.0629 -0.2494  0.0649
11846PP      PP21950   8.541   9.529   3.907 -0.0737 -0.0607  0.0221
11847PP      PP21951  10.896   7.024   8.725  0.0068 -0.1405  0.0370
11848PP      PP21952   3.659   3.146  10.545 -0.1586  0.3178 -0.1008
11849PP      PP21953   6.889   3.854   1.004  0.2047 -0.0879 -0.1005
11850PP      PP21954   0.150   9.650   4.320  0.0306  0.1358 -0.0329
11851PP      PP21955   8.812   9.293  12.397 -0.1134 -0.2269  0.1699
11852PP      PP21956   9.781   9.126   8.923  0.1778 -0.0226  0.2110
11853PP      PP21957   7.120   4.173  11.121 -0.0155 -0.5131 -0.2532
11854PP      PP21958   2.565   9.481  10.132  0.0325 -0.0713  0.2653
11855PP      PP21959  15.950  10.158   9.497  0.2606  0.1756 -0.0425
11856PP      PP21960   8.111  14.044   1.066  0.1896 -0.0225 -0.0351
11857PP      PP21961   7.363   6.467  10.833  0.1284 -0.1752 -0.1193
11858PP      PP21962   9.535  12.578   9.266  0.1443  0.1209  0.2959
11859PP      PP21963   9.776   6.001   8.836  0.1567  0.0480  0.0077
11860PP      PP21964   9.999   4.432   2.380 -0.1860 -0.2195  0.0676
11861PP      PP21965   7.541   5.936   0.953 -0.0003 -0.0077 -0.0422
11862PP      PP21966   8.948  14.032   8.961  0.2501  0.2724  0.1621
11863PP      PP21967  11.619  10.169   8.647  0.0522 -0.0794  0.0980
11864PP      PP21968   5.698  15.602   1.479  0.2178 -0.2075  0.1516
11865PP      PP21969   8.067   2.817   9.276  0.0754 -0.0775  0.0303
11866PP      PP21970  15.884   4.029   9.747  0.0905 -0.0020 -0.1145
11867PP      PP21971  14.612  12.231  11.737  0.1689  0.0774  0.0244
11868PP      PP21972   8.330   0.236  11.163 -0.0040  0.1971  0.0700
11869PP      PP21973   2.543  14.048   8.514  0.2530 -0.0663 -0.3093
11870PP      PP21974  15.798  10.464   9.903 -0.0400  0.1849  0.3274
11871PP      PP21975  10.830   6.424   1.749 -0.1093 -0.1974 -0.2372
11872PP      PP21976  10.704  15.845   9.804 -0.1441  0.1654 -0.0824
11873PP      PP21977   2.226  15.044  10.614  0.1381 -0.1627  0.1630
11874PP      PP21978  14.160  15.320   0.979  0.0771 -0.3093  0.1680
11875PP      PP21979   4.057   0.034   1.922 -0.3249  0.0268 -0.2394
11876PP      PP21980   4.790   3.227  10.750  0.3009  0.2485 -0.0180
11877PP      PP21981   7.950  15.612  12.063 -0.2008 -0.3288  0.0182
11878PP      PP21982   7.347  13.858   3.952  0.0163 -0.1735 -0.1105
11879PP      PP21983  12.566  15.974  10.858 -0.2520 -0.0919 -0.0270
11880PP      PP21984  13.541  11.837   8.420  0.0357 -0.1103  0.0461
11881PP      PP21985  12.544   2.583   9.018 -0.1021 -0.1957  0.2050
11882PP      PP21986   0.880   9.213   8.250  0.2270 -0.0229  0.3508
11883PP      PP21987   8.584   8.404  11.144  0.0524 -0.0040 -0.0144
11884PP      PP21988   8.038  14.228   3.655  0.3849  0.3804 -0.0571
11885PP      PP21989   3.413  11.856   8.915  0.1282 -0.2591  0.0860
11886PP      PP21990   8.574   8.896   0.683 -0.0678 -0.2807  0.0281
11887PP      PP21991   3.388   8.793   9.856 -0.0161  0.0041  0.3924
11888PP      PP21992   4.867   0.175   9.934 -0.1053 -0.1083  0.2338
11889PP      PP21993  10.859   4.371   2.616  0.2234  0.0152 -0.0957
11890PP      PP21994  13.641   6.531   2.324  0.2854 -0.0452  0.0418
11891PP      PP21995  14.490   5.945   8.686 -0.2901 -0.3227  0.0508
11892PP      PP21996   1.605  13.717   0.760  0.2772 -0.0854  0.0221
11893PP      PP21997   3.148   8.490   8.207 -0.0310  0.0718 -0.1945
11894PP      PP21998   0.795   4.749   9.801 -0.0409  0.3852 -0.1898
11895PP      PP21999   4.189   4.476   1.964 -0.3177  0.3925 -0.0861
11896PP      PP22000   8.345   3.431   3.801 -0.0462  0.0686 -0.2561
11897PP      PP22001  14.343   8.277   9.488  0.2551 -0.0552  0.0072
11898PP      PP22002   4.153   7.698   9.256 -0.3263 -0.3227  0.0147
11899PP      PP22003  10.598   7.096   0.633  0.1203  0.2602 -0.0209
11900PP      PP22004  10.082   7.870   1.744  0.3305 -0.3384 -0.0499
11901PP      PP22005   4.198  10.078  10.165  0.0047  0.1567  0.0752
11902PP      PP22006   3.726   9.852   1.329 -0.0563  0.1687  0.1324
11903PP      PP22007   6.079  13.598   9.830 -0.0460  0.3295  0.1930
11904PP      PP22008  14.922   6.172   1.134  0.1133 -0.0675 -0.0921
11905PP      PP22009   1.283   4.098   0.963 -0.2246 -0.1081 -0.1647
11906PP      PP22010   6.781   9.227   3.352  0.1202 -0.0788 -0.0050
11907PP      PP22011  10.836   7.540   8.854 -0.0119 -0.0186  0.1331
11908PP      PP22012   5.728   6.089   7.387  0.2320 -0.2432 -0.1298
11909PP      PP22013  13.099  15.207   3.134 -0.0101  0.0959 -0.0563
11910PP      PP22014   0.587   6.671   9.251  0.2579 -0.1878 -0.0515
11911PP      PP22015  11.570   2.390   9.602  0.1879  0.3305  0.0867
11912PP      PP22016  10.552  11.700   9.957 -0.0749 -0.1797 -0.0084
11913PP      PP22017   0.455   6.923  11.137 -0.0828  0.1288 -0.0302
11914PP      PP22018   6.948   5.622   8.960  0.0624 -0.0068  0.0308
11915PP      PP22019   4.434  13.990   8.534 -0.2120 -0.0991 -0.1684
11916PP      PP22020   4.446   3.709  12.103 -0.0410 -0.1494  0.0890
11917PP      PP22021  13.902  12.129  10.123 -0.1274  0.1842 -0.2824
11918PP      PP22022   4.720   3.805   1.709 -0.1115 -0.0015 -0.0331
11919PP      PP22023   6.233  15.369  10.675  0.4384  0.1665 -0.1342
11920PP      PP22024  13.416   0.028  11.005 -0.1737  0.1722 -0.1472
11921PP      PP22025  11.699  10.611  10.410 -0.0228  0.0068 -0.2614
11922PP      PP22026  15.270  11.164   9.898 -0.4210  0.1167  0.1081
11923PP      PP22027   3.421   7.251   3.441  0.0986  0.0270  0.1495
11924PP      PP22028   5.926   4.584   0.415  0.1119  0.0376 -0.1297
11925PP      PP22029  13.056  15.099   0.594  0.1455 -0.1703 -0.1158
11926PP      PP22030   0.633   8.771   9.400  0.0960  0.0248 -0.1686
11927PP      PP22031   1.688   2.461   3.546 -0.1024 -0.0509 -0.0664
11928PP      PP22032   0.016   2.660  12.149  0.2765 -0.1228 -0.2325
11929PP      PP22033  15.441  13.537   9.804 -0.0318  0.1264 -0.1959
11930PP      PP22034  16.350   6.764  12.323 -0.0274 -0.2775 -0.0846
11931PP      PP22035  12.587   3.650  10.774 -0.1333 -0.4494  0.0169
11932PP      PP22036   5.621   7.565   9.785 -0.2633 -0.1776 -0.1235
11933PP      PP22037   1.822   6.317  10.238 -0.3234  0.0969  0.1704
11934PP      PP22038  12.023   1.891   0.396 -0.0609  0.2404  0.2889
11935PP      PP22039  14.997   8.430   2.344  0.2012 -0.1567 -0.3486
11936PP      PP22040  10.016   2.773  10.239 -0.0031  0.0413  0.2771
11937PP      PP22041  12.382   4.401   0.339 -0.1419  0.3657  0.1598
11938PP      PP22042   3.195   8.226   0.038 -0.0607 -0.0340 -0.1792
11939PP      PP22043  10.117  14.448   1.964  0.2696  0.0906 -0.0563
11940PP      PP22044  10.068  15.867  10.995 -0.2810  0.1284  0.0286
11941PP      PP22045   2.510   7.154   8.575  0.2765 -0.0157  0.1229
11942PP      PP22046  12.360   3.909  11.424  0.1962  0.1545  0.2226
11943PP      PP22047  15.242   2.045  10.631 -0.4101  0.0230 -0.1340
11944PP      PP22048   8.200   4.206  11.705 -0.0679  0.0866  0.2095
11945PP      PP22049   6.720   6.047   8.729 -0.2055  0.2737 -0.2179
11946PP      PP22050  13.692   2.547   4.166  0.1753 -0.0252 -0.0151
11947PP      PP22051   4.704  14.156  12.422 -0.1362  0.1214  0.1433
11948PP      PP22052  14.686   8.954  10.806 -0.0497 -0.1321  0.2518
11949PP      PP22053  12.291   1.295  10.790 -0.0120  0.0874 -0.1549
11950PP      PP22054  15.361  14.069   1.471 -0.0427 -0.0589  0.2723
11951PP      PP22055   8.911   3.007   1.515  0.0170  0.0328 -0.1763
11952PP      PP22056   1.823   1.862   9.902 -0.2270 -0.1851 -0.0625
11953PP      PP22057   5.041  11.396   0.675 -0.0108 -0.0951 -0.2922
11954PP      PP22058  14.520  15.194  10.750  0.1361  0.0629  0.2313
11955PP      PP22059   1.163  12.723   3.718  0.0960  0.0566 -0.0849
11956PP      PP22060   8.645  12.241  11.859  0.2623 -0.1934 -0.3949
11957PP      PP22061   1.392  14.061   2.914  0.0689  0.2901  0.0534
11958PP      PP22062  13.765   2.369  11.557  0.0469 -0.1047 -0.0234
11959PP      PP22063   9.114  13.000   4.471 -0.0881 -0.2176 -0.0115
11960PP      PP22064   2.955   6.714  10.386 -0.0508  0.0073  0.4177
11961PP      PP22065  11.996  15.433   2.643  0.1713 -0.0317  0.1049
11962PP      PP22066   6.557   0.584   1.172 -0.3243 -0.0822 -0.1958
11963PP      PP22067  14.285  10.946   8.354  0.1132  0.4557  0.0392
11964PP      PP22068   4.439   5.544  11.466 -0.1469 -0.0576  0.1804
11965PP      PP22069  14.997   6.505  10.825 -0.1647 -0.1279  0.1411
11966PP      PP22070  13.817   6.903   1.331 -0.3982 -0.0871 -0.0575
11967PP      PP22071   9.344  10.171  10.627 -0.0129 -0.2636 -0.1049
11968PP      PP22072  15.669   8.163   7.939  0.4279  0.0296 -0.2893
11969PP      PP22073   4.089   4.672   8.909  0.1627 -0.1919  0.1283
11970PP      PP22074   6.966   5.712  11.334 -0.2120  0.0343 -0.1046
11971PP      PP22075  13.256   4.542   9.209  0.0268  0.0897 -0.1204
11972PP      PP22076   0.169  10.402   1.861 -0.2580 -0.1361  0.2236
11973PP      PP22077   5.954  12.126  12.516 -0.4094 -0.1092  0.1272
11974PP      PP22078  14.594   2.965   1.119  0.1631  0.0647 -0.4396
11975PP      PP22079   9.863   1.298   8.854 -0.0513 -0.1438 -0.1817
11976PP      PP22080   8.548   8.420   8.585 -0.1607  0.1703  0.0540
11977PP      PP22081  14.308   0.544   1.853 -0.3170  0.0188  0.0224
11978PP      PP22082  11.394   5.958   2.700  0.3117 -0.1084 -0.1437
11979PP      PP22083   8.755   4.208  11.688 -0.2488  0.2003  0.0739
11980PP      PP22084   7.368  12.338   0.543 -0.2790  0.1037 -0.0450
11981PP      PP22085  14.114  15.843   8.359 -0.0218  0.2080  0.0839
11982PP      PP22086   1.109   5.960   2.069 -0.0208  0.2882 -0.1822
11983PP      PP22087   7.408  13.132   3.196 -0.3362  0.0954 -0.1142
11984PP      PP22088  11.534  15.286   0.413  0.0662 -0.1324  0.1053
11985PP      PP22089  14.258   7.941   1.461 -0.2629  0.0174 -0.3975
11986PP      PP22090   9.463  15.549   1.471  0.0679 -0.2181  0.1613
11987PP      PP22091  15.305   9.649  12.551 -0.2869  0.1191  0.3171
11988PP      PP22092   3.965   2.860   4.577  0.1252  0.3051  0.1875
11989PP      PP22093   7.430  12.773  12.573  0.1498  0.2982 -0.0914
11990PP      PP22094  13.742   0.690  12.734  0.1204 -0.2448 -0.0970
11991PP      PP22095   5.520  10.857   2.503 -0.0253 -0.1688  0.0148
11992PP      PP22096   7.134   8.553   2.236  0.2067  0.0843  0.5030
11993PP      PP22097   7.354   6.489   3.535  0.0601 -0.4786 -0.0390
11994PP      PP22098   1.355  11.691   3.897 -0.1062  0.3780  0.0589
11995PP      PP22099   0.011  10.813   2.539  0.0402 -0.0998 -0.1330
11996PP      PP22100  13.222   4.756   1.315 -0.1937 -0.0126  0.0391
11997PP      PP22101   1.741   8.917   3.288 -0.0506  0.1335 -0.1373
11998PP      PP22102  10.038  12.962   0.457  0.0984  0.4418  0.1166
11999PP      PP22103   7.302   5.753   0.063  0.0772 -0.4189  0.1530
12000PP      PP22104   6.187   7.685   9.333 -0.0832  0.4362 -0.0874
12001PP      PP22105  10.109  14.593   9.344 -0.0441  0.2252  0.0639
12002PP      PP22106   2.560   2.433   0.866 -0.1373 -0.3367 -0.0021
12003PP      PP22107  10.388  12.544  11.489  0.0911  0.0099 -0.2893
12004PP      PP22108   7.044   6.872   2.826  0.0583 -0.1938 -0.1605
12005PP      PP22109  14.653  16.315  12.295  0.0858  0.4082 -0.2471
12006PP      PP22110   0.822   2.248   0.653 -0.0955 -0.0641  0.0724
12007PP      PP22111  12.459   8.062   8.271 -0.3100 -0.3570  0.1706
12008PP      PP22112   4.459   1.114   3.285  0.1605  0.1846 -0.0483
12009PP      PP22113   9.174  15.079   3.486  0.6207 -0.2017  0.0839
12010PP      PP22114  16.082   7.982   8.336 -0.0678  0.1006 -0.1422
12011PP      PP22115  11.856  11.645  11.438 -0.1877 -0.2838  0.1466
12012PP      PP22116   3.396  10.739  10.736  0.1514  0.1423  0.0245
12013PP      PP22117   9.199  13.250  10.282  0.1620  0.1022  0.1007
12014PP      PP22118  15.445   9.367   7.730  0.0943  0.0588 -0.1837
12015PP      PP22119   1.567  11.491   9.972 -0.2774  0.0093  0.0488
12016PP      PP22120   7.838   6.599   1.555 -0.2870 -0.4442  0.3349
12017PP      PP22121   0.969   9.219   3.325  0.0893  0.0026 -0.0029
12018PP      PP22122   4.889   8.723   2.897 -0.0454  0.4395  0.0289
12019PP      PP22123  16.141  14.992  10.583 -0.2671 -0.0691 -0.0958
12020PP      PP22124   2.425   5.399   8.919 -0.0903 -0.0371  0.1402
12021PP      PP22125  10.654   4.578   1.312  0.1197 -0.2952 -0.0082
12022PP      PP22126  11.561  10.775   1.098 -0.0160  0.0541 -0.1789
12023PP      PP22127   7.298   9.497  10.639  0.1228 -0.0796 -0.1688
12024PP      PP22128  13.982  16.163   3.100  0.1304  0.1477  0.0423
12025PP      PP22129   6.789   3.446  11.667  0.0217 -0.1860 -0.0705
12026PP      PP22130   6.753   4.106  10.799  0.0114  0.0841 -0.0708
12027PP      PP22131   7.106  12.170   8.864  0.1809 -0.0481  0.3025
12028PP      PP22132  10.460   8.219  12.066 -0.0485  0.0894 -0.0526
12029PP      PP22133   8.016   1.934   9.292 -0.1751 -0.0128 -0.0339
12030PP      PP22134  13.695   9.216  10.164 -0.0116 -0.0067 -0.0655
12031PP      PP22135   1.429   6.449   3.362  0.1368 -0.0698  0.2273
12032PP      PP22136   6.046   7.151   1.803  0.1096 -0.2768 -0.1616
12033PP      PP22137  10.865  13.060  12.615  0.1294  0.2355  0.2520
12034PP      PP22138  11.116   2.091   8.418 -0.1357  0.2762  0.2055
12035PP      PP22139   2.774   0.918   3.023  0.3551 -0.0536 -0.1299
12036PP      PP22140   5.359  15.154   3.565  0.1794 -0.2054  0.1046
12037PP      PP22141  11.717   0.140   1.413  0.1376  0.1978 -0.0490
12038PP      PP22142   5.000   3.600  11.091 -0.0300  0.1737 -0.0613
12039PP      PP22143  14.992   2.522   0.905  0.0621  0.0239  0.0490
12040PP      PP22144   4.253   0.976  11.577 -0.0901  0.2055  0.1742
12041PP      PP22145  12.179   2.906  11.183  0.1426  0.2744 -0.1411
12042PP      PP22146  14.379  13.012   0.830 -0.2516 -0.0262 -0.1782
12043PP      PP22147  13.465  11.179   1.286  0.0130 -0.4176  0.2781
12044PP      PP22148  16.358   8.903   8.081  0.1659  0.0263 -0.0313
12045PP      PP22149   5.351   7.660   8.509  0.0637  0.1281  0.0639
12046PP      PP22150   0.141   7.523  10.327 -0.1168 -0.1169  0.0127
12047PP      PP22151  13.244  14.482   9.541 -0.0847 -0.4146 -0.2524
12048PP      PP22152   8.010  14.664   1.189 -0.0511 -0.2126 -0.0580
12049PP      PP22153  15.497   9.965  10.595  0.1141  0.0272  0.2287
12050PP      PP22154  15.172   3.889  11.572  0.1300  0.1592 -0.1601
12051PP      PP22155   2.862  16.226   0.722 -0.3235  0.0319  0.1643
12052PP      PP22156   7.585   9.892   3.609  0.3071  0.1820 -0.2471
12053PP      PP22157  10.008   0.135   4.185 -0.2595  0.0660  0.0121
12054PP      PP22158   3.567  10.243  11.500  0.1356 -0.1751  0.1372
12055PP      PP22159   6.332  14.064  11.924  0.0501 -0.0917  0.0811
12056PP      PP22160   2.022   6.495  12.150  0.1995 -0.4026  0.1865
12057PP      PP22161  10.366   8.856   9.003 -0.3186 -0.1650  0.1773
12058PP      PP22162   0.476  15.513  11.903 -0.0115 -0.0391  0.3714
12059PP      PP22163   8.779  12.263  11.102 -0.0066 -0.1215  0.2329
12060PP      PP22164   6.647  10.908  10.122 -0.1138  0.5048  0.2620
12061PP      PP22165  13.800  12.987   2.122 -0.4123  0.1467 -0.0075
12062PP      PP22166   1.271  10.440   9.897  0.0699 -0.0797  0.0231
12063PP      PP22167  12.147   1.799   2.199  0.1226  0.1625  0.1508
12064PP      PP22168   5.517  12.647   9.196  0.3629  0.0116  0.1462
12065PP      PP22169   6.988   1.397   0.244  0.0467  0.1634  0.0259
12066PP      PP22170  15.843   8.061  10.480 -0.0992 -0.0621 -0.1205
12067PP      PP22171   1.504   2.759   2.517  0.0286 -0.0024  0.0101
12068PP      PP22172   9.627   7.315   8.682  0.1078  0.1495  0.1471
12069PP      PP22173   3.834  11.224   9.489  0.1143 -0.1050  0.1427
12070PP      PP22174   6.474  11.382   0.152 -0.0433 -0.3234  0.0031
12071PP      PP22175   9.872   3.158   0.318 -0.3374  0.2037 -0.1085
12072PP      PP22176   8.333   6.322   0.622 -0.0242  0.0110  0.2556
12073PP      PP22177  13.711   4.519   8.477  0.2220  0.1344  0.1635
12074PP      PP22178   0.669  13.027  12.114  0.2242 -0.1687 -0.2769
12075PP      PP22179  11.346   6.508  12.644 -0.1065 -0.0080  0.2191
12076PP      PP22180   7.668   4.660   9.017 -0.0286  0.1185  0.0338
12077PP      PP22181   1.229   8.132  12.194  0.4259  0.2250  0.1981
12078PP      PP22182  14.923  13.513  12.732 -0.0975 -0.1348 -0.0472
12079PP      PP22183  11.378  12.676   0.657  0.0686  0.0689  0.2335
12080PP      PP22184   7.955  10.366  10.893 -0.0426 -0.1284 -0.2428
12081PP      PP22185   5.663   4.182  11.690 -0.2254  0.0527 -0.0181
12082PP      PP22186  10.468   1.833   1.593 -0.4234 -0.1339  0.1137
12083PP      PP22187   9.724  11.267   2.945 -0.0292 -0.2107  0.2556
12084PP      PP22188  15.399  16.169  11.163 -0.0194 -0.1080  0.1144
12085PP      PP22189   7.609   5.813  12.135 -0.1626  0.0563  0.0778
12086PP      PP22190  13.111  14.286   3.250 -0.4237  0.2446  0.2442
12087PP      PP22191   0.507   2.027   0.267  0.1418  0.0099  0.2984
12088PP      PP22192   3.257  10.131   9.953  0.0068  0.0441  0.0514
12089PP      PP22193  11.701   8.317   3.395  0.0640  0.2120  0.2092
12090PP      PP22194   7.172  10.634  11.292 -0.0692 -0.0874 -0.0300
12091PP      PP22195   7.637   8.731   3.253 -0.0914 -0.1463 -0.0496
12092PP      PP22196  10.689   7.455  10.479  0.0216 -0.0564  0.0960
12093PP      PP22197  15.492   5.202  11.082 -0.3282  0.1668 -0.2155
12094PP      PP22198   5.897  10.155   2.800  0.0563 -0.0163 -0.0230
12095PP      PP22199   0.047  14.512   0.582 -0.2790 -0.2091  0.1689
12096PP      PP22200  12.043   7.056  11.091  0.4216 -0.2397 -0.0204
12097PP      PP22201  14.450   5.574   1.378 -0.0685 -0.3594  0.0504
12098PP      PP22202  13.560  14.888   0.009  0.1563  0.3170 -0.0648
12099PP      PP22203  10.438   8.234  12.614 -0.0683 -0.3487  0.5515
12100PP      PP22204   9.417   0.563  10.556  0.0979 -0.1818 -0.0893
12101PP      PP22205   3.630  11.743   0.590 -0.1464 -0.3787  0.0751
12102PP      PP22206  10.612   5.555   9.873  0.0402  0.0746 -0.1552
12103PP      PP22207   0.182  14.718  10.527  0.1172  0.0268  0.0207
12104PP      PP22208   2.022   5.622  11.893  0.1010  0.0089  0.3552
12105PP      PP22209  15.643  13.452   0.601 -0.0877  0.1443  0.0344
12106PP      PP22210   7.966   7.927   3.098  0.0085  0.1056  0.0089
12107PP      PP22211  10.536   4.241  11.840  0.2237 -0.2442  0.1283
12108PP      PP22212  14.307   5.175   1.708 -0.0179 -0.1896  0.1384
12109PP      PP22213   5.891   6.682  11.397 -0.0461  0.1330 -0.1010
12110PP      PP22214   0.521  12.902   2.272 -0.0623  0.2481  0.0260
12111PP      PP22215   4.493   9.779   2.817 -0.1450 -0.2085  0.1293
12112PP      PP22216   6.391   7.608   2.439  0.2411 -0.1759 -0.1395
12113PP      PP22217   3.991   9.650   9.363  0.1052 -0.1519 -0.1897
12114PP      PP22218   3.509   6.548  12.075  0.1037 -0.0582  0.0612
12115PP      PP22219   4.119   3.504   1.474 -0.4174 -0.3007 -0.0193
12116PP      PP22220  11.676  11.218   3.699 -0.0409  0.0325 -0.0709
12117PP      PP22221   2.425   0.516   0.649  0.1961  0.1984  0.2686
12118PP      PP22222  10.336   9.021   2.689 -0.0755 -0.0047  0.2205
12119PP      PP22223   6.771   0.620   0.732  0.0504 -0.4067 -0.2748
12120PP      PP22224   1.028  11.628  11.754  0.2808  0.1581 -0.1363
12121PP      PP22225   7.181   0.951   8.688  0.1003 -0.2718 -0.2844
12122PP      PP22226  15.344   0.473   8.244 -0.1855  0.0121 -0.1313
12123PP      PP22227   1.549  14.790   8.852 -0.2611 -0.0026 -0.1699
12124PP      PP22228  14.079   4.863  12.659 -0.2165  0.0869 -0.2925
12125PP      PP22229  15.324  15.792   2.955 -0.1627  0.1375  0.2239
12126PP      PP22230   4.874   6.983   8.789 -0.0429  0.1340  0.3106
12127PP      PP22231  13.103  11.975  11.709 -0.1887  0.2117  0.4099
12128PP      PP22232   0.598  15.996   9.456  0.0019 -0.0731 -0.1281
12129PP      PP22233  14.493   6.410   2.119  0.2134 -0.0991 -0.2444
12130PP      PP22234  14.896   5.810   1.564 -0.0232 -0.0909  0.0143
12131PP      PP22235   9.853   4.687   8.359 -0.1515 -0.1554  0.0163
12132PP      PP22236   1.054   8.587   3.724 -0.0580  0.0963 -0.2583
12133PP      PP22237   8.925  11.866   0.612  0.0755 -0.1562 -0.0646
12134PP      PP22238  12.525   8.787  11.626  0.0785 -0.1496  0.0258
12135PP      PP22239   9.112  13.574   4.386  0.1718  0.2150  0.3333
12136PP      PP22240  16.247   3.638   9.651  0.0697 -0.2858  0.3021
12137PP      PP22241  13.080   5.893  12.675  0.2815  0.0741 -0.2579
12138PP      PP22242   5.725   4.010   3.743 -0.1540  0.3170  0.1704
12139PP      PP22243   3.667   5.846  11.553  0.1763  0.2525  0.1408
12140PP      PP22244  10.521  15.258   2.650  0.0851 -0.0073  0.2243
12141PP      PP22245  12.039  11.035   9.005 -0.0395  0.1870 -0.0413
12142PP      PP22246  11.271  10.179  12.543  0.3289  0.2900  0.0705
12143PP      PP22247   8.729  10.788   4.324 -0.1018 -0.1571 -0.0510
12144PP      PP22248   7.272   5.296   8.332  0.0925  0.1634 -0.0003
12145PP      PP22249   3.513   8.364  10.913  0.1683 -0.3096  0.0245
12146PP      PP22250   0.735   3.412   8.455  0.1986 -0.0050  0.1488
12147PP      PP22251   3.915   1.879   3.160  0.0036  0.1502  0.1458
12148PP      PP22252   1.670   4.122   0.638  0.3521  0.0812  0.2466
12149PP      PP22253   4.327  11.848   8.307 -0.1321 -0.0284  0.2273
12150PP      PP22254   9.451   1.103   3.152 -0.0833  0.1283 -0.2358
12151PP      PP22255   0.005   8.659   9.957 -0.0535 -0.2421  0.0215
12152PP      PP22256   1.713   4.711  10.601  0.4945 -0.1531  0.0099
12153PP      PP22257  15.290  12.254  11.100 -0.0711  0.0887  0.0639
12154PP      PP22258   6.147   1.175   2.587  0.4239 -0.0957  0.0549
12155PP      PP22259  13.352   5.378   2.076  0.2993  0.1275 -0.3791
12156PP      PP22260  11.462  14.266   1.578  0.2198 -0.0005  0.1333
12157PP      PP22261   3.626   9.348   1.298  0.0255 -0.5090 -0.0366
12158PP      PP22262  14.843   3.608  11.718 -0.2714  0.1482  0.2010
12159PP      PP22263  10.788  16.111  11.546  0.0676 -0.1227 -0.3992
12160PP      PP22264   6.453   2.968   9.718  0.2349 -0.1409 -0.0544
12161PP      PP22265   8.320   7.601   0.680  0.0613  0.0469 -0.0331
12162PP      PP22266  16.324   3.113   0.650  0.1797 -0.0957 -0.2188
12163PP      PP22267  12.830   2.115   7.867 -0.1108  0.1593 -0.1327
12164PP      PP22268   7.933  10.734   2.380  0.0828  0.0890 -0.0488
12165PP      PP22269   2.956  10.921   9.045 -0.1101 -0.0349  0.1562
12166PP      PP22270   7.554  12.405   8.787  0.1394 -0.3385 -0.0401
12167PP      PP22271   0.717  14.437   3.703 -0.1653 -0.0217  0.0454
12168PP      PP22272  14.118   4.361   8.986 -0.0799  0.0206  0.0036
12169PP      PP22273   4.823  11.519   1.849  0.0496  0.0490 -0.0104
12170PP      PP22274   8.859   1.080  11.731  0.0643 -0.1783  0.0603
12171PP      PP22275   2.236   9.206   3.194  0.2398  0.0466  0.0486
12172PP      PP22276  10.419   1.772   9.532  0.1662  0.1023  0.1920
12173PP      PP22277   3.803   7.685   0.737 -0.1387 -0.2529  0.1266
12174PP      PP22278   4.087   8.985  11.242  0.5442 -0.2048 -0.3339
12175PP      PP22279  11.121  10.410   9.277  0.0254  0.3424  0.1610
12176PP      PP22280  13.627   8.972   9.754 -0.1077 -0.1947  0.1861
12177PP      PP22281   0.602  12.560  12.394 -0.0903 -0.0692 -0.1677
12178PP      PP22282   5.558   4.517  12.261 -0.1839  0.0308  0.2108
12179PP      PP22283   7.788  11.409   9.633  0.1565 -0.3178 -0.1156
12180PP      PP22284   9.931  12.504   1.462  0.0001  0.0425 -0.2311
12181PP      PP22285   3.533   5.760   1.876 -0.0052 -0.0101 -0.1578
12182PP      PP22286  13.309   0.818  10.092  0.0246 -0.0445 -0.0837
12183PP      PP22287   3.479  11.007   2.040  0.2090  0.3967 -0.0604
12184PP      PP22288  11.378   8.184   3.816 -0.0287  0.2039 -0.0116
12185PP      PP22289   8.619  15.031  11.346  0.2243  0.0425 -0.1564
12186PP      PP22290  12.435  11.365   8.952  0.1032  0.0269 -0.0911
12187PP      PP22291   8.752  14.113   2.900  0.0605 -0.2826 -0.1741
12188PP      PP22292   3.585  12.731   2.631  0.1376 -0.0488  0.0070
12189PP      PP22293   3.472   2.625   1.422 -0.0948 -0.2102 -0.1888
12190PP      PP22294  10.035   2.596   0.290  0.1803 -0.0858 -0.0400
12191PP      PP22295   2.747  12.344   9.033 -0.0280  0.2020 -0.0850
12192PP      PP22296  15.019  15.505  10.641 -0.2213 -0.1418  0.0704
12193PP      PP22297   5.978   4.288  10.063  0.1251 -0.2530  0.3226
12194PP      PP22298  12.140   8.878   2.460  0.5668 -0.0353 -0.4096
12195PP      PP22299  10.154  13.547  11.426  0.0507  0.0878  0.0288
12196PP      PP22300   9.348  10.467   3.010 -0.0404  0.1076 -0.3726
12197PP      PP22301  11.918   6.683  12.478 -0.1166 -0.0257 -0.0435
12198PP      PP22302   2.793   7.630   8.438  0.0340  0.1480  0.0967
12199PP      PP22303  11.901   7.439  12.430 -0.0881  0.1904 -0.0455
12200PP      PP22304   4.884  10.778   8.022 -0.0185 -0.2064  0.0450
12201PP      PP22305  12.185   4.288   3.166  0.0199 -0.1034  0.1014
12202PP      PP22306  13.279   5.620   3.671 -0.0607 -0.1698 -0.1443
12203PP      PP22307  11.723   9.039   0.047 -0.2348  0.1154  0.0368
12204PP      PP22308   4.469  13.926   1.227  0.0491 -0.2947 -0.2462
12205PP      PP22309  11.285  15.542   9.613  0.2498 -0.5075 -0.1580
12206PP      PP22310   9.440   5.999   4.148 -0.3404 -0.0231  0.1058
12207PP      PP22311   2.781   1.226   2.065  0.0777 -0.1594 -0.0010
12208PP      PP22312   3.160   1.103   4.365  0.0339  0.3043  0.0401
12209PP      PP22313  12.888  14.636   0.825 -0.0740  0.0299  0.1220
12210PP      PP22314  12.047  14.574   0.014 -0.0761 -0.0420 -0.0602
12211PP      PP22315   2.590   1.251   3.621  0.0824 -0.0282  0.1865
12212PP      PP22316   8.891   1.253   0.732  0.0421 -0.0041 -0.3106
12213PP      PP22317   4.417  14.792   1.924 -0.1201  0.3062 -0.0243
12214PP      PP22318   8.840   2.147   2.573 -0.0746  0.2273  0.1028
12215PP      PP22319   4.810  11.341   2.303  0.0371 -0.0590  0.4135
12216PP      PP22320   4.231   0.762   0.926  0.3575  0.0214 -0.1443
12217PP      PP22321  16.130   3.670   0.868  0.2049  0.0522  0.0562
12218PP      PP22322   0.131   8.595   3.540 -0.1472 -0.1619 -0.1823
12219PP      PP22323   4.423   8.459   2.774  0.2081  0.3538 -0.0852
12220PP      PP22324   6.272   5.511   3.136  0.0950 -0.0300 -0.1244
12221PP      PP22325  11.289   3.770   0.539  0.1367  0.1462 -0.0737
12222PP      PP22326  15.587   3.517   2.592  0.1208 -0.1443 -0.0891
12223PP      PP22327   5.236  10.801   8.547  0.0023  0.1989  0.0842
12224PP      PP22328  11.395   4.124  11.499  0.1586  0.1054  0.2837
12225PP      PP22329   1.190  11.106  11.441 -0.0041 -0.2464 -0.1208
12226PP      PP22330   0.330  13.597  10.076  0.1464 -0.1607  0.1262
12227PP      PP22331   9.574   2.841  12.337  0.0250  0.0424  0.1432
12228PP      PP22332  15.917   3.201   1.001  0.0037  0.0302 -0.2073
12229PP      PP22333   7.140  15.338   4.892  0.2286  0.0521  0.1107
12230PP      PP22334   8.670   1.859   3.487  0.0271 -0.1834 -0.2404
12231PP      PP22335  11.728   6.880   1.609 -0.0188 -0.3020 -0.0544
12232PP      PP22336   9.288  15.621   3.372  0.0193  0.0824  0.0497
12233PP      PP22337  11.389  13.454   9.889 -0.1283  0.0042  0.1761
12234PP      PP22338   4.599  10.171   0.966 -0.1981  0.0448  0.0155
12235PP      PP22339   8.660  14.208   4.434  0.1764 -0.0826  0.2073
12236PP      PP22340  13.837   0.821   0.472  0.1535  0.1025 -0.0622
12237PP      PP22341  10.088   7.825   0.042 -0.2145 -0.2252 -0.1744
12238PP      PP22342   8.126   6.156   1.578  0.1671 -0.2193  0.1761
12239PP      PP22343   5.359   2.560   0.593 -0.1391  0.0193  0.1537
12240PP      PP22344   9.077   9.615   9.480 -0.0408  0.1390 -0.3567
12241PP      PP22345   2.599  14.039  12.189 -0.1119 -0.1639  0.0473
12242PP      PP22346  14.299  15.815   2.806 -0.2059  0.0136 -0.1139
12243PP      PP22347  13.103  15.822   8.712  0.0398  0.1150  0.1175
12244PP      PP22348  14.439   5.115   8.223  0.3339  0.1791 -0.1320
12245PP      PP22349  13.908  15.720   9.351 -0.1129 -0.2162  0.0841
12246PP      PP22350   2.010   3.817  11.235  0.0757 -0.4667  0.1678
12247PP      PP22351   6.295  12.515   2.232  0.2491  0.3733  0.1828
12248PP      PP22352  10.370   0.221  10.749  0.1284 -0.0805  0.4821
12249PP      PP22353   6.315   7.531   8.825  0.2715 -0.0406 -0.1484
12250PP      PP22354  11.703   8.763  11.861  0.0125 -0.0898 -0.1604
12251PP      PP22355   6.821  11.732  11.682  0.0029 -0.1493  0.1038
12252PP      PP22356  14.098  10.496   1.749 -0.2226 -0.0494 -0.0991
12253PP      PP22357  16.161   0.381   4.065 -0.0813  0.0509 -0.1527
12254PP      PP22358   1.987   1.144   1.501  0.1113 -0.1613 -0.3387
12255PP      PP22359   4.098  14.805   9.699 -0.2207  0.0779 -0.4353
12256PP      PP22360   6.183  10.827   1.573 -0.1067 -0.0700 -0.0199
12257PP      PP22361  12.565   2.105   9.702 -0.4677 -0.1142  0.3244
12258PP      PP22362   1.139   8.903  10.146 -0.4727  0.2412  0.2752
12259PP      PP22363  11.677   7.545   2.036 -0.0822 -0.0235 -0.1128
12260PP      PP22364   6.668  12.981   1.648  0.0937  0.0861 -0.0569
12261PP      PP22365   0.443   0.702   1.447 -0.0431  0.1321 -0.2465
12262PP      PP22366  14.596  15.379   2.494  0.1995  0.1192 -0.0439
12263PP      PP22367  12.946  11.665   1.902 -0.3569  0.4192 -0.0312
12264PP      PP22368  15.168  13.478   0.894  0.0709 -0.0793  0.0208
12265PP      PP22369   7.728  11.884   2.594 -0.0036 -0.1580  0.0469
12266PP      PP22370   0.047  10.421   3.934 -0.3266  0.0341 -0.2695
12267PP      PP22371  14.902  12.179  12.539 -0.3022  0.1520 -0.3092
12268PP      PP22372  14.565  16.013   0.376 -0.0135 -0.0243 -0.0382
12269PP      PP22373   6.588   5.369  11.443 -0.1425 -0.0677  0.0110
12270PP      PP22374   5.521   2.407   8.568  0.0001 -0.0660  0.2502
12271PP      PP22375   5.485   2.547  11.841  0.2685 -0.4368  0.3943
12272PP      PP22376   0.142   5.480   9.706 -0.0704 -0.0846 -0.1480
12273PP      PP22377  15.738   5.445   2.783 -0.3218  0.1480  0.1502
12274PP      PP22378   3.966   5.545   2.784 -0.1027 -0.0058  0.0741
12275PP      PP22379   6.302   4.733   0.867 -0.4933  0.3439  0.3442
12276PP      PP22380   8.829   1.801   1.723  0.1786 -0.1793 -0.0956
12277PP      PP22381  11.567  12.562  11.296 -0.2599  0.1774 -0.0511
12278PP      PP22382  11.543   6.190   1.559  0.1193  0.3709 -0.2782
12279PP      PP22383   3.405   4.886   9.412  0.1250  0.0118  0.0112
12280PP      PP22384  15.542   6.411   7.700 -0.0463 -0.3081  0.0758
12281PP      PP22385   8.685   5.327  10.754  0.0792 -0.0930 -0.0965
12282PP      PP22386  15.517   1.044  12.460  0.1110  0.3505  0.1481
12283PP      PP22387  11.341   9.771  10.774 -0.0985 -0.1331  0.0695
12284PP      PP22388   8.839   5.806   0.315 -0.0460 -0.2790 -0.1714
12285PP      PP22389  16.120   1.133  12.102  0.1768 -0.0402 -0.2183
12286PP      PP22390  11.979  10.248  11.128 -0.0125 -0.0143  0.0227
12287PP      PP22391   8.302   1.150   1.626 -0.0041  0.3551 -0.3774
12288PP      PP22392   2.439   4.554   1.691  0.3082  0.0605 -0.4565
12289PP      PP22393  10.356   4.005   0.575  0.0081 -0.2237  0.0125
12290PP      PP22394  15.884   0.818   9.456  0.0745  0.3790 -0.3427
12291PP      PP22395  12.289  15.813   2.823 -0.1607  0.1766 -0.1923
12292PP      PP22396   2.030  14.615   8.812  0.2238  0.1713  0.0656
12293PP      PP22397   9.948   0.487   1.454 -0.2002  0.1885  0.0491
12294PP      PP22398   6.340  11.928  11.483  0.0835  0.0607  0.2512
12295PP      PP22399   2.925   9.536   9.694  0.1176  0.0110 -0.1447
12296PP      PP22400   7.467   7.978   1.784  0.0502  0.1319  0.0169
12297PP      PP22401  11.241   0.694  11.843  0.1399  0.1596 -0.0892
12298PP      PP22402  16.084   3.328   9.988 -0.0206 -0.4481  0.3150
12299PP      PP22403   7.030   4.087   8.767  0.0985 -0.1868  0.0863
12300PP      PP22404   7.819   7.384   2.432 -0.0690 -0.1228  0.1059
12301PP      PP22405  15.290   1.913   2.625  0.1555  0.3208  0.0293
12302PP      PP22406   0.926   7.966   0.509 -0.1449 -0.2288 -0.3409
12303PP      PP22407   8.961   3.959  10.780  0.2687 -0.0902  0.1792
12304PP      PP22408  12.513  12.335   9.235 -0.0665  0.0706 -0.0288
12305PP      PP22409   2.154  13.268  10.311 -0.6550  0.0609 -0.2901
12306PP      PP22410   8.279   6.464   1.185  0.2035 -0.0598  0.1061
12307PP      PP22411  16.007  11.185   9.265 -0.0863 -0.0373 -0.1071
12308PP      PP22412  10.115   2.681   9.373 -0.0662  0.0104  0.0436
12309PP      PP22413  16.187  11.074   0.227  0.2159 -0.1954 -0.1339
12310PP      PP22414   7.197   2.514  11.697  0.0194 -0.1622 -0.0453
12311PP      PP22415  12.652   0.584  12.256 -0.4085 -0.0835 -0.0209
12312PP      PP22416  14.229  12.019   1.744 -0.0016  0.1224  0.2394
12313PP      PP22417   8.035  16.194  11.312 -0.0240 -0.2066  0.2896
12314PP      PP22418  11.605   5.043  11.200 -0.2087 -0.0080 -0.0767
12315PP      PP22419  10.380  15.547  12.370 -0.0830 -0.1575  0.0223
12316PP      PP22420  16.124  10.620  10.264 -0.1716 -0.0491  0.0930
12317PP      PP22421  10.488  12.476  10.369  0.2761 -0.0665 -0.1499
12318PP      PP22422   5.245  11.173   8.104  0.1330  0.1149  0.0119
12319PP      PP22423   6.426   1.009   9.043  0.0020  0.1380 -0.3733
12320PP      PP22424   3.862  14.461  12.451  0.1078  0.0633 -0.3242
12321PP      PP22425   7.574  10.334   2.466  0.0901  0.0597  0.2506
12322PP      PP22426  11.436  10.654  11.619  0.1270 -0.3181 -0.0590
12323PP      PP22427   0.854  10.370   2.144 -0.0014 -0.1335 -0.0138
12324PP      PP22428   8.814   2.232   1.060 -0.1167  0.0159 -0.1044
12325PP      PP22429  11.513  10.227   9.714  0.1266 -0.2408 -0.0247
12326PP      PP22430   1.943   2.328   1.657  0.2448  0.0456 -0.2036
12327PP      PP22431   0.873  10.273   1.161 -0.2151  0.0442 -0.1636
12328PP      PP22432  10.469   3.579   9.419  0.0208  0.5802  0.0890
12329PP      PP22433   6.794   2.132   2.792 -0.1384  0.0966 -0.0455
12330PP      PP22434   0.630   1.195  11.675 -0.2617 -0.0170 -0.2474
12331PP      PP22435   3.708  14.727  11.557 -0.0973  0.1678  0.1460
12332PP      PP22436  15.665   2.531   3.583 -0.0742  0.0897 -0.0051
12333PP      PP22437   7.861  12.192  11.281  0.0448  0.2569  0.2436
12334PP      PP22438   0.923   0.604  10.957 -0.2345  0.4925 -0.1765
12335PP      PP22439  11.832  12.844   0.438  0.0973  0.1002  0.3684
12336PP      PP22440   7.893  13.099  10.331  0.0479 -0.0563  0.0436
12337PP      PP22441   7.803   7.673   9.487 -0.1574 -0.0266  0.3017
12338PP      PP22442   0.363  11.105   3.221  0.0736  0.1169 -0.1485
12339PP      PP22443   2.479   4.193   8.897  0.0285 -0.3097  0.2650
12340PP      PP22444   7.162  14.783   0.775 -0.1610 -0.1208  0.0511
12341PP      PP22445   0.469  10.000   8.223 -0.0160 -0.1775 -0.0529
12342PP      PP22446   8.860   0.625   4.135  0.2221 -0.1403 -0.1717
12343PP      PP22447   7.136   2.359   1.233 -0.0803  0.0041 -0.1543
12344PP      PP22448   9.917   1.917   9.988  0.1675 -0.0703 -0.0183
12345PP      PP22449  13.090  12.722   3.108  0.2966 -0.0653 -0.1997
12346PP      PP22450   5.369   2.170   9.332 -0.3375  0.0825  0.2343
12347PP      PP22451  12.159   4.535   1.672 -0.0584 -0.0051 -0.3191
12348PP      PP22452   9.631   9.662  10.407  0.1331  0.1926 -0.1447
12349PP      PP22453   6.725   1.902  11.676 -0.0646  0.0659  0.1213
12350PP      PP22454   7.360   9.026   9.369  0.1513  0.2219  0.0996
12351PP      PP22455   6.386  15.467   1.706 -0.4267  0.1756  0.1157
12352PP      PP22456  15.157   5.976   0.686 -0.0326  0.2315  0.0352
12353PP      PP22457   5.263  11.673   2.137  0.0969 -0.0047 -0.2238
12354PP      PP22458   3.560   0.986  11.641  0.1849 -0.3546 -0.1020
12355PP      PP22459  11.522   8.290   2.838  0.0427 -0.0253  0.2453
12356PP      PP22460   1.742   6.669   0.295 -0.3672  0.1808 -0.0996
12357PP      PP22461  15.312   2.550  10.489  0.2572  0.0310  0.0774
12358PP      PP22462   9.239   4.399   2.443 -0.2314 -0.1841  0.3228
12359PP      PP22463   5.855   7.117   0.684 -0.3594 -0.0254  0.0249
12360PP      PP22464  13.511  13.763   4.349  0.1069  0.0601 -0.1016
12361PP      PP22465   4.294  11.052   3.105  0.3332 -0.3340 -0.5479
12362PP      PP22466   8.150  12.527   1.673  0.0487  0.1017  0.1410
12363PP      PP22467   1.777  12.865   9.581 -0.0441  0.0063 -0.2545
12364PP      PP22468   0.882  11.056  11.070  0.1399 -0.2050 -0.0545
12365PP      PP22469   3.052   7.750   2.401  0.4775 -0.1073  0.0681
12366PP      PP22470   1.454   9.189   2.809  0.0228 -0.0261  0.2060
12367PP      PP22471  13.714   1.124   2.319  0.2607  0.1118 -0.0100
12368PP      PP22472  11.788  10.121   0.016 -0.1471 -0.2491 -0.0094
12369PP      PP22473  13.819   5.915  11.288 -0.0065  0.1557 -0.2277
12370PP      PP22474  15.727  11.438   1.928  0.0338 -0.1033  0.2313
12371PP      PP22475   0.319   6.657  11.835  0.1398 -0.0781 -0.4055
12372PP      PP22476   8.911   0.540   9.760  0.0923 -0.2314 -0.0967
12373PP      PP22477  13.337   6.919   2.427 -0.3020  0.1944  0.1092
12374PP      PP22478  15.223   7.874  10.457 -0.3459 -0.1859  0.1746
12375PP      PP22479  15.078  14.597  12.479 -0.0900  0.2481 -0.2836
12376PP      PP22480   5.343   8.599   8.086 -0.0566 -0.1254 -0.0161
12377PP      PP22481   2.726   0.330   2.670  0.2551  0.3550 -0.1305
12378PP      PP22482   8.946   7.493   1.440  0.0527  0.0056 -0.2406
12379PP      PP22483   9.240   0.171  12.340 -0.0731 -0.4086  0.0118
12380PP      PP22484  12.714   3.350   9.589 -0.1016 -0.2221  0.1271
12381PP      PP22485   1.674  11.189   8.278  0.3292 -0.1166  0.0654
12382PP      PP22486  15.737  14.391   3.774  0.2196  0.3449 -0.0256
12383PP      PP22487   6.689  13.270   3.455  0.2642 -0.1718  0.0384
12384PP      PP22488   8.804   8.926  10.165  0.0400  0.1714 -0.2524
12385PP      PP22489  10.638   8.362   9.680  0.0909  0.3652  0.3938
12386PP      PP22490   5.637   7.838   1.841  0.0024 -0.0038  0.1894
12387PP      PP22491   2.410   1.847   3.024  0.1554  0.1049 -0.0863
12388PP      PP22492   5.441   2.897   2.538  0.2313 -0.4332 -0.0706
12389PP      PP22493   5.544   8.182  12.439  0.2806  0.3389  0.2125
12390PP      PP22494  14.632   3.867  11.380  0.1350  0.3027  0.2768
12391PP      PP22495  11.558  16.105   3.773 -0.2095  0.1957 -0.2566
12392PP      PP22496   3.790  10.388  10.004 -0.0624 -0.0310  0.0081
12393PP      PP22497   8.490   3.215   1.529  0.0373 -0.4418 -0.0696
12394PP      PP22498  13.052   6.022  11.697 -0.2252 -0.1230 -0.0769
12395PP      PP22499  13.351   0.789   1.591  0.0359  0.1004  0.1094
12396PP      PP22500  11.973   5.320   3.243  0.1373  0.0422  0.0012
12397PP      PP22501   6.842  10.460  11.984  0.0355 -0.1066 -0.0063
12398PP      PP22502  15.031   5.220   8.811  0.1687  0.0987  0.1356
12399PP      PP22503   4.688  16.030  10.767 -0.0731 -0.2983  0.0403
12400PP      PP22504   9.885   6.519  10.951 -0.1092  0.2220 -0.2277
12401PP      PP22505  15.768   7.911   9.427 -0.4975  0.1307 -0.1876
12402PP      PP22506  12.411   6.626   2.793 -0.4385 -0.0171  0.0507
12403PP      PP22507   3.909   9.584   0.967  0.1022 -0.0359  0.1044
12404PP      PP22508   0.578   4.288   1.215  0.1958 -0.1057 -0.0416
12405PP      PP22509   3.325  14.028  11.986 -0.4759 -0.1240 -0.1043
12406PP      PP22510  14.551   8.093   9.993 -0.1212 -0.3258 -0.0212
12407PP      PP22511  10.360  10.387   9.597 -0.2870 -0.0942 -0.1210
12408PP      PP22512   0.656   8.139   2.806 -0.0965  0.1634  0.2006
12409PP      PP22513   9.638   7.400   8.060 -0.0338 -0.2305  0.0333
12410PP      PP22514   9.712  10.727   1.570  0.0111 -0.2061  0.3578
12411PP      PP22515   9.702   8.360   0.069 -0.3173  0.0814  0.0748
12412PP      PP22516   7.725   5.928   1.399 -0.1510 -0.1656  0.1456
12413PP      PP22517   2.010   9.238   0.145  0.2861 -0.0029 -0.1731
12414PP      PP22518   8.373   4.212   9.853  0.1457 -0.1732 -0.0528
12415PP      PP22519  14.843   9.827   0.074  0.0815  0.0752  0.0272
12416PP      PP22520   8.464   4.421  12.130  0.1948  0.0198  0.0144
12417PP      PP22521   7.621   4.568   1.773  0.1507 -0.0102  0.0618
12418PP      PP22522   6.393   3.113   3.079  0.1572 -0.3328 -0.0137
12419PP      PP22523  14.550  14.613   1.575  0.1054 -0.2482  0.1545
12420PP      PP22524   7.209   0.339   0.552 -0.1660 -0.1535  0.4575
12421PP      PP22525   8.731   6.280   2.008 -0.1364  0.0773  0.0343
12422PP      PP22526   2.981   3.114   0.368  0.2700  0.3264  0.1940
12423PP      PP22527   6.801   1.117   0.688 -0.1464 -0.1949 -0.4023
12424PP      PP22528   6.355   4.962  11.779  0.0055  0.0406  0.0065
12425PP      PP22529   7.519   7.327   1.032 -0.3013 -0.1635 -0.2975
12426PP      PP22530   6.853  10.240   3.863 -0.1409 -0.2497 -0.0155
12427PP      PP22531  12.666   3.910   2.508  0.1044 -0.1402 -0.1565
12428PP      PP22532   9.117   3.312   4.565 -0.2471 -0.2471  0.0853
12429PP      PP22533   6.800   3.850  11.367  0.2101  0.2429  0.1223
12430PP      PP22534   3.085   7.155   8.494  0.0638  0.1900  0.2516
12431PP      PP22535  10.912   3.129  11.223 -0.2970 -0.1355 -0.0796
12432PP      PP22536  13.030  13.641   2.046 -0.0594  0.1836  0.1144
12433PP      PP22537  10.733   8.899  10.266 -0.0894 -0.2303  0.1497
12434PP      PP22538   2.284  10.093   0.627  0.0620 -0.0916  0.0164
12435PP      PP22539  15.059  15.221   3.818 -0.0823  0.1998  0.0054
12436PP      PP22540   2.087   4.980   8.829  0.3680 -0.1214 -0.0099
12437PP      PP22541   0.132  15.245  11.590  0.0289  0.2218  0.1533
12438PP      PP22542  12.662   6.317   2.300  0.0620 -0.2794  0.1984
12439PP      PP22543   0.798  14.606   4.679  0.3579 -0.1243 -0.1181
12440PP      PP22544   9.944  11.333   9.263 -0.1444  0.1103  0.1369
12441PP      PP22545   7.945  11.217  11.442  0.0786 -0.0768  0.0098
12442PP      PP22546   9.406   5.792   1.248 -0.1416  0.0493 -0.1252
12443PP      PP22547   7.585   4.885  10.668  0.1078  0.1918  0.1448
12444PP      PP22548   3.418   5.224  12.544  0.1244  0.0450 -0.2581
12445PP      PP22549   9.844  11.660   1.940 -0.0209 -0.1239 -0.1563
12446PP      PP22550   9.681   4.152   8.198 -0.3152 -0.0088 -0.0447
12447PP      PP22551   2.299   9.511   3.659 -0.1651  0.0376 -0.2880
12448PP      PP22552   4.054   8.897   2.571  0.2454  0.0744  0.3382
12449PP      PP22553  15.975   6.670   2.662  0.2096  0.1980  0.1874
12450PP      PP22554  15.759   6.578   1.126 -0.0069 -0.1698  0.0001
12451PP      PP22555   4.144   5.016   1.745  0.0929 -0.0857 -0.0990
12452PP      PP22556   1.572  13.605   2.630 -0.1305 -0.0049 -0.0982
12453PP      PP22557   3.982   3.866   3.325  0.3127 -0.0591 -0.0765
12454PP      PP22558   8.320  13.944   2.387 -0.1892 -0.1700 -0.0421
12455PP      PP22559   8.361   9.294   0.898  0.0389  0.3332  0.1571
12456PP      PP22560   9.099  15.333   1.204 -0.1046 -0.4204 -0.1126
12457PP      PP22561   3.165  10.828  12.663  0.1099 -0.1810  0.1482
12458PP      PP22562   0.410  14.960   4.777  0.2278  0.0847  0.0129
12459PP      PP22563   0.934   7.823   9.929  0.1987  0.0536 -0.1928
12460PP      PP22564  13.953   7.157   7.985  0.3078  0.2241 -0.4784
12461PP      PP22565  12.228   0.055   2.089 -0.0228 -0.0097  0.0261
12462PP      PP22566   3.121   2.901   3.338 -0.2131 -0.0634 -0.0051
12463PP      PP22567  13.551   8.594   2.946  0.0942 -0.2067 -0.1181
12464PP      PP22568   0.938   5.786   8.199 -0.1415  0.0264 -0.0403
12465PP      PP22569  10.696  16.342  12.071  0.0088  0.1014  0.2509
12466PP      PP22570   4.710   2.321   3.607  0.1019 -0.3870 -0.2901
12467PP      PP22571   0.050   9.036   3.999 -0.3322  0.4782  0.2050
12468PP      PP22572   5.850   2.716   1.752 -0.1167  0.2254 -0.1094
12469PP      PP22573   4.149  11.740   0.718 -0.4264 -0.0433 -0.2572
12470PP      PP22574  14.289   8.923   0.437  0.0494  0.2552  0.2836
12471PP      PP22575   1.243   3.625   9.049  0.2495  0.0023  0.2394
12472PP      PP22576   4.990  11.271   0.124  0.1100  0.1416 -0.0455
12473PP      PP22577   2.549   0.907   9.156  0.2655 -0.0570 -0.2360
12474PP      PP22578   5.185   0.748  10.096 -0.0214 -0.1007 -0.2028
12475PP      PP22579  16.233  14.325   4.037 -0.2062  0.0199 -0.1592
12476PP      PP22580   9.203  11.164   3.626  0.2371 -0.0599  0.1272
12477PP      PP22581  14.425   8.266   1.073  0.0408  0.2558  0.2013
12478PP      PP22582  14.686  13.985   4.049 -0.1816  0.0253  0.1385
12479PP      PP22583   4.921   6.809  11.726 -0.0013 -0.1492 -0.1502
12480PP      PP22584   1.789  14.159   0.261 -0.1229 -0.1245 -0.2590
12481PP      PP22585   8.160  10.746   4.473 -0.0558 -0.2266  0.1967
12482PP      PP22586  11.440   5.195   0.016 -0.1131 -0.1132  0.1826
12483PP      PP22587  13.935  11.535   8.601 -0.0736  0.0767  0.0736
12484PP      PP22588  10.505  15.043   1.320 -0.1389  0.3608  0.2559
12485PP      PP22589   4.975  12.014   1.860 -0.0601  0.0637  0.0690
12486PP      PP22590   3.307   6.056   9.383  0.1517 -0.1961  0.1880
12487PP      PP22591   5.608  15.573   9.939  0.4230  0.1910 -0.1691
12488PP      PP22592  12.957   8.737  11.842 -0.2362  0.0856  0.1001
12489PP      PP22593  10.925   4.133  10.884  0.0851  0.0410  0.0728
12490PP      PP22594   4.984   1.238  11.017 -0.1695  0.0718  0.3075
12491PP      PP22595   5.493  12.136   0.768 -0.1571  0.1413  0.0950
12492PP      PP22596   3.386   7.360   8.118  0.1757 -0.3706  0.3189
12493PP      PP22597   6.814   5.194   3.797 -0.1638  0.0075  0.0895
12494PP      PP22598  12.141   0.517  12.168 -0.0730  0.3414  0.2602
12495PP      PP22599   6.630   5.138   1.509  0.2768 -0.1375 -0.1503
12496PP      PP22600   1.815   5.745   0.515 -0.1629  0.2045 -0.1247
12497PP      PP22601   0.674   5.242  10.053 -0.0064 -0.0134 -0.0893
12498PP      PP22602   2.988   5.152   9.747  0.0236  0.0726 -0.0816
12499PP      PP22603   8.696   6.147   1.020  0.0109 -0.1423 -0.1675
12500PP      PP22604  14.730  11.849   8.935 -0.1393  0.0902  0.1457
12501PP      PP22605   9.811  10.815  12.408 -0.3561  0.1917  0.1666
12502PP      PP22606   1.295   0.305   9.668  0.1487  0.0491  0.0031
12503PP      PP22607  12.787  13.823  12.072  0.0542 -0.2531  0.1482
12504PP      PP22608  12.918  13.142   9.249  0.0809 -0.1970  0.0858
12505PP      PP22609   6.742  12.774   1.179 -0.1330 -0.2906  0.0192
12506PP      PP22610   1.824   6.821   8.516  0.0897 -0.0799  0.0394
12507PP      PP22611   0.796   5.821   0.671  0.1040  0.0916  0.2378
12508PP      PP22612   4.715   4.046   8.669  0.0094  0.0388  0.1976
12509PP      PP22613   1.275   9.230   0.046  0.0760  0.0465 -0.0845
12510PP      PP22614   7.116  15.634  12.482  0.3107  0.1604  0.0690
12511PP      PP22615   8.469   6.062  11.154 -0.2222  0.0230  0.0931
12512PP      PP22616  11.544   0.547   2.604 -0.1854  0.1389 -0.0081
12513PP      PP22617   0.378   3.468   3.415 -0.2568  0.1642  0.0898
12514PP      PP22618  11.102  16.275   1.018 -0.1534  0.1015  0.0539
12515PP      PP22619   2.894  12.921   1.152 -0.0443  0.0528 -0.0747
12516PP      PP22620   3.322   4.071   1.617 -0.1251 -0.0625 -0.3144
12517PP      PP22621   8.913  15.885   0.653 -0.0131 -0.0042  0.1227
12518PP      PP22622   0.012   5.690  11.416 -0.0665 -0.2481 -0.1561
12519PP      PP22623   7.772   5.518   9.730  0.2516 -0.0884  0.0730
12520PP      PP22624  10.418  15.252   2.071 -0.2820  0.1988 -0.0309
12521PP      PP22625   2.441   7.124   9.239 -0.2100 -0.2615  0.2327
12522PP      PP22626  12.476   5.916  10.597 -0.1973  0.3984  0.0555
12523PP      PP22627  15.732  14.450   9.584 -0.2488 -0.2924  0.1401
12524PP      PP22628  11.937   8.614   0.115  0.0469 -0.1675 -0.1895
12525PP      PP22629  15.707  11.708   0.034 -0.2612  0.2248  0.2365
12526PP      PP22630  10.300   2.737   3.586  0.1115 -0.0094  0.1090
12527PP      PP22631  10.208  10.865   1.441 -0.0040  0.0554 -0.2714
12528PP      PP22632   8.229  14.468   9.291 -0.0586  0.0290  0.3339
12529PP      PP22633   5.827  15.491   3.187  0.0793 -0.2024 -0.0056
12530PP      PP22634   9.562  11.647   8.885 -0.0599  0.4260 -0.2361
12531PP      PP22635  14.672   3.952   1.994  0.4927 -0.4285  0.0625
12532PP      PP22636  13.924   4.941  11.251 -0.0662  0.0321 -0.0041
12533PP      PP22637   7.150  14.674   1.510  0.1606  0.0483 -0.3250
12534PP      PP22638   0.229  10.377  11.549 -0.4448  0.0553  0.0041
12535PP      PP22639   3.735  14.283   9.527 -0.1059  0.4264 -0.1231
12536PP      PP22640   0.119   9.076   3.300 -0.0088  0.2130  0.1449
12537PP      PP22641  14.188   4.900   3.601 -0.0378 -0.0866  0.0172
12538PP      PP22642  14.470  14.168  11.341 -0.0909  0.3244 -0.0343
12539PP      PP22643   5.130  16.213  12.739 -0.1397  0.1489 -0.2826
12540PP      PP22644   9.451   4.607   0.454  0.0646 -0.3014  0.1427
12541PP      PP22645   5.631   2.656   1.219  0.1324  0.1659  0.1537
12542PP      PP22646  13.205   2.640   0.110 -0.0353  0.0572 -0.0184
12543PP      PP22647   2.321   9.322  10.554 -0.0794  0.1013 -0.1534
12544PP      PP22648  14.984   8.672   7.516  0.3148 -0.1403 -0.4009
12545PP      PP22649   1.399   9.667   3.584 -0.0059 -0.0905 -0.4071
12546PP      PP22650  11.620   2.695   0.031 -0.2261  0.1123 -0.0207
12547PP      PP22651   8.170  10.551   9.004 -0.0175  0.1855 -0.4789
12548PP      PP22652   5.320   7.784   1.278  0.0544  0.1736  0.0206
12549PP      PP22653  10.056  10.854  10.651 -0.0749  0.2389 -0.0172
12550PP      PP22654   1.113   0.727  11.411 -0.3932  0.1110  0.2603
12551PP      PP22655   3.809  10.588   1.721  0.0831 -0.0353 -0.2289
12552PP      PP22656  15.755   4.438   2.183  0.1104 -0.1381 -0.0413
12553PP      PP22657  11.792   5.195   0.939  0.0587  0.0555  0.0317
12554PP      PP22658  12.521   6.847  11.853 -0.2633 -0.0983 -0.2310
12555PP      PP22659   0.873  10.321   0.406 -0.0319 -0.4279  0.0686
12556PP      PP22660   8.950   1.376  11.290 -0.2993  0.0347  0.2180
12557PP      PP22661  10.180  11.901   2.196  0.0131  0.2660 -0.3405
12558PP      PP22662   8.520  15.967   9.422 -0.4489 -0.2700 -0.4444
12559PP      PP22663   8.443   1.583   3.776  0.1585  0.1822  0.0173
12560PP      PP22664   9.955  11.512   0.406 -0.0987  0.1062  0.0145
12561PP      PP22665  15.707  14.027   1.162  0.0502  0.0530  0.0726
12562PP      PP22666   1.128  14.278   4.691  0.3798 -0.0755  0.3186
12563PP      PP22667  10.928  14.597   3.778  0.1745 -0.0637 -0.4086
12564PP      PP22668  11.315  10.423  10.104  0.1495  0.0352  0.0635
12565PP      PP22669   8.926   7.630  12.074  0.0112  0.1845  0.1757
12566PP      PP22670  13.283   6.559  11.075  0.1980 -0.0694 -0.4106
12567PP      PP22671   8.991  10.768   9.885  0.0343 -0.2839 -0.3031
12568PP      PP22672   1.883  16.124   0.266  0.1005  0.0048  0.1404
12569PP      PP22673   2.032   7.769   2.545  0.1336 -0.0805  0.3420
12570PP      PP22674   2.430  15.717   4.713  0.0678 -0.1125 -0.0964
12571PP      PP22675  15.158   8.223   2.780  0.2260 -0.2163  0.0930
12572PP      PP22676   6.085   5.043   9.105 -0.0648 -0.1780  0.0332
12573PP      PP22677   0.862  16.201  10.640 -0.1462  0.0718  0.2538
12574PP      PP22678   0.856   5.319   8.212  0.0329  0.2693  0.0117
12575PP      PP22679   1.593   2.118  11.319 -0.1252 -0.0095  0.2911
12576PP      PP22680   5.126  14.158   1.691  0.3214  0.0260  0.3174
12577PP      PP22681   3.829   3.717   2.274  0.1571  0.0187  0.0064
12578PP      PP22682   2.139   5.551   3.806 -0.1342 -0.2552  0.0613
12579PP      PP22683   5.389  11.156  11.257 -0.0456  0.1914  0.0067
12580PP      PP22684   3.281   1.639   0.134  0.1280 -0.1064 -0.1090
12581PP      PP22685   9.356   7.759   1.467  0.0607  0.0948  0.2740
12582PP      PP22686  11.149  12.354   3.725 -0.0341  0.1250  0.1429
12583PP      PP22687   1.645   4.072  12.496  0.1207  0.0912  0.3440
12584PP      PP22688  13.225   6.844   0.007  0.3119 -0.0171 -0.1473
12585PP      PP22689   9.932   9.710   8.943  0.0266  0.2704 -0.1260
12586PP      PP22690  13.623  10.674   1.498 -0.2033 -0.0891 -0.3525
12587PP      PP22691  10.556   1.218   0.103 -0.1370  0.1225 -0.2428
12588PP      PP22692   2.133   7.832   1.935 -0.0603  0.2333  0.0114
12589PP      PP22693  16.094  15.217  11.835 -0.0325 -0.0175  0.1004
12590PP      PP22694   6.628  15.166   9.709  0.0191 -0.1821  0.3010
12591PP      PP22695  10.901   9.294   3.860 -0.1090 -0.0171  0.0986
12592PP      PP22696   2.563  11.172  10.559  0.1202 -0.6483 -0.0157
12593PP      PP22697   6.688   0.213   9.324  0.0667 -0.0496 -0.0866
12594PP      PP22698  13.229   3.001   1.749  0.1779  0.2344  0.0422
12595PP      PP22699   8.221  11.259   3.762 -0.4672  0.0953 -0.1373
12596PP      PP22700  12.475   8.070   9.023  0.0944 -0.1171  0.0522
12597PP      PP22701   3.706   4.919   1.437  0.0619 -0.3008 -0.1421
12598PP      PP22702   0.631   6.289   0.468  0.0553 -0.0806  0.0014
12599PP      PP22703   4.948   0.872  12.526  0.1204 -0.1472  0.1299
12600PP      PP22704   9.098   9.022   2.923  0.0186  0.3477 -0.1662
12601PP      PP22705   7.561  13.317   0.726  0.1811 -0.1029  0.3025
12602PP      PP22706  15.897  10.970  10.524  0.3367  0.0129  0.2143
12603PP      PP22707  13.290   3.156   4.291 -0.0126 -0.1218 -0.2448
12604PP      PP22708  10.191   1.967   8.614 -0.2485  0.1426  0.0732
12605PP      PP22709   6.675  15.702   0.177  0.1642  0.0771  0.2556
12606PP      PP22710  15.665  10.120  11.705 -0.0437  0.1152  0.0448
12607PP      PP22711   7.568  11.269   3.106  0.2213 -0.2261  0.0141
12608PP      PP22712   4.361   7.181   0.035 -0.1254 -0.1548 -0.1287
12609PP      PP22713   7.566  10.794  11.579  0.1848  0.3054 -0.0689
12610PP      PP22714  12.999  14.243   1.630  0.0856  0.0270  0.1409
12611PP      PP22715   6.812  13.788   3.792 -0.0569  0.0920 -0.0240
12612PP      PP22716   6.162   4.152   8.136 -0.0532 -0.2111 -0.0088
12613PP      PP22717   1.892  13.224   3.936 -0.0436 -0.0900  0.0633
12614PP      PP22718  10.235   4.539   7.953  0.0494  0.2547  0.1043
12615PP      PP22719   0.754   0.233   9.152  0.0398 -0.0555  0.0187
12616PP      PP22720  11.853   9.900   0.568 -0.1848 -0.2136 -0.1553
12617PP      PP22721  10.407   3.109  12.370  0.0253  0.2006  0.0706
12618PP      PP22722   7.974   0.950   1.138  0.3546 -0.4015 -0.0202
12619PP      PP22723  13.292   6.124  11.275  0.2979 -0.1587 -0.0438
12620PP      PP22724   3.348   3.782   0.917 -0.4461 -0.1538  0.0438
12621PP      PP22725  11.539   5.225  12.253  0.2000 -0.0431 -0.0398
12622PP      PP22726   6.287  14.634   1.044  0.2231 -0.0057  0.2958
12623PP      PP22727  13.786   0.010   8.715 -0.1455 -0.3291 -0.0444
12624PP      PP22728  15.821   9.624  12.715 -0.0352 -0.2327 -0.1372
12625PP      PP22729   7.534   9.292   8.952 -0.1839  0.1835 -0.0338
12626PP      PP22730  12.596   9.032   2.721 -0.2618 -0.0005 -0.0476
12627PP      PP22731   7.358   8.378   1.140 -0.0887  0.0424 -0.0034
12628PP      PP22732  16.161   4.933  11.005 -0.1679 -0.2135  0.1819
12629PP      PP22733   0.229   0.861   4.037 -0.0845  0.1562  0.2287
12630PP      PP22734   6.433   8.040  12.529 -0.1966  0.0135  0.1976
12631PP      PP22735   6.874   3.230   1.653  0.2318  0.2284 -0.4629
12632PP      PP22736   6.245  12.909   9.154  0.0346  0.1310 -0.1028
12633PP      PP22737  13.084   6.202   1.442  0.0574 -0.3327  0.0909
12634PP      PP22738   8.698   2.114   3.037  0.0562  0.0821  0.0595
12635PP      PP22739   8.781   8.046   0.775  0.1275 -0.2315 -0.1765
12636PP      PP22740  14.119  10.057   1.497 -0.1117  0.1849  0.2572
12637PP      PP22741  13.591   0.624   2.385 -0.1861  0.0578 -0.1740
12638PP      PP22742  10.081  13.459   0.182 -0.2527 -0.0157  0.0400
12639PP      PP22743   2.128   9.323  12.389  0.1944 -0.0670 -0.2172
12640PP      PP22744   3.996   8.571   9.654  0.0143  0.3035 -0.2431
12641PP      PP22745  14.519  15.030   1.291 -0.2025 -0.0974  0.5246
12642PP      PP22746  10.829   0.991   1.485  0.1062 -0.1977  0.1950
12643PP      PP22747   3.316   6.782   1.262  0.1368  0.0746 -0.0574
12644PP      PP22748   9.120  15.282   0.589  0.1656 -0.2073 -0.0703
12645PP      PP22749   2.410   1.988   9.029 -0.1076  0.3117  0.1242
12646PP      PP22750   2.794   7.783   3.220  0.2426 -0.2178  0.1403
12647PP      PP22751  12.661   2.032   3.758  0.3386  0.0901 -0.3995
12648PP      PP22752  14.522   7.739   8.007 -0.2093  0.0225  0.3421
12649PP      PP22753  16.219  15.427   1.552 -0.2320  0.1359 -0.2395
12650PP      PP22754   8.114   4.833  12.385  0.0815 -0.0684  0.1552
12651PP      PP22755  15.910   8.244   1.556  0.2513  0.2255  0.0678
12652PP      PP22756  13.155  10.480   1.515 -0.1714 -0.0896  0.3243
12653PP      PP22757   0.038  11.804  11.971  0.1104 -0.3515  0.0508
12654PP      PP22758   3.582  12.085   2.545  0.0811  0.4093 -0.3523
12655PP      PP22759  13.596  11.714   8.939 -0.0638  0.1871 -0.0530
12656PP      PP22760  14.914   7.530   7.672  0.0014 -0.1190  0.0255
12657PP      PP22761  11.900  12.749   8.687  0.2669  0.1899 -0.1953
12658PP      PP22762   4.219   6.769   1.412 -0.0028 -0.1760 -0.2149
12659PP      PP22763   0.322   7.105   3.303  0.0005 -0.2225 -0.1096
12660PP      PP22764  10.270  12.241   3.822 -0.2966  0.1158 -0.2749
12661PP      PP22765   8.700  13.113   2.848  0.0341  0.1192  0.2825
12662PP      PP22766   0.740   9.918  12.267 -0.3196 -0.0420  0.1587
12663PP      PP22767  14.446   2.690   9.984 -0.1644 -0.2053 -0.0181
12664PP      PP22768   5.784   6.241  11.163 -0.1859  0.0846  0.1951
12665PP      PP22769  12.900   4.464   0.658  0.1843 -0.1312 -0.1827
12666PP      PP22770  14.343   0.244  10.957 -0.1214 -0.0065  0.0544
12667PP      PP22771   3.679   6.932   8.602 -0.0354 -0.2507  0.1097
12668PP      PP22772  10.934   9.454   0.686 -0.0769  0.0839  0.2496
12669PP      PP22773  15.027   7.670   0.287  0.0239 -0.1482  0.1323
12670PP      PP22774   5.802  15.994   4.072  0.0354 -0.3685  0.0222
12671PP      PP22775   8.038   3.372   1.752  0.1175  0.2549  0.2774
12672PP      PP22776  14.424  14.672  10.473  0.1112 -0.0723  0.0403
12673PP      PP22777   6.750  16.003  11.894 -0.0198 -0.1140  0.2554
12674PP      PP22778  15.958   2.769  12.676  0.2701  0.2139  0.1857
12675PP      PP22779   7.309   3.838   3.427  0.2152  0.0544 -0.0306
12676PP      PP22780   8.975   2.308   9.847 -0.0066 -0.1470  0.2692
12677PP      PP22781  14.158   3.731   2.125  0.2710 -0.0628  0.0493
12678PP      PP22782   3.910   4.811   0.564  0.1338  0.1387  0.0354
12679PP      PP22783   1.633   0.513   0.898  0.2162  0.3404  0.0487
12680PP      PP22784   2.428  10.938   1.361  0.1653  0.0970 -0.5960
12681PP      PP22785   3.307   4.587   1.487 -0.3072  0.1033  0.0806
12682PP      PP22786   1.073   0.128   2.563  0.1333 -0.0358 -0.0273
12683PP      PP22787   0.526  13.294   2.640 -0.2705 -0.0443 -0.0475
12684PP      PP22788  14.417  15.513   1.666  0.1292  0.1040  0.4095
12685PP      PP22789   6.944   0.804   3.112 -0.0641  0.4312 -0.0785
12686PP      PP22790  14.678   8.079   2.106 -0.2649  0.3300 -0.3590
12687PP      PP22791   9.571   5.659  12.325  0.2086 -0.0548  0.2517
12688PP      PP22792   1.671   3.193   1.076 -0.0843 -0.1863  0.1118
12689PP      PP22793   0.391   1.032   1.833  0.1692  0.1753  0.1464
12690PP      PP22794  10.342  12.575   2.334  0.0877 -0.3905 -0.1909
12691PP      PP22795  12.123  11.291  10.643 -0.0933 -0.0386 -0.0312
12692PP      PP22796  13.312   5.857   9.492 -0.0660 -0.4562  0.1354
12693PP      PP22797   4.254   1.517   4.964 -0.3468 -0.1634  0.2077
12694PP      PP22798   4.875   9.817   0.058 -0.2994 -0.0599  0.1335
12695PP      PP22799  13.708   4.021  10.313 -0.3864  0.2139 -0.3837
12696PP      PP22800  13.130  10.108   3.448 -0.2441  0.2140  0.0414
12697PP      PP22801   6.327   0.821   2.196 -0.0890  0.1336  0.1007
12698PP      PP22802   2.994  12.513  11.096 -0.0812  0.0156  0.0211
12699PP      PP22803   7.477   7.989  11.715  0.1391 -0.0148  0.3782
12700PP      PP22804  15.125   2.522   2.560  0.0242  0.3818  0.2131
12701PP      PP22805  11.497  10.560   1.904  0.0803  0.0734 -0.2888
12702PP      PP22806  13.069  10.313  11.846  0.0673  0.0067 -0.2012
12703PP      PP22807   0.078   7.273   1.917 -0.2380 -0.0876 -0.2051
12704PP      PP22808   3.029  11.561  12.495  0.3536  0.0282 -0.0198
12705PP      PP22809   0.727  10.315   1.646 -0.0099 -0.0012  0.2216
12706PP      PP22810  15.171  10.287  11.955 -0.1166  0.1233 -0.0086
12707PP      PP22811   4.992   7.314   1.240 -0.1106  0.0507 -0.1698
12708PP      PP22812  10.303  16.231  11.324 -0.5415  0.0681  0.1045
12709PP      PP22813   8.953   2.769   1.930  0.0425  0.3602  0.0497
12710PP      PP22814   9.695  13.605   9.164  0.1196 -0.0448  0.0929
12711PP      PP22815   6.281   6.098  11.109 -0.0808 -0.0064  0.1807
12712PP      PP22816   2.064   6.680  11.664  0.3139 -0.0367 -0.1508
12713PP      PP22817   9.836  10.066  10.716  0.1767 -0.2961 -0.2276
12714PP      PP22818   7.727   8.712   3.745 -0.1958 -0.1000  0.0679
12715PP      PP22819   5.632   8.276   7.842  0.2157  0.0189  0.1752
12716PP      PP22820   4.399   7.985  11.333 -0.0674  0.1354 -0.0047
12717PP      PP22821  13.805  15.905   0.998  0.2767  0.2391  0.1250
12718PP      PP22822   7.113   4.231   8.294  0.2402  0.0631 -0.0461
12719PP      PP22823   8.829   3.602   9.431 -0.3059  0.0649 -0.0774
12720PP      PP22824  12.349   8.015   9.820 -0.0614 -0.0183 -0.3341
12721PP      PP22825  14.104   2.487   2.780 -0.3479 -0.0817 -0.1973
12722PP      PP22826   5.392   8.311   9.210  0.2548 -0.1478 -0.0326
12723PP      PP22827  11.351  14.764  11.090  0.0464  0.0342 -0.1985
12724PP      PP22828  13.832  11.844   1.379 -0.2467 -0.0309  0.1591
12725PP      PP22829   2.441   9.201   1.797  0.1313 -0.0655  0.0533
12726PP      PP22830   7.930  15.711   3.238 -0.0221  0.0024 -0.0718
12727PP      PP22831  10.948   8.976   9.276  0.0243  0.2375 -0.1952
12728PP      PP22832   4.324   8.778   0.864 -0.0578 -0.4454 -0.2726
12729PP      PP22833  14.493  14.723   0.235 -0.0003  0.0578  0.0349
12730PP      PP22834   8.316  10.037   7.977 -0.3933 -0.3366  0.2885
12731PP      PP22835   7.499   1.818   3.704  0.2043  0.0076  0.0566
12732PP      PP22836   5.707  13.406   2.166  0.1120 -0.1275 -0.1624
12733PP      PP22837  13.321   2.452  11.795 -0.1069 -0.1646 -0.0804
12734PP      PP22838   9.097  15.898   1.706  0.1980 -0.1335 -0.3149
12735PP      PP22839   3.070  14.508  12.590  0.0473  0.0818  0.2364
12736PP      PP22840  15.563   5.829   0.192 -0.1011  0.0639  0.2109
12737PP      PP22841   3.166   3.597   8.272 -0.3518 -0.1674  0.0754
12738PP      PP22842   3.329   4.916  10.320 -0.3548  0.0676 -0.0165
12739PP      PP22843   3.548  10.579   2.937  0.0314  0.0239 -0.1131
12740PP      PP22844  11.946   0.719   0.250  0.1071 -0.0167 -0.0159
12741PP      PP22845  10.822  12.821   4.581 -0.0082 -0.1322 -0.3337
12742PP      PP22846   4.384  10.991  10.775  0.2258  0.2398  0.3297
12743PP      PP22847  10.718   7.314   3.149  0.3604 -0.0698 -0.1771
12744PP      PP22848   7.080  14.090   9.189  0.0821 -0.2415 -0.2573
12745PP      PP22849   3.425   5.006   2.456  0.2791 -0.1322 -0.0757
12746PP      PP22850  10.232   5.028  12.713 -0.0321 -0.1942 -0.2119
12747PP      PP22851  10.532   6.528   8.845  0.1719 -0.0951  0.1460
12748PP      PP22852  11.260   7.270  10.077 -0.0293 -0.2982 -0.3212
12749PP      PP22853  13.990   5.747   3.820  0.1201  0.5087  0.0606
12750PP      PP22854  14.270  11.830  11.508 -0.2796 -0.2196  0.3100
12751PP      PP22855  13.453  15.161   2.255 -0.2309  0.0982  0.2156
12752PP      PP22856   1.625   0.321  11.705  0.1000 -0.2749  0.1467
12753PP      PP22857   0.075   7.867  12.598  0.2188 -0.1940 -0.3639
12754PP      PP22858  12.263   8.284   2.183 -0.3088 -0.2308 -0.1825
12755PP      PP22859   9.308  15.097   4.427  0.0372  0.1121  0.1387
12756PP      PP22860   5.594  13.358   0.191  0.1007 -0.0977  0.1344
12757PP      PP22861  14.315  13.148   3.715 -0.0928 -0.0697  0.1981
12758PP      PP22862  12.745   1.832   1.579 -0.2311 -0.1832 -0.0949
12759PP      PP22863  14.595   4.103   1.213 -0.0317  0.1275 -0.2576
12760PP      PP22864   8.199  14.498   0.760  0.1985  0.1419 -0.0656
12761PP      PP22865   3.027  11.488   7.867 -0.0307  0.2998 -0.3113
12762PP      PP22866  11.992   9.815   1.499  0.1811  0.1242  0.0963
12763PP      PP22867  11.639  11.656   3.561  0.1134  0.0198  0.1337
12764PP      PP22868  16.115  16.103   1.101 -0.0606 -0.1513  0.0808
12765PP      PP22869  14.459  12.877   8.759  0.1911  0.3187  0.2754
12766PP      PP22870  11.291   5.602   3.225 -0.1543 -0.0161 -0.3629
12767PP      PP22871   7.756   5.503   0.231  0.0572  0.1951 -0.2667
12768PP      PP22872   7.399   7.293  11.185  0.0496  0.0310  0.0468
12769PP      PP22873   9.811   7.706  12.266 -0.1102  0.1716 -0.3770
12770PP      PP22874  12.025   2.738   1.839 -0.2274  0.1226 -0.1710
12771PP      PP22875   0.408   4.438   3.314  0.2942  0.2164 -0.0131
12772PP      PP22876  12.099  13.443   0.671 -0.2373 -0.0430  0.0909
12773PP      PP22877   7.752  13.440  10.724 -0.1944  0.3517 -0.1468
12774PP      PP22878   4.037   1.712   0.502  0.0872  0.3690 -0.0676
12775PP      PP22879   0.288   7.791   1.938 -0.1005  0.1907 -0.3397
12776PP      PP22880  11.576   1.883   8.108  0.0015  0.2739 -0.2059
12777PP      PP22881   5.355  15.044  11.164 -0.0285  0.1182  0.3003
12778PP      PP22882  12.851   1.504   8.321  0.1276 -0.2461  0.1640
12779PP      PP22883   6.816   8.273   8.696 -0.2023  0.0296 -0.2840
12780PP      PP22884   1.417  14.533   3.061  0.0636  0.0999 -0.1447
12781PP      PP22885   4.764  10.666   1.140 -0.0031  0.0121  0.1242
12782PP      PP22886   1.657  12.544  10.769  0.2114 -0.2730 -0.1795
12783PP      PP22887  15.268  10.520  10.000 -0.0260  0.2173 -0.0709
12784PP      PP22888   3.470   3.497   2.491  0.0506  0.0144 -0.1954
12785PP      PP22889  16.314   4.184   8.967  0.0545 -0.1096  0.0954
12786PP      PP22890   5.120   6.725   1.031 -0.0736  0.1655 -0.0916
12787PP      PP22891  14.978   1.108  11.110  0.0867 -0.0254 -0.1782
12788PP      PP22892   6.171   6.312   2.613 -0.2514  0.1644 -0.1610
12789PP      PP22893   2.544   0.456   9.829  0.1160 -0.1267 -0.0490
12790PP      PP22894   3.112  13.169   3.449 -0.1268  0.2700  0.1410
12791PP      PP22895   8.557   8.893   1.818  0.1846  0.0427 -0.3266
12792PP      PP22896  14.873   8.683  11.311  0.2315 -0.1116  0.1580
12793PP      PP22897   5.781   5.605   3.712  0.0315  0.0361  0.0128
12794PP      PP22898  14.860   8.155   3.292 -0.1167  0.0269 -0.1676
12795PP      PP22899   1.960  11.405   2.583 -0.0369 -0.0365 -0.4442
12796PP      PP22900  13.083   3.992  10.670  0.1591  0.0687  0.0819
12797PP      PP22901   6.401   8.420   9.836  0.1113  0.1446  0.0454
12798PP      PP22902   8.594   6.754  12.329  0.0837 -0.1375  0.1057
12799PP      PP22903  14.224  12.937  10.667 -0.0702  0.0783  0.0328
12800PP      PP22904  13.535  15.690   2.913 -0.1109 -0.1957 -0.0558
12801PP      PP22905   6.746   8.907   2.297 -0.1564 -0.1130  0.1496
12802PP      PP22906   2.046  10.135   3.104  0.2919 -0.2633  0.1028
12803PP      PP22907   6.942   6.732  12.170  0.0780 -0.0335  0.1007
12804PP      PP22908   1.584   7.962   2.674  0.0500 -0.3012 -0.0830
12805PP      PP22909   2.523  10.195  10.753  0.1971 -0.0299 -0.0780
12806PP      PP22910   2.974   0.730   2.478  0.1357 -0.0695 -0.3826
12807PP      PP22911   4.819  14.912   2.202 -0.1184 -0.1241  0.0331
12808PP      PP22912   4.049   5.884  11.244 -0.0940  0.0634 -0.0844
12809PP      PP22913  13.463   8.673  12.630 -0.0436 -0.0972  0.0383
12810PP      PP22914  15.948   2.313   1.041  0.0246 -0.1304  0.0678
12811PP      PP22915  15.072  15.319  12.167 -0.0919  0.1793  0.1199
12812PP      PP22916  11.325   2.869   8.350  0.1490  0.2721  0.0134
12813PP      PP22917   9.648   5.194   2.780 -0.0590  0.2307  0.1092
12814PP      PP22918   7.821  16.108  12.746  0.1024 -0.1047  0.1717
12815PP      PP22919   9.374   9.680  10.873 -0.1290  0.1092 -0.2910
12816PP      PP22920  12.002   7.927   1.984 -0.1808 -0.0824 -0.0892
12817PP      PP22921  12.833  16.103   2.556  0.1038 -0.0003  0.2429
12818PP      PP22922   6.964   6.560   9.569  0.3002 -0.2363  0.1114
12819PP      PP22923  13.885   7.389  11.750 -0.0922 -0.3033  0.2294
12820PP      PP22924   5.575   3.942   2.424 -0.2669 -0.1018 -0.2485
12821PP      PP22925   4.503   7.409   8.077  0.1127 -0.2485 -0.0039
12822PP      PP22926  14.250   9.518   7.986  0.1628  0.1207 -0.2714
12823PP      PP22927   2.698   0.505  10.823  0.0101 -0.0223  0.1476
12824PP      PP22928   9.548   9.291   3.719  0.3052 -0.1132 -0.1925
12825PP      PP22929  15.169  16.190   1.310  0.0142 -0.2066  0.2806
12826PP      PP22930  12.807  11.256  11.756  0.2390  0.2443 -0.3929
12827PP      PP22931  14.695   7.840  12.014 -0.2360 -0.1410  0.0949
12828PP      PP22932  11.239   0.847   2.386  0.1312 -0.0706 -0.0256
12829PP      PP22933  10.695   3.467   1.784 -0.0027 -0.1129  0.0675
12830PP      PP22934   3.769   0.520   0.148 -0.0018 -0.1522  0.1977
12831PP      PP22935   4.792  13.062  11.695 -0.1601  0.0064 -0.1127
12832PP      PP22936   5.675   5.320   1.939  0.0356  0.1117 -0.2121
12833PP      PP22937  12.152   7.863  10.377 -0.1628  0.3322  0.0128
12834PP      PP22938  14.306   3.134   8.762 -0.2365 -0.2652 -0.5672
12835PP      PP22939  15.965   6.595  11.261 -0.3091 -0.3274  0.0340
12836PP      PP22940   9.824  11.333  12.610 -0.0335  0.3155  0.0647
12837PP      PP22941  15.299   9.623   9.921 -0.1127 -0.0499  0.1331
12838PP      PP22942   1.550  15.600   4.592 -0.0428  0.2208 -0.0382
12839PP      PP22943   2.578   3.709   8.283  0.0460  0.2880 -0.1275
12840PP      PP22944  14.981   1.855  12.243 -0.0865 -0.2971  0.0633
12841PP      PP22945   7.913  12.150   3.534 -0.2481  0.1646 -0.2188
12842PP      PP22946   3.360   3.141   9.142 -0.1205 -0.0109 -0.0855
12843PP      PP22947  11.143  15.740   1.910  0.3851 -0.1389 -0.0398
12844PP      PP22948   9.632  10.036  10.114 -0.2235 -0.1632  0.1866
12845PP      PP22949   4.378   1.978   1.833 -0.0340  0.1481  0.0620
12846PP      PP22950  12.230  14.768   1.696 -0.1060 -0.1710  0.0698
12847PP      PP22951  11.599   1.563   0.251 -0.2238  0.0439 -0.1781
12848PP      PP22952  14.852   0.103  10.238  0.1460  0.1701 -0.1952
12849PP      PP22953  12.907  10.640   8.554  0.1333  0.1356 -0.0483
12850PP      PP22954   7.510  15.870   9.800 -0.1813 -0.1262 -0.0017
12851PP      PP22955   9.710  12.175   9.873 -0.0372  0.2751 -0.1041
12852PP      PP22956   9.856   2.822   8.978  0.0098 -0.1536  0.1003
12853PP      PP22957   7.576  10.665  10.063 -0.1359  0.0242  0.0153
12854PP      PP22958  15.854   8.313   9.211 -0.0098  0.2955  0.1634
12855PP      PP22959   2.349  12.752  10.337  0.1058  0.0562 -0.1841
12856PP      PP22960  14.487  10.352   0.341  0.2571  0.2231  0.0665
12857PP      PP22961   0.421   9.383   0.251  0.0541 -0.1714 -0.4144
12858PP      PP22962   0.011   3.201  11.625  0.1835  0.1398  0.0431
12859PP      PP22963   9.823   4.183   0.630 -0.0065 -0.1777  0.4090
12860PP      PP22964   7.754  10.037   4.054  0.1660  0.0484 -0.0994
12861PP      PP22965   9.059  10.405   4.384 -0.0187 -0.0070 -0.0891
12862PP      PP22966  15.664  11.421  11.428 -0.1121 -0.0143  0.1334
12863PP      PP22967   4.138   6.069   2.714  0.1589  0.1477  0.0198
12864PP      PP22968   3.474  12.071   3.170  0.0296  0.1199  0.1444
12865PP      PP22969   7.876  11.408   2.644 -0.1462  0.0782  0.2380
12866PP      PP22970  11.306   8.534  12.077  0.2103 -0.1103 -0.0352
12867PP      PP22971   2.874   7.465  10.889  0.0472 -0.1586 -0.5180
12868PP      PP22972  14.210   1.162  10.588 -0.0832  0.0886  0.0640
12869PP      PP22973   6.468   5.947   2.130  0.0274  0.1558  0.1700
12870PP      PP22974  10.975   2.275  10.591 -0.2401 -0.0537  0.1938
12871PP      PP22975   9.709   8.111   1.291 -0.1648 -0.3482  0.2293
12872PP      PP22976  13.693  13.263   2.560 -0.2586 -0.2571 -0.0038
12873PP      PP22977  14.040  12.235   4.515  0.1990 -0.2304  0.1304
12874PP      PP22978   0.609   7.565  10.168  0.0935 -0.0090  0.0581
12875PP      PP22979   0.691   3.955  12.749  0.0161 -0.1212  0.2308
12876PP      PP22980   5.395   5.863  12.198 -0.2607  0.1316  0.1974
12877PP      PP22981  14.726  13.028   4.121 -0.2921 -0.1884  0.2608
12878PP      PP22982   5.431   1.102   9.299  0.0573 -0.2652  0.0009
12879PP      PP22983   2.017  15.381   1.215  0.0736 -0.4285  0.1566
12880PP      PP22984   1.429   0.765  10.831 -0.0584  0.0931 -0.0928
12881PP      PP22985  13.265   0.380   0.814  0.2280 -0.4269  0.0437
12882PP      PP22986  10.244   5.762  11.888  0.0450 -0.0736 -0.3671
12883PP      PP22987   0.191   2.423   2.520  0.0767  0.0973  0.0414
12884PP      PP22988   9.862   7.279   9.128  0.1575 -0.1493  0.1503
12885PP      PP22989   8.682   9.743   1.070  0.3438 -0.3516  0.0213
12886PP      PP22990   0.313   9.440  12.138 -0.2484 -0.1580 -0.0995
12887PP      PP22991  12.972   6.469   7.977 -0.0079 -0.1238 -0.2736
12888PP      PP22992   2.884   8.706  12.121  0.0739 -0.2511  0.0333
12889PP      PP22993   8.968   0.603  10.730 -0.0502 -0.1418 -0.1909
12890PP      PP22994  16.360  11.551   1.294 -0.1335 -0.1735 -0.1556
12891PP      PP22995   6.794   9.247   0.110  0.2764 -0.0307 -0.0416
12892PP      PP22996   0.774  10.638   2.734  0.2036 -0.0277 -0.2904
12893PP      PP22997   2.675   8.815  11.636  0.0063 -0.1757 -0.0117
12894PP      PP22998   5.473   3.899   9.887  0.1287 -0.0571 -0.1173
12895PP      PP22999   3.287  12.005   9.976  0.3507  0.0772 -0.1135
12896PP      PP23000   1.245   3.432  11.233 -0.0906 -0.1710 -0.4799
12897PP      PP23001   5.112  15.599   4.272  0.2173 -0.2050 -0.1086
12898PP      PP23002   5.549  10.254   8.448 -0.1759 -0.5328 -0.0297
12899PP      PP23003   9.902  10.479   3.586 -0.1659 -0.0516  0.0635
12900PP      PP23004   7.808   2.598   3.302 -0.0988 -0.1481  0.0125
12901PP      PP23005   2.881   2.482  12.649 -0.0284 -0.0202  0.1237
12902PP      PP23006   4.529   5.244   3.186 -0.0035  0.0856  0.3137
12903PP      PP23007  15.581  15.609   2.582  0.1608 -0.0442  0.1849
12904PP      PP23008   1.763   6.840  10.158  0.1898  0.0509  0.2817
12905PP      PP23009   7.883   4.298   9.982  0.2947 -0.1308  0.1510
12906PP      PP23010  11.482   1.818  12.372  0.0763  0.0054 -0.0956
12907PP      PP23011  15.749   1.251   2.219  0.2217  0.0250  0.3266
12908PP      PP23012  14.843  11.042   8.368 -0.0209 -0.3734 -0.0963
12909PP      PP23013  12.717   5.510   3.430  0.0010  0.3697  0.0511
12910PP      PP23014  13.321   1.808  10.403  0.4981 -0.0001  0.0043
12911PP      PP23015   5.130   7.688   3.652 -0.1043 -0.2187  0.0812
12912PP      PP23016   9.417   1.121   8.686 -0.1460 -0.0491 -0.1761
12913PP      PP23017  12.563   0.600   3.435 -0.4446  0.1471 -0.1885
12914PP      PP23018  12.579   8.731  12.366 -0.0078  0.2471 -0.3097
12915PP      PP23019  16.219  13.162   5.020 -0.0488 -0.2141 -0.2437
12916PP      PP23020   6.529  13.419  12.612  0.1029  0.0670 -0.1172
12917PP      PP23021   3.855   8.409  11.950 -0.0755  0.2907  0.6099
12918PP      PP23022  14.722  12.795   9.201  0.0483 -0.2270 -0.2164
12919PP      PP23023   5.440   4.445   2.493  0.3410  0.2107 -0.1110
12920PP      PP23024   1.022  15.341  11.896  0.2299  0.2569 -0.0574
12921PP      PP23025  15.188   7.787   3.205 -0.1483 -0.1592 -0.1056
12922PP      PP23026   9.441   3.601  11.988 -0.1133 -0.0314 -0.1323
12923PP      PP23027   9.891   4.363  10.341  0.0294 -0.1956  0.0679
12924PP      PP23028  14.841   2.015   1.035 -0.2653  0.0290  0.2246
12925PP      PP23029   7.583  10.791  11.078  0.0562 -0.0160 -0.1148
12926PP      PP23030   0.633   6.021   0.068  0.0194 -0.0742  0.0324
12927PP      PP23031   8.969   5.273   2.091  0.1082  0.2563 -0.2989
12928PP      PP23032   2.464   4.650   3.014  0.1336 -0.1399  0.1574
12929PP      PP23033  15.694   5.722  12.493  0.0968 -0.0050 -0.2196
12930PP      PP23034   0.403   3.603   2.780  0.0812  0.2904 -0.4730
12931PP      PP23035   1.093   3.001   3.404  0.0017  0.0515  0.1243
12932PP      PP23036   9.804  15.447   9.452 -0.0038 -0.0028  0.2075
12933PP      PP23037  14.319   5.074   3.031 -0.1513 -0.1267 -0.1876
12934PP      PP23038   9.981  10.206   2.230  0.1070 -0.1593 -0.1607
12935PP      PP23039  12.139  12.175  12.172  0.1104 -0.0617 -0.2198
12936PP      PP23040   3.720   4.552   2.449  0.0565  0.0687  0.1489
12937PP      PP23041  10.405   4.473  10.393  0.1410 -0.0735  0.1193
12938PP      PP23042   2.161  10.297   9.507  0.1128 -0.0007 -0.1005
12939PP      PP23043   3.197   5.799   8.547  0.0445  0.0193  0.4736
12940PP      PP23044  15.491   8.703   7.930 -0.2276 -0.0051  0.2639
12941PP      PP23045  11.636  16.013   9.723 -0.3001 -0.0623  0.0271
12942PP      PP23046  11.778   6.141  12.602  0.0915  0.0846 -0.2244
12943PP      PP23047  10.947  14.252   2.962 -0.1536  0.1734 -0.0067
12944PP      PP23048  14.642   4.799   0.159  0.2646 -0.3372  0.0210
12945PP      PP23049   4.428   4.937   8.187  0.0405  0.0478  0.0682
12946PP      PP23050  14.084  10.010   0.495 -0.1755 -0.1110 -0.1219
12947PP      PP23051   2.235   9.319   2.573 -0.1225  0.0374  0.0316
12948PP      PP23052   5.484   9.219  11.191 -0.2074  0.1098  0.2821
12949PP      PP23053  14.636  13.374   1.089  0.1997  0.0219  0.0151
12950PP      PP23054   7.506  10.982   0.896 -0.0492 -0.0155  0.1460
12951PP      PP23055  14.651  11.933   1.011 -0.1828  0.0945 -0.1963
12952PP      PP23056   3.666  15.359   8.298  0.2226 -0.0347 -0.3230
12953PP      PP23057   0.869  15.337   9.310 -0.1658 -0.1560  0.1005
12954PP      PP23058   0.824   7.653   3.964  0.0210 -0.2396  0.0292
12955PP      PP23059  12.567  12.010   3.851  0.0141  0.1857 -0.1111
12956PP      PP23060   2.146   9.689   7.451  0.0366 -0.1555  0.1843
12957PP      PP23061  12.425   2.493   0.024 -0.0091  0.3703 -0.1599
12958PP      PP23062   0.599  16.156   0.511 -0.2615 -0.3058  0.0359
12959PP      PP23063   2.477  13.534  12.056  0.1926 -0.0157 -0.1173
12960PP      PP23064  12.505  14.020   3.930  0.0851  0.2199 -0.2559
12961PP      PP23065  13.787   5.186   8.867  0.3704  0.3289  0.0601
12962PP      PP23066  11.464  11.054  12.156 -0.0580  0.1537  0.0307
12963PP      PP23067  14.358   0.952   0.593  0.1209  0.6001 -0.0027
12964PP      PP23068  10.210   8.658   2.397  0.1109 -0.0791  0.1016
12965PP      PP23069   0.669   9.501   0.935 -0.3417 -0.3497  0.3612
12966PP      PP23070   6.230   4.061   0.354 -0.1504 -0.0588 -0.1620
12967PP      PP23071  15.764   5.954  12.043 -0.0608 -0.1123 -0.0533
12968PP      PP23072  13.294  10.951   8.653  0.4751  0.0633 -0.1879
12969PP      PP23073  11.607  10.534   3.327  0.0545  0.4913  0.0964
12970PP      PP23074   8.000   7.474   1.043 -0.0419 -0.0357 -0.0259
12971PP      PP23075   8.607   6.268   1.526  0.2331  0.1599  0.3509
12972PP      PP23076   5.847   6.923   2.781 -0.1237  0.1004  0.0490
12973PP      PP23077   7.169  11.625   2.097  0.0655 -0.1998 -0.2450
12974PP      PP23078   1.104  11.398   0.010  0.0735  0.0835 -0.1960
12975PP      PP23079   2.373   5.131   9.414  0.2249 -0.0875 -0.4361
12976PP      PP23080   9.659   5.231   8.301 -0.0074  0.1771  0.0050
12977PP      PP23081   9.035   2.570   0.463 -0.0458  0.2853  0.3771
12978PP      PP23082   3.591   0.628   3.123  0.3329 -0.3635 -0.1362
12979PP      PP23083   1.049   1.400   0.899 -0.1634 -0.0274 -0.1648
12980PP      PP23084   7.716   1.840   8.813  0.2863 -0.1001 -0.3024
12981PP      PP23085  14.137  13.486  12.354  0.2284  0.1560 -0.0200
12982PP      PP23086   1.381  14.844   8.158 -0.0047  0.2032  0.1498
12983PP      PP23087   7.568  12.986  10.700  0.0187  0.0332 -0.1058
12984PP      PP23088   3.271  13.718   2.559 -0.1736 -0.1493  0.0177
12985PP      PP23089   7.174  10.859   3.075 -0.2373  0.1039 -0.4708
12986PP      PP23090   7.245   6.024   8.712  0.0850  0.1453 -0.1767
12987PP      PP23091  15.268  11.440   4.177  0.2538  0.0936 -0.1789
12988PP      PP23092   8.549   2.337   8.630 -0.1386  0.2005  0.0893
12989PP      PP23093  11.063   4.251   2.104 -0.5346  0.0816  0.4519
12990PP      PP23094  11.175   6.753   1.961 -0.2721  0.1434  0.0099
12991PP      PP23095  12.253   0.621  10.718  0.3333 -0.2993 -0.0579
12992PP      PP23096   8.615   4.059   8.117 -0.0731 -0.2629 -0.0204
12993PP      PP23097  11.402  12.890   8.904  0.1442 -0.0732  0.2018
12994PP      PP23098  13.059   1.525   8.922 -0.2224  0.0587  0.0986
12995PP      PP23099   4.269   7.703   0.856 -0.2202 -0.0872 -0.2254
12996PP      PP23100   6.358  16.147  11.093  0.0700 -0.1440 -0.0491
12997PP      PP23101  10.032   1.637   2.778  0.1364 -0.0686  0.0508
12998PP      PP23102  12.976  13.369   1.270  0.0862  0.3521  0.3461
12999PP      PP23103   3.197   0.197   2.552  0.2954  0.1050  0.2254
13000PP      PP23104  11.143   7.233  12.298  0.0720 -0.1348 -0.1353
13001PP      PP23105   1.828  15.899   1.906 -0.0517  0.1391  0.0716
13002PP      PP23106   7.483  15.813  10.346  0.2597 -0.0230 -0.0276
13003PP      PP23107  15.859  15.089   1.481  0.2531  0.1447 -0.3031
13004PP      PP23108   5.027   6.941   1.575  0.1434  0.2038 -0.1377
13005PP      PP23109  12.935   7.057   9.852  0.5584 -0.0429  0.0746
13006PP      PP23110  14.491   1.090   1.159 -0.0416 -0.0970  0.0587
13007PP      PP23111  14.242   5.752   9.807 -0.0281  0.0734 -0.0439
13008PP      PP23112   4.483  12.241  11.904 -0.0480 -0.1633 -0.1934
13009PP      PP23113   0.180  11.888  11.308 -0.0913 -0.0372 -0.1227
13010PP      PP23114  11.862   5.453   9.155  0.0176 -0.1481 -0.1856
13011PP      PP23115   2.809  12.842   0.017 -0.1516  0.0759 -0.0014
13012PP      PP23116   5.157   2.478   2.319  0.0842  0.1752  0.3016
13013PP      PP23117   0.213  12.630  12.108  0.0670 -0.3070 -0.0766
13014PP      PP23118  15.839   7.552   3.611  0.0608  0.0835 -0.0859
13015PP      PP23119   1.975  10.223   1.152  0.0593  0.0243 -0.0243
13016PP      PP23120   5.349  16.241   8.498  0.4789  0.0220 -0.3478
13017PP      PP23121  11.887   6.512   7.600 -0.0750 -0.0434 -0.2163
13018PP      PP23122   5.841   8.360   3.600  0.0248 -0.1842  0.4459
13019PP      PP23123  14.360  11.611   0.003 -0.1428 -0.2002  0.1396
13020PP      PP23124  14.523   7.667   2.394 -0.2076 -0.0019  0.0233
13021PP      PP23125   2.902  15.534   4.876 -0.1956  0.1073  0.0193
13022PP      PP23126   1.701   5.824   1.894 -0.3432 -0.0293 -0.2284
13023PP      PP23127   0.168   8.776   9.501 -0.1893  0.1559 -0.1312
13024PP      PP23128  16.349  15.359  11.082  0.0912 -0.1710 -0.0940
13025PP      PP23129  15.112  13.211  12.278  0.2997 -0.4013  0.0380
13026PP      PP23130   2.963   9.147  12.371 -0.0824  0.1963  0.1764
13027PP      PP23131   5.350  10.888  11.831  0.0461  0.0064 -0.1613
13028PP      PP23132   6.978  10.040  10.156 -0.0755 -0.0723 -0.0875
13029PP      PP23133   7.783  14.934  11.465 -0.0314 -0.0610 -0.3595
13030PP      PP23134   6.487  11.372   2.533 -0.0623  0.3321 -0.2737
13031PP      PP23135   1.042  12.248   9.014  0.1903  0.0559  0.1367
13032PP      PP23136   9.197  11.721   9.374 -0.0157  0.1684  0.0380
13033PP      PP23137   1.342  10.422   0.319  0.1939  0.1491 -0.0658
13034PP      PP23138   4.995   6.790   0.500  0.1704 -0.0790 -0.1413
13035PP      PP23139   6.120   3.223   1.095  0.1155 -0.1156 -0.1881
13036PP      PP23140  14.777   7.863   2.758  0.0404 -0.1384 -0.0720
13037PP      PP23141  11.929  14.854  12.365 -0.0453  0.1073 -0.1950
13038PP      PP23142   7.370   5.588   1.345 -0.2960 -0.1345 -0.0654
13039PP      PP23143   5.983   0.792  10.753 -0.1195  0.2576  0.0270
13040PP      PP23144   0.327   9.081   9.089 -0.0556 -0.1472 -0.0101
13041PP      PP23145   2.502   1.952  12.036  0.0371 -0.1204  0.3526
13042PP      PP23146   8.159   1.439   1.263 -0.1574  0.2121 -0.1203
13043PP      PP23147   6.813   4.147   2.904  0.0225 -0.1515 -0.1507
13044PP      PP23148   8.707   2.946   9.760 -0.0613  0.2460 -0.0843
13045PP      PP23149   7.514  11.911  12.043  0.0067  0.1618 -0.1069
13046PP      PP23150   4.994  13.371   8.702 -0.3353 -0.1912  0.3480
13047PP      PP23151  14.737   3.837   8.504  0.1328 -0.1628 -0.3687
13048PP      PP23152   7.796   3.769   9.800 -0.0759  0.0640  0.2920
13049PP      PP23153   3.764   7.877   0.145  0.0674  0.1416 -0.1516
13050PP      PP23154   0.193   3.817   9.212  0.0880 -0.3233 -0.1187
13051PP      PP23155   0.612  13.742  10.490 -0.0207  0.0386  0.2129
13052PP      PP23156   3.319   1.332   1.854  0.0648  0.1636 -0.1695
13053PP      PP23157   5.374   0.942   3.156  0.2214 -0.3102  0.2366
13054PP      PP23158  10.269  10.414  10.577  0.1855  0.2468 -0.2705
13055PP      PP23159   8.534  13.143   0.297  0.0762  0.1568 -0.1365
13056PP      PP23160  11.730   1.859  11.406 -0.1572  0.2959  0.1678
13057PP      PP23161  16.320   2.117   9.817 -0.0122  0.0547  0.0850
13058PP      PP23162  15.381   8.206  11.077  0.0421  0.0421 -0.1436
13059PP      PP23163   9.208   6.637   0.249  0.0700 -0.1831 -0.0846
13060PP      PP23164  14.604   3.483   2.903 -0.3198 -0.3127  0.0378
13061PP      PP23165   5.153   2.211  10.920 -0.2341 -0.0364  0.4411
13062PP      PP23166  11.673  12.620   2.532  0.0459 -0.0270  0.2173
13063PP      PP23167   2.631  15.097   4.124 -0.0287  0.0543  0.1347
13064PP      PP23168   8.414   5.640   2.903 -0.0213 -0.0414  0.0873
13065PP      PP23169   0.321   1.260   9.939  0.0376 -0.3079  0.3361
13066PP      PP23170   0.337   4.132  11.393 -0.0726  0.0425  0.3039
13067PP      PP23171  10.800  15.454  11.679  0.1818 -0.2924 -0.0021
13068PP      PP23172   5.770  11.641   9.107 -0.1418  0.1389  0.1493
13069PP      PP23173  14.821   3.314   9.301 -0.1445  0.1328  0.3145
13070PP      PP23174   8.874   5.780   8.375  0.0104 -0.2769  0.3274
13071PP      PP23175   8.155  11.017  11.879  0.1843 -0.2150  0.0844
13072PP      PP23176   9.258   6.306  11.494  0.3083  0.2189 -0.1601
13073PP      PP23177  14.335   5.431   3.412  0.2907  0.0886 -0.0249
13074PP      PP23178   2.172   1.108  10.291 -0.1851 -0.1736  0.0739
13075PP      PP23179  12.197  15.572   3.274 -0.1855 -0.1430  0.1438
13076PP      PP23180   3.350   6.058  11.999 -0.1803  0.1067 -0.2978
13077PP      PP23181   0.781  12.467   3.665  0.0224  0.0234  0.1171
13078PP      PP23182   4.664   8.178  11.825  0.2286 -0.1240  0.1385
13079PP      PP23183   4.980  13.221  12.152 -0.0534  0.1709  0.1023
13080PP      PP23184   8.109  12.629  12.690 -0.0804 -0.1769 -0.2666
13081PP      PP23185   4.452  15.969  11.669 -0.0004 -0.2445  0.2694
13082PP      PP23186   6.486  12.262   2.629  0.0080 -0.0587 -0.0028
13083PP      PP23187   3.835  11.403   3.286  0.0500  0.2591 -0.2501
13084PP      PP23188   2.653   8.376  11.825 -0.2004  0.3399 -0.1902
13085PP      PP23189   8.608  10.562  10.246 -0.2064 -0.1600  0.1769
13086PP      PP23190   1.647   9.279  12.530  0.3281  0.2811 -0.0166
13087PP      PP23191   7.110   5.741  12.235  0.0185  0.1604 -0.3555
13088PP      PP23192   5.903  10.584   8.327 -0.0069  0.2095  0.0956
13089PP      PP23193   1.538  12.345  12.402  0.0633  0.0731 -0.2044
13090PP      PP23194   0.718   2.523   9.760 -0.4115  0.2103  0.0168
13091PP      PP23195  11.677  10.647   9.023 -0.1841 -0.0462 -0.0407
13092PP      PP23196  12.993   1.934   9.643 -0.1657  0.0710  0.0750
13093PP      PP23197  16.081  14.433   9.004  0.0303  0.2088  0.0381
13094PP      PP23198   3.406  15.152   0.892  0.0339  0.2537 -0.2002
13095PP      PP23199  11.155   5.107   3.140 -0.0964 -0.2555 -0.3413
13096PP      PP23200   6.032  16.318  12.597  0.0708  0.0478 -0.0178
13097PP      PP23201   6.887   3.011   9.490 -0.4698 -0.1908 -0.0633
13098PP      PP23202  16.309  12.974   3.639 -0.2740  0.2889  0.2916
13099PP      PP23203  15.546   1.455   1.772 -0.0251  0.1678 -0.1329
13100PP      PP23204  15.535   7.721   0.204 -0.2516 -0.0120  0.1600
13101PP      PP23205  10.292   6.027  10.029  0.1394 -0.2437 -0.0222
13102PP      PP23206  13.387  10.853  10.725  0.0897  0.0654 -0.3214
13103PP      PP23207   9.808  13.426  10.800 -0.0931  0.0438 -0.0400
13104PP      PP23208  11.761   8.589   2.304  0.0435  0.1379 -0.3297
13105PP      PP23209   7.472  15.193   4.070  0.0633 -0.2101 -0.1363
13106PP      PP23210  12.968  14.131   9.152 -0.2575  0.1559  0.0411
13107PP      PP23211  14.764   3.601  12.523 -0.2681  0.0565 -0.0958
13108PP      PP23212   1.963  15.668  12.560 -0.5322 -0.0342  0.3851
13109PP      PP23213   8.429  16.081   1.326  0.0947  0.0467 -0.2148
13110PP      PP23214   0.588  14.611  10.206  0.2016 -0.1504 -0.1728
13111PP      PP23215   9.296  10.545   1.343  0.3672  0.3839 -0.3354
13112PP      PP23216  14.764   9.805  10.813  0.1976  0.0461  0.0390
13113PP      PP23217   2.581   6.890  11.835 -0.0698  0.0987 -0.1962
13114PP      PP23218   4.700   2.426   4.172 -0.2192 -0.3056  0.2235
13115PP      PP23219  13.478  10.421   1.951 -0.2347 -0.2255 -0.1452
13116PP      PP23220  14.877   8.882   8.742  0.2468 -0.0816 -0.0977
13117PP      PP23221  14.313   3.939  11.042  0.0753 -0.0203 -0.0304
13118PP      PP23222   3.645   4.736   0.008  0.2476  0.2996  0.0450
13119PP      PP23223  11.790   7.722   0.695  0.2056 -0.5506  0.0675
13120PP      PP23224   8.813  10.782  11.340 -0.0330  0.0714  0.3223
13121PP      PP23225   1.248   2.560   0.073  0.1870 -0.1010  0.0015
13122PP      PP23226  11.541   6.041   3.162  0.0750 -0.0623  0.2445
13123PP      PP23227   8.457   8.107   3.081  0.1875  0.2605 -0.0778
13124PP      PP23228  11.279  12.868   3.898  0.0222  0.1896  0.0709
13125PP      PP23229  10.047  11.468   1.082 -0.1771 -0.0807  0.1150
13126PP      PP23230  15.497   8.685  10.215  0.2108 -0.4652 -0.0022
13127PP      PP23231   3.311  11.263   9.366 -0.0481  0.3813 -0.0848
13128PP      PP23232  10.937  13.301   1.373 -0.1517  0.0581  0.0968
13129PP      PP23233  12.178   8.876  12.032 -0.0614  0.3722 -0.2885
13130PP      PP23234   7.822   0.370   1.247 -0.2908 -0.0309  0.1572
13131PP      PP23235   2.135   2.832   1.710 -0.2186  0.3279 -0.3061
13132PP      PP23236   3.481  12.651   0.636 -0.3470  0.0755  0.1347
13133PP      PP23237   7.029   7.860  10.912  0.1252 -0.2802 -0.2574
13134PP      PP23238   6.297  10.723   9.572  0.0369  0.0762  0.1860
13135PP      PP23239   7.891  14.381   9.632  0.0630 -0.4003  0.0467
13136PP      PP23240   5.417  11.496   9.975 -0.0189 -0.0480  0.0491
13137PP      PP23241  11.158   2.228  11.922 -0.0801 -0.1269  0.0876
13138PP      PP23242   3.370   3.568  10.804  0.2844 -0.1094 -0.1159
13139PP      PP23243   4.239  11.276   7.679 -0.0860 -0.1437  0.1136
13140PP      PP23244  10.552  16.222   0.371 -0.2061  0.2766  0.0670
13141PP      PP23245   0.280   3.379  12.048  0.0081 -0.1575 -0.0586
13142PP      PP23246  14.317   5.765   8.086 -0.0039 -0.1243 -0.6354
13143PP      PP23247   5.478   3.119   3.303 -0.0946  0.1213  0.0757
13144PP      PP23248  11.237   6.756  12.227  0.0123 -0.0142 -0.2419
13145PP      PP23249  11.250  10.631  12.334 -0.1100  0.0144  0.0977
13146PP      PP23250   0.342  14.311   2.146 -0.0125  0.1521 -0.4317
13147PP      PP23251  15.649   1.984  10.210 -0.4922  0.0972  0.1745
13148PP      PP23252  10.911  14.586  10.965  0.1857  0.0579  0.1108
13149PP      PP23253   0.903  14.797  12.697  0.0016  0.0353 -0.1108
13150PP      PP23254  15.121   9.100   3.198 -0.1104 -0.0413  0.0493
13151PP      PP23255  15.560   4.359   0.056 -0.0960  0.0628  0.3257
13152PP      PP23256   5.745  10.030   1.551  0.0143  0.1381 -0.1128
13153PP      PP23257  13.129  13.939   2.425 -0.0351 -0.0081 -0.0998
13154PP      PP23258   3.245   3.009  12.575  0.0525 -0.2300  0.0031
13155PP      PP23259   3.878   0.469   0.681 -0.2092 -0.1115  0.1833
13156PP      PP23260   1.648   6.066  12.037  0.2450  0.4072  0.1651
13157PP      PP23261   7.907  11.567  11.840 -0.0956 -0.2490  0.2339
13158PP      PP23262   2.793   0.769   9.587 -0.3823 -0.1367  0.0120
13159PP      PP23263  15.276  12.317   2.939 -0.0563  0.0465  0.0782
13160PP      PP23264  10.208  12.748   3.743  0.3745 -0.0723  0.3862
13161PP      PP23265   2.748   3.124  11.259  0.1944 -0.2117 -0.0905
13162PP      PP23266  12.794  10.257   3.834 -0.2616 -0.1376 -0.0495
13163PP      PP23267  10.335   8.626  11.847 -0.0004 -0.1558  0.0590
13164PP      PP23268   3.837   1.031  11.164  0.2112  0.1036  0.0242
13165PP      PP23269  10.853  15.842   0.301  0.1395  0.2744  0.1042
13166PP      PP23270   2.189  13.800   9.065 -0.1524 -0.0508 -0.0072
13167PP      PP23271   9.703  11.224  11.557  0.0589  0.0178 -0.0180
13168PP      PP23272   4.125   9.823   2.180 -0.0100 -0.0804 -0.5596
13169PP      PP23273   6.068  11.773   0.711 -0.2148  0.1175  0.1349
13170PP      PP23274   7.469  11.362  10.012  0.1479  0.3183  0.0966
13171PP      PP23275   5.735   5.695   0.714  0.0374  0.0948 -0.0189
13172PP      PP23276   7.809  10.639  10.540  0.0246  0.2409 -0.2073
13173PP      PP23277   7.243   4.771   2.472 -0.1423  0.0814 -0.0295
13174PP      PP23278   3.099   1.916   4.703 -0.1680  0.2391  0.0629
13175PP      PP23279   1.374   6.264   8.273 -0.0600  0.1263  0.0495
13176PP      PP23280   8.278   6.938   1.017  0.1891  0.0138  0.1583
13177PP      PP23281   3.019   0.285  12.635 -0.0353  0.1388 -0.1234
13178PP      PP23282   0.722  12.601  11.839  0.2120 -0.2748 -0.2888
13179PP      PP23283  13.401  11.898  12.741 -0.3857 -0.0861  0.0932
13180PP      PP23284   1.545   7.693   2.091  0.3265  0.1207 -0.0996
13181PP      PP23285   3.450   9.736  11.292  0.1934 -0.1845  0.0294
13182PP      PP23286   7.207   1.167   2.821 -0.0303  0.2252  0.2517
13183PP      PP23287   6.875   7.553   2.194  0.2718  0.1533  0.2769
13184PP      PP23288   6.220  10.641   8.787 -0.2362  0.0412  0.1141
13185PP      PP23289  11.887   7.301   1.385 -0.0617  0.1968  0.0644
13186PP      PP23290   7.473  12.826   9.095 -0.0322  0.2289  0.1566
13187PP      PP23291   3.797  10.350   1.125  0.0655  0.0707  0.3024
13188PP      PP23292   9.970   0.010  10.404 -0.0679  0.0550 -0.1711
13189PP      PP23293   6.165   0.366   3.727 -0.2069  0.1123  0.1846
13190PP      PP23294  14.259   1.111  11.302  0.2773 -0.4497  0.1900
13191PP      PP23295   1.290   4.989   0.885 -0.0310  0.0539  0.0616
13192PP      PP23296   1.526  10.033   3.186  0.1491 -0.1401 -0.3235
13193PP      PP23297   4.696  16.124   2.399  0.0363  0.2057  0.2270
13194PP      PP23298  10.309   0.790  10.846 -0.0815  0.2602 -0.1091
13195PP      PP23299   6.485   0.942   0.327 -0.2892  0.1268 -0.1018
13196PP      PP23300   6.580  13.010   0.795 -0.2053  0.2088  0.0660
13197PP      PP23301  16.328   8.749   0.960 -0.1919 -0.1145 -0.2390
13198PP      PP23302   8.490   5.811   3.399 -0.0407  0.0815 -0.2411
13199PP      PP23303   7.374  14.248  10.623  0.0549  0.0375 -0.2062
13200PP      PP23304   0.742  15.225   3.185  0.0766 -0.2403  0.0364
13201PP      PP23305   4.162   4.807   0.127 -0.0908 -0.0210  0.0709
13202PP      PP23306   9.949  13.041   9.926 -0.2540 -0.3348  0.2059
13203PP      PP23307   1.276   6.078  10.204 -0.3663 -0.0370 -0.0898
13204PP      PP23308   9.382   3.378   8.938  0.4030  0.0729 -0.1384
13205PP      PP23309   8.932   3.417  11.906  0.1601  0.1976 -0.1823
13206PP      PP23310  12.550   9.304   1.620 -0.1745  0.1103  0.2551
13207PP      PP23311   9.346   8.449  11.819 -0.2064  0.1072 -0.0729
13208PP      PP23312   0.217  15.839   0.525 -0.2091  0.0267 -0.1052
13209PP      PP23313   2.492   3.608   0.005 -0.0963 -0.0359 -0.1336
13210PP      PP23314   7.703   8.453   2.634  0.1761  0.0092 -0.0673
13211PP      PP23315   0.927   3.332  10.635 -0.0529  0.1287  0.1180
13212PP      PP23316  12.227   7.217  10.540 -0.1192 -0.1523 -0.1426
13213PP      PP23317  12.930  11.463   9.254  0.3141 -0.1227 -0.1315
13214PP      PP23318  11.374   2.833  12.393 -0.0654  0.2222 -0.4783
13215PP      PP23319  14.974  13.353   1.563 -0.0691  0.1006 -0.0470
13216PP      PP23320   8.066   5.975   9.968 -0.2290  0.0368 -0.2657
13217PP      PP23321   6.091  13.083   1.692 -0.0142  0.0599  0.1065
13218PP      PP23322   2.579  14.503  10.891  0.0559  0.0883  0.4293
13219PP      PP23323   5.271   3.442  10.744 -0.0446  0.1238  0.1617
13220PP      PP23324  10.300   2.503   0.735  0.1103 -0.1465  0.2477
13221PP      PP23325  14.088   9.249  12.045 -0.3496  0.0754  0.2025
13222PP      PP23326  16.293   6.956   0.479 -0.3842  0.2897  0.1020
13223PP      PP23327   6.036  13.574   4.021  0.2371  0.2022 -0.1565
13224PP      PP23328   1.765   7.593   8.863 -0.0846  0.1808  0.1347
13225PP      PP23329  14.954   3.332  11.331  0.1317  0.2682  0.1348
13226PP      PP23330  10.870  13.134   2.786 -0.0753  0.1256  0.1488
13227PP      PP23331  13.155   9.282  12.145  0.1426 -0.4221 -0.1382
13228PP      PP23332   3.317   0.948   2.738 -0.0988  0.4190 -0.0518
13229PP      PP23333   9.825   1.116   2.755 -0.1040 -0.0230 -0.2554
13230PP      PP23334   3.562   2.874  11.381 -0.1385 -0.4078 -0.1589
13231PP      PP23335   1.530  13.924   1.784  0.2897  0.1166  0.2379
13232PP      PP23336   2.285  11.723   1.503 -0.0073 -0.0131 -0.0161
13233PP      PP23337  15.838  10.932  11.976 -0.1277 -0.3272  0.2957
13234PP      PP23338   0.662  15.150   2.013  0.0211  0.0080  0.0500
13235PP      PP23339   1.618   6.207   9.252  0.1378  0.1530 -0.1303
13236PP      PP23340   5.398  13.500   3.300  0.1171  0.0507 -0.0087
13237PP      PP23341   9.897   5.677   1.106 -0.1547 -0.1255  0.0334
13238PP      PP23342   9.531   2.849   1.458 -0.1136 -0.2300  0.1254
13239PP      PP23343   1.003  10.244   9.496 -0.2738  0.0699 -0.0407
13240PP      PP23344   2.530  12.406   0.942 -0.0174 -0.2341 -0.0133
13241PP      PP23345  10.300   8.942  11.309  0.0190  0.0028  0.0001
13242PP      PP23346  13.045   7.728   7.929  0.1145 -0.0545 -0.2726
13243PP      PP23347  11.822  16.279   1.838 -0.2079 -0.0400 -0.0965
13244PP      PP23348   2.119  12.123   0.309 -0.0391  0.0059  0.0120
13245PP      PP23349   2.223   3.529   8.545  0.0205  0.0699 -0.2788
13246PP      PP23350   7.218  13.046  11.512 -0.0935 -0.3887 -0.2982
13247PP      PP23351  14.060   6.301   1.291  0.1806  0.2591 -0.1650
13248PP      PP23352   2.374   1.746   9.774  0.4542  0.1523  0.0743
13249PP      PP23353   3.436  15.162  11.617 -0.0844  0.5116 -0.0074
13250PP      PP23354  12.111  15.907   9.526 -0.3712  0.0701 -0.2016
13251PP      PP23355  10.633  12.159   2.214  0.0042  0.0286  0.3591
13252PP      PP23356  11.111   2.237   9.701  0.2190  0.2786  0.1206
13253PP      PP23357   7.582   3.666   4.308  0.2550 -0.2034  0.2888
13254PP      PP23358   0.464   9.042   2.855  0.0702 -0.1115 -0.0105
13255PP      PP23359   9.658   6.887  11.156 -0.3995 -0.1414 -0.1370
13256PP      PP23360   7.384  15.499  11.549 -0.0739 -0.3099  0.1100
13257PP      PP23361   1.661   4.647   4.161  0.1244  0.2066  0.4678
13258PP      PP23362   5.815   1.929  10.996  0.2631  0.2159 -0.0671
13259PP      PP23363   6.273  11.177   8.274  0.3646  0.1347 -0.3594
13260PP      PP23364  10.919   5.441   1.669  0.0139  0.0909 -0.0667
13261PP      PP23365   3.243  16.000   9.968 -0.0259 -0.2367  0.2938
13262PP      PP23366  10.729   4.194   9.289 -0.3240 -0.0502 -0.3045
13263PP      PP23367   2.402   0.013   2.938 -0.3101 -0.0111  0.1856
13264PP      PP23368  11.666   5.925   8.913 -0.1332  0.1455  0.2984
13265PP      PP23369   1.145  12.743   9.132  0.0793 -0.0253 -0.0126
13266PP      PP23370   6.408  10.226   9.601  0.1610  0.1023  0.2697
13267PP      PP23371  15.660  13.488   3.068  0.0938 -0.3411 -0.1622
13268PP      PP23372  13.813   7.721   1.724  0.1850  0.3115  0.0377
13269PP      PP23373   7.199   7.864   1.315  0.0249  0.1582 -0.2331
13270PP      PP23374   0.561   7.624   0.523  0.2115 -0.3491  0.2480
13271PP      PP23375   2.019   3.781  12.648 -0.2870 -0.0785 -0.0506
13272PP      PP23376  13.237   7.744   1.603  0.0182  0.2430  0.1100
13273PP      PP23377   0.970   4.528   0.239  0.3578  0.0431  0.1155
13274PP      PP23378   1.226   3.152   2.371 -0.0293  0.1533 -0.2325
13275PP      PP23379  10.182  14.480   0.524 -0.0233  0.1706  0.0353
13276PP      PP23380   3.536   9.024   0.417  0.1905  0.1023 -0.1049
13277PP      PP23381   7.569  11.699   3.542  0.1600  0.2769  0.0399
13278PP      PP23382  15.912   1.789  11.986 -0.0294 -0.2392  0.1745
13279PP      PP23383  13.553  11.270  10.468 -0.0614 -0.3081  0.2105
13280PP      PP23384  10.406  16.226  10.114 -0.1381  0.0818 -0.5271
13281PP      PP23385   6.248   6.762   1.601 -0.2488  0.0232 -0.2490
13282PP      PP23386  15.073   7.324   9.118 -0.1061 -0.0190 -0.1683
13283PP      PP23387  11.739   6.480   9.677 -0.0578 -0.0279  0.1567
13284PP      PP23388   5.723   8.965  10.838  0.0426 -0.2312 -0.2168
13285PP      PP23389  11.297   4.752   8.787 -0.1859 -0.1637 -0.0657
13286PP      PP23390   8.333   3.227   0.981 -0.0978 -0.1789 -0.2367
13287PP      PP23391  13.850  13.874   9.025 -0.1834  0.2333 -0.0166
13288PP      PP23392   8.481   9.339  10.119 -0.2961 -0.2528  0.0592
13289PP      PP23393   1.905   5.526   2.679  0.1998  0.3925  0.5497
13290PP      PP23394  10.444  13.413   4.287 -0.0696 -0.4693 -0.3193
13291PP      PP23395   1.450  10.719  12.617  0.0389  0.0388 -0.2055
13292PP      PP23396   8.874   4.775   0.881  0.1291  0.0743  0.4234
13293PP      PP23397  13.818  12.844   1.627  0.0836 -0.3152 -0.0322
13294PP      PP23398   6.111   4.844  10.118  0.0762 -0.0438 -0.0608
13295PP      PP23399   2.735  14.865   9.670  0.1518  0.1699  0.2405
13296PP      PP23400  13.614   7.349   8.407  0.0739 -0.1380  0.3210
13297PP      PP23401   6.154  15.685  11.082 -0.0079 -0.1346  0.0185
13298PP      PP23402   9.606   0.819   1.326 -0.0389 -0.1913 -0.3558
13299PP      PP23403  12.338  15.493  10.887  0.0747 -0.0285  0.2841
13300PP      PP23404  15.693   5.824   8.263  0.0993 -0.0447 -0.2008
13301PP      PP23405   2.265  11.037   9.551  0.0053  0.0354 -0.0305
13302PP      PP23406   0.455   2.841   1.247  0.0877  0.1293  0.0420
13303PP      PP23407  14.189   3.244   2.681  0.1129 -0.1918  0.1132
13304PP      PP23408   6.123  14.331  12.752  0.0742 -0.0564 -0.0409
13305PP      PP23409  16.080   0.526   0.790 -0.2721  0.4918 -0.0039
13306PP      PP23410   8.997   6.074  11.143  0.1179 -0.0585  0.0620
13307PP      PP23411  10.948  13.859   0.469  0.1710 -0.1834  0.1196
13308PP      PP23412  13.627   3.478   3.047  0.1960  0.2195  0.2717
13309PP      PP23413   9.094  12.942  11.683 -0.2424 -0.0496 -0.1815
13310PP      PP23414   2.256   7.472   0.078  0.4912  0.3798  0.1366
13311PP      PP23415  15.238  15.721  10.211  0.0876 -0.3855  0.0214
13312PP      PP23416  10.475   1.660  10.155  0.1107 -0.0317 -0.0026
13313PP      PP23417   9.801   2.461   2.830 -0.0679  0.1172 -0.0388
13314PP      PP23418  11.523   0.365  11.505  0.0290 -0.4755 -0.2242
13315PP      PP23419   0.229   4.976   2.562 -0.0892 -0.4443 -0.0582
13316PP      PP23420  11.870  13.536   0.239 -0.1156 -0.0149  0.0136
13317PP      PP23421   0.382  12.686   9.540  0.1570  0.2279 -0.0103
13318PP      PP23422   2.485  11.722  11.345  0.1715 -0.0783  0.0969
13319PP      PP23423   0.971   5.039   2.904  0.0925  0.3130  0.0774
13320PP      PP23424   7.101   8.190  11.303  0.1636 -0.2082  0.1023
13321PP      PP23425   6.783  12.490   3.533  0.0388  0.0859 -0.0567
13322PP      PP23426  12.903   7.394  12.608 -0.1408 -0.0351  0.1759
13323PP      PP23427   8.394  10.147  11.686 -0.0652 -0.0290  0.0721
13324PP      PP23428  11.018   8.880   2.320  0.0676 -0.1414  0.0585
13325PP      PP23429  10.515   6.884   0.214  0.1023  0.3655 -0.0909
13326PP      PP23430  11.746   7.368   7.671  0.1151  0.2673 -0.0468
13327PP      PP23431   8.034  10.113   8.857 -0.3363  0.3111 -0.4586
13328PP      PP23432  12.936   0.084   1.212 -0.0995  0.1558  0.1638
13329PP      PP23433   1.052   7.165   3.429 -0.2741  0.0398  0.4168
13330PP      PP23434   0.778  12.035   1.596 -0.2395 -0.0787  0.2934
13331PP      PP23435  11.385   5.227   3.586  0.1031  0.1863  0.0859
13332PP      PP23436  12.605   6.139   8.759  0.0436 -0.4254  0.1927
13333PP      PP23437   3.791   8.040   9.548 -0.0832  0.1018  0.3315
13334PP      PP23438   2.714   9.939   9.962  0.1606  0.2690  0.1765
13335PP      PP23439  10.975   0.353   0.648 -0.4702  0.0941 -0.1367
13336PP      PP23440   3.330   9.259  12.744 -0.1159 -0.1685  0.0506
13337PP      PP23441   0.471   5.932  10.725  0.0858  0.1015 -0.1215
13338PP      PP23442  10.538   3.376   1.268 -0.0089 -0.0307  0.6175
13339PP      PP23443  11.092  11.214   4.184 -0.1280 -0.2212 -0.0585
13340PP      PP23444   2.616   6.534  10.022  0.1548  0.0853 -0.3301
13341PP      PP23445   9.291   2.589  11.422 -0.1355  0.0011  0.1449
13342PP      PP23446   8.615   4.612   9.455  0.4351  0.0937  0.3307
13343PP      PP23447  14.664   0.463   0.210 -0.1847 -0.1313 -0.1209
13344PP      PP23448   0.760   7.294   9.751 -0.0611  0.0977  0.0265
13345PP      PP23449  15.885  13.294   1.748 -0.0203  0.3195 -0.0172
13346PP      PP23450  14.093   3.373  11.099  0.1618 -0.1492  0.0946
13347PP      PP23451   9.690  13.897   1.213  0.1712  0.2721 -0.2492
13348PP      PP23452   7.566   8.809  11.470 -0.1607 -0.1594  0.1372
13349PP      PP23453   8.474   2.232   0.080 -0.1827 -0.4087 -0.1246
13350PP      PP23454   4.125   5.518   8.978 -0.1982  0.0318  0.0601
13351PP      PP23455  13.002   1.576  10.640  0.4818  0.1471 -0.1194
13352PP      PP23456  13.040  10.233   9.986  0.0353  0.4004  0.2689
13353PP      PP23457   5.410  16.154   4.324  0.0547 -0.2823 -0.3520
13354PP      PP23458   6.804   5.578   8.419  0.0055  0.2709 -0.0868
13355PP      PP23459   8.279  11.714   2.739  0.3523 -0.0766  0.2578
13356PP      PP23460   4.397  15.920   8.596  0.2594  0.1415  0.1594
13357PP      PP23461   8.472   4.880   0.670  0.2296 -0.2553  0.2141
13358PP      PP23462  11.127   7.029   1.496  0.0052 -0.4078 -0.0224
13359PP      PP23463   9.906  11.061  11.089  0.1251  0.0991 -0.2782
13360PP      PP23464  14.859  15.585   2.939  0.0276 -0.1714  0.0858
13361PP      PP23465   1.738   3.305  11.362  0.5270 -0.1325 -0.1780
13362PP      PP23466   8.794  13.114   8.743  0.1039 -0.1899  0.0350
13363PP      PP23467  13.516  13.366   4.041  0.1053 -0.3214  0.0052
13364PP      PP23468   3.349   1.495   1.353  0.0237 -0.1090 -0.3742
13365PP      PP23469   9.024  15.845   0.117 -0.1785 -0.2014  0.2266
13366PP      PP23470  14.325   6.323   8.311 -0.0226  0.1721 -0.2198
13367PP      PP23471   1.268   9.283   0.762  0.1603 -0.3004 -0.0808
13368PP      PP23472  13.258  13.419  12.735  0.4596  0.0420 -0.0829
13369PP      PP23473  12.220   1.766   9.927  0.2429 -0.2274  0.2888
13370PP      PP23474   4.193   9.070  10.711  0.1507 -0.1004  0.3248
13371PP      PP23475   4.261   3.926   0.490 -0.4026 -0.0472  0.0176
13372PP      PP23476  13.389   0.975   2.031 -0.1234 -0.1080 -0.0949
13373PP      PP23477  16.130   0.506  11.275 -0.1026  0.1377  0.1097
13374PP      PP23478   6.977  13.795   8.287 -0.2544  0.0065 -0.0425
13375PP      PP23479   6.266   5.567   3.639 -0.1898 -0.1252  0.1219
13376PP      PP23480  10.436   3.757   4.282  0.0291  0.0635  0.0878
13377PP      PP23481   4.269  10.996   3.677  0.0381  0.1443  0.3867
13378PP      PP23482   0.483  11.698  11.812  0.2887  0.1010 -0.0165
13379PP      PP23483   0.431  12.242  12.747 -0.1275 -0.0045 -0.1016
13380PP      PP23484   0.179  14.128   1.037  0.1071  0.0286 -0.2786
13381PP      PP23485   8.364   4.658  11.545  0.0756 -0.2778  0.3039
13382PP      PP23486   0.000  15.106   0.065  0.0187 -0.0996  0.2027
13383PP      PP23487  10.151  11.958   9.669  0.3796 -0.0394  0.1308
13384PP      PP23488   3.945  13.028   9.983  0.0962  0.0611  0.0010
13385PP      PP23489  13.672  16.245   1.453 -0.2810 -0.0938  0.0398
13386PP      PP23490   8.947   5.584   9.608 -0.1798  0.0272  0.2788
13387PP      PP23491   2.439  15.457  12.117 -0.3910 -0.1153 -0.1487
13388PP      PP23492   9.559   6.444  10.496  0.1855  0.1142  0.0231
13389PP      PP23493   6.900  10.289   9.640 -0.0307 -0.1530  0.0395
13390PP      PP23494   5.653  13.949  10.364 -0.1235 -0.1324  0.3089
13391PP      PP23495   2.970  15.866   3.177  0.0451  0.3055 -0.2427
13392PP      PP23496   3.105  10.072   3.264 -0.0960 -0.0842  0.2264
13393PP      PP23497   2.525  11.306   1.674  0.1774  0.1972 -0.0828
13394PP      PP23498   4.778  10.549   1.680  0.0004  0.1302 -0.0676
13395PP      PP23499  10.161   4.285  11.419 -0.1158 -0.0494 -0.0439
13396PP      PP23500  14.989  16.201   3.788 -0.0130 -0.3931  0.0137
13397PP      PP23501  15.610  12.157   9.141 -0.0020 -0.2668 -0.0093
13398PP      PP23502  10.694   8.527   1.139  0.0419  0.1446 -0.0215
13399PP      PP23503  12.858   2.434   9.955  0.2700  0.2115 -0.0825
13400PP      PP23504   0.333  10.532   3.393  0.1324  0.0020 -0.2063
13401PP      PP23505   6.369  15.068   2.658 -0.1069  0.0623 -0.1137
13402PP      PP23506   4.590   6.256  11.978 -0.2516 -0.0202  0.1074
13403PP      PP23507   7.212  14.923  10.978 -0.3250 -0.2957  0.0268
13404PP      PP23508   9.813   3.294  12.215 -0.1874  0.1336  0.0414
13405PP      PP23509  14.911   9.477   3.391  0.2858 -0.1106 -0.1150
13406PP      PP23510   7.602  16.355   2.740  0.1388 -0.1507 -0.0867
13407PP      PP23511  13.889   3.879   3.176  0.0919  0.0800 -0.3661
13408PP      PP23512   1.868  15.952  10.085  0.1580  0.3810 -0.0670
13409PP      PP23513   8.748   6.208   8.949  0.2662  0.0287  0.0770
13410PP      PP23514   4.457   4.258  10.748 -0.4346 -0.2216  0.0576
13411PP      PP23515   1.581   6.161   0.379 -0.0294 -0.0432  0.0822
13412PP      PP23516   5.616   0.516  10.861  0.1639  0.0958 -0.0476
13413PP      PP23517   2.664  14.256   2.976 -0.3300  0.1206 -0.0319
13414PP      PP23518   3.498   9.612   2.106  0.3525  0.3927 -0.2154
13415PP      PP23519  14.543   1.478  10.909  0.1401 -0.1634  0.0736
13416PP      PP23520  11.431   9.378  12.489  0.1223  0.0879  0.0847
13417PP      PP23521  11.954   8.895   9.847  0.0802  0.1187 -0.1889
13418PP      PP23522   3.485  14.289   2.578 -0.1421  0.0803 -0.0014
13419PP      PP23523   2.774  15.167  11.443  0.0464 -0.0775  0.2084
13420PP      PP23524   2.387   2.353   1.787  0.1044 -0.1472 -0.3345
13421PP      PP23525  11.878  14.550   0.671  0.3449 -0.1425 -0.0402
13422PP      PP23526  11.350  11.965   2.606 -0.4892  0.1325  0.0174
13423PP      PP23527   1.990  11.271  10.020 -0.1098 -0.0438 -0.4094
13424PP      PP23528   9.791   0.801   8.820 -0.0709  0.0395  0.1001
13425PP      PP23529  12.015   5.853  10.393  0.0046  0.1993 -0.0572
13426PP      PP23530  10.028   5.124   9.324  0.2147 -0.0763 -0.0103
13427PP      PP23531   2.982   8.302   3.237 -0.1926  0.0418  0.1483
13428PP      PP23532   3.815   3.693   2.785 -0.0532  0.0805  0.2222
13429PP      PP23533   5.977   4.014   9.635  0.0504 -0.2406  0.0172
13430PP      PP23534   7.958  10.749   0.741 -0.0066 -0.0922 -0.0362
13431PP      PP23535   3.690  12.514   4.006 -0.1038 -0.1474  0.0271
13432PP      PP23536   4.567  12.914  11.221 -0.0307 -0.0563  0.0981
13433PP      PP23537  14.101   9.349  11.532  0.0180 -0.5328 -0.0408
13434PP      PP23538   1.829  10.806   0.313  0.2240  0.1595  0.3995
13435PP      PP23539  13.719   0.470  10.738  0.0889  0.2066 -0.3218
13436PP      PP23540  10.359  15.367   3.623 -0.3080  0.0727 -0.0284
13437PP      PP23541   5.585   4.743  10.003  0.2309  0.0327 -0.1001
13438PP      PP23542  14.286   7.334   3.221 -0.1053  0.1268  0.1841
13439PP      PP23543   9.492   9.402  12.565 -0.1100 -0.1014 -0.0725
13440PP      PP23544  11.198  11.096  11.725 -0.1490  0.0929 -0.0769
13441PP      PP23545   9.138   2.836   3.669  0.2449 -0.2545  0.2055
13442PP      PP23546   8.834   4.796   2.624 -0.0831  0.1737  0.3513
13443PP      PP23547   3.616   0.808   3.595  0.0332  0.0797  0.0714
13444PP      PP23548   3.745   0.003  12.572 -0.2380 -0.1292  0.0319
13445PP      PP23549  13.762   2.963   3.937 -0.3463  0.1730 -0.1477
13446PP      PP23550   6.298   9.545   3.558 -0.0399  0.0079 -0.4202
13447PP      PP23551  13.466   3.853   9.911  0.2214  0.1466  0.2789
13448PP      PP23552   1.892  14.280  11.854  0.1177 -0.0998  0.2762
13449PP      PP23553  13.628   5.018   3.202  0.0930  0.1246  0.0247
13450PP      PP23554   9.541   0.360  11.967 -0.0239  0.1875 -0.0281
13451PP      PP23555   1.135   1.227  11.602  0.1821 -0.1917  0.3299
13452PP      PP23556   7.728   6.115  12.567 -0.1479  0.0041  0.1971
13453PP      PP23557  11.818  13.825   0.701  0.3220 -0.2297 -0.0935
13454PP      PP23558  16.189  13.464  10.095  0.1788  0.0161 -0.1325
13455PP      PP23559   2.492   6.639   9.497  0.1297 -0.1459  0.2915
13456PP      PP23560  11.874  14.240   1.831 -0.2055  0.1386  0.3398
13457PP      PP23561   5.518   5.243   9.758 -0.1181 -0.0939 -0.0211
13458PP      PP23562   2.044  10.779   2.944  0.0938 -0.0252  0.0313
13459PP      PP23563  12.323  14.691  10.591  0.0174  0.0399 -0.0045
13460PP      PP23564  10.852   1.827   0.458  0.4429 -0.0954 -0.0501
13461PP      PP23565  14.242  12.767  12.552  0.1067  0.1994  0.4413
13462PP      PP23566   3.105   2.491   2.930 -0.0869  0.2974  0.2623
13463PP      PP23567  14.853  14.115   0.621 -0.1192 -0.1983 -0.1703
13464PP      PP23568   3.343  12.605  10.691 -0.4126  0.1190 -0.0449
13465PP      PP23569   6.927   8.385  10.594  0.0685  0.2360  0.1162
13466PP      PP23570   8.755  12.952  10.839 -0.2898  0.0828 -0.0486
13467PP      PP23571  10.426   0.421   9.463 -0.4746  0.0935  0.0750
13468PP      PP23572  12.162  13.938   1.468  0.2727  0.1565 -0.0771
13469PP      PP23573   2.741  12.120  10.825 -0.0090 -0.0420 -0.0258
13470PP      PP23574  12.868   2.249  12.749 -0.0165  0.5097 -0.1582
13471PP      PP23575   0.005   1.825  11.536 -0.0560  0.2023 -0.0707
13472PP      PP23576   5.283  12.238   0.240  0.0421 -0.0923  0.0228
13473PP      PP23577  11.688   2.770  10.745  0.0299 -0.0580 -0.0173
13474PP      PP23578   2.868   4.294  11.633  0.2173  0.3760 -0.0602
13475PP      PP23579  14.183  15.634   0.268  0.0102 -0.1202 -0.2638
13476PP      PP23580   3.130   5.984   0.793  0.1131 -0.0631  0.1366
13477PP      PP23581   5.163   8.939  12.454 -0.1101  0.1350 -0.1618
13478PP      PP23582  10.173   1.384   3.896  0.1584 -0.1772  0.0134
13479PP      PP23583  14.553   2.337   1.766  0.0811  0.2342 -0.2180
13480PP      PP23584  10.391   4.051   2.542 -0.1200 -0.0095 -0.3405
13481PP      PP23585   1.103   5.250  11.015 -0.1285  0.1335 -0.1662
13482PP      PP23586   7.801  11.637  11.155 -0.0321 -0.0467 -0.0887
13483PP      PP23587   3.633   4.495   9.594  0.0142  0.0833  0.0726
13484PP      PP23588   9.707   7.890  11.428  0.0436  0.0893 -0.2387
13485PP      PP23589  14.871  11.535   1.442  0.2614  0.0433 -0.1773
13486PP      PP23590   9.414  13.182  12.472  0.2715 -0.0465 -0.0231
13487PP      PP23591   9.758  15.760  10.187 -0.2076  0.0549 -0.0102
13488PP      PP23592   0.448   4.754   8.870 -0.3802 -0.0766  0.2254
13489PP      PP23593   1.345   5.796   1.566  0.2105 -0.1332  0.3896
13490PP      PP23594  14.068  11.604  11.931  0.0620  0.3587  0.0991
13491PP      PP23595   2.090   8.365   0.761 -0.0072 -0.2788 -0.0294
13492PP      PP23596  11.849  12.120  10.269 -0.1769 -0.1783  0.0951
13493PP      PP23597   1.745   8.370   2.460 -0.0068  0.1238 -0.0116
13494PP      PP23598  13.211   2.438  10.519  0.0843 -0.0815 -0.0553
13495PP      PP23599  10.672   1.444   9.256  0.0959 -0.0511  0.1338
13496PP      PP23600  14.554  15.957  11.392 -0.1509  0.0260  0.0177
13497PP      PP23601   9.812   7.047  12.236 -0.2259  0.0151  0.0546
13498PP      PP23602   9.636   1.694   1.600 -0.3245  0.3126 -0.0138
13499PP      PP23603  14.617   0.046   9.620 -0.0697  0.2722 -0.3338
13500PP      PP23604  15.951   7.869   9.944 -0.1854  0.1784 -0.1083
13501PP      PP23605  12.355  11.847   8.803  0.2131  0.3380  0.0451
13502PP      PP23606  14.341   2.064  12.273  0.0249  0.0026 -0.2393
13503PP      PP23607  11.642  11.741   2.956  0.1839  0.1591 -0.4416
13504PP      PP23608   3.208   9.664  10.381 -0.1005 -0.1136  0.2947
13505PP      PP23609  12.566   5.086   8.833  0.2048  0.1953  0.1018
13506PP      PP23610  13.930  10.689   2.974  0.2386  0.1405  0.3098
13507PP      PP23611  16.215   9.229   9.565 -0.1191 -0.2187 -0.0411
13508PP      PP23612  14.296   5.818  12.588  0.0127  0.0049  0.0986
13509PP      PP23613   5.781  10.830  10.500  0.0202 -0.2792 -0.1715
13510PP      PP23614   5.359   4.616  11.753 -0.1947  0.0853  0.0976
13511PP      PP23615   1.917   3.431   0.273 -0.2174  0.0892 -0.1595
13512PP      PP23616  15.192   4.636   0.310  0.1438 -0.0761  0.1211
13513PP      PP23617   3.896   8.671  12.500  0.2023  0.1998  0.0441
13514PP      PP23618  14.680   1.564  10.350 -0.1945 -0.1174  0.3082
13515PP      PP23619   7.744  16.055   2.320  0.0415 -0.2123  0.2970
13516PP      PP23620  10.545   3.556  10.321  0.0969 -0.1029 -0.4323
13517PP      PP23621   1.347   2.738  12.363 -0.0295 -0.0166  0.1470
13518PP      PP23622  10.079  14.029   3.909 -0.2587 -0.1250 -0.0988
13519PP      PP23623   4.802   5.991   9.318 -0.2040  0.1076 -0.2097
13520PP      PP23624  15.704   8.455   3.026  0.4256  0.0085 -0.2193
13521PP      PP23625   2.022   4.489   1.350  0.2355  0.0442  0.0385
13522PP      PP23626  12.342  14.690   9.979 -0.3659  0.3377 -0.1749
13523PP      PP23627  15.255  13.482  11.008 -0.2633  0.0409 -0.0690
13524PP      PP23628  12.956  12.466   3.578 -0.1939 -0.2480 -0.0065
13525PP      PP23629   6.588  12.144   0.851 -0.2394  0.0427 -0.3016
13526PP      PP23630  14.805   0.542  12.381 -0.0300  0.1504  0.0494
13527PP      PP23631   1.218   5.033   8.603  0.0526  0.1550 -0.1538
13528PP      PP23632   3.513   6.702  11.143 -0.0673  0.0573 -0.4070
13529PP      PP23633   9.357  10.972  10.184 -0.0970  0.1329  0.1080
13530PP      PP23634   6.472   6.470   8.807  0.1174  0.0779 -0.1845
13531PP      PP23635  11.128   6.715  11.332  0.1028  0.0562 -0.0126
13532PP      PP23636   2.218  14.726   1.868 -0.2664 -0.0390 -0.0343
13533PP      PP23637   3.451   4.628   0.582  0.2803  0.0586  0.0720
13534PP      PP23638   8.199   1.866  10.652  0.1113 -0.0648  0.1097
13535PP      PP23639   3.763   0.258  10.089 -0.1217  0.1909 -0.1653
13536PP      PP23640  10.728   9.978  11.169 -0.1805  0.0340 -0.0895
13537PP      PP23641  13.386   8.906   3.888  0.2064 -0.1154 -0.0248
13538PP      PP23642   0.656  12.926   9.214  0.0077  0.0412  0.1599
13539PP      PP23643   5.313   5.422  10.557  0.1004 -0.2603  0.0795
13540PP      PP23644  12.106  15.747  11.258 -0.0508  0.3023  0.0315
13541PP      PP23645  14.751   1.131   0.728 -0.2383  0.1535  0.0935
13542PP      PP23646  11.380  11.146   9.470  0.1556  0.0414  0.3537
13543PP      PP23647   8.967  11.580   1.056  0.0088  0.0758 -0.1353
13544PP      PP23648   0.252  13.773   2.152 -0.0787 -0.0580  0.0434
13545PP      PP23649   6.197  13.308   9.472 -0.1560  0.0095 -0.1155
13546PP      PP23650  15.953  12.368  10.931  0.2283 -0.1356  0.0870
13547PP      PP23651  10.004   8.689  12.577  0.0375 -0.1865 -0.1893
13548PP      PP23652  15.351   3.007  11.431  0.1793  0.0438 -0.2065
13549PP      PP23653   1.755  15.101   4.359  0.2961  0.0899  0.0639
13550PP      PP23654  11.887  14.490  10.489  0.0338 -0.1747  0.0865
13551PP      PP23655   7.099   5.362   2.194 -0.0287  0.1855 -0.1437
13552PP      PP23656   4.661   1.232   0.904 -0.1233  0.2999 -0.2915
13553PP      PP23657   9.140   8.422  12.231  0.2962  0.2869  0.1585
13554PP      PP23658  11.837  10.323   8.204 -0.2506  0.0782 -0.1841
13555PP      PP23659   0.292   5.136   0.059 -0.3464  0.1813  0.0339
13556PP      PP23660   6.463   3.612  12.322 -0.0358  0.2333  0.0132
13557PP      PP23661   1.646   3.770  11.588 -0.0819 -0.2591 -0.1499
13558PP      PP23662   3.944   3.015   1.748 -0.0042  0.2160 -0.0509
13559PP      PP23663   7.841  16.154   4.813 -0.0361  0.4426  0.0489
13560PP      PP23664   0.992  12.189   8.549  0.0850 -0.0328  0.0592
13561PP      PP23665  15.534   0.995  10.502 -0.1149 -0.3357  0.2827
13562PP      PP23666   8.208  16.118   3.362 -0.0318  0.0914  0.0286
13563PP      PP23667  11.011   5.023   8.311 -0.4299 -0.0794 -0.0922
13564PP      PP23668   5.562   8.613   0.562 -0.0027 -0.1222  0.5789
13565PP      PP23669   5.150  13.728  10.256  0.0373 -0.0484  0.2311
13566PP      PP23670   8.992   2.893  11.702  0.1884 -0.0649  0.1794
13567PP      PP23671  10.362   2.429  11.297 -0.0288 -0.0447 -0.2953
13568PP      PP23672   8.382  13.382  12.405 -0.1644  0.0806 -0.0688
13569PP      PP23673   1.446  12.960   1.802 -0.2356  0.3418  0.0302
13570PP      PP23674   0.201   9.559  10.319  0.0664 -0.2603 -0.0449
13571PP      PP23675  10.381  10.304  12.726 -0.2449  0.1256 -0.1419
13572PP      PP23676   5.097  12.742   2.596  0.2208 -0.2318 -0.0365
13573PP      PP23677   4.236   0.107  11.663  0.1117  0.0770  0.2854
13574PP      PP23678  15.043   3.725  12.127  0.1410  0.0645  0.0276
13575PP      PP23679  13.701  13.624   1.203 -0.0863  0.3668  0.5323
13576PP      PP23680  10.198   2.171   2.929 -0.1507 -0.0377 -0.0692
13577PP      PP23681   5.688   4.080   0.432  0.1826 -0.1813 -0.4223
13578PP      PP23682  13.994  11.466   9.115 -0.1296  0.2331  0.4635
13579PP      PP23683  12.792  14.600  10.386  0.3313 -0.2405 -0.2283
13580PP      PP23684  15.036   3.588   2.734  0.4010  0.0488  0.0082
13581PP      PP23685  15.109   6.412  12.515 -0.2407  0.0694  0.2818
13582PP      PP23686  10.277   2.229   3.777 -0.1186  0.0243  0.0949
13583PP      PP23687   3.485   1.703  10.899  0.0027 -0.1872  0.2292
13584PP      PP23688   9.848  14.904   9.601 -0.1721  0.0688 -0.1312
13585PP      PP23689   0.613   1.899   8.869 -0.3056 -0.0970  0.0645
13586PP      PP23690   7.865   8.961   8.922 -0.0719  0.0695 -0.0123
13587PP      PP23691  11.584   1.293  10.347 -0.1993  0.1474  0.0868
13588PP      PP23692  11.162   9.027   1.787 -0.1792  0.0695  0.0957
13589PP      PP23693  11.535   2.490   9.050 -0.0608  0.1013 -0.2609
13590PP      PP23694  13.663   5.076   4.291 -0.1044  0.2558 -0.0469
13591PP      PP23695  10.724   7.750   0.770 -0.0058 -0.0121  0.0682
13592PP      PP23696   7.464   4.559   0.603 -0.0174  0.0330 -0.0448
13593PP      PP23697   4.040  15.495  12.479 -0.1062  0.0741 -0.2272
13594PP      PP23698   5.850   8.149  11.913 -0.1189  0.2448 -0.0177
13595PP      PP23699   8.271   6.098   7.447  0.2300  0.1809  0.1011
13596PP      PP23700  12.288   9.495   1.993  0.0674 -0.2254 -0.0886
13597PP      PP23701   8.220   6.125  10.699 -0.2006  0.2453 -0.1759
13598PP      PP23702   9.075   0.692   1.719 -0.3217 -0.1275  0.0709
13599PP      PP23703  11.570  12.291   8.889  0.2755 -0.2936  0.2590
13600PP      PP23704   1.521   8.527   9.001  0.1926  0.0917  0.1750
13601PP      PP23705   1.894   5.153  11.383 -0.3179 -0.1830  0.1567
13602PP      PP23706   5.230   9.481   0.721  0.4221  0.1356  0.1717
13603PP      PP23707   5.943   6.812  10.538 -0.0361 -0.1415  0.0762
13604PP      PP23708   9.555   0.230   0.449 -0.1842  0.2325 -0.1234
13605PP      PP23709   0.395  10.021   2.181  0.1104 -0.2049  0.0551
13606PP      PP23710   3.658  15.389   9.338  0.1012  0.1686  0.0301
13607PP      PP23711  13.853   9.952   0.071 -0.0896 -0.2149 -0.0888
13608PP      PP23712  15.712   5.329   0.225  0.0313 -0.4056  0.0826
13609PP      PP23713   5.727  10.345   2.359  0.0768  0.1784  0.1530
13610PP      PP23714   1.950   3.411  10.938 -0.1467  0.0477 -0.0466
13611PP      PP23715   4.640  10.068   1.481  0.1042 -0.0874  0.0146
13612PP      PP23716   1.213   1.943   2.161 -0.0415  0.0633 -0.0888
13613PP      PP23717   8.671  13.518   8.983 -0.2274 -0.2383  0.1476
13614PP      PP23718  12.488  10.817   8.840 -0.0132  0.1412 -0.2154
13615PP      PP23719   4.019   8.296  11.004 -0.0598 -0.1659  0.0143
13616PP      PP23720  13.558   1.414   3.462  0.0983  0.0643  0.0130
13617PP      PP23721   6.908   6.904   1.529 -0.1641  0.0070 -0.3655
13618PP      PP23722  11.423  13.980   9.706  0.3427  0.0735  0.2497
13619PP      PP23723  10.514   1.780   2.895  0.0800 -0.4945  0.2176
13620PP      PP23724   4.831  13.388   3.338 -0.2257 -0.3247  0.0206
13621PP      PP23725   2.091  10.553   1.470 -0.4808 -0.1928  0.1367
13622PP      PP23726   2.240   6.940   9.921 -0.1700 -0.0400  0.1577
13623PP      PP23727   4.152  15.473   1.400 -0.1157  0.0790  0.0437
13624PP      PP23728   7.680   5.998   0.462  0.3735 -0.0629 -0.1481
13625PP      PP23729   1.738   6.692  11.217  0.0395  0.0832 -0.1326
13626PP      PP23730  10.782  13.044   1.004 -0.5161  0.1744 -0.3099
13627PP      PP23731   0.362  14.898   1.345 -0.1068  0.1350  0.2652
13628PP      PP23732   3.166   8.374  10.027  0.1899 -0.2920 -0.1512
13629PP      PP23733   3.371   0.832   9.002  0.0317  0.1637  0.0383
13630PP      PP23734   6.524   9.239  11.087 -0.0372  0.0698  0.0322
13631PP      PP23735   7.817  11.116  10.353  0.1023  0.1816 -0.0749
13632PP      PP23736   9.671  14.306   4.168 -0.0785  0.3293  0.0538
13633PP      PP23737  14.476  12.328   3.176  0.1620 -0.0812 -0.3157
13634PP      PP23738   3.971  14.798   2.235 -0.1047 -0.0299  0.0303
13635PP      PP23739   5.245   3.907   0.639 -0.1869 -0.1484 -0.2096
13636PP      PP23740   7.240   1.396   3.638 -0.2027  0.2554  0.1354
13637PP      PP23741   6.629   4.314  11.793  0.0128 -0.3142  0.1435
13638PP      PP23742   3.229   3.440   1.635 -0.1531  0.3502  0.0579
13639PP      PP23743  13.986   2.329   1.886 -0.3483  0.0608 -0.2258
13640PP      PP23744   0.945   1.411  10.229 -0.1376 -0.0790 -0.3038
13641PP      PP23745   8.046   4.479   0.639 -0.2405  0.0315 -0.0666
13642PP      PP23746   0.739  13.864   1.248 -0.0070 -0.0956 -0.2031
13643PP      PP23747  12.420   8.792   9.305 -0.1762 -0.2212  0.1971
13644PP      PP23748  11.305   1.535   1.734 -0.1198  0.3240  0.0475
13645PP      PP23749  10.116  16.214   3.306  0.0054  0.1138  0.0004
13646PP      PP23750  12.339  11.103   9.904 -0.1986 -0.1960  0.2927
13647PP      PP23751   5.106   4.128   2.361  0.2074  0.2758  0.1519
13648PP      PP23752  16.072  13.150   2.830  0.2537 -0.0067  0.1687
13649PP      PP23753   3.294  11.369  11.751 -0.1000  0.2172  0.1710
13650PP      PP23754   2.305  10.087   1.697  0.0873  0.1542  0.0616
13651PP      PP23755  16.353   1.617  12.092  0.1952 -0.0061  0.3077
13652PP      PP23756  10.916   7.760   2.950  0.0007  0.2866  0.2067
13653PP      PP23757   3.676  15.278   2.882  0.3021  0.0806  0.0130
13654PP      PP23758  15.753  14.979  12.752  0.0113  0.0304  0.1153
13655PP      PP23759  13.306   3.340   9.179 -0.3821 -0.1245 -0.5263
13656PP      PP23760  15.087  14.628  10.313 -0.0669 -0.1234  0.0735
13657PP      PP23761   8.115   8.627  12.176  0.0455 -0.2005 -0.2938
13658PP      PP23762   1.914  14.166   9.907 -0.0181  0.0681 -0.3854
13659PP      PP23763  15.240   5.300   1.361  0.0830 -0.1484 -0.1221
13660PP      PP23764   9.066   7.819   1.826 -0.1536  0.3458  0.0936
13661PP      PP23765  12.964  11.422   1.456  0.1567  0.4037 -0.2208
13662PP      PP23766   9.237   2.903   2.668 -0.0229 -0.1425  0.0770
13663PP      PP23767  13.233   2.984  10.456 -0.4031 -0.2029  0.0795
13664PP      PP23768  12.861   0.150   0.702 -0.0691 -0.3004 -0.0908
13665PP      PP23769   7.356   7.878   0.548  0.0692  0.1300 -0.0144
13666PP      PP23770   1.780  11.583   8.711 -0.0928  0.2716 -0.2033
13667PP      PP23771  10.610   7.429   2.660 -0.1133 -0.2920 -0.0143
13668PP      PP23772  13.394   8.398  11.772  0.1054  0.2391  0.0042
13669PP      PP23773   9.620   9.538   0.769 -0.2930  0.0412 -0.0216
13670PP      PP23774   3.209   2.161   9.214 -0.1709 -0.6576  0.0613
13671PP      PP23775   7.390   9.258   1.914 -0.1432 -0.0655 -0.2619
13672PP      PP23776  15.672   2.636   2.656  0.0615  0.3318 -0.3141
13673PP      PP23777   2.816  10.673  11.641 -0.2323  0.3146 -0.0250
13674PP      PP23778   7.006   5.606   7.950  0.0396  0.0132  0.1748
13675PP      PP23779  14.428  15.625   4.261 -0.0867 -0.1054  0.0314
13676PP      PP23780  11.688   7.818  11.732  0.0406 -0.0468 -0.0805
13677PP      PP23781  12.680  15.422  10.124 -0.1427  0.2022  0.1290
13678PP      PP23782   8.134  12.135  11.893  0.1361 -0.0252 -0.0213
13679PP      PP23783   9.557   5.299   3.250  0.0500 -0.1617 -0.1253
13680PP      PP23784  14.336   4.242   1.683 -0.0817  0.0433 -0.0570
13681PP      PP23785  14.444  13.374  12.752 -0.3037 -0.0373  0.1001
13682PP      PP23786   0.834  10.051   8.649 -0.0641 -0.2820 -0.3596
13683PP      PP23787   0.323   0.749  11.674  0.0130  0.0908  0.1842
13684PP      PP23788  16.071  12.735  10.589 -0.1854 -0.1409  0.2758
13685PP      PP23789  10.979  15.154   3.634 -0.2708  0.1797  0.1759
13686PP      PP23790  13.024  14.757   2.761 -0.1478 -0.2572  0.0760
13687PP      PP23791   2.967   3.960   0.027  0.0464  0.1708  0.2642
13688PP      PP23792   3.594   9.436  11.828  0.0877 -0.1288  0.0640
13689PP      PP23793   9.477  15.032  10.330  0.2083  0.0862  0.1875
13690PP      PP23794  11.754   0.852   3.045  0.1741 -0.0418 -0.0149
13691PP      PP23795   3.091   5.709   2.595 -0.3147 -0.4457 -0.2945
13692PP      PP23796   1.495   7.362   8.446  0.0081  0.3821  0.0810
13693PP      PP23797  11.304   0.984   1.909  0.1442  0.2216 -0.0239
13694PP      PP23798   6.144   1.961   4.709  0.2829  0.2279 -0.2133
13695PP      PP23799  12.678   5.694   8.797  0.0734  0.1482 -0.0677
13696PP      PP23800   7.580   9.287  12.585 -0.2392 -0.1999  0.1111
13697PP      PP23801   1.431  11.640   9.447 -0.1232  0.0465  0.1633
13698PP      PP23802  12.445   7.758   2.118  0.0137 -0.1081 -0.1455
13699PP      PP23803   5.955  13.524  12.160  0.2833  0.0661  0.2398
13700PP      PP23804   3.785   1.209   1.370 -0.0056  0.0230 -0.0206
13701PP      PP23805  13.781   6.441  11.405 -0.4112  0.0088 -0.2912
13702PP      PP23806  15.532  11.105   9.016  0.0672  0.1503  0.5408
13703PP      PP23807   3.223   8.334  11.867  0.4118  0.2845 -0.2932
13704PP      PP23808   8.376   2.392   8.158  0.2378 -0.1455 -0.2059
13705PP      PP23809   1.721   1.729   0.138 -0.0316 -0.1640  0.2895
13706PP      PP23810   7.601  14.007   0.171 -0.0962 -0.0024  0.1198
13707PP      PP23811  11.562   7.380   0.952  0.2261  0.2312  0.1160
13708PP      PP23812  11.233  13.790   4.204  0.0972  0.0140  0.1899
13709PP      PP23813  15.426   1.569   9.873  0.2147 -0.1149 -0.3644
13710PP      PP23814   4.369   8.557  12.040 -0.4881  0.0266 -0.2409
13711PP      PP23815  12.940  16.304  11.128  0.0552 -0.1045 -0.2121
13712PP      PP23816  11.108   4.670   1.097  0.3142  0.0738  0.0196
13713PP      PP23817   8.634   0.975  10.030  0.1460 -0.0299  0.3916
13714PP      PP23818   2.743  12.366   8.038  0.2181  0.0318 -0.2119
13715PP      PP23819  12.937   9.728  10.066 -0.1848 -0.1071 -0.1349
13716PP      PP23820   2.391   6.696   8.553 -0.1592  0.0093  0.3430
13717PP      PP23821   6.380  13.705  11.402  0.2059  0.3356 -0.1541
13718PP      PP23822   1.663  14.146   3.316  0.4256 -0.0008  0.0103
13719PP      PP23823   7.218  11.149   0.152 -0.0058  0.0586  0.0109
13720PP      PP23824  11.111   3.312   8.360  0.0355  0.0794  0.1278
13721PP      PP23825   4.478  10.689  11.650 -0.0854 -0.3686 -0.2140
13722PP      PP23826  12.279  14.608   9.450  0.0702 -0.2095  0.0386
13723PP      PP23827  10.976  10.464   3.718 -0.4168  0.3068  0.1047
13724PP      PP23828  13.140   9.683   0.677 -0.0236 -0.0723 -0.1405
13725PP      PP23829  15.530   1.873   8.796  0.4002 -0.1367  0.0846
13726PP      PP23830   4.301  13.189   0.624 -0.0476 -0.3215 -0.0677
13727PP      PP23831  15.068   0.750  10.788 -0.1024 -0.0458 -0.1143
13728PP      PP23832   1.530  13.153   3.609  0.1804 -0.2341 -0.0922
13729PP      PP23833   8.501   5.244   1.039 -0.0515 -0.0842  0.1379
13730PP      PP23834  13.196   4.816  12.037  0.3687 -0.2342 -0.2350
13731PP      PP23835  15.753   1.517  11.171  0.0281  0.3037  0.0608
13732PP      PP23836   3.657   1.806   1.750 -0.0300 -0.2647  0.0199
13733PP      PP23837   8.867   9.335  11.930  0.0653 -0.0215  0.0376
13734PP      PP23838   1.258   9.822   1.535 -0.0635 -0.1676 -0.2298
13735PP      PP23839   0.708   8.253   3.657 -0.0024  0.3295  0.0829
13736PP      PP23840  14.280   1.409  10.156 -0.1620 -0.0783  0.0863
13737PP      PP23841   0.093  15.145   4.455 -0.2845  0.2427  0.3130
13738PP      PP23842   9.162   3.366   3.746 -0.3371 -0.1393  0.0563
13739PP      PP23843   8.570  15.121   3.442 -0.0656  0.3194  0.3940
13740PP      PP23844   4.422   4.564   9.371 -0.0175  0.0632 -0.1136
13741PP      PP23845   1.913  12.951  10.587 -0.3587 -0.2221  0.0370
13742PP      PP23846   0.591  10.744  11.633 -0.0092 -0.0587 -0.2477
13743PP      PP23847  11.981  11.020  10.225 -0.1060  0.0349  0.1741
13744PP      PP23848  15.418   3.921   2.811  0.1349 -0.1833 -0.0965
13745PP      PP23849   9.327   8.422  10.161 -0.0586 -0.2020 -0.1006
13746PP      PP23850   3.503   0.106   8.351  0.1364  0.1785  0.2800
13747PP      PP23851   7.049   4.531   0.308 -0.0725 -0.0252  0.2301
13748PP      PP23852   8.221  13.894   2.920  0.3955  0.1294 -0.1054
13749PP      PP23853   4.721  12.618   2.268  0.2350 -0.1713 -0.3332
13750PP      PP23854  12.133   0.778   0.782 -0.0162 -0.0426  0.0606
13751PP      PP23855  11.798   8.699  10.256  0.0048  0.3734  0.4023
13752PP      PP23856  14.211   3.784   0.302 -0.0053 -0.0411  0.1274
13753PP      PP23857  15.591  14.057   2.963  0.0386  0.0878 -0.2289
13754PP      PP23858  11.599  13.859  11.378 -0.1119  0.1156 -0.0705
13755PP      PP23859  15.888   7.690   2.425 -0.1328  0.0251 -0.0078
13756PP      PP23860  11.597   8.481   9.394 -0.1152 -0.3047 -0.1499
13757PP      PP23861  16.272   5.043   8.400 -0.0216 -0.0512 -0.1984
13758PP      PP23862   3.510   5.147   0.905  0.2270 -0.1857  0.2621
13759PP      PP23863  16.040  11.747  11.554 -0.3013  0.0641  0.0498
13760PP      PP23864   9.145   4.283  12.483 -0.2149  0.2106  0.1372
13761PP      PP23865   9.423   4.523   0.956  0.0746 -0.2481 -0.0250
13762PP      PP23866   8.165  11.607  10.293  0.0175  0.1186 -0.0462
13763PP      PP23867   2.663   3.842  10.854  0.0650  0.1675  0.2254
13764PP      PP23868  15.964   6.190   0.313  0.0080 -0.2316  0.0686
13765PP      PP23869   7.552  13.913   3.391  0.2696 -0.5256  0.0342
13766PP      PP23870   0.635   9.249   1.553 -0.5463  0.0647  0.2603
13767PP      PP23871  14.697  14.421  10.009 -0.2663 -0.0085  0.4492
13768PP      PP23872   9.820  13.600   0.614  0.1443  0.0432 -0.2722
13769PP      PP23873   5.957  15.682   3.698  0.0235 -0.3460 -0.2695
13770PP      PP23874   9.483  14.645   3.754 -0.0671  0.2775  0.4443
13771PP      PP23875   2.256  15.647   3.375 -0.1069 -0.3605 -0.1568
13772PP      PP23876  10.859  15.198   1.852 -0.1297  0.2932 -0.2304
13773PP      PP23877   3.843  14.715   8.597 -0.0128 -0.0547 -0.1851
13774PP      PP23878   9.831   2.700   8.412 -0.0336  0.1922  0.2124
13775PP      PP23879  12.617   3.770   0.688  0.1525 -0.1023 -0.0600
13776PP      PP23880   7.589  11.007   1.615 -0.2978  0.0194 -0.1894
13777PP      PP23881   0.244   1.113   1.286 -0.0538  0.1520  0.3085
13778PP      PP23882   8.067  12.980  10.808 -0.2545 -0.3255  0.0086
13779PP      PP23883  14.459  14.006   9.664  0.1419 -0.0106 -0.0103
13780PP      PP23884   1.062   8.843   1.916 -0.1159 -0.1793 -0.1209
13781PP      PP23885  12.823   9.968   9.630  0.1278 -0.0972 -0.3040
13782PP      PP23886  10.336   0.065   0.797  0.1899  0.1364  0.3570
13783PP      PP23887  16.278  12.855  10.152  0.3414  0.2470  0.3870
13784PP      PP23888   5.562   3.024  11.513 -0.0259 -0.0738 -0.0355
13785PP      PP23889   4.405  10.960   2.409 -0.2009 -0.2119 -0.2650
13786PP      PP23890   2.297  13.585   0.986  0.1577 -0.1772 -0.1149
13787PP      PP23891   0.317  14.870   0.855 -0.0753 -0.0281 -0.2354
13788PP      PP23892   6.368   5.327   0.056  0.0419 -0.0160  0.3509
13789PP      PP23893   0.786  12.778   4.077 -0.2932  0.0809 -0.0479
13790PP      PP23894  12.646   0.231  12.729 -0.0167 -0.3248 -0.3489
13791PP      PP23895   7.289   4.556   3.971  0.1178  0.1367 -0.0285
13792PP      PP23896   5.258  11.211   3.450  0.1114  0.1442 -0.1676
13793PP      PP23897   6.554   8.297   0.216 -0.1641  0.0418  0.0250
13794PP      PP23898   8.525   4.864   1.368 -0.3899 -0.0915 -0.1904
13795PP      PP23899   4.583   9.516   8.863  0.0485 -0.0605  0.0489
13796PP      PP23900   9.001   8.108  10.979  0.0736 -0.3907 -0.3288
13797PP      PP23901   8.897   1.266   9.194 -0.0441  0.1574  0.3999
13798PP      PP23902  10.212   1.011  11.590 -0.1474 -0.0532  0.1133
13799PP      PP23903  14.709   5.686   0.073  0.0890  0.1376  0.0201
13800PP      PP23904   8.285   2.989   4.021  0.1230  0.0047 -0.1764
13801PP      PP23905   5.492   3.510   1.620  0.2455  0.1247 -0.1524
13802PP      PP23906   2.496   9.970  11.505  0.0303  0.0106  0.1202
13803PP      PP23907   5.251  14.353   8.742 -0.2596 -0.2095  0.0974
13804PP      PP23908   2.833   6.267   8.215  0.1786  0.1244 -0.1476
13805PP      PP23909   7.376  14.552   8.726 -0.2758  0.0487 -0.0092
13806PP      PP23910   9.571   7.455   0.357  0.2677 -0.0044 -0.0108
13807PP      PP23911   7.030   2.480   2.190 -0.2753 -0.5733 -0.1842
13808PP      PP23912  10.055   2.647   1.532  0.1394 -0.1494  0.0994
13809PP      PP23913  15.238   8.947   2.361  0.3240  0.2048 -0.1786
13810PP      PP23914   2.019  11.000   3.468  0.0119  0.0276 -0.0819
13811PP      PP23915   5.298  15.959   1.545  0.2078 -0.0752 -0.0380
13812PP      PP23916   1.166   3.690  11.662  0.2443 -0.1534  0.3791
13813PP      PP23917   8.450  10.019   9.505  0.1613 -0.2575 -0.2692
13814PP      PP23918   8.841  12.305   0.440 -0.0157 -0.1261  0.0348
13815PP      PP23919   9.449  12.184   3.897  0.2126  0.4382  0.1163
13816PP      PP23920   8.122  14.715   9.898 -0.1514  0.0804  0.0216
13817PP      PP23921  12.913   0.901   1.705  0.1598 -0.0129 -0.0321
13818PP      PP23922   4.878   0.304   3.341 -0.1218 -0.2211  0.0865
13819PP      PP23923  11.686  15.570   0.057  0.3142 -0.0966 -0.1391
13820PP      PP23924  15.566  12.689  10.766 -0.0745  0.3256  0.1071
13821PP      PP23925   2.728   3.894   9.368 -0.0257  0.0402 -0.2368
13822PP      PP23926   8.613   4.038   3.323 -0.0624 -0.3159 -0.0282
13823PP      PP23927   8.172   7.427   2.827 -0.2188 -0.3095 -0.2981
13824PP      PP23928  13.865  12.021  12.566  0.2179  0.0785  0.1632
13825PP      PP23929   2.709   1.486  10.072 -0.0766  0.1386  0.0008
13826PP      PP23930  16.149   9.036   9.060 -0.0078 -0.2713 -0.2531
13827PP      PP23931   1.771  10.384   0.708  0.0231  0.0508  0.2171
13828PP      PP23932   5.726  10.883  11.414 -0.1578  0.2529 -0.1981
13829PP      PP23933   6.328  10.200   8.306 -0.1108  0.0435  0.1300
13830PP      PP23934   5.236  10.162  12.664  0.0121  0.4277 -0.3002
13831PP      PP23935   7.570  11.392   2.166  0.1729 -0.0306 -0.2197
13832PP      PP23936   1.988   0.279   0.138 -0.0134 -0.0858 -0.2000
13833PP      PP23937  12.450  14.289   1.712 -0.0160 -0.3655 -0.0428
13834PP      PP23938   3.004   7.686  10.366  0.3546 -0.0839 -0.2380
13835PP      PP23939   2.673  13.947   1.151 -0.0016  0.1365  0.2710
13836PP      PP23940  16.277  14.372   9.587  0.1959  0.0289 -0.4156
13837PP      PP23941  14.596  11.271  10.040 -0.0309  0.2357  0.0388
13838PP      PP23942   2.081   9.899   2.133  0.1930 -0.0718  0.2247
13839PP      PP23943   6.742  10.849   1.728 -0.0858  0.0083 -0.1374
13840PP      PP23944   5.998   5.973   7.998  0.1048 -0.0291  0.1046
13841PP      PP23945   9.901   5.965   9.466  0.1979  0.1482  0.0086
13842PP      PP23946   4.783   8.162   0.074  0.2839 -0.0700  0.1984
13843PP      PP23947   6.029   9.089   8.921 -0.1429 -0.3826  0.1177
13844PP      PP23948  15.604   7.619  10.227  0.0424  0.1173  0.0894
13845PP      PP23949   8.609   8.533  12.090 -0.0080 -0.1740 -0.0305
13846PP      PP23950   5.414   3.698   8.815 -0.0076 -0.0686  0.0905
13847PP      PP23951   5.349   9.017   8.396  0.0178  0.2622 -0.2284
13848PP      PP23952   8.999   2.427  10.401  0.3777  0.3980  0.0185
13849PP      PP23953   4.087   7.783   2.242 -0.0285 -0.0044 -0.1508
13850PP      PP23954   0.995   2.979   1.114 -0.1233  0.0652 -0.0771
13851PP      PP23955   6.567   4.226   8.460 -0.3485 -0.0192 -0.2088
13852PP      PP23956   3.472   8.737  12.734  0.1300  0.0057  0.4328
13853PP      PP23957   2.908   8.539   9.140 -0.0404  0.0690  0.1504
13854PP      PP23958  12.968   7.041   1.785  0.2180  0.1530  0.0275
13855PP      PP23959   0.143   1.998   2.327  0.0068 -0.1311  0.2088
13856PP      PP23960  13.988   8.986   2.590  0.2958  0.2088  0.2435
13857PP      PP23961   1.371  10.570   1.261  0.3156  0.2259  0.0362
13858PP      PP23962   1.280   6.529  11.201 -0.0020  0.1373 -0.0693
13859PP      PP23963  15.454   2.755   0.940 -0.0571  0.0814 -0.0313
13860PP      PP23964  11.347  14.717   0.388  0.3839  0.4381  0.0198
13861PP      PP23965  14.392  15.800   9.927  0.1840  0.2314 -0.3279
13862PP      PP23966  14.235   2.432   9.606  0.0462 -0.2728  0.0166
13863PP      PP23967   1.635   3.614   2.400 -0.1087 -0.2330  0.1339
13864PP      PP23968  12.899   6.514  11.421  0.1579 -0.2714  0.1484
13865PP      PP23969   9.173   7.705   3.476 -0.4729  0.1766  0.1342
13866PP      PP23970   2.588   3.908   0.412 -0.1482 -0.2156 -0.2626
13867PP      PP23971   9.162  15.694  10.720  0.0672  0.2635  0.1335
13868PP      PP23972   6.786  13.321   1.081  0.0625 -0.0108 -0.1236
13869PP      PP23973   2.639   5.153   3.085  0.1935 -0.2051 -0.2546
13870PP      PP23974   5.728   3.633   9.269  0.2754 -0.2288  0.1540
13871PP      PP23975  13.191  10.844   9.233  0.1671  0.0875  0.1894
13872PP      PP23976   4.440  15.655   0.451  0.0351 -0.3455  0.1212
13873PP      PP23977   4.950   7.781   2.439 -0.1323 -0.0088  0.1655
13874PP      PP23978   4.448   1.863   8.803  0.1779  0.0252  0.1776
13875PP      PP23979   5.694  14.533   0.738  0.0684 -0.0147  0.3841
13876PP      PP23980  11.932   4.882  10.436  0.2827 -0.0660  0.1104
13877PP      PP23981   2.234   8.103  11.157  0.2071 -0.1054 -0.0707
13878PP      PP23982   6.189   2.015   8.796  0.4556  0.0637 -0.0168
13879PP      PP23983   8.911   3.089  11.200  0.0162 -0.0705 -0.1605
13880PP      PP23984   0.517  10.457  11.151 -0.0697 -0.2696  0.0293
13881PP      PP23985  14.139   3.275   8.244  0.2222 -0.2526  0.0795
13882PP      PP23986  13.671   5.759   2.972 -0.3391 -0.0072  0.2567
13883PP      PP23987  11.361   5.209   8.648  0.1447  0.1362  0.0334
13884PP      PP23988  12.464   0.909  10.390 -0.1516 -0.2302 -0.1098
13885PP      PP23989  14.310  12.238   3.636 -0.1756 -0.0056  0.0340
13886PP      PP23990   6.989   9.910  12.593 -0.0285 -0.0135 -0.3015
13887PP      PP23991  13.959  11.506  10.716 -0.0990 -0.0003  0.1493
13888PP      PP23992   7.638   2.245   9.206 -0.1005  0.1745 -0.1522
13889PP      PP23993   6.614   7.993   3.447  0.1267 -0.0146 -0.0596
13890PP      PP23994  12.995   8.328  11.400  0.2650 -0.1227 -0.0959
13891PP      PP23995  16.254   8.746   0.355  0.1133 -0.0793  0.1031
13892PP      PP23996   9.344   1.986  11.612 -0.0274  0.0967  0.2005
13893PP      PP23997   9.413   1.350  10.021  0.3375 -0.2460 -0.3524
13894PP      PP23998   6.519  10.562  12.435  0.1055  0.2538 -0.2180
13895PP      PP23999   7.384   3.457   2.679 -0.2280 -0.2409 -0.0031
13896PP      PP24000  15.250  11.420   2.219 -0.0313 -0.2170  0.0614
13897PP      PP24001   2.621  11.716  10.566  0.1675  0.1796  0.0079
13898PP      PP24002  14.610   9.303  11.837 -0.2178  0.2007  0.0303
13899PP      PP24003  13.592   9.579  12.276 -0.2894 -0.1630  0.2274
13900PP      PP24004   2.828  11.923  11.633  0.0777  0.1120 -0.2146
13901PP      PP24005  10.239   2.406   1.935 -0.0597 -0.0173 -0.1747
13902PP      PP24006  10.924   6.670  10.834 -0.3941 -0.2347 -0.1207
13903PP      PP24007   8.178  13.981   0.564  0.0528  0.1442  0.4241
13904PP      PP24008  11.381   8.863  12.539  0.0936  0.2587  0.1989
13905PP      PP24009   4.714  12.945   3.570  0.0858  0.3750  0.4227
13906PP      PP24010  15.012   2.931   2.305 -0.1283  0.2538 -0.3909
13907PP      PP24011   6.151  10.634  10.022  0.2705 -0.3022  0.0505
13908PP      PP24012   1.467  13.599   3.968 -0.0970 -0.2527  0.1337
13909PP      PP24013   4.239   8.385   2.323 -0.0865 -0.1641  0.0370
13910PP      PP24014   6.208   7.119   2.395 -0.0151 -0.2856  0.0888
13911PP      PP24015  12.064   5.773  11.626 -0.1705  0.1201 -0.0424
13912PP      PP24016   8.351  15.882   4.738 -0.2679 -0.0758 -0.1864
13913PP      PP24017   1.911   9.448   9.557 -0.3256  0.2130  0.0443
13914PP      PP24018   6.682   3.399   9.758 -0.0019 -0.2523  0.0154
13915PP      PP24019   0.825   7.495   2.843  0.1685  0.0927  0.2344
13916PP      PP24020   8.162  12.263   3.925 -0.0657  0.0437  0.1348
13917PP      PP24021   9.147   2.784   4.518 -0.2802  0.0569  0.0362
13918PP      PP24022   5.671   0.195   1.869  0.2519  0.4122  0.4577
13919PP      PP24023   5.933  15.925  11.908 -0.3432 -0.1497 -0.0778
13920PP      PP24024   5.360   4.033   9.335  0.0356  0.0083 -0.0458
13921PP      PP24025   1.855   9.510  10.301  0.1118  0.0197  0.0226
13922PP      PP24026  13.420   9.608   9.300 -0.0570 -0.1465  0.1290
13923PP      PP24027   5.528   2.079   0.416 -0.1995 -0.0326  0.1932
13924PP      PP24028   3.586   9.727  10.734 -0.1039  0.1850 -0.0700
13925PP      PP24029  10.266  14.347   0.022  0.2879  0.1148 -0.0138
13926PP      PP24030  13.076   7.003   8.329  0.1184 -0.2793 -0.0543
13927PP      PP24031   8.008   6.896  11.845 -0.0348  0.0228 -0.1164
13928PP      PP24032  12.207  11.164   1.030 -0.0415 -0.0799 -0.1121
13929PP      PP24033   5.336   8.346   1.433  0.3148 -0.0004 -0.2038
13930PP      PP24034   9.661   9.893   3.520  0.2086  0.0287 -0.2378
13931PP      PP24035  16.177   8.591  12.038 -0.0959 -0.1120  0.0834
13932PP      PP24036  14.393   3.016   9.245  0.0308  0.0526  0.0718
13933PP      PP24037   6.377  12.344  10.746  0.0801  0.0158 -0.0209
13934PP      PP24038  16.092   7.873  11.541 -0.0940  0.2171 -0.0181
13935PP      PP24039   1.509   3.454  11.948 -0.1342 -0.3496 -0.0867
13936PP      PP24040  12.385  11.659  11.130 -0.2831 -0.2538 -0.4616
13937PP      PP24041   8.188   2.983  11.289  0.2282  0.0994 -0.1174
13938PP      PP24042   6.916  11.399   1.541 -0.2521  0.1690 -0.1405
13939PP      PP24043   5.276   8.677   2.334  0.0536  0.0807 -0.0488
13940PP      PP24044   2.399   8.938  10.284  0.2207  0.1234 -0.0644
13941PP      PP24045   5.417   7.329  10.152  0.1841  0.2494  0.1965
13942PP      PP24046   6.606  11.028   1.256  0.0621  0.2072  0.0893
13943PP      PP24047   0.726  15.547   2.718  0.0399 -0.0458 -0.1614
13944PP      PP24048  10.265   4.200   1.483 -0.0144  0.0317 -0.0255
13945PP      PP24049   8.074  15.245   3.372  0.1519  0.1514 -0.1464
13946PP      PP24050   2.935   9.281   7.663  0.0705  0.1269  0.1501
13947PP      PP24051   5.725   1.213  11.689  0.2979  0.0496 -0.4123
13948PP      PP24052  15.000  15.924   3.396 -0.0273 -0.3347  0.0503
13949PP      PP24053  12.045  16.216   3.715 -0.0062 -0.0754  0.0384
13950PP      PP24054  15.101   2.110   0.579  0.2598 -0.0760  0.1604
13951PP      PP24055  14.382  10.694  11.973 -0.2560  0.1194 -0.3327
13952PP      PP24056  13.146   7.686   1.007  0.1925  0.1412 -0.0669
13953PP      PP24057   3.048  13.657   1.134  0.2021 -0.0600 -0.2868
13954PP      PP24058  13.148   5.689  10.043 -0.1148 -0.1827  0.0301
13955PP      PP24059  11.802  14.628   3.435  0.1996 -0.0664 -0.1804
13956PP      PP24060   2.194   3.252   2.135 -0.1593 -0.0844 -0.2261
13957PP      PP24061   9.964  11.999   0.399 -0.1063  0.0748 -0.4821
13958PP      PP24062   0.072   8.753  11.361 -0.0825  0.1143  0.0878
13959PP      PP24063   5.198   1.185   3.545  0.2621  0.0937 -0.0806
13960PP      PP24064   1.130  14.546   8.523 -0.0344 -0.0415  0.0172
13961PP      PP24065   9.850   7.130   9.905  0.0574 -0.0043 -0.3447
13962PP      PP24066   5.678   5.493  11.912  0.1840 -0.1614  0.3992
13963PP      PP24067   9.009  14.300  11.398 -0.3575 -0.2274  0.1113
13964PP      PP24068   6.881  13.614   2.558  0.3080 -0.0232 -0.2202
13965PP      PP24069   6.308   8.388  11.947  0.0517 -0.0092  0.2361
13966PP      PP24070   1.855  10.514   3.410 -0.0043  0.2126 -0.1038
13967PP      PP24071   9.001   2.428   8.912 -0.1956 -0.3743 -0.2114
13968PP      PP24072   1.037  16.089   1.210 -0.2367 -0.1495 -0.0895
13969PP      PP24073   1.117   8.797   9.058 -0.1054  0.0010  0.1750
13970PP      PP24074  13.215  10.460   2.471 -0.2705  0.0535 -0.0140
13971PP      PP24075  12.616  10.364   1.665 -0.0433 -0.0644 -0.0830
13972PP      PP24076   1.528   3.157   4.717 -0.0739 -0.0585 -0.1376
13973PP      PP24077   9.318  11.774   8.174 -0.2287 -0.2963 -0.3287
13974PP      PP24078   9.510   6.399   1.454 -0.3706  0.1784  0.0030
13975PP      PP24079   6.167  12.191   1.480  0.2787 -0.3677  0.3875
13976PP      PP24080   3.342  10.115   1.152  0.0186 -0.1451 -0.0716
13977PP      PP24081  13.625   6.878  11.024 -0.0144 -0.0190 -0.1204
13978PP      PP24082   1.044  15.025   4.598 -0.3128  0.0329  0.0253
13979PP      PP24083  12.330  14.387  12.389  0.0561 -0.1361  0.2082
13980PP      PP24084  10.565   7.376   8.461  0.2271  0.1515 -0.2785
13981PP      PP24085   6.700   9.080   0.779  0.0253  0.0598 -0.0059
13982PP      PP24086   6.230   9.729   2.631 -0.0047  0.2519  0.0517
13983PP      PP24087   8.518  12.376   1.397 -0.3068 -0.1606 -0.0220
13984PP      PP24088  11.803   4.221  12.303  0.4406  0.2045  0.0753
13985PP      PP24089   0.846   8.520   8.826  0.1080 -0.0648  0.3386
13986PP      PP24090   6.051   7.692  12.441 -0.0334  0.0630 -0.0859
13987PP      PP24091   4.041   1.339   3.073 -0.2233  0.1417  0.1943
13988PP      PP24092  15.961   8.813   9.441  0.0795  0.1476  0.4455
13989PP      PP24093   8.546   3.212   0.500  0.2157  0.0992 -0.1538
13990PP      PP24094  13.543  11.818  12.196  0.0738  0.0347 -0.2735
13991PP      PP24095  15.054  14.000  12.629 -0.0799 -0.0390  0.0579
13992PP      PP24096  12.766   4.878  10.988 -0.1945  0.0412  0.1345
13993PP      PP24097  14.095   8.962  10.517 -0.0807 -0.0142 -0.0723
13994PP      PP24098  11.056   1.188   0.058 -0.1858  0.1423  0.2811
13995PP      PP24099   5.972  13.814   8.190 -0.1694 -0.0290 -0.1595
13996PP      PP24100   2.270   5.616  10.527  0.2395 -0.0070  0.0713
13997PP      PP24101   8.407   3.002   2.041 -0.0049  0.2861 -0.1137
13998PP      PP24102   0.153   9.818  11.380  0.3188  0.0893 -0.2925
13999PP      PP24103  12.064  16.267   0.777  0.3422  0.1821 -0.1259
14000PP      PP24104  12.086  12.585   9.289  0.0178  0.1813 -0.0726
14001PP      PP24105   0.294   0.331   4.416  0.2460 -0.0016  0.0375
14002PP      PP24106   5.275   6.619   9.027  0.0546  0.3563  0.4604
14003PP      PP24107   6.663   8.870  10.646  0.1615 -0.1247 -0.1432
14004PP      PP24108   3.243   6.274   1.714 -0.1978 -0.1597 -0.0877
14005PP      PP24109   1.653  10.829   3.767 -0.5095 -0.2612 -0.0796
14006PP      PP24110  15.813   8.700  10.849 -0.1719 -0.0883 -0.1038
14007PP      PP24111  12.130   8.365   3.238  0.0487  0.3470 -0.2901
14008PP      PP24112   6.996   2.700  10.358 -0.1806 -0.0588  0.1091
14009PP      PP24113  15.550   2.275  10.985  0.0954 -0.1197 -0.0115
14010PP      PP24114  12.002  14.722  11.443  0.0833  0.2458  0.0670
14011PP      PP24115  15.929   0.012  10.368 -0.0016  0.0431  0.0355
14012PP      PP24116   7.408   9.112  10.988  0.0151 -0.1441  0.2336
14013PP      PP24117  10.371  11.994   3.347  0.2938  0.2741 -0.2500
14014PP      PP24118   6.338   3.517   1.516  0.1547  0.1514 -0.2204
14015PP      PP24119   0.650   3.074  10.289 -0.0525 -0.1058 -0.0167
14016PP      PP24120  14.203  13.798   1.852 -0.4149  0.1482 -0.1160
14017PP      PP24121   5.954  13.739   3.148 -0.2048 -0.2785  0.0679
14018PP      PP24122   6.309  15.770   0.589 -0.2525 -0.0541 -0.1417
14019PP      PP24123  11.861  14.924   1.212 -0.1970  0.1336 -0.0456
14020PP      PP24124  15.190   5.402   7.825 -0.1685 -0.0969 -0.1371
14021PP      PP24125   8.449   7.325   1.550 -0.2487 -0.0029  0.0197
14022PP      PP24126   2.324   1.002  10.911 -0.0929  0.1694 -0.1769
14023PP      PP24127  15.899   8.654  12.427  0.2254 -0.1284 -0.0091
14024PP      PP24128  11.324   9.832  12.106 -0.0466 -0.1067  0.3311
14025PP      PP24129   6.675  10.293   3.327  0.3983  0.0085  0.1400
14026PP      PP24130   9.383   7.026  11.707 -0.0436  0.2739 -0.1969
14027PP      PP24131   9.287   6.576   2.406 -0.1049  0.1902 -0.0853
14028PP      PP24132   6.567  12.809   9.551  0.0002  0.1948  0.2439
14029PP      PP24133   6.886   6.846  10.055  0.1735 -0.0953  0.0766
14030PP      PP24134   8.379   1.479  10.972 -0.2174  0.0765 -0.0190
14031PP      PP24135   5.828   0.555   1.136 -0.1805  0.2658 -0.0270
14032PP      PP24136  13.907   0.016  10.934  0.0620 -0.2517  0.1628
14033PP      PP24137   0.355  16.040   3.896  0.0548  0.0421  0.3137
14034PP      PP24138  12.403   3.477  12.692  0.0449 -0.1909  0.1000
14035PP      PP24139   0.202  13.081   0.855  0.0264 -0.1273 -0.2331
14036PP      PP24140  11.421  14.965   0.811 -0.0802  0.0389  0.0821
14037PP      PP24141   4.470   6.394   3.425  0.0272 -0.1861  0.0672
14038PP      PP24142  11.614   8.855   1.512 -0.2126  0.2900  0.0365
14039PP      PP24143   6.371  16.008   9.242  0.0784 -0.1563  0.1630
14040PP      PP24144  14.988   0.867   2.458  0.0624 -0.1911  0.0091
14041PP      PP24145   9.994  14.728  11.364  0.0811  0.1162  0.0803
14042PP      PP24146   5.275   7.781  11.481 -0.0601  0.3954 -0.1319
14043PP      PP24147  14.967   8.233   0.993 -0.1215  0.0727 -0.1699
14044PP      PP24148   1.677  13.686   3.545  0.2885  0.0520 -0.3520
14045PP      PP24149   8.507   3.835   4.151  0.3269 -0.0858  0.1059
14046PP      PP24150  10.326   3.050   0.479 -0.0014 -0.0417  0.0212
14047PP      PP24151   9.125   2.405   2.938 -0.1742  0.0831 -0.1799
14048PP      PP24152   1.725  12.978   2.679  0.0109  0.1817  0.1473
14049PP      PP24153  14.181   0.106   1.555 -0.0199 -0.0897  0.4113
14050PP      PP24154  14.720   7.252  10.335 -0.4520 -0.0897  0.0117
14051PP      PP24155  10.024  12.522  10.083  0.0347 -0.1811 -0.0516
14052PP      PP24156   0.867   4.813   3.390 -0.1705 -0.0037  0.0429
14053PP      PP24157   4.191   7.385  10.163  0.3696 -0.0771 -0.0111
14054PP      PP24158  14.702  10.047  11.395  0.3769  0.0222 -0.2505
14055PP      PP24159   9.615   3.467   9.523  0.0157 -0.1053  0.0106
14056PP      PP24160   0.046   7.157   8.626 -0.2532  0.2945 -0.0491
14057PP      PP24161   8.596   9.718  11.825  0.1710  0.1326  0.4756
14058PP      PP24162  14.228  15.362   8.837 -0.0083  0.2687 -0.0419
14059PP      PP24163  11.256  10.382   2.415  0.1811  0.1190 -0.0934
14060PP      PP24164  13.841   0.338  12.441  0.3602  0.1078 -0.0345
14061PP      PP24165   0.289  12.908   8.817 -0.2075  0.2491  0.0328
14062PP      PP24166  13.210   7.515   9.792  0.0395 -0.0623 -0.0260
14063PP      PP24167  13.000   1.275  11.609  0.3264 -0.0696 -0.0043
14064PP      PP24168  10.150  10.035   9.901 -0.0384  0.1322 -0.4877
14065PP      PP24169   6.702  14.854   1.033 -0.0962 -0.1883  0.3771
14066PP      PP24170  13.545  14.110  11.272  0.1281 -0.2484 -0.1421
14067PP      PP24171   6.045  15.786  12.397  0.1799  0.1913  0.2088
14068PP      PP24172  13.515  13.986   0.224  0.4599 -0.1226  0.2780
14069PP      PP24173   4.777  12.700  10.200 -0.2378  0.0892 -0.1427
14070PP      PP24174  10.634   5.158   2.367  0.1949 -0.0016  0.0667
14071PP      PP24175  16.324  15.694  11.925  0.0202 -0.1509 -0.0792
14072PP      PP24176   6.764  12.134  11.392  0.1219  0.0139  0.1041
14073PP      PP24177  12.014   5.226  10.078  0.1746 -0.1351  0.0155
14074PP      PP24178   8.099  13.557   2.631 -0.1009 -0.2416  0.1172
14075PP      PP24179   9.985   2.044  11.064  0.1114 -0.2205  0.3405
14076PP      PP24180   8.027  11.844  12.249  0.0535  0.1537 -0.1431
14077PP      PP24181  15.820  11.265   3.357 -0.0849 -0.4411 -0.1775
14078PP      PP24182   4.395  13.154   2.299 -0.2382 -0.2210  0.0329
14079PP      PP24183   4.943   4.426   0.822 -0.2275  0.4716 -0.3713
14080PP      PP24184  12.592  11.029   1.538 -0.2239 -0.0429  0.0589
14081PP      PP24185  13.727   3.680   0.975  0.0700 -0.4028  0.4909
14082PP      PP24186  14.589  16.244   1.140 -0.1265  0.1375  0.0957
14083PP      PP24187  10.929  14.112   4.019  0.0528  0.1467 -0.1435
14084PP      PP24188  11.301   8.600   3.506  0.1160  0.0651 -0.3248
14085PP      PP24189  13.933  13.732   0.382  0.1660  0.2371  0.0301
14086PP      PP24190   9.622   3.523   2.085  0.0734 -0.0624 -0.4703
14087PP      PP24191   9.585  14.368   9.544 -0.0650 -0.1027  0.0086
14088PP      PP24192  10.189  14.435   2.666 -0.2219 -0.1647  0.3490
14089PP      PP24193  12.122  11.893  10.670 -0.1163 -0.6252 -0.3810
14090PP      PP24194  11.131  10.947   8.380  0.2562  0.2225 -0.0107
14091PP      PP24195   0.125  11.524  10.926  0.1110  0.0840  0.0414
14092PP      PP24196  14.241   6.573   2.592  0.3029 -0.1489  0.3857
14093PP      PP24197  11.415   5.938   4.004 -0.3716 -0.1373 -0.0712
14094PP      PP24198   2.263  15.291   4.373 -0.0546  0.2643  0.1160
14095PP      PP24199   1.257   8.340   0.310 -0.2330  0.1814 -0.1650
14096PP      PP24200   9.726  11.815   2.681  0.0654  0.0010 -0.2443
14097PP      PP24201   4.764  15.372  10.669 -0.1678 -0.1118 -0.0655
14098PP      PP24202  10.294   0.407   1.806 -0.1681  0.0513 -0.2126
14099PP      PP24203  14.591   9.300   1.766 -0.0741 -0.2131  0.0679
14100PP      PP24204   5.355   1.413   4.001 -0.0381 -0.2262 -0.0331
14101PP      PP24205   8.923  15.142   9.223  0.0068 -0.3217 -0.0069
14102PP      PP24206  12.440  15.268   2.858  0.1338  0.0522 -0.0307
14103PP      PP24207  12.399  11.661   4.141 -0.1887 -0.1186 -0.1015
14104PP      PP24208   0.771  15.154   5.131 -0.0426  0.1239 -0.2619
14105PP      PP24209   7.947   4.910   2.008 -0.0630 -0.1500 -0.0320
14106PP      PP24210   4.830   0.724   0.942 -0.1942  0.0908 -0.0154
14107PP      PP24211   9.062  11.625  12.228  0.0071 -0.0345 -0.1008
14108PP      PP24212   6.112   1.910   4.217  0.2953 -0.1778  0.0322
14109PP      PP24213  15.060  10.107   1.664  0.2543  0.1547 -0.0004
14110PP      PP24214  12.429   5.498  11.403 -0.1389  0.4149  0.0134
14111PP      PP24215   5.283   7.346  11.150  0.0236 -0.1883  0.2711
14112PP      PP24216   6.597  13.428   8.217 -0.0796  0.3255  0.2041
14113PP      PP24217   7.937   8.277   8.564 -0.1569 -0.0883 -0.1231
14114PP      PP24218   4.699   5.472   8.590  0.0643  0.2300  0.0059
14115PP      PP24219   7.587   3.861  10.956 -0.0857  0.2177 -0.1799
14116PP      PP24220  16.188  14.156   2.415  0.0543 -0.2834 -0.0038
14117PP      PP24221   0.156  10.512   9.762 -0.3502  0.1227 -0.0875
14118PP      PP24222  13.182  11.043  10.178  0.0505 -0.3319 -0.1341
14119PP      PP24223  14.520  11.650   9.381  0.1911 -0.1754  0.3792
14120PP      PP24224  14.531  15.190  12.134 -0.1413 -0.2244 -0.0725
14121PP      PP24225   8.523   5.005   1.885 -0.4102  0.0428 -0.0702
14122PP      PP24226   6.583   3.163   2.472 -0.2308  0.1030 -0.2091
14123PP      PP24227   7.345   3.738  12.324  0.2810  0.0688 -0.1476
14124PP      PP24228   6.400  15.549   9.412  0.0125  0.3461  0.1041
14125PP      PP24229  14.950  11.440  12.324 -0.1816  0.2512  0.0945
14126PP      PP24230  12.166  14.153   4.547 -0.0013 -0.3073  0.3640
14127PP      PP24231   7.563  14.112  11.052  0.1786 -0.3495  0.0568
14128PP      PP24232   7.178  15.719  12.000  0.4186 -0.0705  0.2097
14129PP      PP24233   0.992   3.093  11.522  0.0698 -0.0315 -0.0963
14130PP      PP24234   1.161  10.829   1.656 -0.0915  0.0926 -0.2006
14131PP      PP24235  13.608   1.628   8.765 -0.0658 -0.0330  0.4003
14132PP      PP24236   4.938  15.021  10.990  0.1906 -0.0843 -0.0548
14133PP      PP24237   5.656  10.493   1.883  0.4095  0.1106  0.0332
14134PP      PP24238   6.682   9.274   4.033  0.0510 -0.1066 -0.1446
14135PP      PP24239   6.639   6.378   2.996 -0.3174  0.2329  0.0465
14136PP      PP24240  12.734  16.216   8.728 -0.0701 -0.0099 -0.1791
14137PP      PP24241   4.984   0.568  12.009 -0.0887  0.0253 -0.1481
14138PP      PP24242  10.717   7.237  12.730  0.1840 -0.0357  0.2275
14139PP      PP24243  11.430  12.052   1.499 -0.2329  0.0783 -0.0984
14140PP      PP24244  10.019   6.854   0.035  0.1314 -0.1090 -0.0431
14141PP      PP24245   8.035   7.545  12.389 -0.1002 -0.1280 -0.0848
14142PP      PP24246   7.552   1.500  11.739  0.0546  0.2838  0.0060
14143PP      PP24247  11.403  16.003   4.303  0.1142  0.0529  0.3293
14144PP      PP24248  10.307  12.529   1.126  0.0124  0.1976 -0.3339
14145PP      PP24249   4.093   4.699  11.908 -0.1067  0.1621  0.3933
14146PP      PP24250   8.221  12.616   2.332  0.1598  0.2029 -0.2248
14147PP      PP24251   8.470   1.844   1.303  0.2855 -0.0935  0.0136
14148PP      PP24252   6.912  14.127  10.668  0.2340  0.3306 -0.0904
14149PP      PP24253   2.483   3.422  12.291 -0.2765 -0.2063 -0.0472
14150PP      PP24254  10.831   3.036   0.263  0.2323  0.0560 -0.1435
14151PP      PP24255   9.497   2.234  11.173 -0.2815  0.0569 -0.1697
14152PP      PP24256  15.651  13.841   4.013  0.2674 -0.1111 -0.0524
14153PP      PP24257   9.669   5.611   2.509  0.0847  0.2912 -0.0588
14154PP      PP24258  11.907   6.426  10.325  0.3618 -0.1168 -0.0185
14155PP      PP24259   7.329   8.420   0.109  0.0042 -0.0677  0.1587
14156PP      PP24260  10.730  12.586   0.180 -0.0745  0.0119  0.0081
14157PP      PP24261  14.206   6.254   7.794  0.3410 -0.2223 -0.1234
14158PP      PP24262   4.504   3.323   1.148  0.2428 -0.2005  0.3802
14159PP      PP24263   1.405  10.661   3.303  0.0470 -0.4926  0.3190
14160PP      PP24264  14.480  11.413   4.436 -0.1325 -0.1708  0.1143
14161PP      PP24265  15.252   4.119  12.454 -0.0393  0.0098 -0.2181
14162PP      PP24266   2.188   7.724   9.750 -0.0385  0.0271 -0.1702
14163PP      PP24267   9.570   6.061  11.013 -0.1968  0.0272  0.3979
14164PP      PP24268   9.338  13.737  12.478  0.0818 -0.1820  0.2004
14165PP      PP24269   3.609  13.442  10.746  0.3214 -0.0214 -0.1353
14166PP      PP24270  15.708  14.441   2.270 -0.1547  0.3504 -0.1616
14167PP      PP24271   4.039   9.223   0.567 -0.2856  0.4426 -0.1343
14168PP      PP24272   7.282  11.393   8.764 -0.3348  0.0952  0.1101
14169PP      PP24273   4.058  10.395  11.478 -0.1265  0.3111  0.2406
14170PP      PP24274   2.961   4.433  10.278 -0.0168 -0.1863 -0.0561
14171PP      PP24275   2.071   2.954  11.855 -0.2835 -0.1664  0.0601
14172PP      PP24276   5.399   3.086   8.487 -0.0383 -0.1504 -0.1340
14173PP      PP24277   6.516   7.055   1.288 -0.1301 -0.1199 -0.3044
14174PP      PP24278   2.574   9.519   1.275 -0.0235 -0.0305 -0.0062
14175PP      PP24279  10.534   6.423   9.837 -0.2381  0.0557 -0.0103
14176PP      PP24280   4.665   8.868  10.562 -0.0730  0.2517  0.1798
14177PP      PP24281   7.264   8.844   3.595  0.1438 -0.1268  0.0783
14178PP      PP24282   1.221   4.610   3.051 -0.0919 -0.1783 -0.0612
14179PP      PP24283  14.034  11.199  10.182 -0.1641 -0.4279 -0.1898
14180PP      PP24284  15.150   0.175  12.575 -0.0354 -0.1286  0.1159
14181PP      PP24285   7.896   0.599   4.357  0.0141 -0.0340 -0.0732
14182PP      PP24286  10.918  14.369  10.494 -0.0665 -0.0864  0.4191
14183PP      PP24287   0.159  11.781  12.753  0.4414 -0.1050  0.2825
14184PP      PP24288   8.741   8.418   0.460 -0.1556  0.2194  0.2116
14185PP      PP24289   7.940  11.255   9.175  0.2825  0.2636  0.0544
14186PP      PP24290   2.665  10.724   9.379 -0.3635 -0.0815 -0.3328
14187PP      PP24291  15.633   5.233  12.484 -0.1121  0.0403  0.1870
14188PP      PP24292  15.294   3.720   9.852 -0.0134 -0.0066  0.1135
14189PP      PP24293   7.893  11.757   9.209  0.0264  0.3395  0.3778
14190PP      PP24294  15.998  12.631  11.690  0.0455  0.1327 -0.1501
14191PP      PP24295   7.752  13.533   2.224  0.0326 -0.0377  0.2081
14192PP      PP24296  10.371   0.830   2.252 -0.2783 -0.1104 -0.0916
14193PP      PP24297   4.424  15.587   2.918 -0.1219 -0.0217 -0.1011
14194PP      PP24298  15.104   0.612   0.105 -0.0423 -0.1540 -0.0104
14195PP      PP24299   5.136  11.498  10.444  0.1967  0.2805  0.0979
14196PP      PP24300   2.184  11.296  11.372 -0.1753  0.0267  0.1888
14197PP      PP24301  11.057  12.138   1.828 -0.0283 -0.0305  0.3799
14198PP      PP24302  10.179   1.278   2.385 -0.2734  0.0712  0.0846
14199PP      PP24303   4.234   1.837  10.835 -0.1139  0.0783  0.1717
14200PP      PP24304   9.168   6.593   4.299 -0.2501  0.2484  0.0914
14201PP      PP24305  12.437   0.926   0.437  0.1146  0.2393  0.0659
14202PP      PP24306  11.080   0.497   9.891  0.1723  0.0645  0.0483
14203PP      PP24307   8.288   9.147   8.751  0.1366  0.1669  0.1597
14204PP      PP24308  10.372  13.014   0.076  0.2633  0.0047 -0.1474
14205PP      PP24309  10.078   4.275   0.146 -0.4250  0.1393  0.3035
14206PP      PP24310  11.999   8.173   2.603  0.2136  0.0359  0.5268
14207PP      PP24311   7.937  12.097   9.569 -0.0137  0.1663  0.0238
14208PP      PP24312   4.613   0.507   3.850  0.0174  0.1255  0.1148
14209PP      PP24313   1.935  13.980  11.324  0.2361  0.0036 -0.0792
14210PP      PP24314   9.804   6.522  11.529 -0.0361 -0.0051 -0.1135
14211PP      PP24315   6.240   3.560  10.499  0.1853 -0.0292  0.3525
14212PP      PP24316  15.376   7.392  11.879  0.0164 -0.0094 -0.0415
14213PP      PP24317   8.411  11.441  11.113  0.0417 -0.2910 -0.0253
14214PP      PP24318  14.517  11.128   3.414 -0.2666 -0.2190 -0.0384
14215PP      PP24319   9.857   8.379  11.815 -0.1061 -0.0685  0.0028
14216PP      PP24320  11.782   3.742   0.698  0.1272 -0.0379  0.2813
14217PP      PP24321  13.526   6.902   0.422 -0.0948 -0.4155 -0.0746
14218PP      PP24322   4.973   1.444   0.522  0.0461  0.1691 -0.2364
14219PP      PP24323   6.837  15.163  11.336 -0.1569 -0.0195  0.1883
14220PP      PP24324  13.379   0.674   0.330 -0.0181 -0.1371 -0.2208
14221PP      PP24325   2.316  10.570   1.014  0.0889 -0.0275 -0.1023
14222PP      PP24326   7.379  13.214   2.134  0.1724  0.1687  0.1282
14223PP      PP24327  15.975   3.991  10.531  0.0454  0.5495  0.0139
14224PP      PP24328   6.322  13.221  11.876  0.0911  0.0394  0.2912
14225PP      PP24329   7.307  12.183   2.123 -0.1497  0.0264  0.2375
14226PP      PP24330  15.992   1.202  12.590  0.0444  0.2217  0.0371
14227PP      PP24331   3.847  11.787   2.967  0.2451 -0.1468 -0.0304
14228PP      PP24332  12.932   2.659   3.173 -0.2650 -0.3130 -0.1363
14229PP      PP24333   9.267  11.953   4.334  0.0209  0.3821  0.2176
14230PP      PP24334  14.037  13.622   2.550 -0.0251 -0.1822  0.1444
14231PP      PP24335   3.235   7.533   0.277 -0.4529  0.1563 -0.0888
14232PP      PP24336   7.006   0.202  10.622  0.3019 -0.0902  0.0941
14233PP      PP24337   5.750   1.752  10.561 -0.0157  0.0385 -0.0389
14234PP      PP24338   6.861  13.798   3.207 -0.2883 -0.1965 -0.0420
14235PP      PP24339  13.728   3.269   2.534 -0.1940 -0.2050 -0.1290
14236PP      PP24340   4.069   6.830  10.370  0.2719 -0.3403  0.0367
14237PP      PP24341   2.016  13.196   0.659  0.1017 -0.2689  0.1858
14238PP      PP24342   9.269   1.487   2.819 -0.0917 -0.0199 -0.4045
14239PP      PP24343   9.105  15.236   0.108 -0.2004  0.1114 -0.1645
14240PP      PP24344   9.883   8.525   3.299  0.0363 -0.2332 -0.0244
14241PP      PP24345   0.249  11.428   1.899 -0.1129 -0.1987  0.3018
14242PP      PP24346  14.166   0.974   3.928 -0.1466  0.0603 -0.0660
14243PP      PP24347   7.474   4.983   2.005 -0.2749  0.0656  0.2740
14244PP      PP24348  14.676   2.305   0.306 -0.0646 -0.2468  0.1204
14245PP      PP24349   4.598  16.358   4.528  0.1031 -0.0876 -0.0605
14246PP      PP24350  12.058   3.072   3.732  0.1203  0.0476  0.1547
14247PP      PP24351   1.418  13.714   1.273 -0.0662  0.0097  0.3697
14248PP      PP24352   8.609   7.011   5.700 -0.0581 -0.1565  0.3245
14249PP      PP24353  11.363   0.191   9.169  0.4026  0.0680  0.2175
14250PP      PP24354   8.327   4.795   3.555 -0.0828 -0.0812  0.4647
14251PP      PP24355  15.330   0.573  12.293  0.1002 -0.1479  0.2795
14252PP      PP24356   0.699   0.600   0.990  0.0880  0.4012 -0.4626
14253PP      PP24357   1.057  14.755  11.252 -0.0101  0.2730  0.1985
14254PP      PP24358   9.703   0.846  11.961  0.0219  0.2116 -0.0775
14255PP      PP24359   8.435  15.276   2.918  0.0418 -0.0334 -0.0149
14256PP      PP24360   1.100   1.550   3.926 -0.0207  0.2024  0.0210
14257PP      PP24361   6.069  15.825   2.006 -0.3331  0.0040 -0.0401
14258PP      PP24362   1.811  10.117   1.618 -0.0554 -0.3258  0.0995
14259PP      PP24363   3.206  15.138   2.761 -0.2339 -0.1601 -0.0901
14260PP      PP24364   9.407   6.567  11.965  0.1610  0.1376  0.1313
14261PP      PP24365   4.103   4.416   3.280  0.1053 -0.3447  0.1104
14262PP      PP24366   5.066  15.107   9.388  0.1743  0.2444  0.0226
14263PP      PP24367  15.487  13.049  11.180 -0.2011  0.0813  0.3477
14264PP      PP24368   4.778   2.848   3.851 -0.0636 -0.2159  0.3306
14265PP      PP24369   3.829   8.600   1.099  0.0704  0.0159  0.0649
14266PP      PP24370   0.873  10.842   3.269 -0.3756  0.0694 -0.1231
14267PP      PP24371  15.135   9.301   9.233  0.1240  0.0537  0.0547
14268PP      PP24372   4.962  12.781   1.352  0.0127 -0.0231  0.3959
14269PP      PP24373  16.283  13.363  12.739  0.0881 -0.3390  0.0069
14270PP      PP24374   9.174   5.173   0.372  0.1859 -0.0817  0.4513
14271PP      PP24375   4.332  15.342   4.373 -0.2992  0.1534  0.2503
14272PP      PP24376   1.498   5.548  11.166 -0.1222 -0.0081 -0.0200
14273PP      PP24377  13.182  11.743   2.461  0.2336  0.2086  0.1050
14274PP      PP24378   3.626   3.420   9.435 -0.0937  0.0072 -0.2063
14275PP      PP24379  11.949  15.133   3.166 -0.2617 -0.0528  0.3471
14276PP      PP24380  11.003   6.734   0.459 -0.0972  0.2616  0.2189
14277PP      PP24381   3.449   2.571   9.040  0.1925 -0.0877  0.0236
14278PP      PP24382   5.120   8.242  12.100  0.1842  0.0276  0.2716
14279PP      PP24383   5.971  14.128   3.456  0.0265  0.1034  0.2309
14280PP      PP24384  11.429  14.525   2.884  0.0460  0.0933 -0.1387
14281PP      PP24385  11.483  11.592   4.098  0.3053  0.1438  0.0129
14282PP      PP24386  12.218  10.174   1.352  0.0259  0.0600 -0.0812
14283PP      PP24387   1.583   6.603   8.963  0.0985  0.0060 -0.1066
14284PP      PP24388  10.418   9.476   8.316  0.0981 -0.0001 -0.0900
14285PP      PP24389  15.205  11.031   2.693  0.0002  0.1613  0.0187
14286PP      PP24390  14.171  14.515   0.528  0.0149 -0.1412  0.1798
14287PP      PP24391  16.184   2.621   3.476  0.1741 -0.1189  0.2485
14288PP      PP24392   6.384   5.616   1.404 -0.0714 -0.0267  0.1243
14289PP      PP24393  11.588  11.290   0.870  0.2747 -0.0367  0.1499
14290PP      PP24394  10.290   0.278  12.125 -0.3669  0.0262  0.0163
14291PP      PP24395  13.259  12.373   9.082 -0.0177  0.0793 -0.1948
14292PP      PP24396  13.750  15.448  11.001  0.3142 -0.0165  0.0649
14293PP      PP24397  13.560   2.932   3.434 -0.1873  0.4007  0.2595
14294PP      PP24398   3.395  11.211   3.236 -0.1186 -0.1707 -0.0775
14295PP      PP24399   0.264   3.504   0.539 -0.1781  0.3657 -0.0616
14296PP      PP24400  11.612  15.671   2.262 -0.0250 -0.1970 -0.1521
14297PP      PP24401   1.821  14.500  10.400 -0.2329 -0.1718  0.1998
14298PP      PP24402  14.424  11.863   8.520  0.1339  0.1879  0.2333
14299PP      PP24403  13.150   1.129   1.264 -0.0887  0.1042 -0.4808
14300PP      PP24404  13.352   7.023   3.077 -0.1186 -0.0403 -0.0935
14301PP      PP24405  15.925   6.753   8.716 -0.2754 -0.0799  0.1490
14302PP      PP24406   8.009   6.541   9.533  0.0504 -0.1133  0.0654
14303PP      PP24407   2.491   4.118   2.024  0.1033  0.0414 -0.0896
14304PP      PP24408   4.022  16.342  10.913  0.3909  0.2086 -0.2277
14305PP      PP24409  13.858   1.524   9.714 -0.0165 -0.2013 -0.0402
14306PP      PP24410   7.928  11.427   0.800  0.2174 -0.2819 -0.0479
14307PP      PP24411  11.472   2.760   9.932 -0.1253  0.1821 -0.0196
14308PP      PP24412   7.086   9.170   1.149 -0.2907 -0.1105 -0.0127
14309PP      PP24413   0.870   2.019   1.635  0.2183  0.0292  0.4428
14310PP      PP24414  13.286  15.662  10.994  0.4267  0.1021 -0.1026
14311PP      PP24415  14.958   0.010   0.821  0.0061 -0.0812 -0.1526
14312PP      PP24416   0.180   0.797  10.123 -0.1493  0.3852 -0.1106
14313PP      PP24417   6.750  13.668  10.433  0.1522  0.1078  0.0381
14314PP      PP24418  16.296  15.959   9.085 -0.1367  0.1114 -0.0870
14315PP      PP24419  13.094   4.998  11.595 -0.3182  0.1613 -0.1240
14316PP      PP24420  10.363  14.176   3.240 -0.1536  0.2457 -0.1468
14317PP      PP24421  15.953   5.428  11.903 -0.0518  0.3556  0.0462
14318PP      PP24422   6.352  15.850  11.541 -0.0689  0.0742 -0.2623
14319PP      PP24423   4.048  11.276  11.644  0.4240  0.1321 -0.2003
14320PP      PP24424  12.944   4.248   8.257 -0.1361  0.3383  0.0267
14321PP      PP24425  15.709  16.019   8.709  0.1766 -0.1126 -0.2268
14322PP      PP24426   3.699   2.618  12.388 -0.0483  0.1833  0.3005
14323PP      PP24427   2.436   2.317  11.188 -0.2234  0.1834  0.2334
14324PP      PP24428   7.301   2.989   1.980  0.0162 -0.2485 -0.1958
14325PP      PP24429  10.555  11.910  12.505  0.1688 -0.1288  0.0162
14326PP      PP24430   3.763  13.561   0.669 -0.0391 -0.0065 -0.1259
14327PP      PP24431  11.463   6.686   3.328 -0.2837 -0.1645 -0.1562
14328PP      PP24432   4.099   2.009   9.379 -0.1725 -0.0373  0.2249
14329PP      PP24433   7.424   0.663   9.363  0.0509 -0.0520 -0.0643
14330PP      PP24434  16.346  15.916  12.502 -0.0042 -0.1874  0.2265
14331PP      PP24435   5.393  12.969   1.325  0.1347 -0.0079  0.0822
14332PP      PP24436  13.885  10.472   0.482 -0.3031 -0.1572 -0.0791
14333PP      PP24437   2.872   8.042   9.748  0.0682 -0.3207  0.0081
14334PP      PP24438  11.543   4.043   8.126  0.5154 -0.2419  0.0359
14335PP      PP24439   5.939   6.094   0.284  0.1382  0.0041 -0.1064
14336PP      PP24440  12.177   9.729   0.071 -0.1000 -0.1721 -0.2156
14337PP      PP24441   1.606  12.876   8.519  0.1893 -0.1213 -0.1569
14338PP      PP24442   9.963   7.713   8.328 -0.0199  0.3324  0.3720
14339PP      PP24443   9.864   0.864   2.307  0.1921  0.1142 -0.0487
14340PP      PP24444   4.666  13.388   1.834  0.0361  0.3951  0.1912
14341PP      PP24445   7.211  16.083   9.457  0.0184  0.0958 -0.1847
14342PP      PP24446  10.134  13.725   1.051 -0.0203 -0.1447  0.2478
14343PP      PP24447  12.842   0.257  11.511 -0.1378  0.0782  0.0088
14344PP      PP24448  12.682  11.382   2.556  0.0555 -0.1674  0.1193
14345PP      PP24449   9.797  11.676  11.295 -0.1507 -0.0812  0.2984
14346PP      PP24450   1.292  16.350   3.692 -0.1377  0.0215 -0.2479
14347PP      PP24451   4.065  16.046   2.452 -0.0890 -0.2784  0.1834
14348PP      PP24452   9.350  10.344   3.468  0.2019 -0.0310 -0.0842
14349PP      PP24453  14.011   1.128   3.378 -0.2764  0.0938 -0.0498
14350PP      PP24454  15.444  15.411   3.498  0.1749 -0.0310  0.2236
14351PP      PP24455   6.711  13.812  11.719 -0.1515 -0.1478 -0.3367
14352PP      PP24456  12.545   6.872  11.257 -0.0435  0.1825 -0.0083
14353PP      PP24457   1.844   5.784  11.435 -0.0909 -0.1531  0.1936
14354PP      PP24458  11.564   5.640  11.771  0.1784  0.0791  0.0078
14355PP      PP24459   9.661   8.816   9.570 -0.3324 -0.3182 -0.0459
14356PP      PP24460   3.346   0.080   9.771  0.1826 -0.1194  0.0568
14357PP      PP24461  15.757   6.882   1.697 -0.1161  0.3384  0.1408
14358PP      PP24462   3.087  12.193   2.425  0.2450  0.2875 -0.1677
14359PP      PP24463   8.453   6.857   1.931 -0.2195  0.3170  0.0824
14360PP      PP24464   5.701  12.836   2.786  0.0559 -0.0585 -0.0462
14361PP      PP24465  15.529   6.116  10.245  0.0044  0.0198 -0.2192
14362PP      PP24466   1.224   2.787   3.831  0.0469 -0.1078 -0.4052
14363PP      PP24467   1.664  10.368   2.806  0.0736  0.2795 -0.0759
14364PP      PP24468   7.625   5.054   1.450 -0.1976  0.2485 -0.2142
14365PP      PP24469  11.859  10.606   9.904 -0.0900  0.0868 -0.1307
14366PP      PP24470   1.586  12.046  10.898 -0.3800  0.1860  0.0472
14367PP      PP24471  16.068  12.150   9.592  0.5388 -0.1466  0.0758
14368PP      PP24472  12.432   4.416   8.861  0.2246  0.1849  0.0927
14369PP      PP24473   0.408   3.225  10.789  0.0658 -0.0924 -0.0280
14370PP      PP24474   3.635   7.521   2.488 -0.0934 -0.0611  0.1409
14371PP      PP24475   8.598  14.712  12.176 -0.0015 -0.0020  0.0558
14372PP      PP24476   9.662  13.086  10.362  0.0693 -0.0982 -0.0850
14373PP      PP24477  10.372   2.877  11.028  0.3386 -0.0148 -0.0491
14374PP      PP24478  12.700   7.977   0.231  0.1977  0.2234  0.2461
14375PP      PP24479   9.661  12.264   0.063  0.0711 -0.0983  0.0042
14376PP      PP24480  14.066  15.116  11.112  0.0927 -0.3128  0.1598
14377PP      PP24481   5.554   6.337  12.108  0.0746  0.2200 -0.0360
14378PP      PP24482  11.555   9.726   8.315  0.0837  0.1755  0.3151
14379PP      PP24483   5.452   7.198   1.110  0.4479 -0.3622 -0.0345
14380PP      PP24484   3.274  10.617   0.919  0.1018  0.1670  0.0585
14381PP      PP24485   3.870  14.772   3.181  0.0450  0.1096 -0.2395
14382PP      PP24486   9.372   3.823   8.105 -0.1676  0.2067  0.0095
14383PP      PP24487   3.832  11.750   9.775 -0.0068 -0.4742 -0.3723
14384PP      PP24488   8.577   6.852   1.386  0.0087 -0.1116 -0.1464
14385PP      PP24489   0.443   2.500   0.080 -0.0067  0.2088 -0.2748
14386PP      PP24490  11.299   6.604   0.885 -0.3629 -0.2138  0.0804
14387PP      PP24491   2.207   2.289  12.295  0.1377 -0.0095  0.1126
14388PP      PP24492  16.035   6.179   0.821 -0.0503 -0.2205 -0.0017
14389PP      PP24493  14.048   3.659  10.687  0.0947 -0.0876 -0.2796
14390PP      PP24494  14.967   1.659   0.152  0.0158  0.2933 -0.1488
14391PP      PP24495   6.107   7.927   2.050 -0.2799  0.0917 -0.0793
14392PP      PP24496   1.856  15.415  10.247 -0.0552 -0.4314  0.2780
14393PP      PP24497   2.801  10.575   1.234  0.0628 -0.2026  0.0259
14394PP      PP24498  15.441   3.031   3.490  0.1532  0.0377 -0.1610
14395PP      PP24499   7.884   6.519   3.795 -0.2091 -0.1672 -0.1563
14396PP      PP24500   4.070   6.610   3.645  0.1909  0.0645 -0.0460
14397PP      PP24501   7.608  10.341  11.254  0.3369  0.2212  0.1072
14398PP      PP24502   3.227  11.209   8.276 -0.1152 -0.2582  0.0461
14399PP      PP24503  15.967   4.837  12.500 -0.1705  0.3435 -0.1020
14400PP      PP24504   4.163  11.199  10.347 -0.1276  0.1266  0.2373
14401PP      PP24505   4.564  15.932   3.673 -0.2350 -0.2207  0.2101
14402PP      PP24506  15.438   0.688   2.322 -0.3372 -0.0017 -0.0426
14403PP      PP24507  15.495   1.889  12.207  0.2562 -0.0987  0.1973
14404PP      PP24508  15.123   8.556   1.425 -0.0231 -0.0001  0.0216
14405PP      PP24509  15.195  12.911   9.049 -0.2235  0.1565 -0.1076
14406PP      PP24510   8.825  10.325   9.753 -0.1806  0.0113  0.1542
14407PP      PP24511   5.849  13.291   1.272 -0.1476 -0.1344  0.1445
14408PP      PP24512   8.514   4.930  10.257 -0.1536  0.0010  0.1823
14409PP      PP24513  11.434   1.000   9.902 -0.0921  0.3002 -0.1507
14410PP      PP24514   3.948   0.583  11.662 -0.0382  0.0656  0.0321
14411PP      PP24515  12.918   1.748  12.728 -0.0072 -0.0762  0.0421
14412PP      PP24516  12.965   4.019   0.384 -0.1393 -0.0071 -0.1149
14413PP      PP24517  12.090   9.283   0.277 -0.1897 -0.0014  0.0619
14414PP      PP24518   1.131   7.839   9.442 -0.1006 -0.0691  0.3211
14415PP      PP24519   1.710   2.481  10.871  0.2849  0.0436  0.0680
14416PP      PP24520   9.836  10.670   8.421  0.1911  0.1141 -0.1373
14417PP      PP24521  13.858   3.729  12.742  0.1870  0.0880 -0.0867
14418PP      PP24522  14.661   7.974  11.512  0.1532 -0.1623  0.3326
14419PP      PP24523  16.228  10.641   9.380 -0.2072  0.0628 -0.1048
14420PP      PP24524  12.027  15.629   9.124 -0.1017 -0.0178  0.3289
14421PP      PP24525  12.688   7.954   1.315  0.2112 -0.0147 -0.3293
14422PP      PP24526   7.955   6.428   9.068 -0.1152 -0.3219  0.0283
14423PP      PP24527  15.967   8.512  10.340  0.3137 -0.0863 -0.5425
14424PP      PP24528   7.458  10.408   2.956  0.0354  0.0180 -0.1025
14425PP      PP24529   9.010   8.166   3.653  0.1139 -0.2731  0.0156
14426PP      PP24530   7.702   2.645   1.237 -0.0321 -0.2731  0.1978
14427PP      PP24531   4.922  12.384  11.102  0.3624  0.1642 -0.0470
14428PP      PP24532   3.792  12.008  12.055  0.4140  0.3292  0.1629
14429PP      PP24533   4.719   0.040   0.473 -0.2032  0.0141  0.3739
14430PP      PP24534  12.537  11.511  12.155 -0.0829  0.2753  0.0700
14431PP      PP24535   5.104   3.373  12.393  0.2223  0.0101  0.0235
14432PP      PP24536   0.379   9.705  12.619  0.3683  0.1902 -0.1522
14433PP      PP24537  11.180  13.364   3.816  0.3186 -0.0971  0.3770
14434PP      PP24538   2.741  11.470   1.226  0.0450  0.0377  0.1368
14435PP      PP24539  10.751   1.844  10.583  0.1235  0.0594 -0.0456
14436PP      PP24540   8.697   2.601  11.436 -0.2265 -0.0878 -0.3304
14437PP      PP24541  13.322   0.354   9.212 -0.4173  0.2918 -0.3594
14438PP      PP24542  11.352   5.615   1.838 -0.4883 -0.2646  0.1288
14439PP      PP24543   3.291  15.933  12.183 -0.1088  0.1690 -0.0855
14440PP      PP24544  14.183  13.926  10.050  0.0105  0.1218  0.1678
14441PP      PP24545  13.979   6.747   0.162  0.2003 -0.4538 -0.0997
14442PP      PP24546  12.235  12.875   2.930  0.2216  0.0377 -0.1269
14443PP      PP24547  14.883   9.290   2.279  0.0479 -0.5672  0.0241
14444PP      PP24548   3.354   0.949   1.463 -0.0112  0.0115 -0.2610
14445PP      PP24549   9.453   2.619   4.033  0.2931 -0.2001  0.3274
14446PP      PP24550   8.723  13.564  10.153  0.1791  0.1850  0.2227
14447PP      PP24551  14.914   3.239  12.245  0.4153  0.1354  0.2626
14448PP      PP24552   5.155   9.847   9.792  0.0485 -0.1623  0.3538
14449PP      PP24553  10.863  14.026   9.232  0.1014 -0.2287  0.1249
14450PP      PP24554   6.634   3.755   8.848  0.0223 -0.1388 -0.1463
14451PP      PP24555  12.411   2.462   3.977  0.2795  0.2069  0.0811
14452PP      PP24556  10.001   6.228   8.410  0.0934  0.0440  0.0453
14453PP      PP24557  13.783   0.272   7.880  0.2173  0.2553 -0.1639
14454PP      PP24558  12.674   8.391   1.845 -0.1743  0.0261  0.0379
14455PP      PP24559   3.456   9.454   2.729  0.0401 -0.0252 -0.1126
14456PP      PP24560  11.368   3.137  10.870 -0.0001 -0.2954  0.0605
14457PP      PP24561   3.025   1.652  10.739  0.0848  0.2272 -0.1488
14458PP      PP24562   4.202  10.814   1.883 -0.1614  0.1155  0.1481
14459PP      PP24563  15.460  15.552  12.389 -0.2781  0.0143  0.1756
14460PP      PP24564   7.128   3.581   0.565  0.0029  0.0172 -0.0195
14461PP      PP24565   0.051   0.932  12.504  0.0862  0.0522 -0.0198
14462PP      PP24566  13.683   2.803   0.932 -0.0487 -0.0288  0.0160
14463PP      PP24567   6.668   1.715  10.595 -0.0402 -0.1047  0.3449
14464PP      PP24568  15.494   4.952   1.084 -0.0135  0.0187  0.2061
14465PP      PP24569   6.835  16.073   1.450  0.0949  0.0212  0.1763
14466PP      PP24570  12.143   2.635  10.233  0.2474 -0.2284  0.2588
14467PP      PP24571  15.229   3.603   9.376  0.3355  0.0010 -0.1575
14468PP      PP24572   9.660   4.875   3.776 -0.3188  0.1035 -0.1938
14469PP      PP24573  13.800  16.122  11.795  0.2030 -0.0579 -0.2755
14470PP      PP24574  12.680   3.876   9.101 -0.3047 -0.0438 -0.2896
14471PP      PP24575  15.403   3.229   0.804  0.3901  0.3060  0.0100
14472PP      PP24576  14.367   8.248   8.196 -0.1146 -0.1353 -0.1878
14473PP      PP24577   6.722  13.903  12.532  0.2508 -0.0686  0.0722
14474PP      PP24578   1.042   8.391   1.265  0.2980 -0.1626  0.0180
14475PP      PP24579   3.189  11.118   0.856 -0.2045 -0.0326 -0.0783
14476PP      PP24580   5.315  15.882   9.508 -0.2872  0.1361  0.3809
14477PP      PP24581  13.776   1.091   4.266  0.1604 -0.1810  0.0190
14478PP      PP24582   4.692   9.352   0.505 -0.1442 -0.0064 -0.0845
14479PP      PP24583   7.790  12.819   2.629 -0.0112  0.2104 -0.0256
14480PP      PP24584  10.722   6.579  10.346  0.0134  0.0041 -0.1505
14481PP      PP24585  15.595  13.314   4.073 -0.0446 -0.1553  0.1489
14482PP      PP24586   0.197   9.005  11.823 -0.2326 -0.1609  0.0848
14483PP      PP24587   1.648   9.000  10.388 -0.0891 -0.1203 -0.2865
14484PP      PP24588   7.240   1.448   4.607  0.0799 -0.1518 -0.0790
14485PP      PP24589   2.018   5.927   3.520 -0.0401  0.6107 -0.2771
14486PP      PP24590   4.561   7.935   8.022 -0.4871 -0.3141  0.1788
14487PP      PP24591  13.671  10.905   2.577 -0.1192  0.1046  0.1577
14488PP      PP24592  13.256   8.137   2.855 -0.3119 -0.0375  0.1247
14489PP      PP24593   4.117  13.090  11.030  0.0800  0.1495  0.1954
14490PP      PP24594   9.383   0.815   9.112  0.1956 -0.1147 -0.1787
14491PP      PP24595   4.966   4.950   3.873 -0.0321  0.0802 -0.1272
14492PP      PP24596   6.899   3.991  12.300 -0.1978  0.1034 -0.2131
14493PP      PP24597   5.731   9.525  11.580  0.0860 -0.1682 -0.2398
14494PP      PP24598  14.317   9.569   9.521 -0.1093  0.0855 -0.0586
14495PP      PP24599   3.053  15.697   0.677  0.1508 -0.1432  0.0321
14496PP      PP24600   1.234  15.789  11.274  0.2550 -0.0892 -0.0693
14497PP      PP24601   5.498   1.337  10.940  0.2273  0.0302 -0.3883
14498PP      PP24602  10.920  15.345   1.233  0.0221  0.1871  0.2494
14499PP      PP24603   8.600   3.302  10.448  0.4939 -0.0013 -0.2196
14500PP      PP24604  13.877   3.552  10.171  0.1480  0.1544  0.2885
14501PP      PP24605   1.480   4.352  10.379 -0.0870 -0.1794 -0.0144
14502PP      PP24606   0.439  11.547   3.516  0.0562 -0.0680  0.1090
14503PP      PP24607   1.833  12.669   8.983 -0.0849 -0.1375 -0.0224
14504PP      PP24608   4.754   7.926   0.550  0.2642  0.0412  0.2102
14505PP      PP24609   0.111   4.482   8.457  0.2654  0.0494 -0.0995
14506PP      PP24610   9.248  10.903   8.680 -0.0645 -0.2837 -0.3916
14507PP      PP24611   8.585  12.997   4.413  0.0804 -0.2729  0.0500
14508PP      PP24612  10.148   9.302   8.699 -0.0649 -0.0337 -0.0376
14509PP      PP24613   7.360   6.872   9.798  0.3212  0.2710 -0.1600
14510PP      PP24614   1.233   1.799  12.248 -0.1195 -0.2058 -0.0165
14511PP      PP24615   0.692   1.060   1.024  0.1152 -0.2310  0.0404
14512PP      PP24616   7.952  10.979   2.834 -0.2483  0.2598  0.0342
14513PP      PP24617   9.143   9.534   0.355  0.1733  0.0394  0.0721
14514PP      PP24618   0.647   7.355   8.108  0.2872 -0.2087 -0.3940
14515PP      PP24619  10.836  14.658   4.670  0.1029 -0.0828 -0.1046
14516PP      PP24620   7.138  10.064   0.658  0.2578 -0.1332  0.2026
14517PP      PP24621   8.820   5.965   9.918  0.1737 -0.1121 -0.3638
14518PP      PP24622   6.793   0.274  12.315 -0.1457 -0.2298 -0.0174
14519PP      PP24623   7.393   0.260   1.510 -0.1585 -0.0094  0.0548
14520PP      PP24624   1.553  13.149   2.264  0.2738 -0.2299 -0.0825
14521PP      PP24625   7.937   6.942   2.811 -0.1736  0.0809  0.0189
14522PP      PP24626   5.515  13.948   3.387  0.1923  0.1788 -0.2717
14523PP      PP24627   2.194  10.394  11.772  0.0424  0.1149  0.3951
14524PP      PP24628  13.963  13.675   4.032  0.3985  0.2026 -0.1745
14525PP      PP24629  14.654   8.409   1.629  0.3210  0.0495  0.3536
14526PP      PP24630   6.809  13.324   2.982  0.1507  0.0128 -0.2673
14527PP      PP24631   0.265  12.042   2.826 -0.0206  0.0854  0.0298
14528PP      PP24632   6.163  13.350   8.425  0.5434 -0.1521 -0.0262
14529PP      PP24633  10.763   2.304   2.810 -0.1299 -0.1188 -0.0552
14530PP      PP24634  10.419  15.746  11.526  0.4010  0.0344  0.0027
14531PP      PP24635  12.679  13.897  12.644 -0.0547  0.5865 -0.2125
14532PP      PP24636   5.141  15.800  10.687  0.1905  0.0469  0.0641
14533PP      PP24637   4.825  14.076   2.473  0.2199  0.2243  0.1371
14534PP      PP24638  16.160   6.525  11.816  0.2093  0.1643  0.0321
14535PP      PP24639   1.317  15.828   1.987 -0.0211 -0.0665 -0.0379
14536PP      PP24640   5.664  15.016  11.697 -0.1668 -0.3198  0.0782
14537PP      PP24641  14.589   4.588  12.014  0.2834 -0.2922 -0.2694
14538PP      PP24642   0.378   7.172   2.763 -0.3043 -0.0563 -0.0697
14539PP      PP24643   4.049  11.353   1.197 -0.0934 -0.0998  0.1368
14540PP      PP24644   7.269   2.297  10.135 -0.0013 -0.0519 -0.0541
14541PP      PP24645   6.538   8.761   9.435  0.1360 -0.0548 -0.1345
14542PP      PP24646   1.292   2.003   4.167 -0.1409  0.1400  0.2701
14543PP      PP24647   0.798   0.054   3.816 -0.2344  0.1811 -0.0768
14544PP      PP24648  11.850  13.886  12.670 -0.0377  0.1637 -0.0239
14545PP      PP24649  12.995   7.340  10.684 -0.0396  0.0421  0.0179
14546PP      PP24650  14.446   1.616  12.474  0.0241 -0.2921 -0.1882
14547PP      PP24651   6.359  11.926   9.963  0.1279 -0.2849  0.3209
14548PP      PP24652   9.994  16.001   4.359 -0.0811  0.1002  0.0286
14549PP      PP24653  15.873  12.422   9.958  0.0799  0.2117 -0.0397
14550PP      PP24654  10.447   9.286   9.948  0.2174  0.3080 -0.2928
14551PP      PP24655   2.379  14.635   2.558 -0.0313  0.0264  0.1839
14552PP      PP24656   7.612   1.140   0.324 -0.0975  0.1347  0.0936
14553PP      PP24657   8.388   1.821  12.119 -0.1230 -0.3578 -0.0022
14554PP      PP24658   3.774  13.965   7.999 -0.2689 -0.4284 -0.2618
14555PP      PP24659  12.089  12.822   2.300 -0.3691  0.0894  0.0226
14556PP      PP24660   2.056   9.717   0.343 -0.1479 -0.2571 -0.1215
14557PP      PP24661  10.427   4.595  12.642  0.0448 -0.1237 -0.0764
14558PP      PP24662   6.631  14.832  12.254 -0.1377 -0.0054 -0.1545
14559PP      PP24663   4.775   4.452   8.935  0.0263 -0.1958  0.1357
14560PP      PP24664  10.473  14.696   9.684  0.0170  0.3465  0.1164
14561PP      PP24665  11.087   7.495   2.488  0.0251 -0.1444  0.0061
14562PP      PP24666   6.795   1.466   1.008 -0.2554  0.1419  0.0023
14563PP      PP24667  10.291   8.379   8.986 -0.3099  0.1845 -0.0371
14564PP      PP24668  11.650   2.628  11.955  0.1193 -0.2171 -0.0716
14565PP      PP24669  14.256   0.796   0.056 -0.0728 -0.0902  0.0016
14566PP      PP24670   4.299   4.162   9.088 -0.0254  0.1928 -0.0671
14567PP      PP24671   3.891   2.455   8.856  0.3522 -0.0303  0.0369
14568PP      PP24672   8.993  10.476  12.509  0.1144  0.1085 -0.0710
14569PP      PP24673   8.806   6.766   9.911  0.1364  0.0006  0.1215
14570PP      PP24674   2.555   6.441   0.596  0.1731  0.2056  0.2556
14571PP      PP24675  13.172   6.420   2.262  0.0190  0.0802  0.1582
14572PP      PP24676   9.189  10.185  11.999  0.0547  0.2734 -0.0945
14573PP      PP24677  10.311  15.067   4.023  0.0405  0.0549  0.3801
14574PP      PP24678   5.460   9.643  11.968 -0.0567 -0.0182  0.0227
14575PP      PP24679   0.659  13.540   3.696  0.2798  0.2224 -0.2544
14576PP      PP24680  14.385  15.439  12.549  0.0666  0.1620 -0.0444
14577PP      PP24681   1.126  10.425  10.371 -0.2475  0.1091  0.0428
14578PP      PP24682  13.332   3.712  12.203 -0.1758 -0.0034 -0.0245
14579PP      PP24683   8.594  10.619   1.749 -0.0696  0.0998 -0.0292
14580PP      PP24684  16.349  11.830   3.273 -0.0425 -0.0549  0.1906
14581PP      PP24685  14.768   2.290  12.197 -0.0724 -0.1878 -0.2084
14582PP      PP24686   9.677   3.651   2.699 -0.0054  0.0158 -0.0363
14583PP      PP24687   6.273   6.401   1.993  0.0459 -0.0458  0.0865
14584PP      PP24688  12.061  13.615   3.030 -0.1340  0.1357  0.1192
14585PP      PP24689  11.625  14.054   1.158  0.1540  0.2226  0.1184
14586PP      PP24690  11.451   3.258   3.090 -0.0619 -0.1003  0.3559
14587PP      PP24691  12.334   9.899  10.598 -0.4487  0.0409 -0.3850
14588PP      PP24692   6.063   1.223  10.090  0.1983 -0.0870 -0.2767
14589PP      PP24693  10.105   8.154  10.306 -0.1567  0.1612 -0.1987
14590PP      PP24694  16.159   6.846   8.153 -0.1278 -0.2473 -0.1234
14591PP      PP24695   0.022   3.285   1.141 -0.1313 -0.0640 -0.2113
14592PP      PP24696  10.576   8.922   0.728 -0.2962  0.1477 -0.1792
14593PP      PP24697   0.484   5.619   8.110 -0.0094 -0.4133 -0.0211
14594PP      PP24698   6.871  12.579   9.109 -0.1287 -0.0770  0.0107
14595PP      PP24699   5.011   3.023   1.217 -0.0822  0.0045 -0.3410
14596PP      PP24700   4.949   6.417  11.364 -0.2540  0.1833  0.1999
14597PP      PP24701   9.980   5.437  12.142  0.3117  0.0490 -0.1450
14598PP      PP24702  11.887  13.027   1.299  0.0427  0.0999 -0.1990
14599PP      PP24703   8.938   8.516   8.917  0.1877  0.0240  0.0990
14600PP      PP24704  13.149  11.441   0.867 -0.0171 -0.2763 -0.3978
14601PP      PP24705  12.551   1.798   2.505 -0.0051 -0.2561 -0.3562
14602PP      PP24706  10.963   3.988  12.527  0.0680  0.0670  0.3309
14603PP      PP24707  10.395   7.454   7.913 -0.1259  0.0663  0.0611
14604PP      PP24708   5.280  12.934   9.500 -0.0478 -0.3202 -0.3271
14605PP      PP24709   9.411   1.402  12.539 -0.0292 -0.2690 -0.1725
14606PP      PP24710   4.089   4.346   0.753  0.0777  0.1249 -0.3999
14607PP      PP24711   6.908   8.232  12.625  0.1555 -0.0274 -0.2204
14608PP      PP24712   0.767   1.903  10.164 -0.2155  0.2208 -0.0435
14609PP      PP24713  11.748  11.701   2.472 -0.0256 -0.1337  0.0054
14610PP      PP24714   2.835   8.141   8.487  0.0447  0.0693  0.0323
14611PP      PP24715  11.067   3.893   9.423 -0.2458  0.2536  0.2105
14612PP      PP24716   6.601   3.370   1.068  0.0525  0.1179  0.0376
14613PP      PP24717  11.999  10.665   8.592 -0.1816  0.0296  0.0125
14614PP      PP24718   9.375  11.939  12.022 -0.0023 -0.0829  0.1285
14615PP      PP24719  10.142   4.960   2.562 -0.0568  0.4126  0.0636
14616PP      PP24720   8.856  13.226   3.285  0.4529 -0.2012 -0.1280
14617PP      PP24721   6.909  13.965  11.171  0.2146  0.0089  0.0659
14618PP      PP24722  13.597   6.018  11.703  0.1442 -0.4381  0.0359
14619PP      PP24723   6.644   9.735  11.793  0.2192  0.2285 -0.0983
14620PP      PP24724  16.323   7.754  10.945  0.1377  0.1534  0.1167
14621PP      PP24725   8.385   4.637   2.763  0.0878 -0.3061 -0.2739
14622PP      PP24726   9.849   0.687   3.563  0.1130  0.1579  0.0505
14623PP      PP24727  11.137  13.425   3.256  0.4442 -0.0342  0.0656
14624PP      PP24728   0.967  13.355  11.832  0.0654 -0.2050 -0.3217
14625PP      PP24729   8.146   3.634   8.109 -0.1227  0.2535 -0.3008
14626PP      PP24730  14.185  11.273  11.214 -0.0080 -0.3161  0.2665
14627PP      PP24731   1.970   8.789   9.951 -0.0914 -0.3440  0.1260
14628PP      PP24732  11.386  12.579   1.878 -0.0751  0.2730 -0.3296
14629PP      PP24733   0.499   5.470  10.595  0.0060  0.0605 -0.0957
14630PP      PP24734   7.309   3.167  12.443  0.2022  0.0293 -0.2441
14631PP      PP24735  14.682  14.266   4.497 -0.1402 -0.1671 -0.1508
14632PP      PP24736   9.448   4.664  10.668 -0.0623  0.1493 -0.0542
14633PP      PP24737   5.111  15.367  12.011  0.1681 -0.0212  0.0303
14634PP      PP24738   3.614  10.638  12.235  0.0675 -0.0343 -0.1465
14635PP      PP24739  10.451  13.302   1.382 -0.1919 -0.0621 -0.1450
14636PP      PP24740   8.961   4.684   3.878  0.1504 -0.3864 -0.0821
14637PP      PP24741  14.554  13.685   2.337  0.3313 -0.4702  0.1330
14638PP      PP24742  14.027   2.924   0.127  0.1986  0.4327 -0.0023
14639PP      PP24743   5.950  12.898   2.130  0.0752  0.1643 -0.0209
14640PP      PP24744   3.918   9.767  11.467  0.0548  0.0399 -0.0036
14641PP      PP24745   7.006  14.516   2.750 -0.0483 -0.1471 -0.2886
14642PP      PP24746  10.918  11.049  10.885 -0.1206 -0.0185 -0.2524
14643PP      PP24747  10.192  13.053   1.020  0.0023  0.0088  0.0971
14644PP      PP24748  10.040   5.231   1.290 -0.4061  0.2011 -0.1132
14645PP      PP24749   0.382   5.003   3.247  0.1522 -0.0080  0.1315
14646PP      PP24750   3.129   9.149   0.980 -0.0691  0.1395 -0.0440
14647PP      PP24751   4.944   0.054   4.172 -0.0033  0.1196  0.2224
14648PP      PP24752   7.839   0.189  10.996 -0.1344 -0.2717 -0.1183
14649PP      PP24753  10.349   9.616  12.113 -0.0437 -0.0302 -0.2363
14650PP      PP24754   5.982   2.807   4.375  0.1412 -0.0671 -0.0072
14651PP      PP24755   4.660   9.793  10.141  0.0654  0.0001  0.0648
14652PP      PP24756   3.086   4.856   3.915 -0.1545 -0.2877 -0.0019
14653PP      PP24757   9.970   0.487  10.516  0.1160  0.0826 -0.1437
14654PP      PP24758   7.674   8.296   9.998  0.0830  0.0615  0.1903
14655PP      PP24759   2.532   6.495   2.487 -0.0862 -0.1648  0.5150
14656PP      PP24760   0.190   6.335  12.219 -0.3806  0.1176  0.1380
14657PP      PP24761   7.325   8.228  10.878 -0.0699  0.0844 -0.2044
14658PP      PP24762  12.815  11.065   0.223  0.2007 -0.0996 -0.1641
14659PP      PP24763   1.228   1.399   9.499  0.0804  0.0134 -0.0526
14660PP      PP24764   3.991  10.900   0.423 -0.0143 -0.1447 -0.1987
14661PP      PP24765  11.353   6.530   2.917  0.1540 -0.1925  0.0042
14662PP      PP24766  11.985  13.364   9.925 -0.3547 -0.0544  0.1521
14663PP      PP24767   9.110   2.566  12.591 -0.1321  0.0039  0.2194
14664PP      PP24768  10.993   5.571  11.778 -0.1566 -0.1263  0.0305
14665PP      PP24769   9.870  11.258  10.363 -0.1187  0.0026  0.1698
14666PP      PP24770   9.424   8.235   1.889 -0.0804 -0.0212  0.4789
14667PP      PP24771  12.584   8.316   0.573  0.4896 -0.3872  0.2446
14668PP      PP24772  15.307  12.828   4.136  0.2065  0.2916  0.1441
14669PP      PP24773   8.026  15.431  11.558 -0.0906  0.1759 -0.1299
14670PP      PP24774   5.789   1.428   4.375 -0.0840  0.0011 -0.1211
14671PP      PP24775   0.424   7.912  11.493 -0.2349  0.1310  0.0725
14672PP      PP24776   7.267   9.629   4.649 -0.1779 -0.1189 -0.1323
14673PP      PP24777  13.265  14.618   1.185  0.0926  0.2325 -0.3774
14674PP      PP24778  16.208  14.747  11.924 -0.0981  0.1115 -0.5110
14675PP      PP24779   0.393  15.645   3.119 -0.0215  0.1239  0.2108
14676PP      PP24780   8.180   4.285  12.514 -0.7589  0.0944 -0.1166
14677PP      PP24781  15.678   2.410   8.912 -0.1402  0.0679 -0.1215
14678PP      PP24782  12.399  13.822   0.367  0.0263  0.0942 -0.0198
14679PP      PP24783   2.154   8.625   3.117  0.0503 -0.1069 -0.0209
14680PP      PP24784  13.382   7.398   3.439 -0.1145 -0.2661  0.0789
14681PP      PP24785   2.066   1.414  12.663  0.0454 -0.0739 -0.1444
14682PP      PP24786  15.887  11.174   2.520 -0.1379  0.1863 -0.0619
14683PP      PP24787  12.809   9.058  10.676 -0.0050 -0.1485 -0.1181
14684PP      PP24788   7.341   5.832   9.756 -0.2401  0.0752 -0.2862
14685PP      PP24789   0.219  10.152  12.349  0.3481  0.0803 -0.0342
14686PP      PP24790   2.781   2.799   2.567 -0.0437  0.1260  0.0516
14687PP      PP24791   9.434  15.070  11.749  0.1209 -0.0993 -0.0396
14688PP      PP24792  14.729   6.070   8.096  0.3110  0.0819 -0.1684
14689PP      PP24793  11.840   0.333  12.711 -0.1456 -0.0620 -0.2885
14690PP      PP24794   7.188  10.124   1.495 -0.1682  0.0897 -0.2413
14691PP      PP24795   7.900   9.089   9.744  0.0560 -0.0307  0.1175
14692PP      PP24796   6.948   1.741  12.409  0.0726 -0.1207 -0.1782
14693PP      PP24797   1.976   1.839   1.524 -0.1859 -0.0420  0.3800
14694PP      PP24798   2.154   5.778   0.841  0.0898 -0.0717  0.2194
14695PP      PP24799   6.630   9.909   8.063  0.2352  0.2344 -0.0493
14696PP      PP24800   0.429  15.728  12.362  0.1265 -0.3301 -0.3405
14697PP      PP24801   9.738   0.625  11.542  0.0479  0.0248 -0.0939
14698PP      PP24802   5.691  15.848   0.513  0.2455 -0.0555 -0.1665
14699PP      PP24803  12.240   3.627   0.974 -0.1758 -0.4283 -0.2202
14700PP      PP24804   8.841   1.807  11.669 -0.0007 -0.0278 -0.3586
14701PP      PP24805   2.920   8.003   1.441  0.0929  0.0241 -0.0348
14702PP      PP24806  12.661   1.409   3.816 -0.0203 -0.0018  0.0930
14703PP      PP24807  15.774   1.014  10.016 -0.2856 -0.0161 -0.0872
14704PP      PP24808  15.155   2.074  11.761 -0.0326  0.0067 -0.0145
14705PP      PP24809   1.336   3.340   0.350  0.3126 -0.0865 -0.2295
14706PP      PP24810  12.168   1.495   8.915 -0.0826 -0.0731 -0.0634
14707PP      PP24811   9.328   0.290  11.500 -0.0335  0.2286 -0.3259
14708PP      PP24812  12.602   1.533   9.767 -0.3291 -0.3887 -0.1816
14709PP      PP24813   6.878  14.274   1.759  0.2826  0.2745 -0.2813
14710PP      PP24814  10.199  13.431   9.239  0.0649  0.2297 -0.3729
14711PP      PP24815   2.620   4.927   3.529  0.2126  0.0596  0.3401
14712PP      PP24816   2.963  14.997  12.325  0.0878  0.2198 -0.0083
14713PP      PP24817  13.006   9.379   8.989 -0.0245  0.1462 -0.1972
14714PP      PP24818   8.162  12.508   0.882 -0.0889 -0.2938  0.1686
14715PP      PP24819   3.062  15.587   2.775  0.0977  0.1362 -0.0922
14716PP      PP24820  10.716  11.946   9.456  0.1186 -0.0095  0.0229
14717PP      PP24821   0.444  15.505   2.288 -0.0440  0.0727 -0.1875
14718PP      PP24822   2.995   3.563  11.114 -0.0205 -0.0168 -0.3205
14719PP      PP24823  12.114   7.638  10.869  0.1207 -0.1160 -0.0756
14720PP      PP24824   5.081   1.966  12.371 -0.2306  0.0617  0.0007
14721PP      PP24825   8.329   8.347  11.657 -0.3221 -0.0917 -0.1103
14722PP      PP24826   0.273   5.842   3.691  0.3859 -0.3847  0.0360
14723PP      PP24827   3.727   4.775   3.364  0.2726 -0.2155  0.3091
14724PP      PP24828  13.618   0.058  10.460  0.1985 -0.3161 -0.1951
14725PP      PP24829   9.929  12.999   9.294 -0.1822 -0.0889  0.1611
14726PP      PP24830   3.442  14.468   7.440  0.2461 -0.0817 -0.0988
14727PP      PP24831   5.937  14.601   2.958  0.4227 -0.0991  0.1640
14728PP      PP24832   7.851  10.960   9.772 -0.2653  0.1600 -0.0950
14729PP      PP24833   3.413   3.644   9.918  0.0373  0.0391 -0.0542
14730PP      PP24834  11.238   9.302   0.258  0.1296 -0.0816 -0.1814
14731PP      PP24835   5.589   7.169   2.472  0.0733 -0.5287 -0.0619
14732PP      PP24836  15.075   6.608   0.881 -0.0485 -0.0786  0.0424
14733PP      PP24837  13.606   2.202   3.020 -0.0597 -0.2059 -0.2449
14734PP      PP24838   8.950   5.302   0.833  0.0938  0.2112  0.1067
14735PP      PP24839   3.484  15.882  10.819  0.0977 -0.1176 -0.1054
14736PP      PP24840  12.350   7.714   1.558  0.1034  0.0349  0.1981
14737PP      PP24841   6.927   2.263   4.304  0.0152 -0.1410  0.3568
14738PP      PP24842  14.462  10.936   4.331 -0.2250  0.3512  0.0189
14739PP      PP24843  10.540   2.410   9.496 -0.0206  0.0769 -0.3910
14740PP      PP24844  12.694   4.091   1.961 -0.0005  0.4455 -0.3677
14741PP      PP24845  10.005  13.976   0.292 -0.0946 -0.0134  0.2367
14742PP      PP24846   2.858   4.387  12.503  0.1771 -0.3482 -0.0571
14743PP      PP24847   2.809   6.075   9.880  0.0647  0.2211 -0.1252
14744PP      PP24848   7.577  10.780   3.750 -0.0218 -0.0415 -0.0469
14745PP      PP24849   1.445  14.519  10.801  0.1766 -0.1359  0.1279
14746PP      PP24850   1.020   9.810  10.497  0.1910 -0.0913 -0.0766
14747PP      PP24851   5.414   5.785   3.979 -0.0628 -0.0388  0.0418
14748PP      PP24852  13.743   2.255  12.032  0.3901 -0.1378  0.2250
14749PP      PP24853   8.714   4.894   3.129  0.0258  0.2732 -0.0841
14750PP      PP24854   4.941  10.368  11.702  0.1905 -0.0405  0.1286
14751PP      PP24855   7.888   4.716   7.975 -0.1764 -0.0857 -0.1619
14752PP      PP24856  13.320  10.714   2.908  0.3124  0.0123  0.1265
14753PP      PP24857   8.332   0.686  12.423 -0.1982 -0.0988  0.1509
14754PP      PP24858   7.962   3.589  10.584 -0.1844  0.2858  0.0184
14755PP      PP24859  15.081   1.142   3.750 -0.1781  0.0779  0.1778
14756PP      PP24860  10.326   0.870   3.688  0.3992 -0.1076  0.0102
14757PP      PP24861   0.918  16.135  11.519 -0.1919  0.0523 -0.2327
14758PP      PP24862   5.270  12.864  11.915  0.1378 -0.0340  0.2420
14759PP      PP24863  10.151  13.798   9.957  0.0006  0.0635  0.2400
14760PP      PP24864   0.445  15.042  12.605  0.0901  0.0345  0.1843
14761PP      PP24865   7.314   0.276   0.996  0.0703 -0.0226  0.1957
14762PP      PP24866   8.948   1.252   2.339  0.0742  0.0710 -0.0509
14763PP      PP24867   3.302   5.126  11.063  0.0474  0.1107  0.1248
14764PP      PP24868   3.876  11.196  10.786 -0.1153  0.1910  0.0218
14765PP      PP24869   9.205  14.128   4.428  0.2357 -0.0427 -0.0136
14766PP      PP24870   5.034  12.912   7.944  0.1392  0.1574 -0.0298
14767PP      PP24871   1.541   9.529   0.394 -0.1308 -0.0055 -0.1558
14768PP      PP24872  14.835   9.654   9.132 -0.1620  0.0658  0.1898
14769PP      PP24873  12.950  14.670   9.116  0.0498  0.0040  0.1240
14770PP      PP24874  15.576   8.668   1.565  0.3941 -0.1219 -0.2096
14771PP      PP24875   4.060  12.475  12.045 -0.0859  0.0831 -0.0713
14772PP      PP24876   7.727  11.277  12.206  0.1781 -0.2825  0.0825
14773PP      PP24877  10.537   9.615   3.552  0.4357 -0.2599 -0.0131
14774PP      PP24878   4.382  11.209   9.807  0.2103 -0.1155  0.1765
14775PP      PP24879   9.786   7.528   1.371  0.0568  0.2093 -0.0134
14776PP      PP24880  10.212   3.608   2.828 -0.0538 -0.1484  0.0193
14777PP      PP24881  15.068   2.375   8.923  0.0479 -0.0534 -0.3155
14778PP      PP24882  11.664  15.203   3.559  0.1765  0.1434 -0.0684
14779PP      PP24883  14.695   1.676  11.829 -0.1309  0.1488 -0.2643
14780PP      PP24884   9.249   2.315   0.851  0.2047  0.0763  0.0813
14781PP      PP24885   3.088   9.228  11.861 -0.2559  0.4199  0.0435
14782PP      PP24886   6.706   4.722   1.208 -0.0986  0.3002  0.0356
14783PP      PP24887  13.340  11.971   0.554 -0.1779 -0.0861 -0.0258
14784PP      PP24888   1.165  12.300  10.840  0.0885 -0.0615  0.0213
14785PP      PP24889  14.003   8.687  12.114 -0.1229  0.0908 -0.0643
14786PP      PP24890   9.172   0.572   3.265  0.2890 -0.0861 -0.4679
14787PP      PP24891   0.310   3.641  11.156  0.2089 -0.2111  0.5169
14788PP      PP24892   7.939   3.761   8.773 -0.4331 -0.1569 -0.1230
14789PP      PP24893   2.022  10.697  12.133 -0.0809  0.3360  0.1105
14790PP      PP24894   6.257  14.558   3.780  0.2845 -0.1817  0.2343
14791PP      PP24895  10.628   4.603   3.765 -0.1385  0.5786  0.2082
14792PP      PP24896   9.505   2.525   1.812  0.1626  0.1472 -0.0441
14793PP      PP24897  10.066  15.408   0.649 -0.1064 -0.0439  0.1522
14794PP      PP24898   4.318   8.433  12.745  0.0015  0.0119 -0.0234
14795PP      PP24899   8.598  13.111  11.885 -0.0195  0.3333 -0.0225
14796PP      PP24900   2.968   6.497   9.240 -0.0000  0.2279 -0.3099
14797PP      PP24901   6.906   1.740   2.402 -0.0066 -0.3061  0.0487
14798PP      PP24902   8.409   1.015  11.946  0.1168  0.0786  0.0012
14799PP      PP24903  14.130  13.807  12.726 -0.1990 -0.2529  0.0220
14800PP      PP24904   8.767  11.425   0.279  0.0216  0.2931  0.0744
14801PP      PP24905  15.705   0.683  11.476 -0.0187 -0.0369  0.0776
14802PP      PP24906  14.937  11.187  11.768  0.1126  0.2142 -0.0714
14803PP      PP24907  12.213  13.714   9.601 -0.1328  0.2544  0.0519
14804PP      PP24908   0.208  10.333  10.222  0.1037  0.2905 -0.2652
14805PP      PP24909  13.939   3.166  11.504 -0.0810  0.5369 -0.4882
14806PP      PP24910  14.819   5.069   3.158 -0.0546 -0.1600  0.0736
14807PP      PP24911   1.554   3.387   9.441 -0.1226 -0.0666  0.1875
14808PP      PP24912   4.072   0.949  12.066 -0.3353 -0.1290 -0.0794
14809PP      PP24913   6.402   7.367  12.192 -0.2444  0.2728  0.0227
14810PP      PP24914   0.390  14.185  10.007  0.1364 -0.1035  0.0025
14811PP      PP24915  12.751   0.482  10.885  0.0423  0.1806 -0.1440
14812PP      PP24916   6.252   5.219   2.392  0.0904 -0.1105 -0.0982
14813PP      PP24917   9.825   8.120   3.014 -0.2133 -0.0729  0.3780
14814PP      PP24918   3.447  10.240  10.962  0.1013 -0.0858  0.2669
14815PP      PP24919  10.438   9.275   0.358  0.1882 -0.0265 -0.3881
14816PP      PP24920   2.973   0.452  12.176 -0.3280 -0.2030  0.0457
14817PP      PP24921  11.331   9.259   8.732 -0.0616 -0.0374  0.0821
14818PP      PP24922   2.141   1.929   2.013  0.1092  0.0435  0.0747
14819PP      PP24923   8.772   8.354   9.360  0.1146 -0.1698 -0.1411
14820PP      PP24924  10.619  13.608  11.117  0.2073 -0.2108 -0.0794
14821PP      PP24925   2.248   9.105   9.396 -0.0732 -0.0295 -0.0653
14822PP      PP24926   4.970   8.024   8.829  0.0893  0.3545  0.1216
14823PP      PP24927   7.878   7.832   2.632 -0.1936  0.0483 -0.0964
14824PP      PP24928  11.036  13.783   3.674  0.0062 -0.0195  0.3867
14825PP      PP24929   5.508   0.436  10.354  0.0376 -0.0784  0.1212
14826PP      PP24930  10.132   7.539   0.472 -0.0687 -0.1046  0.3291
14827PP      PP24931  11.631   2.198  11.042 -0.0725 -0.2169 -0.0609
14828PP      PP24932   3.441   3.992   8.593 -0.2469  0.0336  0.1923
14829PP      PP24933  10.687   0.203   1.057 -0.1575  0.0802  0.1297
14830PP      PP24934  14.895   5.780   8.827 -0.1148 -0.0065  0.0032
14831PP      PP24935   1.547   3.767   0.299 -0.2267 -0.0225  0.2309
14832PP      PP24936   3.375   9.734   9.608  0.0758  0.0847  0.2456
14833PP      PP24937  13.024  12.935   0.700 -0.3823  0.1631  0.4268
14834PP      PP24938   2.977  15.236   8.865  0.1311  0.3694  0.1243
14835PP      PP24939   1.760   7.898  12.315 -0.0742  0.4910 -0.2595
14836PP      PP24940   9.665  14.172   2.095  0.0210 -0.0116 -0.1056
14837PP      PP24941   9.173   5.675   2.517 -0.0885 -0.0947  0.0170
14838PP      PP24942   8.726   4.235   2.879  0.3110 -0.3022  0.0522
14839PP      PP24943   1.345   8.278   0.809  0.1253  0.0042 -0.2487
14840PP      PP24944  15.854  10.938  11.421  0.2087  0.1428  0.0701
14841PP      PP24945   1.041   9.914   9.963 -0.2244  0.1758  0.0876
14842PP      PP24946  12.329   7.040   9.237 -0.2019  0.0497 -0.0397
14843PP      PP24947   6.154   6.301   1.409  0.0170  0.0868 -0.0596
14844PP      PP24948   6.021   4.305   0.811 -0.0871 -0.1369  0.1082
14845PP      PP24949  13.845  10.096  12.333 -0.1939  0.0527  0.2775
14846PP      PP24950   7.375   1.219   1.867 -0.1020 -0.0822 -0.1524
14847PP      PP24951   6.801   9.442  10.662  0.0623  0.0254 -0.0797
14848PP      PP24952  13.385   2.169   8.038  0.2193  0.0891  0.0458
14849PP      PP24953  12.978   6.750   0.616  0.3393  0.1041  0.0171
14850PP      PP24954   2.482   3.653   9.751  0.0614  0.0179  0.1099
14851PP      PP24955   4.162   1.353   0.873  0.1114 -0.4664  0.0722
14852PP      PP24956   1.891   2.761   9.629  0.0892  0.1296 -0.3230
14853PP      PP24957   3.514  13.672   9.707  0.0988 -0.2547  0.3173
14854PP      PP24958  12.043  16.358  12.288  0.4747  0.0737 -0.0646
14855PP      PP24959  15.198   5.426   1.853  0.0420 -0.2707 -0.1230
14856PP      PP24960   2.584   3.593   2.237  0.2891  0.0258 -0.1734
14857PP      PP24961   2.666   7.414  11.452 -0.0861  0.1162 -0.1930
14858PP      PP24962  15.130   4.623   9.984 -0.0480  0.0254  0.0573
14859PP      PP24963   5.702  16.145   2.582  0.0797  0.1838 -0.0107
14860PP      PP24964   1.452  11.693  11.447 -0.2356 -0.1306  0.0488
14861PP      PP24965  12.491   0.084   1.068  0.0490 -0.0204  0.0320
14862PP      PP24966   4.496  13.655   3.492 -0.0466 -0.0382  0.2412
14863PP      PP24967   0.574  15.502   9.813 -0.0303  0.0785  0.2916
14864PP      PP24968  15.872   1.695   3.036 -0.1612  0.4047 -0.1544
14865PP      PP24969   5.171  15.597  10.172  0.0786  0.3693 -0.0183
14866PP      PP24970   8.444   9.358   3.223  0.0280  0.1625 -0.0735
14867PP      PP24971   5.128   8.420   1.960  0.0870 -0.0450 -0.1497
14868PP      PP24972   0.846   9.061   3.796  0.3231  0.0604 -0.0462
14869PP      PP24973   6.715   0.483   3.771 -0.0999 -0.0327  0.0054
14870PP      PP24974  15.128   7.551   8.199 -0.1662 -0.0178 -0.2930
14871PP      PP24975   4.078  12.213   0.596 -0.1791  0.2459  0.0912
14872PP      PP24976   4.931  15.051  12.743  0.1152  0.0189  0.1964
14873PP      PP24977  14.893  10.961   3.023 -0.0759 -0.0509  0.0008
14874PP      PP24978  10.074   4.789  10.647  0.0873  0.2213 -0.1798
14875PP      PP24979   4.200   8.302  10.072  0.1198  0.2601 -0.1254
14876PP      PP24980  11.070   1.897   1.000  0.1838 -0.1201  0.3873
14877PP      PP24981   7.311   4.083   4.105  0.2325  0.2717 -0.2068
14878PP      PP24982  13.774  15.993   3.615 -0.1900  0.1042  0.2088
14879PP      PP24983  15.638  15.208   2.163 -0.0251  0.3638 -0.0380
14880PP      PP24984   6.048   1.567   8.580 -0.2024 -0.2218 -0.0135
14881PP      PP24985   1.257   5.888  12.388  0.0459  0.1442 -0.0715
14882PP      PP24986  11.770  14.317   4.146 -0.0787  0.1424  0.3050
14883PP      PP24987   6.691  14.740   4.146  0.2885  0.1397 -0.0273
14884PP      PP24988   3.274  14.400   2.109  0.1578  0.3074  0.1370
14885PP      PP24989   1.020   3.310   9.707 -0.0515  0.1202  0.1573
14886PP      PP24990   1.685   8.525  10.380 -0.2135  0.0891 -0.1539
14887PP      PP24991   0.571   8.529  11.626  0.1751 -0.3559  0.2042
14888PP      PP24992   8.749   9.343   2.010 -0.0669 -0.2478 -0.6435
14889PP      PP24993   6.176  10.859   3.274 -0.3887  0.1311 -0.3442
14890PP      PP24994  15.532   7.422  10.823  0.0753  0.1228  0.1402
14891PP      PP24995  13.353  14.757   3.131  0.1472  0.1001 -0.3505
14892PP      PP24996  11.981   4.505   9.327  0.3463 -0.3910 -0.4109
14893PP      PP24997  15.067   9.322   0.174 -0.2440  0.0085  0.0165
14894PP      PP24998   7.115   1.130  10.031  0.1327 -0.3223 -0.0299
14895PP      PP24999   1.522  11.864   3.460 -0.2677 -0.2386  0.1238
14896PP      PP25000  14.941  10.346   3.811  0.0138 -0.0875  0.4018
14897PP      PP25001   1.398   0.236   9.206 -0.2277  0.1343 -0.0541
14898PP      PP25002  10.252   9.786   2.363  0.1702  0.0651 -0.4101
14899PP      PP25003  15.569   8.205  10.058 -0.0907  0.1601 -0.0385
14900PP      PP25004  10.795  15.599   3.469 -0.0951 -0.0732 -0.6600
14901PP      PP25005   1.544  12.090   2.962 -0.0576 -0.0402  0.0198
14902PP      PP25006   3.398   4.236   1.112 -0.1042 -0.1836  0.2404
14903PP      PP25007  13.512   9.710  10.147 -0.1266  0.1026 -0.1087
14904PP      PP25008  16.026  11.474  10.661 -0.0413  0.1873  0.3575
14905PP      PP25009   8.572   5.109   9.729  0.0384 -0.2399  0.0296
14906PP      PP25010   4.953   0.807   1.472  0.3704 -0.1322  0.0476
14907PP      PP25011   4.197  12.206   8.731  0.1285 -0.0578 -0.0559
14908PP      PP25012   2.692  10.418  11.233 -0.0977  0.0225  0.3191
14909PP      PP25013  14.859  16.035   9.935  0.2462  0.1374  0.4255
14910PP      PP25014   7.624   4.816  12.449 -0.0900  0.3433 -0.0670
14911PP      PP25015  10.036   2.023  12.388  0.3426 -0.0370  0.2420
14912PP      PP25016   9.181   3.789   2.811 -0.0874  0.2158  0.2250
14913PP      PP25017  10.262   1.493  11.485 -0.1927  0.3720  0.1620
14914PP      PP25018  14.682  14.505   3.215  0.0225  0.0582 -0.2461
14915PP      PP25019   1.662   6.826  12.079 -0.2928 -0.1129 -0.0035
14916PP      PP25020   5.063  12.558   1.848  0.2423 -0.0702 -0.3251
14917PP      PP25021  13.557  13.812   1.726  0.2708 -0.0897 -0.0726
14918PP      PP25022  14.110  13.285   1.145 -0.1923  0.0415  0.1208
14919PP      PP25023  12.750  12.174   8.740 -0.1182 -0.0128  0.0923
14920PP      PP25024   3.838   1.343   1.860 -0.5389 -0.0030 -0.3448
14921PP      PP25025   4.206   0.819   3.700  0.2306  0.2474  0.2418
14922PP      PP25026   2.649  10.343   5.881  0.1349 -0.1085 -0.1023
14923PP      PP25027  15.478   1.125   4.129  0.1795  0.0803 -0.0396
14924PP      PP25028   4.175  12.670  12.724 -0.0563 -0.0242 -0.2020
14925PP      PP25029  13.085   0.043   4.046  0.1649 -0.1549 -0.0362
14926PP      PP25030   4.670  14.876   1.044 -0.0583 -0.0571 -0.0423
14927PP      PP25031   8.364   1.056   3.561  0.1281  0.1285 -0.2075
14928PP      PP25032  14.142  14.625  11.413  0.0290  0.1882  0.1144
14929PP      PP25033  13.963   3.674   2.709  0.3466 -0.0850 -0.3620
14930PP      PP25034   9.755  14.472   1.614  0.0975 -0.1828 -0.3923
14931PP      PP25035  15.289   9.579   2.929  0.0267  0.1826 -0.1141
14932PP      PP25036  12.374   5.671  10.119 -0.0528 -0.0046 -0.0434
14933PP      PP25037  14.055   2.832   8.453 -0.1655 -0.1406 -0.1903
14934PP      PP25038   1.800  12.562   3.054 -0.2452 -0.0324  0.0916
14935PP      PP25039  10.164   8.550   9.504 -0.0851  0.0021 -0.0904
14936PP      PP25040   3.301   2.879  10.309 -0.2265 -0.1510  0.0122
14937PP      PP25041   5.506   6.639   9.819 -0.1153  0.0914 -0.1758
14938PP      PP25042   7.842   9.177   2.308 -0.1124  0.0038  0.2135
14939PP      PP25043   8.535   0.333   1.910 -0.1270  0.1085 -0.2336
14940PP      PP25044   9.734   4.954   2.291 -0.0314  0.0429  0.0632
14941PP      PP25045  14.179   0.114   3.992  0.1453 -0.1071 -0.1373
14942PP      PP25046  13.380   0.335   1.286 -0.3709 -0.2524 -0.1769
14943PP      PP25047  11.078   6.769   3.703  0.1032 -0.0002 -0.0785
14944PP      PP25048   3.527   3.675   9.023 -0.1151 -0.3267 -0.0691
14945PP      PP25049   8.682  11.615   9.224 -0.0843 -0.1411  0.1208
14946PP      PP25050  12.973   7.810   9.090  0.1592  0.0325 -0.1117
14947PP      PP25051   7.381  15.846   1.481  0.0452 -0.3012  0.0629
14948PP      PP25052   3.248  14.205   8.032  0.0782  0.3129 -0.0940
14949PP      PP25053   7.887  15.561  10.246 -0.1058  0.1119 -0.0410
14950PP      PP25054  10.863  14.097   4.518 -0.0928 -0.2190 -0.2119
14951PP      PP25055  13.788   6.060   7.961 -0.0227  0.1241  0.3170
14952PP      PP25056  12.664  15.625   2.477 -0.4869  0.0663 -0.1353
14953PP      PP25057   3.584   2.129  10.082 -0.2814  0.1271 -0.2360
14954PP      PP25058   4.945  10.156  10.753 -0.1161  0.1499 -0.0294
14955PP      PP25059   4.979   8.894   1.502 -0.2201 -0.0579 -0.0212
14956PP      PP25060   9.733  13.885   9.578  0.4501  0.1683 -0.1782
14957PP      PP25061  13.577  13.746   0.733 -0.0930  0.0708 -0.0867
14958PP      PP25062  12.642  15.113  12.388  0.1841 -0.3625 -0.0679
14959PP      PP25063  15.467   9.701  12.092 -0.0521 -0.3757  0.1232
14960PP      PP25064  10.578  10.357   1.550  0.2011  0.0258  0.2055
14961PP      PP25065  15.890   3.102   2.773  0.0446 -0.2751 -0.0852
14962PP      PP25066  11.952   1.786   8.445  0.3551 -0.3472 -0.1100
14963PP      PP25067   3.169  12.599   8.874 -0.3023  0.2880  0.0031
14964PP      PP25068   3.835   5.435   1.511 -0.2679 -0.2568 -0.1494
14965PP      PP25069   0.015  13.523   1.667 -0.2500 -0.3504 -0.0553
14966PP      PP25070  13.310  10.584  11.261 -0.1136 -0.0363 -0.1851
14967PP      PP25071   3.851  11.637  12.523 -0.0341  0.0519 -0.0252
14968PP      PP25072  12.399   0.317   0.505 -0.0674  0.1525 -0.2894
14969PP      PP25073   8.453   4.984   2.364  0.3817  0.0479  0.0318
14970PP      PP25074  14.310   3.410   0.020  0.3878 -0.0166 -0.1312
14971PP      PP25075   6.592  14.565   3.010  0.1141 -0.0463  0.0862
14972PP      PP25076  10.804   1.694   3.329 -0.4380 -0.1784  0.3629
14973PP      PP25077   2.203   8.270   2.725 -0.0464 -0.0305 -0.2036
14974PP      PP25078  12.943   5.531   2.906  0.2115 -0.3218 -0.0635
14975PP      PP25079  15.613  11.988  10.815 -0.0053  0.0341  0.2915
14976PP      PP25080   4.197   9.214   8.488 -0.0748 -0.3334 -0.2612
14977PP      PP25081   9.710  11.761   4.259  0.0535  0.0876 -0.0395
14978PP      PP25082   5.058   2.679  11.560  0.2781 -0.0720  0.0987
14979PP      PP25083  13.104  10.200   2.916  0.1161  0.0091  0.2222
14980PP      PP25084   2.206   1.124   4.558  0.3504 -0.1097 -0.2739
14981PP      PP25085  10.051  10.177   0.350 -0.0609 -0.0185 -0.1887
14982PP      PP25086  13.583   0.952   3.813  0.3057 -0.1423 -0.1781
14983PP      PP25087   1.216   2.866  10.634  0.2516  0.1052  0.0328
14984PP      PP25088   1.905   1.426   1.904 -0.0858 -0.0479 -0.0962
14985PP      PP25089   6.949   5.242  11.075  0.3084  0.1611 -0.2015
14986PP      PP25090  13.380   3.635  12.715 -0.1359  0.1286 -0.3091
14987PP      PP25091   0.820  11.118   0.441  0.1748  0.1445 -0.2002
14988PP      PP25092  12.198   0.040   1.522  0.1460  0.0126  0.0699
14989PP      PP25093   2.577   9.515   9.357 -0.0009  0.0360 -0.1751
14990PP      PP25094   7.994   0.854   0.042  0.1998  0.1910 -0.1657
14991PP      PP25095   1.531   2.465   9.935  0.2422 -0.0569  0.1619
14992PP      PP25096   1.859   2.539   4.397 -0.1043  0.1539 -0.1519
14993PP      PP25097  13.624   6.669   8.811 -0.1709 -0.3102 -0.1526
14994PP      PP25098  12.426  15.090   1.247 -0.3402  0.1349 -0.0626
14995PP      PP25099  13.535  13.119  10.232 -0.0535  0.5687  0.0180
14996PP      PP25100  14.574  15.999   8.106  0.3977 -0.2494 -0.0968
14997PP      PP25101   0.418   7.069  11.601  0.0905 -0.0020 -0.0453
14998PP      PP25102  11.093   3.277   8.836  0.0706 -0.0932 -0.0961
14999PP      PP25103  12.428   5.840   2.116 -0.0244  0.2861 -0.6453
15000PP      PP25104   4.806   0.063  11.835  0.2133 -0.1838  0.1288
15001PP      PP25105  15.232   6.654   7.964  0.0620 -0.0096  0.0500
15002PP      PP25106   1.670  12.213  11.735 -0.0036  0.0367 -0.0425
15003PP      PP25107   4.436  10.639   2.816 -0.1135  0.0834 -0.1934
15004PP      PP25108  15.902  16.287   3.150  0.1729 -0.3505 -0.2376
15005PP      PP25109   1.641  13.580   8.663 -0.0482 -0.2811 -0.3518
15006PP      PP25110   4.668  12.905   1.779 -0.2326  0.0337  0.1205
15007PP      PP25111  10.493   1.780   3.766  0.0962 -0.0962  0.0761
15008PP      PP25112   8.290   9.798   0.747 -0.1377 -0.2083  0.1301
15009PP      PP25113  11.154   5.578   9.953 -0.0986 -0.1292 -0.0974
15010PP      PP25114  15.431   8.530   9.098 -0.0870 -0.0417  0.2769
15011PP      PP25115   9.950   5.720  11.523 -0.0200 -0.0999 -0.1922
15012PP      PP25116   6.233   6.190   3.195 -0.0491 -0.2248  0.1243
15013PP      PP25117  12.618  11.572   1.084 -0.1536 -0.1962  0.0029
15014PP      PP25118   3.950  15.789   2.876  0.0729  0.0761 -0.0776
15015PP      PP25119   9.386   1.101  11.310  0.2375  0.5270 -0.2755
15016PP      PP25120  16.092  12.813   9.658 -0.0192  0.0561  0.0627
15017PP      PP25121   6.831  11.393   0.954  0.2775 -0.0265 -0.2393
15018PP      PP25122   1.760   7.927   3.556 -0.1164 -0.2251  0.0011
15019PP      PP25123  14.510   9.296   1.319  0.2455  0.2020  0.0645
15020PP      PP25124   9.087   6.147   8.101 -0.4661 -0.0663 -0.0449
15021PP      PP25125   5.009   4.443  12.291  0.1929 -0.2073 -0.1005
15022PP      PP25126   2.355  10.379   2.788 -0.0133  0.0743  0.1459
15023PP      PP25127  13.319   5.419   3.210 -0.2017 -0.1106  0.0753
15024PP      PP25128  14.776  13.361   2.876  0.0426 -0.0469 -0.0495
15025PP      PP25129   5.948   5.777   2.215  0.1713  0.1701 -0.0599
15026PP      PP25130   5.185   7.428   1.757 -0.1088 -0.0236 -0.1523
15027PP      PP25131   2.749   6.190   7.722 -0.5097 -0.0606  0.0014
15028PP      PP25132   8.358   0.904   9.368  0.4197 -0.1239  0.0778
15029PP      PP25133   2.684   5.304   1.397 -0.3124  0.0186 -0.0012
15030PP      PP25134   1.944  12.474   1.737  0.0781  0.0881  0.1311
15031PP      PP25135  12.772  11.008   3.647 -0.1485 -0.0637  0.1480
15032PP      PP25136   4.094  14.891   3.648  0.1221  0.0131 -0.0922
15033PP      PP25137  15.212   6.958  11.681  0.4524 -0.0069  0.2831
15034PP      PP25138  14.848   9.041  12.372  0.0115  0.0499  0.0607
15035PP      PP25139  11.744   8.147   0.953  0.0352 -0.0813  0.0451
15036PP      PP25140   2.254   1.462   2.773 -0.1741 -0.1465  0.1683
15037PP      PP25141  10.376  12.918   2.744 -0.1819 -0.0067 -0.1455
15038PP      PP25142  12.474   9.275   9.476  0.2760 -0.0690  0.1002
15039PP      PP25143   3.953  13.753  12.439 -0.1614  0.0299 -0.1161
15040PP      PP25144   8.727   1.355   1.358 -0.1564  0.1174  0.0329
15041PP      PP25145   6.378   2.710  11.634  0.0895  0.2574  0.1714
15042PP      PP25146   0.604   8.699   3.973 -0.1016 -0.0145 -0.2182
15043PP      PP25147  12.677  13.867   1.363 -0.1554 -0.0070  0.0562
15044PP      PP25148   8.460  11.930   3.605  0.2088 -0.0157  0.0714
15045PP      PP25149   4.723   8.239  11.007 -0.7026 -0.0962 -0.0428
15046PP      PP25150   0.530   7.369   1.768  0.3739  0.1190  0.3288
15047PP      PP25151   6.818   5.540   3.458 -0.2073  0.1067  0.1301
15048PP      PP25152  11.904   6.935   3.617 -0.1849 -0.3444  0.0056
15049PP      PP25153  13.687   3.259   7.722  0.2260 -0.1951 -0.1027
15050PP      PP25154   4.578   6.972  10.120 -0.1633  0.3767  0.1050
15051PP      PP25155  10.392   6.596  10.989 -0.0019  0.0603  0.4027
15052PP      PP25156   1.598   7.314  10.423  0.2887 -0.1634  0.0107
15053PP      PP25157  16.199   5.484   1.431 -0.0389 -0.1771  0.1041
15054PP      PP25158   3.037  15.120   1.224  0.2033  0.2257  0.0565
15055PP      PP25159   3.632   0.432   1.616  0.2206  0.1387 -0.2493
15056PP      PP25160   5.235   0.277   3.829 -0.1720  0.0853 -0.2276
15057PP      PP25161   3.382   7.814  11.262 -0.0891 -0.2433 -0.1804
15058PP      PP25162   6.300  11.066  11.329  0.1253 -0.1820 -0.1240
15059PP      PP25163   5.540   1.150  10.136  0.2691  0.0330  0.1168
15060PP      PP25164   7.519  15.291   9.967 -0.0276 -0.0195 -0.0833
15061PP      PP25165  12.272   1.921   1.657  0.1503 -0.0904 -0.0849
15062PP      PP25166  11.711  13.935   2.970 -0.2299 -0.2769 -0.3355
15063PP      PP25167  14.556   1.396   3.730  0.2678 -0.2753  0.1435
15064PP      PP25168   7.441  16.002  12.323  0.2361  0.1161 -0.1350
15065PP      PP25169  12.897  10.805  10.905  0.2564 -0.1223 -0.2183
15066PP      PP25170   4.889  15.063   3.436 -0.0136 -0.0242 -0.0790
15067PP      PP25171   4.158   6.733   9.837 -0.4122  0.0049 -0.0381
15068PP      PP25172  15.467  13.664   2.432 -0.2411  0.0508 -0.1399
15069PP      PP25173  13.682  11.619   0.980 -0.1972  0.0906 -0.0672
15070PP      PP25174  15.659  14.036   0.648  0.0261  0.1725 -0.3323
15071PP      PP25175   4.245  14.206  12.689  0.1219 -0.0750  0.1282
15072PP      PP25176   5.417   9.294  12.643 -0.0875 -0.1949 -0.1183
15073PP      PP25177   1.451  13.323  12.555  0.0611 -0.0389  0.1069
15074PP      PP25178   5.945   0.966  12.277  0.1152 -0.1571 -0.0068
15075PP      PP25179   4.262   3.928   2.900 -0.1899  0.3109  0.2720
15076PP      PP25180  13.962   5.243  10.152 -0.0914  0.0631 -0.2503
15077PP      PP25181  11.936   9.001   2.010 -0.0592  0.0984 -0.2962
15078PP      PP25182   1.599  11.007   8.726 -0.0666  0.1114 -0.0171
15079PP      PP25183  11.849   3.419   1.170 -0.4391  0.0377 -0.1023
15080PP      PP25184   0.387   8.576   2.634 -0.0923  0.2216 -0.3886
15081PP      PP25185   8.625   8.808   9.272  0.0261  0.1620 -0.0480
15082PP      PP25186   1.319  10.685   2.116  0.2342  0.0458  0.1844
15083PP      PP25187   4.412  15.286   0.104  0.0779 -0.0344 -0.1629
15084PP      PP25188  10.685  11.706   3.623 -0.1874  0.3080  0.0112
15085PP      PP25189   8.934   7.011  12.031  0.0766 -0.1807 -0.1311
15086PP      PP25190   2.721  14.660   2.160  0.0301  0.0906 -0.0485
15087PP      PP25191  16.190   2.043   1.933  0.0660 -0.1487 -0.2843
15088PP      PP25192   2.753   0.819   0.473 -0.1273 -0.0962  0.1964
15089PP      PP25193  14.066   2.107   3.873  0.1914  0.0635  0.0696
15090PP      PP25194   9.569   3.427  10.585  0.0294  0.0343  0.2769
15091PP      PP25195  10.992   3.828  11.344  0.1835 -0.0105  0.3349
15092PP      PP25196   7.715   2.599   9.614 -0.5821 -0.2616 -0.1055
15093PP      PP25197   6.783   2.918   2.049 -0.1691  0.0656  0.0238
15094PP      PP25198  12.779  13.021   2.886 -0.0773 -0.1872  0.1643
15095PP      PP25199   7.954  14.527   2.396  0.0573  0.1653  0.1053
15096PP      PP25200   1.014   9.697  11.469  0.1982 -0.0274 -0.2521
15097PP      PP25201   8.219   8.344  10.740 -0.2867 -0.1391  0.2369
15098PP      PP25202  12.522   3.473   9.999  0.0449 -0.0223 -0.2112
15099PP      PP25203   3.731  11.670  11.732  0.1580 -0.0203 -0.0801
15100PP      PP25204  12.600   1.029   1.137 -0.0392  0.0393 -0.0862
15101PP      PP25205  15.246  13.256   1.982 -0.0361  0.1078  0.0110
15102PP      PP25206  14.570   2.991   8.369  0.0567 -0.0262 -0.0474
15103PP      PP25207   6.802   5.432   2.963 -0.1206  0.2894  0.1648
15104PP      PP25208  16.193   5.472   1.919  0.2569 -0.2091  0.1990
15105PP      PP25209   6.454   4.758  12.238 -0.2002 -0.0994  0.2055
15106PP      PP25210   3.923   9.083   0.089 -0.0190  0.3165 -0.2085
15107PP      PP25211   7.620  13.582   1.387 -0.2247 -0.0472 -0.1063
15108PP      PP25212  10.718  10.078   9.415  0.0267 -0.2848  0.0615
15109PP      PP25213  15.445  13.744   1.889 -0.0874 -0.3110  0.0050
15110PP      PP25214  14.634  10.217  10.148 -0.3958  0.0728 -0.2078
15111PP      PP25215   6.675   8.373  11.576  0.0639  0.0843 -0.0769
15112PP      PP25216   5.008   1.099   4.297 -0.1036 -0.0311  0.1895
15113PP      PP25217  14.249   3.780   3.995 -0.0364 -0.1561 -0.2909
15114PP      PP25218   3.736   5.764   9.718  0.3226 -0.1676 -0.3434
15115PP      PP25219  11.219   0.791   9.505 -0.1731 -0.1716  0.2357
15116PP      PP25220   5.302   1.919  10.216  0.1558 -0.0188  0.0096
15117PP      PP25221  16.313   0.983   0.872 -0.0334 -0.3926 -0.0346
15118PP      PP25222  15.220   9.220  11.971  0.0186 -0.1006 -0.0113
15119PP      PP25223  11.023  12.494  10.577 -0.1869 -0.3034  0.1056
15120PP      PP25224  14.123   4.827  12.081 -0.1883  0.0389  0.0643
15121PP      PP25225   2.405   5.646  12.283 -0.0820 -0.1478  0.1502
15122PP      PP25226   8.969  14.593  10.454  0.1822 -0.2806  0.1494
15123PP      PP25227   9.099   9.178   0.006 -0.1332  0.2313  0.2514
15124PP      PP25228   5.012  11.015  10.807  0.2546  0.3392  0.1918
15125PP      PP25229  11.036   6.937  11.795 -0.2824 -0.0919  0.0007
15126PP      PP25230   6.299   5.713   0.399 -0.0739 -0.0603  0.1761
15127PP      PP25231  13.680   3.685  11.206 -0.1751  0.0575 -0.0794
15128PP      PP25232   5.495   5.926   1.659  0.2668 -0.2152  0.4464
15129PP      PP25233  12.933  14.759   9.822  0.1508 -0.2759  0.1545
15130PP      PP25234   8.375   0.367   0.552 -0.1517  0.1106  0.0795
15131PP      PP25235   2.291   5.478   2.299  0.1330  0.1985  0.0872
15132PP      PP25236  12.599   9.510  10.293 -0.0283 -0.0907  0.1337
15133PP      PP25237  11.189   4.385   9.166 -0.2743  0.1378  0.1438
15134PP      PP25238  14.515  12.221   2.054  0.2079 -0.1232 -0.2973
15135PP      PP25239   9.147   4.075  10.341 -0.0762  0.0320 -0.2235
15136PP      PP25240   3.325  10.347   1.716  0.1389 -0.1532  0.1408
15137PP      PP25241   5.594  13.439   8.448 -0.1816 -0.2325  0.3706
15138PP      PP25242   8.236   0.646   8.932  0.0420  0.2847 -0.2076
15139PP      PP25243   7.587   0.185   2.196  0.2150  0.2326  0.0306
15140PP      PP25244   1.738  14.742   2.542  0.1017  0.2537  0.0023
15141PP      PP25245   1.192   8.225   8.659  0.1399  0.1743 -0.2004
15142PP      PP25246   8.048   0.201   3.043  0.0517 -0.0558  0.1365
15143PP      PP25247   7.055  14.025  12.119  0.0067 -0.1339  0.2643
15144PP      PP25248  12.279   9.643   0.643  0.1136  0.3344 -0.0805
15145PP      PP25249  10.597  14.093   2.625  0.2918 -0.2414  0.3367
15146PP      PP25250   9.232   8.797   9.819 -0.0125 -0.1322 -0.1920
15147PP      PP25251   0.906  14.173  10.562  0.0077 -0.0786 -0.0633
15148PP      PP25252  13.823   2.139   9.931  0.0514  0.0695 -0.0825
15149PP      PP25253   7.139  14.395  11.039  0.1156  0.3477 -0.0248
15150PP      PP25254  11.632  13.349   0.728 -0.2236  0.1704  0.2925
15151PP      PP25255   1.110   7.203  10.125  0.0101 -0.4582  0.0136
15152PP      PP25256  11.810  15.495  10.879 -0.1487  0.0970 -0.0067
15153PP      PP25257   9.098   9.905   2.363  0.4874  0.1998  0.0823
15154PP      PP25258   9.528  15.091   9.193  0.2343 -0.1310  0.0583
15155PP      PP25259  13.345   5.571   2.601 -0.1880 -0.4198  0.0377
15156PP      PP25260  15.237   4.755   2.318 -0.3553 -0.1502  0.2186
15157PP      PP25261   3.580  12.203   0.344  0.0507  0.1319  0.0948
15158PP      PP25262   2.237   1.622  10.259  0.6209  0.1158  0.1013
15159PP      PP25263   4.735   3.870   0.537 -0.2002 -0.0940 -0.0710
15160PP      PP25264   8.991   2.626   2.368 -0.0141  0.1140  0.1337
15161PP      PP25265   8.818  10.103   1.484 -0.1563  0.0686 -0.1629
15162PP      PP25266  16.032   1.426   0.272  0.1709 -0.1408  0.0751
15163PP      PP25267   8.026   0.549  11.773 -0.0702 -0.0502  0.2325
15164PP      PP25268  12.234   5.315   0.664  0.0832  0.0994  0.1040
15165PP      PP25269  12.483   9.860   1.559  0.0137 -0.0099  0.0687
15166PP      PP25270   1.631  14.599   9.289  0.0185  0.0271  0.1900
15167PP      PP25271   3.983   3.536  10.530  0.2661  0.1833 -0.0393
15168PP      PP25272   0.016   3.179   0.095 -0.3598  0.1826 -0.2248
15169PP      PP25273   1.275  11.172   3.809 -0.0099 -0.3032 -0.0871
15170PP      PP25274  13.986   8.079   3.526 -0.0834 -0.1178  0.0169
15171PP      PP25275  13.352   1.365   1.657 -0.0903 -0.0923 -0.0194
15172PP      PP25276   8.009   1.274  11.353 -0.0740  0.1887 -0.0627
15173PP      PP25277  15.231  12.757   3.623  0.1763 -0.0503  0.1394
15174PP      PP25278  13.133   1.626   1.306  0.2518  0.0518  0.0130
15175PP      PP25279   3.209  15.617   8.671  0.0588 -0.0911 -0.1439
15176PP      PP25280   3.575   4.255  12.049  0.2959 -0.0757 -0.0691
15177PP      PP25281  11.484   4.395   2.471  0.1230 -0.2445  0.1130
15178PP      PP25282   6.154   2.223  12.666  0.1914  0.2481 -0.1462
15179PP      PP25283   6.421   4.251  12.323  0.1516 -0.0230  0.2543
15180PP      PP25284   2.342  14.469  10.427 -0.1587 -0.2718  0.1181
15181PP      PP25285   0.527   5.842   1.264  0.1515 -0.0553 -0.2458
15182PP      PP25286   8.163  14.504   4.393  0.0084 -0.0002  0.2763
15183PP      PP25287  10.698   5.633   8.999 -0.2284  0.2359  0.1102
15184PP      PP25288  13.627   3.027   8.266  0.1320 -0.3167  0.0353
15185PP      PP25289   3.086   7.782   9.326  0.1725  0.1410 -0.1086
15186PP      PP25290   1.661  11.371   0.947 -0.0243 -0.0384  0.2019
15187PP      PP25291  12.640  12.572   2.318 -0.3019 -0.0038  0.0134
15188PP      PP25292   3.120   1.559   8.564  0.0436 -0.1228  0.0650
15189PP      PP25293  10.431  13.432   1.848  0.0789  0.0423  0.1651
15190PP      PP25294  12.421   2.262  12.297  0.2105  0.1639 -0.1021
15191PP      PP25295  12.743   5.564   4.001 -0.1204 -0.1076  0.0517
15192PP      PP25296   8.272  15.813   1.702  0.0632 -0.0042 -0.3311
15193PP      PP25297   7.398  15.268   1.555  0.3088  0.2817 -0.1993
15194PP      PP25298   9.732   8.150  10.951 -0.2477  0.2119  0.1260
15195PP      PP25299   5.626  10.241  10.622  0.1924 -0.2324  0.0909
15196PP      PP25300   3.760   0.256   2.569  0.1982 -0.4358  0.1535
15197PP      PP25301   8.516   2.078   3.894 -0.1833 -0.4325 -0.0918
15198PP      PP25302  11.478   2.958   0.448 -0.0122 -0.1629 -0.1435
15199PP      PP25303   5.189  11.611   7.773 -0.0771  0.0010  0.0432
15200PP      PP25304   6.766   7.230   3.501  0.2232 -0.0605 -0.5068
15201PP      PP25305  10.620   8.616   2.709  0.0183 -0.1737 -0.0373
15202PP      PP25306   5.214   4.103  11.919  0.0531 -0.3537 -0.1588
15203PP      PP25307  14.689   5.479   1.934 -0.2144  0.2334  0.1434
15204PP      PP25308  11.830  14.957   8.935 -0.3150  0.2571 -0.2633
15205PP      PP25309   0.452   8.166   0.579  0.0345  0.0260  0.0288
15206PP      PP25310   8.629   9.411   4.412 -0.0220 -0.2247  0.3904
15207PP      PP25311  15.961   7.952   1.123 -0.0887  0.0612  0.1133
15208PP      PP25312   8.820  15.755   4.726  0.0336  0.2854 -0.1891
15209PP      PP25313   0.958   7.164   1.532  0.0077 -0.0576  0.0079
15210PP      PP25314   2.409  10.332   9.034 -0.1948 -0.3323  0.1899
15211PP      PP25315  14.646   1.482   8.250 -0.3346  0.1059 -0.0716
15212PP      PP25316  11.397  16.136   1.618  0.0632  0.0918 -0.0400
15213PP      PP25317  14.695   6.459   2.775 -0.3948 -0.0417 -0.0548
15214PP      PP25318   8.907   1.024   8.745  0.0873  0.4544 -0.0552
15215PP      PP25319   7.052  10.097   3.042  0.0084 -0.0341  0.1879
15216PP      PP25320  15.080   6.065   0.232 -0.2968 -0.1811  0.0568
15217PP      PP25321   8.890   6.528  11.898 -0.0496  0.0721  0.3419
15218PP      PP25322   1.635  14.785  12.600  0.0299  0.1873  0.1839
15219PP      PP25323  10.815  14.412   8.773 -0.1691 -0.1627  0.4956
15220PP      PP25324  13.354  13.284   0.946 -0.1985  0.4391  0.0181
15221PP      PP25325  11.653   3.700   9.654  0.0144  0.2600  0.0021
15222PP      PP25326   9.790  14.184  12.637  0.1308  0.1356 -0.1433
15223PP      PP25327  11.725  15.557   3.061 -0.0806  0.0907 -0.0710
15224PP      PP25328  16.309   2.307  11.237 -0.2245 -0.2846 -0.1105
15225PP      PP25329  13.037  14.627   3.872  0.2576  0.0209 -0.0420
15226PP      PP25330  11.268   8.262  11.604  0.2652 -0.2215  0.2282
15227PP      PP25331  15.268   5.772   1.193 -0.0191 -0.1638  0.1476
15228PP      PP25332   5.263   2.352   0.097  0.2053  0.1178  0.2354
15229PP      PP25333   0.280  14.617   4.479 -0.1885  0.2191  0.1208
15230PP      PP25334  15.193  12.852   1.635  0.0874 -0.2851  0.1290
15231PP      PP25335  11.221   9.862   9.382 -0.1171 -0.1342 -0.3313
15232PP      PP25336   7.567  16.185  11.422  0.1005 -0.2041 -0.3031
15233PP      PP25337  11.213   5.093   1.878 -0.0903 -0.3380  0.1890
15234PP      PP25338  10.425  12.949   9.445 -0.1119 -0.1339  0.1892
15235PP      PP25339   2.409  12.034   8.163 -0.1004 -0.1681  0.2170
15236PP      PP25340   7.776   8.374   8.141 -0.0676 -0.1175 -0.1349
15237PP      PP25341  14.867   4.553   3.923  0.0051 -0.1370  0.2670
15238PP      PP25342   5.839  10.698   2.921  0.2100  0.1871  0.3348
15239PP      PP25343   0.307   8.622   8.794 -0.0485 -0.0002  0.0770
15240PP      PP25344   3.607   8.198  12.473 -0.1067 -0.0432 -0.2910
15241PP      PP25345  10.427   5.654  11.403  0.0883 -0.0094 -0.0215
15242PP      PP25346   1.843   0.481  10.501 -0.0674 -0.1442  0.1709
15243PP      PP25347   3.755  11.418  11.240  0.0729  0.3107  0.1245
15244PP      PP25348  15.331   9.888   0.250 -0.1243 -0.2213 -0.2507
15245PP      PP25349   1.888   3.275   3.854 -0.3724 -0.0371  0.1673
15246PP      PP25350   3.001   0.607   4.484 -0.3378 -0.0701  0.1367
15247PP      PP25351   1.148  12.097   2.511 -0.0123 -0.1910 -0.0040
15248PP      PP25352   1.408  12.411   3.419  0.2964  0.3816 -0.2702
15249PP      PP25353   6.710  15.577   9.907 -0.0560 -0.3126  0.0397
15250PP      PP25354  16.300   6.450   9.472 -0.2064  0.2726  0.0907
15251PP      PP25355   1.572   0.179   2.587 -0.0114 -0.2228  0.0709
15252PP      PP25356  14.543   2.891  12.064 -0.0292  0.1204 -0.1881
15253PP      PP25357   3.956  11.879   9.070 -0.2668  0.0086  0.2439
15254PP      PP25358   9.097   1.773   2.332  0.0459  0.2703  0.2989
15255PP      PP25359  11.238   2.012   8.938  0.0790 -0.0152  0.2361
15256PP      PP25360  11.537   4.634   3.455  0.1899 -0.0624 -0.0584
15257PP      PP25361   0.350   6.638   8.348  0.0543  0.0747  0.0020
15258PP      PP25362   9.389  15.220   9.716 -0.0404  0.2759  0.0262
15259PP      PP25363  12.730  14.681   1.335  0.4355 -0.1180  0.1498
15260PP      PP25364   5.547  11.450  11.795  0.3516 -0.2310 -0.1096
15261PP      PP25365  13.277   2.885   2.929  0.0643 -0.1874  0.0379
15262PP      PP25366   9.652  11.396  10.797  0.2131  0.0620 -0.1174
15263PP      PP25367   6.977   3.555  12.719 -0.0939  0.1511 -0.0951
15264PP      PP25368   5.958  10.773   4.005 -0.0424  0.0740  0.0679
15265PP      PP25369   2.997  13.519  10.634 -0.2936  0.1867  0.1438
15266PP      PP25370   2.821   6.031   0.250 -0.0330  0.3662 -0.0392
15267PP      PP25371   7.302  15.774   0.921  0.0252  0.0004  0.2155
15268PP      PP25372  13.610  14.533   9.859  0.4114  0.0311  0.1402
15269PP      PP25373  11.035  10.138   9.827  0.1191  0.1408  0.0817
15270PP      PP25374   7.476   1.706   1.684  0.0182  0.0954 -0.1092
15271PP      PP25375  11.456   1.714  10.957 -0.1018  0.1202 -0.2560
15272PP      PP25376   7.390   5.544   8.816  0.3092 -0.1974  0.2411
15273PP      PP25377  14.894  14.643  11.449  0.1001 -0.0712 -0.0465
15274PP      PP25378   7.824  12.995   9.842 -0.2495 -0.5109  0.0292
15275PP      PP25379  12.975  13.621   8.958 -0.1103  0.1431 -0.0798
15276PP      PP25380   0.364   3.996   9.837 -0.1980 -0.0717 -0.1535
15277PP      PP25381   3.549   7.749   1.228 -0.0777  0.4312 -0.0047
15278PP      PP25382  12.660  14.921   9.453  0.1783  0.0118 -0.4509
15279PP      PP25383  12.333   6.729   8.781  0.1710  0.2836 -0.0851
15280PP      PP25384   3.229  13.978  10.815 -0.4153  0.1043 -0.0785
15281PP      PP25385   0.550   0.063  10.262 -0.1840 -0.0091 -0.0992
15282PP      PP25386   9.838   8.091   7.997  0.0221 -0.0966 -0.0146
15283PP      PP25387   0.681   3.690   8.857 -0.1398 -0.0506  0.2154
15284PP      PP25388   4.015   0.509   1.917  0.1010  0.1642  0.2448
15285PP      PP25389   3.928   6.252   9.145 -0.0577  0.4871  0.0713
15286PP      PP25390  11.867   6.469   8.809 -0.1869 -0.2373 -0.0811
15287PP      PP25391  16.067   0.023  12.585 -0.0369  0.1127 -0.1842
15288PP      PP25392   4.418  14.533  12.144 -0.0561  0.0282  0.1772
15289PP      PP25393   9.969   0.612   0.028  0.0411 -0.1175  0.1241
15290PP      PP25394   6.864   4.575  10.339  0.3877 -0.3042  0.0586
15291PP      PP25395   9.958   6.121  10.377 -0.0892 -0.0627  0.1044
15292PP      PP25396   4.065   8.309   0.763 -0.2417 -0.1371 -0.0632
15293PP      PP25397  14.092   2.915   9.713 -0.0683  0.1135  0.0015
15294PP      PP25398  12.084  10.542   3.057 -0.2880  0.0573 -0.1120
15295PP      PP25399  11.991  14.004  10.576  0.2556  0.1044  0.4910
15296PP      PP25400   3.656   7.649   3.389 -0.0168  0.4214  0.3113
15297PP      PP25401  12.720   9.606   1.027  0.3230 -0.0375 -0.2053
15298PP      PP25402   2.963   1.870  12.502  0.1715 -0.0531 -0.2038
15299PP      PP25403  13.325  14.470  12.418 -0.1015 -0.2892  0.1363
15300PP      PP25404   4.192   5.484  10.437  0.0293  0.1250 -0.0343
15301PP      PP25405   4.864   3.932   3.060 -0.3205 -0.0847 -0.0054
15302PP      PP25406  12.818  10.182   8.382 -0.2277  0.1148 -0.1308
15303PP      PP25407   2.237   5.063   2.047  0.1350  0.1305  0.0186
15304PP      PP25408   8.798   1.657   2.733  0.1970  0.1446 -0.3828
15305PP      PP25409  12.719   8.509  10.715 -0.1649 -0.2183  0.0988
15306PP      PP25410   1.543   5.544  11.729 -0.1183  0.0806  0.0140
15307PP      PP25411   3.316   1.106  11.131 -0.3985 -0.2038  0.1656
15308PP      PP25412  12.970   9.564   1.500  0.3148  0.2025 -0.1359
15309PP      PP25413  14.409  12.647   3.903 -0.1235  0.1989  0.1971
15310PP      PP25414   4.226  13.715   2.038  0.0600  0.3541  0.5028
15311PP      PP25415  15.605   2.655  11.810  0.2354  0.1805 -0.2702
15312PP      PP25416  13.479   7.865   8.478 -0.0498  0.0879  0.0496
15313PP      PP25417   0.002   4.636   1.426  0.1259 -0.1848  0.0707
15314PP      PP25418   5.625   5.031   1.446 -0.0010 -0.1842 -0.0732
15315PP      PP25419   4.922   0.302   2.470 -0.0434 -0.0856 -0.1439
15316PP      PP25420  13.742  14.663   4.338 -0.1486 -0.1548 -0.0418
15317PP      PP25421   9.920   6.993  11.742  0.1838  0.0387  0.0524
15318PP      PP25422   9.028  14.467   9.908 -0.1476 -0.1536 -0.1470
15319PP      PP25423   7.197  15.163   8.708  0.1290  0.1549  0.0467
15320PP      PP25424   0.554  15.640   1.740 -0.3759 -0.2428  0.0453
15321PP      PP25425  14.091   6.195   0.158  0.3066 -0.0715  0.1073
15322PP      PP25426   4.593  13.783  10.649  0.2468 -0.2935  0.0932
15323PP      PP25427   9.621   9.080  10.061 -0.0658 -0.0154  0.1009
15324PP      PP25428  14.435   6.179   9.536 -0.0695  0.2748  0.1982
15325PP      PP25429   8.833   8.474   9.882  0.2908  0.0170  0.1586
15326PP      PP25430   7.805   3.446  12.074  0.1147  0.1354  0.0102
15327PP      PP25431   8.839  16.158  12.500  0.2468 -0.0920 -0.1541
15328PP      PP25432  12.401   8.723   9.805 -0.0862  0.3090  0.2656
15329PP      PP25433   4.056   6.021  10.740 -0.2220  0.0207  0.1253
15330PP      PP25434   8.889   6.117   4.086  0.2802  0.0019  0.0864
15331PP      PP25435   0.142   4.732  10.786 -0.1431 -0.0351 -0.1105
15332PP      PP25436  15.240   4.374  10.938 -0.0316  0.0901  0.4179
15333PP      PP25437   2.596  15.306   1.304 -0.0826  0.5792  0.1139
15334PP      PP25438   7.079   9.803  11.609  0.2546  0.3040  0.3042
15335PP      PP25439   4.375   6.414  10.634 -0.0300  0.0729  0.0085
15336PP      PP25440  11.139  15.232  11.311  0.0710  0.0423  0.2360
15337PP      PP25441   6.647  15.474   2.722 -0.2187  0.0566 -0.1552
15338PP      PP25442  13.449   1.133   0.555 -0.0096 -0.4968 -0.0408
15339PP      PP25443   9.459  14.139  11.613 -0.1507 -0.0016 -0.1614
15340PP      PP25444   5.715   4.443   8.274  0.0850 -0.1214  0.3918
15341PP      PP25445  10.175  13.809  10.947  0.1859 -0.3399 -0.2171
15342PP      PP25446   0.477  14.191   4.563 -0.0492  0.2617 -0.1486
15343PP      PP25447  11.838   1.407   3.104  0.1753  0.1244 -0.2388
15344PP      PP25448   7.052   2.073  12.049 -0.1669 -0.2439  0.0625
15345PP      PP25449   0.878  14.408   9.817  0.1005 -0.1238 -0.3250
15346PP      PP25450   9.200   4.937   2.987 -0.5417 -0.2531  0.1769
15347PP      PP25451  13.464   9.148   9.100  0.1910 -0.1396 -0.1276
15348PP      PP25452   1.844   8.821  11.200 -0.0237 -0.1648  0.1789
15349PP      PP25453  15.808   7.407   9.273  0.0506  0.2681  0.2636
15350PP      PP25454  10.189   3.679  12.442 -0.0300 -0.0617 -0.1052
15351PP      PP25455  15.860   9.398  12.208  0.1843 -0.1267 -0.1447
15352PP      PP25456   4.455  13.682   2.880 -0.0791 -0.0464  0.1463
15353PP      PP25457   9.482  12.090   9.100  0.4938  0.1136 -0.1084
15354PP      PP25458  16.305   0.798   8.629  0.4820  0.1776  0.1513
15355PP      PP25459   3.014  10.696  12.172  0.1781 -0.0578  0.0951
15356PP      PP25460  13.271   3.403   2.621 -0.0383 -0.4104  0.2363
15357PP      PP25461  13.250   6.553  10.290  0.0571 -0.0626 -0.4335
15358PP      PP25462  11.731   7.327  10.820 -0.2268 -0.1019 -0.1957
15359PP      PP25463   7.239  13.273   1.607 -0.0841 -0.0433 -0.1822
15360PP      PP25464   5.694   8.585  12.720  0.1250 -0.1829  0.2801
15361PP      PP25465   1.353  13.572   9.652 -0.1970  0.2740 -0.3425
15362PP      PP25466   9.103   2.632  10.849  0.0911 -0.1527  0.2251
15363PP      PP25467   3.455  10.860   0.284  0.3151  0.0673 -0.0053
15364PP      PP25468  13.691   2.680  12.552 -0.0788 -0.0737 -0.1489
15365PP      PP25469  10.644   2.723   1.853 -0.1997  0.1830 -0.2073
15366PP      PP25470   9.182   1.174  12.130  0.1672 -0.1175 -0.4129
15367PP      PP25471  10.305   5.300   1.716  0.0906  0.0029 -0.1823
15368PP      PP25472  14.247   7.769   9.585  0.1542  0.1078  0.1130
15369PP      PP25473   4.514  13.546   0.390 -0.3355  0.1414 -0.1373
15370PP      PP25474   1.443  13.037  10.893  0.1212  0.1046  0.3309
15371PP      PP25475   2.709   4.410   3.616  0.1075  0.0517 -0.0428
15372PP      PP25476   5.428   5.182   3.653 -0.0279 -0.0689  0.2561
15373PP      PP25477  13.586  10.077  11.688  0.0129 -0.3059 -0.3647
15374PP      PP25478   2.460   1.551   1.299 -0.1206  0.1554 -0.3561
15375PP      PP25479  11.307   0.118   4.034 -0.1656  0.1372  0.0230
15376PP      PP25480   0.455  14.281   4.089  0.4598  0.1796 -0.0161
15377PP      PP25481  13.400  10.016   1.565  0.1755 -0.1613  0.1403
15378PP      PP25482  12.149  12.470   3.291  0.1127 -0.1040  0.1235
15379PP      PP25483   1.526  14.306   8.731  0.0789  0.3583  0.0079
15380PP      PP25484   5.123   2.226   3.370 -0.2601  0.1176 -0.2876
15381PP      PP25485   3.058  10.146   2.109  0.1283 -0.0579 -0.2487
15382PP      PP25486   1.868  15.889   1.216  0.0210  0.0925  0.0510
15383PP      PP25487   2.599  14.886   0.987  0.0970 -0.0137 -0.0509
15384PP      PP25488   3.034  12.234   8.433 -0.0064  0.2775 -0.1910
15385PP      PP25489   2.868   4.960   8.421 -0.2538  0.2414 -0.2562
15386PP      PP25490  12.818  15.100  11.661  0.1232  0.2528 -0.3532
15387PP      PP25491   9.444   2.913   0.718 -0.1290  0.0787 -0.2084
15388PP      PP25492   7.216  15.572   9.067 -0.1115  0.0257  0.0992
15389PP      PP25493  10.808  11.031   9.429  0.0281 -0.1852 -0.1424
15390PP      PP25494   5.105   8.988  10.016 -0.2345 -0.0937 -0.3013
15391PP      PP25495   6.757  15.781   1.910  0.1244  0.2549  0.2477
15392PP      PP25496   8.923   8.821  12.451 -0.3399 -0.2582  0.2682
15393PP      PP25497   0.753  14.360   1.820 -0.2916  0.3762  0.0794
15394PP      PP25498   0.032   2.611   1.994 -0.0198  0.0737 -0.0837
15395PP      PP25499  13.574  14.138   3.175  0.0508  0.1291 -0.1404
15396PP      PP25500   4.102  10.817  10.014 -0.0371 -0.1273  0.1341
15397PP      PP25501  13.620   7.991  11.633  0.0924  0.1638  0.0481
15398PP      PP25502  13.718  15.835   8.720  0.0722  0.1481 -0.0991
15399PP      PP25503   1.474   0.128   0.163 -0.1200 -0.0405  0.2731
15400PP      PP25504   7.495   9.748   0.620  0.2130  0.0590 -0.1167
15401PP      PP25505   5.000   1.963   9.574 -0.1177 -0.0144 -0.4911
15402PP      PP25506  15.509   1.057  11.026 -0.0593 -0.2499  0.1522
15403PP      PP25507   7.856  15.630   4.756 -0.3592 -0.0871 -0.1692
15404PP      PP25508   6.429   5.821   9.161 -0.2945  0.0031 -0.2719
15405PP      PP25509  12.679  15.653  12.491  0.3264  0.3401 -0.0698
15406PP      PP25510   8.008   7.939   8.059 -0.0040  0.1254 -0.1872
15407PP      PP25511  11.342  12.313  11.806  0.4333 -0.1090 -0.0463
15408PP      PP25512  14.140  13.090   2.677  0.2228  0.3059  0.0280
15409PP      PP25513   5.749  12.953   3.573  0.0300  0.1326 -0.1406
15410PP      PP25514   7.849  13.332   1.798 -0.0305 -0.0361 -0.2960
15411PP      PP25515   7.813  13.968  11.622 -0.1985 -0.0932  0.1320
15412PP      PP25516  13.259  14.800   4.424 -0.2918 -0.3921  0.1600
15413PP      PP25517  11.652  11.197   0.273 -0.3460 -0.3505 -0.1337
15414PP      PP25518  13.954   1.028   9.475 -0.1177  0.0681 -0.0604
15415PP      PP25519  11.944   8.471   1.845  0.2196  0.1154  0.1018
15416PP      PP25520   4.195  11.295  12.470  0.1701 -0.0210  0.0093
15417PP      PP25521  10.915   6.268  12.496 -0.1581 -0.1551  0.1105
15418PP      PP25522   6.699   4.597   3.275 -0.1777 -0.3466 -0.1627
15419PP      PP25523   4.475   6.300   9.623  0.1266 -0.2116  0.0181
15420PP      PP25524  10.505   2.324  10.411 -0.3550  0.2681 -0.1914
15421PP      PP25525   3.982   6.056   3.605 -0.1895  0.1025 -0.2528
15422PP      PP25526  15.252   7.857   9.223 -0.0968 -0.0313  0.1547
15423PP      PP25527   5.248   5.936   3.037  0.2299  0.2559  0.0590
15424PP      PP25528  11.175  16.329   3.580 -0.3086  0.2864  0.2036
15425PP      PP25529   8.896   0.376  10.288 -0.0259  0.0308  0.1412
15426PP      PP25530   6.432   1.673   0.208  0.4418  0.1779  0.0317
15427PP      PP25531   9.113   7.961   9.667 -0.2329  0.2762  0.1796
15428PP      PP25532  12.565  15.622   3.733 -0.0257 -0.1299  0.1377
15429PP      PP25533   7.455  13.395  10.301  0.0495  0.0030 -0.3672
15430PP      PP25534  12.013   4.915   1.405 -0.1523  0.0612 -0.1812
15431PP      PP25535  11.449  11.640   9.415 -0.1288  0.5582  0.2765
15432PP      PP25536   6.835  15.907   0.730  0.0885  0.0676 -0.3451
15433PP      PP25537  15.342  15.792   1.577 -0.1316 -0.0135 -0.2757
15434PP      PP25538   3.633   4.645   3.810 -0.0582  0.2527 -0.3872
15435PP      PP25539  11.508   6.300   0.450  0.1382  0.1923 -0.0228
15436PP      PP25540  15.654  15.857   3.256  0.0045 -0.3681 -0.2401
15437PP      PP25541  12.603  10.947  11.411 -0.0545  0.1944  0.0708
15438PP      PP25542  15.739   3.574   9.595  0.1005 -0.0725  0.3049
15439PP      PP25543   7.539   4.227   8.652  0.1662  0.3015  0.0824
15440PP      PP25544   9.527   5.106  12.422  0.0225 -0.0890  0.0067
15441PP      PP25545   5.007  12.099   8.435  0.2338 -0.2394  0.4045
15442PP      PP25546  15.067   3.606   0.824  0.0033 -0.2912  0.0173
15443PP      PP25547   7.653  15.900  11.787  0.1999  0.2051  0.1114
15444PP      PP25548  13.972   9.342   9.171  0.0828  0.2218  0.0176
15445PP      PP25549   0.526   1.142   2.328  0.0192 -0.0219 -0.1637
15446PP      PP25550   8.522   0.735  10.475  0.2164 -0.4198  0.2345
15447PP      PP25551  15.372   2.918  10.874  0.2202  0.0781 -0.3333
15448PP      PP25552  14.588  13.142   9.583 -0.1346  0.0658 -0.0287
15449PP      PP25553  11.959   3.203   3.246 -0.1305  0.2128  0.0678
15450PP      PP25554   1.565  10.000  12.370  0.2901  0.0117  0.1055
15451PP      PP25555  15.454   1.506   3.856  0.0688  0.1980  0.1600
15452PP      PP25556  14.329   5.257  11.767  0.1626  0.0562  0.3679
15453PP      PP25557  12.405  10.192   8.101  0.1824 -0.0944  0.1669
15454PP      PP25558   3.011   7.194  12.176 -0.0828 -0.1876  0.0183
15455PP      PP25559   1.363  10.221   3.616 -0.1427  0.0575  0.1322
15456PP      PP25560   8.649   4.178   0.577 -0.2256 -0.1175 -0.0108
15457PP      PP25561   5.153   1.326  10.517 -0.1102  0.0927  0.1898
15458PP      PP25562  15.030  15.764  12.618  0.1262  0.0720 -0.0122
15459PP      PP25563   5.726   8.487   9.528  0.2383 -0.0188 -0.1650
15460PP      PP25564  11.081  10.110   8.460  0.0521  0.0270 -0.3618
15461PP      PP25565  15.122   4.133   0.830 -0.0070  0.1540  0.2236
15462PP      PP25566  12.388   3.176   0.972 -0.0817  0.3473 -0.1123
15463PP      PP25567   5.847  15.014   0.797 -0.6145 -0.1781 -0.3760
15464PP      PP25568   7.121   9.317   9.782 -0.0683 -0.3875  0.2564
15465PP      PP25569   6.860  12.199   0.381 -0.3015  0.6418 -0.2644
15466PP      PP25570   4.965  14.076   1.188  0.3066 -0.0859 -0.2949
15467PP      PP25571  11.063   8.684   1.466  0.0527 -0.1070  0.2129
15468PP      PP25572   8.485   9.046  12.040  0.0521 -0.0247 -0.2991
15469PP      PP25573   8.046  13.555   0.937 -0.2286 -0.0504  0.0071
15470PP      PP25574   9.243  11.239  10.625 -0.1500  0.4388  0.0350
15471PP      PP25575   6.406   9.334   0.446 -0.1007 -0.0469 -0.3127
15472PP      PP25576  12.930  11.752   3.444 -0.0434  0.0379  0.0155
15473PP      PP25577   7.799  10.797  12.178  0.1081 -0.0844  0.1032
15474PP      PP25578   7.852  16.137   3.745  0.1243  0.0338  0.0214
15475PP      PP25579   5.944  15.486   0.780  0.1576 -0.1449  0.0397
15476PP      PP25580  14.845   9.812   2.085 -0.1447  0.1275 -0.2246
15477PP      PP25581  14.447  10.342   3.451 -0.0589  0.2069 -0.1003
15478PP      PP25582   5.241   2.503   8.977  0.2203  0.1006 -0.0363
15479PP      PP25583   3.375  16.084  12.700 -0.2171 -0.0617  0.1528
15480PP      PP25584   8.717   3.026   2.404 -0.3130 -0.5253 -0.0182
15481PP      PP25585  11.983  13.597   4.623  0.0332  0.0660 -0.1376
15482PP      PP25586   7.225   8.779  10.616  0.1053 -0.1389 -0.2052
15483PP      PP25587   8.229  15.886  11.631 -0.0817  0.0451  0.0153
15484PP      PP25588   8.638   7.499   9.375  0.0568  0.2063 -0.0743
15485PP      PP25589   1.776   8.790   0.023 -0.1742  0.1606 -0.1923
15486PP      PP25590   5.280   6.897   2.758  0.0203 -0.0542 -0.0757
15487PP      PP25591  13.337  13.710   3.306  0.0851 -0.0330 -0.2014
15488PP      PP25592   4.797   7.709   1.568 -0.4388 -0.0419 -0.0426
15489PP      PP25593  15.274  10.139   4.142 -0.2011 -0.0715  0.0137
15490PP      PP25594   2.947   1.664   3.476 -0.2648 -0.2311 -0.2302
15491PP      PP25595   7.538   4.237   3.628  0.1669  0.0302 -0.0451
15492PP      PP25596  15.337   9.385   0.891  0.1326  0.0753  0.3800
15493PP      PP25597   4.329   1.608   3.927  0.0804 -0.1225  0.0425
15494PP      PP25598   4.406   3.726  10.726  0.1012  0.1837  0.0735
15495PP      PP25599   9.061   3.998   3.394 -0.1120  0.2956 -0.2428
15496PP      PP25600   2.723   8.662   1.604 -0.0234 -0.0590  0.2683
15497PP      PP25601   8.514  11.161  11.573 -0.1399 -0.3103  0.1195
15498PP      PP25602  12.769  11.729   0.650 -0.0926 -0.0842 -0.2172
15499PP      PP25603  13.284   8.931  10.573 -0.1366 -0.0887 -0.2806
15500PP      PP25604   3.906   0.676  10.353  0.1789  0.3342 -0.0580
15501PP      PP25605   2.759   1.603   2.683  0.0232 -0.1468  0.0333
15502PP      PP25606   4.078  15.919  11.170  0.0460  0.0036  0.2874
15503PP      PP25607   2.950  14.375  12.141  0.0080  0.0919 -0.3655
15504PP      PP25608   6.126  11.554  10.160 -0.1267  0.2223  0.2874
15505PP      PP25609   8.783   4.521   8.316 -0.2378 -0.0756  0.1012
15506PP      PP25610  15.805   5.426  11.447 -0.1630  0.1663 -0.0915
15507PP      PP25611   4.560  13.478  12.116  0.0323 -0.1099  0.0488
15508PP      PP25612   5.259  15.132  10.610 -0.1531  0.2420 -0.1590
15509PP      PP25613   8.907   8.059  10.112  0.1009  0.1712  0.0271
15510PP      PP25614  15.637  11.406   0.434 -0.0393  0.1293 -0.0900
15511PP      PP25615   4.433   5.470   1.839 -0.2845  0.2227  0.3593
15512PP      PP25616  14.855  12.357   2.596 -0.0950  0.0507 -0.2287
15513PP      PP25617  12.081   1.563   0.010 -0.1205  0.2844  0.2165
15514PP      PP25618   3.251   3.072   2.829  0.0168  0.4239 -0.1918
15515PP      PP25619  12.739   3.929   8.567  0.2848  0.2291 -0.3274
15516PP      PP25620  15.267   1.627  10.386  0.0817  0.0030 -0.0716
15517PP      PP25621   9.984  15.194   0.122  0.2022 -0.2533  0.3284
15518PP      PP25622   9.964  10.768   2.828 -0.1054  0.2648  0.0744
15519PP      PP25623   7.662  10.605   1.151 -0.2071 -0.0788  0.0428
15520PP      PP25624   0.154   6.795   8.982  0.0207  0.4650  0.1369
15521PP      PP25625   4.726  11.596   9.463  0.0953  0.0558 -0.1827
15522PP      PP25626   4.331  12.815  10.122 -0.0550  0.0814 -0.0936
15523PP      PP25627   7.730   2.192  11.351 -0.3079  0.1091 -0.3297
15524PP      PP25628  12.761  11.251  10.111  0.1641  0.2096 -0.2280
15525PP      PP25629   1.802   1.089  10.675  0.1339  0.0021 -0.1209
15526PP      PP25630  12.748   2.814   1.820  0.0474 -0.0665  0.1842
15527PP      PP25631  12.661  11.269   4.038  0.0828  0.0496 -0.3942
15528PP      PP25632   9.078   2.322   3.509  0.2699 -0.1118 -0.3139
15529PP      PP25633   1.622  15.374  10.673  0.0738  0.1763 -0.1061
15530PP      PP25634   8.909   3.240   2.773  0.2209  0.0094 -0.0767
15531PP      PP25635   7.425   5.564   0.650  0.4041 -0.0947  0.0223
15532PP      PP25636  14.363  14.962   9.096  0.0020  0.1942 -0.0157
15533PP      PP25637   8.245   5.691   1.317  0.0244 -0.1476  0.0249
15534PP      PP25638   7.304   2.223   9.583 -0.2820  0.2010 -0.0143
15535PP      PP25639  10.445  15.870  12.751 -0.1585  0.2394  0.0520
15536PP      PP25640   0.797  15.335  12.384 -0.0283 -0.0522 -0.1262
15537PP      PP25641   4.319   6.688  12.706 -0.0923 -0.4936 -0.0291
15538PP      PP25642   0.199  14.426   4.923  0.4492 -0.2108  0.1592
15539PP      PP25643  13.799   4.499   0.622  0.1083 -0.1314 -0.0581
15540PP      PP25644   0.606  11.216   2.772  0.1974  0.1016 -0.0774
15541PP      PP25645   7.703  15.286   3.661 -0.1318 -0.2985  0.0176
15542PP      PP25646  13.040   2.804  12.041 -0.2343 -0.3348  0.2837
15543PP      PP25647   3.851   0.982   2.764  0.0468  0.0842  0.1959
15544PP      PP25648   7.535   8.227   3.106  0.2637  0.2997  0.2880
15545PP      PP25649   3.823   5.544  10.860  0.0136  0.1209 -0.4301
15546PP      PP25650   3.504  11.988   1.909 -0.0158  0.2452  0.2891
15547PP      PP25651   2.376   6.001   0.042 -0.0931  0.1781 -0.0688
15548PP      PP25652   5.879   9.634   0.070 -0.2599  0.2526 -0.2629
15549PP      PP25653   2.610   5.154   0.564 -0.1744  0.0348  0.1822
15550PP      PP25654  12.555   9.017   1.164  0.6131  0.1284 -0.3215
15551PP      PP25655  13.106   7.384   2.218  0.0208  0.2145  0.0224
15552PP      PP25656   3.060   9.937  10.824 -0.0225 -0.4422 -0.2319
15553PP      PP25657   1.349   4.172  10.878  0.1340 -0.1998  0.2895
15554PP      PP25658  10.004   5.514   3.103  0.0935 -0.0372 -0.1250
15555PP      PP25659   0.513  12.874   1.764  0.3091 -0.0654 -0.1595
15556PP      PP25660   6.872  15.797   3.107 -0.0320 -0.1323 -0.0641
15557PP      PP25661   4.880   7.138  11.331 -0.0310 -0.0440 -0.2350
15558PP      PP25662   0.755  12.289   4.234 -0.2000 -0.1919 -0.2172
15559PP      PP25663  12.028  14.937   2.642  0.0328 -0.1428  0.0578
15560PP      PP25664  11.145   9.590   2.905 -0.1913  0.0270 -0.1529
15561PP      PP25665  14.666  16.313  11.137 -0.0143 -0.0563  0.3635
15562PP      PP25666  13.988   5.196  10.794  0.1270  0.0349 -0.0464
15563PP      PP25667   1.972   7.323   2.773  0.2687 -0.1157  0.2058
15564PP      PP25668   1.462   9.114   1.917  0.1843  0.0762  0.0155
15565PP      PP25669   3.040  10.779   3.403  0.0307  0.1610 -0.0714
15566PP      PP25670   7.686  14.522   0.810  0.0020 -0.1415  0.0042
15567PP      PP25671   0.809   2.517   1.085  0.1549  0.2301  0.0181
15568PP      PP25672   9.458   8.170   3.408 -0.0805  0.1567  0.3534
15569PP      PP25673   0.597   2.403   1.499 -0.1070  0.0640  0.3429
15570PP      PP25674  10.064   9.090   9.290  0.4769  0.1206  0.1848
15571PP      PP25675  10.101  14.533  12.264 -0.0379 -0.0675  0.0916
15572PP      PP25676  12.721   1.315   1.599 -0.3030 -0.1135  0.0677
15573PP      PP25677   3.346  10.114   7.963  0.0368  0.0311 -0.0987
15574PP      PP25678   4.754  11.133   3.531  0.2976 -0.3572 -0.0572
15575PP      PP25679  14.964   4.109   4.057 -0.2163 -0.2058  0.1678
15576PP      PP25680  11.406   0.047   9.967  0.1521 -0.0606  0.2406
15577PP      PP25681   0.998  13.913   1.708 -0.1061 -0.1675 -0.2308
15578PP      PP25682   7.122   3.901  10.005  0.3244 -0.0368  0.1549
15579PP      PP25683   8.651  15.583   0.342  0.2998 -0.4310  0.1291
15580PP      PP25684  13.561   3.156  11.037  0.0172  0.0364  0.1012
15581PP      PP25685   0.105   5.899   2.123  0.3976 -0.0014 -0.0599
15582PP      PP25686  15.630   5.150  10.025  0.0267 -0.2264  0.0921
15583PP      PP25687   7.978  14.426  11.413  0.3031 -0.1960 -0.2460
15584PP      PP25688   2.611  14.555  11.805 -0.0742 -0.0073  0.0058
15585PP      PP25689   4.951   7.453   8.866  0.0401 -0.0339  0.0336
15586PP      PP25690   6.977  12.913   2.066  0.2168  0.1853 -0.0469
15587PP      PP25691   5.140   5.404  12.252 -0.1813 -0.1531 -0.0335
15588PP      PP25692   2.594  15.578  11.572  0.1223  0.0371  0.0834
15589PP      PP25693  15.682  12.010  11.318 -0.0245 -0.0518  0.1218
15590PP      PP25694   1.062  14.872   2.711 -0.0588 -0.2553 -0.0095
15591PP      PP25695   7.585   7.333   1.972  0.1307  0.1156 -0.0513
15592PP      PP25696   5.652   7.681  11.851 -0.1639 -0.1208 -0.1062
15593PP      PP25697   7.100   5.301  11.607 -0.2291 -0.1876  0.1248
15594PP      PP25698   0.040   3.106   9.691  0.2441 -0.1111 -0.2648
15595PP      PP25699   2.415   4.427   1.125  0.0032  0.1372  0.2838
15596PP      PP25700  12.937  16.062  12.240  0.1147 -0.2429 -0.0071
15597PP      PP25701   0.577  14.561  10.932 -0.1925 -0.0946 -0.2554
15598PP      PP25702  16.268   8.587   2.612 -0.1837  0.0792  0.0768
15599PP      PP25703   0.418   8.706   1.616  0.1018 -0.0604 -0.0254
15600PP      PP25704   1.269   8.487  11.855 -0.1886 -0.0864 -0.1596
15601PP      PP25705   7.571   9.011   2.825  0.0712  0.0980  0.0759
15602PP      PP25706  13.679  13.696  12.497 -0.1147  0.2505 -0.2518
15603PP      PP25707  10.300   7.862   2.190  0.0552  0.0238 -0.0369
15604PP      PP25708  13.616   2.766   0.360 -0.1654  0.2254 -0.1372
15605PP      PP25709  13.895  13.146  11.944 -0.0196  0.2463  0.1025
15606PP      PP25710   4.032   0.473   2.928  0.4019  0.2916 -0.3730
15607PP      PP25711  16.035   1.887   8.850  0.3594 -0.0268  0.0061
15608PP      PP25712   0.471  12.222   8.419  0.0683 -0.1571 -0.1721
15609PP      PP25713   8.447   0.619   3.804 -0.1094 -0.2732  0.0184
15610PP      PP25714  15.426   0.165   1.043  0.1668 -0.1949 -0.0399
15611PP      PP25715   8.150   1.326   4.117 -0.1723 -0.0905  0.2685
15612PP      PP25716   7.153   7.530   8.753  0.1551 -0.1009 -0.1186
15613PP      PP25717   5.937   7.691   7.786 -0.1621  0.0502  0.1015
15614PP      PP25718   4.867   5.498   1.202 -0.1790 -0.1402 -0.1370
15615PP      PP25719  11.486  13.576   2.343  0.0344  0.0221 -0.1298
15616PP      PP25720  13.624  15.097   4.218 -0.1338  0.0519 -0.3979
15617PP      PP25721   5.895  15.159   3.681 -0.5204  0.0128 -0.2118
15618PP      PP25722  13.768  14.439   8.664  0.1098 -0.1467  0.0828
15619PP      PP25723  13.809  11.963  11.035 -0.1293 -0.2026 -0.1115
15620PP      PP25724   6.386   8.436  10.518 -0.3124  0.3425 -0.3766
15621PP      PP25725   9.206   2.292   9.344  0.1600  0.1176  0.0890
15622PP      PP25726   2.454  12.058   8.653 -0.1981 -0.0186 -0.1922
15623PP      PP25727  10.249   5.855   8.130 -0.2786  0.1278 -0.3075
15624PP      PP25728  10.523   3.509  11.210  0.0306 -0.2672 -0.1319
15625PP      PP25729  11.387   0.599   0.345  0.2196 -0.0165  0.0962
15626PP      PP25730   5.633   2.797  12.247 -0.0417 -0.3092  0.3152
15627PP      PP25731   7.341   4.771  12.029  0.1231  0.0605 -0.0377
15628PP      PP25732  11.962  11.753  12.028 -0.3082  0.0750  0.1885
15629PP      PP25733   8.702  14.660   9.250  0.0457 -0.3175 -0.0038
15630PP      PP25734   9.781  10.243   3.130  0.0808 -0.0102  0.1209
15631PP      PP25735   6.361   4.961   2.898  0.0555 -0.0499 -0.1532
15632PP      PP25736   3.943  11.162   2.292  0.3070 -0.0231  0.2095
15633PP      PP25737  10.517   5.080   1.320  0.0081  0.0705  0.0741
15634PP      PP25738   0.440  13.833   9.612  0.0774  0.0290 -0.1228
15635PP      PP25739  12.185   6.382  11.652 -0.3890 -0.0621  0.0822
15636PP      PP25740   8.479   7.143   9.049  0.1510 -0.2173  0.0274
15637PP      PP25741   2.891   1.346  12.051 -0.1981  0.0455 -0.0195
15638PP      PP25742   8.675   0.878   1.343 -0.2317  0.5149 -0.0715
15639PP      PP25743   4.887  15.888   0.502  0.2735 -0.0605  0.1271
15640PP      PP25744  13.365   8.369   8.260 -0.1141 -0.0436  0.0409
15641PP      PP25745  14.936  12.628   3.225 -0.3780  0.2284  0.1294
15642PP      PP25746   1.685   0.959   2.061 -0.0934  0.0877  0.1553
15643PP      PP25747   3.050   8.927   0.129 -0.1491  0.2532 -0.1491
15644PP      PP25748   7.129  14.943  12.358  0.0604 -0.0330 -0.0684
15645PP      PP25749  16.174   8.253   8.746  0.1501  0.2582  0.2109
15646PP      PP25750   5.996  13.752   8.689 -0.0353  0.1179  0.1934
15647PP      PP25751   7.619   3.536   0.862 -0.0206 -0.0138 -0.2512
15648PP      PP25752  11.456   4.128  10.041 -0.1762 -0.0405  0.0699
15649PP      PP25753  11.484  12.604   9.341 -0.2030 -0.2447 -0.0789
15650PP      PP25754   5.971  14.918  12.195  0.0053  0.3789  0.1195
15651PP      PP25755   3.747  15.799   1.175 -0.1069 -0.0400 -0.2395
15652PP      PP25756   5.689  13.128   9.314  0.0634  0.5191  0.1022
15653PP      PP25757  13.950   0.292   2.151  0.0057  0.0905 -0.0104
15654PP      PP25758  11.281   8.320  10.502 -0.0634  0.1312  0.0354
15655PP      PP25759  13.443  13.309   9.726  0.1362 -0.2464  0.2182
15656PP      PP25760  14.279  10.709  11.093  0.1087  0.1375 -0.0853
15657PP      PP25761  13.962  11.866   9.431 -0.2838 -0.1579  0.0513
15658PP      PP25762   7.106  13.059  10.547  0.0911  0.0531  0.0784
15659PP      PP25763  15.355   9.498   2.248 -0.0106  0.3032 -0.0305
15660PP      PP25764  15.748  13.752  10.984  0.1546  0.1560  0.1796
15661PP      PP25765   9.156   0.954  12.619 -0.0422  0.0118  0.0154
15662PP      PP25766   6.183   0.571   2.719  0.1641  0.2984 -0.1682
15663PP      PP25767   9.267  14.738   9.422  0.1498 -0.0637 -0.1976
15664PP      PP25768  14.555   6.598  10.979 -0.1529 -0.2260 -0.0119
15665PP      PP25769  14.714   9.697   9.753  0.0143  0.0554 -0.0410
15666PP      PP25770  10.277  15.404  10.947 -0.0747  0.3143 -0.0226
15667PP      PP25771   1.612   9.007   2.415 -0.0433 -0.3325 -0.4114
15668PP      PP25772   9.454   2.935   8.685 -0.2303  0.0010  0.2396
15669PP      PP25773   9.643   5.593  11.093  0.0651 -0.1261  0.1173
15670PP      PP25774   5.348   6.819  11.258 -0.0493  0.0639 -0.1371
15671PP      PP25775  11.021   0.673  12.717  0.0890 -0.2037  0.0132
15672PP      PP25776   4.248   2.316  11.100  0.1994  0.1212  0.0096
15673PP      PP25777   1.872   4.554   0.495 -0.1536  0.0320  0.1278
15674PP      PP25778   3.866   1.718   1.003 -0.0229 -0.1594  0.0256
15675PP      PP25779   9.180   2.311   4.469  0.3400 -0.1193 -0.0648
15676PP      PP25780  16.139  11.198   0.811  0.2230 -0.2009  0.2517
15677PP      PP25781   0.237   2.799  11.144 -0.2735  0.2932 -0.0350
15678PP      PP25782  16.165  15.908   9.883  0.1919 -0.1166 -0.0143
15679PP      PP25783  12.515   0.363  11.838  0.0334  0.0775  0.2939
15680PP      PP25784  13.958  12.096   8.615 -0.0288  0.0138  0.0488
15681PP      PP25785   0.004   2.919   3.993 -0.2086  0.0184 -0.1426
15682PP      PP25786   8.689  11.437   2.369  0.0403 -0.0652 -0.1160
15683PP      PP25787  14.890  16.338   3.201  0.0717  0.1084  0.0656
15684PP      PP25788   7.255   0.921   0.582 -0.0908 -0.2183 -0.0373
15685PP      PP25789  13.350   3.001  11.760  0.0393  0.2617 -0.0201
15686PP      PP25790  11.741   8.261  11.955  0.2455  0.0373 -0.0688
15687PP      PP25791  15.582  16.180   2.672  0.0275  0.0680  0.1148
15688PP      PP25792  10.939   1.529   1.321 -0.0588 -0.2103  0.1672
15689PP      PP25793   2.735   6.836   3.374  0.1885 -0.0631 -0.1394
15690PP      PP25794  13.426   9.218   8.416 -0.0014 -0.0693  0.1590
15691PP      PP25795   3.560  12.904   9.646 -0.1369  0.2235 -0.0122
15692PP      PP25796  12.230  13.024  11.657 -0.0307  0.1792  0.2815
15693PP      PP25797   6.492  12.565  11.336 -0.2333  0.0881  0.0909
15694PP      PP25798   1.263   3.338  10.134 -0.2147  0.0884  0.1823
15695PP      PP25799   3.522  14.365   8.486  0.0822 -0.0202 -0.2116
15696PP      PP25800   6.423   9.268   2.383 -0.0414 -0.1898  0.0189
15697PP      PP25801   3.104   1.701  11.286 -0.1024 -0.2547 -0.1311
15698PP      PP25802  11.438   3.690   8.475 -0.0547  0.1055  0.1506
15699PP      PP25803   5.398  13.513  12.094  0.0093  0.2448  0.0411
15700PP      PP25804  10.829  14.880   2.237  0.2108 -0.2541  0.0623
15701PP      PP25805   5.079  11.142   8.883 -0.0880 -0.1337 -0.2453
15702PP      PP25806  14.688  10.427  12.265  0.2458 -0.0542  0.2188
15703PP      PP25807   3.563  16.165   2.586  0.2466 -0.6202 -0.0389
15704PP      PP25808  11.762   3.377  10.657  0.1064  0.0016 -0.0089
15705PP      PP25809   7.489   4.438  10.300  0.0692  0.0810 -0.1963
15706PP      PP25810   0.508   9.422   3.199 -0.4502  0.0996 -0.1183
15707PP      PP25811  10.938  12.045   0.909  0.0416  0.1373  0.0851
15708PP      PP25812   8.677  16.301   2.864 -0.0345  0.2060 -0.0315
15709PP      PP25813   7.002   1.043   9.143  0.1416 -0.1691 -0.5767
15710PP      PP25814   0.346  16.180   9.063 -0.0048  0.0681  0.1976
15711PP      PP25815   5.913   5.282   1.027 -0.0231  0.0464 -0.1414
15712PP      PP25816   3.802  14.343   2.169  0.0588 -0.2476  0.0667
15713PP      PP25817   7.741   5.701   8.373  0.2274  0.0474  0.1069
15714PP      PP25818   2.452   1.032   1.580 -0.3211  0.0764  0.2096
15715PP      PP25819   6.688  14.972   3.470 -0.1769  0.0823 -0.0926
15716PP      PP25820  15.300  13.893  10.736 -0.1193 -0.1238 -0.2930
15717PP      PP25821   4.723  13.348  12.546 -0.0747 -0.2919 -0.2856
15718PP      PP25822   1.056   8.850   2.772 -0.0608 -0.1805  0.1212
15719PP      PP25823   1.993   4.553   3.251 -0.2470  0.2525  0.0981
15720PP      PP25824   3.800   1.523  10.397  0.1958  0.0248 -0.2873
15721PP      PP25825   6.046   8.692   3.261 -0.3338 -0.1664  0.0140
15722PP      PP25826  13.979   8.107   0.976 -0.0621  0.0200  0.1102
15723PP      PP25827  10.154  12.608   3.215  0.0186 -0.2342 -0.2661
15724PP      PP25828   4.268  15.258   2.393 -0.3443  0.3908  0.1854
15725PP      PP25829   5.632  14.405   2.083 -0.1391  0.2174  0.1452
15726PP      PP25830  16.211   3.760   4.011 -0.1476  0.2577 -0.0374
15727PP      PP25831  11.319   3.465  11.228  0.1991 -0.1867  0.1738
15728PP      PP25832  11.199   8.812  11.637 -0.0368  0.2632 -0.0752
15729PP      PP25833   8.209  10.165   0.469  0.3712 -0.1101  0.1970
15730PP      PP25834   5.372   9.997  11.540  0.0076 -0.3942 -0.2215
15731PP      PP25835   9.047  14.350   1.799 -0.0566 -0.1247  0.0995
15732PP      PP25836   1.212  14.833   3.680  0.3813 -0.2082  0.0093
15733PP      PP25837   8.457   7.279  12.365  0.1242  0.0481 -0.1146
15734PP      PP25838   6.846   5.169   9.244 -0.3085  0.0643  0.0682
15735PP      PP25839   4.533   4.185   0.906  0.0412 -0.2262 -0.2950
15736PP      PP25840   2.667   6.303  10.533  0.1178 -0.1555  0.0286
15737PP      PP25841   7.851   0.326   8.981  0.1852 -0.2837  0.1417
15738PP      PP25842   0.032  11.429   8.553 -0.1022 -0.0414  0.3471
15739PP      PP25843  14.997   0.652  10.266 -0.0203 -0.0972  0.0874
15740PP      PP25844  11.685  15.567  11.536  0.2195 -0.3296  0.0016
15741PP      PP25845   1.559   8.324  12.574  0.0497 -0.1869 -0.1986
15742PP      PP25846   2.213  11.286   3.015  0.1282 -0.0527 -0.2600
15743PP      PP25847   7.424   6.743   1.944  0.1497  0.0799  0.0569
15744PP      PP25848   5.076   5.726   2.557 -0.0334  0.1059 -0.1418
15745PP      PP25849   7.512   6.861  11.655  0.3401  0.0003 -0.0316
15746PP      PP25850   3.173   6.493   9.845 -0.0945  0.0068 -0.2392
15747PP      PP25851  14.450   8.928   2.106 -0.0605  0.0400  0.0001
15748PP      PP25852  15.537   5.807  11.632  0.0884  0.2666  0.0141
15749PP      PP25853   6.043  13.333  10.315  0.1037  0.3514 -0.1707
15750PP      PP25854   3.857   8.146   3.110 -0.0443 -0.1672  0.0938
15751PP      PP25855   6.331   6.120  10.319  0.0646  0.0224  0.0694
15752PP      PP25856   8.529  13.641   0.734 -0.0813  0.1284 -0.0481
15753PP      PP25857   4.215   1.465   9.513  0.1060  0.1251  0.2543
15754PP      PP25858   2.916   6.235   2.276 -0.1375 -0.1355 -0.0853
15755PP      PP25859   3.405   8.141   1.630 -0.3628 -0.0276 -0.0409
15756PP      PP25860   4.337   8.957   9.603 -0.0845 -0.1738  0.1399
15757PP      PP25861   3.829   8.854  10.105  0.2278  0.0260 -0.3720
15758PP      PP25862   4.448   4.694   0.635  0.1096 -0.0584 -0.3567
15759PP      PP25863   1.466   2.481  10.422  0.0597 -0.0019 -0.3049
15760PP      PP25864   3.185   1.848   2.648  0.1635  0.0064 -0.1093
15761PP      PP25865  12.137   7.008  12.209 -0.0013 -0.1288  0.0306
15762PP      PP25866  11.014   0.135   3.094 -0.0455 -0.1599 -0.2765
15763PP      PP25867  11.278   8.029  12.120 -0.1903  0.1534 -0.0976
15764PP      PP25868  10.089  11.975  12.584  0.1231  0.2292 -0.1393
15765PP      PP25869   8.569   8.875   0.206  0.0049 -0.1701 -0.2868
15766PP      PP25870  16.047  14.587  10.943 -0.0281  0.0957 -0.0576
15767PP      PP25871   6.456  13.667  12.163 -0.1762  0.1041  0.4574
15768PP      PP25872   6.194  10.099   1.852 -0.0051 -0.1826 -0.1024
15769PP      PP25873  12.553   4.959  12.452  0.2728 -0.2935 -0.1647
15770PP      PP25874   1.625   3.659   0.814  0.0941 -0.2154  0.4179
15771PP      PP25875  10.867   9.225   8.333 -0.2097  0.1323  0.1047
15772PP      PP25876  13.072  11.092   4.125 -0.0609 -0.1950 -0.2842
15773PP      PP25877  15.789  15.846  10.217 -0.1499  0.0905 -0.0733
15774PP      PP25878   7.345   3.258   3.637  0.2272 -0.1847 -0.2229
15775PP      PP25879  10.766  15.185   9.369  0.0726 -0.1294 -0.2641
15776PP      PP25880  13.495   1.780   2.706 -0.2287  0.2235 -0.1690
15777PP      PP25881   0.934   2.336   1.989  0.1408  0.1950  0.1348
15778PP      PP25882   8.682  12.293   0.896 -0.0744 -0.0491 -0.0791
15779PP      PP25883   4.704  13.007   8.405  0.1003  0.0955 -0.1218
15780PP      PP25884  14.376   5.208   0.464 -0.1860 -0.0968  0.1797
15781PP      PP25885  11.659  16.160   0.527  0.1197 -0.1338  0.0780
15782PP      PP25886  12.675  15.017   3.937  0.1813 -0.0779  0.2794
15783PP      PP25887   1.094   3.950   3.402  0.1566 -0.1198 -0.0342
15784PP      PP25888   9.998   2.987  10.745  0.0356 -0.2743  0.0894
15785PP      PP25889  13.737   4.740   1.065  0.1943 -0.2587  0.3071
15786PP      PP25890   2.475   5.170   3.956 -0.1304  0.1530  0.0364
15787PP      PP25891  10.580  13.872  12.241 -0.0436  0.1237 -0.1269
15788PP      PP25892   0.059  10.325   0.928  0.3889  0.1759 -0.2311
15789PP      PP25893   7.223   1.036  11.818 -0.1379 -0.0971  0.2607
15790PP      PP25894  11.789   3.712  11.409  0.1195 -0.0530 -0.1411
15791PP      PP25895  15.162  10.095   1.063  0.0782  0.0406 -0.1298
15792PP      PP25896   8.337   9.838  10.268  0.0204 -0.1664 -0.3237
15793PP      PP25897   6.108   2.130   9.620 -0.3101 -0.0267  0.1064
15794PP      PP25898  15.124  14.271   9.822 -0.3967  0.3951 -0.0721
15795PP      PP25899   2.312   3.243   9.466  0.0696 -0.1746  0.0389
15796PP      PP25900  12.763  14.751   4.378 -0.4057  0.0346 -0.1953
15797PP      PP25901  10.976   6.511   3.289  0.3509 -0.1278 -0.1802
15798PP      PP25902   8.917   4.001   2.455 -0.0407  0.3546 -0.0301
15799PP      PP25903   4.266   0.939  10.854  0.3449 -0.4002 -0.2806
15800PP      PP25904   9.598   9.683  11.555 -0.1238 -0.0191  0.0955
15801PP      PP25905  15.191   0.186   2.318 -0.0336 -0.1399  0.0933
15802PP      PP25906   3.720  10.005   0.690 -0.0854 -0.0639  0.0343
15803PP      PP25907  10.773  10.116   1.010 -0.2509  0.1349  0.2636
15804PP      PP25908   2.926   6.225  12.148  0.4250 -0.0329  0.3330
15805PP      PP25909   7.998   0.416   0.240 -0.0804  0.2371 -0.3285
15806PP      PP25910   6.964  10.439  10.491  0.2324  0.0466  0.0655
15807PP      PP25911  11.791   2.348   2.708 -0.0440  0.3234  0.2006
15808PP      PP25912   5.821  16.133   9.634 -0.0584  0.0735  0.1204
15809PP      PP25913   1.775   0.536   3.940 -0.0249  0.2312  0.1473
15810PP      PP25914  10.535   7.701  11.823 -0.3206 -0.2212  0.0099
15811PP      PP25915   2.488  12.515   0.261  0.2096 -0.1224  0.1073
15812PP      PP25916  12.796   6.828   8.983 -0.1338  0.3656 -0.0841
15813PP      PP25917  12.075  16.235   0.234  0.1974 -0.0716  0.0074
15814PP      PP25918   5.553   3.621  12.512  0.5830 -0.3354 -0.2320
15815PP      PP25919  10.724   9.067  12.009 -0.3045  0.0078 -0.0538
15816PP      PP25920   7.166  14.671   0.084 -0.0212 -0.0265  0.0260
15817PP      PP25921   4.067  10.088   1.606  0.3411 -0.0680  0.1382
15818PP      PP25922   3.029  14.864   3.793  0.1454 -0.0539  0.0831
15819PP      PP25923   9.651   4.620   2.779 -0.2885  0.0019 -0.0725
15820PP      PP25924  15.923   8.985   0.774 -0.1547 -0.0024 -0.0289
15821PP      PP25925  12.084   4.765   3.087 -0.0215 -0.1042  0.0631
15822PP      PP25926  15.047   9.117  10.406  0.1455 -0.0779  0.0281
15823PP      PP25927   1.199   0.724   0.766 -0.3545 -0.0581  0.0836
15824PP      PP25928   3.468   8.899   2.888  0.1385  0.2940  0.0080
15825PP      PP25929   1.623  10.486   8.648  0.4059 -0.1275 -0.0883
15826PP      PP25930   2.892  10.485   9.772  0.2319 -0.1792  0.2857
15827PP      PP25931   4.555  14.081   3.241  0.0762 -0.0012  0.0236
15828PP      PP25932  13.607  11.057  11.666  0.0455 -0.1260 -0.1509
15829PP      PP25933   1.875  16.024   9.573  0.1647 -0.0185 -0.0528
15830PP      PP25934   4.122   0.099  10.416  0.0687  0.0105  0.0640
15831PP      PP25935  10.816  11.141   9.917  0.0112 -0.0024  0.1448
15832PP      PP25936  15.986   7.258   2.128  0.1748  0.2769 -0.1859
15833PP      PP25937   2.234  13.597   8.534  0.0167 -0.0346 -0.0823
15834PP      PP25938   7.144  15.558   9.607 -0.1216 -0.1519 -0.1378
15835PP      PP25939  14.880   6.003   9.278  0.0338  0.2328 -0.3034
15836PP      PP25940  14.923  13.243   9.920 -0.2642  0.1028  0.1394
15837PP      PP25941   6.705   9.714   3.777  0.1007 -0.0376 -0.0799
15838PP      PP25942   4.644   3.629  12.731 -0.0855  0.2386  0.1326
15839PP      PP25943  10.469  11.204   1.056 -0.0317  0.0705  0.1096
15840PP      PP25944  12.246  15.486   0.968 -0.0334 -0.1064 -0.1597
15841PP      PP25945  13.749   2.269   0.323  0.1867 -0.2135 -0.1368
15842PP      PP25946   0.033   3.927  12.158 -0.3065  0.1005  0.3889
15843PP      PP25947   9.324  15.635   2.084 -0.2943  0.1308  0.1643
15844PP      PP25948   6.608   4.280   3.963  0.0117  0.0762  0.2109
15845PP      PP25949   0.634  12.411   9.254 -0.2511 -0.0060  0.1830
15846PP      PP25950   3.206   8.518   8.659 -0.3926  0.0465 -0.0239
15847PP      PP25951   3.576  11.191   1.196  0.0674  0.0067  0.4978
15848PP      PP25952   0.901   3.739   2.701 -0.0445  0.3881 -0.0663
15849PP      PP25953   1.718   1.301   9.435  0.0851 -0.0066 -0.0377
15850PP      PP25954   1.201   9.423  10.152  0.0902  0.0596  0.1752
15851PP      PP25955   9.613   2.908   4.643  0.1763 -0.1719 -0.0092
15852PP      PP25956   2.396   7.787   2.874  0.0984 -0.3095 -0.0858
15853PP      PP25957   0.442   0.928   9.512 -0.0569  0.2115 -0.2115
15854PP      PP25958   9.019   4.443  10.701 -0.0204  0.4533 -0.2741
15855PP      PP25959   8.657   8.925  11.014 -0.2103 -0.0736 -0.2116
15856PP      PP25960  10.777  12.499   0.875  0.2788  0.0139 -0.3424
15857PP      PP25961   0.521   2.365  11.078  0.2101 -0.2481  0.0963
15858PP      PP25962  12.419   7.034   9.929  0.2980 -0.1590  0.0298
15859PP      PP25963  10.492   0.684  12.718  0.4145 -0.1038 -0.1186
15860PP      PP25964   5.603  10.009   3.217  0.0774  0.1417 -0.1040
15861PP      PP25965   6.794   1.122   9.667  0.0833 -0.0888  0.0156
15862PP      PP25966   2.750   2.294   9.746 -0.1757 -0.3131  0.0535
15863PP      PP25967  10.779   5.330  11.281 -0.2320  0.0404 -0.0930
15864PP      PP25968  11.888  14.706   2.097  0.2116 -0.3779 -0.3392
15865PP      PP25969   2.814   6.233   3.469  0.1134 -0.4819  0.2249
15866PP      PP25970   9.119   6.613   3.399 -0.3258 -0.1446  0.0971
15867PP      PP25971  14.959  11.234  10.627  0.4062  0.2029 -0.3882
15868PP      PP25972   9.539   1.154   0.920 -0.0608 -0.2717  0.0155
15869PP      PP25973  13.694   3.068  10.043  0.1737 -0.1179  0.4236
15870PP      PP25974   0.753   3.366   0.494  0.0701  0.2640 -0.0699
15871PP      PP25975   2.370  10.421   3.332  0.0176  0.0765 -0.1950
15872PP      PP25976   6.047   9.714   0.931 -0.2663  0.1205 -0.1289
15873PP      PP25977   6.087   3.317   0.160 -0.0437 -0.1249  0.1742
15874PP      PP25978  14.120   0.338   2.621  0.0678 -0.0202 -0.1272
15875PP      PP25979  11.836  15.397   1.342 -0.2165  0.1129 -0.0254
15876PP      PP25980  16.172   0.417  10.084 -0.3493 -0.0668  0.2950
15877PP      PP25981  15.289   1.640   2.174 -0.0427 -0.0624 -0.0992
15878PP      PP25982   5.110  15.524  11.098  0.0634  0.1270  0.2515
15879PP      PP25983   1.113   3.615   2.225  0.0172 -0.2310  0.1866
15880PP      PP25984   7.182   1.817   4.115  0.1137 -0.3381  0.1205
15881PP      PP25985   7.092   3.771   2.907  0.2782  0.1400  0.0289
15882PP      PP25986   2.880   3.909  10.015 -0.1948  0.2516 -0.0477
15883PP      PP25987   6.041  14.752   0.371  0.0658 -0.2075 -0.0072
15884PP      PP25988  14.284  14.280  12.727  0.1938  0.3732 -0.0444
15885PP      PP25989   9.452  15.131   3.927  0.2010 -0.0491  0.1267
15886PP      PP25990   3.963  16.320   2.920  0.2427 -0.1700  0.5015
15887PP      PP25991  14.795   3.597   9.670 -0.0994 -0.0708  0.0507
15888PP      PP25992  10.874   2.074   3.684  0.1064 -0.0969  0.0274
15889PP      PP25993   9.985  14.180  10.249 -0.0078  0.0042  0.1737
15890PP      PP25994   5.942   5.017   9.635 -0.2247 -0.3265 -0.0288
15891PP      PP25995  15.923   9.870   3.429 -0.1310 -0.0059 -0.2036
15892PP      PP25996   2.943   5.315  11.566 -0.1341  0.0414 -0.2060
15893PP      PP25997  10.101   9.577  10.620  0.0589 -0.1495 -0.0829
15894PP      PP25998   3.295  10.406  11.905  0.0477  0.1577 -0.0553
15895PP      PP25999   5.158   4.785   2.246 -0.0437  0.2777 -0.4965
15896PP      PP26000  10.949   7.879  11.597  0.2030  0.0757 -0.0065
15897PP      PP26001  15.942  14.467   0.775 -0.1819  0.0326 -0.2529
15898PP      PP26002   1.658  15.784   2.783  0.1133  0.3973 -0.3269
15899PP      PP26003  14.537   7.291   1.497 -0.0972 -0.0428 -0.3044
15900PP      PP26004  12.611   0.010   1.724 -0.1266 -0.1082  0.1192
15901PP      PP26005   8.765   5.738  11.665  0.1603  0.0921  0.2792
15902PP      PP26006  13.567  12.528   2.905 -0.0596 -0.0234 -0.1500
15903PP      PP26007  12.997  15.711   2.854  0.3100  0.0504  0.0670
15904PP      PP26008  13.047   9.061   0.348  0.1485  0.0704  0.0185
15905PP      PP26009   5.336   8.573   8.736 -0.4152 -0.1622  0.1001
15906PP      PP26010   5.880   4.338   2.727  0.1432  0.1425 -0.2395
15907PP      PP26011  13.940  15.264   1.696  0.0342  0.2136 -0.0939
15908PP      PP26012   0.828   6.815  11.869  0.1433  0.2286  0.0905
15909PP      PP26013   5.814   0.510  11.996  0.1695  0.1045 -0.0705
15910PP      PP26014  13.036  15.058  10.269  0.2495  0.1632  0.2374
15911PP      PP26015   1.968   4.667   0.001  0.0157  0.1117 -0.1856
15912PP      PP26016   3.553   9.386   9.938 -0.0262 -0.0861 -0.1186
15913PP      PP26017   3.975  14.909  12.612  0.1032 -0.0415  0.2049
15914PP      PP26018   7.286  14.578   4.145 -0.1259  0.1239 -0.0483
15915PP      PP26019  13.211   4.906   0.247 -0.1785  0.1100 -0.1813
15916PP      PP26020   4.355   6.971   8.966  0.0966 -0.0221 -0.0454
15917PP      PP26021  15.327   5.717   9.184 -0.0600 -0.0662  0.0298
15918PP      PP26022  12.077   2.922  12.696  0.0946  0.2346 -0.0682
15919PP      PP26023   9.310  10.476  11.540 -0.3149  0.3516 -0.1679
15920PP      PP26024   8.871   6.266   0.587  0.0281  0.4261 -0.0901
15921PP      PP26025  11.720   2.089   9.256 -0.1836  0.0774  0.0376
15922PP      PP26026  10.657   5.001   1.820 -0.1044 -0.0235  0.1427
15923PP      PP26027  10.445  10.896  11.509 -0.1993  0.2630  0.3399
15924PP      PP26028  12.556  11.427   3.175  0.0632 -0.1852  0.2176
15925PP      PP26029   4.143   7.630   3.358  0.1494 -0.3119 -0.1331
15926PP      PP26030   5.696   6.720  10.933  0.2462  0.3375  0.2708
15927PP      PP26031   8.089   8.453   3.517  0.2830 -0.0495 -0.3985
15928PP      PP26032   6.131   1.676  11.614 -0.3151  0.2687  0.1028
15929PP      PP26033  14.005   4.390   9.508  0.0633 -0.0874  0.1769
15930PP      PP26034  15.687   1.552   2.593  0.2968  0.0384 -0.0003
15931PP      PP26035  13.753  14.859   1.990 -0.0272 -0.0408  0.0119
15932PP      PP26036   7.871   7.396  10.060  0.3221 -0.0300 -0.0826
15933PP      PP26037   9.857   4.457  10.949  0.0929  0.0347  0.0528
15934PP      PP26038   2.429  11.983   9.221  0.0627  0.0943  0.1941
15935PP      PP26039   8.184  14.739   3.493  0.1253 -0.0340 -0.1643
15936PP      PP26040   4.396   9.453   9.602  0.2024  0.2165 -0.4921
15937PP      PP26041  10.006   4.706   3.143  0.1549  0.1126  0.1001
15938PP      PP26042  14.876   4.726   8.628 -0.0058 -0.0032 -0.2853
15939PP      PP26043   1.586  10.474  10.249  0.0092 -0.4512 -0.1892
15940PP      PP26044   7.842   0.927   9.677  0.0619 -0.1902  0.4007
15941PP      PP26045   2.968   9.603   0.006  0.2093 -0.1963 -0.1937
15942PP      PP26046   2.039   8.357   1.410  0.0300  0.1384  0.1930
15943PP      PP26047  15.725  10.832   2.907  0.2375 -0.0389  0.2727
15944PP      PP26048   8.675   8.365  12.706 -0.0782 -0.1909  0.1425
15945PP      PP26049   2.582   1.336   0.642 -0.0412 -0.0798 -0.1395
15946PP      PP26050   8.765   7.957   8.694  0.0914 -0.2281  0.1427
15947PP      PP26051   8.298   0.521  10.071 -0.1344 -0.2092 -0.0664
15948PP      PP26052  13.170  10.131  11.391  0.0165 -0.0874  0.4662
15949PP      PP26053   8.329  11.602   4.467 -0.1263 -0.0504 -0.0377
15950PP      PP26054   2.235  13.475   9.427  0.2852  0.0775 -0.1617
15951PP      PP26055  15.586  14.017   9.829 -0.0226  0.0028 -0.0700
15952PP      PP26056  13.252   8.917  10.076  0.0653  0.0150 -0.0006
15953PP      PP26057  14.636   4.148   8.084  0.1334 -0.4218 -0.0151
15954PP      PP26058   4.064   3.605   8.289  0.1488 -0.4492 -0.0087
15955PP      PP26059   1.374  14.973   2.224 -0.0721 -0.1785 -0.2270
15956PP      PP26060  12.463   0.315  10.436 -0.0206 -0.1017  0.0312
15957PP      PP26061   1.765   6.497   1.222  0.0499  0.2781 -0.0647
15958PP      PP26062  15.663  15.436  10.600  0.2195 -0.0383 -0.0363
15959PP      PP26063   1.868   9.432   2.237 -0.0560  0.2482 -0.1185
15960PP      PP26064  13.497  15.910  11.370 -0.0904  0.0460 -0.1278
15961PP      PP26065   4.464   7.539   8.956  0.0343 -0.1356 -0.0530
15962PP      PP26066  13.885  16.218   0.621 -0.2050  0.2533 -0.1514
15963PP      PP26067   8.121   5.798   8.006 -0.0122  0.2434 -0.1847
15964PP      PP26068   3.568   1.129  10.155  0.0825  0.1143  0.0627
15965PP      PP26069  15.066  10.089   9.871 -0.0799  0.0621 -0.0732
15966PP      PP26070  13.713  12.169   9.034  0.0345 -0.0280  0.2813
15967PP      PP26071   2.949   5.361   8.687  0.1398 -0.0610  0.2332
15968PP      PP26072   5.712   7.891  10.203 -0.1302 -0.0330  0.0086
15969PP      PP26073   6.342   2.764   3.934 -0.0168 -0.3847  0.0034
15970PP      PP26074   8.520   0.653   3.305  0.3283 -0.3295  0.0780
15971PP      PP26075  13.595  14.929   0.880 -0.1307  0.1777 -0.0884
15972PP      PP26076  16.150   4.607   2.565 -0.1230 -0.0024  0.0639
15973PP      PP26077   1.521  14.224   0.724 -0.2423  0.0576 -0.1302
15974PP      PP26078  12.135   7.944   3.603  0.2976 -0.0650  0.0930
15975PP      PP26079   6.025  15.547  10.208  0.1204  0.2825  0.0642
15976PP      PP26080   9.224  15.023  10.804  0.4111 -0.2025 -0.0504
15977PP      PP26081   9.535   2.597   3.235  0.0645  0.1687  0.1080
15978PP      PP26082  12.737   6.975  10.446  0.1025 -0.1967  0.1278
15979PP      PP26083   7.588   7.422   8.571 -0.3276  0.0010  0.2698
15980PP      PP26084   6.968  10.750   3.907  0.1824  0.3811 -0.0896
15981PP      PP26085   7.309   8.865   1.463 -0.1256 -0.0735  0.3340
15982PP      PP26086  13.714   5.116  11.983  0.3102 -0.3792 -0.0194
15983PP      PP26087   5.776  12.421   0.126 -0.3081  0.0982  0.1889
15984PP      PP26088   6.799   4.883   0.627  0.1099  0.0631 -0.0989
15985PP      PP26089  11.973  16.311   9.888  0.0286 -0.1821  0.0155
15986PP      PP26090  14.739  10.964  12.199 -0.1788  0.1103  0.1083
15987PP      PP26091   3.169  12.464   9.823 -0.2573  0.2600  0.0088
15988PP      PP26092  15.793   6.213  10.964 -0.0780  0.2380 -0.3003
15989PP      PP26093  13.798  14.949  11.573 -0.1245  0.0632  0.0302
15990PP      PP26094   5.005   3.970  11.505 -0.3122  0.0388  0.1386
15991PP      PP26095  15.220   6.450   2.806 -0.2138 -0.1843  0.0461
15992PP      PP26096   9.003  12.795   0.172 -0.0842  0.0545 -0.2484
15993PP      PP26097  13.587  12.761   9.790 -0.2157  0.0911 -0.0453
15994PP      PP26098  10.018   7.048   4.005 -0.2912  0.1604  0.1018
15995PP      PP26099   5.057   8.916   0.624 -0.4257 -0.3210 -0.0044
15996PP      PP26100  12.057  15.847  10.007  0.2516 -0.0787  0.1936
15997PP      PP26101   1.445   2.986  11.813  0.1594 -0.0644  0.0639
15998PP      PP26102   2.221  12.684   0.690 -0.2242 -0.1322  0.1320
15999PP      PP26103  14.674   6.026  10.999  0.0360 -0.0960 -0.3773
16000PP      PP26104  12.768  12.558   9.935  0.0767 -0.0150 -0.1507
16001PP      PP26105  10.290   8.638  10.726  0.0636  0.0298 -0.0900
16002PP      PP26106   4.300   7.074  11.815 -0.1269 -0.1968  0.0260
16003PP      PP26107   2.522   0.937   0.962  0.1828 -0.2390 -0.0608
16004PP      PP26108   0.387   7.217   0.694 -0.2780 -0.2734 -0.0579
16005PP      PP26109   8.968   1.395   3.850  0.0813  0.1207 -0.1676
16006PP      PP26110  16.275   6.549   1.238  0.4372 -0.1791  0.0429
16007PP      PP26111   3.226  10.791   7.953 -0.1316 -0.2705 -0.2824
16008PP      PP26112   8.171  15.893   9.743  0.1490  0.0509 -0.1759
16009PP      PP26113   1.282   5.463   1.939 -0.0083  0.0935  0.4574
16010PP      PP26114  13.122  12.068   3.867  0.1898 -0.1298 -0.1241
16011PP      PP26115   7.520  14.781   0.390  0.0300 -0.2002 -0.1250
16012PP      PP26116   0.029   3.947   2.982  0.0946  0.1088  0.1828
16013PP      PP26117   1.173  11.204   9.739 -0.0258 -0.0538 -0.2423
16014PP      PP26118  14.519  10.613   9.541  0.1863  0.2187  0.1229
16015PP      PP26119  13.028   0.898   0.791 -0.2021  0.1608 -0.5174
16016PP      PP26120   0.765   1.855   4.188  0.2645  0.1424  0.1563
16017PP      PP26121   7.907  10.802   9.321  0.1705 -0.1210  0.0626
16018PP      PP26122  16.192  12.841   0.604  0.1015  0.0409  0.1741
16019PP      PP26123  14.637   2.577   2.851  0.0646  0.0718  0.0720
16020PP      PP26124   4.696   4.724   1.154 -0.2494 -0.1177 -0.1288
16021PP      PP26125   8.001   4.931   2.597 -0.2062 -0.2814  0.0799
16022PP      PP26126   0.244   2.640   9.823 -0.1126  0.2065  0.1055
16023PP      PP26127   6.311  10.077   8.830  0.0884  0.2752  0.1339
16024PP      PP26128  16.014   5.163   8.920 -0.1069 -0.0073  0.0558
16025PP      PP26129  15.946  16.148   3.638 -0.1969  0.0815 -0.1619
16026PP      PP26130   9.744  10.596   8.885 -0.5056 -0.2389 -0.0841
16027PP      PP26131   5.936  12.250   1.919  0.0501  0.4031  0.1213
16028PP      PP26132   5.495   1.210  12.146 -0.1902  0.1389 -0.0126
16029PP      PP26133   8.777  14.928   9.704 -0.0860  0.1615  0.4616
16030PP      PP26134   1.617   3.549   4.206  0.0177 -0.3055  0.0383
16031PP      PP26135   3.339  14.309  10.144 -0.1778  0.0781  0.0524
16032PP      PP26136   4.970   8.152   9.655  0.1110  0.0245  0.0144
16033PP      PP26137  12.636   8.088  11.585 -0.2281  0.1476 -0.1743
16034PP      PP26138   2.892   3.085   3.788  0.1068  0.1158 -0.0186
16035PP      PP26139   1.049   9.827   3.314 -0.3721 -0.0334 -0.2777
16036PP      PP26140   0.022   7.588   3.489 -0.2649 -0.0613  0.1540
16037PP      PP26141   3.001  11.087   1.522 -0.0507  0.0518  0.4260
16038PP      PP26142   0.368   9.007   1.141  0.1265  0.2645 -0.1498
16039PP      PP26143   4.822   2.321  12.588  0.1188  0.0774 -0.2071
16040PP      PP26144   1.938   0.178  11.133 -0.1153  0.0156 -0.2035
16041PP      PP26145   7.758  14.874   3.306 -0.1120  0.0666 -0.4885
16042PP      PP26146  14.783  12.338  10.285  0.3106  0.0401  0.2269
16043PP      PP26147   9.760  15.626   1.000  0.1136  0.0820  0.1242
16044PP      PP26148   8.161   3.293  10.125  0.2083 -0.2066  0.0073
16045PP      PP26149  12.037   6.370   1.525  0.0035 -0.0579 -0.3987
16046PP      PP26150   5.680  15.239   2.436 -0.0578  0.2196 -0.0178
16047PP      PP26151   3.510   7.740   2.023  0.2300 -0.0902  0.2296
16048PP      PP26152  15.681  11.175   0.017  0.0182 -0.1358 -0.3156
16049PP      PP26153  11.605  11.653   0.464 -0.1457  0.0766 -0.0532
16050PP      PP26154   7.230   0.382   8.720  0.1454 -0.2684  0.2926
16051PP      PP26155   3.855   3.857   3.791  0.0560  0.0720 -0.2110
16052PP      PP26156   5.788   9.859   2.391 -0.1403  0.0017 -0.2936
16053PP      PP26157  14.048   6.292   9.820  0.0287 -0.2822 -0.1360
16054PP      PP26158   8.974   5.358   8.859 -0.1540 -0.0834  0.0871
16055PP      PP26159  16.339  16.222   0.643  0.0828 -0.3846  0.0660
16056PP      PP26160  11.993   2.477   0.307  0.1283 -0.0611 -0.0766
16057PP      PP26161   1.075  12.098   2.005 -0.3076 -0.2396  0.3037
16058PP      PP26162  14.359  10.038   1.978 -0.0542  0.3743 -0.1048
16059PP      PP26163   3.794   7.138   9.984 -0.4085  0.0071 -0.1608
16060PP      PP26164   9.514   7.384  12.620 -0.1665  0.0577 -0.1387
16061PP      PP26165   1.110   8.881   0.494  0.1024  0.1705 -0.3074
16062PP      PP26166  11.741  13.552   1.162  0.2061 -0.0287 -0.0471
16063PP      PP26167  15.780   5.413   1.151 -0.2291 -0.1957  0.0855
16064PP      PP26168   3.300  16.134   8.709 -0.0432  0.2983  0.1585
16065PP      PP26169  16.182   2.777   1.100 -0.0347 -0.0921 -0.2879
16066PP      PP26170   8.388   1.939   2.653 -0.1698  0.0573 -0.1417
16067PP      PP26171   3.331   9.825   1.699  0.3505 -0.0377 -0.0229
16068PP      PP26172   9.553   6.926   0.536  0.0623  0.1084 -0.1993
16069PP      PP26173  12.720   5.786   1.489 -0.0057  0.0162  0.2243
16070PP      PP26174   3.327  11.959  11.788 -0.0225  0.3281  0.1049
16071PP      PP26175   7.641   8.255   8.968 -0.0512 -0.2972 -0.0227
16072PP      PP26176   4.826  12.040  12.295  0.0965  0.0221 -0.0167
16073PP      PP26177   8.172  12.745   3.859  0.2504  0.1331 -0.2727
16074PP      PP26178  11.610  13.062   4.402 -0.2736 -0.3280 -0.0604
16075PP      PP26179   5.583   6.377   1.289  0.2832 -0.0609  0.0294
16076PP      PP26180   6.285   7.134  11.757  0.1337 -0.4002  0.1232
16077PP      PP26181  12.789   6.221   0.670 -0.0998  0.0888  0.0156
16078PP      PP26182   9.886  12.873   2.455  0.1036  0.0120 -0.3076
16079PP      PP26183   5.440   7.145   8.224  0.1204 -0.0054 -0.2436
16080PP      PP26184  15.135   1.137  10.250 -0.1511 -0.0718  0.0323
16081PP      PP26185   6.418   1.625  12.014 -0.3097 -0.0813  0.3093
16082PP      PP26186   8.160   3.915   2.932 -0.2874  0.3661 -0.2528
16083PP      PP26187   8.434   6.695   2.852 -0.3879 -0.0710 -0.1083
16084PP      PP26188  11.444   1.748   2.515  0.2326 -0.0865 -0.1237
16085PP      PP26189   1.385   5.063  11.457  0.2011 -0.0971 -0.0102
16086PP      PP26190   3.477   4.378   8.263 -0.2041  0.1368  0.0827
16087PP      PP26191  10.034   4.417  12.234  0.1274 -0.0447  0.2810
16088PP      PP26192   5.925   1.909   2.033  0.2496 -0.0437  0.1423
16089PP      PP26193  12.859  13.082   0.197 -0.3885 -0.1392 -0.1182
16090PP      PP26194  15.961  10.964   2.034 -0.2071  0.0560 -0.1275
16091PP      PP26195  13.885  10.054   4.218  0.0351 -0.0207  0.2143
16092PP      PP26196   6.860  15.103   1.687 -0.0865 -0.2324 -0.3836
16093PP      PP26197  12.112  13.601   9.106  0.1081  0.0053  0.0012
16094PP      PP26198   0.229  16.239  10.780 -0.2792  0.1174  0.0942
16095PP      PP26199   4.999   2.973   2.307 -0.0924  0.3379  0.0865
16096PP      PP26200  10.529   9.996  11.777 -0.2534 -0.2159  0.4122
16097PP      PP26201   7.717   1.700   4.255  0.0560 -0.1321  0.0099
16098PP      PP26202  13.054  15.520   0.174  0.0864 -0.0994 -0.2270
16099PP      PP26203  13.824   5.519   3.384 -0.0110 -0.0185 -0.3001
16100PP      PP26204   4.610  14.080  11.734  0.0399  0.0383 -0.0916
16101PP      PP26205   8.912  12.747   3.481 -0.3496  0.1025  0.1608
16102PP      PP26206   5.370  14.280  10.030 -0.2635  0.1196 -0.0731
16103PP      PP26207   9.808   9.066   0.812 -0.0428  0.2446  0.0543
16104PP      PP26208   4.997   3.833   9.610 -0.0541 -0.0360  0.0813
16105PP      PP26209  16.189   7.126   3.620  0.0666  0.0801 -0.1715
16106PP      PP26210  13.223  16.004   2.057 -0.1734  0.0742 -0.1391
16107PP      PP26211   1.853   3.680   9.686  0.2547 -0.1374 -0.4728
16108PP      PP26212  14.029  15.047   0.555 -0.5373 -0.2007  0.0661
16109PP      PP26213  13.204   8.547   0.447  0.1468 -0.1358  0.3057
16110PP      PP26214   4.207  14.132  10.767  0.2808 -0.0077 -0.1696
16111PP      PP26215  11.372   0.406  12.471 -0.1222 -0.2819  0.1921
16112PP      PP26216  13.494  10.246  10.244 -0.2112 -0.2490 -0.0607
16113PP      PP26217   1.756   0.373   9.576 -0.1028  0.0124 -0.2825
16114PP      PP26218  14.292   7.249   8.334 -0.1561  0.0966 -0.0873
16115PP      PP26219   2.593   2.665   3.666 -0.2196 -0.6883  0.0834
16116PP      PP26220   9.918   7.033  10.451  0.2721 -0.1459  0.2406
16117PP      PP26221   4.525   9.054   2.782 -0.0518 -0.2238 -0.0025
16118PP      PP26222   3.601   4.732  12.247 -0.0496 -0.3562 -0.1900
16119PP      PP26223  13.095   3.849   2.283  0.2268  0.2704  0.0564
16120PP      PP26224  16.199  11.196   3.869 -0.3602 -0.0364 -0.0032
16121PP      PP26225   1.487   5.524   0.169 -0.3533 -0.4081  0.0299
16122PP      PP26226   8.846   1.916   4.191  0.1691  0.1417  0.3116
16123PP      PP26227   8.381   3.431  11.941  0.0950  0.2004  0.0975
16124PP      PP26228  14.431   3.272  10.664 -0.1457 -0.2097  0.3520
16125PP      PP26229   9.277   3.676   9.837  0.0533  0.2119  0.1326
16126PP      PP26230  12.723  15.695   3.248 -0.0031 -0.1740  0.3117
16127PP      PP26231   2.993  14.056  10.345  0.2467  0.1352 -0.2933
16128PP      PP26232   4.858   8.989   1.958 -0.1421  0.0088  0.3546
16129PP      PP26233   9.235   9.997   9.105 -0.2018  0.0057 -0.0162
16130PP      PP26234   7.472   0.229  12.546 -0.1838 -0.1785  0.0216
16131PP      PP26235  13.430  13.338  10.981  0.0488  0.0226  0.0687
16132PP      PP26236   1.270   1.242  12.132  0.1183 -0.0238  0.0554
16133PP      PP26237   7.284   3.119  10.288  0.3907  0.0143  0.1557
16134PP      PP26238   0.861  15.160   3.791 -0.1489  0.1601  0.0593
16135PP      PP26239   1.468   3.255  10.795 -0.0922  0.1935 -0.2193
16136PP      PP26240   8.689  12.124  10.195 -0.0674 -0.0109  0.0008
16137PP      PP26241   7.941  14.744   0.014  0.1282 -0.0567  0.3829
16138PP      PP26242   4.560   0.768   0.492  0.1343  0.0649  0.3169
16139PP      PP26243   5.762  14.831   3.356 -0.2346 -0.1123 -0.0577
16140PP      PP26244   0.419  10.791   8.867 -0.1930  0.1635  0.1641
16141PP      PP26245  14.435   9.411  12.323 -0.2374  0.1954 -0.1140
16142PP      PP26246  14.922  12.005   4.039 -0.0383  0.1218  0.0711
16143PP      PP26247   6.970   9.993  12.074  0.0829  0.2817  0.3683
16144PP      PP26248  15.816   8.664   8.838  0.1292  0.1336 -0.0644
16145PP      PP26249  11.833   5.033   8.636  0.3806 -0.2448 -0.3288
16146PP      PP26250  15.330  14.252   0.354 -0.0347 -0.0501 -0.0353
16147PP      PP26251  13.000   7.268   0.693 -0.2484 -0.1717 -0.0590
16148PP      PP26252   0.070  15.229  12.195 -0.1089 -0.5005 -0.0661
16149PP      PP26253  11.627   7.904  12.530 -0.1551  0.2789  0.0270
16150PP      PP26254   5.074   8.890   8.974  0.0505  0.0931 -0.0462
16151PP      PP26255   6.636  13.744   9.888  0.2376  0.2070  0.0144
16152PP      PP26256   0.335   4.837  12.432  0.1854  0.0123 -0.3305
16153PP      PP26257  10.889  12.029   0.098 -0.1327 -0.0808  0.1381
16154PP      PP26258   8.353  13.857  10.708 -0.2885  0.1018 -0.2221
16155PP      PP26259   5.468  12.745   8.115 -0.3458  0.0709  0.2881
16156PP      PP26260   6.895   7.981   0.391 -0.3138  0.2956 -0.0773
16157PP      PP26261   4.928   1.662   2.551 -0.2775 -0.2985 -0.1950
16158PP      PP26262  10.684   2.487   3.892 -0.0474 -0.0244 -0.3973
16159PP      PP26263   4.420  10.445   8.128 -0.0893 -0.3719 -0.2130
16160PP      PP26264   0.416  13.658  12.455 -0.1232  0.5014 -0.1879
16161PP      PP26265   0.926   5.023  12.247 -0.2180 -0.0227 -0.0253
16162PP      PP26266  13.001   4.013  12.569  0.0040 -0.0971  0.2007
16163PP      PP26267   2.711   8.283  10.871  0.2126 -0.1321  0.1895
16164PP      PP26268   5.605  13.583  10.046  0.0936  0.1828  0.0027
16165PP      PP26269   2.843   3.835   3.001  0.0469 -0.1020  0.1157
16166PP      PP26270   7.418   3.098   0.694  0.1786 -0.1948  0.1697
16167PP      PP26271   5.447   9.339  10.687 -0.1234  0.3008 -0.1899
16168PP      PP26272  14.477   9.952   2.497  0.2558 -0.0080 -0.0382
16169PP      PP26273  10.027   8.709   8.599  0.1922 -0.0457 -0.0650
16170PP      PP26274   5.279   0.342   5.251  0.0306  0.0902  0.1200
16171PP      PP26275   5.220   0.084   4.652 -0.0226  0.1380  0.0213
16172PP      PP26276   3.917   7.681   2.849 -0.3121 -0.1168 -0.1099
16173PP      PP26277   3.609  13.737  11.239  0.0117 -0.1607 -0.3691
16174PP      PP26278  11.969   1.693  11.882 -0.2060  0.0273  0.2668
16175PP      PP26279   4.325   0.913  10.354 -0.1564  0.0122  0.0356
16176PP      PP26280   6.602   2.419   0.415 -0.0848  0.2488  0.0279
16177PP      PP26281  16.054   2.345   2.442 -0.1013  0.5644  0.0054
16178PP      PP26282  16.218   7.628   8.712  0.0316  0.1751  0.0301
16179PP      PP26283   7.745   8.132   1.344  0.3718  0.0658  0.0687
16180PP      PP26284  14.801   0.771   8.560 -0.0797  0.2663 -0.1105
16181PP      PP26285  11.900   5.285  11.554 -0.2429  0.0130  0.0137
16182PP      PP26286  12.439   0.701   8.812  0.0995  0.0098 -0.1620
16183PP      PP26287   9.773   7.310   3.429  0.1399 -0.0368  0.1616
16184PP      PP26288   5.321   3.945  10.667 -0.0828  0.1668  0.1145
16185PP      PP26289   2.952  14.316  11.209  0.2394 -0.0492  0.1246
16186PP      PP26290   3.911   3.510   9.860  0.3698  0.1756  0.0176
16187PP      PP26291   6.299   0.492  12.187 -0.2809 -0.1450  0.0777
16188PP      PP26292  10.278  10.283   0.856  0.2625 -0.3834  0.0003
16189PP      PP26293   5.927   4.851   8.049 -0.2631 -0.2300  0.0214
16190PP      PP26294  13.907   4.175   1.258  0.0231  0.2163 -0.0740
16191PP      PP26295   0.702  12.006  10.830  0.2737 -0.2582  0.1447
16192PP      PP26296   8.119  16.301   0.997  0.1384  0.0133  0.0971
16193PP      PP26297   9.211  11.171   2.101  0.1954  0.2176  0.0716
16194PP      PP26298  10.817  10.490  12.490 -0.0911 -0.2493  0.0511
16195PP      PP26299  13.054   6.536   1.811  0.1355  0.0619  0.0209
16196PP      PP26300  13.170  15.559  11.812  0.2051 -0.1225  0.1224
16197PP      PP26301   6.315   5.107   0.540 -0.2777 -0.4216  0.2286
16198PP      PP26302  13.233   6.298   0.445 -0.0250  0.1471 -0.0026
16199PP      PP26303   0.897   1.272   0.314  0.1753  0.1524 -0.2407
16200PP      PP26304   0.641   2.045   1.102 -0.2554 -0.1186  0.3117
16201PP      PP26305  10.694  12.583   3.104  0.1582 -0.2261 -0.0253
16202PP      PP26306   2.515   7.635   1.628 -0.2698 -0.2493 -0.2572
16203PP      PP26307   8.108  15.249  11.104  0.1086  0.0950 -0.0700
16204PP      PP26308  15.241   6.517  11.510  0.0828 -0.1871  0.0433
16205PP      PP26309  14.729   2.805   1.878  0.2403 -0.0344 -0.0475
16206PP      PP26310   1.011   5.580  11.481 -0.2123  0.2779  0.1184
16207PP      PP26311  12.136   8.856   3.438 -0.1098 -0.0730 -0.0568
16208PP      PP26312   1.737  12.171   9.645 -0.0046 -0.0579  0.2110
16209PP      PP26313   6.411   9.855   1.336 -0.1427  0.1597  0.0043
16210PP      PP26314  12.928   0.704  11.360 -0.3123  0.0512  0.0416
16211PP      PP26315   4.744   5.214   2.523 -0.0397 -0.2936 -0.2670
16212PP      PP26316   2.492   6.604  11.359  0.0308 -0.0508 -0.2484
16213PP      PP26317   3.063   3.051   1.360 -0.0644 -0.0226  0.1351
16214PP      PP26318  10.658   3.531  12.549  0.3145  0.0327  0.0079
16215PP      PP26319   7.313   0.527  11.128 -0.0022 -0.1125 -0.2096
16216PP      PP26320   4.206   8.044   0.311  0.1064 -0.0039  0.5569
16217PP      PP26321   7.443  14.551  11.412 -0.2996  0.1689  0.0436
16218PP      PP26322   8.129  14.125  10.134  0.1483  0.3039  0.1996
16219PP      PP26323   4.117  10.719   7.771 -0.1261 -0.1210  0.0443
16220PP      PP26324   7.972   4.261   1.965  0.0895  0.1965  0.1948
16221PP      PP26325   0.457   9.559   2.617  0.1455  0.1665  0.0950
16222PP      PP26326   6.202   1.530  10.626  0.1234  0.1647 -0.1797
16223PP      PP26327   2.453   3.652   4.726 -0.0321  0.0231 -0.3233
16224PP      PP26328  12.304  13.498   1.233  0.2026  0.0113 -0.2508
16225PP      PP26329   5.214   2.524  12.326 -0.0791  0.0643  0.0921
16226PP      PP26330   8.371  12.265   2.647  0.2256  0.3569 -0.1775
16227PP      PP26331  15.563   4.968   3.707  0.1377  0.0853 -0.1891
16228PP      PP26332  10.201   4.715  11.790 -0.1183 -0.2313 -0.2695
16229PP      PP26333   9.581  10.110  11.750  0.0339 -0.2050 -0.3877
16230PP      PP26334  14.171   1.616  12.011  0.0621  0.0385  0.2862
16231PP      PP26335   3.117   0.745   3.836  0.2800  0.2522  0.2379
16232PP      PP26336  16.302  10.953   8.921  0.0787  0.1204  0.1327
16233PP      PP26337   4.375  12.209   7.866 -0.0631 -0.0859  0.2905
16234PP      PP26338  13.380   1.909   0.851  0.1133  0.1106 -0.1492
16235PP      PP26339   1.258   5.931   9.564  0.2248  0.0090  0.2318
16236PP      PP26340  14.907  15.439   4.236 -0.3565 -0.0571  0.2737
16237PP      PP26341   8.340   8.112   0.368 -0.0889  0.0410  0.1941
16238PP      PP26342   8.277   9.176   0.452  0.0158 -0.0749 -0.0031
16239PP      PP26343  12.045   8.218  12.433  0.0234 -0.2559 -0.0667
16240PP      PP26344   8.588   5.421   8.070 -0.1546  0.2264 -0.2085
16241PP      PP26345   6.574  11.783   1.587 -0.0920  0.1555 -0.0693
16242PP      PP26346   1.246  13.806  12.602 -0.1370  0.1380 -0.0560
16243PP      PP26347   6.129  10.616   2.081 -0.0678  0.1525  0.0374
16244PP      PP26348  11.521   4.909   1.391 -0.4842  0.3347 -0.0832
16245PP      PP26349   9.102   0.082   8.912  0.0202  0.4722  0.0849
16246PP      PP26350   3.747  13.987  10.848  0.1117  0.4077 -0.2318
16247PP      PP26351  10.955   8.676  10.670 -0.1547 -0.0494  0.1024
16248PP      PP26352   4.894   9.173   1.011  0.0384  0.0461 -0.3783
16249PP      PP26353  13.881   1.679  12.754 -0.1202  0.0603  0.1838
16250PP      PP26354  10.633   1.228  10.602  0.3654  0.2103 -0.3284
16251PP      PP26355  12.765   7.726   2.850 -0.1780 -0.3592 -0.1529
16252PP      PP26356  12.072   4.980   2.040 -0.4303  0.2434 -0.2690
16253PP      PP26357   4.515   3.919  11.598  0.0714  0.0974 -0.1287
16254PP      PP26358   4.047  12.963  12.271 -0.2875 -0.3831  0.2606
16255PP      PP26359  11.492   1.208   2.695  0.2026 -0.2047 -0.0797
16256PP      PP26360  11.260   6.249   8.791  0.1557 -0.0960 -0.0035
16257PP      PP26361   1.807  13.453  11.397  0.0373 -0.0881 -0.2282
16258PP      PP26362   3.598   2.671   4.194 -0.1349 -0.0350 -0.1743
16259PP      PP26363   1.958   7.805   9.315 -0.1667  0.0060 -0.1417
16260PP      PP26364  12.970  10.234  12.412 -0.0885  0.3373  0.1760
16261PP      PP26365  13.808   7.212  10.653 -0.0619  0.1049  0.2465
16262PP      PP26366   9.085   2.885   1.051  0.0963  0.5013  0.1048
16263PP      PP26367   6.745   4.707  10.813  0.3393 -0.3479 -0.3384
16264PP      PP26368   4.775   5.764  10.825 -0.1219  0.1053  0.1354
16265PP      PP26369   2.673   0.842  11.988 -0.1199 -0.1932  0.2361
16266PP      PP26370   7.806   2.902  12.357  0.2030 -0.0659 -0.3894
16267PP      PP26371   0.953   5.082   1.806 -0.2440 -0.1797  0.1514
16268PP      PP26372   7.540   8.574   9.580 -0.0301 -0.1093  0.0081
16269PP      PP26373   7.474  16.328  10.193 -0.0401  0.0091 -0.0059
16270PP      PP26374  11.865  15.992  11.784  0.1795  0.1350 -0.0982
16271PP      PP26375   6.296   5.624   0.901 -0.0205  0.0817 -0.0680
16272PP      PP26376  10.154  14.387   4.236  0.1234 -0.0518  0.3556
16273PP      PP26377   3.681  13.338   2.664  0.1611 -0.0630  0.0249
16274PP      PP26378   6.805   4.794  11.656 -0.0884  0.1525 -0.0537
16275PP      PP26379  11.391   9.126   0.677 -0.0112 -0.0996  0.2274
16276PP      PP26380   5.101   8.414   0.468  0.1739  0.1675  0.0630
16277PP      PP26381   5.608   1.903   9.705  0.0514  0.3868  0.1062
16278PP      PP26382  10.704  11.789   3.076  0.1102 -0.0056 -0.1236
16279PP      PP26383  11.205   4.159   2.914  0.0611 -0.1090  0.1405
16280PP      PP26384  10.554   8.033   9.311 -0.0577  0.1558  0.2035
16281PP      PP26385  12.039  11.732   0.217  0.0021 -0.1246 -0.3283
16282PP      PP26386   7.003   3.859  11.849  0.1046  0.2306  0.1404
16283PP      PP26387  11.544   5.842   7.873 -0.2023 -0.1216  0.2030
16284PP      PP26388  14.000   7.664   8.200  0.0522 -0.4036 -0.4999
16285PP      PP26389   7.167   5.970   0.527 -0.1704 -0.1706 -0.4006
16286PP      PP26390   1.462   1.997   9.084 -0.0332 -0.3988  0.2751
16287PP      PP26391   2.884  14.573  10.060  0.2915  0.0307  0.1109
16288PP      PP26392   8.022   5.701   9.281  0.1088  0.2848  0.2814
16289PP      PP26393   7.828  13.031  12.493 -0.0794  0.1836  0.3974
16290PP      PP26394   4.482  10.456   8.762  0.0719  0.0593  0.1455
16291PP      PP26395  11.764   3.786   2.350  0.1428 -0.1311 -0.1333
16292PP      PP26396   2.628   3.388   1.317  0.1249  0.0632 -0.1039
16293PP      PP26397   5.646  12.213   8.868 -0.1973  0.3451  0.2894
16294PP      PP26398   5.491  15.552  12.383  0.0356  0.1993 -0.2622
16295PP      PP26399   9.646  16.133   0.227 -0.0758 -0.3751  0.2800
16296PP      PP26400   2.211   5.595   9.463  0.1785 -0.4290 -0.0723
16297PP      PP26401   9.909   4.975   8.740  0.0754 -0.0415 -0.0759
16298PP      PP26402   9.555   5.910   1.832 -0.1251 -0.1471 -0.0424
16299PP      PP26403  11.168  15.958  10.298 -0.1050  0.1158  0.4003
16300PP      PP26404   7.316  15.588   3.862 -0.0572  0.0280 -0.1479
16301PP      PP26405   1.768  13.786  11.810  0.2498 -0.1308 -0.1110
16302PP      PP26406  13.079   3.188  10.856 -0.0785  0.0294  0.2226
16303PP      PP26407  12.421   5.313  11.872  0.0149  0.0051 -0.1601
16304PP      PP26408  11.850   3.594   1.833 -0.2067 -0.1591  0.0484
16305PP      PP26409   8.899   3.432  10.835 -0.1585 -0.1449 -0.1502
16306PP      PP26410  15.779   8.146  12.479 -0.5683 -0.0974 -0.2433
16307PP      PP26411   7.651   2.913   2.496  0.0464 -0.2020 -0.1793
16308PP      PP26412   6.544  11.712   9.478  0.0719 -0.0787 -0.2422
16309PP      PP26413   1.210   2.689   8.623 -0.3453 -0.0280 -0.5689
16310PP      PP26414   5.421   1.681   0.649 -0.5087  0.1169 -0.1634
16311PP      PP26415   2.823   7.610  12.729 -0.3015  0.0416 -0.1216
16312PP      PP26416  14.580  15.462   9.248  0.0075  0.0601  0.0270
16313PP      PP26417   9.491  15.117   0.927 -0.3019 -0.0703  0.0573
16314PP      PP26418  13.121   4.085  10.171 -0.0133  0.1897 -0.3173
16315PP      PP26419  13.577  10.865   0.360 -0.0345  0.4880  0.0592
16316PP      PP26420  15.925   4.873   2.106 -0.2158 -0.0689  0.0733
16317PP      PP26421   1.510   7.597   8.001  0.3016  0.0901  0.2720
16318PP      PP26422  14.199   5.589   8.814 -0.3445  0.1419 -0.0610
16319PP      PP26423  13.495   0.121   2.371 -0.0807 -0.0982  0.1816
16320PP      PP26424  14.181  13.355   2.158 -0.2685  0.0506  0.0747
16321PP      PP26425   5.642   0.593   2.778  0.0160 -0.0371  0.0895
16322PP      PP26426  14.700   3.085  10.257  0.3994 -0.0914 -0.3255
16323PP      PP26427   3.057   7.166  10.500  0.2003  0.2093  0.0764
16324PP      PP26428  12.625   0.752   2.928  0.2203 -0.0249  0.0579
16325PP      PP26429  15.216   8.327  12.419 -0.0717  0.1723  0.1861
16326PP      PP26430  14.527   4.997  10.771 -0.2774  0.2681  0.2362
16327PP      PP26431   4.003  14.513   1.756 -0.0498  0.0730  0.2148
16328PP      PP26432  10.867   4.453   0.135 -0.0490  0.1974 -0.0770
16329PP      PP26433  12.283   9.491   1.196 -0.0412 -0.1991 -0.0180
16330PP      PP26434   8.970   8.375  11.477 -0.1443 -0.0093  0.0997
16331PP      PP26435   7.752   0.332   8.437  0.0253  0.0627 -0.2110
16332PP      PP26436   4.261   0.022   9.305  0.0792 -0.0832  0.3547
16333PP      PP26437   7.412   4.311   2.648  0.0995 -0.0286  0.0472
16334PP      PP26438  13.678   2.031   3.496 -0.6138  0.0982 -0.1857
16335PP      PP26439  13.033  13.364   4.147  0.4021 -0.0267  0.0015
16336PP      PP26440  14.941   5.249  10.970  0.1843 -0.2199  0.0632
16337PP      PP26441  13.276   3.698   3.395 -0.0225 -0.0627  0.0967
16338PP      PP26442  11.892  14.149  11.052 -0.1540 -0.2464 -0.1810
16339PP      PP26443   6.554   9.576   8.911 -0.0762  0.1770  0.0372
16340PP      PP26444   7.763   0.983  11.724 -0.1329  0.0553 -0.1208
16341PP      PP26445   0.422  13.835   2.663  0.0696 -0.1762  0.0863
16342PP      PP26446  14.890   2.657  11.320  0.2478  0.1977 -0.2827
16343PP      PP26447  12.086   5.898   0.275  0.2223  0.2152  0.1312
16344PP      PP26448  16.164  10.363   2.633  0.0011 -0.0712 -0.2347
16345PP      PP26449  16.184   3.567  11.871 -0.0286  0.0402 -0.2146
16346PP      PP26450   4.385   5.912   3.155 -0.0318  0.0439  0.0183
16347PP      PP26451  15.920  10.751   3.913  0.1177  0.2216 -0.0482
16348PP      PP26452   9.387   7.762  11.044  0.1289 -0.1205 -0.2216
16349PP      PP26453   2.622  11.447  10.959  0.1451 -0.1978  0.2238
16350PP      PP26454   3.396   8.824   8.982 -0.1573 -0.1612 -0.3145
16351PP      PP26455   7.430  15.670   3.191  0.0881 -0.0916  0.0891
16352PP      PP26456   3.322   7.791  12.592 -0.0636 -0.3054 -0.2222
16353PP      PP26457  15.770   1.468  10.285  0.0753 -0.0156  0.3997
16354PP      PP26458  15.843   5.365   3.301  0.0975 -0.2524 -0.0718
16355PP      PP26459   5.987   8.928   0.762 -0.1917  0.2390 -0.0139
16356PP      PP26460   6.413   0.684  11.198 -0.5194 -0.2399  0.0285
16357PP      PP26461   5.674   6.207   3.042 -0.0740  0.0905 -0.0253
16358PP      PP26462   7.320   1.189  12.609 -0.1923  0.0604 -0.0328
16359PP      PP26463  13.565  15.620   0.140  0.1899  0.0653  0.2467
16360PP      PP26464   1.086  14.288   0.456 -0.0917 -0.1867  0.1032
16361PP      PP26465   6.218   8.654  12.692 -0.0356 -0.0774  0.2049
16362PP      PP26466   3.464   1.501   4.387  0.0291 -0.1098 -0.0492
16363PP      PP26467   9.722   3.503  12.700  0.1521  0.0074 -0.0683
16364PP      PP26468  12.638  13.457   1.648  0.0827 -0.2951 -0.1325
16365PP      PP26469   3.276  10.641  10.200  0.2114 -0.1230  0.4482
16366PP      PP26470   4.921   3.974   1.123 -0.1114  0.1277  0.0043
16367PP      PP26471  16.285  12.257  11.927 -0.3670 -0.2123 -0.4486
16368PP      PP26472  14.516   5.948   0.876 -0.3833 -0.0074 -0.1862
16369PP      PP26473  16.229   8.114   7.821 -0.0034 -0.1343 -0.0063
16370PP      PP26474  11.008  12.860   3.456 -0.0868  0.1590 -0.4336
16371PP      PP26475   9.614   6.853   3.330 -0.2444 -0.1420 -0.0975
16372PP      PP26476   3.590   6.919   2.469  0.2540  0.2721  0.3593
16373PP      PP26477  12.527   9.180   3.468  0.0605 -0.1126  0.2798
16374PP      PP26478   0.212   9.154  10.820 -0.1631  0.0316 -0.1360
16375PP      PP26479   6.743   0.218  11.809  0.0806 -0.0692  0.2935
16376PP      PP26480   7.303  12.337   4.263 -0.0161  0.2084 -0.1347
16377PP      PP26481   9.428   9.323   2.776 -0.1302  0.2049  0.4464
16378PP      PP26482  13.781   8.160   1.461  0.2020  0.2683  0.1619
16379PP      PP26483   7.018   0.145   0.123  0.0172 -0.1636  0.0600
16380PP      PP26484   1.543  10.858   0.730 -0.1403  0.1462 -0.0521
16381PP      PP26485   2.532  16.164   2.460 -0.2503 -0.3201  0.2178
16382PP      PP26486   5.124   4.582  10.187  0.2073  0.1718  0.1305
16383PP      PP26487   8.715   7.655   2.979  0.3002  0.0603  0.3080
16384PP      PP26488   7.666   9.961  10.674 -0.1508 -0.2100  0.1475
16385PP      PP26489   2.091   6.291   0.436 -0.0748  0.0843 -0.0082
16386PP      PP26490  15.923  11.332   1.340  0.1902  0.0279 -0.2648
16387PP      PP26491   0.891   5.078  12.751 -0.0313  0.1524  0.2089
16388PP      PP26492  11.132   8.671   2.942  0.2182 -0.1134  0.2246
16389PP      PP26493  14.444  15.494   3.245  0.0178 -0.2998 -0.0045
16390PP      PP26494  10.397  16.067   1.148 -0.0989 -0.2192 -0.0359
16391PP      PP26495   3.898   7.260   9.090 -0.1705  0.1393 -0.1338
16392PP      PP26496   0.975  15.020   8.697  0.2079  0.0819  0.0900
16393PP      PP26497   0.006   6.731   3.273 -0.1673  0.1352 -0.0621
16394PP      PP26498   2.307  14.189   0.328 -0.0267  0.1521 -0.2102
16395PP      PP26499   9.645   0.357   9.086  0.1548  0.0813 -0.2305
16396PP      PP26500   0.883  15.757   3.156 -0.0641 -0.0336  0.2358
16397PP      PP26501  13.101   7.533   8.398  0.0336  0.1239  0.2675
16398PP      PP26502   7.187   9.681   1.173  0.0016 -0.0436 -0.1143
16399PP      PP26503   3.894  13.815   9.417  0.1050 -0.0698  0.1789
16400PP      PP26504   1.437  16.281  11.369  0.1520  0.1235  0.2316
16401PP      PP26505   5.015  14.169   3.347 -0.0686  0.1459 -0.3246
16402PP      PP26506   9.819   6.225   2.701 -0.3389  0.0533 -0.0563
16403PP      PP26507   3.083   8.000   0.463 -0.2200  0.1130  0.1288
16404PP      PP26508  14.913  13.694   3.712  0.2407 -0.0741  0.1544
16405PP      PP26509   9.301   7.713   8.821  0.0579 -0.1641 -0.2812
16406PP      PP26510   3.833   3.708  11.005 -0.0508  0.1911  0.1648
16407PP      PP26511   0.796   9.780   1.374  0.0978 -0.1390 -0.0412
16408PP      PP26512  16.231   0.066   2.530  0.0738 -0.0366  0.0872
16409PP      PP26513   9.931  15.031  11.759 -0.0605  0.0908 -0.0515
16410PP      PP26514   4.825  13.223   0.593  0.0525 -0.0995 -0.0305
16411PP      PP26515  13.438   4.247   3.818 -0.2374  0.0560 -0.0932
16412PP      PP26516   3.693  14.595   9.890  0.1322 -0.2408 -0.1543
16413PP      PP26517  14.767   2.312   9.834 -0.1690 -0.0887  0.0116
16414PP      PP26518   3.722  14.330   3.182 -0.3019  0.4861  0.3211
16415PP      PP26519  11.903   8.386   9.828  0.0567  0.4532  0.4758
16416PP      PP26520   6.190   4.500   9.053 -0.1833 -0.1656  0.1547
16417PP      PP26521   6.983   2.550   9.337 -0.1004 -0.0876  0.2712
16418PP      PP26522   6.694   6.176   9.442  0.0245  0.2025 -0.0478
16419PP      PP26523   5.268   1.753  10.711 -0.1588 -0.1486  0.1271
16420PP      PP26524  11.821  15.100  11.770 -0.0454 -0.1592  0.1378
16421PP      PP26525  14.202   0.629   3.486  0.1621  0.1894  0.2445
16422PP      PP26526  10.903   8.794  12.554 -0.1666  0.0413  0.1960
16423PP      PP26527  15.128   7.110   9.527  0.1190 -0.0223 -0.1849
16424PP      PP26528   6.379   1.688  10.152  0.0570 -0.3711  0.5331
16425PP      PP26529   8.724  14.629   3.550 -0.0864  0.1423  0.1282
16426PP      PP26530   9.024   5.011   1.381 -0.2234 -0.1233 -0.1172
16427PP      PP26531   4.674   0.297  11.405 -0.0048 -0.0091  0.1033
16428PP      PP26532   3.135   4.390   8.716 -0.0168 -0.0437  0.0819
16429PP      PP26533   8.890   9.223   9.168 -0.0305 -0.3460 -0.4606
16430PP      PP26534   5.085   4.913  10.660 -0.0356  0.0598 -0.0787
16431PP      PP26535   0.100  16.032   2.259 -0.0144  0.0798 -0.0951
16432PP      PP26536   7.498   1.582   3.212  0.3627  0.0122  0.3088
16433PP      PP26537   9.394  12.919   2.339  0.0923  0.2142  0.0188
16434PP      PP26538  10.661   9.718   1.954 -0.1301 -0.0284  0.1701
16435PP      PP26539  14.033   5.742  10.807  0.1269  0.2294 -0.4676
16436PP      PP26540   7.277  13.771  10.735 -0.3065 -0.2272  0.0330
16437PP      PP26541   5.370   3.607   1.104 -0.0362  0.0725  0.1829
16438PP      PP26542   1.729  15.065   8.532  0.0978  0.0635  0.3368
16439PP      PP26543   6.124  16.207  10.210  0.0436 -0.0500  0.1764
16440PP      PP26544   9.476   8.940   1.528  0.0142 -0.2741  0.2274
16441PP      PP26545   1.346   5.271   9.082  0.0233 -0.1797 -0.2543
16442PP      PP26546   9.224   1.595   4.282  0.0102 -0.1933  0.1939
16443PP      PP26547   1.067  15.161   0.565  0.0990  0.0185  0.1669
16444PP      PP26548   3.833  12.838   8.270 -0.0697  0.1461  0.0886
16445PP      PP26549  15.507   7.598   9.678  0.0659  0.1215 -0.1663
16446PP      PP26550   8.622   5.104   9.192  0.1026 -0.3508  0.1703
16447PP      PP26551   8.538   1.089  11.243 -0.0126  0.1108 -0.0060
16448PP      PP26552   7.461   0.667   3.035 -0.0935 -0.1623 -0.2513
16449PP      PP26553   3.641   1.297   9.093 -0.1787  0.0012  0.0046
16450PP      PP26554   6.409   2.667   3.418  0.0266 -0.0360  0.0181
16451PP      PP26555   6.423   7.053  10.695 -0.0604 -0.0144  0.1874
16452PP      PP26556  11.148  11.862   3.756 -0.2169 -0.1052  0.1389
16453PP      PP26557   5.557   9.707   1.190  0.1698  0.2726 -0.2667
16454PP      PP26558   5.579   6.795   3.153 -0.1175 -0.0302 -0.2148
16455PP      PP26559   9.362   8.361   9.638 -0.0985  0.1240  0.2930
16456PP      PP26560  12.914  12.481  11.758  0.1076  0.1318  0.0062
16457PP      PP26561   9.195  16.272   0.437  0.2687  0.0244  0.1570
16458PP      PP26562   1.651   1.543  10.848  0.1739  0.0546  0.3910
16459PP      PP26563   7.119  16.171   3.544  0.1577 -0.2137 -0.1523
16460PP      PP26564  14.069   7.573  10.220 -0.2843  0.2229  0.2879
16461PP      PP26565   1.972   7.692   8.116 -0.1947  0.1024 -0.0356
16462PP      PP26566  13.078   1.556  10.007  0.1437  0.1535 -0.0882
16463PP      PP26567  11.517   5.095  10.223  0.0817  0.0675  0.2492
16464PP      PP26568   4.737   0.655   9.942 -0.2597  0.0310 -0.2128
16465PP      PP26569   2.241  14.693  12.116 -0.0878 -0.3486 -0.2839
16466PP      PP26570  14.672  12.577  10.935 -0.0317 -0.1454 -0.1659
16467PP      PP26571   9.525   3.802   0.974  0.0333  0.2758  0.3487
16468PP      PP26572   5.880  12.770   8.864 -0.4407 -0.1146  0.0618
16469PP      PP26573   3.391   9.022  10.287  0.1389 -0.0303 -0.1279
16470PP      PP26574   2.330   8.652  12.118  0.0528  0.0264  0.1990
16471PP      PP26575   6.112  13.088  11.382 -0.2013 -0.1495 -0.4665
16472PP      PP26576   0.006   4.560   2.063 -0.2229 -0.1426  0.1258
16473PP      PP26577  13.350   3.250   9.679 -0.1968 -0.3691  0.1076
16474PP      PP26578   8.833   7.512   0.640 -0.1987 -0.3441  0.1556
16475PP      PP26579   8.456   1.078  12.759  0.1488  0.0210 -0.2069
16476PP      PP26580  12.890   7.316   3.268 -0.1340 -0.2034 -0.0077
16477PP      PP26581   7.821  11.790   9.943 -0.3486 -0.2000 -0.1166
16478PP      PP26582   2.346  12.928  12.625 -0.1387 -0.0237  0.2031
16479PP      PP26583   6.158  13.708  10.564  0.0125 -0.0335  0.1047
16480PP      PP26584   7.358   8.382   0.689  0.3117 -0.0282  0.0230
16481PP      PP26585   5.796   6.984   3.580 -0.2154  0.1054 -0.2649
16482PP      PP26586   9.558   2.205   3.671  0.2287 -0.0336 -0.0186
16483PP      PP26587  16.064   4.034   2.207 -0.1778 -0.2997  0.1669
16484PP      PP26588   3.934  16.353   1.407  0.1167  0.1094  0.0264
16485PP      PP26589   2.695  12.582   8.572  0.1834 -0.1950 -0.0026
16486PP      PP26590   5.276  11.697   0.373 -0.0660 -0.3494  0.0187
16487PP      PP26591  12.270   4.863   2.517 -0.0389  0.1334  0.0033
16488PP      PP26592   8.962  13.253  11.218 -0.1680 -0.2454 -0.0259
16489PP      PP26593  13.387  16.217   8.430 -0.0176 -0.0083  0.0258
16490PP      PP26594   6.626  11.901  10.998  0.0934 -0.0234 -0.1703
16491PP      PP26595   1.894   3.034   9.225 -0.0005 -0.0801 -0.2769
16492PP      PP26596   3.572   6.062  10.708  0.1906 -0.0617 -0.3387
16493PP      PP26597  12.001   4.389   2.668 -0.1414  0.0305  0.1853
16494PP      PP26598  15.673   7.680   8.254 -0.0051 -0.1123  0.0140
16495PP      PP26599   5.225  10.169   9.312 -0.1311 -0.0903  0.0130
16496PP      PP26600  14.888   5.063   1.063 -0.1492  0.0153 -0.4105
16497PP      PP26601  14.878  14.258   3.642 -0.1519 -0.1017 -0.1567
16498PP      PP26602   9.651   6.888   9.485 -0.3658  0.0911 -0.0285
16499PP      PP26603  11.131   1.468  10.676  0.1665  0.0533 -0.2870
16500PP      PP26604   5.429  13.181  11.060  0.2198  0.2061  0.1958
16501PP      PP26605  14.424  10.403  11.503 -0.3052 -0.0052 -0.2890
16502PP      PP26606   4.905   7.597   7.739  0.2961 -0.2508  0.1133
16503PP      PP26607  16.310  12.405  10.340  0.1506  0.1569 -0.1559
16504PP      PP26608   0.062   4.821   7.972  0.0166 -0.1103  0.0905
16505PP      PP26609   7.936   3.223   0.601 -0.1293  0.1376  0.0613
16506PP      PP26610  10.215   9.793   0.008  0.2971 -0.0275  0.1589
16507PP      PP26611   1.435   5.226  10.361 -0.4723 -0.1100  0.0187
16508PP      PP26612  16.165  14.557   2.009  0.4247  0.2915  0.0830
16509PP      PP26613   2.553  15.792   2.954  0.0587 -0.0025  0.3985
16510PP      PP26614   2.492  14.018  10.192 -0.0863 -0.2753 -0.0292
16511PP      PP26615   0.172   8.642   3.048  0.0943  0.0551  0.4332
16512PP      PP26616   4.688  14.452   0.733  0.2980  0.0874 -0.3004
16513PP      PP26617   6.631  10.741   8.329 -0.1525  0.1686  0.0920
16514PP      PP26618   3.623   3.120   4.419  0.2744  0.0354  0.4837
16515PP      PP26619  13.570   6.764   4.044 -0.1784 -0.1850 -0.1392
16516PP      PP26620   4.797   8.401   2.453  0.2899  0.1015  0.2938
16517PP      PP26621   8.448  14.408   2.245 -0.0297  0.3067  0.0238
16518PP      PP26622   0.164   3.900   0.041 -0.3157 -0.3936  0.1873
16519PP      PP26623  10.373  12.147  10.063  0.0088 -0.1806  0.0421
16520PP      PP26624   2.872   1.918   8.866  0.0900 -0.1580 -0.0824
16521PP      PP26625  15.468  15.317   4.044 -0.0768 -0.0639  0.1650
16522PP      PP26626   0.772   1.079   1.531  0.1455 -0.2452 -0.0812
16523PP      PP26627  15.532  12.167   9.686 -0.1162 -0.2522 -0.3444
16524PP      PP26628   0.208   9.707   0.728  0.0259 -0.0167 -0.3803
16525PP      PP26629  14.657   9.908   8.704  0.1932 -0.3562 -0.4966
16526PP      PP26630   0.155   7.339   1.428 -0.0608 -0.2807 -0.0234
16527PP      PP26631   9.228   3.679   0.616 -0.1346 -0.1604  0.1847
16528PP      PP26632   8.642  10.171  12.108 -0.0505 -0.0611  0.0873
16529PP      PP26633   0.311  10.980  11.169 -0.3018 -0.1902 -0.2971
16530PP      PP26634   2.828  10.484   3.039 -0.2084 -0.2180 -0.3209
16531PP      PP26635   9.092  12.406   4.221  0.0473  0.2404 -0.2393
16532PP      PP26636   5.491   5.083  12.320 -0.1938 -0.2069  0.1629
16533PP      PP26637   9.949   3.920  11.125 -0.1226 -0.1744 -0.1876
16534PP      PP26638   3.198   0.205  10.303 -0.3931  0.0269 -0.0509
16535PP      PP26639   0.765   6.922   3.014  0.3624 -0.1504 -0.0034
16536PP      PP26640  13.139   5.341   9.663  0.0621 -0.1029  0.1571
16537PP      PP26641  13.512  15.301  12.528  0.0604 -0.3200  0.4052
16538PP      PP26642   0.323   1.122  12.105  0.3156  0.1366  0.0343
16539PP      PP26643   8.580   7.023   0.003 -0.1049  0.2049 -0.4231
16540PP      PP26644  13.743  14.627   2.723  0.1400 -0.0107 -0.1443
16541PP      PP26645   5.385   4.507   9.181  0.0721 -0.1940 -0.0890
16542PP      PP26646   0.492   3.090   3.125 -0.0152  0.3020 -0.1150
16543PP      PP26647   7.846   5.421   3.791 -0.1057  0.0484 -0.2266
16544PP      PP26648  12.038   4.436   1.166 -0.1174  0.0657 -0.3617
16545PP      PP26649  12.572   9.208   8.942 -0.2481  0.1634 -0.2086
16546PP      PP26650   1.571   9.515   8.819  0.2320  0.0359 -0.0553
16547PP      PP26651   6.060   3.166   8.528 -0.2041  0.0848 -0.1819
16548PP      PP26652   8.355   3.657   1.229  0.1236  0.2959 -0.1272
16549PP      PP26653  14.135  12.714   3.435  0.0148  0.1188 -0.0115
16550PP      PP26654  15.559   3.264   9.899  0.0511 -0.3387  0.0217
16551PP      PP26655   4.595  11.308   2.717  0.1233  0.1667 -0.0855
16552PP      PP26656   5.233   6.413   2.868  0.1686 -0.4527 -0.0701
16553PP      PP26657   0.189  14.050   9.262  0.3046  0.0991  0.0470
16554PP      PP26658  13.670   6.493   0.646 -0.4558 -0.3899 -0.2288
16555PP      PP26659  10.986  15.012   9.736  0.0507  0.0537 -0.1452
16556PP      PP26660   8.217  13.465  10.942  0.0503  0.1782 -0.0547
16557PP      PP26661   7.193   8.599  12.358 -0.1450  0.1446  0.0287
16558PP      PP26662   8.027  14.573  10.387  0.3147  0.2745  0.3532
16559PP      PP26663   8.535  12.646   0.031 -0.0040 -0.1706  0.2893
16560PP      PP26664  16.251   7.808   1.510 -0.0117 -0.2945 -0.1379
16561PP      PP26665   7.268  11.497   1.102 -0.2096  0.0013 -0.0178
16562PP      PP26666   4.852   5.249  11.385 -0.2339 -0.1012  0.3830
16563PP      PP26667   2.903   6.091  10.954  0.1695  0.0009 -0.1381
16564PP      PP26668   3.153  10.802   8.590  0.1660 -0.0364 -0.0930
16565PP      PP26669  15.045   6.741   2.089 -0.0295  0.3485 -0.2936
16566PP      PP26670   0.796   4.311   4.123  0.0421  0.2202  0.1397
16567PP      PP26671  11.010   7.737   3.920  0.0573  0.1142  0.0179
16568PP      PP26672  13.161  11.888  10.522  0.0710 -0.2153 -0.1219
16569PP      PP26673   8.145   7.348   1.965  0.1025  0.0081  0.0512
16570PP      PP26674  15.450   2.556   1.496  0.1098 -0.2034  0.0301
16571PP      PP26675   0.515   4.473  10.555 -0.2157 -0.1543 -0.2340
16572PP      PP26676   6.830   1.761   3.697 -0.2534 -0.1694  0.2014
16573PP      PP26677  13.991  12.109   2.224 -0.3158 -0.0500 -0.2040
16574PP      PP26678   7.603   6.005   3.749  0.2009  0.0313  0.3478
16575PP      PP26679  12.850   9.139  12.596 -0.0983 -0.0510  0.2896
16576PP      PP26680   2.132  10.456   7.819  0.0581 -0.2069 -0.2896
16577PP      PP26681   7.176   9.608   3.133  0.0276 -0.0280  0.0324
16578PP      PP26682   1.026  11.534  10.772 -0.0797 -0.3668 -0.0604
16579PP      PP26683   7.411   9.207   3.259  0.0899 -0.1019  0.2839
16580PP      PP26684   4.064  13.097   3.451  0.0539  0.1323  0.1234
16581PP      PP26685   2.838  12.448   1.465  0.0313 -0.2422  0.0700
16582PP      PP26686   8.362  14.872   2.590  0.2351 -0.1127 -0.1148
16583PP      PP26687   6.083  11.912   9.362  0.1050  0.1451 -0.1317
16584PP      PP26688   4.121  10.501  12.748 -0.1957 -0.0239 -0.0712
16585PP      PP26689   9.030   6.368  10.186  0.2373  0.1268  0.1806
16586PP      PP26690   1.845   2.555   0.901  0.1175  0.0319 -0.1549
16587PP      PP26691  11.272   7.027   0.014 -0.0167  0.3100 -0.3807
16588PP      PP26692   4.687  11.418   8.820 -0.2817  0.0315 -0.2384
16589PP      PP26693  13.457   1.527  11.641  0.0701 -0.0135  0.2551
16590PP      PP26694  13.163   8.984   8.093 -0.0267  0.0705  0.3420
16591PP      PP26695   7.663   8.720   8.508 -0.3645 -0.2877 -0.0673
16592PP      PP26696   8.114   8.316   2.368 -0.2195 -0.2322 -0.1126
16593PP      PP26697   2.171  12.551  10.916  0.1274  0.0573 -0.5060
16594PP      PP26698   1.607  11.958   9.056 -0.2561 -0.2209  0.0433
16595PP      PP26699   9.026  13.269   2.513 -0.0215  0.3578 -0.0604
16596PP      PP26700  12.058   0.607  11.607 -0.1492  0.0741  0.1514
16597PP      PP26701  14.712   8.885   1.477 -0.0993  0.3396 -0.1218
16598PP      PP26702  11.094   3.782  10.025  0.2975 -0.0362 -0.0770
16599PP      PP26703   3.006  12.802   8.276  0.4115 -0.2561 -0.1744
16600PP      PP26704  10.192   7.976   1.295 -0.2453  0.0939  0.3317
16601PP      PP26705   5.819   0.779   2.335  0.0854 -0.2631 -0.1934
16602PP      PP26706  16.010   7.183   2.663  0.1137 -0.0279  0.4398
16603PP      PP26707  13.440   4.569   2.929 -0.0437  0.1319 -0.0170
16604PP      PP26708   0.677   7.131   9.207  0.0969 -0.2773 -0.1765
16605PP      PP26709   7.086  15.040   9.633 -0.2574  0.1970 -0.0433
16606PP      PP26710   3.344   2.344   9.700 -0.2097  0.0858  0.1818
16607PP      PP26711   9.986   3.811   2.363 -0.1074  0.2366 -0.0676
16608PP      PP26712   2.556  14.955  10.110 -0.2493 -0.0467  0.4130
16609PP      PP26713   6.882   4.477  12.155 -0.0573 -0.0602  0.0053
16610PP      PP26714   6.360   9.316   9.325 -0.2364  0.0727  0.1014
16611PP      PP26715  15.090  14.389  12.021  0.0525 -0.1213 -0.0491
16612PP      PP26716  14.040  12.655   0.774  0.0802 -0.2098  0.0592
16613PP      PP26717   5.835   9.077  12.531  0.1119 -0.2243 -0.0288
16614PP      PP26718   8.362  10.690   2.704  0.1537 -0.0832  0.2184
16615PP      PP26719   4.461  10.167  11.629 -0.1829 -0.1321  0.0433
16616PP      PP26720   0.749  11.969  11.442  0.2504  0.0874 -0.0812
16617PP      PP26721   3.035   4.913   0.378 -0.0673  0.1681 -0.0439
16618PP      PP26722  10.711   2.598   0.468  0.1024 -0.1752  0.1421
16619PP      PP26723   2.325  15.755   0.997 -0.0104 -0.0033  0.0043
16620PP      PP26724   0.672  12.534  10.749 -0.2477 -0.0468  0.0068
16621PP      PP26725   4.558   7.045  10.582 -0.2930 -0.1022  0.0646
16622PP      PP26726   7.851   5.694   3.341  0.3059 -0.0443 -0.2037
16623PP      PP26727   0.341   0.143   9.490 -0.0175 -0.1066  0.3920
16624PP      PP26728   1.149   9.293   8.760 -0.0912 -0.0464  0.4069
16625PP      PP26729   4.306   4.342  12.320  0.0722 -0.1726  0.1876
16626PP      PP26730   0.038   0.958  10.757  0.4074 -0.2921 -0.2482
16627PP      PP26731   8.364  16.181  12.649  0.1355 -0.0087  0.0698
16628PP      PP26732  14.185  14.007   2.318 -0.2995 -0.1238  0.1891
16629PP      PP26733  10.681   4.939   7.800 -0.3000 -0.3370  0.1674
16630PP      PP26734   1.821   1.129  11.179 -0.0755  0.1500 -0.3745
16631PP      PP26735  13.597   0.804   9.182  0.3103  0.1815 -0.2145
16632PP      PP26736  10.474   9.472  12.574  0.0040 -0.0118  0.0654
16633PP      PP26737  10.789   6.080   8.648 -0.2135  0.1724 -0.2133
16634PP      PP26738  10.439   4.799   0.930  0.3415 -0.1863 -0.1791
16635PP      PP26739   6.976  14.510   3.720  0.0925 -0.0183  0.0854
16636PP      PP26740   7.184  13.620   1.056  0.3108 -0.2839 -0.1335
16637PP      PP26741   5.019  13.786  12.343 -0.0365 -0.1549 -0.0631
16638PP      PP26742   3.349   7.504   2.863 -0.4229  0.2407  0.2967
16639PP      PP26743   0.611   3.700  12.263 -0.3098  0.1059  0.1317
16640PP      PP26744  13.995   4.421  11.258  0.1402 -0.2350 -0.4410
16641PP      PP26745  14.940  12.913   0.787  0.1394  0.3443  0.0403
16642PP      PP26746   4.718   1.428   9.619  0.1359  0.0297  0.0250
16643PP      PP26747   6.165   2.019  10.592 -0.1699 -0.2593  0.1521
16644PP      PP26748  11.287   3.287   1.662  0.1524 -0.1331 -0.0952
16645PP      PP26749   6.798  12.830  11.724  0.0674 -0.0461 -0.2808
16646PP      PP26750  12.935  11.996   0.249  0.0929 -0.1449 -0.4603
16647PP      PP26751   4.469   1.462   2.149  0.0553 -0.0970  0.2517
16648PP      PP26752  11.951   3.874   0.231 -0.1256  0.1907 -0.0002
16649PP      PP26753   0.034   6.003   9.246 -0.1121  0.1783 -0.0411
16650PP      PP26754   4.157   9.398   2.756 -0.3943  0.1308 -0.0181
16651PP      PP26755   3.697   9.297   9.163  0.2110  0.1110  0.0481
16652PP      PP26756   8.155  11.299  10.720 -0.2005  0.3695 -0.0037
16653PP      PP26757  14.166   2.280   8.448  0.0544  0.0708 -0.3065
16654PP      PP26758   7.699   7.262  10.597 -0.0244  0.3757  0.2059
16655PP      PP26759  14.039   7.314   2.759 -0.0326  0.2353  0.0332
16656PP      PP26760   9.876  10.879   9.431  0.0871  0.1328 -0.0275
16657PP      PP26761   9.317   9.183   3.332  0.0325 -0.0074  0.1134
16658PP      PP26762  11.652   9.544   0.222 -0.3369  0.2814 -0.0346
16659PP      PP26763   4.698  11.190  11.185 -0.1292  0.1447  0.0414
16660PP      PP26764   1.177   2.412   3.479 -0.1521  0.2448  0.0073
16661PP      PP26765   3.281   6.263   7.953 -0.1012  0.3827 -0.0708
16662PP      PP26766  11.094   7.034   3.285 -0.1408 -0.1506  0.0796
16663PP      PP26767   1.201   1.568   4.518  0.2828 -0.1932  0.2002
16664PP      PP26768  11.993  15.756   0.426  0.1336  0.0306  0.1581
16665PP      PP26769   6.210   1.436   9.208 -0.0904 -0.0688  0.1264
16666PP      PP26770  10.817   8.519   9.050  0.2581  0.2577  0.0015
16667PP      PP26771  13.624   3.666   8.948  0.0865 -0.2495  0.0634
16668PP      PP26772   8.358  11.104  10.251 -0.0878  0.1722  0.1897
16669PP      PP26773   1.726   5.654   9.578  0.2228  0.3133 -0.0701
16670PP      PP26774  10.321  13.260  10.225  0.0234 -0.1966  0.0471
16671PP      PP26775  10.736  10.425  11.459  0.0105 -0.1487 -0.2257
16672PP      PP26776   7.432  14.815   2.731 -0.0092 -0.1805 -0.0985
16673PP      PP26777   2.467  11.168  10.055 -0.0742  0.1147 -0.2636
16674PP      PP26778   8.742  13.532   3.639  0.1325  0.0814  0.2531
16675PP      PP26779   8.239  13.362   4.623  0.0503  0.3683 -0.0463
16676PP      PP26780   1.047  14.213   3.367 -0.0681  0.1180 -0.0418
16677PP      PP26781   7.130   9.810   9.729  0.0612  0.1545 -0.0699
16678PP      PP26782  11.855  10.433   0.582  0.4581  0.3650 -0.1368
16679PP      PP26783  14.050   5.507   4.328 -0.1399 -0.3350  0.1715
16680PP      PP26784  11.772   0.817   1.181  0.2641  0.1710  0.0660
16681PP      PP26785  15.953   2.409   0.316  0.2435 -0.1327  0.2296
16682PP      PP26786  13.695   6.281   3.146  0.1614 -0.3224 -0.2460
16683PP      PP26787   1.028   9.683  10.961 -0.0948 -0.0316 -0.0044
16684PP      PP26788   5.898   2.727   2.368 -0.0657 -0.1582  0.3426
16685PP      PP26789  15.423   8.018   0.803 -0.2079 -0.3284  0.0976
16686PP      PP26790   6.962   8.670   1.053  0.0104  0.4571 -0.1927
16687PP      PP26791   8.268   0.506   1.050 -0.1421  0.0842  0.1078
16688PP      PP26792   3.018   9.681   8.626 -0.0607 -0.1260 -0.0300
16689PP      PP26793   5.108   8.092   2.938 -0.0137  0.0585 -0.1009
16690PP      PP26794  11.558  10.808   2.884 -0.2777 -0.0166 -0.0800
16691PP      PP26795   2.160  13.373   3.443 -0.2546  0.0791  0.3197
16692PP      PP26796   5.958   5.177   3.873 -0.0873  0.1379  0.1445
16693PP      PP26797   1.176  13.991   4.229  0.0349 -0.0689 -0.4112
16694PP      PP26798   8.066  15.682  12.512 -0.0746 -0.1748 -0.0703
16695PP      PP26799   0.248  15.483   1.243  0.2131  0.4089 -0.1799
16696PP      PP26800  15.736  15.784  11.952  0.1865 -0.0493 -0.1429
16697PP      PP26801  13.862   9.880   9.360  0.0570 -0.1209  0.2489
16698PP      PP26802   4.318  13.568   1.510 -0.1089 -0.2301  0.2381
16699PP      PP26803   4.005   1.952   8.583 -0.0033  0.0895  0.2202
16700PP      PP26804   7.870  10.091   2.116 -0.0941  0.1482 -0.1406
16701PP      PP26805   6.678   6.527   0.648 -0.2163 -0.1174  0.4176
16702PP      PP26806   7.273   7.150   0.096 -0.0398 -0.1921 -0.0907
16703PP      PP26807  13.059   0.086   0.233 -0.4674 -0.2364  0.0731
16704PP      PP26808  11.898  14.407   1.341  0.1719 -0.2910  0.2988
16705PP      PP26809   5.914   7.485   8.263 -0.2034  0.0053 -0.0702
16706PP      PP26810   5.903  11.079  11.022 -0.2151 -0.0152  0.1530
16707PP      PP26811  11.743   8.379  11.334  0.0372 -0.1250  0.0750
16708PP      PP26812   0.479   2.313  12.355 -0.2354  0.0315  0.0325
16709PP      PP26813   3.751  10.502   9.478 -0.1817 -0.1422 -0.1894
16710PP      PP26814   9.395   4.449   3.710 -0.0003  0.0716 -0.0844
16711PP      PP26815  14.023  10.671   0.047  0.0418 -0.0400 -0.1451
16712PP      PP26816   6.121   0.884   1.291  0.1727  0.0679 -0.3628
16713PP      PP26817   7.122   1.792   1.326 -0.0682 -0.2099 -0.1126
16714PP      PP26818   8.458   5.583  10.328  0.1526 -0.0116 -0.0373
16715PP      PP26819  13.842  12.808   0.054 -0.1460  0.1920  0.1594
16716PP      PP26820  14.466   4.533  11.075  0.1757 -0.3370  0.0743
16717PP      PP26821  13.922   5.306  12.442 -0.0585 -0.2190  0.0584
16718PP      PP26822  13.348   1.755   4.291  0.0951  0.0444 -0.0662
16719PP      PP26823  11.713  12.672   3.107 -0.2522  0.1156 -0.1197
16720PP      PP26824  13.337   1.059  11.880 -0.1929  0.1650 -0.0968
16721PP      PP26825  16.137  14.959   2.991  0.0463  0.0232  0.0275
16722PP      PP26826  13.028   8.078   8.319  0.0433  0.1451  0.0031
16723PP      PP26827   0.261   0.237   0.940 -0.0491  0.3770 -0.0040
16724PP      PP26828   5.750   0.150   3.016  0.0128 -0.0609  0.1745
16725PP      PP26829   3.716  16.144   4.751  0.1563 -0.1904  0.2145
16726PP      PP26830   7.014  15.038   2.477  0.3262 -0.0577 -0.0998
16727PP      PP26831   8.393   7.949  11.018  0.0888  0.0590  0.0113
16728PP      PP26832  13.698  13.988  11.787  0.0578 -0.4978  0.0254
16729PP      PP26833  12.286  12.915  10.114  0.0014 -0.1427  0.3160
16730PP      PP26834  11.854   4.991   0.465  0.0569  0.2934  0.3074
16731PP      PP26835  13.474  11.626  10.854  0.2489  0.4402 -0.3547
16732PP      PP26836   2.616   7.278   1.024  0.0926 -0.0167  0.2756
16733PP      PP26837  10.287   0.854  12.305 -0.0540  0.0651  0.0330
16734PP      PP26838  10.871  12.847   9.695 -0.0398 -0.1959 -0.2836
16735PP      PP26839   4.247   3.548   2.532  0.1339  0.0222 -0.2003
16736PP      PP26840   2.414  10.661  10.758  0.1862 -0.1500 -0.3350
16737PP      PP26841   9.789   3.829   1.740  0.0425  0.2773  0.2348
16738PP      PP26842  13.138  14.273  11.486 -0.0866  0.3035  0.1628
16739PP      PP26843   7.403   0.206   9.215  0.3158  0.2052 -0.0202
16740PP      PP26844  15.925  13.612   2.694 -0.0914 -0.1560  0.3449
16741PP      PP26845   5.794   6.451   3.501  0.1760 -0.1090  0.2697
16742PP      PP26846  13.636   3.654   2.201 -0.4087 -0.0445 -0.1353
16743PP      PP26847  13.985  11.684   1.976 -0.2229  0.1931 -0.2787
16744PP      PP26848  14.483   7.612   1.092  0.3535  0.1328 -0.0548
16745PP      PP26849  16.191  13.381   0.650 -0.0130  0.1832  0.2956
16746PP      PP26850   2.273   0.972   3.344  0.1007 -0.2516 -0.2885
16747PP      PP26851  15.782   2.840  10.233  0.2093 -0.2377 -0.0366
16748PP      PP26852  11.489  11.944  10.994 -0.0977 -0.2247 -0.0157
16749PP      PP26853  13.808  14.182  12.601  0.0690 -0.0882  0.2226
16750PP      PP26854  12.308  10.097   2.820  0.0143  0.1377  0.4084
16751PP      PP26855  10.978   2.923  10.743 -0.2072  0.1258  0.1301
16752PP      PP26856   2.831   8.599  12.624  0.2395 -0.1583  0.1254
16753PP      PP26857   1.560   3.708  11.027 -0.4061 -0.1116  0.0742
16754PP      PP26858   8.347   8.210   1.341  0.1940  0.1821 -0.1767
16755PP      PP26859   6.181   5.940  12.671  0.1065  0.0295 -0.1623
16756PP      PP26860   0.208  13.381   3.524 -0.1121 -0.0865 -0.2599
16757PP      PP26861   1.654   7.972   0.581  0.0239  0.0199  0.2188
16758PP      PP26862   1.855   5.962   2.958 -0.1809 -0.0331 -0.1020
16759PP      PP26863   2.030  12.299   1.115 -0.4707 -0.2146  0.1633
16760PP      PP26864  13.146  14.635  10.795  0.1191  0.0731 -0.0078
16761PP      PP26865  16.199  12.611   3.952  0.0636  0.2345 -0.0460
16762PP      PP26866   3.987   9.557   9.860  0.1330 -0.0412  0.0492
16763PP      PP26867   0.614   4.952  10.768 -0.2869  0.1335 -0.0658
16764PP      PP26868   7.020  15.527   2.377 -0.0552  0.2009  0.0518
16765PP      PP26869  13.582   0.047  12.137  0.2182 -0.0437  0.1154
16766PP      PP26870   8.183  13.633   2.018  0.0102 -0.2159 -0.0726
16767PP      PP26871   9.012  12.217  12.279  0.0642 -0.0392 -0.1122
16768PP      PP26872  14.775   4.542   1.126 -0.1322 -0.2954  0.2215
16769PP      PP26873  12.324  11.099   3.546  0.2960  0.0734 -0.3242
16770PP      PP26874   3.552  11.400   7.961  0.0437 -0.0720  0.1551
16771PP      PP26875  15.031  10.030  12.403  0.1610 -0.0505  0.0816
16772PP      PP26876  11.899  10.873  10.820  0.2961  0.1605  0.1284
16773PP      PP26877  10.646   9.571   2.735 -0.0012  0.2867 -0.1756
16774PP      PP26878  13.780   9.506   9.687  0.2422 -0.0581 -0.1985
16775PP      PP26879   9.195   9.684  12.039  0.0146 -0.2249  0.1320
16776PP      PP26880  10.882   8.290   3.588  0.1585  0.0774 -0.1753
16777PP      PP26881   2.228   9.624   1.665 -0.0658 -0.3239 -0.4329
16778PP      PP26882  14.024  12.159  11.778 -0.0496  0.1308 -0.2519
16779PP      PP26883   2.845   3.163   1.780  0.2441 -0.0164 -0.0474
16780PP      PP26884  11.193  11.296   1.241 -0.1775  0.2035  0.1368
16781PP      PP26885   7.666  15.224  11.831 -0.1535 -0.0464 -0.1663
16782PP      PP26886   8.800   7.071   3.845 -0.3321 -0.2408  0.0839
16783PP      PP26887  16.061   1.946   0.666 -0.2104  0.1646  0.2213
16784PP      PP26888  15.278  14.836   0.135 -0.3692 -0.3148 -0.1814
16785PP      PP26889   5.151  11.822   9.365 -0.1468 -0.4066  0.0171
16786PP      PP26890  13.363  13.757  10.178  0.1140  0.1111  0.0257
16787PP      PP26891   9.495   4.567   2.052  0.3008  0.2547 -0.0289
16788PP      PP26892  11.713   7.437   8.692  0.2772 -0.1375 -0.2083
16789PP      PP26893   4.866   9.289   9.197 -0.1712  0.0798 -0.1711
16790PP      PP26894   0.044  13.208   9.684 -0.0031 -0.3946  0.0521
16791PP      PP26895   4.725   9.974  12.332 -0.1684 -0.0049 -0.0665
16792PP      PP26896  11.799  15.703   3.549 -0.1894 -0.2171  0.1440
16793PP      PP26897   8.375  11.477   0.648  0.0131  0.0978 -0.2323
16794PP      PP26898   6.017  14.999   8.718 -0.2016  0.0742  0.1044
16795PP      PP26899   8.101   8.783   2.059  0.0889  0.0830  0.2294
16796PP      PP26900   2.483   3.516  11.333 -0.0151 -0.2014 -0.2388
16797PP      PP26901   5.473  15.257   9.585 -0.0983 -0.0640 -0.4896
16798PP      PP26902   7.170   5.224   3.289  0.2154  0.4480  0.0753
16799PP      PP26903   8.659   5.143   3.792 -0.0676  0.2306  0.2199
16800PP      PP26904   4.152   4.140  11.909 -0.0119 -0.0927 -0.3129
16801PP      PP26905   8.541  12.163   0.046 -0.1585 -0.1289 -0.1807
16802PP      PP26906   4.898   1.686  11.967  0.0946  0.1113 -0.0196
16803PP      PP26907   0.976  11.865   4.272 -0.2429 -0.1508  0.2029
16804PP      PP26908  12.846   6.789   2.360 -0.0637  0.1226  0.2451
16805PP      PP26909   2.227  11.773   2.370  0.2721 -0.0649  0.0521
16806PP      PP26910   4.613   6.739   1.755  0.2196  0.1650  0.1194
16807PP      PP26911  12.534  15.697  11.544 -0.3501 -0.0877  0.1479
16808PP      PP26912   9.112   3.039   3.237  0.1583 -0.4807  0.2413
16809PP      PP26913   4.388  11.600   3.163 -0.0033  0.1025  0.2133
16810PP      PP26914   2.939   9.634  11.313 -0.3098  0.0039 -0.0609
16811PP      PP26915   2.116  10.753   9.184 -0.1103 -0.3052  0.3505
16812PP      PP26916   6.726   9.272   1.973  0.1243  0.0690  0.0509
16813PP      PP26917  10.233   9.232   1.821 -0.0428 -0.1493 -0.1480
16814PP      PP26918   2.000   3.976   8.847  0.1793  0.0445  0.0192
16815PP      PP26919  15.368   9.806   3.473 -0.1395 -0.0941  0.1406
16816PP      PP26920  12.302  14.779   0.415  0.0741  0.3055  0.4526
16817PP      PP26921   0.175   3.219   1.991  0.0340 -0.2661 -0.2486
16818PP      PP26922  13.494  11.408  12.545  0.0303  0.1113  0.0172
16819PP      PP26923  15.183  14.308   2.445  0.0710  0.1521 -0.1979
16820PP      PP26924   1.571   9.773  11.499  0.1781  0.0109  0.1096
16821PP      PP26925   4.761  10.880   8.557  0.1938 -0.2186 -0.0982
16822PP      PP26926   4.085   5.823  10.058 -0.0602  0.0770 -0.1636
16823PP      PP26927   3.970  11.732   1.579 -0.0138  0.1483 -0.1685
16824PP      PP26928   8.222   9.251   1.611  0.0246 -0.0569  0.2947
16825PP      PP26929   3.881   5.237   0.046  0.0615  0.1033 -0.1010
16826PP      PP26930   3.766  13.040   1.716  0.0629  0.2598  0.1165
16827PP      PP26931   2.242   6.789   0.245  0.0063  0.3033  0.1105
16828PP      PP26932  15.044   7.118   0.682 -0.1798  0.2044  0.2932
16829PP      PP26933  16.017  11.692   2.227  0.1563 -0.1288  0.0954
16830PP      PP26934  10.547   6.749   1.516 -0.1907  0.1239  0.1748
16831PP      PP26935   4.932   8.439  10.540  0.1183 -0.1725  0.1679
16832PP      PP26936   7.497   3.835   8.272 -0.2708 -0.0679  0.1197
16833PP      PP26937   9.772   9.065  12.356  0.0469 -0.0656 -0.2708
16834PP      PP26938  14.997  11.984  12.090  0.1869  0.1312 -0.2051
16835PP      PP26939   5.193  14.156   2.193  0.0048  0.2292 -0.0961
16836PP      PP26940   2.890  13.854   8.069  0.0336 -0.1189 -0.1280
16837PP      PP26941   9.162   0.322   0.881  0.0120 -0.4571  0.0154
16838PP      PP26942  14.254  14.574   2.900 -0.0744 -0.1139 -0.1151
16839PP      PP26943  15.887   9.594   8.006 -0.0378 -0.0510  0.1883
16840PP      PP26944   1.947  12.749  11.604  0.2333  0.0225  0.0520
16841PP      PP26945  11.225   1.501   9.054 -0.1111  0.4130 -0.1963
16842PP      PP26946   4.971  16.011   1.970 -0.0601 -0.1973  0.1372
16843PP      PP26947   2.490  11.015   2.612 -0.2982  0.0569 -0.1748
16844PP      PP26948   0.624   1.091   3.323 -0.1182 -0.0595  0.0714
16845PP      PP26949  16.015   0.709  12.683  0.1390 -0.0410 -0.1301
16846PP      PP26950   0.884   8.516   0.726  0.0699 -0.0749  0.2799
16847PP      PP26951  13.074   3.841   3.975  0.1601  0.0372  0.0771
16848PP      PP26952   8.837   9.835   1.955  0.0012  0.1706 -0.1446
16849PP      PP26953   9.580  13.520  12.094  0.0074 -0.0738  0.7059
16850PP      PP26954  14.863  12.565   4.155 -0.0792 -0.0599  0.1824
16851PP      PP26955  14.514  12.459   1.543 -0.2260  0.4289  0.0201
16852PP      PP26956   0.948  11.391   9.275 -0.2573  0.3196 -0.2399
16853PP      PP26957   1.110   0.628   4.479  0.1145  0.0687  0.0768
16854PP      PP26958   9.260   8.892   3.913 -0.1967  0.0140 -0.0103
16855PP      PP26959  15.850   6.677   4.183 -0.0222 -0.0602 -0.0160
16856PP      PP26960  16.115   9.509   3.803  0.0596  0.0725 -0.2087
16857PP      PP26961   8.297   8.491   9.026 -0.3218  0.0810 -0.2274
16858PP      PP26962   2.201   6.407   3.661 -0.1152  0.0378  0.0710
16859PP      PP26963   8.404  10.621   0.869  0.0984 -0.2818  0.0727
16860PP      PP26964   3.727   5.837   9.213 -0.2071  0.0155 -0.1019
16861PP      PP26965   6.837   9.820   0.305 -0.1610 -0.0069  0.1526
16862PP      PP26966  15.820  13.508   1.151 -0.0442  0.0563  0.1888
16863PP      PP26967   4.044  12.186  12.489 -0.0476 -0.1068  0.0602
16864PP      PP26968   7.206   4.522  10.825  0.0801  0.1644  0.1131
16865PP      PP26969  13.318  12.522   0.859  0.0122 -0.0148  0.4528
16866PP      PP26970   2.215  15.567   2.031 -0.0227 -0.1984 -0.0164
16867PP      PP26971   8.214  11.881   1.560  0.0741 -0.0505 -0.1098
16868PP      PP26972   2.227   2.920   2.997  0.0901 -0.0821 -0.0087
16869PP      PP26973  12.147   8.994  12.566  0.0659 -0.1980  0.1744
16870PP      PP26974   0.943  14.372   2.860  0.1520  0.0080  0.0441
16871PP      PP26975   4.099  10.158   9.275  0.1650 -0.2475  0.1958
16872PP      PP26976   7.596   9.920  11.576  0.2412  0.1759 -0.0640
16873PP      PP26977   6.230   4.352  11.033 -0.2716 -0.0729 -0.0092
16874PP      PP26978   5.749   1.123   3.934  0.1496 -0.2226 -0.3402
16875PP      PP26979   1.096  14.715  10.132 -0.0049  0.0224 -0.1098
16876PP      PP26980  13.348   9.688   2.111 -0.0387 -0.1467  0.1229
16877PP      PP26981   2.582   5.972   0.859 -0.0906 -0.1465  0.0351
16878PP      PP26982   7.079   3.623  10.989  0.1274 -0.2995 -0.2810
16879PP      PP26983  16.013   0.313   9.622  0.1010  0.3041  0.0406
16880PP      PP26984   3.612   8.452  11.380 -0.1088 -0.0663 -0.1545
16881PP      PP26985   5.871   2.962   3.849  0.0568  0.0852 -0.0167
16882PP      PP26986  15.586  10.682  12.534  0.1005 -0.0296  0.1314
16883PP      PP26987  12.762  10.702   9.945 -0.0193 -0.1403  0.0981
16884PP      PP26988   4.455   5.162  12.305 -0.3804 -0.3687 -0.2632
16885PP      PP26989  15.506  12.609  11.904  0.0170 -0.0110 -0.1244
16886PP      PP26990   6.464  13.716   2.909  0.1739  0.0789 -0.0730
16887PP      PP26991  10.138   7.617   3.311  0.0751 -0.0259 -0.1006
16888PP      PP26992  15.489  10.395   3.285 -0.0722 -0.1444 -0.1255
16889PP      PP26993  11.283   3.087   3.909 -0.0765 -0.4286  0.1611
16890PP      PP26994  13.902  13.999   1.434 -0.2399 -0.1148 -0.3651
16891PP      PP26995   9.855  16.244   0.717  0.0213  0.3712  0.1867
16892PP      PP26996  10.564   6.815   3.353 -0.3157 -0.0284 -0.3641
16893PP      PP26997   6.994   5.805   2.043 -0.1366 -0.2301 -0.0084
16894PP      PP26998  14.930   1.248  11.630  0.2457 -0.4200  0.2155
16895PP      PP26999   0.430   7.739   2.500  0.0554  0.2234  0.2561
16896PP      PP27000   4.930   3.723  12.036 -0.1798  0.0727  0.1067
16897PP      PP27001  10.726   0.094  11.073 -0.1059 -0.0215  0.1314
16898PP      PP27002   6.577   9.031   8.976  0.2136  0.0396 -0.0344
16899PP      PP27003  15.736   0.519   3.997  0.2439 -0.1179 -0.4906
16900PP      PP27004  11.212  13.002  11.459  0.0564 -0.2309  0.0260
16901PP      PP27005   5.162  11.287   2.685 -0.2040 -0.2007 -0.3535
16902PP      PP27006  15.727  12.931  10.256  0.5062  0.0250 -0.2972
16903PP      PP27007  10.809   1.496   1.830 -0.2686  0.1004 -0.0659
16904PP      PP27008  14.615   7.139  10.810  0.0195 -0.2919 -0.0805
16905PP      PP27009  13.090  10.995  11.438  0.1231  0.0575 -0.0851
16906PP      PP27010   5.706  11.151  10.142  0.4017 -0.1295 -0.3327
16907PP      PP27011   5.151   7.941   1.956 -0.2764  0.0698  0.0452
16908PP      PP27012  10.465   7.869  11.334 -0.0404  0.2384 -0.1104
16909PP      PP27013  16.347  14.076   2.846  0.1827  0.3038  0.0822
16910PP      PP27014   5.505   5.979   8.107  0.1186  0.1536 -0.0272
16911PP      PP27015   9.583  14.662  10.769  0.0139  0.0431  0.0184
16912PP      PP27016  12.894  11.450  11.119  0.4341 -0.1373  0.0824
16913PP      PP27017  12.053  15.042  10.940 -0.1719  0.1870  0.1990
16914PP      PP27018  11.956   2.796   9.762  0.0458 -0.2387 -0.1859
16915PP      PP27019  13.509  10.157   3.924  0.3164 -0.1985 -0.2008
16916PP      PP27020   3.530  12.634   1.346 -0.0067 -0.0857 -0.1340
16917PP      PP27021  11.825  12.137  11.649 -0.1750 -0.3233 -0.0028
16918PP      PP27022   6.437  12.452   8.950  0.0784  0.1569  0.2709
16919PP      PP27023   3.287  13.863   8.423 -0.3421 -0.1338 -0.0341
16920PP      PP27024   2.618   5.446   0.147  0.1630 -0.0597 -0.0272
16921PP      PP27025   6.117   8.389   1.912 -0.3813 -0.0094  0.0752
16922PP      PP27026  15.385   1.981   1.590  0.0052 -0.1522  0.0047
16923PP      PP27027   0.653   7.708   8.639 -0.0751 -0.0035  0.3049
16924PP      PP27028   2.529   3.148  11.795 -0.3573 -0.0093  0.1303
16925PP      PP27029   1.350   6.561   0.828  0.1672  0.3268  0.3006
16926PP      PP27030   8.512   2.316  11.965  0.1430  0.2324 -0.2141
16927PP      PP27031  16.082  13.777   0.346 -0.2387  0.1449 -0.2055
16928PP      PP27032  15.586  15.774  11.524 -0.0514  0.0088  0.0077
16929PP      PP27033   4.325   3.175   3.882  0.0256 -0.1646  0.0918
16930PP      PP27034   1.063   7.213   3.956  0.1629 -0.1906  0.0512
16931PP      PP27035   5.066  10.050   2.504  0.1037  0.0036 -0.1789
16932PP      PP27036  11.660  12.486   1.465  0.1292 -0.2481 -0.1204
16933PP      PP27037   5.163   2.479   3.863  0.1756  0.0604 -0.3178
16934PP      PP27038  10.313  14.205  11.928  0.0572  0.0146 -0.1296
16935PP      PP27039   6.290   2.725   8.781  0.0377  0.1019  0.2264
16936PP      PP27040   9.065   4.129   4.001  0.1112  0.1591 -0.0773
16937PP      PP27041   9.308  14.860   8.802 -0.2797  0.3787 -0.3661
16938PP      PP27042  14.565   3.178   9.771 -0.1866 -0.0622  0.1124
16939PP      PP27043   7.052   7.622  11.335  0.1285 -0.2557 -0.0109
16940PP      PP27044  15.333   3.022   3.967  0.0840  0.0015 -0.0155
16941PP      PP27045   3.542   1.162   9.612 -0.2246 -0.1883 -0.0827
16942PP      PP27046   2.571   4.358   9.344  0.1904  0.1230 -0.1566
16943PP      PP27047  12.285   8.167  10.771  0.0923  0.1694  0.2611
16944PP      PP27048   6.305  16.274  11.774 -0.0103  0.2039  0.4528
16945PP      PP27049   2.299   6.158   1.550 -0.1887 -0.1569  0.0348
16946PP      PP27050   7.572  11.389   4.518  0.0601 -0.2574  0.1092
16947PP      PP27051  14.978   5.884   3.478 -0.1879  0.1213  0.1344
16948PP      PP27052  12.691   9.966   0.596 -0.2844  0.1045  0.1614
16949PP      PP27053   8.579  14.118   9.302  0.1261 -0.0602  0.3488
16950PP      PP27054   0.901  10.909   2.342  0.2319  0.0033 -0.1034
16951PP      PP27055  15.353   3.789   3.857 -0.3332 -0.0637  0.0900
16952PP      PP27056   7.999  10.079  11.348  0.3714  0.2152 -0.3772
16953PP      PP27057   5.657  13.960   2.421 -0.1360  0.1066 -0.1422
16954PP      PP27058   8.586   5.706   8.966  0.0110 -0.1570  0.2336
16955PP      PP27059  15.420  11.501  10.719  0.1559  0.0490  0.1330
16956PP      PP27060   8.131   7.948   9.892 -0.1531 -0.0579 -0.1862
16957PP      PP27061  10.575   7.710   0.101 -0.3446  0.0096 -0.0617
16958PP      PP27062   9.004  13.758   0.569 -0.1196  0.3949  0.1813
16959PP      PP27063  10.704   6.252  11.146 -0.2131 -0.2505  0.0173
16960PP      PP27064   4.577   6.920   8.240 -0.0379  0.3643 -0.0548
16961PP      PP27065  13.440  15.994   0.422 -0.1377 -0.2784  0.3764
16962PP      PP27066  14.506   2.251   0.728  0.0130 -0.0727 -0.2710
16963PP      PP27067   7.181  13.138  11.005  0.0286  0.0535 -0.0899
16964PP      PP27068   3.587   6.402   0.271 -0.0706 -0.3154 -0.0945
16965PP      PP27069   6.837   5.680   9.453 -0.2236  0.3386  0.0958
16966PP      PP27070  15.692  11.793   1.502 -0.1276 -0.0085 -0.0567
16967PP      PP27071   4.178   4.022   1.721  0.0157  0.0421  0.1179
16968PP      PP27072  10.282   7.101   9.516 -0.1831 -0.0033  0.3966
16969PP      PP27073  15.198   3.815   1.858  0.1934  0.2819  0.4016
16970PP      PP27074  13.397  11.880   9.974  0.1588  0.1781 -0.2836
16971PP      PP27075   9.206   4.277   2.977 -0.3630  0.0937  0.1393
16972PP      PP27076   6.629   7.586  11.563 -0.2458  0.0683 -0.1006
16973PP      PP27077   0.124  14.554  11.555 -0.2750 -0.0066 -0.3292
16974PP      PP27078   8.242  10.183   3.610  0.1573  0.3565 -0.4099
16975PP      PP27079   2.289   9.915  10.295  0.3117 -0.3582  0.0454
16976PP      PP27080   1.945   5.385   4.249 -0.0947 -0.2716  0.0180
16977PP      PP27081  12.912   3.457   0.044 -0.4723 -0.2364 -0.0887
16978PP      PP27082   2.126   5.838   8.657 -0.3220  0.2727 -0.2790
16979PP      PP27083  11.303   1.139   1.364  0.1254  0.1025  0.4455
16980PP      PP27084   1.333  14.485   2.561 -0.0915  0.2145 -0.0789
16981PP      PP27085   6.054   8.855  10.450 -0.0732  0.4127  0.0820
16982PP      PP27086   3.815  12.490   9.987  0.3944  0.3498 -0.2193
16983PP      PP27087  15.934  16.106  11.585 -0.2157  0.2128 -0.1990
16984PP      PP27088   1.726   5.452   1.544  0.1746  0.0006  0.0562
16985PP      PP27089   1.986  12.722   0.261  0.2146 -0.0391 -0.0857
16986PP      PP27090  13.974   5.321   1.274  0.3140  0.1151 -0.1581
16987PP      PP27091   9.247   7.833   0.512  0.0216  0.1246  0.0479
16988PP      PP27092   2.877   2.622  11.779  0.3542 -0.0621  0.0275
16989PP      PP27093   8.508  11.719   2.012 -0.3735 -0.0443 -0.2096
16990PP      PP27094  12.765  11.812   2.867 -0.1404 -0.3351  0.0184
16991PP      PP27095  10.809   0.899  11.498  0.0945  0.1748 -0.0706
16992PP      PP27096  12.037  13.443  12.373 -0.2980  0.1760 -0.0105
16993PP      PP27097  11.182   0.518   3.763  0.0772 -0.1343 -0.0394
16994PP      PP27098   7.035   9.365  11.877  0.1534  0.2622  0.1425
16995PP      PP27099   9.851  10.914   9.997  0.2078  0.2523 -0.0945
16996PP      PP27100  11.875   9.143  10.364 -0.1047 -0.0188 -0.3059
16997PP      PP27101   5.918  15.251   1.225 -0.1301 -0.0362 -0.0240
16998PP      PP27102  13.751  15.366   9.018 -0.2844  0.0081 -0.2452
16999PP      PP27103   6.333   4.080  10.539 -0.1860 -0.0537  0.2037
17000PP      PP27104  14.854   4.472   2.530  0.1388  0.2037  0.2587
17001PP      PP27105  15.972   5.950  11.370 -0.0255  0.1788  0.1623
17002PP      PP27106   4.784   3.037   8.594  0.1232 -0.1407  0.4843
17003PP      PP27107   3.704  10.555   7.262  0.1642 -0.1217 -0.2987
17004PP      PP27108   8.205   5.256   9.359  0.3589  0.2674  0.2186
17005PP      PP27109  10.866   9.047   0.205  0.1816 -0.0921  0.0825
17006PP      PP27110  16.198   8.219   9.606  0.2436 -0.1153 -0.6269
17007PP      PP27111   9.289   8.862  10.454 -0.1066 -0.0363 -0.0415
17008PP      PP27112   4.992  16.338  11.086 -0.0998  0.1555 -0.0563
17009PP      PP27113  10.193   1.690   0.009  0.2937  0.1155  0.2301
17010PP      PP27114   6.410   9.667  10.850  0.2517  0.1562  0.3127
17011PP      PP27115   1.579   2.211   1.224  0.2309  0.3904 -0.0082
17012PP      PP27116  14.938  12.768  10.094  0.0244  0.0785  0.2598
17013PP      PP27117  11.200  11.474   9.941  0.1529  0.1380 -0.1333
17014PP      PP27118  11.884   4.720  10.907 -0.1546 -0.3148 -0.2005
17015PP      PP27119   9.595  12.177  11.556 -0.2648 -0.2561 -0.0961
17016PP      PP27120  15.355   0.747   3.785 -0.0422 -0.1429 -0.0079
17017PP      PP27121   3.755  10.487   0.543 -0.1216 -0.0698 -0.3742
17018PP      PP27122  16.203   2.276  11.780 -0.1433  0.1843  0.0317
17019PP      PP27123   3.479  13.385   1.345  0.0536  0.0687  0.1365
17020PP      PP27124   1.115   6.460   2.091  0.1428  0.2181 -0.1625
17021PP      PP27125  15.826   2.774   3.982 -0.0446  0.0558 -0.0883
17022PP      PP27126  13.141   4.272   9.700  0.2295 -0.0852 -0.0635
17023PP      PP27127  12.335   7.313   7.852 -0.1305  0.1794  0.0380
17024PP      PP27128   5.097   5.713   8.998 -0.1497  0.0149 -0.1745
17025PP      PP27129   5.385   4.031   1.544  0.1595  0.0396  0.0949
17026PP      PP27130   8.885  11.842  12.727 -0.3309 -0.0407  0.3033
17027PP      PP27131  14.912   9.249   0.831  0.0743  0.0560  0.0561
17028PP      PP27132   7.506   2.016  11.888  0.0907 -0.2006  0.0435
17029PP      PP27133  14.002  13.085  10.064 -0.1303 -0.0687  0.0067
17030PP      PP27134   5.452   8.056   9.682  0.2450 -0.0834 -0.0513
17031PP      PP27135   1.353  11.529  12.181  0.4552  0.1908  0.2498
17032PP      PP27136   7.398   5.700   2.446 -0.0683 -0.1196 -0.0593
17033PP      PP27137  14.907  11.564   9.801  0.2675 -0.3645  0.1424
17034PP      PP27138   7.395  13.634   0.349 -0.2123  0.1454  0.0304
17035PP      PP27139  10.294   1.400   0.910 -0.0943 -0.0986  0.0246
17036PP      PP27140   8.116   9.095  11.001 -0.1356 -0.1118 -0.0586
17037PP      PP27141  14.728   0.945   0.287 -0.1068 -0.0792  0.1807
17038PP      PP27142   8.421  13.570  11.576  0.1479 -0.2385  0.1696
17039PP      PP27143   9.961   7.687   8.847 -0.0948 -0.0453  0.0805
17040PP      PP27144  15.970  10.351   3.597  0.4013 -0.0038  0.0029
17041PP      PP27145  14.009   6.296   2.167  0.0596  0.0575  0.2906
17042PP      PP27146  11.789   5.647   2.942  0.2776  0.1337 -0.1046
17043PP      PP27147  12.273  14.316   2.646 -0.2263  0.2379  0.0958
17044PP      PP27148   5.659  10.459  10.177  0.0701 -0.0370  0.1527
17045PP      PP27149   4.841  10.813  11.989  0.1057 -0.0177 -0.1594
17046PP      PP27150  13.333   2.460   3.414  0.1765  0.0115  0.0860
17047PP      PP27151   5.748   4.631   8.807 -0.2984  0.2403  0.1380
17048PP      PP27152   5.776   9.174   1.793 -0.1981 -0.2622 -0.2839
17049PP      PP27153   7.190  10.527   8.621 -0.0676 -0.3155 -0.1451
17050PP      PP27154   9.316   3.392   1.093 -0.2551  0.3005  0.0896
17051PP      PP27155   1.398  14.223  11.717 -0.1147 -0.0603 -0.0040
17052PP      PP27156   9.813   0.062   1.704  0.0651 -0.1135 -0.1240
17053PP      PP27157   7.675  12.805   0.764 -0.2340  0.0733  0.1684
17054PP      PP27158   9.466  13.849   4.064  0.1628  0.0767 -0.2906
17055PP      PP27159   9.837   6.555   0.778 -0.1144  0.0116  0.0282
17056PP      PP27160   6.629   1.978   2.019 -0.2781  0.2921  0.0704
17057PP      PP27161   7.138  11.849  10.582 -0.0200  0.1737  0.0778
17058PP      PP27162   0.357   6.172   0.869 -0.0945  0.0838 -0.1161
17059PP      PP27163   9.340   7.236   0.788 -0.1427 -0.3489 -0.1174
17060PP      PP27164   9.686   1.755   8.823  0.1656 -0.1374  0.0731
17061PP      PP27165  12.153   1.192   3.941  0.0464 -0.1606 -0.1398
17062PP      PP27166   9.208  12.838  10.557  0.0766  0.0611 -0.2120
17063PP      PP27167   9.124  12.047   4.815 -0.0596 -0.2874  0.1069
17064PP      PP27168   0.177   9.129   0.594  0.0956 -0.0462 -0.0699
17065PP      PP27169   7.170   6.736   2.415  0.2217 -0.1864 -0.0994
17066PP      PP27170   7.754   9.069  10.564  0.0780 -0.1982  0.3745
17067PP      PP27171   7.023   7.634   2.687  0.0651 -0.2806  0.0945
17068PP      PP27172   4.621   4.428  10.178  0.0964  0.0585 -0.2843
17069PP      PP27173  10.291  10.723  10.177  0.0801 -0.1015 -0.2355
17070PP      PP27174  13.093  15.206  12.146  0.1449 -0.1018 -0.1088
17071PP      PP27175   0.089  12.933   2.614 -0.0909 -0.0055 -0.0765
17072PP      PP27176  16.052   7.645   0.131  0.2651  0.0751 -0.1370
17073PP      PP27177  12.491   9.460  12.336  0.1266 -0.0387 -0.1125
17074PP      PP27178  11.593   5.779   1.150  0.2396  0.2296 -0.1212
17075PP      PP27179   5.974   0.350   9.259  0.0024  0.0649 -0.0668
17076PP      PP27180   8.996   0.041   1.776 -0.0118 -0.0093  0.0729
17077PP      PP27181   9.708   4.692   1.477 -0.0204 -0.3606  0.1533
17078PP      PP27182   2.153   0.201   4.116  0.0480  0.0351  0.0305
17079PP      PP27183   3.701  13.523   8.330 -0.0208 -0.1856  0.0789
17080PP      PP27184   0.089   8.255   1.189 -0.0720 -0.0694 -0.0304
17081PP      PP27185  13.384   8.642   2.417 -0.0095 -0.0728 -0.1993
17082PP      PP27186   8.904  10.497   0.300 -0.1757 -0.0482  0.1700
17083PP      PP27187   4.661   3.853   2.579 -0.2648 -0.2272 -0.0610
17084PP      PP27188   3.427  11.755   9.459 -0.2983  0.2250  0.1822
17085PP      PP27189   6.741   6.513   1.951 -0.0284 -0.0449 -0.1032
17086PP      PP27190   2.638   9.882   3.508  0.0748 -0.0737 -0.2068
17087PP      PP27191   1.369  14.195   9.485 -0.1655 -0.1140 -0.1896
17088PP      PP27192  14.833  10.243   0.702  0.3720 -0.1749  0.2010
17089PP      PP27193   1.887  15.511   9.232 -0.0978 -0.3218  0.2970
17090PP      PP27194   1.946  11.958   1.821 -0.1637 -0.1686 -0.2059
17091PP      PP27195   8.600   4.339   3.754 -0.2384  0.2046  0.1610
17092PP      PP27196   9.723  14.041   3.552  0.0736  0.2470  0.0735
17093PP      PP27197   8.077   4.265   8.956 -0.0818  0.1323  0.0973
17094PP      PP27198   9.604   7.654   0.860  0.0896 -0.1624  0.0376
17095PP      PP27199  11.286   3.812   8.887  0.0066  0.2207 -0.1139
17096PP      PP27200   9.981   0.603   4.037 -0.1752  0.0564 -0.2261
17097PP      PP27201  11.310  14.981   1.989  0.0308  0.0512  0.0050
17098PP      PP27202   4.456  13.568  11.597  0.1888 -0.0015  0.0071
17099PP      PP27203   1.178   0.243   0.551  0.0265 -0.2212 -0.0384
17100PP      PP27204   9.454   0.931   1.968  0.2092 -0.1165 -0.1022
17101PP      PP27205   9.260  14.410   2.274  0.0249  0.0848  0.3854
17102PP      PP27206   2.457   3.725   3.458 -0.1241  0.4689  0.1494
17103PP      PP27207  14.656  11.992   1.533 -0.0728 -0.0964  0.0335
17104PP      PP27208   3.659   4.636   1.053 -0.0364 -0.0050 -0.1010
17105PP      PP27209   8.850  10.269  10.615 -0.4142 -0.1767 -0.2128
17106PP      PP27210   1.468   7.041   0.563  0.1614 -0.2678  0.0057
17107PP      PP27211   5.839   3.858  10.349  0.2039  0.0425 -0.5269
17108PP      PP27212  10.044  10.044   2.777 -0.1637 -0.2197 -0.0780
17109PP      PP27213   3.793   5.392   3.306 -0.0675  0.0511 -0.2358
17110PP      PP27214  11.174   5.139   9.135 -0.2545 -0.1591  0.1181
17111PP      PP27215   5.389  10.307   9.770  0.0227  0.0069 -0.0027
17112PP      PP27216  13.428   7.364   9.312 -0.2094  0.1138  0.2299
17113PP      PP27217   0.726   5.706  11.948 -0.0901 -0.2776  0.2816
17114PP      PP27218  14.422   1.818   9.006  0.1115  0.0592  0.3276
17115PP      PP27219  13.284   4.781   8.421 -0.0926 -0.3232 -0.0523
17116PP      PP27220   8.688   2.782   0.763  0.0799 -0.2092 -0.1747
17117PP      PP27221   2.547   7.809   1.137  0.2038  0.1695 -0.2210
17118PP      PP27222  11.160   8.328   8.701  0.0965  0.0825 -0.1820
17119PP      PP27223   0.820   4.778  10.290 -0.1832 -0.1768 -0.0098
17120PP      PP27224   2.595  10.886   3.210  0.1238 -0.2065  0.0113
17121PP      PP27225   1.408   6.910  10.903  0.3483 -0.0294 -0.0678
17122PP      PP27226   0.940  13.951   2.551  0.2163  0.1919  0.1886
17123PP      PP27227   2.756   3.304   7.965  0.0494  0.3737 -0.0673
17124PP      PP27228  14.588   4.139  10.146  0.0081  0.1838  0.0559
17125PP      PP27229   6.492   0.507  10.756  0.1399 -0.0304 -0.1314
17126PP      PP27230   6.326   7.225   8.360 -0.0542  0.0348  0.2811
17127PP      PP27231   7.535  15.261  11.141  0.2504  0.4156  0.0648
17128PP      PP27232   1.206   0.652  10.423 -0.3756  0.0487 -0.2204
17129PP      PP27233   3.453   5.133   0.342 -0.1105 -0.1455 -0.2537
17130PP      PP27234   5.498   5.090   3.135 -0.0092  0.2122 -0.4440
17131PP      PP27235   9.956  12.205   9.222 -0.2895 -0.1201 -0.0405
17132PP      PP27236   6.151  11.390   9.426 -0.1154  0.0818 -0.4546
17133PP      PP27237  15.182  12.528   0.039  0.1311  0.0698  0.1729
17134PP      PP27238  12.961   6.315   2.687 -0.0761 -0.0585 -0.3364
17135PP      PP27239   0.237  14.364   3.579  0.0228  0.2586  0.2843
17136PP      PP27240  16.085   9.399  10.006 -0.1268  0.1400 -0.2675
17137PP      PP27241  10.607  15.066   0.815  0.1911  0.1648 -0.0781
17138PP      PP27242  11.740   1.062   1.698  0.0019  0.0841 -0.1575
17139PP      PP27243   7.215   2.136   2.545  0.1256  0.1798 -0.0813
17140PP      PP27244  10.044   8.083   3.490 -0.0529 -0.2811  0.3935
17141PP      PP27245  13.521  10.403  12.731  0.0578  0.2907 -0.1020
17142PP      PP27246  12.538   5.977   1.113  0.2323 -0.1108 -0.0721
17143PP      PP27247   0.730   6.542  10.156 -0.0957 -0.1475  0.0104
17144PP      PP27248   6.661  14.146   2.747 -0.2421 -0.1011 -0.0548
17145PP      PP27249  13.412   3.456  10.246  0.1363 -0.1960 -0.0024
17146PP      PP27250   7.880  15.020   0.726  0.0526 -0.0299 -0.3265
17147PP      PP27251   9.266   9.186   8.429 -0.0843 -0.3272  0.0327
17148PP      PP27252   3.162  16.015  10.465 -0.0040 -0.2786  0.1154
17149PP      PP27253  14.025  16.163  12.288 -0.3286 -0.0656 -0.1362
17150PP      PP27254  14.517   9.827   0.524  0.0746 -0.1140 -0.2181
17151PP      PP27255   5.692   3.497   2.591 -0.0985  0.0341 -0.0763
17152PP      PP27256   8.209   6.765  10.882 -0.1155 -0.1071 -0.0031
17153PP      PP27257   6.167  12.499   8.527 -0.1592 -0.0731 -0.1704
17154PP      PP27258   7.200   8.222   9.121 -0.0166  0.0332 -0.2115
17155PP      PP27259   5.292  15.017  12.313  0.0601 -0.0420  0.0610
17156PP      PP27260  15.506  13.176   9.442 -0.1700  0.3649 -0.2608
17157PP      PP27261   5.388   6.792   3.865  0.2039  0.2380  0.2021
17158PP      PP27262   0.888   6.293   9.577 -0.0627 -0.0274 -0.0354
17159PP      PP27263   6.157   5.771   7.521  0.0390  0.3183  0.2766
17160PP      PP27264  12.469   5.945   3.659  0.2549 -0.3952  0.2370
17161PP      PP27265   0.386   9.199   3.682  0.1802  0.0767 -0.0712
17162PP      PP27266   8.958  12.718   2.498 -0.4319 -0.3389 -0.0736
17163PP      PP27267  15.876  13.117   0.353 -0.1280  0.2583  0.0177
17164PP      PP27268  12.592   2.958   0.043 -0.5527  0.1918  0.2771
17165PP      PP27269  15.636  13.497  11.424  0.1891 -0.1801 -0.3063
17166PP      PP27270  15.600  10.550  11.222  0.1620  0.0838 -0.1465
17167PP      PP27271   0.789   2.073  12.634 -0.0584  0.1207 -0.0026
17168PP      PP27272  13.554  12.437   8.431 -0.4060  0.0701 -0.0183
17169PP      PP27273  12.963  12.584   9.418 -0.2485 -0.1359 -0.1227
17170PP      PP27274   4.395  11.864   1.899  0.0998 -0.2608 -0.3617
17171PP      PP27275   6.643   7.967  10.603 -0.0337 -0.1697  0.0425
17172PP      PP27276   5.939   2.224   1.204 -0.2727 -0.2211 -0.0563
17173PP      PP27277  16.254   8.334  11.611  0.2133 -0.1580  0.0305
17174PP      PP27278   4.568   5.248  10.560 -0.4100 -0.1173  0.0895
17175PP      PP27279   6.373   7.078   0.838 -0.2522 -0.0028 -0.1961
17176PP      PP27280   1.361   7.956   1.162  0.1729 -0.3397  0.0171
17177PP      PP27281   9.166  12.590   0.815  0.1688  0.0526  0.2357
17178PP      PP27282   8.920   4.484   3.386  0.4722  0.1121 -0.1362
17179PP      PP27283   9.457  10.535   9.879 -0.2218  0.1508  0.1740
17180PP      PP27284  10.527  12.639   8.895  0.0007 -0.0344  0.1698
17181PP      PP27285  13.095   2.437   1.684 -0.1896  0.0084 -0.2809
17182PP      PP27286  14.684  15.567   0.173 -0.0409 -0.1394 -0.3583
17183PP      PP27287  11.579  16.185  12.192 -0.1587 -0.2207 -0.0268
17184PP      PP27288   1.859   9.577   2.785  0.1868 -0.0721 -0.0520
17185PP      PP27289  15.264   6.888   2.488  0.2109  0.1636 -0.3983
17186PP      PP27290  15.009  11.027   1.374 -0.1254  0.2702  0.2009
17187PP      PP27291  13.742  16.266   1.932  0.0671 -0.0497  0.2092
17188PP      PP27292   8.902   2.151   0.262 -0.0045 -0.0619 -0.0592
17189PP      PP27293   3.326   4.214  12.506 -0.0133  0.0431 -0.1640
17190PP      PP27294   8.070  11.726   3.772 -0.0764 -0.1431 -0.1963
17191PP      PP27295   8.680   0.880   2.553 -0.0740  0.0029 -0.0693
17192PP      PP27296  15.160   2.424   3.515  0.1558 -0.0238  0.2902
17193PP      PP27297   7.829   3.840   1.753  0.1160  0.0899  0.2029
17194PP      PP27298   9.336   6.215   2.823 -0.1539 -0.2309 -0.1038
17195PP      PP27299   3.413   0.660  11.288  0.2546  0.2438  0.1550
17196PP      PP27300   8.854   6.955   3.004 -0.0455 -0.1216  0.1716
17197PP      PP27301   1.862   9.253  10.785  0.0694 -0.0886  0.0286
17198PP      PP27302  10.224   6.198   1.029  0.1917  0.3440  0.1401
17199PP      PP27303   3.910  15.609   9.850 -0.2295 -0.1290  0.1715
17200PP      PP27304   4.029   8.043  10.532 -0.1239  0.5835 -0.1723
17201PP      PP27305   1.105  12.737   8.586  0.4335  0.1228 -0.2435
17202PP      PP27306   9.876   4.468   3.566  0.0854  0.0921 -0.2299
17203PP      PP27307   4.924   3.469  10.015  0.0446  0.1915 -0.1937
17204PP      PP27308   7.376   7.752   9.149 -0.0502 -0.1013 -0.0569
17205PP      PP27309  11.328  10.825   1.518 -0.1159 -0.0863  0.0049
17206PP      PP27310  12.012   5.046  12.012 -0.1013  0.0077  0.1794
17207PP      PP27311   9.526  12.729   4.261 -0.2710 -0.1894  0.0958
17208PP      PP27312   7.981  15.311   9.707  0.2404 -0.0054 -0.1289
17209PP      PP27313   5.817   8.396  10.485 -0.2482 -0.0414 -0.2473
17210PP      PP27314   7.515  10.421   0.638 -0.1690  0.0114  0.1495
17211PP      PP27315   5.641  15.439  10.978  0.1909 -0.0477  0.0353
17212PP      PP27316  13.848  10.405  11.241 -0.2994 -0.2618 -0.0248
17213PP      PP27317   3.408   7.551  10.753 -0.3061  0.0164 -0.0356
17214PP      PP27318  13.740  12.126   1.742 -0.1060 -0.1469  0.2155
17215PP      PP27319   2.137  12.185   2.692  0.2534  0.2118  0.0364
17216PP      PP27320   4.307   8.433   1.481  0.1236  0.1124 -0.0333
17217PP      PP27321   0.827   8.832   1.328  0.3106 -0.0038  0.4265
17218PP      PP27322  10.268   4.972  12.190 -0.0536 -0.2765  0.1752
17219PP      PP27323   2.659   2.587   4.143  0.0174 -0.2229  0.4869
17220PP      PP27324  13.982   9.164   8.224  0.1825 -0.2004 -0.2575
17221PP      PP27325  15.384  16.312   3.132  0.1410 -0.4061 -0.0785
17222PP      PP27326  11.782  12.626  11.894  0.3017  0.0698  0.0504
17223PP      PP27327  11.188   2.876   3.088  0.3503 -0.2454 -0.0154
17224PP      PP27328   9.008   9.377   9.971  0.1294  0.0152 -0.0783
17225PP      PP27329   8.283   4.095   2.491  0.0732  0.4189 -0.0540
17226PP      PP27330   1.918  16.247  10.653  0.2094  0.1787 -0.0959
17227PP      PP27331   3.665  14.171  11.566 -0.0398  0.2851 -0.0480
17228PP      PP27332  12.232  10.194   3.634 -0.0141 -0.0846  0.0549
17229PP      PP27333   0.610   9.990  11.370  0.1432  0.1614 -0.3057
17230PP      PP27334   7.939   3.173   4.385 -0.0176 -0.0168  0.2253
17231PP      PP27335   8.326  13.362   3.085  0.1659  0.1064  0.1793
17232PP      PP27336   1.355  14.350  10.357 -0.1035 -0.0829 -0.0350
17233PP      PP27337  14.438   8.581   9.914  0.2614 -0.1595 -0.1601
17234PP      PP27338   5.211  13.698   2.355  0.0934  0.1381  0.1244
17235PP      PP27339  13.007   1.621  11.261  0.0780 -0.0667  0.4040
17236PP      PP27340  15.581  12.852   1.958 -0.2975 -0.0937 -0.1178
17237PP      PP27341   5.009   9.278  10.891  0.0924  0.2783  0.0228
17238PP      PP27342  14.101   9.027   9.980  0.3333 -0.0080  0.2234
17239PP      PP27343   7.678   0.779   3.567  0.3809  0.3948 -0.0406
17240PP      PP27344   9.283   4.556  10.205 -0.1207 -0.1669  0.1470
17241PP      PP27345   2.056   5.443  12.592  0.1693 -0.0637 -0.0576
17242PP      PP27346   7.027   6.819   9.127 -0.0532 -0.2539  0.0381
17243PP      PP27347   8.452  13.652   0.267  0.2005 -0.0505  0.0846
17244PP      PP27348  12.651   8.271   3.473  0.0086  0.3129 -0.2140
17245PP      PP27349  13.587   4.116  12.524  0.1901 -0.0197  0.0117
17246PP      PP27350   2.701  12.376   2.863  0.3797 -0.1605  0.0240
17247PP      PP27351   3.801   6.405   8.569  0.2668  0.0551 -0.0888
17248PP      PP27352  16.069  12.746  11.234 -0.0387 -0.0695 -0.3594
17249PP      PP27353  15.232   7.254   0.245 -0.0645  0.2236 -0.4071
17250PP      PP27354   5.141   0.745   2.474  0.2932 -0.2686 -0.0962
17251PP      PP27355  10.947  10.463   1.951  0.2598  0.1476 -0.2777
17252PP      PP27356  11.148   2.434  11.455 -0.0741  0.2479 -0.2127
17253PP      PP27357   0.966   2.032  11.390  0.2336  0.5386  0.2517
17254PP      PP27358   4.870   4.882   2.903  0.0622  0.0898 -0.0855
17255PP      PP27359   5.386   0.419   4.266 -0.2174 -0.0157  0.2272
17256PP      PP27360   6.084  14.498   1.968 -0.2621 -0.2211  0.2877
17257PP      PP27361  11.612   8.911  11.246 -0.1162 -0.5958 -0.0554
17258PP      PP27362  11.093   6.202  10.736  0.1186  0.0322  0.0455
17259PP      PP27363   8.947  11.842   3.484  0.0231  0.1689 -0.0279
17260PP      PP27364   4.462   3.403  10.315 -0.1054 -0.1641  0.0300
17261PP      PP27365  15.246   7.705  11.135  0.2820  0.0129  0.0807
17262PP      PP27366   1.759   3.827   2.886 -0.1026 -0.4471 -0.1943
17263PP      PP27367  13.904  14.875  10.216 -0.0858  0.2184 -0.0331
17264PP      PP27368   8.318   5.277   3.363 -0.2687 -0.2694  0.1428
17265PP      PP27369   1.701   9.868   0.806  0.1073 -0.0289  0.1521
17266PP      PP27370  11.300   5.078   0.983  0.1005 -0.0181  0.0644
17267PP      PP27371   6.335   8.591   8.978  0.1189 -0.1639  0.0293
17268PP      PP27372   6.104   5.071   8.598  0.0044 -0.4126  0.3064
17269PP      PP27373  11.081   3.285   0.630  0.4926 -0.2374  0.1071
17270PP      PP27374   4.829   7.059   0.137 -0.1665 -0.0694 -0.1988
17271PP      PP27375   0.413   0.645  12.168  0.1411 -0.3006  0.0338
17272PP      PP27376  14.882  10.184   9.417 -0.2976  0.0225 -0.1603
17273PP      PP27377   3.853  12.519   0.966  0.0330  0.2033 -0.0683
17274PP      PP27378   9.745   0.674   3.025  0.1313  0.0343  0.0105
17275PP      PP27379   7.006  15.856   4.232  0.0969  0.1041 -0.0651
17276PP      PP27380  11.459  11.868   1.987 -0.1087 -0.2283  0.0927
17277PP      PP27381  15.998  10.225   0.738 -0.3274  0.1353  0.2662
17278PP      PP27382   2.469  13.633  10.597  0.2081 -0.0525 -0.2779
17279PP      PP27383   0.065  14.770   3.915  0.0608 -0.3467  0.0342
17280PP      PP27384  12.206   4.610  12.321 -0.0499  0.1211 -0.1193
17281PP      PP27385   6.511  16.284  10.616  0.0176  0.1385  0.0732
17282PP      PP27386   0.361  12.507   2.816 -0.0891  0.3794 -0.1438
17283PP      PP27387   7.085   1.349  10.982  0.0435 -0.0023  0.0910
17284PP      PP27388  15.060   3.171   1.205  0.0913  0.0467 -0.4000
17285PP      PP27389  16.336   5.475   8.066 -0.1384 -0.2548  0.0685
17286PP      PP27390  14.421  15.708  10.679  0.2360  0.0178  0.1033
17287PP      PP27391   0.964  15.559   1.003  0.0018 -0.0599  0.2303
17288PP      PP27392   4.904   6.937  12.379  0.2721  0.0996 -0.2890
17289PP      PP27393  10.161  14.746   1.538  0.2211 -0.0162 -0.0933
17290PP      PP27394   7.422   6.452   8.977 -0.0558 -0.0389  0.2711
17291PP      PP27395   1.721   2.359   2.629  0.0212  0.0439  0.1486
17292PP      PP27396  13.542   2.576   1.980  0.4172  0.3124 -0.1704
17293PP      PP27397  11.430   4.520  10.896  0.1489 -0.0805 -0.0757
17294PP      PP27398   0.379   7.096  12.133 -0.1955  0.1003 -0.0663
17295PP      PP27399   4.831   9.365   9.733  0.1125  0.2256  0.1480
17296PP      PP27400  10.604   3.719  12.088  0.1305  0.0871 -0.0948
17297PP      PP27401   7.496   6.403   9.609 -0.1413 -0.2021 -0.0965
17298PP      PP27402   9.397  11.929   1.904  0.0392  0.2390  0.2425
17299PP      PP27403   5.047  13.322  10.758  0.2913 -0.0673  0.0582
17300PP      PP27404  10.629   8.440   8.552  0.3014 -0.0513  0.0598
17301PP      PP27405   2.693   2.250  10.714  0.1180  0.0556 -0.1538
17302PP      PP27406   8.642   8.005  11.450  0.1801 -0.0336  0.1682
17303PP      PP27407  14.162  15.404   9.781 -0.0028 -0.2656 -0.5521
17304PP      PP27408   6.513   0.640   4.675 -0.1011  0.3292  0.1906
17305PP      PP27409   8.468   7.120   0.525  0.0567  0.3751 -0.0481
17306PP      PP27410   3.906   7.431   1.231 -0.1186  0.1955  0.0113
17307PP      PP27411   6.139   6.282  11.632 -0.1155  0.0320 -0.1769
17308PP      PP27412   3.699  15.318   3.531  0.0851 -0.1295  0.0554
17309PP      PP27413   6.411   3.073   4.529  0.1887 -0.2180  0.0967
17310PP      PP27414   7.052  11.823   0.681 -0.3339  0.1135  0.3044
17311PP      PP27415   6.601   3.100  12.551 -0.1320  0.2758 -0.3257
17312PP      PP27416   7.398   6.733  10.341  0.0406 -0.1229  0.2186
17313PP      PP27417   9.096  10.530  10.981  0.1124 -0.1133 -0.1060
17314PP      PP27418   3.293   1.701  10.352 -0.0032  0.2630 -0.5099
17315PP      PP27419  13.818   6.304  10.894  0.1207 -0.4004  0.0214
17316PP      PP27420   7.253  15.676   0.402  0.2179 -0.0829 -0.0873
17317PP      PP27421  13.083   0.556  12.738 -0.0087  0.0528  0.1346
17318PP      PP27422   7.104  12.096   3.418 -0.0987  0.1672  0.0400
17319PP      PP27423   9.000  12.182  10.616  0.0565 -0.1295 -0.0330
17320PP      PP27424   5.287  16.293   9.864 -0.2266 -0.0917 -0.1068
17321PP      PP27425   7.148   4.401  11.615  0.0066  0.1294 -0.2995
17322PP      PP27426   8.304  10.632  10.679 -0.0243  0.1622 -0.2800
17323PP      PP27427  13.886  14.185   0.740 -0.0350  0.1481 -0.0935
17324PP      PP27428   1.828  10.433  12.682 -0.1368 -0.2128  0.5832
17325PP      PP27429   4.122   9.374  11.723 -0.2254  0.2010 -0.2887
17326PP      PP27430   6.359  10.080   3.620 -0.1327  0.0903 -0.0182
17327PP      PP27431  12.755   2.483   1.327 -0.2299  0.0835  0.1899
17328PP      PP27432   4.275   1.552  12.755  0.1055  0.0747  0.0695
17329PP      PP27433  11.773   3.613   8.823 -0.1251 -0.3615 -0.1377
17330PP      PP27434  13.948  14.167   2.808  0.1317  0.1704 -0.0919
17331PP      PP27435  10.508   1.893   0.890  0.1179  0.1047 -0.4828
17332PP      PP27436   3.775   5.535   0.585  0.1709  0.3921  0.0553
17333PP      PP27437   6.283   3.866   4.329 -0.1339  0.0214  0.0184
17334PP      PP27438  16.155  11.369  10.172 -0.3656 -0.0846  0.1365
17335PP      PP27439   6.727   0.157   2.687 -0.1572 -0.0825 -0.3761
17336PP      PP27440   5.954   8.891   1.259 -0.2464 -0.2183 -0.1213
17337PP      PP27441   0.752  10.659   8.481 -0.1278 -0.2747 -0.2220
17338PP      PP27442   0.256   9.153  12.520 -0.1623 -0.3273 -0.0985
17339PP      PP27443  14.626   6.941   2.502 -0.0050 -0.0830 -0.1548
17340PP      PP27444  10.914   4.140   8.618 -0.0090 -0.2082 -0.0554
17341PP      PP27445   3.841   2.376   0.022 -0.0128 -0.1932 -0.3469
17342PP      PP27446   6.597   8.374   3.083 -0.0303  0.2568  0.0619
17343PP      PP27447   5.929   9.653   2.989 -0.0529  0.1839 -0.0755
17344PP      PP27448   7.799   5.300   2.921 -0.0572 -0.0641 -0.2742
17345PP      PP27449   7.007   9.090   2.851 -0.0059 -0.0170  0.0468
17346PP      PP27450   0.612   8.028   0.034 -0.0787  0.1383 -0.2193
17347PP      PP27451   9.551  15.120  12.565  0.0833  0.2196  0.2002
17348PP      PP27452   4.974   7.336   8.239 -0.1315 -0.0672 -0.3076
17349PP      PP27453  12.834   8.604   0.034  0.0472  0.4049  0.1974
17350PP      PP27454  11.730  13.814   4.950 -0.0542 -0.1286  0.3827
17351PP      PP27455   8.337  13.295  10.524 -0.0183 -0.2330 -0.0479
17352PP      PP27456   7.897  11.656   8.515 -0.1317  0.0298  0.1456
17353PP      PP27457   6.325   6.804   7.912 -0.2164 -0.2360 -0.1867
17354PP      PP27458   8.211   7.390  11.969 -0.3046 -0.1937  0.0546
17355PP      PP27459  15.305   7.321   3.318  0.0454  0.1679 -0.3384
17356PP      PP27460   2.615   7.774   8.892  0.1834  0.1183 -0.0660
17357PP      PP27461   3.790  10.179  11.951 -0.3877 -0.0808 -0.0781
17358PP      PP27462   4.006  15.812   9.353 -0.2188  0.0082  0.0315
17359PP      PP27463   4.892  10.910   2.538 -0.2464 -0.0851 -0.0370
17360PP      PP27464   8.140  13.968   9.450 -0.1314  0.1589  0.0507
17361PP      PP27465   8.790  14.767  10.972 -0.0746 -0.0078 -0.2801
17362PP      PP27466  14.185  12.267   1.178  0.0874 -0.1157  0.1149
17363PP      PP27467  10.790  12.718   2.462  0.1134  0.2660  0.0273
17364PP      PP27468   1.488   8.780  12.293  0.0364 -0.2946 -0.1556
17365PP      PP27469   4.093   7.500   0.302  0.4673 -0.0297 -0.1084
17366PP      PP27470   6.808  12.579   8.629  0.1654 -0.2452  0.2344
17367PP      PP27471  15.537   5.640   9.952  0.2469 -0.4337  0.1501
17368PP      PP27472  15.650  10.734   8.668 -0.0417 -0.1773 -0.0036
17369PP      PP27473  15.193   0.967   1.507 -0.0771 -0.0110  0.3444
17370PP      PP27474   2.272  12.024  10.782  0.0917 -0.0369  0.3578
17371PP      PP27475   5.343  14.673   9.759 -0.0772  0.1690  0.2459
17372PP      PP27476   9.653  13.198   0.277  0.2268  0.1494  0.4831
17373PP      PP27477   6.782  10.834  11.639 -0.2417  0.0290 -0.3433
17374PP      PP27478   9.765  14.150  10.692  0.2013 -0.0017  0.0095
17375PP      PP27479  11.477   9.077   2.409  0.0588  0.0629 -0.1988
17376PP      PP27480   7.281   3.087   3.000 -0.4275 -0.1470  0.3410
17377PP      PP27481   4.629   0.771   2.302  0.1012  0.0770 -0.0186
17378PP      PP27482  16.297  10.002   2.032 -0.2097  0.2093  0.1241
17379PP      PP27483   5.158  12.276   1.459  0.1942 -0.5516 -0.0418
17380PP      PP27484  15.796  15.882  11.031  0.2118  0.0615 -0.0329
17381PP      PP27485  11.536  16.165   3.230  0.1780  0.3007 -0.0235
17382PP      PP27486   9.925   9.304  11.410  0.1247 -0.0135  0.0204
17383PP      PP27487  12.360  11.570  11.601 -0.0955  0.1129 -0.1755
17384PP      PP27488   3.148   1.580   9.607 -0.0008 -0.2430  0.0712
17385PP      PP27489  15.714   3.873   1.672  0.2486 -0.0226 -0.1196
17386PP      PP27490   7.307  12.584  10.621  0.1785  0.2440  0.1147
17387PP      PP27491  10.062   6.623   3.392  0.0856 -0.1167  0.2032
17388PP      PP27492   3.430   7.969  10.367  0.0398  0.1195  0.0662
17389PP      PP27493   0.040   1.589   0.526  0.0953 -0.0166  0.1623
17390PP      PP27494  10.678  10.986   0.593 -0.1103  0.1658 -0.0073
17391PP      PP27495   0.765  11.169  12.514  0.1297 -0.0594  0.0024
17392PP      PP27496   8.048  16.138   2.743 -0.0481  0.2685  0.1766
17393PP      PP27497   6.648  11.422   8.512  0.0948  0.1027  0.2610
17394PP      PP27498   2.768   7.201  10.124  0.2914  0.0431 -0.0979
17395PP      PP27499  15.283   0.914   3.227  0.1241  0.2266  0.0658
17396PP      PP27500  10.331  10.844  12.530 -0.2511  0.0016  0.1045
17397PP      PP27501   4.019   6.173   4.103 -0.1081  0.1133  0.1169
17398PP      PP27502  15.972   3.082   3.626  0.0842 -0.0047 -0.1209
17399PP      PP27503  12.774   3.777   3.434 -0.3323 -0.1567 -0.0775
17400PP      PP27504   4.913  12.518   3.407  0.0419 -0.1135  0.1973
17401PP      PP27505   2.084  10.999   0.782  0.2476  0.1728 -0.3661
17402PP      PP27506   3.768   6.951   9.534  0.1972 -0.0935 -0.0522
17403PP      PP27507  15.541   7.592   1.106  0.1965  0.4051  0.0236
17404PP      PP27508  11.799   9.511   9.748 -0.1300 -0.1536  0.1192
17405PP      PP27509  13.831  16.224   9.247 -0.1861 -0.0567 -0.0784
17406PP      PP27510   8.382   0.962   2.982 -0.0959  0.1264 -0.2032
17407PP      PP27511   8.391   4.984   0.145  0.2083  0.3235  0.0358
17408PP      PP27512   4.633   0.305   2.862  0.1769 -0.0061 -0.2431
17409PP      PP27513  14.629   8.033   0.208 -0.2107  0.0879  0.4850
17410PP      PP27514  14.310   0.572   8.692 -0.1635  0.1952  0.1932
17411PP      PP27515  13.949  11.110   4.285 -0.2418 -0.1385  0.0827
17412PP      PP27516   6.307  10.478   2.758  0.0118  0.1599 -0.1172
17413PP      PP27517   7.635   4.426  11.691  0.1989  0.1874 -0.0156
17414PP      PP27518  11.565   8.664   0.959  0.1650  0.0538  0.0122
17415PP      PP27519   2.285   6.370   1.020  0.0843  0.2280 -0.1275
17416PP      PP27520   3.449   0.284   9.075  0.2695  0.0733 -0.2478
17417PP      PP27521   8.030  11.740   0.326 -0.0046 -0.2239 -0.0030
17418PP      PP27522  11.341   1.554   9.992  0.0497  0.2752  0.0819
17419PP      PP27523   5.418   5.728   2.161 -0.0125  0.1344  0.0118
17420PP      PP27524   5.133   1.419   2.991  0.1058  0.0107 -0.2756
17421PP      PP27525   2.932   5.465  11.090 -0.2535  0.0014 -0.0323
17422PP      PP27526  13.793   7.402   2.127 -0.0183 -0.1990 -0.1341
17423PP      PP27527   9.288  15.386   2.588 -0.2680  0.1362 -0.0917
17424PP      PP27528  14.096   8.435  10.287 -0.1932 -0.3799  0.4670
17425PP      PP27529  12.021   8.494   9.176  0.3187 -0.1500 -0.0441
17426PP      PP27530  13.049   9.276   3.698 -0.1538  0.0906  0.0390
17427PP      PP27531   8.618   3.439   9.945  0.1676  0.3536  0.1742
17428PP      PP27532   2.447  15.440   3.825  0.1360  0.0393  0.2393
17429PP      PP27533  13.237   5.061   2.816  0.1777 -0.3407  0.4462
17430PP      PP27534   7.770   2.269   4.241  0.0884  0.0747  0.1692
17431PP      PP27535   2.352  13.685   3.041 -0.2056  0.0012  0.1830
17432PP      PP27536  14.530   0.904   2.158  0.1785  0.4120  0.3822
17433PP      PP27537  15.143  11.842   3.633  0.1851 -0.0581 -0.1082
17434PP      PP27538   6.313   7.627  11.128 -0.0720 -0.0201 -0.1568
17435PP      PP27539   7.347  15.209   0.592  0.1257  0.0862  0.1225
17436PP      PP27540   2.005   6.936  12.507 -0.0586  0.1559  0.1274
17437PP      PP27541   3.104   3.472   2.160 -0.4265  0.1117  0.3653
17438PP      PP27542   9.302   1.815  11.152  0.2825 -0.2339  0.0313
17439PP      PP27543  11.090  11.958   9.784 -0.3107 -0.0622 -0.1297
17440PP      PP27544   2.920   5.708   9.080 -0.0808  0.4245 -0.0793
17441PP      PP27545   8.766   3.735   3.713  0.1626 -0.3590  0.3077
17442PP      PP27546   7.869   6.168   4.143 -0.0307 -0.1021 -0.2118
17443PP      PP27547   5.336   9.572   3.240 -0.0185 -0.1928 -0.2190
17444PP      PP27548   0.183   1.404   2.594 -0.4323  0.2270  0.1928
17445PP      PP27549  14.630   6.824   8.276  0.3299 -0.1375  0.0793
17446PP      PP27550   4.400   1.102   4.714 -0.3297  0.0320 -0.4855
17447PP      PP27551  10.073   7.954   9.332  0.2098 -0.0967 -0.0137
17448PP      PP27552  14.869  10.707   0.468 -0.2974  0.0432  0.1997
17449PP      PP27553  15.553  14.928   3.666 -0.1379  0.1577 -0.1229
17450PP      PP27554  12.621   1.130   9.497 -0.1304 -0.2583 -0.1449
17451PP      PP27555   6.426   0.297   2.214 -0.0296  0.0815  0.0363
17452PP      PP27556  12.689   6.340   9.194 -0.0788  0.1123 -0.0520
17453PP      PP27557   0.063   9.382   2.928  0.4017 -0.0461 -0.2020
17454PP      PP27558  12.097  15.233   0.178  0.1717  0.0585 -0.0948
17455PP      PP27559   0.035   5.304  10.166  0.0033 -0.0506 -0.0076
17456PP      PP27560   8.376  14.947   0.922 -0.2010  0.1539 -0.0175
17457PP      PP27561   2.189   7.367   2.083 -0.0368  0.1514 -0.1667
17458PP      PP27562   3.758  13.457   0.171  0.0798 -0.0585  0.0473
17459PP      PP27563   8.876   1.799   0.576  0.0343 -0.0442  0.3181
17460PP      PP27564   5.088   7.789  11.953 -0.0962 -0.1722 -0.1876
17461PP      PP27565   0.118   5.691   2.595  0.1198  0.0634  0.0824
17462PP      PP27566   9.560  11.754   0.205  0.1441 -0.2331  0.1861
17463PP      PP27567   9.705  12.672  10.852  0.1309  0.0891  0.1214
17464PP      PP27568   7.038  10.611  10.027  0.1146 -0.1579  0.5758
17465PP      PP27569   3.146  14.110   2.897  0.1271  0.2274  0.2579
17466PP      PP27570   8.728  11.350  12.496 -0.1698 -0.1589  0.0948
17467PP      PP27571  10.055  14.628  10.033 -0.1740 -0.1973  0.2279
17468PP      PP27572   6.940  13.049   8.456 -0.2193 -0.0568 -0.0435
17469PP      PP27573  11.836   0.917   2.505  0.0178  0.3373 -0.1166
17470PP      PP27574  13.864   6.931   8.447 -0.2657  0.3336  0.3773
17471PP      PP27575   4.322  12.748   7.453 -0.0498 -0.2018 -0.0944
17472PP      PP27576   7.887   5.735   2.207 -0.0044 -0.0158  0.4054
17473PP      PP27577   8.305   2.843   4.608  0.1675 -0.0773  0.0193
17474PP      PP27578   8.726  14.359  12.599 -0.2501 -0.1848  0.1310
17475PP      PP27579  12.264   0.432   2.870 -0.1013  0.2609 -0.1352
17476PP      PP27580   7.022   2.290  12.515 -0.3278  0.0116  0.1027
17477PP      PP27581   3.412  14.765   3.302 -0.0232  0.2899 -0.0041
17478PP      PP27582   1.144   7.689  10.358 -0.4591  0.1032 -0.0742
17479PP      PP27583  13.412   6.983  10.184  0.0807  0.1575  0.2429
17480PP      PP27584  15.908   7.019  12.259 -0.1250 -0.1257  0.0983
17481PP      PP27585  10.971   6.155   8.226  0.1293 -0.0780  0.0645
17482PP      PP27586   4.951  12.197   0.572 -0.1589  0.0707 -0.2930
17483PP      PP27587  10.289   8.549   3.554 -0.0831  0.1381 -0.3190
17484PP      PP27588   4.010   8.778   9.163  0.3150 -0.0961  0.2029
17485PP      PP27589   0.753  14.446   2.372  0.0330 -0.1417  0.1133
17486PP      PP27590  12.796   3.360   1.663  0.0866  0.2525  0.1027
17487PP      PP27591   9.458   7.798   8.274 -0.0602 -0.2146  0.0651
17488PP      PP27592  14.711   4.950   2.725 -0.2463  0.0860 -0.0844
17489PP      PP27593   1.555  10.490  12.199 -0.1241  0.1431 -0.1737
17490PP      PP27594  14.225   2.795  11.655 -0.1522 -0.1554  0.4360
17491PP      PP27595   2.760   7.530  11.929  0.0048 -0.4097 -0.3121
17492PP      PP27596   8.663  15.796   9.953 -0.1328  0.5759 -0.0287
17493PP      PP27597  15.879   8.192   2.084 -0.1140 -0.3398  0.3995
17494PP      PP27598  11.764   6.960   8.937 -0.0166  0.0577 -0.0990
17495PP      PP27599   4.020  13.513  11.260 -0.2074 -0.0614  0.0161
17496PP      PP27600  13.674   6.748   9.283 -0.1341 -0.2188 -0.0565
17497PP      PP27601   3.608   7.286   0.488 -0.1766 -0.1775 -0.2170
17498PP      PP27602   0.076  11.621   3.930  0.0328  0.0095  0.3180
17499PP      PP27603   5.395  10.059   2.053  0.2427 -0.3706  0.0360
17500PP      PP27604  13.994  15.062  12.282  0.1027  0.1157 -0.0897
17501PP      PP27605  12.593   5.881   0.177 -0.1852  0.0646  0.1372
17502PP      PP27606  15.416  11.047  10.472  0.3962 -0.4026  0.3799
17503PP      PP27607  10.778   0.007   2.522 -0.3863  0.1279  0.0115
17504PP      PP27608   1.882   1.343   3.263 -0.1091 -0.3346 -0.2616
17505PP      PP27609   2.011   7.467  12.390 -0.0635  0.0085  0.0326
17506PP      PP27610   0.038  15.598   1.998 -0.1427  0.0289 -0.0023
17507PP      PP27611  13.745   0.722  12.123  0.0417 -0.1095 -0.1671
17508PP      PP27612  15.330  15.202   2.689 -0.2599 -0.1327  0.0815
17509PP      PP27613   1.319   8.390   3.277  0.0714  0.1410  0.3512
17510PP      PP27614   3.248  12.609   0.085 -0.1420 -0.1301  0.1994
17511PP      PP27615  15.671  10.442  12.093 -0.1815 -0.2195  0.0369
17512PP      PP27616   4.583   5.858   8.276  0.0511  0.3406 -0.0102
17513PP      PP27617   4.485   8.900  12.606  0.2554  0.0093 -0.2503
17514PP      PP27618   5.355   6.227   3.651  0.1885  0.0902 -0.1673
17515PP      PP27619   5.489   5.580  12.589 -0.1338  0.1550 -0.1146
17516PP      PP27620   4.291   1.407  10.430  0.1717 -0.0391 -0.1110
17517PP      PP27621   8.866  11.778  11.025  0.0825 -0.0467 -0.1459
17518PP      PP27622  11.760   3.119   1.530 -0.1855 -0.1172 -0.1236
17519PP      PP27623  15.644   4.224   0.566  0.2332 -0.4630 -0.2908
17520PP      PP27624  12.945   0.701  11.809 -0.1172  0.0784  0.2244
17521PP      PP27625   7.422  10.570  12.003 -0.1531 -0.2032  0.0338
17522PP      PP27626  15.902  13.634   9.590  0.0096  0.0846  0.0698
17523PP      PP27627   2.675  13.425   0.677  0.1757 -0.2203  0.0869
17524PP      PP27628  13.555   8.071  11.006 -0.1570 -0.0994 -0.0228
17525PP      PP27629  11.210  11.399   2.296 -0.4686 -0.3139 -0.2406
17526PP      PP27630   5.677   8.071  11.364 -0.1814  0.1236  0.2401
17527PP      PP27631   9.399   5.020   9.916  0.0737 -0.0674 -0.1888
17528PP      PP27632  14.127   8.468  10.754 -0.1510  0.1133 -0.3116
17529PP      PP27633   6.214   2.870   2.683  0.1496 -0.0741  0.3573
17530PP      PP27634  11.990   1.790   1.207  0.3488  0.0837  0.2104
17531PP      PP27635   7.027   6.893   0.533  0.1495 -0.0748 -0.1858
17532PP      PP27636   5.563  16.219  11.790 -0.1337 -0.0090  0.0576
17533PP      PP27637   6.576   4.891   0.193  0.0210  0.1441  0.2832
17534PP      PP27638   5.194  11.543  10.922 -0.0057  0.0843  0.2979
17535PP      PP27639   6.025  13.495  12.657  0.0860  0.0191  0.7097
17536PP      PP27640   7.065   1.735   3.057  0.3526  0.0785 -0.2213
17537PP      PP27641  14.514  11.636   0.494  0.1345  0.2162 -0.0948
17538PP      PP27642   5.238  10.144  12.054  0.2260 -0.0220 -0.1705
17539PP      PP27643   8.063   2.270   0.444 -0.0567  0.1885 -0.0882
17540PP      PP27644  12.557   0.287   2.387 -0.2053  0.0012  0.1857
17541PP      PP27645   3.992  15.156  11.187 -0.0897 -0.0980  0.0188
17542PP      PP27646  15.395   4.684   9.083 -0.0588  0.0317 -0.2451
17543PP      PP27647   4.421  12.167  11.399 -0.0812  0.0039 -0.0614
17544PP      PP27648  14.544   2.845   0.093  0.0980 -0.0436  0.0486
17545PP      PP27649   8.038   0.866  10.385 -0.2099  0.0055 -0.0534
17546PP      PP27650  15.441   9.224  11.244 -0.2303 -0.2840  0.2839
17547PP      PP27651  15.711  13.031  11.682  0.1076  0.0554 -0.2700
17548PP      PP27652  12.734  13.926   9.746  0.1312 -0.1437 -0.1244
17549PP      PP27653  13.612  10.840  12.104  0.0620  0.2880 -0.1319
17550PP      PP27654  13.850   0.404   9.342 -0.0889 -0.0709  0.2374
17551PP      PP27655  13.463   2.363   9.679 -0.1196 -0.3069 -0.1128
17552PP      PP27656   6.924   0.693  12.002  0.1352  0.1824  0.3002
17553PP      PP27657   9.155  12.842   9.579 -0.0418 -0.0882 -0.2889
17554PP      PP27658  16.227  10.981  10.911 -0.0676  0.0478 -0.0040
17555PP      PP27659   0.786   5.548  12.582 -0.0878 -0.3073  0.0587
17556PP      PP27660   9.077  13.359  12.106  0.2378 -0.2822  0.0515
17557PP      PP27661  10.085   2.427   8.741 -0.0265  0.2870 -0.1021
17558PP      PP27662   9.031   5.104  12.555  0.3192 -0.4362 -0.2014
17559PP      PP27663  16.229   3.289   9.266  0.1985 -0.0125 -0.3855
17560PP      PP27664  12.143  12.525   0.073 -0.3112 -0.2717  0.0654
17561PP      PP27665  12.174  15.109  10.252 -0.2337  0.1284  0.1246
17562PP      PP27666   8.913   1.824  10.097 -0.0532 -0.1298 -0.0183
17563PP      PP27667  15.868   3.937   3.585  0.3422  0.0140  0.1011
17564PP      PP27668   8.550   8.530   2.229  0.1148 -0.2724  0.3120
17565PP      PP27669  11.381   6.631  10.516 -0.2096  0.0836  0.4229
17566PP      PP27670   4.068   8.258   9.214 -0.0187 -0.3224  0.0606
17567PP      PP27671   6.257   0.311   0.813 -0.0753 -0.0019  0.2762
17568PP      PP27672  14.460  12.169  12.663  0.1016  0.1411  0.2701
17569PP      PP27673   0.237  13.743   4.497  0.0362  0.1224 -0.0542
17570PP      PP27674   6.335  15.690   4.031  0.0377  0.1512  0.0097
17571PP      PP27675   2.253  14.197   1.303  0.0296  0.1528 -0.0712
17572PP      PP27676   0.366   1.245   0.660  0.3175  0.1320  0.0577
17573PP      PP27677  10.203   4.292   0.936 -0.1771  0.4701 -0.1021
17574PP      PP27678  11.649   0.518   9.837 -0.1798  0.0966 -0.3267
17575PP      PP27679   3.825  11.416   9.002 -0.1475  0.0264 -0.0180
17576PP      PP27680  16.301   4.656   9.367 -0.1133  0.0093  0.0311
17577PP      PP27681   9.904   6.337  11.993 -0.0366 -0.2640 -0.0112
17578PP      PP27682   1.921   4.806   1.765 -0.1265 -0.0632  0.1074
17579PP      PP27683  11.417   2.505  10.361 -0.1847  0.0074 -0.0091
17580PP      PP27684  10.894  15.016   4.325 -0.3540  0.0553 -0.0857
17581PP      PP27685  16.146   5.750   3.629  0.1679  0.0247 -0.0609
17582PP      PP27686   6.286   4.658  10.519 -0.4197  0.0139 -0.2523
17583PP      PP27687  11.642  15.982  11.237 -0.0026  0.0058  0.0100
17584PP      PP27688   5.278   9.681  12.393  0.1788 -0.0636  0.0838
17585PP      PP27689   2.562   3.193   9.896 -0.5412  0.0322  0.2355
17586PP      PP27690   4.078  14.083  11.240  0.4730 -0.1606  0.0242
17587PP      PP27691   7.494  15.347   2.396 -0.1058 -0.1664 -0.2415
17588PP      PP27692  14.415   8.109   2.584  0.3674 -0.0647 -0.0696
17589PP      PP27693  14.187  11.692   2.760  0.2855  0.0485 -0.3607
17590PP      PP27694  11.437   0.625  10.287  0.3122 -0.1721  0.0224
17591PP      PP27695   4.238   8.872  11.715  0.1913  0.1287  0.0097
17592PP      PP27696  10.725   8.446  11.493  0.1825  0.0437  0.2156
17593PP      PP27697   3.886  12.130  11.561  0.0689  0.0999 -0.0124
17594PP      PP27698   5.459   8.968  11.671 -0.1967  0.0954  0.1976
17595PP      PP27699   6.745  13.510   8.686  0.0439 -0.1459  0.1496
17596PP      PP27700   4.727   2.621   9.916  0.3394 -0.1393 -0.1269
17597PP      PP27701   6.832  15.033   2.930  0.0839 -0.0726 -0.1931
17598PP      PP27702   1.646   9.446   3.214 -0.1279  0.1733  0.0884
17599PP      PP27703  10.601   9.183   3.399 -0.0759  0.0239 -0.2139
17600PP      PP27704   9.344  12.391   1.807 -0.0797  0.0633  0.0063
17601PP      PP27705   6.608   5.260  10.581 -0.2505  0.1965 -0.1106
17602PP      PP27706  11.235   3.946   2.417 -0.1646  0.2246  0.4905
17603PP      PP27707   1.195  12.471   4.187  0.1599 -0.1215  0.1294
17604PP      PP27708  14.257   1.703   2.991  0.2253  0.0656  0.1337
17605PP      PP27709  14.896  14.874  12.111 -0.0254  0.2638  0.1892
17606PP      PP27710  11.835   4.192   1.703 -0.2346  0.2990  0.0325
17607PP      PP27711   9.825  11.205   1.474 -0.1418 -0.0714 -0.1231
17608PP      PP27712  10.730   7.145   8.065  0.0693 -0.0748 -0.1837
17609PP      PP27713  10.356  13.269   3.790 -0.0360  0.2045  0.2182
17610PP      PP27714   1.822   0.612  12.018  0.0798  0.3974  0.0160
17611PP      PP27715   6.838   4.469   2.396 -0.2329  0.1246 -0.0919
17612PP      PP27716  13.782   6.897  11.993 -0.0936 -0.2793 -0.0937
17613PP      PP27717   3.253  10.568   2.403 -0.1696  0.3351  0.1593
17614PP      PP27718  16.283  11.295   2.256  0.3985 -0.1041 -0.0324
17615PP      PP27719   3.527   1.496   2.841 -0.2746 -0.0319 -0.4139
17616PP      PP27720  11.559   5.207   9.695 -0.1737 -0.1056 -0.1035
17617PP      PP27721  16.088  11.489  12.477 -0.3332 -0.2443  0.2343
17618PP      PP27722  10.138  11.152   2.494 -0.1603  0.0560 -0.2078
17619PP      PP27723  11.472   4.971  10.708 -0.0036  0.0030  0.0010
17620PP      PP27724  16.314   6.238   3.516 -0.0337 -0.2964 -0.1333
17621PP      PP27725   0.227   1.052   2.958 -0.0208 -0.1214 -0.4389
17622PP      PP27726   5.575  13.458   3.811 -0.0008  0.1391 -0.1468
17623PP      PP27727  14.766  11.180   0.514 -0.0373  0.1189 -0.0658
17624PP      PP27728   6.622   0.766   9.926 -0.1374 -0.4777 -0.0142
17625PP      PP27729   1.171  10.906   4.190  0.0117 -0.2839 -0.2756
17626PP      PP27730  12.267  10.616  10.206  0.1682 -0.1298 -0.2920
17627PP      PP27731   3.544   1.974   4.396 -0.1799  0.0707  0.4140
17628PP      PP27732   6.800   5.798   0.106 -0.0033  0.0847 -0.2419
17629PP      PP27733   4.149   0.472  12.484  0.2168  0.0303  0.0561
17630PP      PP27734   4.094  15.558  10.317 -0.1449 -0.0222 -0.6105
17631PP      PP27735   8.248  14.883   0.408  0.0057  0.2345  0.2665
17632PP      PP27736  15.139   9.648   7.970 -0.1336 -0.2023  0.2249
17633PP      PP27737   4.843   0.515   4.306 -0.0550 -0.0701  0.1072
17634PP      PP27738  15.207  10.052   3.017 -0.1320 -0.2347 -0.0216
17635PP      PP27739   0.365   3.966   3.817 -0.0144 -0.0341  0.2094
17636PP      PP27740   4.767   2.508  11.980 -0.0432  0.0909 -0.0580
17637PP      PP27741   8.510  13.835  12.545  0.0745  0.0448 -0.1205
17638PP      PP27742  13.081   8.307   2.222 -0.1895 -0.1731  0.2101
17639PP      PP27743   2.209  15.516  10.640  0.0239 -0.1215  0.1590
17640PP      PP27744   5.278  11.762   2.649  0.1141  0.2365 -0.0738
17641PP      PP27745  14.645  15.570  11.807 -0.0858  0.0749 -0.0119
17642PP      PP27746   0.598   5.782   2.206 -0.2556 -0.0097 -0.0341
17643PP      PP27747  13.013   2.591   8.883 -0.2000  0.1831 -0.0139
17644PP      PP27748   0.564  10.472   3.915  0.0720 -0.2056 -0.0137
17645PP      PP27749   6.179   8.084  10.257  0.0820 -0.1327 -0.0786
17646PP      PP27750   1.566   6.671   7.981  0.1654 -0.2244  0.4882
17647PP      PP27751  14.817   2.344   4.456  0.0065 -0.0654  0.0886
17648PP      PP27752  11.768   5.595  11.221  0.0362  0.0970 -0.1485
17649PP      PP27753   9.654   0.235  12.648 -0.1562 -0.2338 -0.0279
17650PP      PP27754   5.705  11.172   1.398  0.3057 -0.4630 -0.0596
17651PP      PP27755   4.839   6.129  10.092  0.0494 -0.0560  0.1606
17652PP      PP27756   6.489   0.721  11.723  0.0460 -0.1882 -0.0373
17653PP      PP27757  12.662   6.318  11.900  0.0790 -0.2024 -0.1744
17654PP      PP27758  15.672   3.678  10.856  0.0165 -0.0678 -0.3715
17655PP      PP27759   7.588   9.945   9.464  0.0076  0.1240  0.0125
17656PP      PP27760   6.189   5.005   1.356  0.0709  0.0379  0.0135
17657PP      PP27761  12.762  12.506   1.288  0.1894 -0.0206  0.0698
17658PP      PP27762   5.008   3.970   9.038 -0.1667 -0.0476 -0.0042
17659PP      PP27763   9.503   1.633   3.536  0.1387 -0.0548  0.1720
17660PP      PP27764   4.951   6.554   3.893  0.0679 -0.2576  0.0118
17661PP      PP27765   9.269  14.250  12.323 -0.0443 -0.2127  0.0221
17662PP      PP27766   5.811  10.802   0.520 -0.0039  0.1957  0.0480
17663PP      PP27767  12.174   7.325   0.235 -0.3690 -0.2138 -0.3825
17664PP      PP27768   1.146  15.723  10.500  0.1263 -0.0062 -0.0497
17665PP      PP27769  15.999   0.741   2.642 -0.3643 -0.1132  0.1838
17666PP      PP27770  11.683   4.000   2.862  0.1468 -0.3548 -0.0032
17667PP      PP27771  10.287   7.824  12.334  0.2648  0.2877  0.1344
17668PP      PP27772  14.137  10.954   1.591  0.0978 -0.1605 -0.0540
17669PP      PP27773  12.916  12.573   1.724 -0.0170 -0.1154  0.0790
17670PP      PP27774   3.200  11.726  10.383 -0.0648  0.1796 -0.3049
17671PP      PP27775   9.077   5.831  10.326 -0.0595 -0.1990 -0.2518
17672PP      PP27776  12.854   6.092   4.012 -0.2100 -0.1148  0.0524
17673PP      PP27777  10.978  15.665  10.705  0.0826  0.1191  0.2088
17674PP      PP27778   5.769   4.536   3.745  0.0208  0.0822 -0.2795
17675PP      PP27779   0.172   0.296   8.874  0.0805 -0.0972  0.0874
17676PP      PP27780   0.882  12.143  12.481  0.1026  0.2555 -0.1762
17677PP      PP27781   6.073   6.567   3.931  0.4625  0.2170 -0.1218
17678PP      PP27782   3.460   5.174   9.797 -0.0440  0.0407 -0.0635
17679PP      PP27783   9.772  11.758  12.267 -0.1444 -0.0238  0.1769
17680PP      PP27784  13.370  14.635   2.331  0.0314 -0.2384  0.0174
17681PP      PP27785   3.125   0.739  11.737  0.0616  0.1243 -0.0801
17682PP      PP27786   9.104  13.987   1.072  0.4296 -0.1310  0.3115
17683PP      PP27787   3.650  11.010   7.636  0.1959 -0.1744 -0.2036
17684PP      PP27788   9.555   5.820  10.513 -0.2776  0.0159 -0.2990
17685PP      PP27789   3.869   4.001  11.488  0.1630 -0.0397 -0.2399
17686PP      PP27790   6.412  10.160  10.648 -0.1548 -0.0692  0.0940
17687PP      PP27791  10.459   3.103  10.092  0.0031 -0.0234 -0.0219
17688PP      PP27792  16.353  11.284   2.747 -0.0253 -0.1197 -0.3437
17689PP      PP27793   8.009   3.271   9.163  0.2671  0.1747  0.2613
17690PP      PP27794  15.306   5.070   0.110  0.2309  0.0593  0.2556
17691PP      PP27795   9.503  11.343   4.053  0.2790 -0.0369 -0.1305
17692PP      PP27796   8.442   0.843   2.125 -0.2207  0.2214 -0.1763
17693PP      PP27797  16.170   4.426  12.214 -0.0937 -0.1097 -0.1733
17694PP      PP27798   9.851  15.112  10.021  0.0559  0.1818 -0.1414
17695PP      PP27799   3.635  13.765   3.316  0.1522 -0.0904  0.1644
17696PP      PP27800   8.590  11.558   9.984  0.0018  0.0951  0.1042
17697PP      PP27801   4.083   8.515  10.475 -0.0010 -0.0032 -0.2241
17698PP      PP27802   4.666   9.873   2.322  0.0148 -0.2627 -0.2007
17699PP      PP27803  13.767   9.774   1.902 -0.0307  0.1679 -0.2294
17700PP      PP27804  12.855  10.828   2.427 -0.2246  0.1186  0.3424
17701PP      PP27805   1.482   8.445   3.770  0.4074 -0.0588  0.0458
17702PP      PP27806   2.081   4.188   2.907  0.0549  0.1109  0.0461
17703PP      PP27807  10.467   7.311   1.293 -0.1111 -0.3068  0.1162
17704PP      PP27808   4.644  13.584   2.395  0.1505 -0.4477  0.0038
17705PP      PP27809  11.190  11.215   0.498  0.4308 -0.3001 -0.0258
17706PP      PP27810  11.962   4.041   8.518 -0.0085  0.0774 -0.1682
17707PP      PP27811   3.530  11.959   7.514  0.1786  0.2401 -0.0455
17708PP      PP27812  15.422   5.400  10.516  0.2048 -0.2172  0.0661
17709PP      PP27813  12.975  10.535   9.558  0.1762  0.3093  0.3869
17710PP      PP27814  13.043   1.085   9.109  0.1263 -0.1335  0.2329
17711PP      PP27815  13.664   3.739   3.805 -0.2147  0.4943  0.1282
17712PP      PP27816   5.191   3.868   3.933 -0.1422  0.3681  0.0361
17713PP      PP27817   9.769   7.402   1.889 -0.3345 -0.1403  0.0644
17714PP      PP27818   2.100  15.371   8.689  0.2487  0.1481  0.1130
17715PP      PP27819   6.205   2.251   2.284  0.0618 -0.1362 -0.1671
17716PP      PP27820   1.701  14.615   0.393  0.0447 -0.2846  0.0074
17717PP      PP27821  13.985  13.396   1.659  0.3118  0.1296 -0.1721
17718PP      PP27822  11.674  10.291   2.907 -0.3054  0.0073  0.1311
17719PP      PP27823   7.023  12.624   1.514  0.1632  0.0863  0.3881
17720PP      PP27824  10.909  12.282   4.395 -0.1607  0.1166 -0.0638
17721PP      PP27825   6.479   3.059   1.421  0.0698  0.2001 -0.0447
17722PP      PP27826   0.591   8.728  12.508 -0.1100 -0.4610 -0.2478
17723PP      PP27827   6.588   7.547   3.903  0.3455 -0.0297 -0.1560
17724PP      PP27828  14.597   1.957   4.137  0.0776 -0.1438  0.1916
17725PP      PP27829   3.460   2.023  12.637  0.0932 -0.0231  0.0264
17726PP      PP27830  16.185  10.939   3.057  0.1566  0.0573  0.3702
17727PP      PP27831  14.343   8.044  10.488  0.2072 -0.2590  0.1123
17728PP      PP27832  14.090   8.579   0.792 -0.2184 -0.1576 -0.1259
17729PP      PP27833   5.291   2.727  10.749 -0.1385  0.0356  0.2677
17730PP      PP27834   9.525  13.612   1.839 -0.2488  0.0147 -0.5070
17731PP      PP27835   8.875   9.474   2.593 -0.1513 -0.2115 -0.0641
17732PP      PP27836   2.389  11.510  11.829 -0.2706  0.0186 -0.0331
17733PP      PP27837   0.892   5.732   7.655 -0.0306  0.0044  0.0819
17734PP      PP27838  11.337  10.166  11.500  0.1363 -0.1567 -0.0366
17735PP      PP27839   9.718   4.661  11.433 -0.2690  0.0115 -0.2494
17736PP      PP27840   4.947   0.893   4.768 -0.2369 -0.2516  0.0790
17737PP      PP27841   3.108  11.793   3.393 -0.1978  0.0790  0.2936
17738PP      PP27842   0.990   4.112   9.021 -0.2722 -0.1333 -0.0122
17739PP      PP27843   2.737   6.408   3.014 -0.0910 -0.2648  0.1398
17740PP      PP27844   4.452   4.691   3.147  0.0473 -0.1931 -0.0482
17741PP      PP27845  12.302  15.463   9.773 -0.2298  0.0126 -0.1115
17742PP      PP27846   1.464   2.470   1.696 -0.0132  0.0337 -0.0742
17743PP      PP27847  12.869   2.612   3.763 -0.1544  0.4766 -0.2151
17744PP      PP27848   5.253  10.548   1.052  0.2273 -0.0690  0.1157
17745PP      PP27849  13.510   9.398   1.633 -0.2102 -0.0235 -0.3035
17746PP      PP27850  13.062  10.583   3.346  0.0007 -0.1102 -0.1828
17747PP      PP27851   3.497  14.784   1.817  0.0403 -0.0558  0.0922
17748PP      PP27852  13.437  14.006  12.197 -0.3059  0.0078  0.0392
17749PP      PP27853   8.766   8.488   1.299  0.0051 -0.4045 -0.0745
17750PP      PP27854   7.846   2.044   1.947  0.0364  0.1789 -0.1979
17751PP      PP27855   6.486   2.476   2.955  0.2936 -0.3637  0.0261
17752PP      PP27856  11.412  11.679   1.092  0.1694  0.0864  0.1517
17753PP      PP27857  12.558  14.168   8.804  0.1869  0.2882  0.1290
17754PP      PP27858   1.317   3.423   3.725  0.0692 -0.1154 -0.0677
17755PP      PP27859   7.694  15.625   4.242 -0.1046 -0.0156 -0.0457
17756PP      PP27860  15.307   8.324   3.346 -0.2646  0.1375 -0.0823
17757PP      PP27861   0.101   1.303   9.483 -0.1759 -0.0679 -0.1836
17758PP      PP27862   2.030   1.993  11.034 -0.0364 -0.1935  0.0932
17759PP      PP27863   2.138   3.568   4.303 -0.0905  0.0837  0.0262
17760PP      PP27864  14.205  15.983   9.028  0.3802  0.2903 -0.0684
17761PP      PP27865  13.075   9.932   9.220  0.0921 -0.0250 -0.1252
17762PP      PP27866   4.378   7.902   1.387 -0.1265 -0.3569  0.0416
17763PP      PP27867  12.139   2.282  11.228  0.0164 -0.2303  0.1930
17764PP      PP27868   3.202  15.517   8.169 -0.4295 -0.0302  0.0850
17765PP      PP27869   6.596  13.796   1.131  0.0561  0.1947  0.0948
17766PP      PP27870  10.683   8.503   0.535  0.1712  0.2666 -0.0271
17767PP      PP27871   8.163  11.791  11.484  0.0435 -0.3336 -0.0090
17768PP      PP27872   1.812   5.149   0.142 -0.1261  0.1736 -0.3911
17769PP      PP27873   5.004   6.675   2.008 -0.0349 -0.1655 -0.1007
17770PP      PP27874   6.125   6.275  12.217 -0.1648 -0.2819  0.2645
17771PP      PP27875   8.948   5.966  12.591  0.1514  0.1475 -0.0912
17772PP      PP27876   5.419  11.919  12.628  0.0673  0.2173  0.2594
17773PP      PP27877   1.590  12.450   2.513  0.2719  0.0431  0.1491
17774PP      PP27878  11.050  11.598   1.839  0.3561 -0.0400  0.2122
17775PP      PP27879   7.050  15.073   4.437 -0.0547 -0.3363  0.0185
17776PP      PP27880   3.173   5.371  10.156 -0.0675 -0.0989 -0.2794
17777PP      PP27881   7.920   4.413   2.714  0.0790 -0.0558 -0.0456
17778PP      PP27882  15.070  16.121   9.492 -0.0284  0.1700  0.0695
17779PP      PP27883  10.320  11.889  11.124 -0.1475 -0.0204  0.1854
17780PP      PP27884  15.377  11.783  12.354  0.0510 -0.1560  0.0896
17781PP      PP27885  15.081   3.302  10.011  0.2319 -0.0478 -0.1138
17782PP      PP27886  10.824  12.739  11.669 -0.0426 -0.4503  0.1201
17783PP      PP27887   5.724   5.414   8.208 -0.0526  0.1341  0.3650
17784PP      PP27888   5.219  14.187  12.536 -0.0967  0.2487  0.3126
17785PP      PP27889   3.745   5.130  11.758 -0.0494  0.1954 -0.3451
17786PP      PP27890   8.209  13.158   2.334 -0.1233  0.1559 -0.0476
17787PP      PP27891   3.901   0.210  12.085  0.0775 -0.0302 -0.1795
17788PP      PP27892  13.666   4.006   0.313  0.0863  0.1544  0.0557
17789PP      PP27893   4.185   3.475   3.035  0.1344 -0.2104  0.0327
17790PP      PP27894   5.947   4.830   2.492 -0.1838  0.1577  0.0314
17791PP      PP27895   5.220  15.458   1.365 -0.0350  0.2530  0.0146
17792PP      PP27896   6.744   7.786   8.978  0.0771  0.0789 -0.0317
17793PP      PP27897  10.199   0.711   2.748 -0.1061 -0.1866  0.1603
17794PP      PP27898   1.150   2.262  12.258  0.0940 -0.3451  0.1421
17795PP      PP27899  11.620   2.362   1.804 -0.1127  0.1591 -0.1624
17796PP      PP27900   2.051   1.273   0.397 -0.0177  0.1999 -0.0944
17797PP      PP27901   7.775  10.346   3.503 -0.3226 -0.3633 -0.0135
17798PP      PP27902  12.345   5.992  12.037 -0.0898 -0.0957 -0.2303
17799PP      PP27903  14.870   5.216   2.332  0.1647 -0.0911 -0.0974
17800PP      PP27904   1.919   2.736  12.385  0.1689  0.3925  0.1069
17801PP      PP27905  15.567  12.482   3.328 -0.0194  0.0499 -0.0868
17802PP      PP27906  13.866   1.923  11.224 -0.2761  0.0632  0.0437
17803PP      PP27907   1.583  12.219   2.051 -0.1408 -0.1333 -0.3360
17804PP      PP27908   1.650   5.907   8.544  0.2206 -0.2968  0.0578
17805PP      PP27909  10.461  12.563   4.187 -0.0139  0.0423 -0.3302
17806PP      PP27910   1.011  11.655   1.788  0.0184  0.1809  0.0021
17807PP      PP27911   1.167   5.956  11.812  0.1270  0.0400  0.0665
17808PP      PP27912   1.804   6.787   9.660 -0.1173  0.2064 -0.2658
17809PP      PP27913  11.325  13.056   0.230  0.0736 -0.4974  0.3038
17810PP      PP27914   5.696   3.329  10.430  0.2652  0.3441  0.0415
17811PP      PP27915   0.214  12.709   1.354  0.0353  0.2739  0.1734
17812PP      PP27916   5.209   4.933   0.433 -0.0890 -0.2395  0.0120
17813PP      PP27917   1.721  11.860  12.269  0.0926 -0.1214  0.2717
17814PP      PP27918  11.713   0.484   9.329 -0.1413  0.1583  0.1446
17815PP      PP27919  13.564   7.999   2.513  0.0051 -0.2625  0.2300
17816PP      PP27920  10.180   0.236   3.708 -0.1153 -0.0926  0.0896
17817PP      PP27921  11.646  12.512   0.108  0.1562 -0.1672 -0.1940
17818PP      PP27922   2.218  14.969   3.855  0.0555 -0.0416  0.0277
17819PP      PP27923   4.538  14.825  12.523 -0.0985 -0.2451  0.0195
17820PP      PP27924  15.516  11.356   9.437  0.1268  0.0633 -0.0721
17821PP      PP27925   1.342  15.006  10.918  0.3612 -0.0147 -0.1143
17822PP      PP27926  12.975   9.505   9.531  0.0254  0.0297 -0.1234
17823PP      PP27927   6.513  11.329   9.869 -0.0260 -0.1477 -0.4262
17824PP      PP27928   2.136   2.497   9.269  0.0534  0.3935 -0.0910
17825PP      PP27929   5.733   2.127   6.524  0.3479 -0.1028 -0.1418
17826PP      PP27930   7.157  14.170  11.513 -0.3521 -0.1564 -0.3166
17827PP      PP27931   9.820   3.224   0.857  0.0827  0.1872 -0.1917
17828PP      PP27932   4.462   5.181   0.931  0.1689  0.3144 -0.0151
17829PP      PP27933  15.644   9.439   3.659 -0.0682 -0.2721 -0.0089
17830PP      PP27934  15.913  13.240   4.449 -0.0304 -0.0456 -0.0334
17831PP      PP27935   7.985  11.449   1.747  0.0338 -0.1923 -0.1779
17832PP      PP27936   2.150   5.400  10.038 -0.2776 -0.0399 -0.4707
17833PP      PP27937   5.699   0.187   8.855 -0.1821  0.0861  0.2925
17834PP      PP27938  10.284   5.628   9.285  0.1266  0.1299  0.1779
17835PP      PP27939  14.998  14.370   1.149 -0.1123 -0.2849  0.0551
17836PP      PP27940   4.364  10.809  12.410 -0.2297 -0.0570 -0.0518
17837PP      PP27941   9.641   4.140   2.613  0.2208  0.0854  0.1490
17838PP      PP27942  12.712   6.687   1.475  0.2848 -0.1547 -0.2809
17839PP      PP27943   7.039   0.658   9.646 -0.0204 -0.1295 -0.4025
17840PP      PP27944   2.706  13.866   3.414 -0.0029  0.1035 -0.4474
17841PP      PP27945  13.853   8.100   2.889  0.0187  0.0336  0.0317
17842PP      PP27946  13.431   7.200   1.818  0.2279 -0.1574  0.0134
17843PP      PP27947  14.613  12.711   2.247 -0.0392  0.0664 -0.0810
17844PP      PP27948  14.392  15.175   0.203  0.2540 -0.3332 -0.1608
17845PP      PP27949  15.407  14.963   8.826 -0.0182  0.0269 -0.2981
17846PP      PP27950  11.251   8.087   3.244 -0.1018 -0.2207 -0.1029
17847PP      PP27951  15.436   6.513   1.818  0.0071  0.2833  0.2094
17848PP      PP27952  10.895  13.788   1.702  0.2406  0.0614  0.2673
17849PP      PP27953  11.023  13.697  12.482 -0.0637 -0.2397  0.0927
17850PP      PP27954  14.841   7.666  10.838 -0.2895  0.0937  0.0461
17851PP      PP27955  10.795   3.431  11.715  0.1045  0.3814 -0.3182
17852PP      PP27956   4.428  14.893   1.457  0.0466  0.2260 -0.0541
17853PP      PP27957  14.901   4.368   7.685 -0.1213 -0.0588  0.0988
17854PP      PP27958  13.197  12.772   2.167  0.1788 -0.1443  0.1274
17855PP      PP27959   0.044   8.635  10.811  0.2199  0.2615  0.2916
17856PP      PP27960   9.749  10.667  11.375  0.2856 -0.0927 -0.0408
17857PP      PP27961  11.803   1.618   0.760  0.1584 -0.0035  0.1639
17858PP      PP27962   7.163  10.157   9.267  0.1217  0.0380 -0.1709
17859PP      PP27963   6.163  11.304   0.614 -0.1878 -0.0219  0.2139
17860PP      PP27964   9.995  12.094   3.040 -0.3543  0.0052 -0.0418
17861PP      PP27965   4.266  10.202  10.774 -0.2924  0.0929  0.2638
17862PP      PP27966   1.247   7.840   8.333 -0.0797  0.1748  0.0176
17863PP      PP27967  11.505   2.515   2.242 -0.1131  0.3839  0.0832
17864PP      PP27968  11.048   6.946  10.399 -0.3775 -0.1426  0.0226
17865PP      PP27969  10.886   2.820   9.557  0.2019  0.2335 -0.0524
17866PP      PP27970   2.644  15.416   0.772 -0.0569 -0.0382 -0.0039
17867PP      PP27971   6.612   0.045   3.662  0.3068 -0.2480 -0.1494
17868PP      PP27972  12.063   2.230   1.978 -0.2839 -0.0122 -0.3064
17869PP      PP27973  12.270   0.109   3.286 -0.0462  0.0150  0.1605
17870PP      PP27974  12.863  12.305   0.685 -0.2608 -0.0909  0.3236
17871PP      PP27975   2.536  12.224  11.296  0.1556  0.2590  0.0186
17872PP      PP27976   3.978   5.218   3.861  0.2930  0.0892 -0.3318
17873PP      PP27977   1.154   7.701  11.907 -0.0466 -0.1084 -0.3464
17874PP      PP27978   2.254  13.887   8.130  0.1480  0.3903  0.0828
17875PP      PP27979   0.460   9.881   0.292 -0.1030 -0.0146  0.5523
17876PP      PP27980   5.312   5.857   1.205  0.2746 -0.1594  0.0297
17877PP      PP27981  11.200   9.084  12.099 -0.1546  0.1874  0.0706
17878PP      PP27982   2.952  14.589   4.207  0.2159  0.0454  0.0151
17879PP      PP27983  12.542  12.484  12.237 -0.0443  0.0036 -0.2570
17880PP      PP27984   1.155   7.342   9.283  0.1681 -0.0419  0.2258
17881PP      PP27985   9.946  11.895   3.815  0.0851 -0.0658 -0.1644
17882PP      PP27986   1.063  13.168   4.036  0.1523  0.0919  0.4939
17883PP      PP27987   7.303  10.303   3.943  0.0131 -0.1335 -0.1209
17884PP      PP27988   5.155   0.007   1.139  0.0057  0.5224 -0.0509
17885PP      PP27989   1.290  14.353   1.586  0.2051  0.2249  0.0688
17886PP      PP27990   2.930  11.320   3.008  0.1941 -0.0869 -0.1270
17887PP      PP27991   6.428  11.091  10.867  0.1703  0.0476 -0.1037
17888PP      PP27992   4.462   5.931   3.635  0.0437 -0.1392  0.0346
17889PP      PP27993   6.718   1.514   9.169  0.0114 -0.3035 -0.2747
17890PP      PP27994   5.049  14.071  11.423 -0.0748  0.2810  0.1093
17891PP      PP27995   6.780  10.056   1.078 -0.2202 -0.0597 -0.1535
17892PP      PP27996  15.712   0.173  11.412 -0.0321 -0.1534 -0.0806
17893PP      PP27997  12.392   9.183   0.739 -0.1454  0.0183  0.0975
17894PP      PP27998  10.354  15.706   9.488 -0.2773 -0.1642  0.0693
17895PP      PP27999   5.203   5.285   2.272  0.3051 -0.0541  0.1599
17896PP      PP28000  10.019  10.881  11.671 -0.3841  0.0418  0.0427
17897PP      PP28001  12.395  13.074   1.474  0.0348  0.0327 -0.0284
17898PP      PP28002   1.361  11.245   1.857  0.1057 -0.0890 -0.0353
17899PP      PP28003  10.082   8.880   0.413 -0.0048 -0.0702  0.1998
17900PP      PP28004  10.393  15.789   3.175 -0.1990 -0.1530  0.0549
17901PP      PP28005   0.822   3.933   0.947 -0.0400 -0.3426  0.1539
17902PP      PP28006   1.189   3.233   8.705  0.0944  0.0718  0.1959
17903PP      PP28007   5.876   5.867   1.195 -0.2390 -0.0788  0.0086
17904PP      PP28008   7.944   6.897   1.938  0.2018  0.2169  0.0174
17905PP      PP28009   7.097  16.067  10.483 -0.0603 -0.0995  0.0962
17906PP      PP28010  14.071   9.217  10.993 -0.2956  0.0534  0.1296
17907PP      PP28011   6.353   1.285   1.127 -0.1222 -0.0503  0.1158
17908PP      PP28012  10.639   5.535   2.078 -0.0606 -0.0785 -0.0989
17909PP      PP28013  11.814  12.077   9.364 -0.1452 -0.3491  0.0794
17910PP      PP28014  15.439   7.108   1.992 -0.2812  0.1636 -0.0352
17911PP      PP28015   0.755   3.682  11.336 -0.0031  0.1853  0.3391
17912PP      PP28016   4.570   0.362   0.790 -0.1136 -0.1640  0.2857
17913PP      PP28017   5.933  11.660   1.361  0.2015  0.2076  0.2355
17914PP      PP28018  12.635  12.724  10.450 -0.1029  0.4871 -0.2089
17915PP      PP28019  13.813  11.565   0.102  0.0266  0.0971 -0.2948
17916PP      PP28020  12.717   9.573  11.913 -0.3189  0.0371  0.2935
17917PP      PP28021   3.723   2.953   8.773 -0.2941  0.2027 -0.0597
17918PP      PP28022  10.577  10.973   8.273 -0.1164 -0.0804 -0.0096
17919PP      PP28023  12.691   4.676   8.498 -0.1064  0.1490 -0.1248
17920PP      PP28024  16.292  15.418   3.172 -0.0344 -0.0312  0.0651
17921PP      PP28025   0.988   3.517  12.617 -0.2291  0.2601 -0.2040
17922PP      PP28026   3.499   0.643   2.352 -0.0064  0.0314  0.1554
17923PP      PP28027  13.619  14.189   2.398  0.0506  0.0087  0.1587
17924PP      PP28028  14.460  12.813  10.179  0.0670  0.4054  0.3071
17925PP      PP28029  15.955   2.670   1.499 -0.0273  0.3313  0.2192
17926PP      PP28030   4.771   8.208   1.583 -0.1296  0.1102 -0.2049
17927PP      PP28031  13.843  15.653   0.592  0.1632 -0.1408  0.0579
17928PP      PP28032   4.286   3.057   2.838 -0.1759 -0.1128  0.2405
17929PP      PP28033   0.292  10.564   1.350 -0.2579  0.0729  0.1938
17930PP      PP28034  11.914   3.255   2.328  0.2463  0.1285 -0.2820
17931PP      PP28035  12.895   9.285   3.039  0.1166 -0.1872  0.0631
17932PP      PP28036  12.277   2.850   0.463 -0.3847 -0.0764  0.1135
17933PP      PP28037   3.846   7.244   3.018  0.1413  0.0068  0.1125
17934PP      PP28038  14.028   7.438   1.367  0.1223 -0.1405  0.3918
17935PP      PP28039   8.266  14.859  11.711 -0.2076 -0.4288  0.0191
17936PP      PP28040   5.109  15.047   2.613  0.0704  0.0071  0.1981
17937PP      PP28041  11.728  13.783  12.222  0.1451 -0.3565 -0.3928
17938PP      PP28042  12.799   2.683  10.939  0.2159  0.0206  0.0736
17939PP      PP28043  12.133   0.346   9.457  0.0486 -0.1190  0.0934
17940PP      PP28044  11.376  15.350   1.626  0.0640 -0.1856  0.0625
17941PP      PP28045   2.070   3.477  11.751  0.2600  0.1233 -0.1172
17942PP      PP28046   3.536   0.866   4.141 -0.2313  0.1645 -0.1524
17943PP      PP28047   8.859  10.574   8.412  0.2364  0.0300 -0.2310
17944PP      PP28048   7.093  11.719  11.223  0.0380 -0.1548  0.4656
17945PP      PP28049  14.964   8.836  11.895 -0.2056  0.1649 -0.5073
17946PP      PP28050  12.882  10.374   2.113  0.1410 -0.0156 -0.1632
17947PP      PP28051   2.325   3.877  12.236  0.2197 -0.0186 -0.3178
17948PP      PP28052   3.482   8.236   1.010 -0.1344  0.1161  0.1856
17949PP      PP28053   7.603   1.612   2.123 -0.0463  0.0020 -0.2085
17950PP      PP28054   8.289   1.803   4.335 -0.1397 -0.1858 -0.0286
17951PP      PP28055   0.112  13.930   3.821 -0.0758 -0.1610  0.1358
17952PP      PP28056   4.607  15.435   9.341  0.1319  0.3060 -0.1436
17953PP      PP28057   5.197   6.674   3.404 -0.0588 -0.2253 -0.3686
17954PP      PP28058   2.377  13.696   1.885 -0.1000 -0.2173  0.0021
17955PP      PP28059  10.231  15.915   0.695  0.2881 -0.0130 -0.0714
17956PP      PP28060  11.132   0.581  11.200  0.0524  0.0907  0.1671
17957PP      PP28061  15.022  15.658   9.251 -0.2168  0.2925 -0.2553
17958PP      PP28062   0.335   3.886   1.818  0.0374 -0.0368 -0.4549
17959PP      PP28063   9.479  13.105   9.166 -0.0149  0.4826 -0.1908
17960PP      PP28064  11.547  14.852  12.700  0.2038 -0.0856 -0.0012
17961PP      PP28065  15.957  13.718   5.907 -0.0487 -0.2132  0.0829
17962PP      PP28066  11.110  15.038  12.706  0.0416 -0.0540 -0.0447
17963PP      PP28067   4.257  14.599   9.064 -0.1533 -0.0963  0.2002
17964PP      PP28068  13.735  12.033   4.114  0.0921 -0.1719  0.0993
17965PP      PP28069  12.023   8.634  10.923 -0.0649 -0.2862 -0.0686
17966PP      PP28070  13.889   1.747   0.843 -0.2877 -0.2953  0.1963
17967PP      PP28071   9.440  15.592  11.493 -0.0425 -0.3998 -0.2497
17968PP      PP28072   9.212  11.048   1.119 -0.0301 -0.0867 -0.1290
17969PP      PP28073  13.522   9.331   0.923 -0.0869 -0.2939 -0.2339
17970PP      PP28074  10.181  15.860  10.489  0.2113  0.1508  0.2718
17971PP      PP28075  12.331  12.309   2.836  0.1335 -0.0757  0.0622
17972PP      PP28076   3.099  14.686   2.955  0.0010  0.1889  0.3566
17973PP      PP28077   8.316   7.533  11.274  0.1190  0.2101 -0.0852
17974PP      PP28078  12.425   3.422  11.897  0.1323  0.3437  0.0429
17975PP      PP28079   5.008   2.606   0.925  0.0794  0.1683  0.1964
17976PP      PP28080   3.888   9.993  11.029  0.1800  0.2187  0.0327
17977PP      PP28081  10.744  11.121  12.185 -0.1031 -0.0232  0.1984
17978PP      PP28082  13.060  12.873   1.254 -0.1021 -0.0909  0.1774
17979PP      PP28083  12.131   9.882  11.829  0.2455  0.2476 -0.2385
17980PP      PP28084   7.618  15.249   4.581  0.0903  0.2562  0.3332
17981PP      PP28085   3.459   0.703   4.580 -0.2936 -0.1483 -0.0993
17982PP      PP28086   8.452   1.672  10.135 -0.1388  0.0066  0.2917
17983PP      PP28087  13.456  15.759   9.201 -0.0921 -0.4746  0.0105
17984PP      PP28088  15.188   5.533   9.668 -0.3153  0.2689 -0.4139
17985PP      PP28089  10.626   0.061   1.554 -0.0948  0.0796 -0.1366
17986PP      PP28090  14.878   9.281   2.789  0.1442 -0.4284 -0.2296
17987PP      PP28091  15.575   8.182   0.261 -0.1131  0.0474  0.2002
17988PP      PP28092   2.316   2.381   2.761 -0.2288  0.1371  0.0402
17989PP      PP28093  13.342  11.989   9.376 -0.2079 -0.0459  0.0765
17990PP      PP28094   3.213   1.579   9.052  0.1107 -0.2283 -0.0900
17991PP      PP28095  15.194   5.647   2.313  0.2241  0.0613 -0.1240
17992PP      PP28096  13.217  11.138   9.644 -0.1189  0.0639  0.2205
17993PP      PP28097   4.180   2.405  10.560 -0.1834 -0.0052 -0.2034
17994PP      PP28098   6.147   2.255   1.790 -0.2597  0.2672  0.1111
17995PP      PP28099   2.884   4.339   1.230  0.3176 -0.2327 -0.0598
17996PP      PP28100   2.140   1.480  10.832  0.0670 -0.0065  0.1042
17997PP      PP28101  13.389   2.648   8.455  0.0388 -0.3027 -0.3606
17998PP      PP28102  14.583   7.039   9.100 -0.1025  0.1543  0.0228
17999PP      PP28103   7.352   2.612  12.669 -0.0660 -0.2813 -0.0353
18000PP      PP28104  14.959  11.164   1.857  0.2368  0.0920  0.0596
18001PP      PP28105   8.554  11.794  12.323 -0.1987 -0.1225  0.3037
18002PP      PP28106  16.241   4.859   0.187 -0.1572 -0.0143  0.0627
18003PP      PP28107   8.428   8.825   9.814  0.2954  0.2775  0.1696
18004PP      PP28108   9.927  11.789   1.450 -0.3177  0.0887 -0.1985
18005PP      PP28109  14.170  10.017   3.223  0.2277 -0.1517  0.3965
18006PP      PP28110   5.409   0.719  12.348 -0.3382  0.2449  0.0990
18007PP      PP28111   4.766   6.608   9.184  0.0522 -0.0527  0.2258
18008PP      PP28112   3.853   8.719   0.606  0.0184 -0.0548 -0.0656
18009PP      PP28113  10.861   3.209   2.853 -0.2490 -0.0881 -0.1970
18010PP      PP28114   2.276  11.607   8.723 -0.2639  0.1906 -0.0387
18011PP      PP28115   5.127   3.892  12.452  0.1040  0.0360 -0.0507
18012PP      PP28116   6.737  10.353   1.563  0.0420  0.0126 -0.1521
18013PP      PP28117   9.081   7.522   0.143 -0.1694 -0.0002 -0.0780
18014PP      PP28118   0.421   5.537   0.844 -0.1388 -0.3527 -0.3225
18015PP      PP28119   5.908  15.568  11.531 -0.0828 -0.0165  0.0248
18016PP      PP28120   8.725  16.060   3.302  0.3100 -0.0480  0.0822
18017PP      PP28121  14.072  13.710   0.910 -0.0820 -0.2326 -0.0481
18018PP      PP28122   0.822   5.121   8.895  0.0935 -0.0066 -0.0970
18019PP      PP28123   1.652  15.446   1.910 -0.2957 -0.0833 -0.3839
18020PP      PP28124  14.549   8.468   0.591 -0.1431  0.1284 -0.0175
18021PP      PP28125   9.565  11.126   2.448  0.0183 -0.1059 -0.0150
18022PP      PP28126  15.316  16.084  12.271 -0.3137 -0.2798  0.1886
18023PP      PP28127  14.963   7.830   0.730 -0.0881 -0.3244 -0.0520
18024PP      PP28128  13.447  10.653   9.779  0.1385  0.0354  0.4836
18025PP      PP28129  13.731  15.295  11.927 -0.0066  0.1464  0.3261
18026PP      PP28130  12.131   1.732  11.074 -0.2873  0.1188  0.1336
18027PP      PP28131   2.449   5.947   3.251 -0.0901  0.2194 -0.0918
18028PP      PP28132   7.502   2.596   0.427  0.2333  0.0632  0.1289
18029PP      PP28133   4.453  16.059   4.120 -0.1205 -0.0186  0.0181
18030PP      PP28134  14.777  14.172   9.319 -0.1841  0.5378  0.3420
18031PP      PP28135   4.978  10.658   9.551 -0.0118  0.3430 -0.0257
18032PP      PP28136  13.265   8.442  10.258 -0.0901 -0.0608 -0.1735
18033PP      PP28137   5.298   4.288   8.763  0.0746 -0.3059 -0.0045
18034PP      PP28138   6.745   5.433  12.504 -0.1998 -0.0105  0.0885
18035PP      PP28139   7.662   1.218   4.157 -0.1314  0.0554  0.1565
18036PP      PP28140  16.358  12.420   9.289  0.1492 -0.2090  0.1363
18037PP      PP28141   4.431  14.604   2.394 -0.0617  0.2360  0.2654
18038PP      PP28142   9.344  12.042  11.060 -0.1667 -0.2070 -0.4603
18039PP      PP28143  11.170   8.604   0.654 -0.0219  0.0871 -0.0127
18040PP      PP28144  14.089  15.843  11.579 -0.0666 -0.1791  0.1920
18041PP      PP28145  11.936   8.552   8.307 -0.0320  0.5533  0.0535
18042PP      PP28146  15.257  11.070   0.340 -0.3159 -0.1364 -0.1232
18043PP      PP28147  12.106   0.439  10.037  0.2068 -0.2904  0.3554
18044PP      PP28148   5.192  13.545   0.350 -0.0538 -0.1640 -0.2968
18045PP      PP28149   5.083  12.146  11.764  0.0420 -0.0359 -0.1320
18046PP      PP28150  10.270  14.329  10.581  0.1932  0.1871 -0.2656
18047PP      PP28151  14.060  10.005  11.464 -0.1577  0.2568  0.4543
18048PP      PP28152   2.226   4.931  10.205 -0.3252 -0.1111  0.1072
18049PP      PP28153   8.889   4.308   8.805 -0.4868 -0.0922  0.0683
18050PP      PP28154   2.287   2.959   1.011 -0.0751  0.0432  0.1063
18051PP      PP28155  10.250   4.244   8.418 -0.4372  0.4005 -0.0123
18052PP      PP28156  15.363   5.370   3.538 -0.0224  0.1587 -0.3664
18053PP      PP28157  10.803   6.871   1.079  0.1218  0.2436 -0.0177
18054PP      PP28158   4.750   3.950   3.726 -0.1324 -0.1469 -0.0198
18055PP      PP28159  16.080  12.556   0.178  0.0395  0.1379  0.4123
18056PP      PP28160   7.176   3.590   4.590  0.0239 -0.2664 -0.1273
18057PP      PP28161   8.834   3.197  12.446 -0.0203  0.3469 -0.1393
18058PP      PP28162   9.192   5.707  10.866 -0.3272  0.1019 -0.0523
18059PP      PP28163   8.049  12.097  12.736 -0.0581 -0.2210 -0.1247
18060PP      PP28164   1.909  10.626   9.837 -0.0543 -0.0720  0.2933
18061PP      PP28165   0.490  13.164  12.720 -0.0862  0.0193 -0.1467
18062PP      PP28166   3.102   1.977   9.892  0.1724  0.0181  0.0248
18063PP      PP28167  10.937  16.268  10.640 -0.1828 -0.0503  0.1197
18064PP      PP28168   9.956  13.687  10.373  0.0822  0.1807  0.2701
18065PP      PP28169   7.945   0.671   3.045 -0.1557  0.1543  0.3262
18066PP      PP28170  15.589   6.408   2.299 -0.1129  0.1649  0.3391
18067PP      PP28171  11.565   9.916   1.561  0.2394  0.2238 -0.1427
18068PP      PP28172  15.170  11.316   0.755 -0.1143 -0.0426  0.0299
18069PP      PP28173   2.221   3.729  10.649  0.0407 -0.0522 -0.1342
18070PP      PP28174   0.229   5.247   8.874 -0.0032  0.0466  0.1274
18071PP      PP28175   7.860   9.719   1.074  0.0561  0.4629  0.3714
18072PP      PP28176   7.056   9.971   3.545 -0.0362  0.3880  0.1122
18073PP      PP28177   7.776  16.188  10.674  0.0689 -0.0529 -0.0705
18074PP      PP28178  15.285   3.383  11.762 -0.0840 -0.3514  0.1838
18075PP      PP28179  14.103   9.402   0.328 -0.1620 -0.0340  0.0785
18076PP      PP28180   9.483   1.387   9.160  0.2927  0.1069 -0.2306
18077PP      PP28181   8.247  13.028   1.439  0.1231 -0.2651 -0.4242
18078PP      PP28182  10.924   5.550   1.177 -0.1649 -0.2260  0.0077
18079PP      PP28183  10.032  10.429   1.294 -0.0741 -0.0696  0.3698
18080PP      PP28184  12.329  15.939   4.016  0.2162  0.0844 -0.5314
18081PP      PP28185  12.327   0.771   9.295  0.1352 -0.0063 -0.0764
18082PP      PP28186  13.742  15.805   9.835 -0.1616  0.0478  0.0387
18083PP      PP28187   8.940   7.277  12.480 -0.0785  0.4399  0.0213
18084PP      PP28188   0.582   0.041   2.179 -0.1120  0.0830 -0.1880
18085PP      PP28189   8.164  16.351   2.065  0.3345  0.1082  0.3449
18086PP      PP28190   3.631   7.202  11.058  0.2285 -0.0086  0.2598
18087PP      PP28191   5.040   2.794   3.398  0.0058 -0.0956  0.1340
18088PP      PP28192   6.817   3.729   1.487 -0.1238  0.0400  0.0865
18089PP      PP28193  13.025   6.622  11.888 -0.0190 -0.0582  0.1285
18090PP      PP28194  12.677   3.009  11.677  0.1585 -0.2093  0.0125
18091PP      PP28195   6.791   8.723   0.110 -0.0720 -0.0702 -0.1079
18092PP      PP28196   0.467  11.611   1.457 -0.1203  0.3783  0.0437
18093PP      PP28197  11.786   7.420  11.304  0.0378  0.1145 -0.0880
18094PP      PP28198   6.987   4.378   1.811  0.2169 -0.0019  0.0006
18095PP      PP28199   0.559  11.611  11.125 -0.0944  0.1423 -0.0978
18096PP      PP28200  10.493   6.319   3.550 -0.2311 -0.2843  0.1062
18097PP      PP28201   6.017   7.911   8.523  0.2679  0.0358 -0.2244
18098PP      PP28202   0.458   9.571   9.002 -0.0605  0.3285  0.3084
18099PP      PP28203   6.432   3.727   8.275 -0.0906 -0.1382  0.2092
18100PP      PP28204   4.342  12.273  10.074  0.1019  0.1483  0.0372
18101PP      PP28205  11.600  16.104   1.028 -0.2618  0.0024  0.1628
18102PP      PP28206   4.299   8.824   0.338  0.1302 -0.1496 -0.1902
18103PP      PP28207   8.379   9.820   2.819  0.1711  0.0075 -0.0984
18104PP      PP28208   8.472   2.149  11.516  0.2206  0.2498 -0.0015
18105PP      PP28209   2.293   7.626  11.133  0.0064 -0.2338  0.0906
18106PP      PP28210   3.038   8.625   2.866 -0.1113  0.2101  0.1082
18107PP      PP28211   5.939  14.539  10.577  0.0715 -0.0443 -0.2392
18108PP      PP28212   4.361   8.167   3.363 -0.0108 -0.2578 -0.2527
18109PP      PP28213   1.329   9.724   2.864 -0.2073 -0.0908 -0.0233
18110PP      PP28214   7.062  12.931   3.565 -0.0787 -0.1409  0.0204
18111PP      PP28215   9.244   4.594   9.658 -0.2108  0.2719 -0.1446
18112PP      PP28216   5.793  10.603  11.877  0.2873 -0.0611 -0.0250
18113PP      PP28217  14.131   1.260  12.668  0.0690 -0.1561 -0.2418
18114PP      PP28218   4.689  12.050   1.389 -0.0687  0.2578  0.1591
18115PP      PP28219   0.767  11.865   9.431  0.0325 -0.0643  0.0185
18116PP      PP28220  11.793   1.875   1.710 -0.0021 -0.0642  0.1391
18117PP      PP28221   4.573   7.792  12.072 -0.0003 -0.3254  0.0530
18118PP      PP28222  10.980   3.442   2.216 -0.1831  0.1478  0.1320
18119PP      PP28223  15.890   9.875  12.298 -0.1463 -0.1346  0.0210
18120PP      PP28224   9.266  11.597   3.208 -0.1122 -0.1685 -0.0112
18121PP      PP28225   9.972   7.530   9.631  0.3225  0.3654  0.0022
18122PP      PP28226  13.084  11.416  12.128  0.2689 -0.0692  0.1777
18123PP      PP28227  10.352  11.023   9.179 -0.1752  0.3781 -0.1626
18124PP      PP28228   6.641  10.698  11.118 -0.0907 -0.1846 -0.2062
18125PP      PP28229  16.054  11.857  11.040  0.4937 -0.0985 -0.2695
18126PP      PP28230   0.651   4.646   2.908 -0.1961 -0.0666 -0.0760
18127PP      PP28231   8.375   7.575   2.353 -0.0253 -0.1715  0.1289
18128PP      PP28232   8.719  15.531   1.771 -0.1105  0.0289  0.2413
18129PP      PP28233  13.208  14.868   1.818 -0.1841 -0.2040 -0.0689
18130PP      PP28234  15.954   8.578   7.772 -0.0456  0.0208  0.1234
18131PP      PP28235   5.702   4.966   0.707  0.0500  0.0464 -0.1982
18132PP      PP28236   8.882   0.336   0.441  0.0301 -0.0037  0.0829
18133PP      PP28237  13.139  14.304  10.002  0.0618  0.1064 -0.0183
18134PP      PP28238   0.029  10.081   1.473  0.0063  0.1498  0.0372
18135PP      PP28239   9.546   6.363   8.054 -0.2430  0.1140  0.0867
18136PP      PP28240  11.394  14.641  10.599 -0.0799 -0.1036 -0.1201
18137PP      PP28241  14.093  12.610   2.381 -0.1004  0.0405  0.0696
18138PP      PP28242  14.158  13.609   3.448 -0.0344 -0.0720 -0.0114
18139PP      PP28243  13.843  11.386   1.615 -0.2170  0.0141  0.1117
18140PP      PP28244  12.248   3.254   1.962  0.0082 -0.0145 -0.0699
18141PP      PP28245   3.417  14.722  10.444  0.0485 -0.0433  0.2295
18142PP      PP28246   0.642   7.275   0.167  0.0098  0.3271 -0.3022
18143PP      PP28247   1.625  15.052   0.652  0.0204  0.1266 -0.0633
18144PP      PP28248   2.989   3.082  10.767 -0.3585 -0.0985  0.1055
18145PP      PP28249   0.197  14.357   1.658 -0.0888 -0.1045 -0.2620
18146PP      PP28250   2.435   1.411  11.871  0.1105 -0.0494 -0.4029
18147PP      PP28251   9.901   2.472  11.379  0.3663  0.1500 -0.1811
18148PP      PP28252   7.663   7.198   9.624  0.0976 -0.2046 -0.0576
18149PP      PP28253   5.405   8.262  11.749 -0.0986  0.0957 -0.2121
18150PP      PP28254   3.986   2.000  11.632  0.0618 -0.2148 -0.0246
18151PP      PP28255   8.521   4.475   0.132 -0.0259 -0.0892  0.0066
18152PP      PP28256   9.521   3.915   3.123 -0.0255  0.0096 -0.1223
18153PP      PP28257  10.404   3.884   1.108  0.0326  0.2431 -0.3521
18154PP      PP28258   5.500  10.555   0.073 -0.0409 -0.2659  0.0151
18155PP      PP28259   8.583   3.250  11.555 -0.2935  0.2580 -0.1886
18156PP      PP28260   4.835  10.976   3.022 -0.3843 -0.2161  0.1573
18157PP      PP28261  11.858   4.990   3.569 -0.2182 -0.1922 -0.2461
18158PP      PP28262   7.564  10.833   0.389 -0.0707 -0.2687 -0.0078
18159PP      PP28263   4.149  12.184   1.586 -0.1981  0.2033  0.2160
18160PP      PP28264   0.479   5.414  11.601 -0.1822 -0.1090 -0.2404
18161PP      PP28265  15.803   8.454  11.437 -0.2389 -0.1629 -0.0203
18162PP      PP28266  15.021  12.572  11.370 -0.0030 -0.1321 -0.0198
18163PP      PP28267  12.746  10.068   2.539 -0.0588 -0.1205  0.1282
18164PP      PP28268  11.255  12.686   4.376 -0.2069 -0.1511 -0.0372
18165PP      PP28269  13.538   6.019   8.527 -0.0941 -0.1492  0.1879
18166PP      PP28270  12.626  12.373  11.394 -0.0066  0.1868  0.1174
18167PP      PP28271  15.152   0.766   9.266 -0.0924 -0.0741 -0.1284
18168PP      PP28272   3.874   7.565  10.584 -0.0365  0.1394 -0.0581
18169PP      PP28273   0.599  16.010   1.410 -0.0657 -0.0681  0.1145
18170PP      PP28274   0.946  11.621   3.634 -0.1536  0.2077 -0.0055
18171PP      PP28275  13.056   5.360  11.152  0.1350  0.1660  0.2236
18172PP      PP28276   1.777   8.191   9.972 -0.0005  0.1397  0.2720
18173PP      PP28277  10.973   9.472  12.616 -0.0506 -0.1339  0.0204
18174PP      PP28278   1.588   0.625   0.387  0.0756 -0.3682  0.2578
18175PP      PP28279   4.844   5.013   0.754 -0.0113  0.3575  0.3134
18176PP      PP28280  12.577   3.196  12.345 -0.0987 -0.0265  0.0311
18177PP      PP28281   6.958  15.141  10.627 -0.0657 -0.1273 -0.0829
18178PP      PP28282  14.050   5.942   3.363  0.2198 -0.1181 -0.0280
18179PP      PP28283   9.185   9.049   2.092  0.1778  0.1098 -0.2111
18180PP      PP28284   7.256   7.519   9.668  0.2474 -0.2858  0.1583
18181PP      PP28285   1.934  15.575   9.757 -0.4508 -0.0179 -0.3300
18182PP      PP28286  16.295   3.941  10.168  0.4338  0.0126 -0.0096
18183PP      PP28287   4.858   4.644  11.028 -0.1198 -0.4004  0.0159
18184PP      PP28288   3.486   9.077  12.238  0.0258 -0.0718 -0.2145
18185PP      PP28289  13.390   4.049   0.708  0.1934  0.4235 -0.0928
18186PP      PP28290  13.824   2.481   8.732  0.0757  0.2596 -0.1518
18187PP      PP28291   5.365   1.444   9.767  0.0099  0.0703 -0.0947
18188PP      PP28292  14.014  14.801  10.709  0.1060  0.1179 -0.3606
18189PP      PP28293  12.114  11.435   2.832 -0.1947  0.2092  0.0442
18190PP      PP28294   6.510  10.655  10.576 -0.1646  0.2510  0.0220
18191PP      PP28295   8.294  15.740  11.158  0.5602  0.3825  0.1961
18192PP      PP28296   5.892  15.978   3.044 -0.0656 -0.2067 -0.2453
18193PP      PP28297  10.561  11.319   2.913  0.0983  0.2323 -0.1166
18194PP      PP28298  13.066   1.828   2.312 -0.0144 -0.2189 -0.0556
18195PP      PP28299  10.969   8.880   9.789  0.1021 -0.2383 -0.1904
18196PP      PP28300  11.682   6.444  11.526 -0.1049 -0.1395  0.3665
18197PP      PP28301  11.896  12.109   0.483  0.0536 -0.1641 -0.1231
18198PP      PP28302  13.262   1.084   8.260  0.0240  0.1531  0.0881
18199PP      PP28303  15.246  12.160  11.557  0.0114 -0.4176 -0.0107
18200PP      PP28304   5.717   5.300   2.418 -0.0918 -0.0343 -0.0633
18201PP      PP28305  11.732   4.256   0.503  0.1810 -0.2454  0.0431
18202PP      PP28306   7.268  12.308  12.337 -0.3262 -0.2782  0.0480
18203PP      PP28307   6.322   6.247   7.576 -0.3755  0.0419 -0.1022
18204PP      PP28308  14.699  10.109  11.905  0.1198  0.0387 -0.0404
18205PP      PP28309   3.707   9.357   8.201 -0.2276 -0.0865 -0.0565
18206PP      PP28310   5.517  14.451   0.289  0.1612 -0.2172 -0.1741
18207PP      PP28311   1.263   8.006  10.986 -0.1522 -0.2028  0.0382
18208PP      PP28312   1.408  15.720   1.038 -0.3223 -0.2022  0.1011
18209PP      PP28313   9.033  11.701  10.152  0.0541  0.1029 -0.4211
18210PP      PP28314  14.612   4.094   3.211 -0.2102 -0.0121 -0.0957
18211PP      PP28315   8.269   2.786   0.478 -0.1612  0.0397  0.1706
18212PP      PP28316  10.264   8.470   3.037  0.1002  0.1581 -0.0650
18213PP      PP28317  15.601   4.340  10.574  0.2061 -0.1253  0.2712
18214PP      PP28318   5.035   1.210   2.357 -0.0053  0.1332  0.1797
18215PP      PP28319   3.019   2.601  10.661  0.1149 -0.1784  0.0537
18216PP      PP28320   7.635   5.189  10.156 -0.1997 -0.1917  0.2097
18217PP      PP28321   4.434   4.599   8.536 -0.0549  0.2503  0.0382
18218PP      PP28322   8.676   7.243   2.115 -0.3970 -0.1496  0.0789
18219PP      PP28323  15.054   3.612   1.390  0.2919 -0.0657  0.1889
18220PP      PP28324  10.700   5.915   1.591 -0.1042 -0.1544  0.1066
18221PP      PP28325  15.041   7.929   9.865 -0.0712  0.0863  0.0072
18222PP      PP28326  14.263   4.724  11.597 -0.0711  0.0728 -0.4451
18223PP      PP28327  14.832   1.606   0.609 -0.1626  0.0862 -0.3810
18224PP      PP28328   5.095   6.273   9.650 -0.1840 -0.2676 -0.4096
18225PP      PP28329  13.297  11.383   3.228  0.3339 -0.0377 -0.0770
18226PP      PP28330   7.554   2.373   8.699  0.0413 -0.2907 -0.3096
18227PP      PP28331   6.640   7.983  11.225  0.0114 -0.1508  0.4236
18228PP      PP28332  13.414  16.356   3.419 -0.1112 -0.1607  0.0873
18229PP      PP28333  14.796   2.657  10.483  0.2400  0.0189  0.3393
18230PP      PP28334  13.249   8.903   3.272  0.1405 -0.1290  0.1648
18231PP      PP28335   9.835   1.000  10.572  0.1292  0.0829 -0.0023
18232PP      PP28336   1.167   6.090   7.824 -0.2294  0.0260 -0.2100
18233PP      PP28337   6.549   4.727   3.719  0.0311 -0.0045  0.0111
18234PP      PP28338   1.780   7.135   8.089  0.0697  0.3795 -0.2238
18235PP      PP28339  13.770  11.720   2.501  0.2274 -0.2456  0.1554
18236PP      PP28340   7.524   6.047   3.219 -0.1889  0.0410 -0.1741
18237PP      PP28341   2.755  14.804  10.533 -0.1319  0.2729 -0.0924
18238PP      PP28342   5.074   0.378   0.679  0.0056 -0.0471 -0.2730
18239PP      PP28343  13.350  12.789   1.666 -0.1801  0.0720  0.1712
18240PP      PP28344   9.539  13.870   0.328  0.1067 -0.3220  0.3904
18241PP      PP28345   6.316  14.169   1.126  0.1383 -0.0209 -0.0363
18242PP      PP28346  15.322  16.260  10.269  0.4465  0.2455  0.0134
18243PP      PP28347   4.774   1.905   1.537 -0.2320 -0.0815 -0.0040
18244PP      PP28348   5.896  12.741   1.314  0.2455 -0.0446 -0.1575
18245PP      PP28349   7.866   4.744  10.139 -0.0334  0.1385  0.1517
18246PP      PP28350   1.576   4.426   2.778 -0.2691  0.3229  0.0014
18247PP      PP28351   3.309   0.345   4.947  0.2779 -0.2964  0.0302
18248PP      PP28352   9.738   0.535  10.031 -0.0216 -0.0601  0.3317
18249PP      PP28353  14.150  11.082   8.844  0.0370  0.0079 -0.1455
18250PP      PP28354  11.648   5.625  12.577  0.1935 -0.1791 -0.0664
18251PP      PP28355   3.334  12.070  10.816 -0.0115 -0.1360  0.2283
18252PP      PP28356   7.841   3.762   1.289  0.0663 -0.1441  0.1264
18253PP      PP28357   4.030  12.586   7.870  0.1527  0.1809  0.0447
18254PP      PP28358  13.116  12.090  12.230 -0.0128 -0.0036 -0.0360
18255PP      PP28359  10.521   6.082   2.080  0.0311 -0.2018  0.2147
18256PP      PP28360   5.817  10.586   9.668  0.2094  0.1797  0.2071
18257PP      PP28361   4.730   6.439   0.718  0.0777  0.0228  0.1724
18258PP      PP28362  11.312   9.753   0.658 -0.0527  0.1809  0.1369
18259PP      PP28363  15.884   6.277   9.173 -0.1667 -0.1910  0.1003
18260PP      PP28364  11.044  15.497  10.016 -0.0562 -0.0404 -0.0077
18261PP      PP28365  16.188  11.580   0.460 -0.2556 -0.0438 -0.1835
18262PP      PP28366   4.463   8.279   1.051  0.1814 -0.2898  0.2183
18263PP      PP28367  14.397   1.224  11.722  0.3241 -0.1508 -0.2409
18264PP      PP28368   4.591  10.717   9.942 -0.1293 -0.3636 -0.1392
18265PP      PP28369  11.405  11.457  11.386 -0.0762  0.1724 -0.1437
18266PP      PP28370   4.466   9.671   1.830 -0.0160  0.0422 -0.0803
18267PP      PP28371  13.231   5.950   3.032  0.1911  0.3652 -0.1998
18268PP      PP28372   6.106   1.686   1.364  0.0994  0.2712 -0.0450
18269PP      PP28373   8.009   8.938   0.776 -0.0942 -0.1478  0.0556
18270PP      PP28374  15.391  13.208   2.682 -0.0015  0.1662  0.1794
18271PP      PP28375   5.564   5.534   2.844  0.0971  0.1501  0.0527
18272PP      PP28376   1.534   6.787  12.608  0.2117  0.0340 -0.1804
18273PP      PP28377  13.620   9.546  11.240  0.0207 -0.1429  0.0569
18274PP      PP28378   7.595   7.796   8.207  0.1182 -0.1180 -0.0005
18275PP      PP28379   1.736   2.506  11.937  0.0385 -0.0530 -0.0045
18276PP      PP28380  10.472   4.127   8.869 -0.0318 -0.1975  0.0917
18277PP      PP28381   0.046   0.502   2.749 -0.1954 -0.0916 -0.0002
18278PP      PP28382   0.271   9.921  11.861  0.0332  0.1529  0.0058
18279PP      PP28383   2.090   0.981  11.750  0.4101  0.0107 -0.0869
18280PP      PP28384   7.028   0.777   4.165  0.3402 -0.1475 -0.0442
18281PP      PP28385   9.265   3.741   9.274  0.0323  0.0797  0.0160
18282PP      PP28386  12.412  12.067   0.261 -0.0225  0.2447  0.0456
18283PP      PP28387  10.537   1.158  11.175 -0.3509 -0.1047  0.0054
18284PP      PP28388  10.993  14.728   9.296 -0.1419  0.0731 -0.0319
18285PP      PP28389   1.398   6.731   3.797  0.1268  0.3287  0.0640
18286PP      PP28390  10.566  10.627  12.074 -0.0499 -0.0700  0.0070
18287PP      PP28391   1.019  14.743   2.073  0.1320  0.0258 -0.2160
18288PP      PP28392   3.051  11.093   7.545 -0.1137  0.1695  0.2220
18289PP      PP28393   5.678   7.913   2.370 -0.3439 -0.1210  0.1912
18290PP      PP28394   1.134   6.610   9.264  0.1055 -0.0919  0.2656
18291PP      PP28395   7.124   5.921  10.808 -0.0158  0.1892 -0.2019
18292PP      PP28396   5.096   4.167   0.270 -0.0194 -0.1199  0.0779
18293PP      PP28397   0.634   4.571  11.525  0.1647 -0.2352  0.1555
18294PP      PP28398  15.355  12.787   2.959  0.2413 -0.3352  0.1045
18295PP      PP28399   9.434   0.067  10.338  0.3763 -0.1301  0.3346
18296PP      PP28400   3.436   6.555  10.388 -0.1458  0.0362 -0.2124
18297PP      PP28401  15.110   5.580  11.342 -0.0449  0.0644  0.0516
18298PP      PP28402  12.951   0.164   3.513  0.1728  0.0989  0.1590
18299PP      PP28403   7.806  12.377  12.273  0.2188  0.0740 -0.1694
18300PP      PP28404  16.255   7.683   9.565  0.0462 -0.1958  0.0695
18301PP      PP28405   4.930   8.152  11.455  0.2227 -0.1417 -0.5349
18302PP      PP28406   1.095  16.094   4.122  0.0030 -0.0498 -0.0036
18303PP      PP28407   8.862   5.333   3.368  0.1169  0.0467 -0.0984
18304PP      PP28408   5.772   0.240   9.991  0.0448 -0.2034  0.2019
18305PP      PP28409  15.539   3.038   1.393 -0.1691 -0.1326 -0.1492
18306PP      PP28410  13.803  12.179   0.757 -0.2116  0.1296  0.3053
18307PP      PP28411   5.674  15.494   2.012  0.1756 -0.1308  0.1454
18308PP      PP28412  13.971  15.815   1.892  0.3789  0.1359 -0.0226
18309PP      PP28413   9.492  10.708   2.051 -0.0254 -0.2479  0.1347
18310PP      PP28414  13.872   7.703  11.242 -0.0651  0.1893 -0.1886
18311PP      PP28415   0.391  10.053   1.120  0.1204 -0.0325 -0.1496
18312PP      PP28416   4.990  14.692   8.489  0.0798  0.0853  0.1169
18313PP      PP28417  10.510   7.899  10.136 -0.0531 -0.1307 -0.1506
18314PP      PP28418   0.967   0.424   8.696 -0.0933 -0.1466 -0.1389
18315PP      PP28419  11.090   5.651   2.255  0.2056 -0.1106 -0.2891
18316PP      PP28420  12.265   8.238   1.474  0.1664  0.0524  0.2105
18317PP      PP28421  15.914  13.854  10.150  0.1570  0.1621  0.1953
18318PP      PP28422   9.880  15.711   0.254 -0.0488  0.1092 -0.0523
18319PP      PP28423  15.655   3.557   8.442  0.1990  0.2154  0.0180
18320PP      PP28424   7.977   0.949  12.169 -0.1038 -0.2064 -0.0977
18321PP      PP28425   1.824  12.319   0.657 -0.2906 -0.1432  0.0746
18322PP      PP28426   7.572   3.535   9.379 -0.2475 -0.0391 -0.0919
18323PP      PP28427   2.767  15.051  10.989  0.1858 -0.0976  0.1035
18324PP      PP28428  14.241   4.702   8.417  0.1386 -0.3285  0.0800
18325PP      PP28429  16.112   2.530   2.878  0.2217  0.3607  0.2271
18326PP      PP28430  15.634   1.181  11.577  0.0743 -0.2595  0.2202
18327PP      PP28431   5.375   7.538   7.940 -0.1391 -0.2222 -0.0451
18328PP      PP28432   9.324   1.473   0.559 -0.1719  0.0543  0.1988
18329PP      PP28433   2.859   3.934   8.614  0.1794 -0.1237  0.1629
18330PP      PP28434   9.916   2.114   0.246  0.1581 -0.2019 -0.2474
18331PP      PP28435   9.495  10.374  12.332 -0.1233  0.1676  0.0669
18332PP      PP28436   3.921  15.233  11.775  0.2245  0.2365 -0.1506
18333PP      PP28437   9.069   7.605   2.264 -0.0227 -0.0101  0.0330
18334PP      PP28438  14.128  11.207  12.655  0.1378  0.2479 -0.1818
18335PP      PP28439  13.233   4.559  12.621 -0.2926  0.0425  0.0948
18336PP      PP28440   2.082  11.188   8.606  0.1193 -0.1320  0.4397
18337PP      PP28441  15.198   8.037  11.997 -0.1097  0.2215  0.1718
18338PP      PP28442   2.328  11.262   9.132  0.1494  0.0157 -0.1000
18339PP      PP28443   3.492  14.929   8.233  0.1465 -0.1168  0.1590
18340PP      PP28444   1.515  14.768  11.383  0.0238  0.2289 -0.1774
18341PP      PP28445  15.530   1.453   8.089 -0.1509 -0.3492  0.2063
18342PP      PP28446   5.918   7.032   8.008  0.0628  0.1586  0.0349
18343PP      PP28447   3.483   1.933  11.494 -0.0413  0.1057  0.2677
18344PP      PP28448  11.309   5.851  11.000  0.1127 -0.1667 -0.0391
18345PP      PP28449  15.792  10.800   3.415 -0.0515  0.2192  0.2961
18346PP      PP28450   8.520   7.577   0.031 -0.0270 -0.1896  0.2631
18347PP      PP28451   1.151   1.517  10.747  0.2912  0.2730  0.0326
18348PP      PP28452   2.988   3.796  11.538 -0.1050 -0.0124 -0.0666
18349PP      PP28453  14.055   7.552   0.797  0.1924 -0.1076  0.1782
18350PP      PP28454   8.508  16.162  11.315  0.1515 -0.0389 -0.1869
18351PP      PP28455   2.161   3.974   9.317 -0.1532 -0.3422  0.0052
18352PP      PP28456   1.398   1.135   9.083 -0.2611 -0.0841  0.0352
18353PP      PP28457   9.768   7.440  11.835 -0.3325  0.3873  0.0527
18354PP      PP28458  10.102  14.234   9.702  0.0286 -0.0961 -0.0660
18355PP      PP28459   0.942   3.066   2.817  0.0482 -0.1641  0.2919
18356PP      PP28460   6.493   0.938   3.540  0.2387 -0.1055 -0.2236
18357PP      PP28461  10.210  11.845   8.336  0.2170 -0.0210 -0.1364
18358PP      PP28462   7.484   2.426   1.766 -0.3171  0.4795  0.0228
18359PP      PP28463   8.452  10.161   1.081  0.1229  0.0528 -0.1618
18360PP      PP28464   3.339   0.678   0.498 -0.2993  0.0805  0.1558
18361PP      PP28465   6.886  12.285   2.999 -0.1974 -0.0471 -0.1634
18362PP      PP28466   9.845   9.463  11.943 -0.0157 -0.4814 -0.2489
18363PP      PP28467   8.509   2.476   9.866 -0.1239 -0.2459  0.2436
18364PP      PP28468   1.411   9.743   0.006 -0.2434 -0.2052  0.0596
18365PP      PP28469   9.365   9.212   9.591 -0.2390 -0.2027  0.2138
18366PP      PP28470  11.459   6.026   2.152 -0.0349 -0.2889 -0.1621
18367PP      PP28471   6.477   3.230   8.761  0.1209  0.2465 -0.2106
18368PP      PP28472   7.566   6.812   9.320  0.2140 -0.0625 -0.1837
18369PP      PP28473  15.148   1.438   9.430  0.0801  0.0171  0.4049
18370PP      PP28474  12.004  13.278   2.120  0.2073 -0.3556  0.2348
18371PP      PP28475  15.015   9.242   8.314 -0.0678  0.0844  0.1813
18372PP      PP28476   5.335   7.585   2.265 -0.0396 -0.1121  0.1909
18373PP      PP28477   4.969   6.251   8.848 -0.0166 -0.1630 -0.0185
18374PP      PP28478  10.705  14.486   0.560  0.1743 -0.1754  0.1708
18375PP      PP28479   5.498   5.889   0.253  0.0379  0.0480  0.3344
18376PP      PP28480   8.833   3.365   1.024 -0.1031 -0.3606 -0.0629
18377PP      PP28481   5.937  11.351  10.625  0.0808 -0.3436  0.1679
18378PP      PP28482  12.534  16.117  12.600  0.1446  0.0553 -0.0319
18379PP      PP28483  11.071  10.803  11.342 -0.0452  0.2187 -0.0509
18380PP      PP28484   2.126   8.934   2.213 -0.0074  0.0100  0.2886
18381PP      PP28485   8.464   9.647   9.050  0.0927  0.2190 -0.1558
18382PP      PP28486   9.965   7.572   3.780  0.0029  0.0812 -0.0230
18383PP      PP28487  10.547   8.388   8.049 -0.0275 -0.3341  0.1041
18384PP      PP28488   7.004   7.726   3.655  0.0860 -0.1203 -0.2278
18385PP      PP28489   0.653  13.514   1.741 -0.2907 -0.2558 -0.0646
18386PP      PP28490  14.388   8.115   3.206 -0.3880 -0.2083 -0.3238
18387PP      PP28491  11.596  13.971   4.455 -0.2928  0.1072 -0.2945
18388PP      PP28492   0.098  15.314   0.553  0.1213  0.1129 -0.0879
18389PP      PP28493  13.361  10.828   2.191 -0.4224  0.0355  0.2301
18390PP      PP28494  10.167  12.573  11.028  0.1368 -0.2701 -0.2199
18391PP      PP28495   9.231  11.479   0.558  0.3184 -0.2405  0.1334
18392PP      PP28496   7.704  11.047  12.678 -0.1552  0.1332 -0.1354
18393PP      PP28497   6.357   6.826  12.337  0.0887 -0.2142 -0.0239
18394PP      PP28498  11.680   6.878   1.080  0.1601  0.1150 -0.1911
18395PP      PP28499   4.207   2.301  12.030 -0.1361  0.0845  0.0511
18396PP      PP28500   6.477  10.541   1.172  0.2670  0.1150 -0.2275
18397PP      PP28501   3.760   1.149   4.522 -0.0316  0.0917  0.1613
18398PP      PP28502  12.891  13.604   0.280  0.1744 -0.2130 -0.0891
18399PP      PP28503   2.291  13.840  11.727 -0.2678  0.2018  0.1633
18400PP      PP28504   7.036  15.915   4.751 -0.2840  0.1048 -0.0314
18401PP      PP28505   5.983   9.836  10.497  0.0777  0.1001  0.4093
18402PP      PP28506   6.572  11.609   2.048 -0.1250 -0.1291  0.1726
18403PP      PP28507  14.275  10.784   2.626 -0.2436  0.1887 -0.2184
18404PP      PP28508   6.792   5.870   9.924  0.3035 -0.4737  0.1498
18405PP      PP28509  13.919   0.151   3.453 -0.1091  0.0645 -0.0730
18406PP      PP28510  14.596  13.191   2.419 -0.0093  0.0248  0.0373
18407PP      PP28511  11.904  10.926   0.707 -0.0623 -0.2566 -0.0247
18408PP      PP28512   7.010   1.626  10.232  0.1462  0.0494  0.0499
18409PP      PP28513  14.886  10.674   9.818 -0.1586 -0.3401 -0.1226
18410PP      PP28514   6.766   1.087  10.551 -0.4936 -0.1094 -0.3313
18411PP      PP28515   3.320  15.467   9.976 -0.3155 -0.1072  0.0097
18412PP      PP28516   4.188  15.875   3.329 -0.4233 -0.3918 -0.1996
18413PP      PP28517   8.669  15.583  12.607 -0.0461  0.1381  0.0055
18414PP      PP28518  10.008  12.672   8.932  0.0083  0.3098  0.2192
18415PP      PP28519  16.012   4.911   3.144 -0.1863 -0.0175 -0.4153
18416PP      PP28520   3.503  14.488  11.997 -0.1215 -0.2258  0.1041
18417PP      PP28521   6.830  12.900  10.067 -0.1332 -0.1557  0.0421
18418PP      PP28522  10.876   1.799   9.704 -0.1606 -0.1962  0.0364
18419PP      PP28523   5.598   9.666   8.648  0.0616  0.1381 -0.0567
18420PP      PP28524  10.109  12.024   1.033  0.2674  0.0972  0.1396
18421PP      PP28525  15.855   3.827   3.082 -0.1171 -0.0049 -0.2482
18422PP      PP28526   9.414   9.336   1.206  0.0835 -0.0031  0.0996
18423PP      PP28527   0.322  15.559   9.215 -0.1257  0.1176 -0.1307
18424PP      PP28528   6.798  14.246   4.110  0.2084  0.1174  0.0047
18425PP      PP28529  15.022   0.641   1.951 -0.2152 -0.0319 -0.1951
18426PP      PP28530   0.571   9.405   4.098 -0.2798  0.1174  0.2395
18427PP      PP28531   4.813   5.771   2.167 -0.0428  0.0121 -0.2627
18428PP      PP28532   4.846   2.167   1.083 -0.0964 -0.3100 -0.1225
18429PP      PP28533  15.442   5.005   0.537  0.0431  0.2862 -0.0033
18430PP      PP28534  14.422  10.761  12.526 -0.2978 -0.0325  0.0429
18431PP      PP28535  13.609  10.372  10.769  0.1910  0.1387  0.1519
18432PP      PP28536  11.343  15.978   0.195  0.3896  0.0229 -0.3160
18433PP      PP28537   7.329   7.972   8.649 -0.0519 -0.0605 -0.0220
18434PP      PP28538   3.316   4.218   9.910 -0.1635  0.1175  0.2698
18435PP      PP28539   9.977   9.220   0.085  0.3304  0.2148  0.0762
18436PP      PP28540  14.997   6.837   9.948 -0.3567 -0.1729 -0.3430
18437PP      PP28541   0.396   1.297  10.975  0.1877  0.1064  0.0419
18438PP      PP28542  11.156  12.593   2.865  0.0790  0.0433 -0.2441
18439PP      PP28543  12.189   3.245   9.688 -0.0102 -0.2659 -0.0300
18440PP      PP28544  15.255  10.141   7.654 -0.1681 -0.0134  0.3148
18441PP      PP28545   3.315   2.801  12.010 -0.1730 -0.2382  0.2356
18442PP      PP28546   1.684   0.847  10.229  0.0931 -0.0892 -0.0332
18443PP      PP28547   6.977  12.107   1.733  0.2169  0.0536 -0.0955
18444PP      PP28548   4.205   0.119   1.025 -0.0196  0.1521 -0.0788
18445PP      PP28549  11.834  14.094   9.412  0.0167 -0.1902  0.1281
18446PP      PP28550   6.265   9.015   1.980  0.0333  0.2531 -0.3181
18447PP      PP28551   2.973   4.755   3.042  0.1089  0.0721  0.1093
18448PP      PP28552  11.061   7.708   3.467  0.2384  0.2502 -0.0662
18449PP      PP28553  16.231   9.915   3.040 -0.0698 -0.0826 -0.1095
18450PP      PP28554   5.526  15.589   3.939  0.1332  0.0152 -0.0451
18451PP      PP28555  10.038   2.360   3.344  0.0612 -0.2474  0.1087
18452PP      PP28556  15.564   7.857   2.837 -0.1534 -0.1891  0.0231
18453PP      PP28557   3.860   9.615   1.747  0.0793 -0.1787 -0.2416
18454PP      PP28558   2.167  11.505   1.951  0.2565 -0.0054 -0.1498
18455PP      PP28559  10.966   4.295   9.745 -0.0008 -0.0599  0.1081
18456PP      PP28560  12.089   5.795   3.426  0.3701 -0.2192 -0.1810
18457PP      PP28561  10.214   7.343  12.026  0.1348  0.3187 -0.0204
18458PP      PP28562   9.943   1.145   0.119 -0.3086  0.3285  0.1677
18459PP      PP28563  13.804  12.876   3.823 -0.2211  0.3557 -0.0191
18460PP      PP28564   2.054   5.981  12.327  0.1464  0.0072  0.2185
18461PP      PP28565   5.426  13.578  10.692  0.0591  0.0753  0.1722
18462PP      PP28566  11.046  16.202   9.172 -0.1908  0.0918 -0.0649
18463PP      PP28567  12.449  16.130  11.303  0.2686 -0.0283  0.1942
18464PP      PP28568  11.539   4.905   3.968 -0.1312 -0.1009  0.1124
18465PP      PP28569  10.114   5.521   8.770 -0.5878 -0.0066 -0.0877
18466PP      PP28570   1.100   9.329   1.718  0.0248 -0.1852 -0.0288
18467PP      PP28571  10.869  13.571   4.616 -0.0775 -0.0402 -0.0285
18468PP      PP28572   3.425   4.889   8.253  0.0556 -0.3118 -0.4294
18469PP      PP28573  15.635   9.419   1.645 -0.3619 -0.0207 -0.1914
18470PP      PP28574  10.430   7.875   8.836 -0.0681  0.0618 -0.0169
18471PP      PP28575   9.539  10.061   8.586 -0.1747  0.0141 -0.0856
18472PP      PP28576  12.945  13.954   2.945  0.1737  0.0641 -0.0999
18473PP      PP28577  12.570   7.702  10.525 -0.0527  0.1022 -0.1163
18474PP      PP28578   8.811   5.939   2.901 -0.2564 -0.0948  0.0675
18475PP      PP28579  10.471  13.624   2.346  0.4596  0.0375 -0.0855
18476PP      PP28580  12.708   4.554  11.393  0.0375  0.1665 -0.1404
18477PP      PP28581   5.024   8.513   3.348 -0.2402  0.1540 -0.1799
18478PP      PP28582  16.323   8.521   9.141 -0.0642  0.1117  0.4661
18479PP      PP28583   8.813   1.428  12.506 -0.2443 -0.6628  0.0090
18480PP      PP28584   0.568   9.915  10.249  0.1374 -0.2714  0.1032
18481PP      PP28585  14.260  16.015   3.843 -0.1511 -0.1285  0.1673
18482PP      PP28586   4.987  11.136   9.871 -0.2077 -0.0150 -0.0658
18483PP      PP28587   7.175   0.843   1.045  0.3028  0.4159  0.0486
18484PP      PP28588  10.168  12.502   9.647  0.1586  0.0894  0.3353
18485PP      PP28589   5.284  13.343  11.615  0.0366  0.1025  0.0160
18486PP      PP28590   9.934   6.681   4.551  0.0192 -0.0232 -0.1440
18487PP      PP28591   3.147  10.603  11.289 -0.3619  0.0602 -0.1169
18488PP      PP28592   2.021  11.634   9.637 -0.2238  0.2276  0.1844
18489PP      PP28593   9.291   5.901   0.245  0.3005  0.1180  0.1558
18490PP      PP28594  14.880   9.533  12.214 -0.2495 -0.0920  0.0779
18491PP      PP28595  12.654   7.476   2.471 -0.0045 -0.3764  0.0990
18492PP      PP28596  13.052   7.495  12.103  0.2430 -0.2239 -0.4369
18493PP      PP28597   1.663   5.236   9.840 -0.1167  0.0614  0.0004
18494PP      PP28598  11.941   3.661  10.094 -0.1391 -0.0212 -0.0645
18495PP      PP28599   6.303   5.570  12.363  0.1545  0.1005  0.3426
18496PP      PP28600  12.734  15.281  11.173 -0.0313 -0.1719 -0.0807
18497PP      PP28601  13.996  11.374   3.402  0.0413 -0.4080 -0.0066
18498PP      PP28602   8.762   7.630   8.210  0.1608 -0.2687 -0.0193
18499PP      PP28603  13.963  14.936   8.686 -0.1866 -0.1217  0.0133
18500PP      PP28604  12.606  12.060   1.964  0.2071  0.1474 -0.0008
18501PP      PP28605  10.549  13.459  12.522  0.0812  0.0379 -0.2238
18502PP      PP28606  10.587   2.626   9.986  0.1599 -0.3219  0.0194
18503PP      PP28607   7.774  15.479  10.767 -0.1333 -0.0682 -0.2089
18504PP      PP28608  15.354  14.355   3.368 -0.0604  0.0956 -0.1683
18505PP      PP28609  15.430   8.686  11.188  0.0380  0.0466  0.1452
18506PP      PP28610   5.863   1.927   9.230  0.0900  0.0336 -0.0930
18507PP      PP28611   7.155   8.955   0.635 -0.1151  0.0415 -0.1652
18508PP      PP28612  11.078   2.131   0.124 -0.1771  0.2007  0.3685
18509PP      PP28613   7.503   0.767   4.000 -0.0364 -0.1170 -0.2345
18510PP      PP28614   2.642   4.600   4.125  0.0219  0.2724  0.0720
18511PP      PP28615   2.124   0.627  10.070  0.1253 -0.0409  0.1397
18512PP      PP28616   4.708  12.702   0.551 -0.3396 -0.0688 -0.0538
18513PP      PP28617  12.179   7.192   8.811 -0.0957  0.1761 -0.1210
18514PP      PP28618   5.726  10.541   8.871  0.1567 -0.1795  0.0645
18515PP      PP28619  10.009  14.165   9.169  0.4704 -0.2443 -0.0612
18516PP      PP28620   4.534   2.368   0.662  0.2100  0.3387 -0.0682
18517PP      PP28621   8.777   1.160   1.850 -0.4537  0.1073 -0.0065
18518PP      PP28622   8.149   3.719   2.128 -0.0823  0.2153 -0.0829
18519PP      PP28623  10.353  16.122  12.298  0.0580  0.3787  0.0071
18520PP      PP28624   6.042   3.243  11.428  0.1053 -0.4644  0.1102
18521PP      PP28625  14.832   8.664   3.292  0.1734  0.2541  0.1917
18522PP      PP28626   5.808   1.240  10.552  0.3038 -0.0629 -0.1646
18523PP      PP28627   4.602   3.567   3.330  0.1161  0.1479 -0.2092
18524PP      PP28628   5.159  12.339   8.892 -0.0846  0.0606 -0.0149
18525PP      PP28629  12.847  11.861  10.175  0.0696 -0.0665  0.0572
18526PP      PP28630   0.896   4.016   8.375  0.0663  0.0424 -0.1416
18527PP      PP28631   1.559   4.232   3.292  0.1520  0.1112  0.3671
18528PP      PP28632  10.720   7.392  11.464 -0.1610  0.1150 -0.1174
18529PP      PP28633  14.604   0.900  12.037 -0.1638  0.0762 -0.1392
18530PP      PP28634  16.038  12.681   3.438  0.1698 -0.1453  0.2432
18531PP      PP28635  12.227   8.131   0.891  0.1196 -0.0285 -0.2178
18532PP      PP28636   9.420   8.438  11.267  0.2549 -0.2534 -0.1253
18533PP      PP28637  14.034   3.219  11.969 -0.0689 -0.0099 -0.0867
18534PP      PP28638  15.574  11.299   2.874  0.0557  0.0498  0.2634
18535PP      PP28639  11.013   3.763   3.613 -0.1710  0.2627  0.0855
18536PP      PP28640   6.364   8.877   0.397  0.1985  0.0958  0.3181
18537PP      PP28641  11.853   6.301   8.033  0.0290 -0.3651 -0.2003
18538PP      PP28642  10.443   3.458   2.271  0.0314 -0.1636  0.0077
18539PP      PP28643   4.055   8.009   8.750 -0.0040 -0.0225  0.1332
18540PP      PP28644   3.810   6.566  12.540 -0.0529 -0.0944 -0.2065
18541PP      PP28645  11.832  12.072   1.162  0.2417  0.0671 -0.0660
18542PP      PP28646   7.265  13.013   4.171 -0.0364  0.1971  0.0635
18543PP      PP28647   3.041  15.754   1.686 -0.2096  0.2436  0.1656
18544PP      PP28648   1.744  13.085  10.110 -0.0126 -0.3833 -0.0787
18545PP      PP28649  15.384   4.383   3.861  0.2112  0.2923  0.1328
18546PP      PP28650   5.533  15.010   1.496 -0.1192  0.0721  0.2641
18547PP      PP28651   4.597   2.900   0.781 -0.0750  0.0375  0.0112
18548PP      PP28652   6.809   3.355   4.397 -0.0473  0.2695  0.1095
18549PP      PP28653   6.280  12.983   3.508  0.0344  0.3236  0.2220
18550PP      PP28654   7.027   6.530   8.605 -0.3082  0.1946  0.0465
18551PP      PP28655   1.164  13.392   1.715  0.3047  0.0608  0.2335
18552PP      PP28656   5.663   5.304  10.866 -0.2203  0.1389  0.2007
18553PP      PP28657   0.308  10.998   8.440 -0.0959 -0.1532  0.0737
18554PP      PP28658   5.937   7.041  10.038 -0.2716  0.1567  0.0280
18555PP      PP28659   7.693  12.648   0.239  0.0821  0.1104 -0.0667
18556PP      PP28660   4.491  15.446   3.444 -0.2034  0.0959 -0.0645
18557PP      PP28661   1.592   4.095   9.967 -0.1130 -0.0277  0.1376
18558PP      PP28662   6.031   4.608  11.654 -0.1097 -0.0533 -0.0414
18559PP      PP28663  14.145   4.353  10.177 -0.0539 -0.1576 -0.0615
18560PP      PP28664  16.349  14.589   1.077 -0.1183 -0.2957  0.1122
18561PP      PP28665  16.071  16.164  12.089  0.0468 -0.0841  0.2513
18562PP      PP28666   0.968   2.722   1.610 -0.0448  0.0991  0.1493
18563PP      PP28667   3.703  10.164   1.980  0.0025  0.1714 -0.0564
18564PP      PP28668   7.896   9.500  10.196  0.1939  0.0637 -0.0296
18565PP      PP28669  10.873  12.195  10.149 -0.0943  0.0914 -0.0872
18566PP      PP28670  14.855   4.792   9.157  0.1732  0.0251 -0.0561
18567PP      PP28671   6.686  10.317   0.704 -0.3708 -0.1759  0.1277
18568PP      PP28672   4.463  13.498   7.776 -0.1963 -0.1653  0.0836
18569PP      PP28673  12.236   7.837   0.461 -0.0287  0.1718 -0.3220
18570PP      PP28674  11.984   1.243   0.411 -0.0638 -0.2782  0.0855
18571PP      PP28675  15.758   8.506   0.580  0.0792 -0.3357 -0.0707
18572PP      PP28676  12.283   3.184   1.490 -0.0840 -0.1619  0.1100
18573PP      PP28677   6.023   4.534  12.125  0.0127 -0.2710 -0.0093
18574PP      PP28678   4.093  13.898  10.333 -0.0840  0.1154  0.1984
18575PP      PP28679   0.969   6.040   2.551  0.2331  0.1738 -0.0644
18576PP      PP28680  10.721   5.198   9.378  0.1897 -0.0422  0.0699
18577PP      PP28681  14.478   2.850   2.426 -0.0327 -0.1992  0.1335
18578PP      PP28682   2.680  16.127   4.297  0.3010  0.0284  0.3318
18579PP      PP28683   1.324   6.872   1.742  0.4333  0.1668  0.0301
18580PP      PP28684  14.642   5.560   2.645 -0.0084 -0.1336 -0.1042
18581PP      PP28685  13.184  13.865  11.784  0.2601 -0.1080 -0.2180
18582PP      PP28686   0.605  14.678   8.885  0.0229 -0.1444  0.2006
18583PP      PP28687   6.065  10.967   2.576  0.0046  0.0116  0.0152
18584PP      PP28688   5.119   5.017   8.171 -0.1122 -0.0942 -0.0343
18585PP      PP28689   1.658   0.208  10.159  0.0053 -0.0171 -0.0312
18586PP      PP28690   0.814   1.484  12.127  0.1598 -0.0905  0.1771
18587PP      PP28691  13.419   9.925   9.708  0.1976  0.2571  0.2283
18588PP      PP28692  13.132   7.786  12.477  0.0696 -0.0190 -0.0082
18589PP      PP28693  12.905   5.225  10.641 -0.1437  0.2852 -0.1940
18590PP      PP28694   5.670  15.852  10.771 -0.1197  0.4359  0.3009
18591PP      PP28695   2.713   3.255   4.365  0.1580 -0.0485  0.2184
18592PP      PP28696   0.972   6.348   3.910 -0.0151  0.1062 -0.1173
18593PP      PP28697   7.593   9.661  11.129 -0.0414  0.1238  0.0492
18594PP      PP28698   9.536   2.852   9.839  0.1808  0.1256  0.2486
18595PP      PP28699   8.682   1.862   7.715  0.3906  0.1495  0.3122
18596PP      PP28700   3.743  13.416   2.197 -0.0405  0.1373 -0.0425
18597PP      PP28701  12.970   0.415   1.669  0.1170 -0.0385  0.0108
18598PP      PP28702   7.950   3.382  11.072  0.0135 -0.1648  0.1095
18599PP      PP28703  13.401   6.418   8.207  0.0516  0.0816  0.2255
18600PP      PP28704   2.656   9.277  10.986  0.1448 -0.1832  0.0475
18601PP      PP28705   5.991  12.368   9.159  0.0233 -0.1146  0.0687
18602PP      PP28706   7.126   5.967   1.544 -0.0833  0.0730  0.0136
18603PP      PP28707   9.606   8.595  12.257 -0.2894  0.0251 -0.0736
18604PP      PP28708  13.881   1.195   0.795 -0.0058 -0.0566  0.0595
18605PP      PP28709  11.445   4.622   0.283  0.3467 -0.1372  0.0048
18606PP      PP28710  14.669  11.901   3.603  0.0047  0.1022  0.1952
18607PP      PP28711   1.885   9.742  12.628  0.0589  0.1444  0.0894
18608PP      PP28712  11.866  13.678  11.809 -0.1950  0.2426  0.0853
18609PP      PP28713   6.499  13.271   2.596  0.3052  0.0336 -0.0960
18610PP      PP28714   3.365  13.487   8.784 -0.2309 -0.0646  0.3561
18611PP      PP28715   5.551  12.661   2.263  0.0920 -0.3748 -0.0236
18612PP      PP28716  11.587   9.386   9.143 -0.0191  0.3082 -0.0674
18613PP      PP28717   1.761  10.736  11.211  0.0409  0.2171 -0.0441
18614PP      PP28718  11.297  13.860   0.865 -0.2130  0.0260 -0.0221
18615PP      PP28719   0.258  13.904  10.904 -0.1960 -0.2899  0.0076
18616PP      PP28720  14.010  13.942  11.408  0.0479  0.1473 -0.0164
18617PP      PP28721  14.553   8.859   0.908  0.0571  0.2553  0.1922
18618PP      PP28722   3.588   6.474   9.461  0.0921  0.2174  0.0858
18619PP      PP28723  10.355  13.085  11.765 -0.2600 -0.2032  0.4608
18620PP      PP28724   5.310   4.965   1.851 -0.2079  0.0712  0.1044
18621PP      PP28725   4.935  14.624   3.220  0.3180  0.4557 -0.0086
18622PP      PP28726   4.336   2.467   9.175 -0.1173 -0.1800  0.2239
18623PP      PP28727   9.862  12.973  12.630  0.1103 -0.0696  0.0320
18624PP      PP28728  10.379   2.880   4.048  0.1992 -0.1980  0.1688
18625PP      PP28729  14.413   4.313   2.278 -0.0984  0.1029 -0.0317
18626PP      PP28730  11.127   2.414   1.910 -0.1519 -0.0080  0.1746
18627PP      PP28731   1.023   6.951   8.844  0.0571 -0.2719  0.2605
18628PP      PP28732  16.036  13.574  11.765 -0.2362  0.2323 -0.0149
18629PP      PP28733   8.513   1.434   0.428  0.1069 -0.0929  0.1080
18630PP      PP28734  10.177   5.562   9.720  0.0496 -0.0881  0.2713
18631PP      PP28735   2.201  13.274   1.399  0.0698 -0.1433 -0.3116
18632PP      PP28736   1.638   5.961  10.526 -0.4326  0.0205  0.1940
18633PP      PP28737   2.198  12.739   1.388 -0.0871 -0.0857  0.2888
18634PP      PP28738   3.937  12.535   3.503 -0.1430  0.1106 -0.0074
18635PP      PP28739   4.224   8.586   8.788  0.0505  0.1931  0.0362
18636PP      PP28740  16.245   3.515  10.939 -0.1684  0.1715 -0.3002
18637PP      PP28741   5.260   0.067   2.164  0.0239 -0.0645 -0.0475
18638PP      PP28742  12.067   6.871   0.429  0.1146 -0.1161  0.2235
18639PP      PP28743   0.731   1.342   4.278  0.0570  0.2031  0.3435
18640PP      PP28744   4.235   5.032   2.563 -0.3064 -0.0771  0.1764
18641PP      PP28745   0.442   6.454   4.280  0.2085  0.1681 -0.1493
18642PP      PP28746   5.192  14.707   1.951  0.2271  0.1362  0.0979
18643PP      PP28747  10.933   8.242  12.411 -0.0095 -0.1231  0.1404
18644PP      PP28748  10.286   4.732   1.571  0.0244 -0.1635  0.1522
18645PP      PP28749  13.817   3.066   3.003 -0.1091 -0.0653  0.1238
18646PP      PP28750  13.272   3.835   8.454 -0.1465  0.1946  0.0800
18647PP      PP28751   0.989  10.034   3.902 -0.0475  0.1065  0.1474
18648PP      PP28752  11.643   7.056   8.380 -0.0001 -0.0701 -0.0050
18649PP      PP28753  12.266  15.093   2.214 -0.1742 -0.0307 -0.0416
18650PP      PP28754   1.692   5.031   2.887 -0.0420  0.0697  0.0486
18651PP      PP28755  15.357  15.362   0.118  0.0961  0.0655 -0.2500
18652PP      PP28756  10.974   5.984   3.166 -0.2110  0.5910  0.4815
18653PP      PP28757  13.079  14.997  12.689  0.3434 -0.2724  0.1166
18654PP      PP28758   7.551  13.403   3.993  0.1960  0.1826  0.2685
18655PP      PP28759  14.498   4.790   7.750 -0.0946  0.1392  0.2293
18656PP      PP28760   4.859   4.295   9.377  0.0381  0.2861  0.0598
18657PP      PP28761   0.799   0.001   9.772 -0.2029  0.0691 -0.0097
18658PP      PP28762   3.258  14.741   0.374  0.4105  0.0661 -0.0702
18659PP      PP28763   6.042   0.883   9.306  0.3685  0.0694  0.1213
18660PP      PP28764  11.093   8.187   0.976 -0.1958 -0.1874  0.3453
18661PP      PP28765   1.260   0.440   3.986  0.1311  0.0153 -0.2569
18662PP      PP28766   1.075   2.008   3.202  0.1733 -0.2840 -0.3458
18663PP      PP28767   2.698  10.951  12.468 -0.0412 -0.1442  0.2204
18664PP      PP28768   4.769   1.631   4.754  0.0624 -0.1004 -0.0591
18665PP      PP28769  15.929   4.029  12.503 -0.1219  0.1152  0.1631
18666PP      PP28770   5.601  10.811   3.442 -0.0527  0.2624 -0.1769
18667PP      PP28771   0.838  15.280   0.157  0.2538 -0.1643 -0.0531
18668PP      PP28772   6.846   2.950   8.982 -0.4028 -0.1085  0.3731
18669PP      PP28773   7.283  11.062  11.933 -0.0670  0.1312  0.2781
18670PP      PP28774  14.013   7.792   2.352  0.1292 -0.2494  0.1128
18671PP      PP28775  13.181   8.192   0.057 -0.0806  0.2862  0.0663
18672PP      PP28776  14.488   3.326   3.488 -0.3570  0.1352 -0.0227
18673PP      PP28777   9.354   4.731  12.723  0.4035 -0.0360  0.1256
18674PP      PP28778  14.927   9.802   3.933  0.1273 -0.2520 -0.1139
18675PP      PP28779   2.438   2.257   3.415 -0.1689 -0.0859 -0.0713
18676PP      PP28780   8.592   7.791   1.766  0.0868  0.0793 -0.0871
18677PP      PP28781  12.166   3.512  10.967  0.1616 -0.1495  0.3441
18678PP      PP28782   9.815   4.092   1.270  0.0332  0.0172 -0.0492
18679PP      PP28783  12.687   9.116  12.018 -0.1688 -0.0952  0.0587
18680PP      PP28784   3.200  15.013  10.756 -0.0153  0.1952  0.0100
18681PP      PP28785   5.280   6.130   9.163 -0.2409 -0.0735 -0.1572
18682PP      PP28786   4.218   7.238   9.522 -0.1869 -0.1975  0.1432
18683PP      PP28787  12.190   1.770  10.541  0.0273  0.2604  0.2867
18684PP      PP28788   6.054   8.812   9.373  0.0606  0.0389 -0.2180
18685PP      PP28789  12.123   5.433   8.669 -0.0692  0.0547 -0.2205
18686PP      PP28790   4.540   8.854   9.173  0.2269 -0.2979 -0.1051
18687PP      PP28791   4.957   2.247  11.347  0.0371 -0.0622 -0.1412
18688PP      PP28792   4.974  13.146   0.151  0.0509  0.2444  0.2489
18689PP      PP28793   9.324  11.503  11.109 -0.1225 -0.0077 -0.0669
18690PP      PP28794  10.059   3.499  10.324  0.1093  0.3343  0.1963
18691PP      PP28795   1.108  15.371   1.945 -0.0015 -0.1253  0.1820
18692PP      PP28796   3.031   0.831   0.901 -0.1100 -0.2627  0.3886
18693PP      PP28797  10.247  11.415  10.788  0.2737  0.1286 -0.0803
18694PP      PP28798   1.770  14.084   9.096 -0.0583 -0.0400  0.3639
18695PP      PP28799   1.813  11.371   0.476  0.0880  0.1618  0.0091
18696PP      PP28800   0.525  10.426   9.425 -0.0049 -0.0142  0.1705
18697PP      PP28801   1.607   8.672   2.813  0.0580  0.1500  0.0715
18698PP      PP28802   4.213   1.891  10.301  0.0532 -0.0409  0.2719
18699PP      PP28803   0.485   6.329   3.754  0.0267  0.0043 -0.1213
18700PP      PP28804  13.789   4.599  11.725  0.4058 -0.0577  0.1935
18701PP      PP28805   5.674   3.986   8.507  0.1685 -0.1591  0.1691
18702PP      PP28806   8.592   4.457   1.713  0.2140 -0.6627 -0.1650
18703PP      PP28807  16.036   4.472  11.323 -0.0861 -0.1795 -0.0497
18704PP      PP28808   1.210  11.291   8.509 -0.2290 -0.4269  0.3008
18705PP      PP28809  10.819   8.228  10.952 -0.2636 -0.2464  0.0907
18706PP      PP28810   9.671  10.856   3.843  0.1194 -0.0847  0.0913
18707PP      PP28811  12.921  12.563  12.515 -0.2728 -0.0222  0.1828
18708PP      PP28812   2.705  14.695  11.346 -0.0757  0.0173  0.1699
18709PP      PP28813  10.492  13.947   1.455 -0.3070  0.0422  0.0619
18710PP      PP28814   0.902   7.625   1.516  0.2246  0.1433  0.1745
18711PP      PP28815  12.409  15.741  10.425 -0.0798  0.2639 -0.2249
18712PP      PP28816  14.439  11.422   1.871 -0.3689 -0.1623  0.0479
18713PP      PP28817   9.876   9.688   3.112  0.1155  0.0742  0.1985
18714PP      PP28818   2.269   9.918   2.581 -0.0868  0.3369 -0.5151
18715PP      PP28819   1.176  16.272  12.577 -0.0587 -0.0881 -0.2452
18716PP      PP28820  14.206   2.635   1.019  0.0217 -0.1620  0.0218
18717PP      PP28821   3.880   9.380   2.367  0.0011  0.0334  0.3378
18718PP      PP28822   8.572   8.512   2.803  0.1369 -0.4746 -0.1138
18719PP      PP28823   4.788  11.849  10.562 -0.1082  0.0179 -0.0747
18720PP      PP28824   2.515   7.950  11.651 -0.1021  0.2519  0.2917
18721PP      PP28825  14.340   4.542   3.901 -0.0419  0.2227  0.2126
18722PP      PP28826   2.349   6.061  10.231 -0.0259  0.1722 -0.1982
18723PP      PP28827   3.528   5.608  11.944 -0.1351 -0.1401 -0.1330
18724PP      PP28828  12.858   6.131   8.346  0.0654 -0.0306 -0.5457
18725PP      PP28829   7.051  13.137   2.549 -0.0441  0.0347  0.0518
18726PP      PP28830  14.723   3.351   8.645  0.0537  0.0792 -0.0679
18727PP      PP28831   9.335   3.719   4.264  0.1639 -0.1583  0.1933
18728PP      PP28832  12.294   7.691   8.672  0.4094 -0.0764 -0.2591
18729PP      PP28833  14.058  10.250   3.749 -0.1566  0.1204 -0.3547
18730PP      PP28834  14.850   5.864   9.898 -0.0157  0.0600 -0.1442
18731PP      PP28835   4.940   8.923   9.478  0.1229 -0.1197 -0.1869
18732PP      PP28836  11.640   0.904  11.387 -0.1485  0.0928  0.2788
18733PP      PP28837  11.955   0.423  11.141  0.1333  0.0282  0.2426
18734PP      PP28838   5.607   1.389   3.118  0.1879  0.1426  0.2205
18735PP      PP28839   5.157   4.788  12.616  0.1854 -0.0419  0.1944
18736PP      PP28840  11.713  13.597   9.439 -0.2515  0.1643 -0.0998
18737PP      PP28841  13.512   3.872   2.774 -0.0605  0.0656 -0.1361
18738PP      PP28842  15.935  10.282   1.294 -0.3134 -0.1029 -0.0645
18739PP      PP28843   3.233  12.492   2.957  0.0090 -0.2577 -0.5288
18740PP      PP28844   8.398  12.241  11.421 -0.1979  0.0686 -0.1990
18741PP      PP28845   7.578  14.204   1.151  0.1745 -0.1204 -0.1732
18742PP      PP28846   3.631  15.575   1.798  0.3231  0.2176 -0.1467
18743PP      PP28847  14.167  14.581   8.380  0.0852  0.0889 -0.1387
18744PP      PP28848  10.393   7.453   9.156  0.2046  0.2586  0.5153
18745PP      PP28849   7.594  12.622   1.226  0.0345 -0.1232  0.0567
18746PP      PP28850   6.568   1.598   9.656  0.1646  0.1989 -0.0914
18747PP      PP28851   6.380   2.554   4.556 -0.2862  0.2093 -0.0243
18748PP      PP28852   3.856   2.183   4.101 -0.3594  0.0283 -0.2327
18749PP      PP28853  13.392   6.119  12.218 -0.1740  0.2503 -0.1904
18750PP      PP28854   9.002   4.285   1.946  0.1008 -0.0535 -0.2146
18751PP      PP28855  12.720  14.997   1.697  0.1270 -0.2019  0.1409
18752PP      PP28856  15.398   0.009   9.203 -0.2155 -0.1084 -0.1700
18753PP      PP28857  12.888   6.828  10.927  0.2967  0.1254  0.0530
18754PP      PP28858   7.436  12.590   3.368  0.2270 -0.1009 -0.0217
18755PP      PP28859  12.939   4.107   0.979 -0.0891  0.2917 -0.0359
18756PP      PP28860  14.904   6.283   8.815  0.2321 -0.2232  0.0473
18757PP      PP28861   8.734   3.029   4.864 -0.1982 -0.0501 -0.3068
18758PP      PP28862   0.745   3.187  12.343 -0.1326  0.1192 -0.0966
18759PP      PP28863  12.257  11.788  12.484  0.2754  0.1400 -0.2405
18760PP      PP28864   5.726  11.722  12.241 -0.0700 -0.0935 -0.2540
18761PP      PP28865   9.547   9.590   9.323 -0.3495  0.0761 -0.0627
18762PP      PP28866   7.850   2.659  10.918 -0.3112 -0.2869  0.0650
18763PP      PP28867  14.396   7.053   9.992  0.1051  0.0062  0.0773
18764PP      PP28868   1.008  15.084   9.774 -0.0311 -0.1043 -0.3627
18765PP      PP28869  12.825  13.912  11.388  0.0141  0.0893 -0.1450
18766PP      PP28870   1.004   4.793  11.196 -0.1006  0.0203 -0.3134
18767PP      PP28871   7.937  14.762   2.836  0.0643 -0.2369 -0.2071
18768PP      PP28872   3.443   1.615   3.314 -0.1476  0.4691 -0.1289
18769PP      PP28873  16.243   1.773   9.481 -0.2471  0.1469 -0.1048
18770PP      PP28874   1.307  16.258  10.378  0.3928 -0.0452 -0.0313
18771PP      PP28875  15.220   0.374   3.329 -0.0191 -0.0543 -0.2787
18772PP      PP28876  12.333   8.951  10.312 -0.1576  0.0868 -0.0680
18773PP      PP28877  12.642  14.233  11.812 -0.1069  0.4136  0.2842
18774PP      PP28878   7.565  13.651  12.093 -0.2209 -0.0476 -0.0362
18775PP      PP28879   9.426   1.982   0.573  0.0397  0.0871 -0.1639
18776PP      PP28880   0.049   2.453  10.225  0.2157 -0.0378  0.0208
18777PP      PP28881  10.044   9.452   3.556  0.0021  0.0324  0.0035
18778PP      PP28882  15.414   3.642   3.332  0.2239 -0.2634  0.0734
18779PP      PP28883   9.947  12.246  11.978  0.1430  0.0779 -0.3890
18780PP      PP28884  15.567  10.048  10.056 -0.2541 -0.1479  0.0813
18781PP      PP28885   3.957   5.269   9.951 -0.2514 -0.0074  0.3010
18782PP      PP28886  10.541   6.999  10.674 -0.1168  0.2464  0.1634
18783PP      PP28887   3.787  14.462   0.226 -0.1485  0.0737  0.1465
18784PP      PP28888  15.513   2.028   3.591  0.1485  0.3179  0.1737
18785PP      PP28889  16.072   6.903  10.209 -0.1752  0.0649 -0.0326
18786PP      PP28890  11.463   8.143   9.799  0.0418  0.1851  0.1010
18787PP      PP28891  14.402  14.895   2.442 -0.2820  0.1769 -0.2702
18788PP      PP28892   8.216   9.864   1.483  0.2823 -0.0167  0.0714
18789PP      PP28893  11.765  12.975   3.908 -0.0009  0.1681  0.1010
18790PP      PP28894  12.485   0.283   9.105 -0.0859 -0.0339 -0.2580
18791PP      PP28895  15.362   2.446   0.152 -0.1253 -0.0319  0.1055
18792PP      PP28896   8.543   4.809   4.120 -0.0196 -0.0237 -0.3149
18793PP      PP28897   2.142   8.453  11.504 -0.2369 -0.0369  0.0901
18794PP      PP28898   9.634   2.874   3.631 -0.0376 -0.0404  0.1624
18795PP      PP28899   3.542   4.388  10.371  0.3634 -0.3118 -0.0472
18796PP      PP28900   3.844  13.683   1.181 -0.0444  0.5304  0.0055
18797PP      PP28901   1.283   4.502   9.231  0.3474 -0.1991 -0.0419
18798PP      PP28902   7.913  16.078  10.215  0.1155  0.2292 -0.1998
18799PP      PP28903  15.909  10.488   9.069  0.1578  0.1856 -0.1888
18800PP      PP28904   4.807   9.808   9.445 -0.0470  0.1207  0.0862
18801PP      PP28905  10.360   4.299  10.936 -0.2730  0.0836 -0.0673
18802PP      PP28906   7.925  11.497   4.181  0.0388 -0.0271  0.0663
18803PP      PP28907  13.741  11.794   3.180 -0.0538 -0.1986  0.0687
18804PP      PP28908   7.654   6.913   2.342 -0.1942  0.4654  0.2200
18805PP      PP28909   2.863  12.222   0.525 -0.2733 -0.2083  0.1870
18806PP      PP28910  14.913  13.860   2.614  0.3399  0.0504  0.0022
18807PP      PP28911   3.410  12.458   8.141  0.1957 -0.1745 -0.1088
18808PP      PP28912  12.010   5.303   2.674  0.1642  0.0362 -0.3353
18809PP      PP28913   1.469  11.194  11.812  0.0951 -0.1289 -0.0936
18810PP      PP28914   4.473   8.806   7.835 -0.1256  0.1282 -0.0569
18811PP      PP28915   2.495   7.269   3.011  0.0624  0.1368  0.0689
18812PP      PP28916  12.666   2.565  10.432  0.0165  0.1997  0.0437
18813PP      PP28917  13.433   3.517   1.555  0.1036  0.0031  0.1780
18814PP      PP28918   5.412  10.498  11.518 -0.0043  0.1040 -0.1739
18815PP      PP28919  15.020  10.619   4.222  0.0991 -0.0668  0.0495
18816PP      PP28920   1.414  12.725  12.669  0.1662 -0.0875  0.0060
18817PP      PP28921   0.236   8.281   8.281  0.0073  0.0540  0.0650
18818PP      PP28922   2.409   5.990   9.038 -0.0008  0.2360  0.0943
18819PP      PP28923   9.655  12.987   3.840 -0.0145 -0.1136 -0.0070
18820PP      PP28924   5.105   4.406   3.823  0.2607 -0.1020  0.4174
18821PP      PP28925   4.386   9.603  12.394 -0.2422 -0.1216  0.2369
18822PP      PP28926  10.378  13.070   8.942 -0.3336  0.0542 -0.1872
18823PP      PP28927   1.651   9.068  11.879 -0.3465 -0.0943  0.3266
18824PP      PP28928   2.024   8.286  10.751 -0.0582  0.1195 -0.1394
18825PP      PP28929  13.646  14.927   3.575 -0.1372 -0.0435  0.0145
18826PP      PP28930  14.406   0.025  10.088  0.0353  0.1098 -0.1520
18827PP      PP28931   6.542   7.643  10.225 -0.2196  0.0093  0.2135
18828PP      PP28932   1.345  10.968  10.964 -0.0763  0.3002 -0.3564
18829PP      PP28933   8.908   1.317  10.273 -0.0175 -0.0161  0.1003
18830PP      PP28934   9.660   5.784   3.417  0.4563 -0.3561 -0.0067
18831PP      PP28935   8.535   0.157   3.998  0.2143  0.1976 -0.0794
18832PP      PP28936  11.465  11.567   1.575  0.0962 -0.0721  0.1187
18833PP      PP28937   6.335  13.178   3.097  0.0993 -0.2279 -0.0589
18834PP      PP28938   8.232   5.927   2.546  0.1984  0.2152 -0.1624
18835PP      PP28939   8.699   5.814  10.824  0.1168 -0.0296  0.2298
18836PP      PP28940   9.615  14.403   0.355 -0.0149  0.1134  0.2803
18837PP      PP28941   5.931  14.745   9.218 -0.0063 -0.0913 -0.2361
18838PP      PP28942   3.208   2.366  12.249  0.2814  0.0457 -0.1123
18839PP      PP28943  11.055   8.387   9.986 -0.1478 -0.0741 -0.1212
18840PP      PP28944   8.065  12.123  10.305 -0.3418  0.1420 -0.0828
18841PP      PP28945   2.335  13.154  10.825  0.1372 -0.4318 -0.2788
18842PP      PP28946  11.019   7.422  11.824  0.1008 -0.1216 -0.1272
18843PP      PP28947  12.639   6.704  12.438 -0.2409 -0.2286  0.2081
18844PP      PP28948  15.471   5.051   3.108  0.0743  0.0166 -0.0640
18845PP      PP28949   8.361   1.388   2.736 -0.2686  0.0399  0.5048
18846PP      PP28950  11.881  11.953   1.681 -0.2334 -0.3864 -0.1484
18847PP      PP28951  12.366  10.730   0.636 -0.2865  0.3309  0.1856
18848PP      PP28952  13.014  16.048   3.697  0.1024  0.4150  0.0050
18849PP      PP28953  10.859   0.050  10.002 -0.1667  0.3159 -0.2681
18850PP      PP28954   1.843   8.847   1.442  0.0292 -0.1822 -0.3958
18851PP      PP28955   1.091  10.636   3.776 -0.1169 -0.2744  0.2545
18852PP      PP28956  14.350  13.105  12.152 -0.3954  0.0805  0.0854
18853PP      PP28957   4.512   8.057   9.063  0.1489 -0.0126 -0.2130
18854PP      PP28958  15.741   7.810  11.084 -0.0587 -0.0668 -0.1774
18855PP      PP28959  15.508   9.448   0.445 -0.2690  0.2398 -0.3393
18856PP      PP28960  11.632  13.639   8.574 -0.1123  0.5766 -0.5372
18857PP      PP28961   0.195   8.406   0.208  0.2105 -0.2764 -0.1204
18858PP      PP28962  12.780  15.562  10.656 -0.0161  0.3710  0.0065
18859PP      PP28963   4.638   1.440   2.981  0.1217 -0.0266  0.0748
18860PP      PP28964   1.382  11.137   9.194 -0.0875 -0.3226 -0.0784
18861PP      PP28965   8.829  11.196   0.724  0.0280 -0.0410 -0.3023
18862PP      PP28966  11.616  12.955   2.112 -0.3907 -0.2241 -0.2184
18863PP      PP28967   6.331   3.654   7.768 -0.0894  0.0556  0.1676
18864PP      PP28968  11.712   1.610   9.087 -0.3007 -0.1821  0.1109
18865PP      PP28969  16.117  10.499   8.635  0.1305 -0.3175  0.0243
18866PP      PP28970   8.390  13.787   3.893 -0.3227 -0.2009  0.3329
18867PP      PP28971  14.875   1.871   8.659 -0.1082  0.0733  0.0517
18868PP      PP28972   0.633   5.504  11.106 -0.1378  0.0296  0.0183
18869PP      PP28973  11.978  11.560   1.373  0.0896  0.1443  0.2870
18870PP      PP28974   8.462   9.908  11.239  0.1777  0.1431 -0.2929
18871PP      PP28975   7.195  14.459  10.107  0.2246 -0.2502  0.0335
18872PP      PP28976   7.180  16.119   2.895 -0.0291  0.1559 -0.0670
18873PP      PP28977  11.009  14.200  11.332  0.0108 -0.1828 -0.4643
18874PP      PP28978   1.445  13.100   8.997 -0.1245 -0.0863 -0.2791
18875PP      PP28979   9.229  12.166  10.127  0.2914  0.1195 -0.0453
18876PP      PP28980   7.781   8.173   3.786  0.2193 -0.0925  0.2211
18877PP      PP28981   2.970  16.313   3.944 -0.2891 -0.0049 -0.2273
18878PP      PP28982   3.710  13.179  11.463  0.0802  0.0622 -0.1760
18879PP      PP28983   5.516   0.317   0.382 -0.2036 -0.0828  0.0171
18880PP      PP28984   9.545  10.681  11.919 -0.1070  0.4225 -0.0276
18881PP      PP28985   1.255   8.860   3.230 -0.1959  0.1735  0.0478
18882PP      PP28986   8.583   1.839   2.192 -0.0230  0.0652  0.0933
18883PP      PP28987  16.168   5.828  12.389  0.1241 -0.1043 -0.0710
18884PP      PP28988   8.378   5.608   9.747  0.2588  0.1556  0.2291
18885PP      PP28989   0.102   3.262   2.564 -0.1022 -0.2086  0.1751
18886PP      PP28990   2.591   2.059   0.404 -0.0784 -0.2790 -0.1903
18887PP      PP28991  11.728  14.190   8.537 -0.2136 -0.0142  0.2024
18888PP      PP28992  15.341  15.758   2.060 -0.3389 -0.0181 -0.3680
18889PP      PP28993   7.164  15.404   2.862 -0.2614  0.0138  0.1494
18890PP      PP28994   6.723  16.344   3.145  0.0369 -0.2864  0.2154
18891PP      PP28995  15.952   8.905   1.293 -0.1218 -0.0822 -0.0114
18892PP      PP28996   2.647  12.451  12.551 -0.1333 -0.2580 -0.0628
18893PP      PP28997   5.654   8.936   3.863  0.3116 -0.0110 -0.1227
18894PP      PP28998  10.607  12.768   1.443  0.0635 -0.1119 -0.2379
18895PP      PP28999   7.033   5.308   0.089  0.1502  0.0057 -0.3011
18896PP      PP29000  14.131   2.879  12.409 -0.3159  0.1780  0.0793
18897PP      PP29001  14.413  10.740   3.123  0.0389  0.3922  0.1446
18898PP      PP29002   3.279   5.154  12.062  0.3574  0.0876 -0.1084
18899PP      PP29003   2.622  11.753   3.453 -0.2870 -0.3036 -0.0512
18900PP      PP29004   7.386   7.240  10.234  0.1101 -0.0907  0.1078
18901PP      PP29005  14.906  14.352   1.719 -0.3561  0.0140  0.0903
18902PP      PP29006   4.412  12.217   0.158 -0.0719 -0.0318  0.0448
18903PP      PP29007  15.990   1.062  11.153  0.2394 -0.2167 -0.1764
18904PP      PP29008   4.250  12.548   9.204  0.1125  0.2776  0.0888
18905PP      PP29009   2.036  10.785  10.300  0.2460 -0.2119 -0.3926
18906PP      PP29010  13.392  12.431   4.204 -0.0668  0.1632 -0.0582
18907PP      PP29011  13.826   9.259   8.707 -0.0872 -0.0568  0.3276
18908PP      PP29012   2.909   4.113   2.245 -0.0644  0.1892 -0.2796
18909PP      PP29013   4.324  14.809  11.729 -0.3534 -0.0246 -0.1129
18910PP      PP29014  13.645   6.147   9.665  0.4283  0.0076 -0.0115
18911PP      PP29015  14.989   2.800   9.973 -0.1846 -0.1726  0.2547
18912PP      PP29016  15.027   0.635   9.752  0.0100 -0.2565  0.3493
18913PP      PP29017   2.669   9.981   2.979 -0.1024 -0.2594 -0.3011
18914PP      PP29018  10.253   9.303   0.921 -0.1431 -0.0840  0.2299
18915PP      PP29019   8.062   4.009  10.906 -0.0232 -0.0679 -0.2306
18916PP      PP29020   3.940   5.096   8.215 -0.0490 -0.3970  0.0846
18917PP      PP29021   2.876   4.789   8.943 -0.1679 -0.0212  0.1382
18918PP      PP29022   6.698   2.340   9.005 -0.1316 -0.0554  0.0783
18919PP      PP29023  15.955   0.477   1.606  0.1913  0.1326 -0.1055
18920PP      PP29024   2.764  15.493   8.486 -0.2753  0.0711  0.0623
18921PP      PP29025   5.934   5.160   3.339  0.1189 -0.2516 -0.0917
18922PP      PP29026   1.961   4.457  10.204  0.1244 -0.0567 -0.0418
18923PP      PP29027   8.031   8.889  11.654 -0.3531 -0.0294  0.0456
18924PP      PP29028  15.745  10.174   2.821 -0.2128 -0.0807 -0.0471
18925PP      PP29029   0.912  10.324   3.411 -0.2693  0.1560  0.2907
18926PP      PP29030  11.316  14.746   2.449  0.2241  0.2314 -0.0635
18927PP      PP29031   5.684  11.135   9.525  0.1031 -0.1708  0.1863
18928PP      PP29032  12.150  11.890   4.672 -0.4512  0.1210  0.3470
18929PP      PP29033   4.640   1.086   1.795  0.3734  0.2582 -0.3143
18930PP      PP29034   9.568  11.190   0.272 -0.1363  0.1139  0.0537
18931PP      PP29035   0.035   2.952   2.913  0.0388 -0.2018 -0.1569
18932PP      PP29036   5.928   3.847   2.846 -0.1636 -0.1015 -0.2175
18933PP      PP29037   8.545  14.018   1.890  0.0438  0.0617  0.1464
18934PP      PP29038  14.246   6.911  11.774 -0.1630 -0.0980  0.1873
18935PP      PP29039   1.175  12.827  11.730  0.4190 -0.0464  0.0079
18936PP      PP29040   1.082   1.239   3.024 -0.0618 -0.0487  0.0148
18937PP      PP29041   3.798   2.310   0.976  0.2319  0.0456  0.0396
18938PP      PP29042   9.793  13.138   1.350 -0.3085  0.0592 -0.3184
18939PP      PP29043   0.911   2.620  11.298  0.1206  0.2515  0.1376
18940PP      PP29044   5.175   6.677   0.022 -0.1567  0.0156  0.0923
18941PP      PP29045  10.796  15.548  11.181 -0.2285  0.2506  0.0779
18942PP      PP29046   6.642   5.743  10.408  0.0266 -0.2348  0.0694
18943PP      PP29047  15.250   3.280   3.044 -0.3804  0.2362  0.0479
18944PP      PP29048  15.335   8.735   2.888 -0.0844 -0.1256 -0.0299
18945PP      PP29049   9.938  13.103   3.420  0.5217  0.0914 -0.1709
18946PP      PP29050  10.746   4.675   8.795  0.0896 -0.1190 -0.0468
18947PP      PP29051  12.458   4.188   1.449  0.3272  0.4251 -0.1266
18948PP      PP29052   5.943  12.645  12.463 -0.0614  0.1693 -0.1477
18949PP      PP29053  10.517   4.463   9.921  0.2917 -0.1126 -0.1738
18950PP      PP29054  12.550  13.279  10.288  0.1013  0.1549  0.1384
18951PP      PP29055  16.269  15.600   0.865 -0.0180 -0.2212 -0.0981
18952PP      PP29056   8.385   6.686  10.394  0.0923 -0.1640 -0.0512
18953PP      PP29057   9.283   6.212   3.702  0.2889 -0.2107 -0.3266
18954PP      PP29058   4.967   5.732   0.233  0.4399 -0.1237  0.0582
18955PP      PP29059   2.281  14.035  10.911  0.0558 -0.2322 -0.0857
18956PP      PP29060   1.787   7.961   1.547 -0.0501  0.0001 -0.3430
18957PP      PP29061   3.630   0.349  10.580  0.0785 -0.0998  0.0599
18958PP      PP29062   5.851   9.003   0.230  0.0824 -0.0451 -0.0293
18959PP      PP29063  15.001   9.687   2.543 -0.3398 -0.1688 -0.3670
18960PP      PP29064  11.486   7.193  11.758  0.2852 -0.0492  0.1155
18961PP      PP29065   6.649   9.786  11.251 -0.2243 -0.2533  0.1827
18962PP      PP29066  13.463  13.799   3.837 -0.0940 -0.0023  0.3726
18963PP      PP29067  14.031   4.784   9.857  0.0820 -0.0876  0.0185
18964PP      PP29068  15.287  10.511   2.853 -0.0371 -0.2049 -0.1045
18965PP      PP29069   9.262   0.118   4.215 -0.2486  0.1309 -0.0416
18966PP      PP29070   2.893   8.696  11.137 -0.2217  0.0181  0.0099
18967PP      PP29071   0.625   4.924   1.045  0.1429  0.0925 -0.1667
18968PP      PP29072  13.749  15.407   8.473 -0.2059 -0.0624  0.0198
18969PP      PP29073  15.095   4.055   2.288 -0.2180 -0.1721  0.1281
18970PP      PP29074   7.930   7.675  10.517 -0.0704 -0.1456  0.0253
18971PP      PP29075   0.276   5.599   9.225 -0.0706 -0.0893  0.0028
18972PP      PP29076  10.641  14.632   2.681  0.1575  0.1916 -0.1683
18973PP      PP29077   4.508   0.909   4.264 -0.2277  0.1114 -0.0203
18974PP      PP29078   2.400   4.598  12.540  0.1905 -0.0865 -0.0919
18975PP      PP29079   5.628  12.093   9.403  0.2540 -0.0012 -0.0856
18976PP      PP29080   9.027   1.132  10.871  0.1143 -0.1835  0.0842
18977PP      PP29081   6.880   1.337   4.964  0.0999  0.0723 -0.1720
18978PP      PP29082   0.984  12.929   1.591  0.1369 -0.2170 -0.1104
18979PP      PP29083   4.494  12.567   1.403  0.1672 -0.1369  0.2585
18980PP      PP29084  14.782   3.476   1.935 -0.2177 -0.1128 -0.1882
18981PP      PP29085  10.222   8.907   3.226 -0.1487  0.1886  0.1411
18982PP      PP29086  11.230  11.522  12.380 -0.1547  0.0864 -0.1019
18983PP      PP29087   3.759   1.326   2.419  0.2402  0.0658  0.0129
18984PP      PP29088  15.212   0.372   2.764 -0.2927  0.1924 -0.3344
18985PP      PP29089   5.735   0.084   4.528 -0.1544  0.1546  0.4280
18986PP      PP29090  14.263   2.679  10.515 -0.2158  0.1972  0.1282
18987PP      PP29091   6.328   6.714  11.528  0.0548 -0.1543  0.0835
18988PP      PP29092   2.131   4.827   1.022  0.1612  0.3798 -0.0119
18989PP      PP29093  11.450   0.129   0.215 -0.0899  0.2433  0.2331
18990PP      PP29094   6.594   9.206   9.826 -0.2550  0.1044 -0.1892
18991PP      PP29095   8.288  11.607   9.587  0.2282  0.0509 -0.0575
18992PP      PP29096   4.686  11.406  10.765  0.0234 -0.0068 -0.1669
18993PP      PP29097   7.906  13.094   3.091  0.0865 -0.3033  0.0545
18994PP      PP29098   0.489   9.023  10.374 -0.2118  0.0667 -0.1526
18995PP      PP29099   8.091   9.015  10.245  0.1443  0.2203  0.1661
18996PP      PP29100   8.808  11.157   1.362 -0.1137  0.1050  0.0689
18997PP      PP29101  13.594   6.487   7.725  0.1280  0.0121 -0.2962
18998PP      PP29102  15.085  13.482   4.190 -0.0439  0.3228  0.1474
18999PP      PP29103   7.541   5.479  12.492 -0.0417 -0.2041 -0.1009
19000PP      PP29104   8.807   7.282   3.405 -0.3938  0.0936  0.0354
19001PP      PP29105   7.781   5.813   2.770 -0.1112  0.1451 -0.1792
19002PP      PP29106   8.784  12.975  10.336 -0.2725  0.3093 -0.1630
19003PP      PP29107   5.884   8.887  11.316  0.0550 -0.1133  0.2881
19004PP      PP29108   6.335   0.794  10.357  0.1016 -0.5564 -0.0172
19005PP      PP29109  14.006  11.258   2.416  0.1789 -0.3196 -0.0395
19006PP      PP29110  12.136   5.609   9.616 -0.0237  0.0413 -0.1199
19007PP      PP29111  11.390   5.415   1.371 -0.2549  0.0559  0.1654
19008PP      PP29112  13.135   1.981  12.383  0.3013  0.1856 -0.0160
19009PP      PP29113   7.130   9.943  10.665 -0.0177  0.0965  0.1347
19010PP      PP29114  11.924   4.353   8.866 -0.1038  0.2281  0.1150
19011PP      PP29115  14.106   4.000   0.799  0.2543 -0.0218 -0.0523
19012PP      PP29116  13.103  13.143  11.286 -0.0177  0.0139  0.2252
19013PP      PP29117   9.887  14.514  11.815 -0.0036 -0.2618  0.5152
19014PP      PP29118  13.469   0.518  11.186 -0.1721  0.3195 -0.2987
19015PP      PP29119   2.109   9.274   9.975 -0.0402 -0.0098  0.1378
19016PP      PP29120  15.662  14.690   9.172  0.0124 -0.1837 -0.0055
19017PP      PP29121   9.996  11.314  12.108  0.4182 -0.2258 -0.0431
19018PP      PP29122   2.788  11.215   8.597 -0.0524 -0.1340 -0.1457
19019PP      PP29123   0.112   3.737   2.284 -0.2286  0.0874 -0.0918
19020PP      PP29124  13.065   0.188  11.965  0.1740 -0.0508  0.1866
19021PP      PP29125  10.695   2.828   8.618 -0.1544  0.1363 -0.3658
19022PP      PP29126   3.406   6.148   8.872  0.2151  0.3160 -0.0239
19023PP      PP29127  10.028   7.852  11.818 -0.0730  0.1159 -0.0286
19024PP      PP29128   7.042   3.428   8.665 -0.0798  0.3673  0.2076
19025PP      PP29129   1.224   4.623   8.345 -0.0234 -0.0994  0.0057
19026PP      PP29130   6.984  11.995   4.051  0.1128 -0.0517 -0.0041
19027PP      PP29131  14.613   9.193   9.201 -0.1289 -0.0434  0.3110
19028PP      PP29132   2.779   6.160  11.542 -0.1760 -0.1146  0.1016
19029PP      PP29133  10.593  15.508   0.530 -0.0208 -0.1717 -0.0306
19030PP      PP29134  14.186   7.204  12.726 -0.0768  0.1708  0.3118
19031PP      PP29135   1.083   6.447   8.724  0.1615  0.1151  0.1429
19032PP      PP29136  10.158  13.854   2.706  0.1356 -0.0473  0.1011
19033PP      PP29137  12.884   7.006   1.067  0.1654 -0.0121  0.1005
19034PP      PP29138   4.128  10.647   9.056  0.0576 -0.0426  0.0362
19035PP      PP29139   9.962   0.872   0.982 -0.0972  0.0852 -0.1713
19036PP      PP29140   7.338   3.040   4.669  0.1894 -0.1662 -0.0825
19037PP      PP29141   8.191   4.127   0.233 -0.1569 -0.1731  0.0971
19038PP      PP29142   9.308  16.116  12.622 -0.0864 -0.0363 -0.1169
19039PP      PP29143   0.737   4.280   3.635  0.2792  0.0794 -0.3928
19040PP      PP29144   2.350   5.340  11.353  0.2812  0.3875 -0.3002
19041PP      PP29145   3.245  14.384   9.231 -0.3807  0.2343  0.1462
19042PP      PP29146  12.202  15.770  12.734  0.0747 -0.0526 -0.0411
19043PP      PP29147  14.956   8.791   9.289 -0.3182  0.2486 -0.2352
19044PP      PP29148  15.811   2.844   3.214  0.0768 -0.0196  0.2707
19045PP      PP29149   4.410   1.798   2.677 -0.2053 -0.1753  0.1387
19046PP      PP29150   9.608   1.436  12.023  0.0833 -0.3802 -0.1516
19047PP      PP29151   7.808   6.735  10.599 -0.1061  0.1768 -0.3598
19048PP      PP29152   2.698   9.260   2.238 -0.0899  0.1137 -0.0274
19049PP      PP29153  13.307   9.730   3.661  0.0983 -0.1042  0.1971
19050PP      PP29154  14.077   1.367   0.372  0.2425  0.0333 -0.2008
19051PP      PP29155  14.354  14.518   8.877 -0.1132  0.0998 -0.1668
19052PP      PP29156   5.941   9.885   3.540 -0.2830  0.0041 -0.0020
19053PP      PP29157  11.843   7.846   1.362 -0.2209  0.0535  0.2842
19054PP      PP29158   1.846   5.046  12.425  0.2800  0.0879  0.0589
19055PP      PP29159   8.837  14.790   1.429 -0.1623 -0.1852 -0.3124
19056PP      PP29160   3.418   5.746   3.428 -0.1110  0.0743  0.4323
19057PP      PP29161   8.390   3.093   8.851 -0.0095 -0.1077  0.0370
19058PP      PP29162   1.349   7.569   3.665  0.3472  0.1820  0.1966
19059PP      PP29163   1.547   3.715   3.344 -0.0584 -0.0106  0.0302
19060PP      PP29164  11.711   9.612   1.179 -0.1555 -0.1202 -0.0328
19061PP      PP29165  14.938  15.464   1.488  0.0304 -0.1316 -0.1788
19062PP      PP29166   0.786   6.780  10.642 -0.0493  0.1243  0.0319
19063PP      PP29167   5.527   7.255   2.944  0.0195  0.0039 -0.2997
19064PP      PP29168   9.509  16.162   3.519 -0.1749  0.1416 -0.3073
19065PP      PP29169  13.880   8.881   3.321  0.1562 -0.1459  0.0734
19066PP      PP29170   7.727   6.882   3.530  0.2232 -0.1936  0.0875
19067PP      PP29171  12.887  10.510   0.943 -0.0420  0.0220 -0.0976
19068PP      PP29172  13.690  11.833  10.476  0.1578  0.1793  0.1214
19069PP      PP29173   3.810   7.801  10.130  0.2651  0.0797  0.0363
19070PP      PP29174   5.699  13.581   0.746 -0.1667  0.0808  0.2178
19071PP      PP29175   1.292   3.083   6.200  0.0546  0.2361 -0.0771
19072PP      PP29176   6.929   9.001  11.061 -0.0582 -0.0775  0.3566
19073PP      PP29177   4.494  12.411  12.360 -0.0460  0.0549  0.1694
19074PP      PP29178  12.152   2.466   9.338 -0.3328 -0.1196 -0.0276
19075PP      PP29179  11.523  13.490   2.918 -0.1840 -0.3569  0.0068
19076PP      PP29180   5.478   7.715   7.478  0.6373  0.1348  0.1239
19077PP      PP29181   0.513   0.713   2.637 -0.0619 -0.0323 -0.0046
19078PP      PP29182   0.663   9.393  10.073 -0.0917  0.0950 -0.2048
19079PP      PP29183  13.186   3.855  11.672  0.0134  0.0900 -0.2639
19080PP      PP29184  11.252   0.995  10.568  0.2595  0.0213 -0.0724
19081PP      PP29185   3.106  12.745  12.347  0.2507  0.0886 -0.1544
19082PP      PP29186   2.009   7.919  11.597  0.1529 -0.1468 -0.1432
19083PP      PP29187  15.614  12.545  11.411  0.2771  0.0213 -0.0512
19084PP      PP29188   2.308  11.415   0.891 -0.0730  0.1218 -0.0916
19085PP      PP29189   9.446  15.585  12.721  0.0829  0.2384 -0.3363
19086PP      PP29190   6.467   2.169  10.072 -0.4014  0.1654  0.0193
19087PP      PP29191  15.672   3.641  11.794 -0.1524  0.1356  0.1482
19088PP      PP29192   9.446  14.433   8.553 -0.0496 -0.0805  0.2228
19089PP      PP29193  11.668  14.372   9.842  0.2102 -0.1761 -0.1182
19090PP      PP29194   7.477  14.816   3.718  0.1445  0.2284  0.2631
19091PP      PP29195  14.334  15.971  11.957 -0.2703 -0.0813 -0.1128
19092PP      PP29196  15.450   6.295   0.483 -0.0831 -0.0570  0.0427
19093PP      PP29197   2.416   3.167   2.559  0.1676  0.0595  0.0997
19094PP      PP29198   8.859   8.046  12.349 -0.1488  0.2796  0.2784
19095PP      PP29199   1.980   4.499   8.798 -0.0129  0.4965  0.2106
19096PP      PP29200   2.199  13.873   3.450 -0.2836 -0.0848  0.5161
19097PP      PP29201   0.974  15.909  11.969  0.3009 -0.0582 -0.4056
19098PP      PP29202   0.344   7.562   3.096 -0.0708  0.0136  0.0378
19099PP      PP29203   4.647   3.418   2.840  0.1666 -0.2719 -0.0257
19100PP      PP29204   8.626   4.805  10.751 -0.3093  0.0328  0.1035
19101PP      PP29205   1.273   4.380   4.439 -0.2726 -0.0596  0.0365
19102PP      PP29206  11.059   5.258  12.193  0.4102 -0.1509 -0.0177
19103PP      PP29207  11.911   9.558  10.668 -0.2766  0.1179 -0.0271
19104PP      PP29208  14.227  11.756   9.891  0.3493  0.2997 -0.1069
19105PP      PP29209  13.893   4.154   4.118  0.3822 -0.4433 -0.0102
19106PP      PP29210  11.679  15.208  10.127  0.0614 -0.0358 -0.1048
19107PP      PP29211  11.142   0.355   2.289 -0.1659  0.2255 -0.0212
19108PP      PP29212  14.231   4.140  11.580 -0.0561  0.3034  0.4505
19109PP      PP29213   7.209  11.150   4.072 -0.1315  0.0928 -0.1142
19110PP      PP29214   2.547   0.296   9.231 -0.2572  0.2878  0.0076
19111PP      PP29215   1.932   4.746  11.070 -0.0545 -0.0731  0.2328
19112PP      PP29216  10.476   6.191  12.255 -0.2640 -0.0406  0.0217
19113PP      PP29217  15.094   0.189  12.038 -0.0663 -0.2648 -0.1710
19114PP      PP29218   1.705  13.595  10.135 -0.2780  0.0813 -0.2000
19115PP      PP29219  12.214   1.001   3.003  0.0563 -0.1052 -0.0302
19116PP      PP29220   8.360   3.297   2.745 -0.1026  0.2598  0.1050
19117PP      PP29221   1.952  12.896   3.509 -0.0536  0.2644  0.0662
19118PP      PP29222  15.765   5.497   7.785 -0.0633  0.0531  0.1176
19119PP      PP29223   1.408   2.939   9.741 -0.2347  0.0826 -0.0539
19120PP      PP29224   5.529  12.258   3.419 -0.1614 -0.2309 -0.3207
19121PP      PP29225   5.438   3.277  12.034 -0.0049  0.0100  0.0373
19122PP      PP29226   6.379  13.941   1.659 -0.1119 -0.1361 -0.0163
19123PP      PP29227   6.644  11.898   8.134  0.0563 -0.0611 -0.3786
19124PP      PP29228  11.287   8.691   9.009 -0.0905  0.3822 -0.0191
19125PP      PP29229   8.537   3.057   3.133  0.0660 -0.2304  0.0005
19126PP      PP29230  12.347   5.644   3.072  0.0045  0.2340  0.1880
19127PP      PP29231  10.701   9.588  11.552  0.2554 -0.0581 -0.1348
19128PP      PP29232   9.717   6.153   1.076 -0.1989  0.2472  0.0835
19129PP      PP29233   2.269   5.665   0.377 -0.1722 -0.0522 -0.1059
19130PP      PP29234   0.285   4.991   9.808  0.0393 -0.0006  0.0222
19131PP      PP29235  15.979  14.953  10.062 -0.2110  0.2447  0.1964
19132PP      PP29236   0.757   4.594  12.519  0.1132 -0.1090  0.3032
19133PP      PP29237   1.009   4.613   8.785  0.1729 -0.1375 -0.0139
19134PP      PP29238   1.627  10.210  11.173  0.1628  0.1343 -0.2873
19135PP      PP29239   5.260   7.248  12.671 -0.0267 -0.1844  0.1533
19136PP      PP29240  10.969   1.458   3.812  0.1844  0.0887  0.1935
19137PP      PP29241  14.989   7.408   9.963  0.1766  0.2424 -0.1706
19138PP      PP29242  11.602  15.619   4.599  0.3209  0.1903 -0.1221
19139PP      PP29243   7.422  14.333  12.108  0.0096  0.1014  0.2786
19140PP      PP29244   5.254   8.155   2.433 -0.2851 -0.0768  0.0231
19141PP      PP29245   6.595   8.582   1.940 -0.0479 -0.2029 -0.2247
19142PP      PP29246  12.549   2.612  11.398 -0.4018  0.1051 -0.4706
19143PP      PP29247  16.125   9.693   1.712 -0.2609  0.3209 -0.1214
19144PP      PP29248  14.252   0.005  11.531  0.1515 -0.1074 -0.1841
19145PP      PP29249   1.204   9.553  12.344  0.0656 -0.2094  0.0748
19146PP      PP29250   4.821  11.553  12.363  0.1379 -0.1712  0.0129
19147PP      PP29251   3.064   9.300  10.074 -0.1466  0.2253 -0.2144
19148PP      PP29252   0.461  14.304   2.720 -0.2858  0.1395  0.0311
19149PP      PP29253   6.531   8.028   2.756 -0.3222 -0.1645  0.1036
19150PP      PP29254  11.590  13.283  11.171  0.0045 -0.3075 -0.1375
19151PP      PP29255   1.254  14.794   0.275  0.2094  0.0408  0.0446
19152PP      PP29256   8.982  16.160   1.231 -0.2830 -0.0544 -0.2638
19153PP      PP29257  13.067  10.237  10.881 -0.1154 -0.2777  0.1260
19154PP      PP29258  15.163   5.517   0.280  0.0601  0.0223  0.2407
19155PP      PP29259   9.664  15.965   1.769 -0.1419 -0.2732 -0.5961
19156PP      PP29260  14.211   8.802  11.150  0.2046 -0.0541  0.0129
19157PP      PP29261   0.719   3.148   1.519  0.2803 -0.2295  0.4594
19158PP      PP29262   2.259   2.678   0.443  0.3392  0.0787 -0.1008
19159PP      PP29263   1.708  14.992   1.501  0.2115  0.2282 -0.0035
19160PP      PP29264  10.293  13.337   9.729 -0.2152 -0.1499 -0.3685
19161PP      PP29265   1.168   2.311   2.828 -0.1244 -0.1025 -0.1507
19162PP      PP29266  14.339  14.663   4.349  0.2783  0.3747 -0.1132
19163PP      PP29267   0.613  11.949   3.880  0.3434  0.2739 -0.0469
19164PP      PP29268   4.895   4.402   2.763 -0.0815 -0.0460 -0.0131
19165PP      PP29269   1.314   4.049  11.930 -0.1626  0.1273 -0.1968
19166PP      PP29270  11.030   9.586   3.412 -0.0666  0.1001  0.1148
19167PP      PP29271   5.851  12.143   8.387  0.2114 -0.0230  0.2361
19168PP      PP29272  11.451   3.932  12.470 -0.0160 -0.0217 -0.1209
19169PP      PP29273  12.554   4.396   2.670 -0.0839 -0.1454  0.0702
19170PP      PP29274  14.524   4.483   9.366 -0.2621 -0.0072  0.0665
19171PP      PP29275  14.283   3.440   0.678 -0.2479  0.0025  0.2896
19172PP      PP29276   8.143   5.454   2.547  0.2041 -0.2423 -0.2770
19173PP      PP29277  12.688   5.536   9.726 -0.1238 -0.0028  0.2323
19174PP      PP29278   1.458   1.867   9.563 -0.3256 -0.0303  0.0216
19175PP      PP29279   9.410  16.296   1.411  0.2279  0.5682  0.0596
19176PP      PP29280  10.838  15.554   2.927 -0.1473  0.0381  0.2852
19177PP      PP29281   7.589   1.486  11.159 -0.1369 -0.2742 -0.4482
19178PP      PP29282   7.629   2.404   4.927 -0.1686  0.0983 -0.0300
19179PP      PP29283   2.112  16.249   0.850  0.0722 -0.1093  0.0030
19180PP      PP29284   4.663   9.279  11.689  0.1452 -0.0803  0.3743
19181PP      PP29285   0.626   0.206  10.813  0.3750  0.2910 -0.3543
19182PP      PP29286  16.101  13.580   2.154  0.0942  0.1738 -0.1555
19183PP      PP29287   4.977  11.741   9.945 -0.0265  0.1512 -0.0083
19184PP      PP29288  13.438   4.397   8.104  0.0052  0.3260 -0.3689
19185PP      PP29289   0.922   6.718   0.695  0.2057  0.1700  0.1514
19186PP      PP29290   8.371   7.981   8.409  0.1670 -0.0919  0.3651
19187PP      PP29291   6.406  10.565   3.793  0.1418 -0.1714  0.0601
19188PP      PP29292   6.164  10.055  10.063  0.2048  0.0530  0.0671
19189PP      PP29293   5.597   6.707   8.533  0.0084  0.3167  0.0362
19190PP      PP29294   2.335   2.717   9.890  0.0369 -0.2725 -0.0645
19191PP      PP29295   3.852   4.223   8.671  0.1886 -0.0573  0.2342
19192PP      PP29296  12.879   5.058   1.617 -0.0082 -0.3105  0.1119
19193PP      PP29297   7.593  12.156  10.346 -0.1848 -0.4110  0.0776
19194PP      PP29298   0.524   3.899   3.311  0.0574 -0.1665 -0.1572
19195PP      PP29299   9.927  15.659  12.509 -0.0055  0.1147 -0.1750
19196PP      PP29300   3.099   1.018   9.859 -0.1819  0.0633  0.4483
19197PP      PP29301  11.366   3.701   1.026  0.1451 -0.2578  0.0565
19198PP      PP29302   2.986   4.299   2.865  0.0656 -0.0539 -0.1374
19199PP      PP29303   2.895   9.957   8.195  0.3587 -0.0855 -0.0819
19200PP      PP29304   2.600  10.842   3.734  0.3020  0.0015  0.2706
19201PP      PP29305  15.816  14.891   2.525 -0.1363 -0.3355 -0.0403
19202PP      PP29306   2.464  12.233  10.385  0.0348 -0.2240 -0.1558
19203PP      PP29307   4.277  14.233   2.056 -0.1095  0.3393 -0.3836
19204PP      PP29308  15.712   7.766   1.565  0.2373  0.0865 -0.1592
19205PP      PP29309  11.995   9.687   2.701  0.2287  0.2211  0.1171
19206PP      PP29310   1.456   4.214   8.799  0.2045 -0.3900  0.0669
19207PP      PP29311  12.867  14.348   2.494 -0.1856 -0.0632  0.4733
19208PP      PP29312   8.560  10.855   0.431  0.2237 -0.0334  0.0205
19209PP      PP29313   0.071   2.980  10.180  0.0792 -0.0407  0.2074
19210PP      PP29314   1.943  15.029   9.089  0.2582 -0.0197 -0.0598
19211PP      PP29315   8.858   5.044  11.151  0.0190 -0.0049 -0.1308
19212PP      PP29316  13.925   8.829   9.168 -0.2717 -0.0213  0.1863
19213PP      PP29317   8.181   4.199   4.210  0.2409  0.0714  0.0854
19214PP      PP29318  14.778   6.911   0.309  0.0257  0.1286  0.2568
19215PP      PP29319  15.085   1.986   9.680 -0.0578  0.4031 -0.1056
19216PP      PP29320   2.255   8.479  10.329 -0.0014  0.0315 -0.0838
19217PP      PP29321   7.076   9.422   1.598  0.0883  0.1765 -0.2010
19218PP      PP29322  13.669   3.531   8.239 -0.1259 -0.0205 -0.1711
19219PP      PP29323   1.269   3.188   1.493 -0.0217  0.1300 -0.1182
19220PP      PP29324  10.515   5.401   2.964  0.0829  0.0070  0.0400
19221PP      PP29325  15.386   2.362  11.455 -0.0700  0.1344  0.0081
19222PP      PP29326  13.760   4.554  12.354  0.0776  0.0027 -0.2831
19223PP      PP29327  14.832   0.964   8.997  0.3891  0.0157 -0.3033
19224PP      PP29328   8.081  11.942   0.869  0.0526  0.3097  0.1376
19225PP      PP29329   3.506  14.401  11.004  0.0263 -0.1990  0.0106
19226PP      PP29330  15.130  15.217   2.052 -0.0706 -0.0894  0.0841
19227PP      PP29331  10.593   8.798   1.575 -0.0314 -0.1751  0.0059
19228PP      PP29332   5.804   7.916  10.734  0.1972  0.0765  0.0404
19229PP      PP29333   7.238   8.429  11.718  0.0041  0.0510 -0.1164
19230PP      PP29334   6.915  11.446  12.530  0.1558 -0.4761 -0.1071
19231PP      PP29335   8.563   5.516   1.687  0.3105 -0.2023 -0.0337
19232PP      PP29336  12.810   1.816   0.936 -0.3686 -0.2757 -0.2274
19233PP      PP29337  13.513  12.335  10.315  0.1604 -0.1229  0.1836
19234PP      PP29338   7.252   6.509   1.490  0.1866  0.0975  0.0151
19235PP      PP29339   8.245  15.391  10.570  0.1072 -0.0313 -0.1083
19236PP      PP29340  12.342   3.954   9.981  0.0360 -0.2754  0.2080
19237PP      PP29341   0.763  13.896   3.023  0.1621 -0.1262 -0.2110
19238PP      PP29342   8.848   9.049   3.311  0.0126 -0.1493  0.1944
19239PP      PP29343   3.030   0.121   4.564  0.0786  0.1774 -0.2835
19240PP      PP29344   1.641   7.229   9.851  0.0685  0.2495  0.0671
19241PP      PP29345   2.028   7.731   3.179 -0.0621 -0.3661  0.2621
19242PP      PP29346  15.659  10.071  11.217 -0.1620 -0.1155  0.0005
19243PP      PP29347  15.356   5.518   8.592 -0.0580  0.1866 -0.0089
19244PP      PP29348   3.947   4.852   9.568  0.2333  0.0823  0.0061
19245PP      PP29349  11.079   4.070   1.277  0.2022  0.0144 -0.1543
19246PP      PP29350   8.218   5.227  12.038 -0.1379  0.1453  0.0677
19247PP      PP29351   5.307   5.368   0.998  0.0771  0.0622  0.0394
19248PP      PP29352  10.405   8.935   8.426 -0.2220 -0.2864 -0.3544
19249PP      PP29353  12.169   7.647   1.056  0.5155  0.1145 -0.0042
19250PP      PP29354   8.714   0.157  10.862 -0.1371 -0.0819  0.0586
19251PP      PP29355  15.407  11.133  11.765  0.0195  0.0541  0.2743
19252PP      PP29356   2.624   0.650   2.126 -0.2213 -0.0800  0.1310
19253PP      PP29357  11.587  13.123   9.432 -0.2458  0.2713 -0.2855
19254PP      PP29358  10.778  13.045   3.956 -0.1274  0.1861  0.2089
19255PP      PP29359  11.170   5.901   1.423 -0.1138 -0.2326  0.3864
19256PP      PP29360  12.145  11.188   1.763 -0.1180 -0.0385  0.2920
19257PP      PP29361  13.330  13.907   8.853 -0.1088  0.0485  0.4591
19258PP      PP29362   4.869   5.250   9.704  0.0417  0.1612  0.0529
19259PP      PP29363   4.180   6.404  12.243  0.2473 -0.1888  0.0628
19260PP      PP29364  10.169   7.201   8.749 -0.1464  0.0449 -0.0819
19261PP      PP29365   6.736   9.918   8.521 -0.1412  0.2657  0.2187
19262PP      PP29366   5.343  15.785   0.113  0.0576  0.1399  0.0463
19263PP      PP29367   9.632  15.112  11.237  0.2840  0.4721  0.0618
19264PP      PP29368   5.334  15.583   2.705  0.1174  0.0122 -0.1191
19265PP      PP29369   3.506   8.284   9.001 -0.2378 -0.1443  0.0611
19266PP      PP29370  12.805   7.900   0.710  0.0538  0.4956  0.2182
19267PP      PP29371   2.176   9.374  11.134 -0.2825 -0.3300 -0.1700
19268PP      PP29372   2.504  14.720   0.026 -0.0958  0.2018 -0.0237
19269PP      PP29373   3.298   8.280   9.444  0.0744 -0.0816 -0.1566
19270PP      PP29374   6.669   6.538   1.409  0.2234  0.0237  0.0001
19271PP      PP29375  12.943   6.112  10.342  0.1408 -0.0160  0.1393
19272PP      PP29376  16.084  15.424   9.153 -0.0550  0.0671 -0.3121
19273PP      PP29377   5.428  14.544   3.057  0.0974  0.0498  0.1594
19274PP      PP29378   7.375   6.324   4.076 -0.0572  0.1076  0.0276
19275PP      PP29379  10.959   5.189  10.734 -0.0500  0.1776  0.1759
19276PP      PP29380  14.971   7.403   1.122  0.1465 -0.1182 -0.0984
19277PP      PP29381  13.059   3.372  11.886 -0.2537  0.1434 -0.1615
19278PP      PP29382   5.846   3.301   2.996 -0.0318  0.1444  0.0742
19279PP      PP29383  13.343   4.415   0.366  0.2207 -0.2774 -0.1220
19280PP      PP29384  10.839   0.259   0.174  0.2493  0.3814 -0.1592
19281PP      PP29385   8.442  12.973   9.038  0.1469 -0.6467  0.1665
19282PP      PP29386   7.855   9.520   1.913 -0.1109  0.0316  0.0350
19283PP      PP29387   7.409   3.756   8.827  0.0713 -0.2274  0.4197
19284PP      PP29388   6.908  16.169  12.344 -0.1035 -0.0318 -0.4691
19285PP      PP29389   4.796   8.727  12.196  0.4735  0.4944  0.1136
19286PP      PP29390   3.921   8.966   8.018 -0.1705 -0.2833  0.0112
19287PP      PP29391   1.916   0.622   1.748 -0.1993  0.2145  0.1403
19288PP      PP29392  12.446   2.958   2.375  0.2656  0.0170  0.0513
19289PP      PP29393   7.733   2.189   9.853 -0.1250  0.0404 -0.0959
19290PP      PP29394  14.597  13.642  11.522  0.3819 -0.1819  0.2497
19291PP      PP29395   9.996   6.673   8.098  0.1422  0.0140  0.0183
19292PP      PP29396  16.189   7.678   1.984  0.0822 -0.0106  0.1052
19293PP      PP29397   0.484   2.992   8.727  0.0276  0.0276  0.2087
19294PP      PP29398   9.515   2.216   9.774 -0.0988 -0.0616  0.1553
19295PP      PP29399  12.434  14.335   0.133 -0.0690  0.0926 -0.0910
19296PP      PP29400   8.503  10.954   3.300  0.0882 -0.0974 -0.1237
19297PP      PP29401  11.832  12.385   9.771 -0.2662 -0.6533  0.0441
19298PP      PP29402   9.903   2.556   3.890 -0.4692  0.3896  0.1853
19299PP      PP29403  15.545   8.647   0.984  0.2230  0.0416 -0.2352
19300PP      PP29404  13.876   7.703   8.732  0.1445  0.1919 -0.2024
19301PP      PP29405  11.363  13.924   1.941  0.1219  0.1165  0.0348
19302PP      PP29406   9.433   1.089   0.305  0.0566 -0.1067 -0.1693
19303PP      PP29407   1.115   6.331   0.439  0.2271 -0.1775 -0.0907
19304PP      PP29408   3.887   0.029   0.354 -0.3213  0.0786 -0.0803
19305PP      PP29409   9.557  12.212  10.660  0.3536 -0.2560  0.3390
19306PP      PP29410  16.332   8.146  10.158  0.1670 -0.0523  0.1269
19307PP      PP29411  14.610   0.470   9.920  0.0775 -0.1416  0.0702
19308PP      PP29412   4.564   4.914   3.573  0.1319  0.1307 -0.4027
19309PP      PP29413  13.244  11.847   2.969 -0.3120 -0.0311  0.1874
19310PP      PP29414  16.223  13.647   3.106  0.0028  0.2505 -0.1173
19311PP      PP29415  11.984  13.847   3.975 -0.2545 -0.0032  0.3935
19312PP      PP29416   8.436   6.181   3.827  0.0330 -0.0342 -0.2425
19313PP      PP29417   9.304   8.114   1.053 -0.1553  0.0179  0.1384
19314PP      PP29418   2.843   9.670   1.761  0.0998  0.2066 -0.4112
19315PP      PP29419   7.136   9.426   3.816 -0.0742  0.2784 -0.3108
19316PP      PP29420   2.856   7.488   2.757 -0.4472 -0.0036  0.1495
19317PP      PP29421   1.458   0.635   4.933 -0.1270 -0.0930  0.0793
19318PP      PP29422   1.439  11.858   1.743  0.0624  0.0597  0.0471
19319PP      PP29423   8.504   6.765   9.506 -0.1437 -0.1245 -0.0493
19320PP      PP29424   6.432   5.837  11.484 -0.2530  0.1653 -0.3173
19321PP      PP29425  15.304   3.040  10.376 -0.2052  0.2242  0.3009
19322PP      PP29426   1.620   7.473   2.504 -0.2192 -0.0661  0.2111
19323PP      PP29427   5.290   1.753   0.060 -0.0934  0.0901  0.1695
19324PP      PP29428  11.637   0.702   2.067 -0.0083  0.1280 -0.1689
19325PP      PP29429  14.125  15.392   2.206  0.1999  0.1635 -0.1123
19326PP      PP29430   4.595  11.910   0.871 -0.3073  0.0878 -0.2031
19327PP      PP29431   3.481   5.503   2.329  0.0044 -0.0924  0.0293
19328PP      PP29432   5.871  15.323  12.600 -0.0078  0.1130 -0.1685
19329PP      PP29433   1.307  11.144   2.354  0.1480 -0.3563  0.1550
19330PP      PP29434   1.437   1.926   1.636  0.1211  0.0023  0.1606
19331PP      PP29435   2.455  11.107   2.109  0.2516 -0.1965 -0.0754
19332PP      PP29436   7.462   3.036   9.518 -0.1199  0.0380  0.0994
19333PP      PP29437  11.439   6.314  12.188 -0.1838  0.3441  0.2049
19334PP      PP29438   3.547   5.284   7.948 -0.0472 -0.1559 -0.2626
19335PP      PP29439   4.242  12.679   2.011  0.0554 -0.0558 -0.0768
19336PP      PP29440   3.991  14.402   8.137 -0.2540 -0.3744 -0.1525
19337PP      PP29441   0.572   8.854   3.373 -0.0206 -0.3787 -0.0960
19338PP      PP29442   4.159  13.213   8.310  0.1778  0.0869 -0.0206
19339PP      PP29443   2.451  10.410  10.254  0.1492 -0.4635  0.2131
19340PP      PP29444   2.790  15.823  11.974 -0.0173 -0.2149  0.6099
19341PP      PP29445  13.012   8.679   2.748 -0.0931 -0.1871  0.1353
19342PP      PP29446  14.959  10.155   2.609  0.0587 -0.0173  0.1653
19343PP      PP29447  14.358  11.198  11.800 -0.1663  0.0433  0.1463
19344PP      PP29448   7.723   6.777  11.112 -0.2640 -0.1318  0.1463
19345PP      PP29449  12.498   6.166  10.101 -0.1393  0.0523  0.1138
19346PP      PP29450   6.222   3.465   2.724  0.0160  0.0149 -0.0724
19347PP      PP29451   1.023   0.933   2.510 -0.0557 -0.0393 -0.0028
19348PP      PP29452   5.852   7.704   3.173  0.1878 -0.0635 -0.0354
19349PP      PP29453   3.448   3.015   2.361 -0.2350 -0.1370 -0.0979
19350PP      PP29454   8.253  12.128   3.108  0.0886 -0.2584  0.2507
19351PP      PP29455   3.064   1.269   3.884 -0.2839  0.0896 -0.2782
19352PP      PP29456   7.273   5.008   0.690  0.0618  0.0695  0.1630
19353PP      PP29457   1.573  13.286  11.887 -0.0395 -0.1256 -0.1350
19354PP      PP29458   3.493   7.270   1.591 -0.1592 -0.1756  0.1955
19355PP      PP29459  11.737   9.391   3.035  0.4359  0.1160  0.2458
19356PP      PP29460  11.317  15.789   0.627 -0.1216 -0.2097 -0.0303
19357PP      PP29461   7.263  10.845  10.437 -0.1579  0.1540  0.1009
19358PP      PP29462   6.234   5.567   8.485 -0.0107  0.0902 -0.1000
19359PP      PP29463   3.052   5.704   1.581 -0.2360  0.2115  0.0383
19360PP      PP29464  12.655  12.511   0.185 -0.1062 -0.2306  0.2988
19361PP      PP29465   6.755  15.864   3.801 -0.0632 -0.0257  0.0015
19362PP      PP29466   5.997  10.665   0.987 -0.0728  0.1692  0.1823
19363PP      PP29467   5.627   6.118   9.731 -0.2787 -0.2995  0.1309
19364PP      PP29468   4.370   9.940   9.632  0.1033  0.0731  0.1958
19365PP      PP29469   3.560   1.065  12.157  0.1451 -0.1082 -0.0059
19366PP      PP29470  12.707  12.959  11.604  0.2180 -0.3133 -0.2570
19367PP      PP29471  10.455  13.898   4.252  0.3098  0.0267 -0.1411
19368PP      PP29472   2.823   3.989   0.797  0.2677 -0.1280 -0.0250
19369PP      PP29473   2.478   1.818   0.878 -0.0923 -0.0607  0.2349
19370PP      PP29474   0.257  11.940   9.333 -0.1592  0.0023 -0.1934
19371PP      PP29475   3.244   4.409   0.187 -0.0465 -0.2052 -0.0166
19372PP      PP29476   4.284   6.621   0.907  0.1910 -0.1812  0.0809
19373PP      PP29477   0.442   2.775   1.739  0.0792 -0.0465 -0.0799
19374PP      PP29478   4.827   6.253  10.857 -0.0421 -0.3984  0.2168
19375PP      PP29479   1.816   2.512   0.244 -0.1847 -0.1332  0.3754
19376PP      PP29480   6.008  14.778   2.407  0.2603 -0.0893 -0.4654
19377PP      PP29481   0.202   4.267  10.874  0.3486 -0.1140  0.0349
19378PP      PP29482  10.743   2.660  11.547  0.0698 -0.0194  0.1638
19379PP      PP29483   4.742   1.376   1.410  0.2974 -0.0468 -0.0743
19380PP      PP29484   2.117   8.948  11.575 -0.2421  0.3202  0.2484
19381PP      PP29485   9.682  14.036  12.198 -0.3420  0.4474 -0.1000
19382PP      PP29486  15.872  15.836   0.677 -0.2717  0.1964 -0.1153
19383PP      PP29487   5.877  15.887   8.429 -0.0600  0.4334 -0.0299
19384PP      PP29488   2.094   0.340  12.427  0.0071 -0.0320  0.0744
19385PP      PP29489  13.027  10.989   1.123  0.1228 -0.0431 -0.1352
19386PP      PP29490   4.056  13.606   9.937 -0.0034 -0.0440  0.1824
19387PP      PP29491   0.552   0.172  12.289  0.3133 -0.2330 -0.1499
19388PP      PP29492   2.577  12.973   2.741  0.0465 -0.2331  0.0553
19389PP      PP29493   9.604   4.875   9.461 -0.1642  0.2082 -0.0279
19390PP      PP29494  10.153  11.711  10.342 -0.2951 -0.1422  0.0801
19391PP      PP29495  12.355   1.959   8.160 -0.0599  0.0198 -0.1536
19392PP      PP29496   3.800  16.315   9.261 -0.0481 -0.2308  0.1030
19393PP      PP29497   7.482  11.463   9.190 -0.1470  0.1575 -0.0715
19394PP      PP29498   5.661   6.523   2.600 -0.2283 -0.0650 -0.1699
19395PP      PP29499   9.763  11.676  11.789 -0.0884  0.1234 -0.0002
19396PP      PP29500   8.288   4.721   9.839  0.0516  0.2129  0.1034
19397PP      PP29501  16.049  11.688   8.139 -0.0994 -0.1830  0.1874
19398PP      PP29502   9.830   6.036   0.516 -0.2679 -0.3601 -0.1158
19399PP      PP29503  13.127  13.647   0.788  0.0154  0.2023 -0.2196
19400PP      PP29504   4.347  11.418   0.168  0.1598 -0.1217  0.0605
19401PP      PP29505  10.420   4.736   9.183  0.0258 -0.0737  0.1713
19402PP      PP29506   6.508  11.522  10.666 -0.1871 -0.0391  0.0574
19403PP      PP29507  12.496  15.378   9.320 -0.1165  0.0282 -0.2691
19404PP      PP29508   1.285   7.743   3.111  0.2412 -0.0945  0.1263
19405PP      PP29509   5.539   0.914   4.440 -0.3136 -0.0666 -0.1534
19406PP      PP29510   3.440  11.609  12.209  0.0227 -0.0288 -0.0920
19407PP      PP29511   8.364   7.300   8.169 -0.0557 -0.4724 -0.2874
19408PP      PP29512  14.467   6.786  12.747 -0.1338  0.4668  0.0399
19409PP      PP29513   0.882   1.476  11.249 -0.1963  0.1304 -0.0031
19410PP      PP29514   1.632   7.761  10.143  0.2524 -0.2005 -0.1429
19411PP      PP29515   9.279   3.414   2.421  0.1821 -0.1805  0.1228
19412PP      PP29516   6.911   8.289   9.660  0.1266  0.0282  0.0765
19413PP      PP29517  11.861   6.476   3.136  0.0936  0.2152 -0.0235
19414PP      PP29518  10.271  11.506   3.449  0.2250  0.2102  0.0348
19415PP      PP29519   2.618   2.318   8.346  0.1845  0.5198  0.2081
19416PP      PP29520   0.319   3.740  10.569  0.1640 -0.2602 -0.1371
19417PP      PP29521  12.971  14.489   2.035  0.0404 -0.1387  0.0502
19418PP      PP29522   5.499   1.687  12.305 -0.1458  0.0018 -0.0587
19419PP      PP29523   1.998   3.222  12.251 -0.0347  0.3164 -0.0510
19420PP      PP29524  10.918  15.989   3.796  0.0499  0.1465  0.1071
19421PP      PP29525   1.996  13.033   1.787  0.1132 -0.2079  0.1848
19422PP      PP29526   5.868   1.947   3.119 -0.0906  0.0618 -0.0278
19423PP      PP29527  14.512   9.729  11.647 -0.3699 -0.0715 -0.1997
19424PP      PP29528   2.133   9.619  11.617 -0.1592 -0.0740 -0.2406
19425PP      PP29529   1.200  13.259   8.532  0.2019  0.0917 -0.2618
19426PP      PP29530   2.158  15.138  12.374 -0.2477  0.3996  0.1033
19427PP      PP29531   1.931   4.746   9.247 -0.1773  0.2705  0.0503
19428PP      PP29532  12.996   9.311   1.951 -0.0126 -0.0120 -0.1462
19429PP      PP29533  13.940   2.914   8.997 -0.1705 -0.0318 -0.1408
19430PP      PP29534   9.486   6.963   0.022 -0.1426  0.1063 -0.1634
19431PP      PP29535  12.235   5.892   1.553  0.3017  0.5010 -0.0932
19432PP      PP29536   7.152   3.564   4.054  0.2953  0.1527 -0.3892
19433PP      PP29537   2.781  15.611   0.217  0.0531 -0.1534  0.0899
19434PP      PP29538   7.927  11.176   8.640  0.1104  0.4060 -0.0076
19435PP      PP29539  10.872   9.131   2.942 -0.1353  0.2336  0.0556
19436PP      PP29540   2.247  14.110   9.536 -0.2465  0.0330  0.2844
19437PP      PP29541   5.810   8.820   8.151 -0.0519 -0.0328 -0.1047
19438PP      PP29542  10.270  16.107   1.661 -0.2637 -0.0342  0.0337
19439PP      PP29543  12.038   6.544  11.151  0.2158  0.0177  0.0761
19440PP      PP29544  13.258   5.272   4.082 -0.2710  0.3047 -0.0050
19441PP      PP29545   2.107   3.840   0.559 -0.0242 -0.2150  0.1857
19442PP      PP29546   2.794  15.269  10.445 -0.1285 -0.0070 -0.0392
19443PP      PP29547   0.664   0.505  11.392  0.3165  0.0711 -0.2063
19444PP      PP29548  16.207  13.195   1.302 -0.1155  0.3083  0.1253
19445PP      PP29549   4.044  13.812  11.720 -0.0096 -0.0109  0.0040
19446PP      PP29550  14.224   2.580   3.972  0.0538  0.2044 -0.2581
19447PP      PP29551  14.717  13.368  10.988 -0.2000  0.1629 -0.1564
19448PP      PP29552   7.486   4.944   7.875 -0.0337  0.0040  0.1281
19449PP      PP29553   8.972   8.085  11.884  0.1316 -0.0650  0.1750
19450PP      PP29554   5.689  14.308   8.985 -0.1124 -0.0473 -0.0898
19451PP      PP29555   0.583   6.988  10.150  0.1618 -0.0279 -0.1255
19452PP      PP29556  15.868   2.224  10.604  0.0855 -0.3652  0.2215
19453PP      PP29557   4.401  15.684   2.464  0.2658  0.2218 -0.1865
19454PP      PP29558   8.229   1.572   9.651  0.1374  0.2169  0.0501
19455PP      PP29559   6.035   3.219   4.973  0.1714  0.0353 -0.1493
19456PP      PP29560   3.075  12.718   7.792  0.1808  0.3282 -0.0700
19457PP      PP29561   2.735  15.905   3.806 -0.0014 -0.1018  0.1399
19458PP      PP29562   7.616  15.030  12.584 -0.0885  0.1060 -0.2284
19459PP      PP29563  10.157   6.556   3.902  0.6046  0.2752  0.0299
19460PP      PP29564   2.486   4.196   3.178 -0.2804  0.2935  0.1074
19461PP      PP29565   3.551  15.219  10.440  0.0658 -0.1277 -0.3251
19462PP      PP29566  13.686   4.777   0.151 -0.4220 -0.0755  0.2369
19463PP      PP29567   4.728   7.690  11.559 -0.0717  0.1266 -0.0135
19464PP      PP29568   4.104   9.532  11.033  0.2726  0.2423 -0.4054
19465PP      PP29569  13.278   4.147   3.142 -0.0669  0.0582 -0.0418
19466PP      PP29570  16.272   9.550  12.453  0.0968  0.0612  0.0648
19467PP      PP29571   9.063  14.673   4.377 -0.0020 -0.1525 -0.1903
19468PP      PP29572   9.235   8.885   1.096 -0.0574 -0.2237  0.0672
19469PP      PP29573  15.679   6.891   7.804  0.0660  0.0882 -0.2882
19470PP      PP29574   2.674   8.749  10.620 -0.1190  0.0020  0.0858
19471PP      PP29575  10.128  10.534   1.858 -0.0270 -0.0090  0.2249
19472PP      PP29576   1.518  10.895   9.964 -0.2335 -0.0925  0.1027
19473PP      PP29577   7.570   1.132   0.983  0.1357 -0.0081  0.0282
19474PP      PP29578   6.583   1.964   3.286 -0.2339  0.0219 -0.4006
19475PP      PP29579   5.810  14.801  12.644  0.1180  0.2162 -0.2263
19476PP      PP29580   4.006  10.262   8.635  0.0477 -0.1775  0.2158
19477PP      PP29581  10.559   6.519   0.782 -0.0926 -0.0666  0.0030
19478PP      PP29582   9.531   9.220   0.271 -0.0038  0.1264 -0.1888
19479PP      PP29583   6.971   0.719   2.129  0.0868 -0.1823 -0.2935
19480PP      PP29584  13.371  15.582   0.671  0.1580  0.0453  0.1042
19481PP      PP29585  10.541   6.100   0.443 -0.1454 -0.0389  0.0259
19482PP      PP29586  13.507   0.295   1.873  0.2301  0.0415 -0.2932
19483PP      PP29587   9.678   5.906  11.860  0.0684 -0.1101 -0.3453
19484PP      PP29588  13.806   1.053  11.663  0.0782  0.2730  0.0812
19485PP      PP29589   3.294   2.745   3.811 -0.0916 -0.0233 -0.0424
19486PP      PP29590   5.505   1.620   1.874 -0.0298 -0.1139 -0.3287
19487PP      PP29591   6.636   6.043   1.605  0.2078  0.1227 -0.1423
19488PP      PP29592  16.065   0.977   1.266 -0.0095 -0.2946 -0.0536
19489PP      PP29593   2.244   7.640   3.657 -0.0405 -0.1339 -0.0931
19490PP      PP29594   9.011   5.810   2.037  0.1382  0.4197 -0.0125
19491PP      PP29595   2.562   2.377   2.270 -0.0032 -0.1078  0.0197
19492PP      PP29596  10.332  15.385  11.861  0.0227  0.0789 -0.1263
19493PP      PP29597   5.864   5.646   9.778 -0.2310  0.1748 -0.1146
19494PP      PP29598   8.024   3.269   8.555 -0.0302 -0.1627 -0.2273
19495PP      PP29599  14.370  15.819   2.327 -0.0324 -0.0869  0.1644
19496PP      PP29600   2.304  15.306  11.150  0.0887 -0.2644 -0.0479
19497PP      PP29601  14.996  11.122   8.907  0.1124 -0.1846 -0.2089
19498PP      PP29602   9.371   3.861   0.059 -0.3431  0.1702 -0.2023
19499PP      PP29603  15.912   4.640   8.302  0.2556  0.1055 -0.0395
19500PP      PP29604  13.932  13.340   0.069  0.0673  0.1549 -0.1600
19501PP      PP29605   3.449   3.789  11.874  0.1532  0.0582  0.1411
19502PP      PP29606  13.786   8.648   1.727  0.1364 -0.2863 -0.3871
19503PP      PP29607   2.978  14.854   9.263  0.3495  0.0923 -0.0468
19504PP      PP29608  13.388   7.440  11.587  0.1478 -0.0276  0.0147
19505PP      PP29609  12.851   1.813  11.698  0.0064 -0.4035  0.0961
19506PP      PP29610  13.824  12.640   9.345  0.0529  0.1170 -0.1913
19507PP      PP29611   4.910  10.366   8.424  0.0443  0.1677  0.0432
19508PP      PP29612   0.634  10.027   9.144 -0.0856  0.0758 -0.0234
19509PP      PP29613  15.695   4.529   2.903 -0.0292  0.2657  0.0025
19510PP      PP29614   1.712  11.192   4.117 -0.0932  0.4034 -0.0861
19511PP      PP29615   1.299  14.726   0.751 -0.0339  0.1026  0.0335
19512PP      PP29616  16.034   2.201   9.350  0.0073 -0.0300 -0.1253
19513PP      PP29617   1.718  10.248   2.101  0.1162  0.1224  0.1857
19514PP      PP29618  15.654  13.114  12.366 -0.2540 -0.1403 -0.0793
19515PP      PP29619  14.579   1.073   7.952  0.2456  0.2654  0.5169
19516PP      PP29620  11.155   8.527  11.168  0.3308  0.3815 -0.0967
19517PP      PP29621  14.057   5.091   0.837  0.2555 -0.1658  0.2112
19518PP      PP29622  14.924  15.837   0.726  0.1851  0.1358  0.2507
19519PP      PP29623   9.410  11.749   9.829  0.3547  0.1149 -0.1330
19520PP      PP29624  11.213   2.489   8.701  0.2102 -0.1124  0.1852
19521PP      PP29625   8.764   2.942   0.144 -0.2174 -0.2083 -0.0254
19522PP      PP29626   6.438   2.281   4.139 -0.2158 -0.1168  0.0972
19523PP      PP29627   2.838  14.233   3.840 -0.0671  0.3967  0.0665
19524PP      PP29628   6.561   3.451   2.050 -0.2767 -0.0391  0.0245
19525PP      PP29629   0.681   5.302   2.239  0.0833 -0.1303  0.2841
19526PP      PP29630  11.575   4.470   2.987  0.0670 -0.0117 -0.0472
19527PP      PP29631  11.383  10.238   0.391  0.1488  0.1992  0.0344
19528PP      PP29632   3.924   3.205  11.223 -0.0424 -0.3939 -0.0589
19529PP      PP29633   8.862  15.258   4.545 -0.1017  0.0591 -0.0061
19530PP      PP29634   3.193  15.684   3.663  0.2070  0.1639 -0.0367
19531PP      PP29635  13.112   2.406  11.366  0.2376 -0.0768  0.2195
19532PP      PP29636  11.081   4.422  11.255  0.0079 -0.2565  0.0244
19533PP      PP29637  13.687   9.516   2.461 -0.4330  0.0993 -0.1198
19534PP      PP29638  14.421   8.131  12.445  0.0874 -0.4271  0.0596
19535PP      PP29639   2.331   9.927  11.975  0.4552  0.2945 -0.1999
19536PP      PP29640  14.301   8.975   8.874  0.0069 -0.0063  0.0944
19537PP      PP29641  10.384   1.641   0.475  0.2338 -0.2537  0.1515
19538PP      PP29642  14.967  14.139  11.593 -0.4169  0.4373  0.2214
19539PP      PP29643   8.687  12.696   9.397 -0.3545 -0.0831 -0.1061
19540PP      PP29644  10.807   5.455   0.471 -0.1650 -0.1455  0.0383
19541PP      PP29645  16.302   1.923   1.244 -0.3062  0.0851 -0.1171
19542PP      PP29646  12.530  13.502   3.893 -0.1814  0.3499 -0.1272
19543PP      PP29647   8.436   2.573   1.712  0.1450 -0.0263  0.1754
19544PP      PP29648   9.144   9.773   1.352  0.2361 -0.2142  0.1108
19545PP      PP29649  15.225  15.741   1.084  0.1278  0.1070  0.2633
19546PP      PP29650   9.384  13.187  10.907 -0.2078 -0.1184  0.0844
19547PP      PP29651  13.019   9.206   0.796 -0.2571  0.2521  0.0157
19548PP      PP29652   8.600   1.180  10.598  0.0798  0.0673  0.2940
19549PP      PP29653   2.727  15.263   9.331  0.0658  0.3628  0.2993
19550PP      PP29654   5.865   0.997   2.976  0.2726  0.0016 -0.4748
19551PP      PP29655   1.372   1.592  11.228 -0.1357  0.0444  0.0309
19552PP      PP29656  10.509  14.296   9.959  0.1350  0.3134 -0.2610
19553PP      PP29657   3.114   9.435   9.175 -0.2046 -0.1526 -0.0398
19554PP      PP29658   2.990  12.533   1.982 -0.2421 -0.2045 -0.0859
19555PP      PP29659   6.224   8.295   9.387  0.0869  0.1007 -0.0400
19556PP      PP29660   2.062  15.045   0.111 -0.0707  0.1758 -0.0777
19557PP      PP29661  11.636   5.010   3.131 -0.1031 -0.1403  0.1695
19558PP      PP29662  13.693   9.638   8.267  0.0911  0.2111  0.0370
19559PP      PP29663   5.930   3.611   8.725 -0.3940  0.3998  0.0428
19560PP      PP29664   4.203   8.093   1.843  0.0896 -0.1085  0.1692
19561PP      PP29665   7.284   2.708   9.899 -0.2963  0.1538 -0.1613
19562PP      PP29666   7.709   5.927  11.677  0.1708  0.0104  0.3949
19563PP      PP29667  14.855  11.807   2.489  0.3481  0.0818  0.0748
19564PP      PP29668  14.834   9.347   8.749 -0.3882 -0.1861 -0.2835
19565PP      PP29669   8.946  11.213   9.620 -0.2204 -0.0796 -0.1950
19566PP      PP29670   1.971  11.831   0.721 -0.2127 -0.0671 -0.1554
19567PP      PP29671   9.237   1.568   8.734 -0.2844  0.0618  0.3654
19568PP      PP29672   0.130   2.193   3.404 -0.4744  0.1483  0.2749
19569PP      PP29673   9.026  10.782   3.267  0.3108  0.1439  0.1029
19570PP      PP29674  12.404   1.804  12.082  0.1811 -0.0932 -0.2312
19571PP      PP29675   9.826   5.413  10.678 -0.0904 -0.0408  0.0015
19572PP      PP29676   3.765   5.858   8.485  0.0312  0.0794 -0.3946
19573PP      PP29677   0.070   0.956   2.489 -0.0580 -0.0419  0.0627
19574PP      PP29678   7.344  13.642   4.825 -0.2005  0.2234 -0.4155
19575PP      PP29679   3.598  13.882  12.748 -0.0300 -0.1953  0.0423
19576PP      PP29680  14.035   9.758  11.924 -0.1010  0.0564  0.1216
19577PP      PP29681   7.715   2.422  11.792 -0.0946  0.2326 -0.1712
19578PP      PP29682   1.815   2.912   2.100 -0.0335  0.0453 -0.1317
19579PP      PP29683   7.078   4.409   9.901 -0.0054  0.0829  0.0490
19580PP      PP29684  12.594   8.068   2.464  0.1281 -0.1607 -0.1340
19581PP      PP29685   4.317   1.240   2.633  0.1424  0.0361  0.2478
19582PP      PP29686  13.316   4.354  12.131 -0.0773  0.0842  0.2081
19583PP      PP29687   5.286  11.007  10.324 -0.0951 -0.2539  0.4324
19584PP      PP29688  13.996   5.832   2.534 -0.1271  0.0948 -0.0327
19585PP      PP29689  12.078   6.214   0.669  0.2939  0.1339 -0.0753
19586PP      PP29690  12.428   9.975   4.100 -0.1280  0.0263  0.2759
19587PP      PP29691   1.224  14.028  10.910 -0.0742  0.2525  0.2304
19588PP      PP29692   4.406   2.211   0.200 -0.2845  0.2714  0.0827
19589PP      PP29693   3.931   9.849   7.924  0.0572 -0.0241  0.1278
19590PP      PP29694   4.839  11.982   0.108 -0.1010  0.3970  0.0807
19591PP      PP29695  15.225   8.370   8.200 -0.2179  0.0110 -0.1246
19592PP      PP29696   1.110   1.100   3.482  0.1230 -0.3326 -0.1184
19593PP      PP29697  15.756   4.167  11.046 -0.2077  0.0089 -0.1593
19594PP      PP29698  15.876   2.083  11.399 -0.1633  0.0374  0.1082
19595PP      PP29699  13.153   4.622   3.334  0.2259 -0.2182  0.1952
19596PP      PP29700  13.043  14.011  10.931 -0.2441 -0.0641  0.0572
19597PP      PP29701   4.163  15.338   9.512  0.3960  0.1020  0.2977
19598PP      PP29702   6.723   5.864   0.665 -0.0331  0.2157  0.0779
19599PP      PP29703  13.397   4.074   1.267  0.0210  0.1571  0.0013
19600PP      PP29704  10.848   1.426  11.514  0.0157 -0.1196 -0.1711
19601PP      PP29705  12.436   4.524   2.189 -0.0791  0.0960 -0.1807
19602PP      PP29706   5.230  14.528   1.071  0.0409 -0.1874 -0.0907
19603PP      PP29707  13.958   5.909   9.371 -0.0197  0.2061  0.1396
19604PP      PP29708  15.353   3.004  12.119  0.1182  0.2376  0.1530
19605PP      PP29709   5.539  11.001   8.962 -0.0781 -0.2248  0.4801
19606PP      PP29710   6.516   8.895   2.880 -0.1142 -0.0105 -0.0157
19607PP      PP29711   8.918  10.681   0.802  0.2316  0.1998 -0.0363
19608PP      PP29712  11.424   8.208   0.502 -0.0577 -0.1247 -0.2545
19609PP      PP29713  16.183  13.590  10.869  0.0084  0.0793  0.1139
19610PP      PP29714   4.686   4.141  12.661  0.0123 -0.2508 -0.0136
19611PP      PP29715   8.421   7.753   1.210 -0.0486  0.3438  0.1966
19612PP      PP29716   7.681   4.107  12.505 -0.0509  0.0511 -0.0317
19613PP      PP29717   7.354  10.917   2.611  0.1068  0.1052 -0.1796
19614PP      PP29718   4.812   1.517   4.014 -0.2931 -0.1475  0.1244
19615PP      PP29719  10.032  15.174  12.310 -0.0529  0.2038 -0.0169
19616PP      PP29720  12.479   6.479   0.942 -0.1123 -0.0376 -0.1365
19617PP      PP29721   0.810  10.770   1.355  0.0262  0.0409  0.0217
19618PP      PP29722   4.887  10.716   9.003  0.1307 -0.4696 -0.1326
19619PP      PP29723   6.017  15.092  10.261 -0.1399  0.0721  0.1620
19620PP      PP29724   6.721   4.164   8.007 -0.1460 -0.1169  0.1677
19621PP      PP29725   4.997   7.360   2.760 -0.2888  0.2900 -0.2553
19622PP      PP29726   0.692  10.946   4.346 -0.0578  0.3962  0.0795
19623PP      PP29727   2.592  10.902   0.808 -0.3143  0.2043  0.1308
19624PP      PP29728   7.237   2.171   3.510  0.2258 -0.0965 -0.1384
19625PP      PP29729   4.891   3.379   3.824  0.0947 -0.0166 -0.0893
19626PP      PP29730  13.577  11.153   8.984  0.0383 -0.0170  0.1441
19627PP      PP29731   0.995  13.423   2.682 -0.0415 -0.0352  0.0568
19628PP      PP29732   3.107   9.392  10.845  0.2807 -0.0442 -0.1476
19629PP      PP29733  13.958   6.024   7.474 -0.0404  0.2320  0.1467
19630PP      PP29734   5.556   8.120   8.733 -0.1166 -0.1039  0.1578
19631PP      PP29735   3.470   9.557   0.797 -0.1407 -0.0165 -0.0902
19632PP      PP29736  14.148  11.289   9.637  0.0224 -0.1602 -0.2122
19633PP      PP29737   5.274  15.649   2.208  0.1731  0.2832 -0.1866
19634PP      PP29738   4.109   5.568  11.897 -0.0855 -0.2507 -0.2127
19635PP      PP29739  11.070  16.025  11.090  0.1868  0.0439  0.1771
19636PP      PP29740   5.239   3.108  11.093 -0.0600 -0.1082 -0.0346
19637PP      PP29741   0.652   1.198   3.818 -0.1227  0.4142 -0.1243
19638PP      PP29742  13.222  12.363   9.849  0.0085  0.0183 -0.1292
19639PP      PP29743   0.079  10.392   9.008  0.0052 -0.0471 -0.3254
19640PP      PP29744   8.283  14.938   9.506 -0.2608 -0.3189 -0.1911
19641PP      PP29745  14.305   0.042   0.410  0.3681  0.2238 -0.0248
19642PP      PP29746   6.341   3.407   3.516  0.1547  0.1179  0.0197
19643PP      PP29747  11.860   1.292   8.554  0.0486  0.1189 -0.1071
19644PP      PP29748   2.969   1.076   8.788  0.1452 -0.1239 -0.0870
19645PP      PP29749   2.387  12.176   3.529  0.0192  0.1485 -0.3291
19646PP      PP29750   4.283  12.695   8.347 -0.0522 -0.1657  0.3552
19647PP      PP29751  10.773  13.376  11.534  0.1978 -0.0217  0.0212
19648PP      PP29752   7.706  15.577   0.594 -0.0514  0.1598  0.1397
19649PP      PP29753  16.212   0.923  11.568  0.2365  0.0233 -0.2395
19650PP      PP29754   4.825   2.124   2.208  0.0767  0.0625  0.3822
19651PP      PP29755  14.097   3.423   9.106  0.0339 -0.1439 -0.1902
19652PP      PP29756  10.481   2.142   0.430 -0.4724 -0.0897 -0.1211
19653PP      PP29757   2.165  15.095   2.590  0.3320  0.1074 -0.1943
19654PP      PP29758   9.247   5.523  12.725 -0.2637 -0.2419 -0.0568
19655PP      PP29759   5.055   2.393  10.407  0.0627 -0.1596 -0.2561
19656PP      PP29760  14.668  15.788  12.251 -0.1482 -0.0545  0.0845
19657PP      PP29761   5.825  16.092   1.564 -0.1564  0.0309 -0.1050
19658PP      PP29762  13.172  11.950   8.757  0.0057 -0.0880  0.2642
19659PP      PP29763  14.641   8.408   9.087  0.2369 -0.2867  0.0752
19660PP      PP29764   1.815   1.372   9.970  0.1375 -0.1701  0.1159
19661PP      PP29765   4.079  13.246   1.154 -0.0748 -0.0017  0.0507
19662PP      PP29766   2.158   4.449  11.403  0.0932 -0.2767 -0.1859
19663PP      PP29767   4.512  14.325  11.316  0.2563 -0.1117 -0.0058
19664PP      PP29768   8.336   2.762   8.485  0.0269 -0.0813  0.0042
19665PP      PP29769   6.862  16.078  10.972 -0.4699 -0.0339 -0.2336
19666PP      PP29770   2.288   1.361  11.385  0.2932  0.0849 -0.1623
19667PP      PP29771   4.870   9.310  12.733  0.0802  0.0331 -0.3935
19668PP      PP29772  13.330   1.552   8.368  0.2016  0.0091  0.2055
19669PP      PP29773   9.920  14.324   3.123  0.0878 -0.0332  0.2744
19670PP      PP29774  10.097   1.755   1.187 -0.0881  0.1431  0.1131
19671PP      PP29775   4.606  10.303   9.236 -0.3266 -0.1185  0.1437
19672PP      PP29776  14.050   3.686  11.624  0.0546 -0.0280  0.0800
19673PP      PP29777  10.316   4.334   3.331 -0.2023  0.0045 -0.1222
19674PP      PP29778  12.818  16.098  11.676 -0.0492 -0.0629 -0.0420
19675PP      PP29779   0.893   5.096  11.719 -0.1935  0.1137 -0.2043
19676PP      PP29780   9.136   7.070  10.200 -0.0449  0.0295 -0.0429
19677PP      PP29781  15.036   4.369  10.454 -0.3782 -0.3213  0.0615
19678PP      PP29782   1.110  13.432   0.753 -0.4168 -0.4630 -0.6603
19679PP      PP29783   4.185  12.032   1.107  0.0045  0.0927  0.2146
19680PP      PP29784  11.663  10.153   0.945 -0.2557 -0.0864 -0.2640
19681PP      PP29785  14.188  12.690  11.869  0.1732 -0.5243 -0.1813
19682PP      PP29786  14.679   5.485  12.313  0.2263  0.3753 -0.0482
19683PP      PP29787   6.847   0.960  11.187 -0.3496 -0.0779 -0.0327
19684PP      PP29788   7.347   2.762   3.307  0.1210  0.0943 -0.0253
19685PP      PP29789   4.414  15.556  10.891 -0.1647 -0.1992 -0.0090
19686PP      PP29790   7.751   0.049  11.949  0.2111 -0.1836 -0.1210
19687PP      PP29791   7.467  10.026  12.030  0.3055  0.0698  0.0993
19688PP      PP29792   7.529   2.453   2.310 -0.0813  0.0590  0.0224
19689PP      PP29793  12.335   5.302   9.205 -0.2029  0.0315 -0.0707
19690PP      PP29794   8.991  12.154  11.512 -0.1498 -0.1428  0.1740
19691PP      PP29795   7.704   8.628  10.900  0.0871 -0.2453  0.0262
19692PP      PP29796   4.119  10.923  11.281  0.0290  0.0668 -0.2105
19693PP      PP29797  12.438   8.243  12.079 -0.1802  0.0037 -0.0931
19694PP      PP29798   0.409   7.825   3.659 -0.0852 -0.0657 -0.0558
19695PP      PP29799   7.297   2.511  12.168  0.3653 -0.2751  0.1925
19696PP      PP29800   2.463   3.658   1.712 -0.0481  0.0506 -0.0729
19697PP      PP29801  10.078   2.125   9.537  0.1049  0.1666 -0.1326
19698PP      PP29802   0.315   8.592  12.057  0.2042  0.2971  0.2900
19699PP      PP29803   9.230   7.106   3.453  0.0862  0.1384 -0.2160
19700PP      PP29804   8.975   6.688  10.581  0.2802  0.0237 -0.1970
19701PP      PP29805  15.167  12.669  12.320 -0.0447 -0.2057  0.2955
19702PP      PP29806   1.218  10.351   8.392 -0.0788 -0.0427 -0.0264
19703PP      PP29807   6.564   8.812  11.362 -0.2214  0.2374 -0.1098
19704PP      PP29808   3.418   0.557  12.507  0.0739 -0.0808 -0.0477
19705PP      PP29809  14.049   7.314   9.674 -0.3478  0.0578  0.2364
19706PP      PP29810   6.413   0.241  11.444 -0.2122  0.0243  0.0123
19707PP      PP29811  16.199   1.177  10.345 -0.4606  0.2234  0.1513
19708PP      PP29812   7.851   6.826  10.116  0.2045  0.1073  0.2174
19709PP      PP29813   9.117   5.135   9.548  0.0304  0.0277  0.1085
19710PP      PP29814   9.456   1.101   2.459 -0.1778 -0.1646  0.0546
19711PP      PP29815   6.649   1.943   1.112 -0.0857  0.1420  0.1334
19712PP      PP29816   0.061   4.558   9.944 -0.1914  0.0782  0.0264
19713PP      PP29817   9.127   1.953   3.161  0.1651  0.1861  0.1813
19714PP      PP29818   3.768  12.534   1.763  0.0661  0.3749  0.1289
19715PP      PP29819   6.453   7.167  10.215 -0.0434  0.0781  0.0231
19716PP      PP29820   2.352   8.468   0.344  0.0608  0.1660  0.1899
19717PP      PP29821   6.235   0.055   9.607 -0.1897 -0.4610  0.0811
19718PP      PP29822   2.303  15.996  10.428 -0.0344 -0.0413 -0.2595
19719PP      PP29823  10.277   1.572   8.886 -0.0020  0.2983 -0.0794
19720PP      PP29824   7.454   0.336   4.229 -0.2907 -0.1390 -0.0069
19721PP      PP29825   5.086  11.549   8.422  0.0113  0.0692  0.0731
19722PP      PP29826  15.304   9.745   9.392  0.0993 -0.0877  0.0333
19723PP      PP29827  14.789   5.989  12.405  0.3908 -0.0522 -0.1382
19724PP      PP29828  13.401   6.862  11.483 -0.2539 -0.0903  0.2207
19725PP      PP29829   4.426   8.192   8.458  0.0223 -0.3385  0.2202
19726PP      PP29830  13.489   0.188  12.706  0.2105  0.0130 -0.1539
19727PP      PP29831   6.949   0.330   1.864  0.1963 -0.1465  0.3057
19728PP      PP29832   9.450   2.053   1.905 -0.0670 -0.0569  0.0483
19729PP      PP29833   4.143   7.967  11.803  0.0535  0.2148 -0.0826
19730PP      PP29834   4.855   8.373   8.072  0.1281 -0.2390  0.0280
19731PP      PP29835   8.108  13.263   3.596  0.2657 -0.0680  0.1435
19732PP      PP29836  15.371  12.048   0.771 -0.1110 -0.1601  0.1259
19733PP      PP29837   6.050   0.326  11.050  0.2192 -0.3054 -0.0656
19734PP      PP29838  11.087  10.908   0.927  0.0046 -0.1463 -0.0745
19735PP      PP29839   6.380  15.136   0.788  0.2874  0.3496 -0.2175
19736PP      PP29840   9.692  14.644   2.722 -0.0948 -0.3443 -0.0505
19737PP      PP29841  13.413   4.918  11.147  0.2025  0.1342  0.1285
19738PP      PP29842   6.590   5.964   3.388  0.2390 -0.0409  0.1196
19739PP      PP29843   4.933   7.784  11.064  0.2615 -0.0158 -0.3563
19740PP      PP29844  14.793   4.366   8.913  0.2338 -0.2675 -0.1793
19741PP      PP29845   7.819   6.037   9.531 -0.0998 -0.1599  0.1456
19742PP      PP29846  12.402   3.021  10.065 -0.2935  0.0897  0.0380
19743PP      PP29847   8.685   9.859   3.255 -0.0592 -0.2861 -0.1797
19744PP      PP29848  10.255  10.728   8.792  0.0485 -0.0267 -0.1532
19745PP      PP29849   6.128  15.765   1.330 -0.1071 -0.1638  0.0173
19746PP      PP29850   2.333   8.230   9.905 -0.0445  0.2380 -0.2482
19747PP      PP29851  10.442  15.460   1.587 -0.0085  0.2290  0.0525
19748PP      PP29852   1.228   8.209  10.301  0.1287 -0.1061  0.2427
19749PP      PP29853   9.088  11.746   3.938  0.1551 -0.0820 -0.3248
19750PP      PP29854   6.529   2.939   0.315  0.0389  0.0716  0.1288
19751PP      PP29855  16.322  15.863  11.103  0.1222  0.2025 -0.6790
19752PP      PP29856   7.429   3.101   4.201  0.1526 -0.2595 -0.1035
19753PP      PP29857   0.474  11.482   9.098 -0.1134  0.0959  0.1652
19754PP      PP29858   1.513   0.819   4.257 -0.1526 -0.2305 -0.0723
19755PP      PP29859  16.250  15.134   1.078  0.1038  0.1933  0.0954
19756PP      PP29860   8.271   7.428   9.716 -0.1742 -0.1937 -0.0611
19757PP      PP29861   7.091  16.189   1.060  0.0992 -0.0414  0.2982
19758PP      PP29862  16.084   3.678   2.636 -0.0676  0.2389 -0.1695
19759PP      PP29863   1.597  10.211   9.601 -0.1684 -0.1522  0.2545
19760PP      PP29864   3.574   1.826   9.394 -0.0408  0.0827 -0.0092
19761PP      PP29865  11.283   2.530  10.858  0.0270  0.2983  0.0945
19762PP      PP29866  15.158   5.381   0.790  0.0226  0.0086 -0.2981
19763PP      PP29867  10.282   6.823   1.044 -0.1756  0.1488 -0.0449
19764PP      PP29868  14.244  14.249   3.239 -0.1697 -0.0030 -0.1171
19765PP      PP29869   1.582  14.943  10.476 -0.2127 -0.0180  0.1657
19766PP      PP29870  13.386  16.234   9.442  0.0379  0.0884  0.1984
19767PP      PP29871   8.599  14.183   0.276  0.0578  0.0306  0.0439
19768PP      PP29872   3.284   0.743  10.339 -0.1647  0.1989  0.0558
19769PP      PP29873  11.019   0.188  11.486 -0.0454  0.0356 -0.1189
19770PP      PP29874   1.155   9.949   0.363  0.0012  0.1591  0.3044
19771PP      PP29875  16.085  12.172   3.497 -0.2080  0.3013 -0.3417
19772PP      PP29876   5.741  11.812   2.822 -0.0768  0.1565  0.1607
19773PP      PP29877  10.504  13.743   0.156  0.0412 -0.2103 -0.2991
19774PP      PP29878   9.140  10.009   0.335  0.0496 -0.0960 -0.3275
19775PP      PP29879   7.873   3.837   3.320  0.2248  0.0973 -0.0733
19776CNL    PA129880  10.919  11.275   5.829 -0.0854  0.4849  0.0269
19776CNL    PA229881  11.172  11.128   5.740  0.1539  0.0917  0.2555
19776CNL    PA329882  11.097  11.216   5.972 -0.1203 -0.3689 -0.3782
19776CNL    PA429883  11.022  11.033   5.920 -0.3096 -0.1265  0.0499
19777CNL    PA129884   1.494  11.596  10.506 -0.1372 -0.1207  0.0688
19777CNL    PA229885   1.698  11.833  10.463 -0.2324  0.5356  0.0328
19777CNL    PA329886   1.453  11.791  10.614  0.5797 -0.2931 -0.4340
19777CNL    PA429887   1.680  11.736  10.677 -0.1327 -0.3818  0.4114
19778CNL    PA129888   8.762   7.980   2.351  0.1092  0.4660 -0.3214
19778CNL    PA229889   8.935   8.064   2.575 -0.2777  0.4192 -0.0795
19778CNL    PA329890   8.810   8.207   2.382  0.4975  0.3976  0.0914
19778CNL    PA429891   8.716   8.143   2.561 -0.3705 -0.0377  0.3549
19779CNL    PA129892  12.343   3.389   4.247  0.3360 -0.1068 -0.3161
19779CNL    PA229893  12.249   3.561   4.473  0.0591 -0.0863  0.0844
19779CNL    PA329894  12.387   3.630   4.226  0.1573 -0.0324 -0.2373
19779CNL    PA429895  12.178   3.594   4.260  0.2700 -0.0309  0.3730
19780CNL    PA129896  10.990   3.576   7.171  0.3311 -0.1159 -0.2078
19780CNL    PA229897  11.058   3.819   7.329  0.0033 -0.1425 -0.0993
19780CNL    PA329898  11.181   3.705   7.130 -0.0233  0.0388 -0.2146
19780CNL    PA429899  11.056   3.870   7.105 -0.0836  0.0399  0.0303
19781CNL    PA129900   2.021   9.852   7.932  0.2389  0.1423 -0.0823
19781CNL    PA229901   2.259  10.003   7.847 -0.3464 -0.1093 -0.3389
19781CNL    PA329902   2.112  10.025   8.066  0.0513 -0.0114 -0.3838
19781CNL    PA429903   2.274   9.902   8.060  0.1530 -0.1430  0.4271
19782CNL    PA129904   1.037   1.158   7.349 -0.0557  0.1182  0.0373
19782CNL    PA229905   1.014   1.435   7.461 -0.0223 -0.0004 -0.1176
19782CNL    PA329906   0.917   1.209   7.553 -0.3422 -0.1578  0.3390
19782CNL    PA429907   1.114   1.263   7.602  0.3695  0.0661 -0.3998
19783CNL    PA129908  10.752   7.042   9.903 -0.2113 -0.1714  0.2444
19783CNL    PA229909  10.870   6.798   9.720 -0.1073  0.3289 -0.1464
19783CNL    PA329910  10.605   6.870   9.838 -0.1512 -0.1293 -0.2596
19783CNL    PA429911  10.685   6.933   9.643  0.1988  0.4285  0.4739
19784CNL    PA129912  11.146   9.138   4.469 -0.0563 -0.0129 -0.1610
19784CNL    PA229913  11.054   9.380   4.338  0.0700 -0.0399 -0.3812
19784CNL    PA329914  11.281   9.252   4.355 -0.1303 -0.0506 -0.3885
19784CNL    PA429915  11.125   9.187   4.181  0.2195  0.2511 -0.0517
19785CNL    PA129916  11.987  13.922   6.236 -0.1533 -0.0522  0.1177
19785CNL    PA229917  11.804  13.811   6.016 -0.1077 -0.2445 -0.1401
19785CNL    PA329918  12.077  13.882   6.022  0.5696  0.0852 -0.2584
19785CNL    PA429919  12.007  13.708   6.095  0.0529  0.2899 -0.1672
19786CNL    PA129920   7.577   3.840  11.849 -0.2740 -0.0959  0.0789
19786CNL    PA229921   7.824   4.023  11.862  0.2666  0.1895  0.0248
19786CNL    PA329922   7.769   3.852  12.034 -0.4722  0.1015 -0.5586
19786CNL    PA429923   7.871   3.775  11.837  0.0783  0.3954 -0.3598
19787CNL    PA129924   0.767   3.972  11.755 -0.1100  0.2595  0.2171
19787CNL    PA229925   0.509   3.972  11.890  0.0746 -0.1765  0.0644
19787CNL    PA329926   0.684   4.120  11.913 -0.0176  0.1493  0.4809
19787CNL    PA429927   0.552   4.165  11.760  0.1387 -0.0962  0.2941
19788CNL    PA129928  14.065   1.697   1.389 -0.2737 -0.4491 -0.0888
19788CNL    PA229929  14.196   1.428   1.390 -0.3212  0.0463  0.0104
19788CNL    PA329930  14.097   1.585   1.612 -0.2401 -0.2677  0.0764
19788CNL    PA429931  13.977   1.449   1.481 -0.0652  0.1998 -0.4442
19789CNL    PA129932   0.710   3.732   4.724 -0.2878 -0.3353  0.2008
19789CNL    PA229933   0.563   3.486   4.829 -0.0361  0.4506 -0.1141
19789CNL    PA329934   0.481   3.734   4.751  0.0886 -0.2509 -0.0754
19789CNL    PA429935   0.478   3.588   4.615  0.0555 -0.1216 -0.0760
19790CNL    PA129936   5.405  11.451   7.352  0.1449 -0.0280  0.1412
19790CNL    PA229937   5.409  11.598   7.095 -0.1512  0.1914  0.5119
19790CNL    PA329938   5.486  11.362   7.152  0.0010  0.3779 -0.0008
19790CNL    PA429939   5.293  11.393   7.102  0.3555  0.5844 -0.3361
19791CNL    PA129940   7.702  13.685   9.521  0.0004  0.1399 -0.1547
19791CNL    PA229941   7.926  13.559   9.730 -0.2241  0.1525  0.4019
19791CNL    PA329942   7.681  13.538   9.682  0.4724  0.0766  0.2572
19791CNL    PA429943   7.832  13.422   9.579 -0.4137 -0.1158 -0.0637
19792CNL    PA129944   2.620   8.095   1.854 -0.3489 -0.0271 -0.1616
19792CNL    PA229945   2.370   8.219   1.787  0.1336 -0.1672  0.1621
19792CNL    PA329946   2.492   8.178   2.021  0.4436 -0.2329  0.3947
19792CNL    PA429947   2.539   8.366   1.924 -0.1583  0.1398 -0.1211
19793CNL    PA129948  14.756  14.174   6.223  0.0097 -0.1771 -0.2261
19793CNL    PA229949  15.029  14.065   6.313 -0.4060  0.2463  0.0194
19793CNL    PA329950  14.976  14.203   6.096  0.3127 -0.3720 -0.2183
19793CNL    PA429951  15.026  14.314   6.254 -0.1700  0.1242 -0.0751
19794CNL    PA129952  14.481   5.766   4.436 -0.2385  0.4052 -0.1839
19794CNL    PA229953  14.244   5.955   4.454  0.1964 -0.1620 -0.4483
19794CNL    PA329954  14.449   5.921   4.267 -0.1864 -0.1775  0.2792
19794CNL    PA429955  14.244   5.841   4.246 -0.2426 -0.1241  0.2274
19795CNL    PA129956  11.986   9.179   3.762 -0.1358  0.1148  0.3131
19795CNL    PA229957  11.728   9.116   3.983  0.3405  0.2356  0.2574
19795CNL    PA329958  11.932   9.322   3.924  0.3363  0.5478 -0.1915
19795CNL    PA429959  11.719   9.290   3.815 -0.1776  0.4864  0.2247
19796CNL    PA129960  10.687   5.251   3.852 -0.1651 -0.0605 -0.3330
19796CNL    PA229961  10.854   5.138   4.075 -0.1728 -0.1731 -0.0300
19796CNL    PA329962  10.625   5.042   3.969 -0.2370  0.4818 -0.1347
19796CNL    PA429963  10.827   5.034   3.859 -0.1713 -0.4161 -0.0938
19797CNL    PA129964   2.853   9.992   0.979 -0.1170 -0.0271  0.2280
19797CNL    PA229965   2.653  10.207   1.043  0.1588  0.0302  0.0815
19797CNL    PA329966   2.628   9.938   0.926 -0.0051  0.5095  0.0888
19797CNL    PA429967   2.616   9.978   1.150  0.1513  0.1736 -0.3947
19798CNL    PA129968   0.758   0.157   8.321 -0.0545  0.0647  0.2354
19798CNL    PA229969   1.058   0.077   8.376 -0.1936 -0.1067  0.0324
19798CNL    PA329970   0.862  -0.043   8.224 -0.4701  0.2210  0.1436
19798CNL    PA429971   0.988   0.115   8.151 -0.0728  0.3855  0.3448
19799CNL    PA129972   7.562   3.375   1.714 -0.1137 -0.2236  0.1668
19799CNL    PA229973   7.418   3.641   1.637  0.1363 -0.1674 -0.0260
19799CNL    PA329974   7.611   3.495   1.512  0.2496  0.2450 -0.3170
19799CNL    PA429975   7.411   3.464   1.464 -0.3925 -0.0869 -0.3151
19800CNL    PA129976  10.712   8.386   5.551 -0.0134  0.2012 -0.0590
19800CNL    PA229977  10.445   8.406   5.706 -0.1098  0.3691  0.0045
19800CNL    PA329978  10.659   8.561   5.709  0.2547  0.2131 -0.1724
19800CNL    PA429979  10.503   8.609   5.587 -0.5442 -0.1103  0.0660
19801CNL    PA129980   1.672   1.734   6.471  0.0200 -0.1316  0.2440
19801CNL    PA229981   1.467   1.825   6.689  0.1192  0.0012 -0.0294
19801CNL    PA329982   1.462   1.751   6.437  0.2530  0.0618  0.1622
19801CNL    PA429983   1.459   1.594   6.609 -0.1599  0.4482  0.1521
19802CNL    PA129984  12.390  11.657   5.143 -0.0183  0.0431  0.2927
19802CNL    PA229985  12.647  11.490   5.103 -0.2499  0.2402 -0.3906
19802CNL    PA329986  12.427  11.456   5.279 -0.2537 -0.1550  0.1859
19802CNL    PA429987  12.425  11.371   5.077 -0.2267 -0.2114  0.1697
19803CNL    PA129988   3.322   6.965   9.881  0.1361 -0.0503 -0.1495
19803CNL    PA229989   3.324   6.975  10.186 -0.0144  0.0400  0.1890
19803CNL    PA329990   3.334   7.166   9.989 -0.2340  0.0794 -0.1622
19803CNL    PA429991   3.138   7.092  10.073  0.1249 -0.0458 -0.1291
19804CNL    PA129992   1.136   8.666   6.901 -0.0107  0.2923 -0.2053
19804CNL    PA229993   1.083   8.772   6.639 -0.0841  0.0454  0.0098
19804CNL    PA329994   0.918   8.709   6.835  0.2337  0.0216 -0.4016
19804CNL    PA429995   1.000   8.904   6.810 -0.1550  0.0596  0.2762
19805CNL    PA129996   8.378  11.992   8.378  0.1680  0.0651  0.0361
19805CNL    PA229997   8.428  12.073   8.083  0.1975 -0.1514 -0.1037
19805CNL    PA329998   8.603  12.004   8.285  0.1147 -0.0448  0.5795
19805CNL    PA429999   8.513  11.863   8.151  0.2918 -0.0709 -0.4375
19806CNL    PA130000  11.417  15.723   5.078  0.1510 -0.0699 -0.1899
19806CNL    PA230001  11.685  15.650   5.197 -0.1408  0.0740 -0.2331
19806CNL    PA330002  11.571  15.885   5.129 -0.1423 -0.0934  0.1790
19806CNL    PA430003  11.551  15.826   5.330  0.1430 -0.2646  0.1188
19807CNL    PA130004  14.549  16.130   7.403  0.1829 -0.0375  0.0134
19807CNL    PA230005  14.654  15.920   7.607 -0.2545 -0.0154  0.0214
19807CNL    PA330006  14.455  16.095   7.614 -0.1917 -0.1163  0.1884
19807CNL    PA430007  14.405  15.920   7.555 -0.1071 -0.5372 -0.2052
19808CNL    PA130008  16.103  12.553   8.767  0.3040  0.1771  0.3113
19808CNL    PA230009  15.859  12.382   8.740 -0.2583  0.1101  0.0429
19808CNL    PA330010  15.986  12.544   8.561  0.4109 -0.5647  0.3833
19808CNL    PA430011  16.061  12.354   8.597  0.2047  0.5205 -0.4792
19809CNL    PA130012   5.494   3.445   4.078 -0.0373  0.0486 -0.1253
19809CNL    PA230013   5.263   3.291   4.120  0.3116  0.1766  0.2022
19809CNL    PA330014   5.511   3.219   4.108 -0.0116 -0.2853 -0.1890
19809CNL    PA430015   5.425   3.298   4.306  0.2534  0.0661  0.1156
19810CNL    PA130016   3.357  13.325  11.143  0.1197 -0.0481  0.0917
19810CNL    PA230017   3.244  13.580  11.062  0.2629  0.2026 -0.2483
19810CNL    PA330018   3.240  13.350  10.929 -0.3725  0.0572 -0.0080
19810CNL    PA430019   3.086  13.401  11.051  0.4721 -0.0178 -0.3137
19811CNL    PA130020  14.878   2.717   4.836  0.3288  0.2344 -0.0361
19811CNL    PA230021  14.916   2.948   5.026 -0.4311  0.1427 -0.1200
19811CNL    PA330022  15.068   2.735   4.978  0.2859  0.1834 -0.1067
19811CNL    PA430023  15.096   2.934   4.861  0.0710 -0.4461 -0.1794
19812CNL    PA130024   8.359  10.512   5.483 -0.0233 -0.1926 -0.0459
19812CNL    PA230025   8.645  10.450   5.577 -0.4625  0.2492  0.0031
19812CNL    PA330026   8.403  10.474   5.713 -0.2121 -0.0635  0.2935
19812CNL    PA430027   8.472  10.312   5.637  0.1987 -0.5202 -0.0858
19813CNL    PA130028  12.740  11.041   9.498 -0.1961 -0.1378 -0.2807
19813CNL    PA230029  12.531  10.906   9.320  0.1795  0.2315  0.2455
19813CNL    PA330030  12.732  11.041   9.257  0.4182 -0.0835 -0.0186
19813CNL    PA430031  12.749  10.816   9.268 -0.1337  0.0212 -0.1349
19814CNL    PA130032   5.867  16.181   5.383  0.5434  0.0981  0.1742
19814CNL    PA230033   6.008  16.230   5.667  0.1710 -0.1372  0.3037
19814CNL    PA330034   5.772  16.106   5.614 -0.0201 -0.1286 -0.5140
19814CNL    PA430035   5.977  16.002   5.618  0.1270  0.0553  0.0622
19815CNL    PA130036  10.538   2.350   3.358 -0.2412  0.3241  0.0056
19815CNL    PA230037  10.442   2.052   3.346 -0.0979 -0.3867  0.1636
19815CNL    PA330038  10.517   2.232   3.139  0.3799  0.2095 -0.1116
19815CNL    PA430039  10.659   2.105   3.261 -0.0806  0.4081  0.0492
19816CNL    PA130040  15.374   0.073   7.980  0.3682 -0.1342  0.0853
19816CNL    PA230041  15.124   0.062   8.191 -0.0633 -0.2482 -0.2941
19816CNL    PA330042  15.136   0.054   7.942 -0.1705  0.1831 -0.4609
19816CNL    PA430043  15.146  -0.126   8.058  0.0341  0.3178  0.3912
19817CNL    PA130044   6.893   6.609   4.225  0.1360 -0.0227 -0.1523
19817CNL    PA230045   6.929   6.343   4.362  0.3290 -0.1385 -0.0092
19817CNL    PA330046   7.109   6.560   4.326  0.1265  0.0184  0.0865
19817CNL    PA430047   6.961   6.529   4.477 -0.3010 -0.0741  0.2959
19818CNL    PA130048   5.305   9.664   7.816  0.0706  0.0272  0.2388
19818CNL    PA230049   4.985   9.697   7.807 -0.2444  0.1188 -0.0963
19818CNL    PA330050   5.219   9.806   7.697  0.2194  0.0698 -0.0012
19818CNL    PA430051   5.099   9.644   7.596 -0.1688  0.3090  0.1461
19819CNL    PA130052   7.332   2.089   4.586 -0.2191  0.1666 -0.0183
19819CNL    PA230053   7.391   1.849   4.757  0.0564 -0.3262  0.1869
19819CNL    PA330054   7.521   2.087   4.709 -0.2001  0.0102 -0.5358
19819CNL    PA430055   7.376   2.034   4.863 -0.4118 -0.2775  0.0258
19820CNL    PA130056   4.510  16.049   5.823  0.1000 -0.0550 -0.0349
19820CNL    PA230057   4.655  16.076   6.121 -0.4259 -0.0636 -0.2021
19820CNL    PA330058   4.390  16.084   6.021 -0.1494  0.0565  0.1371
19820CNL    PA430059   4.497  15.892   6.065 -0.2319 -0.2290 -0.3546
19821CNL    PA130060   4.796   9.774   3.994 -0.0211 -0.1122 -0.0234
19821CNL    PA230061   4.911   9.867   4.282 -0.2638 -0.1650 -0.3048
19821CNL    PA330062   4.815  10.002   4.071 -0.1037  0.2618 -0.2595
19821CNL    PA430063   4.671   9.947   4.191 -0.1791  0.1303 -0.1251
19822CNL    PA130064   2.360  14.997   5.690 -0.1003 -0.3549 -0.1329
19822CNL    PA230065   2.208  14.895   5.443 -0.2840 -0.1302 -0.0233
19822CNL    PA330066   2.344  15.137   5.523  0.0383  0.4454 -0.0094
19822CNL    PA430067   2.414  14.947   5.412  0.2067  0.2678 -0.2377
19823CNL    PA130068   7.657   9.582   8.469  0.0643  0.1216  0.1618
19823CNL    PA230069   7.554   9.595   8.155  0.1625  0.0588 -0.2900
19823CNL    PA330070   7.700   9.419   8.313  0.0230 -0.2503  0.1415
19823CNL    PA430071   7.475   9.403   8.290 -0.2949  0.1631  0.2294
19824CNL    PA130072   8.030   4.391   6.138  0.0627 -0.0179 -0.1684
19824CNL    PA230073   8.239   4.626   6.127 -0.2776  0.0631  0.0039
19824CNL    PA330074   7.968   4.605   6.049 -0.0489 -0.0135 -0.1859
19824CNL    PA430075   8.034   4.677   6.282 -0.4291  0.0695  0.3214
19825CNL    PA130076   1.238  11.311   7.991 -0.0196  0.0681  0.0187
19825CNL    PA230077   1.206  11.509   7.752  0.2701 -0.1408  0.0272
19825CNL    PA330078   1.430  11.351   7.848  0.0327  0.0359 -0.1935
19825CNL    PA430079   1.289  11.269   7.726 -0.2834 -0.0559  0.0380
19826CNL    PA130080   3.832  10.502   6.709  0.1515  0.3658 -0.4629
19826CNL    PA230081   3.932  10.641   6.445  0.0463  0.3280  0.0518
19826CNL    PA330082   4.044  10.574   6.697  0.6242 -0.0265 -0.0282
19826CNL    PA430083   4.063  10.451   6.539 -0.2855 -0.1261 -0.1057
19827CNL    PA130084  10.652   7.611   5.636  0.2743  0.3367 -0.2491
19827CNL    PA230085  10.881   7.624   5.890  0.3993 -0.0761  0.2592
19827CNL    PA330086  10.639   7.444   5.803  0.1980  0.0492  0.2481
19827CNL    PA430087  10.830   7.409   5.737 -0.0012  0.0345  0.1096
19828CNL    PA130088   4.734   8.810   5.021 -0.1407 -0.0321  0.0609
19828CNL    PA230089   4.867   8.778   4.729  0.2389 -0.0195  0.5653
19828CNL    PA330090   4.636   8.905   4.827  0.4281  0.0335  0.3815
19828CNL    PA430091   4.806   8.987   4.815 -0.4683  0.1188 -0.0559
19829CNL    PA130092   5.042   8.672   5.428  0.0069 -0.0240 -0.3643
19829CNL    PA230093   5.019   8.700   5.748 -0.2546 -0.2155 -0.1985
19829CNL    PA330094   4.949   8.867   5.548  0.1684 -0.0647  0.0646
19829CNL    PA430095   4.817   8.720   5.620 -0.0253  0.0907  0.4231
19830CNL    PA130096   1.056  10.747  11.855 -0.0325  0.0828 -0.0951
19830CNL    PA230097   1.266  10.547  11.819 -0.2583 -0.1360  0.1354
19830CNL    PA330098   1.089  10.662  11.642  0.4181  0.0594  0.0426
19830CNL    PA430099   1.302  10.742  11.682 -0.2321 -0.1544  0.0699
19831CNL    PA130100  16.045  11.309   7.857  0.0407 -0.1725  0.2666
19831CNL    PA230101  15.829  11.051   7.880  0.0598 -0.0723  0.3335
19831CNL    PA330102  15.985  11.194   8.063  0.1553  0.3229 -0.1449
19831CNL    PA430103  15.791  11.253   8.010  0.0413 -0.0853  0.5451
19832CNL    PA130104   7.213   9.209   4.383  0.2446 -0.1358  0.1642
19832CNL    PA230105   7.052   8.973   4.308  0.0913  0.1651  0.1117
19832CNL    PA330106   7.046   9.151   4.522  0.4013  0.2870 -0.1038
19832CNL    PA430107   6.939   9.202   4.317  0.0662 -0.2537 -0.3006
19833CNL    PA130108   8.036  10.186   5.900 -0.1509  0.0198 -0.0610
19833CNL    PA230109   8.051  10.150   5.598  0.0067 -0.2151  0.1899
19833CNL    PA330110   8.128   9.982   5.817 -0.1276  0.0904 -0.2596
19833CNL    PA430111   7.922   9.984   5.744  0.0616 -0.2343 -0.2292
19834CNL    PA130112  11.459  14.607   8.794  0.0988  0.1722 -0.2004
19834CNL    PA230113  11.277  14.612   8.544  0.0258 -0.1791 -0.0260
19834CNL    PA330114  11.261  14.479   8.779 -0.3995  0.6140  0.2776
19834CNL    PA430115  11.181  14.674   8.759  0.0320  0.2192 -0.5261
19835CNL    PA130116   3.954   7.673   5.258  0.0419 -0.1020  0.4039
19835CNL    PA230117   3.882   7.778   5.514 -0.1213  0.0294 -0.2187
19835CNL    PA330118   4.068   7.863   5.360  0.0848  0.3070 -0.0999
19835CNL    PA430119   3.854   7.932   5.320  0.0398  0.1307  0.3586
19836CNL    PA130120   8.694   6.536   4.337  0.0329  0.0165  0.0039
19836CNL    PA230121   8.549   6.757   4.460  0.3293  0.2478  0.2286
19836CNL    PA330122   8.805   6.753   4.383  0.0020 -0.0699 -0.1925
19836CNL    PA430123   8.649   6.791   4.237  0.2426  0.1121  0.0224
19837CNL    PA130124  14.708  16.149   1.627 -0.0752 -0.3592  0.0140
19837CNL    PA230125  14.541  15.931   1.506 -0.1041 -0.2195 -0.3140
19837CNL    PA330126  14.604  15.978   1.760  0.0224  0.2035  0.3249
19837CNL    PA430127  14.430  16.065   1.671  0.2254  0.4107  0.1434
19838CNL    PA130128   9.320   0.980   9.674  0.0486 -0.3191  0.0386
19838CNL    PA230129   9.297   1.232   9.507 -0.3067  0.2468  0.0155
19838CNL    PA330130   9.192   0.965   9.468  0.1163  0.1165  0.4923
19838CNL    PA430131   9.097   1.113   9.586 -0.0115  0.1525  0.0991
19839CNL    PA130132   5.004  10.804  11.420  0.0391  0.0793  0.0873
19839CNL    PA230133   4.951  10.515  11.244  0.0292 -0.3852 -0.0281
19839CNL    PA330134   4.761  10.695  11.371 -0.1831  0.2796 -0.3160
19839CNL    PA430135   4.873  10.715  11.162  0.0953  0.2715 -0.0743
19840CNL    PA130136   7.473   8.798   7.980 -0.0157  0.1404  0.0904
19840CNL    PA230137   7.416   8.914   7.692  0.4156 -0.2119  0.0033
19840CNL    PA330138   7.545   8.713   7.746 -0.0850 -0.4032  0.2182
19840CNL    PA430139   7.364   8.711   7.730 -0.6278 -0.1180  0.6893
19841CNL    PA130140  16.224   9.681   4.810  0.2836  0.0858  0.0861
19841CNL    PA230141  16.049   9.922   4.788  0.1419  0.0830 -0.1336
19841CNL    PA330142  16.268   9.865   4.940  0.2798 -0.1520 -0.1220
19841CNL    PA430143  16.295   9.949   4.742 -0.3441  0.0160 -0.1990
19842CNL    PA130144  11.703  10.823   4.179 -0.2074 -0.2823 -0.0169
19842CNL    PA230145  11.460  10.946   4.340 -0.1522 -0.0654  0.0681
19842CNL    PA330146  11.470  10.748   4.160  0.1809 -0.2598 -0.1564
19842CNL    PA430147  11.507  10.706   4.374 -0.1898  0.3639  0.3513
19843CNL    PA130148  11.842   6.070   4.310  0.0979 -0.0873 -0.0701
19843CNL    PA230149  11.805   6.061   4.598  0.1007  0.2343  0.0487
19843CNL    PA330150  11.804   6.283   4.426 -0.0483  0.5661 -0.0841
19843CNL    PA430151  11.622   6.168   4.475  0.2846 -0.0632  0.3491
19844CNL    PA130152   6.214   6.228   4.290 -0.0010  0.1320 -0.2261
19844CNL    PA230153   6.498   6.315   4.366 -0.0589  0.1061  0.1230
19844CNL    PA330154   6.265   6.364   4.488 -0.1946  0.3564  0.0267
19844CNL    PA430155   6.360   6.185   4.546  0.3413 -0.1361  0.1484
19845CNL    PA130156   3.262  11.126  11.266  0.0692 -0.0146 -0.1394
19845CNL    PA230157   3.256  11.193  10.944  0.1914  0.0597  0.0252
19845CNL    PA330158   3.453  11.204  11.133  0.1967 -0.0207  0.1888
19845CNL    PA430159   3.408  11.025  11.032  0.2440  0.1481  0.5624
19846CNL    PA130160  15.788   0.359   8.086 -0.0307  0.0908 -0.0591
19846CNL    PA230161  15.820   0.010   8.022  0.4164 -0.2383  0.1160
19846CNL    PA330162  15.954   0.253   7.977 -0.2682  0.0742 -0.6344
19846CNL    PA430163  15.974   0.125   8.162 -0.2581  0.2388  0.0891
19847CNL    PA130164  12.987   6.903   6.178  0.1928 -0.1968  0.0396
19847CNL    PA230165  13.142   7.136   6.048 -0.0468 -0.1689  0.2081
19847CNL    PA330166  13.104   7.052   6.309  0.0768 -0.0420 -0.4502
19847CNL    PA430167  13.246   7.000   6.147 -0.4425  0.2854  0.2340
19848CNL    PA130168   4.788   0.615   8.552  0.2216  0.2544  0.0970
19848CNL    PA230169   4.858   0.910   8.684 -0.0248  0.4101 -0.2317
19848CNL    PA330170   4.619   0.766   8.644 -0.1191  0.0389 -0.4502
19848CNL    PA430171   4.759   0.742   8.819  0.3404 -0.2248 -0.4226
19849CNL    PA130172   5.762   9.764   6.223 -0.0434  0.2593  0.2783
19849CNL    PA230173   6.067   9.684   6.152 -0.0034 -0.0244 -0.0802
19849CNL    PA330174   5.919   9.802   6.367 -0.1206  0.4303  0.1526
19849CNL    PA430175   5.972   9.593   6.353  0.5289 -0.1022 -0.0260
19850CNL    PA130176   6.686  14.119   4.839  0.1767 -0.0411 -0.2068
19850CNL    PA230177   6.788  13.946   4.617 -0.0892 -0.0325 -0.0556
19850CNL    PA330178   6.774  13.895   4.856  0.0007  0.0636  0.1494
19850CNL    PA430179   6.604  13.857   4.727 -0.1421  0.1762 -0.2637
19851CNL    PA130180   5.972   5.258  11.585 -0.1466 -0.0113 -0.2235
19851CNL    PA230181   5.973   5.576  11.543 -0.2145  0.4923 -0.2779
19851CNL    PA330182   6.141   5.389  11.475 -0.0481 -0.1283 -0.3695
19851CNL    PA430183   5.950   5.438  11.358  0.3888  0.4022  0.4255
19852CNL    PA130184   2.249   2.286   4.070 -0.1146  0.1958  0.0004
19852CNL    PA230185   2.135   2.465   3.821 -0.2228 -0.3284 -0.1040
19852CNL    PA330186   2.082   2.420   4.097  0.1631 -0.0501  0.2860
19852CNL    PA430187   2.220   2.570   4.068  0.0665  0.0937 -0.2814
19853CNL    PA130188   2.395  13.047   8.525 -0.1788 -0.1629 -0.0471
19853CNL    PA230189   2.191  13.042   8.291 -0.0205  0.0500 -0.1032
19853CNL    PA330190   2.365  12.843   8.422 -0.0938  0.0023 -0.1474
19853CNL    PA430191   2.155  12.883   8.474 -0.0400 -0.1628  0.0941
19854CNL    PA130192   0.856  12.650   8.131  0.1227  0.4183  0.2139
19854CNL    PA230193   0.805  12.477   7.890  0.1735  0.2060 -0.1562
19854CNL    PA330194   0.776  12.415   8.152 -0.2449 -0.1203 -0.1840
19854CNL    PA430195   0.624  12.528   8.036  0.3030 -0.0216 -0.0425
19855CNL    PA130196  11.010   0.632   4.291  0.5094  0.0610  0.0699
19855CNL    PA230197  10.922   0.335   4.342 -0.1516 -0.1156 -0.1244
19855CNL    PA330198  11.057   0.482   4.154 -0.1592  0.1606 -0.1750
19855CNL    PA430199  11.142   0.387   4.338 -0.3461  0.7981 -0.2413
19856OST    PA130200  10.204   3.643   8.331  0.0095  0.2700  0.0405
19856OST    PA230201  10.535   3.566   8.481  0.4248 -0.1182 -0.1024
19856OST    PA330202  10.584   3.836   8.471 -0.0358  0.1748 -0.2908
19856OST    PA430203  10.673   3.528   8.609  0.0452 -0.0048  0.3891
19856OST    PA530204  10.678   3.218   8.493 -0.0998 -0.3051 -0.1139
19856OST    PA630205  10.514   3.255   8.339 -0.0483 -0.3910  0.0566
19857OST    PA130206   6.035   4.228   2.278 -0.1149 -0.1808  0.2892
19857OST    PA230207   6.390   4.270   2.212  0.0364  0.0866  0.1752
19857OST    PA330208   6.450   3.985   2.166 -0.0243 -0.6352  0.1312
19857OST    PA430209   6.510   4.364   2.048 -0.2766 -0.0734  0.3025
19857OST    PA530210   6.438   4.668   2.135  0.4796 -0.0959 -0.1502
19857OST    PA630211   6.302   4.596   2.316 -0.2678  0.2197 -0.0600
19858OST    PA130212   3.164   3.024  11.563 -0.0644  0.0395  0.3406
19858OST    PA230213   3.258   3.346  11.450  0.0842  0.0927 -0.1367
19858OST    PA330214   3.199   3.470  11.711 -0.4756  0.0081  0.3711
19858OST    PA430215   3.437   3.443  11.424 -0.0768 -0.0614 -0.6952
19858OST    PA530216   3.498   3.319  11.120  0.1662  0.2568 -0.5451
19858OST    PA630217   3.284   3.185  11.145 -0.4955  0.0314  0.3639
19859OST    PA130218  13.567   0.950   3.247 -0.1449 -0.4665  0.0056
19859OST    PA230219  13.293   1.138   3.102  0.2032  0.0760 -0.0934
19859OST    PA330220  13.109   0.932   3.169  0.0978 -0.1151 -0.0735
19859OST    PA430221  13.178   1.281   3.057 -0.0648  0.1690 -0.0900
19859OST    PA530222  13.362   1.487   2.917 -0.2300 -0.1724 -0.1997
19859OST    PA630223  13.522   1.321   2.921 -0.0730 -0.3384 -0.4965
19860OST    PA130224   6.489  12.134   3.636 -0.1474 -0.1349  0.1209
19860OST    PA230225   6.521  12.043   3.984 -0.0135  0.4878 -0.1101
19860OST    PA330226   6.610  11.753   3.956 -0.3407 -0.0413 -0.0205
19860OST    PA430227   6.533  12.043   4.198  0.1224  0.4646  0.3924
19860OST    PA530228   6.703  12.333   4.211  0.3104  0.3749  0.0087
19860OST    PA630229   6.708  12.356   3.999 -0.0851  0.1185  0.3949
19861OST    PA130230  13.268  15.672   2.430  0.2967  0.3127  0.0056
19861OST    PA230231  13.494  15.962   2.427  0.2353  0.1539 -0.6600
19861OST    PA330232  13.655  15.889   2.172 -0.3786  0.2869 -0.4133
19861OST    PA430233  13.648  16.018   2.539 -0.1226  0.1351 -0.0038
19861OST    PA530234  13.475  16.088   2.817  0.3054  0.3289 -0.1587
19861OST    PA630235  13.265  16.079   2.657  0.1137  0.1544  0.0185
19862OST    PA130236  11.148  11.834   0.502  0.0829  0.0884  0.0688
19862OST    PA230237  11.346  12.007   0.251 -0.3156 -0.1244 -0.1646
19862OST    PA330238  11.493  12.240   0.384  0.1849 -0.1049 -0.3676
19862OST    PA430239  11.344  12.100   0.072  0.2073  0.2083 -0.0813
19862OST    PA530240  11.250  11.845  -0.115  0.1896  0.2385  0.2464
19862OST    PA630241  11.247  11.705   0.085  0.0659 -0.1986  0.3760
19863OST    PA130242  11.379   3.973  11.040  0.0376 -0.2255 -0.2140
19863OST    PA230243  11.680   3.941  10.843  0.3288 -0.1862 -0.1379
19863OST    PA330244  11.783   3.692  10.979  0.1786 -0.2295  0.3202
19863OST    PA430245  11.689   3.860  10.654 -0.2464  0.1805 -0.1273
19863OST    PA530246  11.782   4.131  10.502  0.6541 -0.0593  0.5386
19863OST    PA630247  11.761   4.267  10.700  0.0073  0.0568 -0.3025
19864OST    PA130248  12.124   3.913  12.460  0.1800 -0.2914 -0.1203
19864OST    PA230249  11.825   3.685  12.386 -0.1381 -0.3066 -0.1904
19864OST    PA330250  11.744   3.813  12.130 -0.1272  0.1045 -0.1626
19864OST    PA430251  11.735   3.498  12.321 -0.0337 -0.1193 -0.1412
19864OST    PA530252  11.844   3.321  12.590  0.0778 -0.3512 -0.1089
19864OST    PA630253  11.926   3.506  12.682 -0.1679  0.5956  0.1200
19865OST    PA130254  14.555   1.405   1.734 -0.0262  0.0903  0.0518
19865OST    PA230255  14.771   1.477   2.023  0.1701 -0.7124 -0.0349
19865OST    PA330256  14.548   1.647   2.058  0.5611 -0.4989  0.1629
19865OST    PA430257  14.825   1.450   2.231  0.0139 -0.0510  0.2796
19865OST    PA530258  14.977   1.169   2.204 -0.1563  0.3520 -0.2157
19865OST    PA630259  14.944   1.176   1.950 -0.2440 -0.0623 -0.2504
19866OST    PA130260  12.986   8.837   9.042 -0.2183  0.1870 -0.0337
19866OST    PA230261  13.204   8.809   9.306  0.1565  0.4710 -0.0285
19866OST    PA330262  13.402   8.730   9.084 -0.0042  0.3430 -0.2490
19866OST    PA430263  13.348   8.884   9.410 -0.0036  0.1914 -0.1591
19866OST    PA530264  13.166   9.043   9.570 -0.1158  0.1612  0.3707
19866OST    PA630265  12.937   8.974   9.468  0.2654  0.0338 -0.3137
19867OST    PA130266   8.582   0.040   2.374 -0.0560 -0.1250  0.1281
19867OST    PA230267   8.914   0.012   2.357 -0.0514  0.0100 -0.3675
19867OST    PA330268   8.924  -0.244   2.510 -0.3703 -0.2090  0.2702
19867OST    PA430269   9.077   0.084   2.446 -0.1087  0.1896 -0.1805
19867OST    PA530270   9.151   0.296   2.239  0.2273  0.1964  0.6498
19867OST    PA630271   8.963   0.311   2.154 -0.1440 -0.2028 -0.5697
19868OST    PA130272   0.010   4.480   0.418  0.2046 -0.0500  0.0228
19868OST    PA230273   0.316   4.395   0.310 -0.0471  0.1271 -0.2524
19868OST    PA330274   0.250   4.150   0.395 -0.3279 -0.1696  0.4393
19868OST    PA430275   0.533   4.352   0.331 -0.0918  0.1117 -0.0045
19868OST    PA530276   0.571   4.681   0.262 -0.0881 -0.0551  0.1812
19868OST    PA630277   0.341   4.740   0.237 -0.4693 -0.1759 -0.0552
19869OST    PA130278  16.326  13.387   8.882  0.1672  0.4132  0.1884
19869OST    PA230279  16.560  13.538   9.131 -0.0026  0.0919 -0.4013
19869OST    PA330280  16.781  13.424   8.959 -0.1582 -0.4246  0.1685
19869OST    PA430281  16.692  13.563   9.300  0.1685 -0.2930  0.4138
19869OST    PA530282  16.440  13.646   9.455  0.0811 -0.3977 -0.2383
19869OST    PA630283  16.255  13.647   9.317 -0.3130 -0.0916  0.0965
19870OST    PA130284   8.025  14.872  12.186  0.1153  0.3725  0.1781
19870OST    PA230285   8.086  15.143  12.417 -0.5333 -0.1354 -0.1162
19870OST    PA330286   7.874  15.200  12.259  0.1780 -0.1556 -0.1741
19870OST    PA430287   8.025  15.219  12.569 -0.0175  0.1697  0.0482
19870OST    PA530288   8.238  15.042  12.737 -0.5163 -0.2539  0.0368
19870OST    PA630289   8.353  14.965  12.536  0.1062 -0.1960 -0.0244
19871OST    PA130290   7.252   2.367  10.652  0.0645  0.4144  0.1724
19871OST    PA230291   7.292   2.643  10.868  0.4780  0.0325 -0.5423
19871OST    PA330292   7.338   2.816  10.625 -0.0827 -0.0459  0.0130
19871OST    PA430293   7.217   2.773  10.959  0.0573 -0.3454 -0.0190
19871OST    PA530294   7.253   2.630  11.229  0.2012  0.2698 -0.7495
19871OST    PA630295   7.369   2.420  11.140 -0.1959  0.4020  0.1325
19872OST    PA130296   3.889  14.157   3.692  0.4292 -0.0080 -0.1018
19872OST    PA230297   4.098  14.265   3.408 -0.3915  0.1715 -0.0536
19872OST    PA330298   4.035  14.506   3.588  0.0342  0.5926 -0.0629
19872OST    PA430299   4.179  14.365   3.248 -0.2023  0.2340 -0.2109
19872OST    PA530300   4.102  14.123   3.050  0.2712  0.5815  0.0262
19872OST    PA630301   4.049  13.980   3.205 -0.2171 -0.0135 -0.0052
19873OST    PA130302  15.178  10.451   2.329  0.3277 -0.2235  0.0392
19873OST    PA230303  15.316  10.115   2.229 -0.1867 -0.1213 -0.1173
19873OST    PA330304  15.320  10.214   1.967 -0.1556 -0.1353  0.0393
19873OST    PA430305  15.318   9.927   2.189  0.1249 -0.0377 -0.0088
19873OST    PA530306  15.412   9.841   2.477 -0.5499  0.1262  0.2809
19873OST    PA630307  15.399  10.068   2.572  0.2256  0.0729 -0.2388
19874OST    PA130308   9.348  13.215   1.625  0.0166 -0.2206  0.1300
19874OST    PA230309   9.342  13.492   1.380 -0.3266  0.0013 -0.0270
19874OST    PA330310   9.630  13.557   1.448  0.0554 -0.3162 -0.1607
19874OST    PA430311   9.298  13.688   1.366 -0.2288 -0.2587 -0.1228
19874OST    PA530312   8.996  13.574   1.257 -0.3728  0.2182 -0.3135
19874OST    PA630313   9.040  13.355   1.227 -0.4890 -0.0744  0.1711
19875OST    PA130314   4.916  11.425   3.084  0.2245 -0.0938  0.1452
19875OST    PA230315   5.115  11.725   3.109  0.1869 -0.0089 -0.4515
19875OST    PA330316   4.812  11.793   3.185 -0.2774 -0.4138 -0.2426
19875OST    PA430317   5.184  11.855   3.256  0.2142 -0.2349 -0.2977
19875OST    PA530318   5.471  11.674   3.287 -0.3010  0.7606 -0.4857
19875OST    PA630319   5.416  11.509   3.133  0.2226 -0.1029 -0.0534
19876OST    PA130320  13.944  13.348   8.968  0.0213  0.0265 -0.1837
19876OST    PA230321  14.124  13.192   9.238 -0.1994  0.0835  0.0137
19876OST    PA330322  14.394  13.118   9.102  0.1889 -0.3817  0.2317
19876OST    PA430323  14.120  13.014   9.354  0.0198  0.2931 -0.0421
19876OST    PA530324  13.826  13.051   9.498 -0.0905 -0.3416 -0.1724
19876OST    PA630325  13.809  13.253   9.394 -0.2798  0.1518  0.2573
19877OST    PA130326  12.038   7.480   2.393  0.0705 -0.0535 -0.1046
19877OST    PA230327  11.816   7.586   2.631  0.0307  0.0491  0.1494
19877OST    PA330328  11.751   7.831   2.482 -0.2427  0.5377 -0.0299
19877OST    PA430329  11.796   7.673   2.800  0.1054 -0.1867 -0.2902
19877OST    PA530330  11.865   7.436   3.002 -0.1360  0.1612  0.3045
19877OST    PA630331  11.927   7.285   2.793 -0.1404 -0.1212 -0.3401
19878OST    PA130332  10.289  13.184   4.667  0.0895  0.1577  0.0244
19878OST    PA230333  10.199  12.892   4.455  0.2004  0.4676  0.1514
19878OST    PA330334  10.410  12.731   4.580  0.0683  0.3610 -0.0430
19878OST    PA430335  10.089  12.738   4.405 -0.2112  0.3283  0.2826
19878OST    PA530336   9.897  12.917   4.224  0.2096 -0.4976  0.1625
19878OST    PA630337   9.985  13.117   4.282 -0.2281 -0.0559 -0.1367
19879OST    PA130338  12.869   4.444  11.820 -0.1608  0.1197 -0.1349
19879OST    PA230339  12.736   4.084  11.794 -0.2924 -0.2868  0.0403
19879OST    PA330340  12.541   4.219  11.625  0.0475  0.2662  0.0001
19879OST    PA430341  12.706   3.876  11.711 -0.0867  0.0810 -0.0858
19879OST    PA530342  12.922   3.812  11.962 -0.2396 -0.2835 -0.3143
19879OST    PA630343  12.962   4.015  12.053  0.0105  0.0826  0.0527
19880OST    PA130344  13.227   6.251  10.696 -0.0644  0.1097 -0.3361
19880OST    PA230345  12.896   6.291  10.804 -0.0393 -0.3170  0.3987
19880OST    PA330346  12.961   6.244  11.092 -0.0922  0.1759 -0.1652
19880OST    PA430347  12.695   6.277  10.842  0.2127  0.3532 -0.0153
19880OST    PA530348  12.625   6.458  10.586  0.2513 -0.0987  0.3501
19880OST    PA630349  12.839   6.518  10.539 -0.0514 -0.0969  0.0153
19881OST    PA130350   6.448   6.834   0.281 -0.2524 -0.0302 -0.1216
19881OST    PA230351   6.282   7.048   0.064  0.0859  0.0579 -0.2837
19881OST    PA330352   6.533   7.178  -0.050 -0.0782 -0.1883 -0.1718
19881OST    PA430353   6.166   7.107  -0.083 -0.0343 -0.0140  0.3665
19881OST    PA530354   5.877   7.084   0.069 -0.1312 -0.3252 -0.2789
19881OST    PA630355   5.998   6.988   0.237 -0.0581 -0.0940 -0.1211
19882OST    PA130356   4.130   5.852   4.473 -0.2258  0.2534  0.0142
19882OST    PA230357   4.469   5.845   4.567  0.5371  0.3089 -0.2413
19882OST    PA330358   4.394   5.954   4.845  0.3593  0.0789 -0.1139
19882OST    PA430359   4.615   5.754   4.623  0.3835 -0.2330 -0.1957
19882OST    PA530360   4.768   5.691   4.378  0.8530 -0.2336  0.4014
19882OST    PA630361   4.615   5.765   4.234 -0.3782  0.1174  0.0880
19883OST    PA130362   2.532   3.461   0.820 -0.1664  0.0652 -0.3393
19883OST    PA230363   2.524   3.300   0.495 -0.4875  0.3200  0.2899
19883OST    PA330364   2.297   3.473   0.472  0.0846 -0.2259  0.2736
19883OST    PA430365   2.451   3.170   0.338 -0.3407 -0.0205 -0.0917
19883OST    PA530366   2.569   2.927   0.458  0.3213  0.0240 -0.2800
19883OST    PA630367   2.633   3.007   0.661  0.3320 -0.1834 -0.8570
19884OST    PA130368  15.444   0.947   2.706  0.1017 -0.1317  0.3412
19884OST    PA230369  15.322   1.256   2.598  0.0907  0.0170  0.5139
19884OST    PA330370  15.328   1.124   2.337 -0.3380  0.2261 -0.2491
19884OST    PA430371  15.171   1.394   2.545  0.1561 -0.0256 -0.0760
19884OST    PA530372  15.238   1.524   2.808  0.2514  0.1410 -0.0388
19884OST    PA630373  15.422   1.373   2.903 -0.1414  0.3787 -0.1768
19885OST    PA130374   1.521  12.223  10.445 -0.2042  0.2084 -0.2620
19885OST    PA230375   1.777  12.439  10.298  0.2554  0.3304 -0.0570
19885OST    PA330376   1.716  12.467   9.996  0.0748 -0.5381 -0.2897
19885OST    PA430377   1.867  12.606  10.315 -0.0966 -0.2335  0.1316
19885OST    PA530378   2.044  12.480  10.530  0.0560  0.3841  0.1101
19885OST    PA630379   1.974  12.267  10.553 -0.1274  0.0230 -0.0751
19886OST    PA130380   5.038  14.624  10.244 -0.2543 -0.0361  0.0614
19886OST    PA230381   4.714  14.724  10.346  0.3792 -0.1264 -0.0142
19886OST    PA330382   4.893  14.956  10.454 -0.2924 -0.2194 -0.3155
19886OST    PA430383   4.567  14.773  10.429 -0.1460 -0.0385  0.1106
19886OST    PA530384   4.371  14.775  10.172 -0.0416 -0.0497 -0.2466
19886OST    PA630385   4.556  14.649  10.047  0.0218 -0.0945  0.0221
19887OST    PA130386   8.499   2.801  10.177 -0.2785 -0.0099  0.0052
19887OST    PA230387   8.244   2.845   9.908 -0.0784  0.0618 -0.3097
19887OST    PA330388   8.319   3.106   9.767  0.3217  0.2830 -0.0700
19887OST    PA430389   8.147   2.779   9.774  0.0467  0.4303  0.1530
19887OST    PA530390   8.009   2.545   9.940  0.2093 -0.4019  0.1733
19887OST    PA630391   8.107   2.571  10.152 -0.0724  0.1031 -0.1208
19888OST    PA130392   9.603   8.832   3.007  0.3563 -0.1867  0.0000
19888OST    PA230393   9.724   8.856   2.682  0.3237  0.0487 -0.0429
19888OST    PA330394   9.924   8.682   2.753  0.4078  0.0095  0.2056
19888OST    PA430395   9.777   8.849   2.475  0.0504  0.1181  0.2715
19888OST    PA530396   9.502   8.917   2.361  0.0495  0.0237 -0.1265
19888OST    PA630397   9.396   8.924   2.555  0.0143 -0.1524 -0.1141
19889OST    PA130398   1.450  11.916   7.908 -0.0265 -0.1201 -0.1139
19889OST    PA230399   1.244  11.773   8.170 -0.0234 -0.0266  0.2115
19889OST    PA330400   0.992  11.678   8.058 -0.3084 -0.0361 -0.1306
19889OST    PA430401   1.175  11.784   8.350 -0.3169  0.4188 -0.1642
19889OST    PA530402   1.403  11.750   8.555 -0.0578  0.3458  0.1757
19889OST    PA630403   1.541  11.729   8.365 -0.1941 -0.0147 -0.3007
19890OST    PA130404   1.210   9.015   7.935 -0.3407  0.1696 -0.2644
19890OST    PA230405   1.411   9.128   8.261 -0.0412  0.0884 -0.1900
19890OST    PA330406   1.594   8.960   8.101  0.0388  0.2502  0.5734
19890OST    PA430407   1.568   9.202   8.369  0.2270  0.0530  0.0381
19890OST    PA530408   1.465   9.509   8.429 -0.1106  0.3201 -0.4899
19890OST    PA630409   1.272   9.462   8.331  0.0601  0.1022 -0.0079
19891OST    PA130410   0.376   4.111   0.810  0.0165 -0.0053  0.0834
19891OST    PA230411   0.449   4.454   0.817  0.0638  0.1143 -0.2507
19891OST    PA330412   0.320   4.577   1.040  0.0820 -0.0730 -0.3815
19891OST    PA430413   0.489   4.635   0.715  0.1700  0.1972  0.0233
19891OST    PA530414   0.758   4.525   0.596  0.2528 -0.0005  0.1009
19891OST    PA630415   0.765   4.338   0.655 -0.0476 -0.1903 -0.0042
19892OST    PA130416  10.939  12.984  10.609 -0.1655  0.2137  0.3611
19892OST    PA230417  10.820  13.118  10.311 -0.2526 -0.1945  0.1691
19892OST    PA330418  10.588  12.961  10.399 -0.2542 -0.4662  0.2939
19892OST    PA430419  10.752  13.181  10.176  0.0215  0.0670 -0.1688
19892OST    PA530420  11.036  13.337  10.091  0.1274  0.2171 -0.0415
19892OST    PA630421  11.172  13.224  10.241  0.1143 -0.0320 -0.3182
19893OST    PA130422   8.822   0.567   2.906 -0.0211 -0.1243 -0.5795
19893OST    PA230423   8.993   0.271   2.841 -0.0161 -0.2113  0.1096
19893OST    PA330424   9.033   0.435   2.609 -0.3488 -0.0095 -0.2750
19893OST    PA430425   9.167   0.134   2.811 -0.1895 -0.0601  0.0534
19893OST    PA530426   9.111  -0.015   3.090  0.2104 -0.0169 -0.4257
19893OST    PA630427   8.945   0.148   3.167  0.1239 -0.0681  0.0334
19894OST    PA130428   1.307   8.869  11.287  0.2510 -0.1278 -0.4439
19894OST    PA230429   1.171   8.549  11.218 -0.0710  0.0355 -0.0255
19894OST    PA330430   1.363   8.383  11.416  0.4599 -0.1314  0.1028
19894OST    PA430431   1.123   8.406  11.125 -0.0273  0.1027 -0.0104
19894OST    PA530432   0.861   8.514  10.996 -0.4147 -0.0442 -0.1639
19894OST    PA630433   0.873   8.716  11.128  0.1427 -0.0954 -0.0247
19895OST    PA130434   9.993  14.504   3.598  0.0748  0.2792  0.1200
19895OST    PA230435   9.982  14.804   3.749  0.2642  0.2567  0.1627
19895OST    PA330436  10.116  14.710   4.016 -0.4339 -0.2888 -0.0298
19895OST    PA430437   9.862  14.956   3.833 -0.1820  0.0291  0.2727
19895OST    PA530438  10.007  15.158   3.627  0.0229 -0.3309 -0.0239
19895OST    PA630439  10.127  14.963   3.521 -0.0400 -0.1853 -0.2283
19896OST    PA130440  12.574  10.458  12.157 -0.1989  0.1368  0.0304
19896OST    PA230441  12.432  10.783  12.141  0.0780  0.1104 -0.0848
19896OST    PA330442  12.158  10.825  12.172 -0.2292 -0.2044 -0.0955
19896OST    PA430443  12.459  10.961  12.030  0.1173 -0.0480 -0.0279
19896OST    PA530444  12.729  11.009  12.102 -0.0118  0.1658 -0.0955
19896OST    PA630445  12.767  10.859  12.245 -0.2809  0.2429 -0.1584
19897OST    PA130446   8.602   5.510  12.074 -0.0052 -0.2471  0.0917
19897OST    PA230447   8.660   5.441  12.405  0.3232 -0.2963  0.1165
19897OST    PA330448   8.627   5.166  12.350 -0.1781  0.2045 -0.1003
19897OST    PA430449   8.703   5.426  12.603  0.4989 -0.2733  0.3150
19897OST    PA530450   8.604   5.741  12.695  0.2574 -0.0611  0.0495
19897OST    PA630451   8.562   5.790  12.462  0.3055  0.0272 -0.0638
19898OST    PA130452  12.122  10.484  10.687 -0.2373 -0.0690  0.1641
19898OST    PA230453  12.338  10.645  10.864  0.1846  0.0331 -0.2431
19898OST    PA330454  12.300  10.867  10.669 -0.4371  0.1607 -0.0632
19898OST    PA430455  12.383  10.755  11.007 -0.0644 -0.1378  0.0083
19898OST    PA530456  12.473  10.575  11.234 -0.4402  0.2279  0.0907
19898OST    PA630457  12.435  10.369  11.098  0.0116 -0.2629  0.1544
19899OST    PA130458   4.602  11.741  11.922 -0.0693 -0.0314 -0.0461
19899OST    PA230459   4.508  11.643  11.591 -0.1209 -0.0788  0.0604
19899OST    PA330460   4.763  11.497  11.544  0.0318 -0.2368  0.1146
19899OST    PA430461   4.366  11.540  11.445 -0.3179 -0.0276  0.2383
19899OST    PA530462   4.123  11.744  11.462 -0.2114 -0.1084  0.1712
19899OST    PA630463   4.202  11.830  11.669 -0.1864 -0.0971  0.0698
19900OST    PA130464  11.384  11.863  12.024  0.0878 -0.2000  0.3433
19900OST    PA230465  11.376  12.168  12.232 -0.2854  0.0283  0.3225
19900OST    PA330466  11.656  12.253  12.171  0.3339 -0.1741 -0.4305
19900OST    PA430467  11.349  12.239  12.425  0.0474  0.1235  0.0494
19900OST    PA530468  11.074  12.167  12.486 -0.4011 -0.4658  0.3159
19900OST    PA630469  11.056  12.085  12.260  0.1159 -0.3927 -0.0774
19901OST    PA130470   6.071   3.698   2.242 -0.0945  0.1111  0.1847
19901OST    PA230471   5.941   3.732   1.929 -0.1468  0.2813 -0.3468
19901OST    PA330472   5.704   3.650   2.074  0.0396  0.1723  0.2773
19901OST    PA430473   5.886   3.707   1.744 -0.0009  0.1326  0.1593
19901OST    PA530474   6.085   3.901   1.615  0.3210 -0.2078  0.5974
19901OST    PA630475   6.238   3.916   1.791 -0.2928  0.2466  0.2432
19902OST    PA130476   9.323   6.928   8.673 -0.1980 -0.1915  0.2542
19902OST    PA230477   9.126   6.678   8.500 -0.0718 -0.1360 -0.3344
19902OST    PA330478   9.056   6.562   8.784  0.1589  0.4229  0.0611
19902OST    PA430479   9.090   6.508   8.412  0.2718  0.1602 -0.3011
19902OST    PA530480   9.224   6.618   8.145 -0.0089 -0.2022  0.2419
19902OST    PA630481   9.197   6.839   8.181 -0.0793  0.1648 -0.2951
19903OST    PA130482  13.935  11.142   0.436 -0.2045  0.0107  0.0949
19903OST    PA230483  13.919  11.428   0.613  0.0101 -0.0835 -0.1673
19903OST    PA330484  14.194  11.345   0.689 -0.4215 -0.4621 -0.1776
19903OST    PA430485  13.964  11.609   0.560  0.0145 -0.1916  0.1593
19903OST    PA530486  13.718  11.779   0.481 -0.4902  0.1365  0.2425
19903OST    PA630487  13.604  11.558   0.514 -0.0538 -0.1646  0.0778
19904OST    PA130488   1.511   8.447  10.907  0.5286  0.1479  0.0993
19904OST    PA230489   1.283   8.648  10.767  0.2445  0.0692  0.0568
19904OST    PA330490   1.176   8.391  10.720 -0.0495 -0.0348 -0.5617
19904OST    PA430491   1.126   8.754  10.784  0.1431 -0.0944 -0.3816
19904OST    PA530492   1.264   9.031  10.878 -0.4004  0.0186 -0.1140
19904OST    PA630493   1.486   8.919  10.870 -0.1844  0.5828  0.0071
19905OST    PA130494   4.449   3.357   1.788 -0.3269 -0.1048 -0.2789
19905OST    PA230495   4.298   3.179   2.045  0.0753  0.0493 -0.1126
19905OST    PA330496   4.088   3.379   2.075 -0.1355  0.1646 -0.1509
19905OST    PA430497   4.178   3.021   2.134 -0.1173 -0.1068 -0.2935
19905OST    PA530498   4.370   2.787   2.022 -0.3568  0.1162  0.1910
19905OST    PA630499   4.531   2.928   1.927 -0.0607  0.2050 -0.1888
19906OST    PA130500  11.565  12.804   8.174  0.0275  0.0309 -0.5279
19906OST    PA230501  11.396  12.527   8.308  0.0505 -0.0625 -0.1935
19906OST    PA330502  11.458  12.623   8.585  0.1812 -0.0672 -0.4874
19906OST    PA430503  11.257  12.397   8.353  0.4308 -0.2097  0.2490
19906OST    PA530504  11.205  12.254   8.072 -0.1743 -0.0621 -0.0849
19906OST    PA630505  11.343  12.410   7.974  0.1815  0.2493 -0.0895
19907OST    PA130506   9.436   8.292   0.582  0.0004 -0.0571  0.2839
19907OST    PA230507   9.763   8.196   0.660 -0.1440  0.3790  0.0108
19907OST    PA330508   9.838   8.464   0.603 -0.1926 -0.1534  0.2568
19907OST    PA430509   9.908   8.132   0.778 -0.1344 -0.0022  0.2654
19907OST    PA530510   9.913   7.849   0.600  0.1367 -0.2375 -0.0674
19907OST    PA630511   9.698   7.908   0.471  0.4456 -0.0885 -0.3326
19908OST    PA130512  14.512   0.557   7.686 -0.1214 -0.1122 -0.0208
19908OST    PA230513  14.172   0.538   7.598 -0.1231  0.0740  0.1699
19908OST    PA330514  14.278   0.396   7.366 -0.4820  0.0466 -0.0377
19908OST    PA430515  14.003   0.572   7.542 -0.1378 -0.0601  0.4354
19908OST    PA530516  13.879   0.722   7.784 -0.0036  0.2200 -0.3856
19908OST    PA630517  14.096   0.674   7.906 -0.2757 -0.0454 -0.0923
19909OST    PA130518   8.353   6.681   3.862  0.3107 -0.1404 -0.0955
19909OST    PA230519   8.237   6.762   4.153  0.1228  0.2865  0.0103
19909OST    PA330520   8.161   6.479   4.184 -0.0148 -0.0730 -0.1594
19909OST    PA430521   8.132   6.819   4.294 -0.0973  0.1764 -0.2695
19909OST    PA530522   8.244   7.103   4.241  0.8636  0.0173  0.2730
19909OST    PA630523   8.362   7.091   4.067  0.1062 -0.1426  0.0613
19910OST    PA130524  11.312  12.925  11.927 -0.2528 -0.0663  0.0812
19910OST    PA230525  11.179  12.709  12.168  0.3132  0.2839  0.1938
19910OST    PA330526  11.487  12.652  12.211 -0.3523 -0.2745 -0.1380
19910OST    PA430527  11.113  12.512  12.172 -0.3036  0.2534  0.2771
19910OST    PA530528  10.817  12.606  12.146 -0.4072 -0.3122 -0.1100
19910OST    PA630529  10.826  12.818  12.146  0.0724 -0.3272 -0.2278
19911OST    PA130530   9.482   9.997   4.398 -0.2207  0.1251  0.1639
19911OST    PA230531   9.594  10.277   4.187 -0.1519 -0.2889 -0.3050
19911OST    PA330532   9.484  10.468   4.384 -0.0121 -0.0804 -0.0392
19911OST    PA430533   9.628  10.427   4.054  0.2435  0.2151 -0.0131
19911OST    PA530534   9.688  10.189   3.840  0.1470 -0.4661  0.0314
19911OST    PA630535   9.648  10.011   3.986  0.0563 -0.1962  0.0998
19912OST    PA130536   8.682  15.109   0.507  0.2195 -0.1758  0.0254
19912OST    PA230537   8.700  14.978   0.163 -0.2105  0.2848 -0.1021
19912OST    PA330538   8.513  15.188   0.084  0.0041  0.1227 -0.4202
19912OST    PA430539   8.627  14.842   0.082  0.1752  0.0405 -0.0861
19912OST    PA530540   8.852  14.596   0.176  0.1480 -0.2801  0.3169
19912OST    PA630541   8.948  14.761   0.292  0.0968 -0.5023 -0.1295
19913OST    PA130542  10.197   0.853   4.401  0.0094 -0.2551  0.0654
19913OST    PA230543  10.069   1.199   4.330  0.2891 -0.1123  0.3226
19913OST    PA330544  10.276   1.261   4.527 -0.0409 -0.0628  0.5632
19913OST    PA430545   9.939   1.322   4.392  0.1997  0.2086 -0.0486
19913OST    PA530546   9.697   1.221   4.201  0.5603 -0.3366 -0.4584
19913OST    PA630547   9.826   1.061   4.089 -0.3186 -0.1106 -0.1205
19914OST    PA130548  15.918  14.554  12.237  0.2257 -0.0049  0.0388
19914OST    PA230549  16.064  14.535  12.575 -0.2545 -0.1587  0.2323
19914OST    PA330550  16.102  14.831  12.521  0.0794 -0.0468 -0.3680
19914OST    PA430551  16.216  14.506  12.645 -0.1042  0.2043  0.0144
19914OST    PA530552  16.226  14.192  12.590  0.2053  0.0527  0.2020
19914OST    PA630553  16.027  14.211  12.462 -0.0872 -0.2248 -0.1402
19915OST    PA130554  11.789   9.248   8.662 -0.1367  0.1952 -0.0099
19915OST    PA230555  11.726   8.906   8.674  0.0789  0.0243 -0.0697
19915OST    PA330556  11.610   8.950   8.420 -0.4740  0.0179  0.2775
19915OST    PA430557  11.678   8.725   8.691  0.0666 -0.2472 -0.0356
19915OST    PA530558  11.692   8.704   9.021 -0.1952  0.4486  0.4695
19915OST    PA630559  11.730   8.953   9.026  0.3812 -0.0363 -0.0399
19916OST    PA130560  12.386   9.098   8.490  0.1909  0.2113 -0.0205
19916OST    PA230561  12.194   8.833   8.624  0.2962 -0.0327 -0.2790
19916OST    PA330562  12.162   9.034   8.830  0.1166  0.4112  0.0113
19916OST    PA430563  12.100   8.670   8.736  0.5364 -0.1534  0.4761
19916OST    PA530564  12.334   8.475   8.563 -0.0146 -0.0316  0.4923
19916OST    PA630565  12.414   8.657   8.404 -0.2913  0.2863 -0.0638
19917OST    PA130566   1.764  12.164   8.203  0.3128 -0.1517 -0.2629
19917OST    PA230567   1.559  12.371   7.989  0.1687 -0.4539  0.1115
19917OST    PA330568   1.682  12.193   7.754 -0.0046 -0.4445  0.0943
19917OST    PA430569   1.448  12.492   7.876 -0.4419 -0.0440  0.0449
19917OST    PA530570   1.274  12.601   8.094 -0.3686  0.2778 -0.2097
19917OST    PA630571   1.432  12.541   8.268 -0.1232  0.2270  0.0498
19918OST    PA130572   5.685  12.953   0.908  0.1304 -0.4249 -0.4094
19918OST    PA230573   5.951  12.792   0.719 -0.0328  0.2102  0.1490
19918OST    PA330574   6.156  12.896   0.923  0.3163  0.1974  0.0721
19918OST    PA430575   6.060  12.622   0.683  0.2510 -0.3076  0.0489
19918OST    PA530576   5.814  12.466   0.558 -0.0995 -0.1972  0.3219
19918OST    PA630577   5.640  12.595   0.606  0.2355  0.1524  0.1573
19919OST    PA130578  12.857   8.863   8.533 -0.1396  0.0634  0.2173
19919OST    PA230579  12.755   8.526   8.636  0.1671 -0.3491  0.0564
19919OST    PA330580  13.012   8.451   8.500 -0.3734 -0.3192  0.0982
19919OST    PA430581  12.718   8.336   8.682  0.0772  0.0343 -0.0242
19919OST    PA530582  12.475   8.484   8.862 -0.1682 -0.5361  0.4100
19919OST    PA630583  12.529   8.699   8.857  0.0836 -0.0415  0.2925
19920OST    PA130584  13.695   1.750   1.778 -0.2280 -0.0256  0.0569
19920OST    PA230585  13.435   1.929   1.957 -0.3132  0.0872  0.0411
19920OST    PA330586  13.683   2.091   2.005  0.1738 -0.1808 -0.2344
19920OST    PA430587  13.310   2.068   2.025  0.5394  0.0376 -0.3335
19920OST    PA530588  13.091   2.021   1.764  0.0858 -0.1653  0.3472
19920OST    PA630589  13.207   1.840   1.693 -0.0410 -0.1998 -0.0247
19921OST    PA130590  16.241   3.778   8.740 -0.2560 -0.0263  0.1857
19921OST    PA230591  16.106   4.066   8.548 -0.0811  0.0839 -0.0423
19921OST    PA330592  16.392   4.086   8.517  0.1289  0.3287  0.1419
19921OST    PA430593  16.062   4.256   8.537  0.4230  0.2580 -0.1466
19921OST    PA530594  15.825   4.210   8.760  0.2870 -0.1163 -0.0129
19921OST    PA630595  15.792   4.011   8.716  0.3606  0.2611 -0.0195
19922OST    PA130596   2.972   2.588   1.945 -0.1280  0.0506 -0.2454
19922OST    PA230597   2.740   2.834   2.081  0.1244  0.2351 -0.0024
19922OST    PA330598   2.592   2.750   1.811  0.1572 -0.1795 -0.0454
19922OST    PA430599   2.638   3.000   2.128  0.2667  0.0773  0.0307
19922OST    PA530600   2.859   3.162   2.243  0.0580  0.1247  0.1701
19922OST    PA630601   3.033   2.998   2.208 -0.1579  0.0130 -0.3548
19923OST    PA130602   0.286   6.886   7.050 -0.3499  0.3326  0.0354
19923OST    PA230603   0.150   6.882   7.365  0.0028  0.2104 -0.2617
19923OST    PA330604  -0.017   7.130   7.390  0.0441  0.3087 -0.0121
19923OST    PA430605   0.081   6.778   7.513  0.1984 -0.0960 -0.1751
19923OST    PA530606   0.372   6.645   7.579  0.2023 -0.0232 -0.4299
19923OST    PA630607   0.496   6.753   7.414 -0.1279 -0.2616  0.2588
19924OST    PA130608   8.488   1.375   4.641 -0.0570  0.0342 -0.1973
19924OST    PA230609   8.840   1.381   4.754 -0.0463  0.0013 -0.0783
19924OST    PA330610   8.839   1.649   4.598  0.2812  0.0769 -0.1862
19924OST    PA430611   9.034   1.394   4.801 -0.0271  0.0606  0.2103
19924OST    PA530612   9.044   1.133   4.926 -0.3970  0.1570  0.2596
19924OST    PA630613   8.784   1.132   4.961  0.1627  0.2262 -0.2499
19925OST    PA130614  12.210  10.888  12.555  0.0763 -0.0740  0.2534
19925OST    PA230615  12.464  11.094  12.625  0.1020  0.0253  0.1789
19925OST    PA330616  12.662  10.887  12.588 -0.1021 -0.5097 -0.0099
19925OST    PA430617  12.574  11.223  12.550  0.1953 -0.0642 -0.1009
19925OST    PA530618  12.333  11.415  12.674  0.2597  0.1710  0.3522
19925OST    PA630619  12.218  11.282  12.803  0.0445 -0.0401  0.2163
19926OST    PA130620   5.086   0.454   8.908  0.3277 -0.0527  0.2691
19926OST    PA230621   4.989   0.604   9.208  0.2742  0.1099  0.1386
19926OST    PA330622   5.097   0.352   9.311  0.2675 -0.0006  0.0362
19926OST    PA430623   4.995   0.688   9.370 -0.2971  0.2908  0.0226
19926OST    PA530624   4.959   1.006   9.326 -0.2167 -0.0287 -0.3687
19926OST    PA630625   4.958   0.939   9.070 -0.1966 -0.2897 -0.1563
19927OST    PA130626   0.605   7.757   9.230 -0.1152 -0.0804 -0.2220
19927OST    PA230627   0.611   8.116   9.209  0.0026  0.0479 -0.4651
19927OST    PA330628   0.754   8.116   8.915  0.0407  0.1432 -0.0576
19927OST    PA430629   0.591   8.321   9.209  0.3026 -0.3805 -0.1182
19927OST    PA530630   0.358   8.349   9.397 -0.2734  0.1622 -0.1450
19927OST    PA630631   0.286   8.125   9.382 -0.3904 -0.2132 -0.1683
19928OST    PA130632   9.973   9.248   2.283  0.0916  0.2048  0.0076
19928OST    PA230633   9.623   9.364   2.332 -0.0024  0.4472  0.0617
19928OST    PA330634   9.619   9.140   2.149 -0.1433 -0.0108 -0.2902
19928OST    PA430635   9.425   9.446   2.249 -0.3617 -0.0356  0.0614
19928OST    PA530636   9.501   9.721   2.453  0.1429  0.0027  0.2529
19928OST    PA630637   9.708   9.646   2.567 -0.1467  0.3267  0.3005
19929OST    PA130638  11.922   7.831   8.978  0.1787  0.1653 -0.0946
19929OST    PA230639  11.763   7.941   9.292 -0.2682 -0.0173  0.2992
19929OST    PA330640  11.517   7.793   9.290  0.4553  0.0179 -0.0019
19929OST    PA430641  11.726   8.068   9.449  0.2694 -0.0849 -0.1954
19929OST    PA530642  12.027   8.161   9.503 -0.4236  0.0311  0.0143
19929OST    PA630643  12.123   7.953   9.375  0.1460  0.1423 -0.0241
19930OST    PA130644  12.201   9.706  11.004 -0.1556 -0.1689 -0.0122
19930OST    PA230645  11.957   9.741  11.268  0.1304  0.1592  0.0645
19930OST    PA330646  12.143   9.648  11.496  0.0156  0.3280  0.1512
19930OST    PA430647  11.877   9.879  11.379 -0.0553  0.0653 -0.3835
19930OST    PA530648  11.676   9.965  11.172  0.1189  0.0446  0.1527
19930OST    PA630649  11.742   9.816  11.006  0.0050 -0.1561 -0.0500
19931OST    PA130650   4.018   7.041  12.460  0.2340 -0.2250  0.2929
19931OST    PA230651   3.677   6.952  12.384  0.1372 -0.1597 -0.2654
19931OST    PA330652   3.769   6.842  12.138  0.5306 -0.0471  0.3478
19931OST    PA430653   3.503   7.022  12.324  0.3222  0.0970  0.1521
19931OST    PA530654   3.387   7.172  12.577 -0.5452 -0.2780  0.0241
19931OST    PA630655   3.598   7.205  12.662  0.4171 -0.0439 -0.4074
19932OST    PA130656   9.914  14.844   8.703 -0.0312 -0.0771 -0.2369
19932OST    PA230657   9.792  15.176   8.807 -0.0048  0.0049 -0.1771
19932OST    PA330658   9.565  15.216   8.670  0.1690  0.3796  0.1186
19932OST    PA430659   9.803  15.367   8.882  0.1253  0.0879  0.0554
19932OST    PA530660  10.010  15.276   9.136 -0.1906 -0.1102  0.2831
19932OST    PA630661   9.977  15.034   9.091 -0.1806  0.1105 -0.0803
19933OST    PA130662  14.614  14.179   8.292  0.2068 -0.0337  0.0200
19933OST    PA230663  14.688  14.377   8.568  0.1690  0.2716  0.3727
19933OST    PA330664  14.584  14.633   8.525 -0.2311  0.0307  0.1199
19933OST    PA430665  14.787  14.429   8.741 -0.4957  0.0837 -0.3002
19933OST    PA530666  14.756  14.189   8.888 -0.0928  0.3800  0.2248
19933OST    PA630667  14.640  14.068   8.741  0.2873  0.2470  0.2418
19934OST    PA130668  15.181   4.261   8.128  0.1802  0.4526  0.0673
19934OST    PA230669  15.103   4.094   8.429 -0.1547 -0.1381  0.1920
19934OST    PA330670  14.887   4.298   8.393 -0.0072 -0.0544  0.1390
19934OST    PA430671  15.085   4.086   8.630 -0.2682  0.0622  0.1032
19934OST    PA530672  15.338   3.915   8.652  0.0045  0.1983 -0.2714
19934OST    PA630673  15.401   3.938   8.432 -0.1214 -0.1028  0.2501
19935OST    PA130674  15.333  11.780   2.957  0.2308 -0.0113 -0.0453
19935OST    PA230675  15.401  11.676   3.289  0.2397  0.0381  0.1319
19935OST    PA330676  15.407  11.381   3.219  0.4287 -0.6722  0.0222
19935OST    PA430677  15.553  11.656   3.444 -0.1605  0.0786  0.0012
19935OST    PA530678  15.597  11.946   3.482 -0.3269 -0.1400  0.2601
19935OST    PA630679  15.438  12.046   3.312 -0.2254 -0.5181 -0.1911
19936OST    PA130680   1.027   7.743  11.343  0.0737  0.1541  0.0181
19936OST    PA230681   0.927   8.090  11.410  0.4393  0.3664  0.2413
19936OST    PA330682   1.128   8.097  11.611  0.2403 -0.4247 -0.3193
19936OST    PA430683   0.863   8.290  11.420  0.5218  0.0187 -0.2732
19936OST    PA530684   0.687   8.243  11.163 -0.2269  0.0352 -0.0476
19936OST    PA630685   0.759   8.015  11.127 -0.1153  0.5007 -0.0411
19937OST    PA130686   7.348  13.691   9.177  0.3743 -0.1651  0.3563
19937OST    PA230687   7.073  13.678   9.398 -0.1455  0.1231  0.3314
19937OST    PA330688   6.901  13.606   9.181  0.2224 -0.1270 -0.2145
19937OST    PA430689   6.982  13.537   9.535  0.1305  0.1596 -0.1354
19937OST    PA530690   7.193  13.604   9.758  0.0003  0.1488  0.0824
19937OST    PA630691   7.289  13.805   9.626 -0.2118  0.3565 -0.0296
19938OST    PA130692   9.273  15.895   2.511 -0.1310  0.0726  0.0037
19938OST    PA230693   9.424  16.206   2.387 -0.1779 -0.2222 -0.1483
19938OST    PA330694   9.604  16.093   2.605 -0.0180 -0.2436  0.1036
19938OST    PA430695   9.499  16.387   2.375  0.1246 -0.2232  0.0720
19938OST    PA530696   9.373  16.368   2.076  0.1186 -0.4234  0.1040
19938OST    PA630697   9.265  16.173   2.069  0.0622  0.2831  0.0333
19939OST    PA130698   5.496   4.275  10.303 -0.0567 -0.3203 -0.3011
19939OST    PA230699   5.748   4.336  10.536  0.1447 -0.1155  0.0564
19939OST    PA330700   5.808   4.598  10.365 -0.0525  0.3178  0.0309
19939OST    PA430701   5.943   4.304  10.567  0.1055  0.1623  0.0212
19939OST    PA530702   5.926   4.166  10.871  0.1883  0.5815 -0.1840
19939OST    PA630703   5.668   4.145  10.835 -0.3434 -0.3507 -0.2674
19940OST    PA130704   2.843  13.483   1.878 -0.0251  0.0819 -0.2092
19940OST    PA230705   2.966  13.430   1.526 -0.1523  0.1497  0.0433
19940OST    PA330706   3.218  13.427   1.697  0.4096  0.2345  0.2546
19940OST    PA430707   3.028  13.281   1.410 -0.3206 -0.0456 -0.3726
19940OST    PA530708   2.728  13.284   1.267  0.1590 -0.0980 -0.5020
19940OST    PA630709   2.635  13.458   1.429  0.0553  0.0106  0.1598
19941OST    PA130710   7.640  16.122   9.095  0.1191  0.0974  0.1209
19941OST    PA230711   7.754  16.042   8.758 -0.0921  0.0663 -0.0897
19941OST    PA330712   8.029  16.142   8.840  0.0146 -0.2056  0.0222
19941OST    PA430713   7.733  16.085   8.579  0.4614 -0.3083  0.1665
19941OST    PA530714   7.527  15.872   8.513  0.1582  0.0557 -0.2629
19941OST    PA630715   7.469  15.848   8.761 -0.2996 -0.2088 -0.0773
19942OST    PA130716  10.009   2.090   1.558  0.0476  0.0069 -0.3124
19942OST    PA230717   9.806   2.183   1.271  0.0187 -0.0485 -0.3371
19942OST    PA330718   9.577   2.107   1.439  0.2299 -0.2695 -0.4591
19942OST    PA430719   9.727   2.168   1.104 -0.3517  0.1467  0.0172
19942OST    PA530720  10.013   2.274   0.980  0.1866 -0.2197 -0.2563
19942OST    PA630721  10.149   2.282   1.181 -0.0201 -0.1220 -0.1236
19943OST    PA130722  14.211   6.125  11.138 -0.1283  0.4098 -0.0883
19943OST    PA230723  14.198   6.159  11.488 -0.3100  0.1380  0.0221
19943OST    PA330724  14.226   5.843  11.461 -0.2407 -0.4032 -0.0091
19943OST    PA430725  14.305   6.168  11.652 -0.0143 -0.3046 -0.0516
19943OST    PA530726  14.378   6.478  11.649  0.1188  0.3939 -0.6189
19943OST    PA630727  14.265   6.520  11.452 -0.2965  0.3270  0.1730
19944OST    PA130728   4.067   0.423   8.682 -0.0694  0.0131 -0.3773
19944OST    PA230729   4.258   0.687   8.864 -0.3017 -0.2051 -0.0297
19944OST    PA330730   4.057   0.911   8.815 -0.0059 -0.3024 -0.3139
19944OST    PA430731   4.388   0.808   8.978 -0.3173  0.1102  0.1239
19944OST    PA530732   4.558   0.578   9.043  0.0594 -0.6174 -0.4679
19944OST    PA630733   4.440   0.400   8.938 -0.0254 -0.1169 -0.0228
19945OST    PA130734   9.287   7.394   3.108 -0.3407  0.2227 -0.1038
19945OST    PA230735   9.197   7.558   2.799 -0.0984 -0.0005 -0.0086
19945OST    PA330736   9.018   7.334   2.770  0.1279  0.0388 -0.1379
19945OST    PA430737   9.078   7.703   2.747 -0.1134  0.1413  0.2561
19945OST    PA530738   9.270   7.925   2.806  0.3793 -0.1037 -0.1142
19945OST    PA630739   9.437   7.812   2.907  0.0927 -0.1888 -0.0260
19946OST    PA130740   6.333   4.025   2.627  0.0753  0.0988 -0.0722
19946OST    PA230741   6.310   4.202   2.952 -0.0813  0.2358 -0.2509
19946OST    PA330742   6.255   3.925   3.056 -0.1173 -0.5683 -0.0106
19946OST    PA430743   6.182   4.298   3.097 -0.0219 -0.1429 -0.1418
19946OST    PA530744   6.238   4.567   2.925  0.5106  0.1663  0.1052
19946OST    PA630745   6.401   4.491   2.779 -0.1078 -0.3587  0.4046
19947OST    PA130746   3.253  10.196   0.124 -0.0248  0.0297  0.0404
19947OST    PA230747   3.272  10.224   0.486  0.1353 -0.2861  0.0049
19947OST    PA330748   3.262  10.506   0.473  0.3882  0.2034 -0.1697
19947OST    PA430749   3.314  10.216   0.666  0.0101 -0.3928 -0.4183
19947OST    PA530750   3.271   9.921   0.723 -0.3133  0.2723 -0.3612
19947OST    PA630751   3.216   9.865   0.496  0.1429 -0.2663  0.1164
19948OST    PA130752   0.557  11.794   9.887 -0.2845  0.4242  0.0353
19948OST    PA230753   0.603  12.132   9.782 -0.3290 -0.5063 -0.1836
19948OST    PA330754   0.325  12.202   9.698 -0.0069  0.1960 -0.1796
19948OST    PA430755   0.682  12.318   9.716 -0.1190  0.4310 -0.1252
19948OST    PA530756   0.922  12.313   9.959  0.1658  0.1172  0.1309
19948OST    PA630757   0.855  12.094  10.038 -0.0892 -0.0642  0.1366
19949OST    PA130758   4.911  13.455   9.928 -0.2763 -0.1561  0.1028
19949OST    PA230759   4.857  13.775   9.737  0.3923  0.0004  0.3144
19949OST    PA330760   4.778  13.577   9.525 -0.3893 -0.0656 -0.1390
19949OST    PA430761   4.719  13.908   9.690 -0.1307  0.5290  0.0740
19949OST    PA530762   4.653  14.089   9.930 -0.5247  0.0650  0.0831
19949OST    PA630763   4.839  13.972  10.050 -0.1694  0.3318  0.2835
19950OST    PA130764  11.722   9.219  11.628  0.1169 -0.1149 -0.0119
19950OST    PA230765  11.407   9.333  11.695 -0.1980 -0.3098  0.1839
19950OST    PA330766  11.496   9.413  11.944 -0.1139 -0.1610 -0.1306
19950OST    PA430767  11.189   9.343  11.729  0.3594 -0.0118 -0.2442
19950OST    PA530768  11.089   9.324  11.418 -0.1888  0.0945 -0.1961
19950OST    PA630769  11.318   9.254  11.375  0.3483 -0.1369  0.0389
19951OST    PA130770  11.761   8.158  10.846 -0.1341  0.1436 -0.0980
19951OST    PA230771  11.813   7.930  11.121  0.1206 -0.0518  0.3652
19951OST    PA330772  11.597   7.749  11.059  0.3869 -0.2440 -0.0440
19951OST    PA430773  11.764   7.931  11.332  0.2850 -0.1767 -0.0746
19951OST    PA530774  12.055   8.114  11.410 -0.3438  0.2786  0.2841
19951OST    PA630775  12.127   8.086  11.190  0.1073  0.1342 -0.1702
19952OST    PA130776   6.674  14.004   8.982 -0.0361  0.0332  0.1499
19952OST    PA230777   6.546  13.795   9.221 -0.2281 -0.0207  0.1910
19952OST    PA330778   6.717  13.936   9.432 -0.1330  0.0157  0.4562
19952OST    PA430779   6.479  13.667   9.336  0.1443  0.3625 -0.0635
19952OST    PA530780   6.344  13.469   9.117 -0.2528 -0.1452  0.2549
19952OST    PA630781   6.391  13.633   8.944 -0.3127  0.1302  0.2184
19953OST    PA130782   4.329   0.345   0.298 -0.0884 -0.2866 -0.2191
19953OST    PA230783   4.466   0.169   0.013  0.0359  0.1549 -0.3247
19953OST    PA330784   4.741   0.184   0.047 -0.1167  0.5967 -0.2449
19953OST    PA430785   4.472   0.199  -0.196 -0.3141  0.0112 -0.0882
19953OST    PA530786   4.201   0.042  -0.184 -0.0270 -0.3914  0.2162
19953OST    PA630787   4.182  -0.038   0.040 -0.3653 -0.5730  0.3572
19954OST    PA130788  12.834   5.360   0.783 -0.0404 -0.3354  0.1123
19954OST    PA230789  12.856   5.055   0.951 -0.3489 -0.1522  0.4182
19954OST    PA330790  12.843   5.095   1.228  0.1920 -0.1521  0.2508
19954OST    PA430791  12.878   4.831   0.962  0.4900 -0.1293  0.1760
19954OST    PA530792  13.107   4.826   0.764  0.2564  0.1377  0.0134
19954OST    PA630793  13.129   5.045   0.723 -0.2319  0.0231  0.2619
19955OST    PA130794   2.825  13.965   0.183 -0.1317  0.2901 -0.1111
19955OST    PA230795   3.115  13.744   0.202 -0.1276 -0.1331 -0.2134
19955OST    PA330796   3.143  13.624  -0.070  0.2958 -0.0847 -0.1578
19955OST    PA430797   3.324  13.729   0.284  0.1301 -0.2190  0.4020
19955OST    PA530798   3.214  13.811   0.576 -0.2804 -0.0523 -0.6970
19955OST    PA630799   3.013  13.779   0.553 -0.1179  0.1259  0.0240
19956OST    PA130800  11.470  14.810  10.087 -0.3160 -0.1821  0.1376
19956OST    PA230801  11.332  14.736   9.776 -0.0244 -0.0556 -0.1073
19956OST    PA330802  11.216  14.484   9.892 -0.2500  0.1673 -0.4882
19956OST    PA430803  11.291  14.682   9.578  0.1196  0.0099 -0.3152
19956OST    PA530804  11.311  14.969   9.437 -0.3779 -0.0176 -0.0732
19956OST    PA630805  11.405  15.058   9.636  0.1373 -0.2429 -0.6277
19957OST    PA130806   5.052   3.643   4.345 -0.3269  0.0595  0.1918
19957OST    PA230807   4.717   3.536   4.239 -0.1037 -0.2160 -0.0468
19957OST    PA330808   4.647   3.839   4.200  0.3640  0.1756  0.3424
19957OST    PA430809   4.588   3.485   4.150  0.1478  0.1738 -0.0768
19957OST    PA530810   4.693   3.159   4.203  0.0352 -0.2425  0.0394
19957OST    PA630811   4.852   3.217   4.296 -0.0102  0.2078 -0.2078
19958OST    PA130812  13.018   2.970   8.440 -0.2169  0.1941 -0.2979
19958OST    PA230813  13.268   3.206   8.537  0.3662 -0.0901 -0.0507
19958OST    PA330814  13.222   3.295   8.249  0.2098  0.4501  0.3973
19958OST    PA430815  13.363   3.357   8.600 -0.5474 -0.2932 -0.1138
19958OST    PA530816  13.486   3.173   8.840  0.0962 -0.4123  0.0424
19958OST    PA630817  13.384   2.969   8.753 -0.4839 -0.0221  0.0338
19959OST    PA130818  12.379   5.441   1.857 -0.0713  0.1599 -0.0247
19959OST    PA230819  12.464   5.103   1.750 -0.0127 -0.0149 -0.0961
19959OST    PA330820  12.369   5.191   1.498 -0.3941  0.3050 -0.1223
19959OST    PA430821  12.394   4.932   1.723 -0.3965  0.0545  0.3109
19959OST    PA530822  12.492   4.871   2.013 -0.0772 -0.2203 -0.1559
19959OST    PA630823  12.603   5.073   2.066 -0.0770 -0.1403  0.2009
19960OST    PA130824   3.823  12.519   7.371 -0.1136  0.1188 -0.2680
19960OST    PA230825   3.756  12.876   7.278 -0.2680  0.2500 -0.0330
19960OST    PA330826   3.649  12.767   7.019  0.1761 -0.0530 -0.1276
19960OST    PA430827   3.836  13.055   7.191  0.0200 -0.0689  0.2474
19960OST    PA530828   3.898  13.189   7.489  0.1048 -0.0702  0.2741
19960OST    PA630829   3.815  12.989   7.591  0.2269  0.0279 -0.1821
19961OST    PA130830   8.018   3.500   0.210  0.3059 -0.1117 -0.1419
19961OST    PA230831   7.727   3.683   0.169 -0.3050 -0.4070  0.0385
19961OST    PA330832   7.869   3.918   0.056  0.0753  0.1734  0.2681
19961OST    PA430833   7.562   3.703   0.059  0.5195  0.1417 -0.3300
19961OST    PA530834   7.432   3.479   0.249 -0.1124  0.2029 -0.2299
19961OST    PA630835   7.585   3.447   0.389  0.4862 -0.0685 -0.2429
19962OST    PA130836  10.809  12.304   8.493  0.1559 -0.1704  0.0376
19962OST    PA230837  10.951  11.992   8.368 -0.5020 -0.2760  0.0315
19962OST    PA330838  10.726  12.040   8.200 -0.0290 -0.0998  0.2958
19962OST    PA430839  10.924  11.798   8.390  0.0008 -0.1463  0.3656
19962OST    PA530840  11.194  11.743   8.568 -0.3399  0.0703  0.2383
19962OST    PA630841  11.218  11.989   8.594  0.0559 -0.1035  0.0904
19963OST    PA130842   0.089  15.712   2.754 -0.1568 -0.0276  0.0732
19963OST    PA230843   0.029  15.996   2.997  0.1243  0.2318  0.2317
19963OST    PA330844   0.293  16.103   2.994 -0.2621 -0.1270 -0.2559
19963OST    PA430845  -0.005  16.031   3.202 -0.0938 -0.1331  0.0731
19963OST    PA530846  -0.297  15.917   3.208 -0.4898 -0.1837 -0.0533
19963OST    PA630847  -0.297  15.826   2.996  0.2295 -0.0599  0.0489
19964OST    PA130848   4.626   6.565   1.244  0.0116 -0.2774 -0.1132
19964OST    PA230849   4.546   6.231   1.283 -0.3010  0.0095 -0.0877
19964OST    PA330850   4.847   6.228   1.208 -0.1367  0.0483  0.0258
19964OST    PA430851   4.494   6.049   1.187  0.2421 -0.0182 -0.1583
19964OST    PA530852   4.294   5.975   1.445  0.5218 -0.2755 -0.0032
19964OST    PA630853   4.364   6.197   1.565 -0.2018 -0.0529  0.0506
19965OST    PA130854   3.431  14.688   8.867  0.2085  0.0595 -0.0298
19965OST    PA230855   3.359  14.979   8.690 -0.0267 -0.0174  0.1506
19965OST    PA330856   3.159  14.878   8.526 -0.2423  0.0685 -0.2115
19965OST    PA430857   3.369  15.181   8.615 -0.3564 -0.1524 -0.3690
19965OST    PA530858   3.404  15.267   8.923  0.3393  0.0314  0.1296
19965OST    PA630859   3.379  15.071   9.027 -0.0170 -0.0739 -0.0765
19966OST    PA130860   6.268  14.404   9.712 -0.5024  0.0541  0.1320
19966OST    PA230861   6.567  14.390   9.515  0.0557 -0.3010 -0.4022
19966OST    PA330862   6.596  14.164   9.702  0.2072 -0.1547  0.2639
19966OST    PA430863   6.644  14.299   9.377 -0.2196  0.0209 -0.1245
19966OST    PA530864   6.516  14.386   9.105  0.2721 -0.2666  0.3909
19966OST    PA630865   6.359  14.521   9.233 -0.0163  0.0073 -0.0946
19967OST    PA130866   2.471   5.751  11.525  0.4671 -0.2168 -0.0641
19967OST    PA230867   2.260   5.977  11.702  0.0273  0.1131  0.2857
19967OST    PA330868   2.110   6.134  11.525  0.0056 -0.0290 -0.3613
19967OST    PA430869   2.142   6.051  11.863 -0.3467 -0.2848  0.2236
19967OST    PA530870   2.368   5.981  12.062  0.2460 -0.2833  0.1686
19967OST    PA630871   2.540   5.956  11.934  0.0253  0.2662 -0.2666
19968OST    PA130872   3.072   8.917   4.056 -0.0431  0.0819 -0.3972
19968OST    PA230873   2.956   8.719   3.786  0.0509 -0.0423  0.0774
19968OST    PA330874   2.776   8.630   3.976 -0.1246 -0.0006 -0.3615
19968OST    PA430875   2.849   8.632   3.619 -0.1302 -0.0785  0.6036
19968OST    PA530876   3.030   8.748   3.374 -0.0736  0.2015  0.4825
19968OST    PA630877   3.146   8.867   3.511 -0.1323  0.0049 -0.0270
19969OST    PA130878   8.926   7.077   9.381  0.0555 -0.1374 -0.0650
19969OST    PA230879   9.120   7.379   9.349  0.4315 -0.3096 -0.0830
19969OST    PA330880   9.019   7.508   9.587 -0.4331  0.3318  0.1020
19969OST    PA430881   9.214   7.504   9.265  0.0323 -0.2899  0.1043
19969OST    PA530882   9.426   7.346   9.090 -0.1047  0.3378 -0.2211
19969OST    PA630883   9.372   7.155   9.208  0.2417 -0.1286  0.3437
19970OST    PA130884   6.089   7.238   9.168 -0.2202 -0.4338  0.3158
19970OST    PA230885   5.747   7.256   9.307  0.0818 -0.2037 -0.0333
19970OST    PA330886   5.867   7.471   9.484  0.2324 -0.1965 -0.0855
19970OST    PA430887   5.652   7.176   9.480 -0.0396 -0.1830 -0.0341
19970OST    PA530888   5.598   6.906   9.284 -0.0950 -0.6605 -0.1260
19970OST    PA630889   5.682   7.003   9.089 -0.0358  0.4285 -0.0184
19971OST    PA130890   9.834  14.363  11.140 -0.0951  0.1737  0.1342
19971OST    PA230891   9.535  14.173  11.171 -0.0005 -0.1978 -0.0676
19971OST    PA330892   9.378  14.408  11.093 -0.0568  0.0697  0.2328
19971OST    PA430893   9.419  14.038  11.033 -0.0840 -0.0136  0.0368
19971OST    PA530894   9.604  13.794  11.017  0.1487  0.0999  0.2040
19971OST    PA630895   9.758  13.892  11.172 -0.0796  0.3376  0.0185
19972OST    PA130896  10.593   4.716  11.442  0.3232  0.1465  0.0198
19972OST    PA230897  10.474   4.964  11.169 -0.1041  0.0462  0.5273
19972OST    PA330898  10.699   5.008  11.022  0.1308  0.2085  0.1997
19972OST    PA430899  10.365   4.957  11.023 -0.0887  0.2513 -0.1847
19972OST    PA530900  10.099   4.769  11.055 -0.0901 -0.3981 -0.0947
19972OST    PA630901  10.184   4.734  11.271  0.0668  0.2520 -0.1967
19973OST    PA130902   6.772   1.600  11.249 -0.1727 -0.1699  0.1413
19973OST    PA230903   6.683   1.909  11.052 -0.0254 -0.0370  0.1019
19973OST    PA330904   6.547   2.060  11.260  0.0055  0.2271  0.1678
19973OST    PA430905   6.657   2.046  10.921  0.1066  0.2602 -0.0773
19973OST    PA530906   6.927   2.015  10.754 -0.0784  0.3679  0.1289
19973OST    PA630907   6.996   1.824  10.898 -0.2692 -0.1362 -0.0975
19974OST    PA130908   9.914   8.228   2.234  0.0158 -0.0914 -0.0260
19974OST    PA230909   9.774   8.413   2.506  0.1832 -0.2546 -0.1661
19974OST    PA330910  10.017   8.374   2.682 -0.3198 -0.2003  0.0050
19974OST    PA430911   9.641   8.419   2.645 -0.1085  0.2081  0.1931
19974OST    PA530912   9.459   8.536   2.396  0.5574  0.0397 -0.0185
19974OST    PA630913   9.611   8.554   2.223  0.2683 -0.1100 -0.1535
19975OST    PA130914  15.694  10.802   8.198  0.0004  0.3131  0.2093
19975OST    PA230915  15.605  10.547   7.996 -0.3192  0.4524 -0.0372
19975OST    PA330916  15.483  10.441   8.240  0.5603  0.2079  0.1759
19975OST    PA430917  15.640  10.360   7.937  0.2454  0.0873 -0.0415
19975OST    PA530918  15.679  10.466   7.644  0.0301  0.0895 -0.2309
19975OST    PA630919  15.641  10.670   7.685  0.1761  0.1229  0.0799
19976OST    PA130920   7.508   9.502   2.839 -0.0041  0.2854  0.1560
19976OST    PA230921   7.830   9.465   2.979 -0.3290 -0.0463 -0.0384
19976OST    PA330922   7.864   9.401   2.707 -0.0378 -0.1773 -0.0275
19976OST    PA430923   8.024   9.536   3.013 -0.2494  0.0096 -0.1545
19976OST    PA530924   8.011   9.562   3.315 -0.0463  0.1419  0.2622
19976OST    PA630925   7.771   9.530   3.326  0.2795 -0.0360 -0.0405
19977OST    PA130926   4.717   5.870   1.527 -0.0258 -0.1368  0.1646
19977OST    PA230927   5.021   5.746   1.633  0.0261 -0.0644  0.1851
19977OST    PA330928   5.056   6.042   1.671  0.4493  0.4816  0.3059
19977OST    PA430929   5.142   5.704   1.818 -0.1205  0.1971  0.0176
19977OST    PA530930   5.103   5.408   1.807  0.2660 -0.0357 -0.3722
19977OST    PA630931   4.896   5.384   1.658 -0.0689  0.1138 -0.0695
19978OST    PA130932  11.878   0.796   8.642 -0.3761  0.2724  0.0804
19978OST    PA230933  11.719   0.487   8.733  0.1398  0.2565 -0.0063
19978OST    PA330934  11.488   0.568   8.574  0.2175  0.2144  0.5258
19978OST    PA430935  11.622   0.363   8.851 -0.0771  0.1586  0.2490
19978OST    PA530936  11.914   0.324   9.000 -0.3351  0.4436 -0.0723
19978OST    PA630937  12.067   0.472   8.898 -0.0320 -0.1067  0.4649
19979OST    PA130938   2.424  10.327   8.218 -0.2262 -0.0869 -0.2384
19979OST    PA230939   2.750  10.448   8.244  0.2183  0.3498  0.0920
19979OST    PA330940   2.860  10.312   8.019 -0.1128  0.0843 -0.3618
19979OST    PA430941   2.900  10.569   8.269 -0.0834  0.1691 -0.0401
19979OST    PA530942   2.825  10.560   8.594  0.5683 -0.2195 -0.0443
19979OST    PA630943   2.653  10.426   8.606  0.1204 -0.3370 -0.2947
19980OST    PA130944  14.806   1.942   1.835  0.0804  0.3516 -0.0062
19980OST    PA230945  14.523   1.837   1.599 -0.4645 -0.2287 -0.3055
19980OST    PA330946  14.771   1.830   1.439  0.2166 -0.3979 -0.1324
19980OST    PA430947  14.433   1.905   1.480  0.2731  0.0462  0.1751
19980OST    PA530948  14.195   1.992   1.642  0.1639 -0.1225  0.2783
19980OST    PA630949  14.303   1.898   1.864 -0.1192 -0.2784  0.2325
19981OST    PA130950   8.670   6.296   8.388  0.0522 -0.1954 -0.0020
19981OST    PA230951   8.330   6.250   8.328  0.1591  0.2194 -0.1445
19981OST    PA330952   8.354   6.320   8.012 -0.1105  0.3447 -0.5488
19981OST    PA430953   8.148   6.196   8.321  0.1215 -0.0530  0.4721
19981OST    PA530954   8.101   6.184   8.636 -0.2394 -0.2178  0.0538
19981OST    PA630955   8.311   6.257   8.705 -0.1592  0.2556 -0.2902
19982OST    PA130956   6.647   2.599  11.205  0.2321  0.0702  0.1831
19982OST    PA230957   6.923   2.383  11.286 -0.1990 -0.3179 -0.1145
19982OST    PA330958   6.819   2.399  11.564  0.3995 -0.2298 -0.1198
19982OST    PA430959   7.029   2.205  11.307  0.1748  0.1496 -0.0549
19982OST    PA530960   7.095   2.193  10.984 -0.0652 -0.0919 -0.3702
19982OST    PA630961   6.923   2.366  10.955 -0.0126 -0.2576 -0.5105
19983OST    PA130962   7.661   7.861   7.641 -0.0371 -0.3052  0.0497
19983OST    PA230963   7.943   7.641   7.700  0.0278 -0.1094 -0.1664
19983OST    PA330964   8.047   7.664   7.462  0.3805 -0.2431  0.1257
19983OST    PA430965   8.140   7.591   7.791 -0.0316 -0.1023  0.1523
19983OST    PA530966   7.988   7.405   7.987  0.5220  0.2422  0.1373
19983OST    PA630967   7.767   7.441   7.918 -0.1442  0.2698  0.1757
19984OST    PA130968   1.427   7.211   0.048  0.3379  0.2098  0.0134
19984OST    PA230969   1.407   7.578   0.067  0.1631  0.0880 -0.0090
19984OST    PA330970   1.625   7.575  -0.108 -0.2710 -0.2678  0.1831
19984OST    PA430971   1.476   7.721   0.214 -0.0143 -0.0533 -0.0077
19984OST    PA530972   1.247   7.644   0.407 -0.3299 -0.0672  0.1971
19984OST    PA630973   1.154   7.485   0.276 -0.3709  0.2453 -0.0021
19985OST    PA130974  14.262  10.424   0.834 -0.0429  0.1006 -0.0007
19985OST    PA230975  14.407  10.750   0.800 -0.0779 -0.1116  0.2654
19985OST    PA330976  14.194  10.785   0.577 -0.1395  0.0623 -0.5760
19985OST    PA430977  14.447  10.977   0.855 -0.0960  0.3132 -0.3792
19985OST    PA530978  14.701  10.907   0.955 -0.2186  0.2960 -0.1682
19985OST    PA630979  14.680  10.642   0.995 -0.1424 -0.1265  0.0723
19986OST    PA130980   0.957   7.459  12.610 -0.1635 -0.1515  0.0351
19986OST    PA230981   0.981   7.790  12.745  0.0437 -0.3825  0.0551
19986OST    PA330982   0.843   7.670  12.963 -0.4454 -0.0861  0.2108
19986OST    PA430983   1.125   7.890  12.875 -0.0872  0.4691 -0.0161
19986OST    PA530984   1.358   7.941  12.678  0.2913 -0.1263 -0.3082
19986OST    PA630985   1.294   7.791  12.517 -0.4350  0.0123 -0.1056
19987OST    PA130986   8.186  13.525   9.251  0.1366 -0.0474 -0.1373
19987OST    PA230987   8.027  13.739   9.038  0.1165  0.2140 -0.3001
19987OST    PA330988   7.753  13.613   9.035  0.0140  0.4947 -0.1202
19987OST    PA430989   7.956  13.935   9.010 -0.3882  0.1007 -0.3344
19987OST    PA530990   8.237  14.046   8.963  0.5218 -0.1766 -0.3994
19987OST    PA630991   8.367  13.875   9.013 -0.3680  0.0445  0.0376
19988OST    PA130992   8.311   5.495   0.107  0.0996 -0.2703 -0.0636
19988OST    PA230993   8.242   5.484  -0.222 -0.1682 -0.0363 -0.2115
19988OST    PA330994   8.345   5.224  -0.231  0.2531  0.1599 -0.0716
19988OST    PA430995   8.070   5.437  -0.328 -0.0883 -0.1008  0.0656
19988OST    PA530996   7.892   5.711  -0.313 -0.1889 -0.1260 -0.1967
19988OST    PA630997   8.075   5.805  -0.180 -0.1377 -0.2861  0.2091
19989OST    PA130998  11.423   2.836  11.254 -0.0472 -0.1479  0.2824
19989OST    PA230999  11.659   3.024  11.426  0.1194 -0.6104  0.0707
19989OST    PA331000  11.593   2.934  11.702  0.1041 -0.3043 -0.2512
19989OST    PA431001  11.715   3.216  11.503 -0.1000 -0.0020  0.5857
19989OST    PA531002  11.751   3.350  11.233  0.0541  0.0949  0.1401
19989OST    PA631003  11.782   3.158  11.123 -0.2753 -0.0343  0.1424
19990OST    PA131004  14.637   0.920   1.594  0.1669  0.0188 -0.1284
19990OST    PA231005  14.675   0.704   1.320  0.0625  0.0035  0.3568
19990OST    PA331006  14.871   0.890   1.186  0.3166 -0.0830 -0.1076
19990OST    PA431007  14.649   0.590   1.184 -0.1297 -0.3477  0.0166
19990OST    PA531008  14.377   0.456   1.161  0.0305  0.2459 -0.1715
19990OST    PA631009  14.310   0.600   1.355  0.1009 -0.2449  0.1803
19991OST    PA131010  13.810   1.276   1.842 -0.1286 -0.1874  0.1022
19991OST    PA231011  14.016   1.033   1.657 -0.2813 -0.2293  0.0128
19991OST    PA331012  14.170   1.002   1.898 -0.2498 -0.1371  0.2304
19991OST    PA431013  14.170   1.028   1.536 -0.0779 -0.1819  0.1961
19991OST    PA531014  13.962   0.971   1.301  0.1076  0.2235  0.4034
19991OST    PA631015  13.756   1.023   1.406  0.1803  0.2660 -0.1655
19992OST    PA131016  12.388   9.501   8.155  0.0627 -0.0471 -0.0424
19992OST    PA231017  12.499   9.709   8.413  0.1437 -0.2587  0.1306
19992OST    PA331018  12.699   9.808   8.250 -0.2488 -0.0619 -0.2008
19992OST    PA431019  12.436   9.909   8.494  0.0497 -0.4932 -0.0965
19992OST    PA531020  12.346   9.773   8.779  0.4008  0.0090 -0.1565
19992OST    PA631021  12.389   9.547   8.672 -0.3448 -0.0474 -0.1821
19993OST    PA131022  16.051   6.886   9.229 -0.0143 -0.1291  0.0195
19993OST    PA231023  15.764   6.710   9.372 -0.1593  0.2622 -0.0869
19993OST    PA331024  15.848   6.463   9.502 -0.3542  0.1074 -0.3316
19993OST    PA431025  15.544   6.669   9.386 -0.0937  0.0121  0.3903
19993OST    PA531026  15.505   6.941   9.538 -0.2543 -0.3280 -0.0569
19993OST    PA631027  15.699   7.018   9.502 -0.3229 -0.1719  0.1054
19994OST    PA131028  12.513   5.230   2.803 -0.2986 -0.0053  0.4629
19994OST    PA231029  12.421   5.514   2.615 -0.1679  0.1977  0.0119
19994OST    PA331030  12.636   5.693   2.705 -0.2648  0.1329 -0.0838
19994OST    PA431031  12.293   5.646   2.537 -0.0147 -0.0785  0.1695
19994OST    PA531032  12.219   5.424   2.319 -0.3435 -0.0349  0.1943
19994OST    PA631033  12.393   5.301   2.342 -0.0099  0.1703 -0.0030
19995OST    PA131034  11.638   3.488   0.320 -0.0659  0.0860 -0.1665
19995OST    PA231035  11.877   3.289   0.512  0.0772 -0.0785  0.2548
19995OST    PA331036  12.075   3.241   0.296 -0.1128 -0.0987 -0.0014
19995OST    PA431037  11.994   3.172   0.667  0.1985 -0.1266  0.0376
19995OST    PA531038  11.747   3.141   0.849 -0.5510  0.4742  0.0458
19995OST    PA631039  11.586   3.278   0.732 -0.0848 -0.0402  0.1474
19996OST    PA131040  14.243  12.222  10.995 -0.3425 -0.2738 -0.1548
19996OST    PA231041  14.061  12.482  10.867 -0.2104  0.4573 -0.0739
19996OST    PA331042  14.173  12.605  11.107  0.0457  0.6328 -0.0723
19996OST    PA431043  13.895  12.588  10.883  0.0856  0.3700  0.0344
19996OST    PA531044  13.724  12.412  10.677 -0.0953  0.1930 -0.0953
19996OST    PA631045  13.933  12.239  10.629 -0.1236 -0.3003  0.0750
19997OST    PA131046   7.006  13.079   9.541 -0.0121 -0.2526 -0.4503
19997OST    PA231047   7.338  13.127   9.445 -0.2003  0.1101  0.0464
19997OST    PA331048   7.200  13.277   9.222 -0.1601  0.1180 -0.4035
19997OST    PA431049   7.511  13.226   9.425  0.0512 -0.0088  0.0613
19997OST    PA531050   7.552  13.264   9.738 -0.0538 -0.0969 -0.2295
19997OST    PA631051   7.373  13.133   9.791 -0.2465 -0.1097 -0.0242
19998OST    PA131052  12.412  12.932   8.503  0.3718  0.2770 -0.1456
19998OST    PA231053  12.346  12.949   8.870 -0.0774  0.2915 -0.0186
19998OST    PA331054  12.286  12.659   8.851  0.3120  0.1862 -0.7620
19998OST    PA431055  12.416  12.949   9.049 -0.0789 -0.1110 -0.1442
19998OST    PA531056  12.353  13.283   9.054 -0.0920 -0.0543 -0.0196
19998OST    PA631057  12.343  13.291   8.795 -0.2116 -0.2907 -0.0592
19999OST    PA131058   7.083   3.178  10.845 -0.0610  0.0229  0.1319
19999OST    PA231059   7.200   3.241  11.140  0.0861  0.1303 -0.2146
19999OST    PA331060   6.945   3.361  11.221  0.2225  0.3800  0.1913
19999OST    PA431061   7.295   3.317  11.314  0.5382 -0.0383  0.0775
19999OST    PA531062   7.549   3.156  11.218  0.2369 -0.1242 -0.0766
19999OST    PA631063   7.514   3.140  10.987  0.3089 -0.2143 -0.0360
20000OST    PA131064  15.317   2.109   2.112  0.0809  0.0841  0.0094
20000OST    PA231065  15.488   2.423   2.180  0.3562  0.5038 -0.2004
20000OST    PA331066  15.448   2.277   2.448 -0.1944 -0.1589 -0.0994
20000OST    PA431067  15.656   2.549   2.245  0.0642 -0.1632 -0.0220
20000OST    PA531068  15.838   2.474   2.006  0.0699  0.0131  0.0950
20000OST    PA631069  15.670   2.336   1.907 -0.2056 -0.1124 -0.0856
20001OST    PA131070   8.160  12.429  10.771 -0.0300  0.1036  0.0016
20001OST    PA231071   8.237  12.574  11.071  0.0307 -0.0349 -0.1222
20001OST    PA331072   8.500  12.622  10.996 -0.3411 -0.3781  0.0978
20001OST    PA431073   8.257  12.692  11.252 -0.2405  0.0107  0.1800
20001OST    PA531074   7.960  12.806  11.253  0.4278 -0.2132 -0.1440
20001OST    PA631075   7.897  12.665  11.121 -0.1043 -0.3092  0.0021
20002OST    PA131076  11.630   9.760  11.728 -0.1086 -0.2037 -0.3276
20002OST    PA231077  11.449   9.678  11.446 -0.0008  0.0114  0.0585
20002OST    PA331078  11.610   9.511  11.283 -0.0718  0.1027  0.2269
20002OST    PA431079  11.312   9.711  11.301 -0.1492 -0.0771  0.1573
20002OST    PA531080  11.053   9.767  11.475 -0.0510  0.0010  0.0650
20002OST    PA631081  11.158   9.768  11.681  0.0952 -0.1132 -0.0010
20003OST    PA131082   6.667   3.824   4.698 -0.0361  0.3947 -0.4481
20003OST    PA231083   6.431   3.640   4.925  0.1634 -0.1413  0.1919
20003OST    PA331084   6.244   3.610   4.679  0.5276 -0.0319 -0.0177
20003OST    PA431085   6.288   3.629   5.065 -0.0333  0.1510  0.1263
20003OST    PA531086   6.493   3.651   5.315  0.1202 -0.2039  0.4047
20003OST    PA631087   6.720   3.654   5.170 -0.1183  0.3012 -0.1506
20004OST    PA131088  11.345   6.828   2.450 -0.0338 -0.2684  0.0528
20004OST    PA231089  11.417   7.173   2.557  0.4221  0.2520  0.0133
20004OST    PA331090  11.505   7.383   2.379 -0.2890  0.2111 -0.2507
20004OST    PA431091  11.485   7.270   2.738  0.2285  0.2985 -0.2654
20004OST    PA531092  11.241   7.182   2.959 -0.0257 -0.4447 -0.2713
20004OST    PA631093  11.114   7.119   2.769  0.0807  0.0215  0.4667
20005OST    PA131094   0.670  10.359  10.443  0.0840 -0.2907 -0.2646
20005OST    PA231095   0.684  10.675  10.618  0.0020 -0.1757 -0.0941
20005OST    PA331096   0.827  10.593  10.873  0.0603 -0.1500 -0.5457
20005OST    PA431097   0.615  10.838  10.681  0.3969  0.0430 -0.1389
20005OST    PA531098   0.497  10.927  10.432 -0.0830 -0.6339  0.1733
20005OST    PA631099   0.577  10.771  10.258 -0.0534 -0.0368 -0.2483
20006OST    PA131100   0.266   6.040  11.191 -0.0271 -0.0083 -0.1007
20006OST    PA231101   0.018   6.221  11.361 -0.0760 -0.3384 -0.2724
20006OST    PA331102   0.049   6.329  11.074 -0.0506 -0.0729 -0.1511
20006OST    PA431103  -0.020   6.418  11.447 -0.2090 -0.0558  0.2997
20006OST    PA531104   0.145   6.326  11.683  0.2127 -0.0884  0.2390
20006OST    PA631105   0.228   6.130  11.669  0.0185  0.2758  0.1474
20007OST    PA131106   0.007  13.895  12.227 -0.0043  0.2367  0.0636
20007OST    PA231107  -0.076  14.161  11.996 -0.1616  0.3939  0.2143
20007OST    PA331108  -0.080  14.315  12.236 -0.1106  0.0924  0.0723
20007OST    PA431109  -0.192  14.267  11.904  0.1049  0.2703 -0.4178
20007OST    PA531110  -0.175  14.093  11.670  0.1355 -0.1335 -0.1128
20007OST    PA631111  -0.017  13.931  11.753 -0.2486  0.0814  0.2050
20008OST    PA131112  16.250  15.997  10.533  0.1185  0.1919 -0.0593
20008OST    PA231113  16.131  15.708  10.677  0.2885  0.1481 -0.3406
20008OST    PA331114  15.842  15.788  10.643  0.2878 -0.1137  0.1671
20008OST    PA431115  16.094  15.518  10.731  0.0748  0.2007  0.1399
20008OST    PA531116  16.341  15.356  10.620  0.2084  0.0839  0.1011
20008OST    PA631117  16.466  15.560  10.540 -0.1836 -0.0797 -0.3736
20009OST    PA131118   0.074   0.978   9.120 -0.0526  0.0547 -0.1588
20009OST    PA231119  -0.125   1.273   9.000 -0.0485 -0.1715  0.1480
20009OST    PA331120   0.081   1.452   9.078  0.3496 -0.4774  0.4491
20009OST    PA431121  -0.268   1.427   9.038 -0.0006 -0.0891  0.1625
20009OST    PA531122  -0.509   1.228   8.988 -0.1103 -0.0798  0.5221
20009OST    PA631123  -0.351   1.026   8.971  0.2815  0.1857 -0.1039
20010OST    PA131124   6.172  14.319   0.585 -0.0775  0.1233 -0.0206
20010OST    PA231125   5.959  14.070   0.722 -0.2681  0.0900  0.1056
20010OST    PA331126   5.720  14.132   0.550 -0.5600  0.1249 -0.4039
20010OST    PA431127   5.878  13.954   0.830 -0.2648  0.1205 -0.1475
20010OST    PA531128   6.141  13.753   0.892 -0.1896 -0.3228 -0.4151
20010OST    PA631129   6.255  13.898   0.732 -0.0765  0.2550  0.4099
20011OST    PA131130   9.050   9.700  12.671 -0.0101  0.0084  0.0013
20011OST    PA231131   8.779   9.898  12.648  0.2630 -0.4301  0.7101
20011OST    PA331132   8.783   9.819  12.372  0.0227  0.2599  0.1941
20011OST    PA431133   8.642  10.053  12.619 -0.2085  0.1942  0.1696
20011OST    PA531134   8.585  10.096  12.925  0.0096 -0.0304  0.4509
20011OST    PA631135   8.695   9.893  12.979  0.3108 -0.2269  0.2146
20012OST    PA131136   6.739   0.617   8.312  0.3043  0.0240 -0.0150
20012OST    PA231137   6.744   0.686   8.655  0.1758 -0.2790 -0.2135
20012OST    PA331138   6.808   0.433   8.736  0.7774 -0.1021 -0.0501
20012OST    PA431139   6.781   0.783   8.842 -0.2465 -0.0556 -0.0352
20012OST    PA531140   6.757   1.062   8.750 -0.5142  0.2385 -0.3168
20012OST    PA631141   6.727   1.032   8.516 -0.0822  0.0907  0.1015
20013OST    PA131142   6.681   7.698   1.276  0.0572 -0.2386  0.1825
20013OST    PA231143   6.793   7.722   1.602  0.2289  0.0160  0.4973
20013OST    PA331144   6.856   7.983   1.601 -0.5767  0.2262 -0.2949
20013OST    PA431145   6.954   7.666   1.736 -0.2473 -0.0621  0.4627
20013OST    PA531146   6.881   7.359   1.782  0.0106 -0.0754 -0.0366
20013OST    PA631147   6.708   7.374   1.621  0.2862 -0.0131 -0.1630
20014OST    PA131148   2.427   2.138   4.836  0.1946  0.3449  0.2034
20014OST    PA231149   2.299   2.063   4.485  0.2539  0.2517  0.4090
20014OST    PA331150   2.057   2.175   4.655  0.0329 -0.1655  0.3147
20014OST    PA431151   2.162   1.936   4.381  0.3983  0.0221  0.1602
20014OST    PA531152   2.360   1.821   4.158 -0.6234 -0.0054 -0.2506
20014OST    PA631153   2.544   1.938   4.253  0.3980  0.2215 -0.2937
20015OST    PA131154   0.658  11.115   1.021  0.0997  0.0837  0.0037
20015OST    PA231155   0.352  10.923   0.934 -0.3768  0.0735  0.3488
20015OST    PA331156   0.553  10.814   0.763  0.5760  0.0140  0.0388
20015OST    PA431157   0.221  10.775   0.919  0.1294  0.0659  0.1893
20015OST    PA531158   0.006  10.876   1.086 -0.5211 -0.0283 -0.0350
20015OST    PA631159   0.122  11.075   1.164 -0.1161 -0.1136  0.1175
  16.35966  16.35966  12.75979
