Martini system
31159
    1CHOL   ROH    1   0.634   8.238   4.725
    1CHOL    R1    2   0.733   8.255   4.989
    1CHOL    R2    3   0.806   8.494   5.106
    1CHOL    R3    4   0.632   8.417   5.300
    1CHOL    R4    5   0.813   8.605   5.433
    1CHOL    R5    6   0.766   8.402   5.498
    1CHOL    C1    7   0.653   8.597   5.806
    1CHOL    C2    8   0.930   8.697   6.070
    2XCA    COO    9  14.580   8.110   3.917
    2XCA     C1   10  14.373   8.266   4.311
    2XCA     C2   11  14.158   8.056   4.624
    2XCA     C3   12  13.837   7.897   4.837
    2XCA     C4   13  13.681   7.928   5.226
    2XCA     C5   14  13.481   8.165   5.540
    2XCA     C6   15  13.719   8.537   5.618
    3XCA    COO   16   4.056   3.063   8.676
    3XCA     C1   17   3.891   2.828   8.302
    3XCA     C2   18   3.955   2.814   7.872
    3XCA     C3   19   4.217   2.565   7.608
    3XCA     C4   20   4.533   2.291   7.738
    3XCA     C5   21   4.948   2.164   7.735
    3XCA     C6   22   5.321   1.978   7.627
    4XCA    COO   23  14.526  11.334   4.904
    4XCA     C1   24  14.399  11.170   5.295
    4XCA     C2   25  14.381  11.043   5.726
    4XCA     C3   26  14.357  11.079   6.148
    4XCA     C4   27  14.045  11.171   6.435
    4XCA     C5   28  13.755  11.316   6.739
    4XCA     C6   29  13.542  11.665   6.909
    5CHOL   ROH   30   0.174   6.246   4.432
    5CHOL    R1   31   0.414   6.287   4.575
    5CHOL    R2   32   0.517   6.538   4.626
    5CHOL    R3   33   0.514   6.453   4.884
    5CHOL    R4   34   0.721   6.659   4.877
    5CHOL    R5   35   0.743   6.455   4.950
    5CHOL    C1   36   0.837   6.649   5.265
    5CHOL    C2   37   1.036   6.479   5.578
    6CHOL   ROH   38   8.254  15.068   5.800
    6CHOL    R1   39   8.372  15.097   6.056
    6CHOL    R2   40   8.581  15.270   6.104
    6CHOL    R3   41   8.416  15.365   6.298
    6CHOL    R4   42   8.681  15.460   6.375
    6CHOL    R5   43   8.543  15.348   6.499
    6CHOL    C1   44   8.584  15.660   6.714
    6CHOL    C2   45   8.701   0.136   6.961
    7XCA    COO   46   9.170   1.015   5.150
    7XCA     C1   47   9.240   1.040   5.635
    7XCA     C2   48   9.332   1.166   6.081
    7XCA     C3   49   9.386   1.038   6.519
    7XCA     C4   50   9.462   0.910   6.932
    7XCA     C5   51   9.320   0.551   7.139
    7XCA     C6   52   9.210   0.088   7.084
    8CHOL   ROH   53   1.811   9.454   6.534
    8CHOL    R1   54   1.824   9.175   6.575
    8CHOL    R2   55   1.674   9.045   6.767
    8CHOL    R3   56   1.595   8.893   6.556
    8CHOL    R4   57   1.603   8.708   6.783
    8CHOL    R5   58   1.703   8.682   6.591
    8CHOL    C1   59   1.486   8.368   6.595
    8CHOL    C2   60   1.790   8.047   6.634
    9PNCE   AM1   61  14.788   2.209   8.484
    9PNCE   AM2   62  14.595   1.936   8.554
    9PNCE   T1A   63  14.914   2.400   8.066
    9PNCE   C2A   64  14.960   2.556   7.636
    9PNCE   C3A   65  14.742   2.400   7.239
    9PNCE   C1B   66  14.767   1.835   8.127
    9PNCE   C2B   67  15.038   1.945   7.780
    9PNCE   C3B   68  15.171   2.166   7.406
    9PNCE   D4B   69  15.213   2.527   7.134
    9PNCE   C5B   70  15.093   2.936   7.307
    9PNCE   C6B   71  14.869   3.302   7.245
   10PNCE   AM1   72  14.195   0.596   8.161
   10PNCE   AM2   73  14.317   0.287   8.155
   10PNCE   T1A   74  13.789   0.704   7.982
   10PNCE   C2A   75  13.548   0.696   7.612
   10PNCE   C3A   76  13.423   0.691   7.177
   10PNCE   C1B   77  14.592   0.334   7.808
   10PNCE   C2B   78  14.628   0.389   7.337
   10PNCE   C3B   79  14.992   0.245   7.053
   10PNCE   D4B   80  14.990   0.064   6.650
   10PNCE   C5B   81  15.004  15.475   6.544
   10PNCE   C6B   82  14.778  15.316   6.211
   11XCA    COO   83   6.070  15.782   8.526
   11XCA     C1   84   5.964  15.757   8.080
   11XCA     C2   85   5.851   0.162   7.701
   11XCA     C3   86   5.909   0.345   7.288
   11XCA     C4   87   6.024   0.422   6.868
   11XCA     C5   88   5.953   0.740   6.542
   11XCA     C6   89   5.771   0.836   6.171
   12CHOL   ROH   90   2.726   7.057   7.669
   12CHOL    R1   91   2.726   7.120   7.393
   12CHOL    R2   92   2.949   7.090   7.234
   12CHOL    R3   93   2.780   6.941   7.081
   12CHOL    R4   94   3.024   6.967   6.919
   12CHOL    R5   95   2.821   7.017   6.857
   12CHOL    C1   96   2.909   6.756   6.593
   12CHOL    C2   97   3.211   6.645   6.334
   13PNCE   AM1   98  11.506  15.579   9.870
   13PNCE   AM2   99  11.361  15.716   9.550
   13PNCE   T1A  100  11.494  15.119   9.895
   13PNCE   C2A  101  11.365  14.716   9.668
   13PNCE   C3A  102  11.097  14.532   9.325
   13PNCE   C1B  103  11.215  15.573   9.112
   13PNCE   C2B  104  10.983  15.354   8.788
   13PNCE   C3B  105  11.011  15.483   8.348
   13PNCE   D4B  106  10.803  15.633   7.936
   13PNCE   C5B  107  10.416  15.695   7.661
   13PNCE   C6B  108  10.158   0.079   7.323
   14XCA    COO  109  11.507  14.296   4.797
   14XCA     C1  110  11.287  14.059   5.158
   14XCA     C2  111  11.247  14.175   5.626
   14XCA     C3  112  11.141  14.460   6.005
   14XCA     C4  113  10.863  14.516   6.381
   14XCA     C5  114  10.831  14.472   6.849
   14XCA     C6  115  10.762  14.441   7.317
   15CHOL   ROH  116  11.808   1.741   8.132
   15CHOL    R1  117  11.750   1.679   7.862
   15CHOL    R2  118  11.926   1.543   7.700
   15CHOL    R3  119  11.715   1.377   7.662
   15CHOL    R4  120  11.864   1.364   7.411
   15CHOL    R5  121  11.653   1.410   7.433
   15CHOL    C1  122  11.629   1.104   7.208
   15CHOL    C2  123  11.898   1.010   6.900
   16PNCE   AM1  124  15.481  15.587   9.131
   16PNCE   AM2  125  15.736   0.004   9.202
   16PNCE   T1A  126  15.417   0.078   8.790
   16PNCE   C2A  127  15.235   0.158   8.379
   16PNCE   C3A  128  15.027   0.478   8.103
   16PNCE   C1B  129   0.093   0.108   8.780
   16PNCE   C2B  130  15.740   0.220   8.386
   16PNCE   C3B  131  15.752   0.423   7.979
   16PNCE   D4B  132  15.771   0.351   7.539
   16PNCE   C5B  133   0.357   0.488   7.429
   16PNCE   C6B  134   0.620   0.862   7.489
   17XCA    COO  135   7.270  13.506   4.626
   17XCA     C1  136   7.430  13.393   5.043
   17XCA     C2  137   7.413  13.149   5.417
   17XCA     C3  138   7.255  12.785   5.611
   17XCA     C4  139   6.945  12.607   5.879
   17XCA     C5  140   6.714  12.282   6.079
   17XCA     C6  141   6.598  11.885   5.910
   18PNCE   AM1  142   4.369   9.190   8.260
   18PNCE   AM2  143   4.000   9.202   8.292
   18PNCE   T1A  144   4.304   9.167   7.821
   18PNCE   C2A  145   4.118   8.896   7.515
   18PNCE   C3A  146   4.016   8.546   7.221
   18PNCE   C1B  147   3.795   9.103   7.868
   18PNCE   C2B  148   3.552   9.279   7.498
   18PNCE   C3B  149   3.264   9.551   7.232
   18PNCE   D4B  150   3.268   9.840   6.875
   18PNCE   C5B  151   3.321  10.263   7.033
   18PNCE   C6B  152   3.310  10.657   7.255
   19PNCE   AM1  153   4.248   8.044   8.530
   19PNCE   AM2  154   4.066   8.248   8.286
   19PNCE   T1A  155   4.353   7.799   8.175
   19PNCE   C2A  156   4.509   7.515   7.897
   19PNCE   C3A  157   4.633   7.102   7.934
   19PNCE   C1B  158   3.765   8.061   7.989
   19PNCE   C2B  159   3.437   8.084   7.680
   19PNCE   C3B  160   3.382   7.985   7.244
   19PNCE   D4B  161   3.019   7.934   7.019
   19PNCE   C5B  162   2.645   8.005   7.233
   19PNCE   C6B  163   2.202   8.042   7.125
   20PNCE   AM1  164   3.475   2.363   9.067
   20PNCE   AM2  165   3.135   2.300   9.039
   20PNCE   T1A  166   3.467   2.529   8.644
   20PNCE   C2A  167   3.280   2.378   8.276
   20PNCE   C3A  168   3.169   2.506   7.846
   20PNCE   C1B  169   2.923   2.173   8.643
   20PNCE   C2B  170   2.986   1.938   8.254
   20PNCE   C3B  171   3.088   1.639   7.942
   20PNCE   D4B  172   3.105   1.632   7.492
   20PNCE   C5B  173   3.256   1.323   7.196
   20PNCE   C6B  174   3.218   1.201   6.754
   21XCA    COO  175  13.740   5.130   5.213
   21XCA     C1  176  13.477   5.494   5.398
   21XCA     C2  177  13.576   5.805   5.736
   21XCA     C3  178  13.711   5.903   6.148
   21XCA     C4  179  13.861   5.939   6.556
   21XCA     C5  180  14.189   5.665   6.675
   21XCA     C6  181  14.511   5.322   6.819
   22PNCE   AM1  182   9.680   5.322   8.349
   22PNCE   AM2  183   9.500   5.169   8.616
   22PNCE   T1A  184   9.824   4.961   8.076
   22PNCE   C2A  185   9.662   4.495   7.999
   22PNCE   C3A  186   9.382   4.109   7.968
   22PNCE   C1B  187   9.352   4.880   8.244
   22PNCE   C2B  188   9.431   4.862   7.753
   22PNCE   C3B  189   9.486   4.696   7.360
   22PNCE   D4B  190   9.218   4.670   6.988
   22PNCE   C5B  191   9.221   4.837   6.519
   22PNCE   C6B  192   9.279   4.930   6.076
   23PNCE   AM1  193  11.733   5.938   8.538
   23PNCE   AM2  194  11.930   5.655   8.678
   23PNCE   T1A  195  11.853   6.102   8.131
   23PNCE   C2A  196  12.094   5.920   7.771
   23PNCE   C3A  197  12.119   5.925   7.321
   23PNCE   C1B  198  12.131   5.690   8.259
   23PNCE   C2B  199  12.354   5.487   7.930
   23PNCE   C3B  200  12.517   5.634   7.539
   23PNCE   D4B  201  12.508   5.713   7.083
   23PNCE   C5B  202  12.215   5.557   6.786
   23PNCE   C6B  203  11.846   5.442   6.544
   24PNCE   AM1  204   3.943   9.994   8.031
   24PNCE   AM2  205   3.920  10.253   7.762
   24PNCE   T1A  206   3.999   9.608   7.785
   24PNCE   C2A  207   4.116   9.439   7.379
   24PNCE   C3A  208   4.364   9.484   6.985
   24PNCE   C1B  209   3.799  10.283   7.295
   24PNCE   C2B  210   3.752  10.084   6.851
   24PNCE   C3B  211   3.684   9.785   6.515
   24PNCE   D4B  212   3.666   9.859   6.097
   24PNCE   C5B  213   4.083   9.805   5.908
   24PNCE   C6B  214   4.469   9.522   5.963
   25XCA    COO  215   1.099   8.358   4.398
   25XCA     C1  216   1.185   8.514   4.813
   25XCA     C2  217   1.253   8.488   5.248
   25XCA     C3  218   1.191   8.423   5.704
   25XCA     C4  219   1.235   8.255   6.126
   25XCA     C5  220   1.116   7.990   6.472
   25XCA     C6  221   0.833   7.858   6.827
   26CHOL   ROH  222   8.560  13.275   9.421
   26CHOL    R1  223   8.407  13.367   9.201
   26CHOL    R2  224   8.176  13.516   9.232
   26CHOL    R3  225   8.305  13.689   9.067
   26CHOL    R4  226   8.020  13.751   9.033
   26CHOL    R5  227   8.163  13.704   8.875
   26CHOL    C1  228   8.050  14.050   8.761
   26CHOL    C2  229   7.900  14.361   8.524
   27PNCE   AM1  230  14.534   9.184   7.646
   27PNCE   AM2  231  14.449   9.444   7.896
   27PNCE   T1A  232  14.720   8.951   7.281
   27PNCE   C2A  233  14.656   8.642   6.935
   27PNCE   C3A  234  14.588   8.442   6.519
   27PNCE   C1B  235  14.410   9.706   7.504
   27PNCE   C2B  236  14.347   9.962   7.098
   27PNCE   C3B  237  14.484  10.107   6.641
   27PNCE   D4B  238  14.704  10.194   6.213
   27PNCE   C5B  239  15.188  10.265   6.199
   27PNCE   C6B  240  15.614  10.337   5.985
   28CHOL   ROH  241  14.325  14.426   9.364
   28CHOL    R1  242  14.239  14.511   9.108
   28CHOL    R2  243  14.416  14.585   8.909
   28CHOL    R3  244  14.281  14.399   8.764
   28CHOL    R4  245  14.442  14.543   8.567
   28CHOL    R5  246  14.227  14.511   8.560
   28CHOL    C1  247  14.330  14.345   8.232
   28CHOL    C2  248  14.132  14.548   7.951
   29PNCE   AM1  249   9.986   2.641   8.940
   29PNCE   AM2  250  10.118   2.866   8.718
   29PNCE   T1A  251   9.599   2.642   8.672
   29PNCE   C2A  252   9.395   2.539   8.286
   29PNCE   C3A  253   9.300   2.535   7.851
   29PNCE   C1B  254   9.980   2.782   8.288
   29PNCE   C2B  255   9.756   2.782   7.907
   29PNCE   C3B  256   9.609   2.773   7.475
   29PNCE   D4B  257   9.815   2.568   7.089
   29PNCE   C5B  258  10.275   2.614   7.026
   29PNCE   C6B  259  10.623   2.916   6.994
   30XCA    COO  260  15.655  10.607   4.888
   30XCA     C1  261  15.719  10.479   5.336
   30XCA     C2  262   0.094  10.720   5.667
   30XCA     C3  263   0.224  10.589   6.078
   30XCA     C4  264   0.147  10.421   6.490
   30XCA     C5  265   0.375  10.434   6.866
   30XCA     C6  266   0.781  10.443   7.070
   31PNCE   AM1  267   0.099   2.442   8.899
   31PNCE   AM2  268   0.427   2.354   9.013
   31PNCE   T1A  269   0.189   1.961   8.740
   31PNCE   C2A  270   0.198   1.445   8.692
   31PNCE   C3A  271   0.272   1.111   8.335
   31PNCE   C1B  272   0.480   2.459   8.531
   31PNCE   C2B  273   0.838   2.360   8.221
   31PNCE   C3B  274   0.993   2.155   7.838
   31PNCE   D4B  275   1.080   1.962   7.419
   31PNCE   C5B  276   0.773   2.147   7.166
   31PNCE   C6B  277   0.707   2.573   7.114
   32XCA    COO  278   8.166   4.477   8.212
   32XCA     C1  279   7.995   4.256   7.830
   32XCA     C2  280   8.112   3.898   7.602
   32XCA     C3  281   8.386   3.645   7.352
   32XCA     C4  282   8.506   3.711   6.935
   32XCA     C5  283   8.789   3.614   6.631
   32XCA     C6  284   9.014   3.652   6.281
   33CHOL   ROH  285   2.962   6.411   8.058
   33CHOL    R1  286   2.985   6.245   7.830
   33CHOL    R2  287   2.778   6.210   7.651
   33CHOL    R3  288   2.965   6.287   7.469
   33CHOL    R4  289   2.763   6.146   7.311
   33CHOL    R5  290   2.976   6.106   7.314
   33CHOL    C1  291   2.929   6.182   6.943
   33CHOL    C2  292   2.857   6.267   6.591
   34PNCE   AM1  293   9.149   8.535   4.499
   34PNCE   AM2  294   8.873   8.335   4.407
   34PNCE   T1A  295   9.008   8.845   4.805
   34PNCE   C2A  296   8.861   8.982   5.229
   34PNCE   C3A  297   8.426   9.104   5.391
   34PNCE   C1B  298   8.819   8.340   4.858
   34PNCE   C2B  299   8.542   8.154   5.142
   34PNCE   C3B  300   8.142   7.906   5.126
   34PNCE   D4B  301   7.943   7.485   5.219
   34PNCE   C5B  302   7.628   7.327   5.536
   34PNCE   C6B  303   7.651   7.157   5.968
   35PNCE   AM1  304  14.367  10.255   4.432
   35PNCE   AM2  305  14.656  10.092   4.323
   35PNCE   T1A  306  14.421  10.223   4.897
   35PNCE   C2A  307  14.332  10.196   5.342
   35PNCE   C3A  308  14.376  10.143   5.796
   35PNCE   C1B  309  14.444   9.772   4.620
   35PNCE   C2B  310  14.190   9.395   4.712
   35PNCE   C3B  311  14.039   9.202   5.091
   35PNCE   D4B  312  13.965   8.799   5.245
   35PNCE   C5B  313  14.344   8.614   5.419
   35PNCE   C6B  314  14.636   8.247   5.481
   36PNCE   AM1  315   3.521   5.773   8.402
   36PNCE   AM2  316   3.708   6.057   8.247
   36PNCE   T1A  317   3.290   5.485   8.134
   36PNCE   C2A  318   2.897   5.454   7.909
   36PNCE   C3A  319   2.457   5.318   7.811
   36PNCE   C1B  320   3.652   5.833   7.862
   36PNCE   C2B  321   3.677   5.406   7.763
   36PNCE   C3B  322   3.570   5.085   7.502
   36PNCE   D4B  323   3.296   4.761   7.341
   36PNCE   C5B  324   3.414   4.512   6.971
   36PNCE   C6B  325   3.594   4.421   6.521
   37XCA    COO  326   7.659  12.632   8.971
   37XCA     C1  327   7.454  13.011   8.832
   37XCA     C2  328   7.572  13.336   8.550
   37XCA     C3  329   7.674  13.547   8.177
   37XCA     C4  330   7.793  13.806   7.837
   37XCA     C5  331   8.182  13.938   7.742
   37XCA     C6  332   8.526  13.973   7.985
   38CHOL   ROH  333   9.131   2.729   8.899
   38CHOL    R1  334   9.083   2.627   8.639
   38CHOL    R2  335   8.828   2.591   8.539
   38CHOL    R3  336   8.921   2.745   8.335
   38CHOL    R4  337   8.713   2.578   8.213
   38CHOL    R5  338   8.918   2.599   8.145
   38CHOL    C1  339   8.732   2.715   7.832
   38CHOL    C2  340   8.461   2.541   7.595
   39PNCE   AM1  341   0.098  14.583   4.584
   39PNCE   AM2  342   0.246  14.236   4.604
   39PNCE   T1A  343   0.115  14.867   4.957
   39PNCE   C2A  344   0.297  15.221   5.123
   39PNCE   C3A  345   0.544  15.491   4.813
   39PNCE   C1B  346   0.503  14.509   4.878
   39PNCE   C2B  347   0.600  14.612   5.298
   39PNCE   C3B  348   0.472  14.795   5.685
   39PNCE   D4B  349   0.431  14.931   6.096
   39PNCE   C5B  350   0.537  15.353   6.217
   39PNCE   C6B  351   0.437  15.790   6.169
   40PNCE   AM1  352   4.722   0.665   8.945
   40PNCE   AM2  353   4.823   0.388   8.770
   40PNCE   T1A  354   4.638   0.814   8.501
   40PNCE   C2A  355   4.453   0.905   8.082
   40PNCE   C3A  356   4.534   1.298   7.852
   40PNCE   C1B  357   4.506   0.295   8.455
   40PNCE   C2B  358   4.417   0.283   8.037
   40PNCE   C3B  359   4.472   0.440   7.638
   40PNCE   D4B  360   4.656   0.546   7.220
   40PNCE   C5B  361   4.904   0.920   7.080
   40PNCE   C6B  362   5.318   1.097   7.046
   41CHOL   ROH  363   2.559  14.542   5.397
   41CHOL    R1  364   2.688  14.334   5.539
   41CHOL    R2  365   2.924  14.371   5.677
   41CHOL    R3  366   2.783  14.269   5.885
   41CHOL    R4  367   3.061  14.191   5.938
   41CHOL    R5  368   2.888  14.058   5.930
   41CHOL    C1  369   3.008  13.990   6.286
   41CHOL    C2  370   3.066  13.866   6.697
   42PNCE   AM1  371   9.503   1.171   9.626
   42PNCE   AM2  372   9.371   0.997   9.932
   42PNCE   T1A  373   9.182   0.993   9.297
   42PNCE   C2A  374   8.774   0.777   9.189
   42PNCE   C3A  375   8.313   0.730   9.143
   42PNCE   C1B  376   9.362   0.646   9.621
   42PNCE   C2B  377   9.094   0.401   9.285
   42PNCE   C3B  378   8.819   0.364   8.875
   42PNCE   D4B  379   8.351   0.327   8.781
   42PNCE   C5B  380   8.067   0.672   8.678
   42PNCE   C6B  381   8.020   1.134   8.615
   43PNCE   AM1  382  12.687   3.245   8.477
   43PNCE   AM2  383  12.644   3.025   8.756
   43PNCE   T1A  384  12.738   3.177   8.033
   43PNCE   C2A  385  12.777   3.262   7.615
   43PNCE   C3A  386  12.475   3.379   7.345
   43PNCE   C1B  387  12.935   2.785   8.475
   43PNCE   C2B  388  13.062   2.623   8.031
   43PNCE   C3B  389  13.112   2.466   7.567
   43PNCE   D4B  390  13.077   2.360   7.098
   43PNCE   C5B  391  12.743   2.082   6.944
   43PNCE   C6B  392  12.464   1.804   6.720
   44XCA    COO  393  15.132  14.359   5.388
   44XCA     C1  394  15.140  14.144   5.790
   44XCA     C2  395  15.102  13.896   6.161
   44XCA     C3  396  15.293  13.800   6.573
   44XCA     C4  397  15.496  14.130   6.831
   44XCA     C5  398  15.734  14.374   7.118
   44XCA     C6  399   0.020  14.745   7.368
   45CHOL   ROH  400   7.661   0.330   5.507
   45CHOL    R1  401   7.634   0.257   5.779
   45CHOL    R2  402   7.458   0.062   5.864
   45CHOL    R3  403   7.680  15.784   5.977
   45CHOL    R4  404   7.460  15.694   6.147
   45CHOL    R5  405   7.640  15.798   6.213
   45CHOL    C1  406   7.670  15.479   6.419
   45CHOL    C2  407   7.492  15.233   6.677
   46CHOL   ROH  408   8.992  13.237   5.427
   46CHOL    R1  409   9.092  13.299   5.684
   46CHOL    R2  410   8.961  13.470   5.857
   46CHOL    R3  411   8.980  13.260   6.028
   46CHOL    R4  412   8.939  13.492   6.202
   46CHOL    R5  413   9.100  13.346   6.217
   46CHOL    C1  414   8.944  13.308   6.563
   46CHOL    C2  415   8.952  13.130   6.934
   47XCA    COO  416   8.979   9.927   8.629
   47XCA     C1  417   8.765  10.192   8.283
   47XCA     C2  418   8.729  10.132   7.829
   47XCA     C3  419   8.788  10.164   7.375
   47XCA     C4  420   9.019  10.439   7.125
   47XCA     C5  421   9.416  10.529   6.958
   47XCA     C6  422   9.847  10.623   6.896
   48CHOL   ROH  423   0.725  10.721   4.869
   48CHOL    R1  424   0.788  10.536   5.074
   48CHOL    R2  425   1.037  10.418   5.096
   48CHOL    R3  426   1.026  10.517   5.349
   48CHOL    R4  427   1.191  10.276   5.371
   48CHOL    R5  428   1.014  10.323   5.488
   48CHOL    C1  429   1.270  10.286   5.768
   48CHOL    C2  430   1.313   9.933   5.932
   49PNCE   AM1  431  14.622   4.209   8.535
   49PNCE   AM2  432  14.262   4.207   8.421
   49PNCE   T1A  433  14.609   4.043   8.079
   49PNCE   C2A  434  14.718   3.729   7.760
   49PNCE   C3A  435  14.940   3.778   7.366
   49PNCE   C1B  436  13.978   4.255   8.065
   49PNCE   C2B  437  13.776   4.309   7.660
   49PNCE   C3B  438  13.927   3.997   7.396
   49PNCE   D4B  439  14.348   3.881   7.398
   49PNCE   C5B  440  14.532   3.679   7.054
   49PNCE   C6B  441  14.527   3.431   6.681
   50PNCE   AM1  442  15.795   0.530   9.101
   50PNCE   AM2  443  15.439   0.625   9.085
   50PNCE   T1A  444   0.192   0.618   8.720
   50PNCE   C2A  445   0.305   0.536   8.309
   50PNCE   C3A  446   0.350   0.676   7.896
   50PNCE   C1B  447  15.495   0.600   8.624
   50PNCE   C2B  448  15.657   0.838   8.256
   50PNCE   C3B  449  15.751   0.949   7.808
   50PNCE   D4B  450  15.766   0.849   7.357
   50PNCE   C5B  451   0.277   0.862   7.088
   50PNCE   C6B  452   0.589   0.599   6.966
   51CHOL   ROH  453   7.607   0.730   8.709
   51CHOL    R1  454   7.589   0.529   8.511
   51CHOL    R2  455   7.351   0.463   8.387
   51CHOL    R3  456   7.493   0.511   8.160
   51CHOL    R4  457   7.246   0.382   8.068
   51CHOL    R5  458   7.449   0.320   8.022
   51CHOL    C1  459   7.317   0.380   7.669
   51CHOL    C2  460   6.935   0.401   7.428
   52PNCE   AM1  461   3.137  14.513   4.110
   52PNCE   AM2  462   3.364  14.682   4.300
   52PNCE   T1A  463   3.111  14.237   4.478
   52PNCE   C2A  464   3.281  13.950   4.807
   52PNCE   C3A  465   3.478  13.621   5.071
   52PNCE   C1B  466   3.701  14.545   4.572
   52PNCE   C2B  467   4.061  14.440   4.852
   52PNCE   C3B  468   4.374  14.499   5.207
   52PNCE   D4B  469   4.557  14.127   5.431
   52PNCE   C5B  470   4.408  14.083   5.831
   52PNCE   C6B  471   4.011  13.881   5.941
   53PNCE   AM1  472   4.179   5.962   8.439
   53PNCE   AM2  473   4.432   6.199   8.358
   53PNCE   T1A  474   4.138   5.952   7.962
   53PNCE   C2A  475   4.089   5.703   7.531
   53PNCE   C3A  476   3.709   5.569   7.268
   53PNCE   C1B  477   4.685   5.856   8.208
   53PNCE   C2B  478   4.956   5.679   7.858
   53PNCE   C3B  479   5.020   5.863   7.459
   53PNCE   D4B  480   5.069   6.143   7.099
   53PNCE   C5B  481   4.738   6.124   6.777
   53PNCE   C6B  482   4.297   6.162   6.602
   54CHOL   ROH  483   9.459   8.008   8.112
   54CHOL    R1  484   9.312   7.880   7.907
   54CHOL    R2  485   9.164   8.021   7.721
   54CHOL    R3  486   9.312   7.879   7.543
   54CHOL    R4  487   9.095   7.992   7.383
   54CHOL    R5  488   9.151   7.782   7.394
   54CHOL    C1  489   9.194   7.842   7.020
   54CHOL    C2  490   9.030   7.619   6.727
   55XCA    COO  491   3.910   8.717   8.469
   55XCA     C1  492   4.135   8.731   8.062
   55XCA     C2  493   4.110   8.417   7.744
   55XCA     C3  494   3.924   8.103   7.493
   55XCA     C4  495   3.879   8.065   7.055
   55XCA     C5  496   3.857   7.860   6.665
   55XCA     C6  497   4.005   7.869   6.267
   56XCA    COO  498  15.579  15.214   4.707
   56XCA     C1  499  15.609  15.266   5.156
   56XCA     C2  500  15.426  15.283   5.539
   56XCA     C3  501  15.076  15.117   5.791
   56XCA     C4  502  15.024  14.879   6.172
   56XCA     C5  503  14.682  14.821   6.471
   56XCA     C6  504  14.281  14.597   6.594
   57CHOL   ROH  505   8.857   2.285   5.576
   57CHOL    R1  506   9.014   2.406   5.778
   57CHOL    R2  507   8.924   2.618   5.930
   57CHOL    R3  508   8.990   2.456   6.138
   57CHOL    R4  509   8.994   2.726   6.250
   57CHOL    R5  510   9.155   2.580   6.259
   57CHOL    C1  511   9.099   2.638   6.632
   57CHOL    C2  512   9.116   2.958   6.858
   58CHOL   ROH  513  13.409  14.016   5.222
   58CHOL    R1  514  13.416  13.928   5.491
   58CHOL    R2  515  13.638  13.961   5.652
   58CHOL    R3  516  13.459  14.081   5.818
   58CHOL    R4  517  13.657  13.959   5.997
   58CHOL    R5  518  13.441  13.931   6.004
   58CHOL    C1  519  13.501  14.070   6.354
   58CHOL    C2  520  13.265  14.207   6.677
   59CHOL   ROH  521   4.697   1.995   5.734
   59CHOL    R1  522   4.733   2.020   6.013
   59CHOL    R2  523   4.647   2.240   6.156
   59CHOL    R3  524   4.519   2.053   6.306
   59CHOL    R4  525   4.514   2.296   6.470
   59CHOL    R5  526   4.588   2.100   6.530
   59CHOL    C1  527   4.317   2.153   6.794
   59CHOL    C2  528   4.359   2.479   7.007
   60PNCE   AM1  529  14.362   1.080   7.992
   60PNCE   AM2  530  14.225   0.867   7.719
   60PNCE   T1A  531  14.744   0.838   7.838
   60PNCE   C2A  532  15.205   0.892   7.773
   60PNCE   C3A  533  15.380   1.280   7.934
   60PNCE   C1B  534  14.365   1.234   7.474
   60PNCE   C2B  535  14.571   1.626   7.514
   60PNCE   C3B  536  14.923   1.751   7.307
   60PNCE   D4B  537  15.145   1.537   6.992
   60PNCE   C5B  538  15.447   1.666   6.727
   60PNCE   C6B  539  15.476   1.853   6.315
   61PNCE   AM1  540  10.857   5.538   8.528
   61PNCE   AM2  541  10.931   5.888   8.477
   61PNCE   T1A  542  11.126   5.488   8.126
   61PNCE   C2A  543  11.319   5.338   7.733
   61PNCE   C3A  544  11.542   5.214   7.346
   61PNCE   C1B  545  11.316   5.995   8.210
   61PNCE   C2B  546  11.521   5.892   7.798
   61PNCE   C3B  547  11.659   5.717   7.397
   61PNCE   D4B  548  11.766   5.811   6.932
   61PNCE   C5B  549  12.167   6.058   6.814
   61PNCE   C6B  550  12.536   6.219   7.012
   62PNCE   AM1  551  11.050  12.556   8.915
   62PNCE   AM2  552  10.781  12.449   9.102
   62PNCE   T1A  553  10.906  12.391   8.493
   62PNCE   C2A  554  10.942  12.159   8.072
   62PNCE   C3A  555  11.271  12.023   7.732
   62PNCE   C1B  556  10.474  12.560   8.746
   62PNCE   C2B  557  10.198  12.895   8.532
   62PNCE   C3B  558   9.772  13.012   8.438
   62PNCE   D4B  559   9.398  13.126   8.220
   62PNCE   C5B  560   9.341  13.518   8.023
   62PNCE   C6B  561   9.318  13.914   7.812
   63PNCE   AM1  562   1.564   0.448   9.356
   63PNCE   AM2  563   1.257   0.297   9.214
   63PNCE   T1A  564   1.667   0.770   9.006
   63PNCE   C2A  565   1.910   0.899   8.611
   63PNCE   C3A  566   2.043   1.104   8.238
   63PNCE   C1B  567   1.458   0.148   8.818
   63PNCE   C2B  568   1.361   0.134   8.315
   63PNCE   C3B  569   1.235   0.232   7.826
   63PNCE   D4B  570   1.287   0.100   7.363
   63PNCE   C5B  571   1.586   0.130   7.018
   63PNCE   C6B  572   1.772   0.310   6.625
   64PNCE   AM1  573  10.392   2.171   8.834
   64PNCE   AM2  574  10.494   2.502   8.760
   64PNCE   T1A  575  10.347   2.062   8.363
   64PNCE   C2A  576  10.321   1.929   7.898
   64PNCE   C3A  577  10.305   1.555   7.606
   64PNCE   C1B  578  10.445   2.576   8.313
   64PNCE   C2B  579  10.243   2.445   7.931
   64PNCE   C3B  580  10.443   2.300   7.493
   64PNCE   D4B  581  10.482   1.879   7.257
   64PNCE   C5B  582  10.427   1.703   6.816
   64PNCE   C6B  583  10.277   1.825   6.387
   65PNCE   AM1  584   8.200   5.668   7.994
   65PNCE   AM2  585   8.351   5.400   8.072
   65PNCE   T1A  586   7.862   5.672   7.686
   65PNCE   C2A  587   7.657   5.702   7.250
   65PNCE   C3A  588   7.721   5.980   6.860
   65PNCE   C1B  589   8.254   5.269   7.638
   65PNCE   C2B  590   8.047   5.341   7.251
   65PNCE   C3B  591   8.126   5.480   6.821
   65PNCE   D4B  592   7.959   5.380   6.371
   65PNCE   C5B  593   7.851   4.960   6.250
   65PNCE   C6B  594   7.953   4.760   5.874
   66CHOL   ROH  595   8.807   1.829   8.584
   66CHOL    R1  596   8.811   1.806   8.302
   66CHOL    R2  597   8.759   1.568   8.171
   66CHOL    R3  598   8.573   1.718   8.040
   66CHOL    R4  599   8.610   1.480   7.872
   66CHOL    R5  600   8.626   1.688   7.808
   66CHOL    C1  601   8.348   1.569   7.575
   66CHOL    C2  602   8.198   1.315   7.259
   67PNCE   AM1  603   7.749   1.933   8.810
   67PNCE   AM2  604   7.856   1.609   8.766
   67PNCE   T1A  605   7.434   1.884   8.491
   67PNCE   C2A  606   7.201   1.784   8.118
   67PNCE   C3A  607   7.122   1.714   7.710
   67PNCE   C1B  608   7.753   1.496   8.322
   67PNCE   C2B  609   7.700   1.072   8.168
   67PNCE   C3B  610   7.639   0.791   7.802
   67PNCE   D4B  611   7.764   0.442   7.524
   67PNCE   C5B  612   7.512   0.232   7.218
   67PNCE   C6B  613   7.158   0.288   6.972
   68CHOL   ROH  614  12.099  13.217   5.121
   68CHOL    R1  615  12.085  13.111   5.384
   68CHOL    R2  616  12.299  13.119   5.558
   68CHOL    R3  617  12.120  13.240   5.722
   68CHOL    R4  618  12.323  13.130   5.903
   68CHOL    R5  619  12.108  13.097   5.914
   68CHOL    C1  620  12.169  13.250   6.258
   68CHOL    C2  621  12.011  13.306   6.615
   69CHOL   ROH  622   3.465   3.077   8.601
   69CHOL    R1  623   3.373   3.038   8.336
   69CHOL    R2  624   3.484   3.167   8.119
   69CHOL    R3  625   3.512   2.915   8.023
   69CHOL    R4  626   3.560   3.088   7.791
   69CHOL    R5  627   3.417   2.924   7.803
   69CHOL    C1  628   3.630   2.805   7.510
   69CHOL    C2  629   3.925   2.712   7.196
   70PNCE   AM1  630  13.772  15.312   9.052
   70PNCE   AM2  631  13.764  14.975   9.005
   70PNCE   T1A  632  13.566  15.377   8.638
   70PNCE   C2A  633  13.670  15.202   8.286
   70PNCE   C3A  634  13.817  14.745   8.306
   70PNCE   C1B  635  13.828  14.564   8.821
   70PNCE   C2B  636  13.853  14.222   8.504
   70PNCE   C3B  637  13.889  14.093   8.057
   70PNCE   D4B  638  13.819  14.121   7.584
   70PNCE   C5B  639  13.907  13.730   7.355
   70PNCE   C6B  640  14.008  13.316   7.509
   71PNCE   AM1  641   0.684   8.173   8.234
   71PNCE   AM2  642   0.398   8.252   7.983
   71PNCE   T1A  643   0.902   8.197   7.835
   71PNCE   C2A  644   0.996   8.273   7.436
   71PNCE   C3A  645   1.193   8.379   7.039
   71PNCE   C1B  646   0.508   8.504   7.612
   71PNCE   C2B  647   0.742   8.724   7.338
   71PNCE   C3B  648   0.678   8.711   6.907
   71PNCE   D4B  649   0.335   8.740   6.620
   71PNCE   C5B  650   0.175   9.114   6.698
   71PNCE   C6B  651   0.208   9.519   6.791
   72PNCE   AM1  652   3.221   4.035   8.290
   72PNCE   AM2  653   3.532   3.957   8.438
   72PNCE   T1A  654   3.163   4.032   7.824
   72PNCE   C2A  655   3.012   3.811   7.450
   72PNCE   C3A  656   2.825   3.701   7.038
   72PNCE   C1B  657   3.685   4.121   8.023
   72PNCE   C2B  658   4.030   4.173   7.726
   72PNCE   C3B  659   4.079   4.216   7.304
   72PNCE   D4B  660   3.827   4.223   6.954
   72PNCE   C5B  661   3.517   3.994   6.810
   72PNCE   C6B  662   3.141   4.063   6.927
   73CHOL   ROH  663   5.477   4.924   8.010
   73CHOL    R1  664   5.484   4.827   7.744
   73CHOL    R2  665   5.268   4.846   7.574
   73CHOL    R3  666   5.448   4.968   7.411
   73CHOL    R4  667   5.229   4.889   7.233
   73CHOL    R5  668   5.440   4.842   7.208
   73CHOL    C1  669   5.376   5.029   6.882
   73CHOL    C2  670   5.327   4.925   6.483
   74CHOL   ROH  671   1.136   7.918   4.565
   74CHOL    R1  672   1.067   8.046   4.808
   74CHOL    R2  673   0.958   7.910   5.022
   74CHOL    R3  674   1.165   8.022   5.157
   74CHOL    R4  675   1.023   7.862   5.358
   74CHOL    R5  676   1.074   8.073   5.373
   74CHOL    C1  677   1.256   7.939   5.680
   74CHOL    C2  678   1.316   7.759   6.044
   75PNCE   AM1  679   3.433  11.601   7.981
   75PNCE   AM2  680   3.581  11.933   8.074
   75PNCE   T1A  681   3.362  11.961   7.621
   75PNCE   C2A  682   3.454  12.377   7.401
   75PNCE   C3A  683   3.387  12.813   7.237
   75PNCE   C1B  684   3.825  11.726   7.707
   75PNCE   C2B  685   3.808  11.458   7.342
   75PNCE   C3B  686   3.639  11.209   7.034
   75PNCE   D4B  687   3.435  10.994   6.710
   75PNCE   C5B  688   3.003  11.113   6.671
   75PNCE   C6B  689   2.679  11.045   6.375
   76XCA    COO  690   2.624  12.031   4.206
   76XCA     C1  691   2.953  11.987   4.489
   76XCA     C2  692   2.947  12.097   4.905
   76XCA     C3  693   2.933  12.353   5.252
   76XCA     C4  694   2.894  12.555   5.654
   76XCA     C5  695   2.707  12.484   6.056
   76XCA     C6  696   2.552  12.286   6.400
   77CHOL   ROH  697  15.075   6.940   7.860
   77CHOL    R1  698  14.958   7.002   7.610
   77CHOL    R2  699  15.061   7.196   7.442
   77CHOL    R3  700  15.061   6.993   7.261
   77CHOL    R4  701  15.019   7.235   7.101
   77CHOL    R5  702  14.894   7.056   7.101
   77CHOL    C1  703  14.994   7.068   6.733
   77CHOL    C2  704  15.141   6.950   6.386
   78PNCE   AM1  705   6.538  14.276   9.160
   78PNCE   AM2  706   6.627  14.023   9.352
   78PNCE   T1A  707   6.780  14.086   8.830
   78PNCE   C2A  708   6.954  14.167   8.408
   78PNCE   C3A  709   7.303  14.474   8.323
   78PNCE   C1B  710   6.992  13.809   9.210
   78PNCE   C2B  711   7.440  13.707   9.280
   78PNCE   C3B  712   7.691  13.413   9.060
   78PNCE   D4B  713   8.054  13.228   8.858
   78PNCE   C5B  714   8.104  13.443   8.475
   78PNCE   C6B  715   8.420  13.496   8.159
   79XCA    COO  716   0.284   0.193   4.820
   79XCA     C1  717   0.396   0.222   5.264
   79XCA     C2  718   0.177   0.323   5.651
   79XCA     C3  719  15.662   0.596   5.781
   79XCA     C4  720  15.406   0.859   6.082
   79XCA     C5  721  15.125   1.182   6.075
   79XCA     C6  722  14.811   1.332   5.772
   80PNCE   AM1  723  10.361   5.611   8.545
   80PNCE   AM2  724  10.428   5.896   8.385
   80PNCE   T1A  725  10.578   5.472   8.088
   80PNCE   C2A  726  10.783   5.355   7.658
   80PNCE   C3A  727  10.961   5.360   7.204
   80PNCE   C1B  728  10.385   5.944   7.933
   80PNCE   C2B  729  10.571   5.827   7.551
   80PNCE   C3B  730  10.644   5.817   7.129
   80PNCE   D4B  731  10.861   5.897   6.744
   80PNCE   C5B  732  10.849   6.288   6.475
   80PNCE   C6B  733  10.767   6.583   6.101
   81XCA    COO  734  13.683   8.940   8.248
   81XCA     C1  735  13.445   8.897   7.821
   81XCA     C2  736  13.297   8.823   7.393
   81XCA     C3  737  13.398   8.761   6.950
   81XCA     C4  738  13.696   8.481   6.779
   81XCA     C5  739  13.656   8.280   6.398
   81XCA     C6  740  13.308   8.272   6.087
   82CHOL   ROH  741   2.726   2.448   7.097
   82CHOL    R1  742   2.479   2.334   7.174
   82CHOL    R2  743   2.396   2.324   7.437
   82CHOL    R3  744   2.175   2.447   7.338
   82CHOL    R4  745   2.085   2.326   7.589
   82CHOL    R5  746   1.994   2.300   7.394
   82CHOL    C1  747   1.697   2.443   7.585
   82CHOL    C2  748   1.475   2.629   7.887
   83CHOL   ROH  749  12.240  13.701   9.077
   83CHOL    R1  750  12.337  13.792   8.827
   83CHOL    R2  751  12.517  13.648   8.675
   83CHOL    R3  752  12.328  13.677   8.482
   83CHOL    R4  753  12.583  13.667   8.337
   83CHOL    R5  754  12.430  13.822   8.321
   83CHOL    C1  755  12.445  13.706   7.958
   83CHOL    C2  756  12.509  13.641   7.545
   84PNCE   AM1  757  11.229   8.236   8.448
   84PNCE   AM2  758  11.254   7.866   8.330
   84PNCE   T1A  759  10.860   8.431   8.250
   84PNCE   C2A  760  10.520   8.627   8.002
   84PNCE   C3A  761  10.242   8.417   7.715
   84PNCE   C1B  762  11.610   7.967   8.036
   84PNCE   C2B  763  11.774   7.924   7.604
   84PNCE   C3B  764  12.020   8.034   7.266
   84PNCE   D4B  765  12.442   7.948   7.132
   84PNCE   C5B  766  12.578   8.169   6.765
   84PNCE   C6B  767  12.398   8.223   6.369
   85PNCE   AM1  768  12.897   4.653   8.343
   85PNCE   AM2  769  12.980   4.376   8.145
   85PNCE   T1A  770  12.559   4.716   7.968
   85PNCE   C2A  771  12.442   4.574   7.502
   85PNCE   C3A  772  12.619   4.533   7.060
   85PNCE   C1B  773  12.907   4.359   7.674
   85PNCE   C2B  774  12.936   4.143   7.247
   85PNCE   C3B  775  12.779   4.090   6.800
   85PNCE   D4B  776  12.385   3.978   6.552
   85PNCE   C5B  777  11.976   3.989   6.775
   85PNCE   C6B  778  11.603   4.149   6.977
   86CHOL   ROH  779  13.149  13.615   7.147
   86CHOL    R1  780  13.000  13.650   7.385
   86CHOL    R2  781  13.001  13.465   7.590
   86CHOL    R3  782  13.072  13.680   7.740
   86CHOL    R4  783  12.962  13.488   7.932
   86CHOL    R5  784  12.900  13.696   7.906
   86CHOL    C1  785  13.005  13.704   8.273
   86CHOL    C2  786  13.004  13.775   8.619
   87PNCE   AM1  787  10.044   0.870   8.875
   87PNCE   AM2  788  10.345   1.072   8.802
   87PNCE   T1A  789   9.772   0.681   8.557
   87PNCE   C2A  790   9.395   0.526   8.327
   87PNCE   C3A  791   8.991   0.674   8.086
   87PNCE   C1B  792  10.389   0.779   8.436
   87PNCE   C2B  793  10.117   0.544   8.156
   87PNCE   C3B  794   9.725   0.454   7.905
   87PNCE   D4B  795   9.317   0.455   7.674
   87PNCE   C5B  796   9.079   0.853   7.587
   87PNCE   C6B  797   9.019   1.187   7.907
   88XCA    COO  798   3.366   6.003   4.956
   88XCA     C1  799   3.462   6.192   5.382
   88XCA     C2  800   3.382   6.332   5.800
   88XCA     C3  801   3.547   6.294   6.210
   88XCA     C4  802   3.722   6.502   6.569
   88XCA     C5  803   4.076   6.563   6.854
   88XCA     C6  804   4.159   6.549   7.322
   89CHOL   ROH  805   2.540   7.683   4.326
   89CHOL    R1  806   2.636   7.571   4.567
   89CHOL    R2  807   2.866   7.661   4.692
   89CHOL    R3  808   2.700   7.687   4.906
   89CHOL    R4  809   2.969   7.670   5.021
   89CHOL    R5  810   2.798   7.546   5.073
   89CHOL    C1  811   2.875   7.699   5.414
   89CHOL    C2  812   2.812   7.805   5.792
   90CHOL   ROH  813   4.951   7.343   7.657
   90CHOL    R1  814   5.041   7.205   7.427
   90CHOL    R2  815   4.871   7.066   7.261
   90CHOL    R3  816   4.983   7.222   7.069
   90CHOL    R4  817   4.881   6.988   6.924
   90CHOL    R5  818   5.085   7.066   6.917
   90CHOL    C1  819   4.993   7.089   6.548
   90CHOL    C2  820   5.157   7.184   6.161
   91CHOL   ROH  821   9.348  12.893   7.799
   91CHOL    R1  822   9.112  13.032   7.729
   91CHOL    R2  823   9.114  13.260   7.573
   91CHOL    R3  824   8.938  13.119   7.422
   91CHOL    R4  825   8.876  13.400   7.366
   91CHOL    R5  826   8.735  13.247   7.431
   91CHOL    C1  827   8.572  13.350   7.102
   91CHOL    C2  828   8.201  13.484   6.960
   92PNCE   AM1  829  10.993  10.564   8.304
   92PNCE   AM2  830  11.107  10.481   8.651
   92PNCE   T1A  831  10.867  10.358   7.913
   92PNCE   C2A  832  10.932  10.155   7.521
   92PNCE   C3A  833  11.223   9.863   7.329
   92PNCE   C1B  834  11.443  10.730   8.378
   92PNCE   C2B  835  11.325  10.937   7.989
   92PNCE   C3B  836  11.115  11.255   7.821
   92PNCE   D4B  837  10.987  11.668   7.957
   92PNCE   C5B  838  10.781  11.946   7.611
   92PNCE   C6B  839  10.604  12.265   7.294
   93CHOL   ROH  840   9.135   5.755   7.901
   93CHOL    R1  841   9.231   5.630   7.665
   93CHOL    R2  842   9.070   5.586   7.445
   93CHOL    R3  843   9.268   5.720   7.315
   93CHOL    R4  844   9.156   5.539   7.113
   93CHOL    R5  845   9.366   5.556   7.170
   93CHOL    C1  846   9.391   5.637   6.798
   93CHOL    C2  847   9.421   5.428   6.426
   94XCA    COO  848  12.593  10.128   8.365
   94XCA     C1  849  12.754  10.008   7.942
   94XCA     C2  850  12.982   9.963   7.576
   94XCA     C3  851  13.039  10.105   7.169
   94XCA     C4  852  12.945  10.142   6.760
   94XCA     C5  853  13.135  10.020   6.413
   94XCA     C6  854  13.377  10.119   6.063
   95CHOL   ROH  855  11.495   5.912   4.790
   95CHOL    R1  856  11.435   6.022   5.044
   95CHOL    R2  857  11.220   6.190   5.086
   95CHOL    R3  858  11.158   6.009   5.279
   95CHOL    R4  859  10.988   6.241   5.337
   95CHOL    R5  860  11.123   6.141   5.476
   95CHOL    C1  861  10.794   6.101   5.664
   95CHOL    C2  862  10.577   6.135   5.967
   96XCA    COO  863  14.334   3.685   8.297
   96XCA     C1  864  14.137   3.765   7.893
   96XCA     C2  865  13.685   3.852   7.859
   96XCA     C3  866  13.352   4.022   7.591
   96XCA     C4  867  13.444   4.030   7.143
   96XCA     C5  868  13.550   3.986   6.714
   96XCA     C6  869  13.854   3.937   6.395
   97PNCE   AM1  870  13.858  13.276   9.203
   97PNCE   AM2  871  14.137  13.072   9.064
   97PNCE   T1A  872  13.880  13.626   8.886
   97PNCE   C2A  873  13.902  13.676   8.434
   97PNCE   C3A  874  13.898  13.515   7.988
   97PNCE   C1B  875  13.934  13.181   8.646
   97PNCE   C2B  876  13.794  13.028   8.245
   97PNCE   C3B  877  13.409  12.913   8.093
   97PNCE   D4B  878  13.306  12.663   7.750
   97PNCE   C5B  879  12.959  12.555   7.500
   97PNCE   C6B  880  12.922  12.290   7.095
   98PNCE   AM1  881  11.168   6.541   8.150
   98PNCE   AM2  882  11.087   6.811   7.925
   98PNCE   T1A  883  11.151   6.294   7.755
   98PNCE   C2A  884  10.992   6.216   7.323
   98PNCE   C3A  885  11.000   6.487   6.946
   98PNCE   C1B  886  10.638   6.900   7.827
   98PNCE   C2B  887  10.247   6.843   7.589
   98PNCE   C3B  888   9.796   6.736   7.532
   98PNCE   D4B  889   9.634   6.367   7.404
   98PNCE   C5B  890   9.932   6.343   7.093
   98PNCE   C6B  891  10.015   6.462   6.735
   99PNCE   AM1  892   7.799   0.628   9.545
   99PNCE   AM2  893   7.519   0.433   9.395
   99PNCE   T1A  894   7.782   0.891   9.129
   99PNCE   C2A  895   7.529   1.173   8.804
   99PNCE   C3A  896   7.256   1.350   8.452
   99PNCE   C1B  897   7.495   0.309   8.936
   99PNCE   C2B  898   7.333   0.054   8.600
   99PNCE   C3B  899   7.444  15.720   8.212
   99PNCE   D4B  900   7.683  15.543   7.899
   99PNCE   C5B  901   7.491  15.739   7.591
   99PNCE   C6B  902   7.094  15.750   7.337
  100CHOL   ROH  903   1.298   0.423   5.351
  100CHOL    R1  904   1.133   0.457   5.579
  100CHOL    R2  905   1.236   0.500   5.832
  100CHOL    R3  906   1.074   0.718   5.826
  100CHOL    R4  907   1.150   0.690   6.107
  100CHOL    R5  908   0.947   0.704   6.029
  100CHOL    C1  909   0.948   1.006   6.262
  100CHOL    C2  910   1.052   1.013   6.684
  101XCA    COO  911   1.262   6.878   7.795
  101XCA     C1  912   1.257   6.901   7.312
  101XCA     C2  913   1.017   6.910   6.905
  101XCA     C3  914   1.058   6.663   6.502
  101XCA     C4  915   1.283   6.462   6.131
  101XCA     C5  916   1.444   6.054   6.021
  101XCA     C6  917   1.226   5.676   5.974
  102PNCE   AM1  918   6.278  12.181   8.874
  102PNCE   AM2  919   5.963  12.093   8.677
  102PNCE   T1A  920   6.440  12.228   8.465
  102PNCE   C2A  921   6.697  12.385   8.094
  102PNCE   C3A  922   7.194  12.457   8.098
  102PNCE   C1B  923   5.940  11.993   8.222
  102PNCE   C2B  924   6.032  11.996   7.792
  102PNCE   C3B  925   6.235  12.024   7.408
  102PNCE   D4B  926   6.641  12.066   7.238
  102PNCE   C5B  927   6.811  12.458   7.088
  102PNCE   C6B  928   6.888  12.860   6.894
  103PNCE   AM1  929  15.396  10.344   8.662
  103PNCE   AM2  930  15.068  10.504   8.626
  103PNCE   T1A  931  15.698  10.616   8.447
  103PNCE   C2A  932   0.250  10.806   8.340
  103PNCE   C3A  933   0.638  10.613   8.303
  103PNCE   C1B  934  15.285  10.672   8.184
  103PNCE   C2B  935  15.380  10.717   7.693
  103PNCE   C3B  936  15.446  11.051   7.342
  103PNCE   D4B  937  15.321  10.999   6.882
  103PNCE   C5B  938  15.521  11.216   6.534
  103PNCE   C6B  939  15.690  11.645   6.502
  104PNCE   AM1  940  13.814   5.222   8.282
  104PNCE   AM2  941  14.198   5.143   8.308
  104PNCE   T1A  942  13.823   5.322   7.831
  104PNCE   C2A  943  13.957   5.417   7.400
  104PNCE   C3A  944  13.974   5.312   6.961
  104PNCE   C1B  945  14.275   5.089   7.839
  104PNCE   C2B  946  14.470   5.261   7.458
  104PNCE   C3B  947  14.404   5.647   7.210
  104PNCE   D4B  948  14.039   5.920   7.111
  104PNCE   C5B  949  13.938   6.214   7.440
  104PNCE   C6B  950  14.146   6.248   7.832
  105CHOL   ROH  951   7.542  11.468   8.833
  105CHOL    R1  952   7.528  11.704   8.676
  105CHOL    R2  953   7.724  11.774   8.495
  105CHOL    R3  954   7.515  11.785   8.321
  105CHOL    R4  955   7.705  11.985   8.221
  105CHOL    R5  956   7.495  12.018   8.268
  105CHOL    C1  957   7.498  12.118   7.900
  105CHOL    C2  958   7.430  12.429   7.640
  106PNCE   AM1  959   4.112   4.591   8.807
  106PNCE   AM2  960   3.774   4.658   8.918
  106PNCE   T1A  961   4.365   4.712   8.441
  106PNCE   C2A  962   4.508   5.037   8.149
  106PNCE   C3A  963   4.829   5.338   8.197
  106PNCE   C1B  964   3.488   4.814   8.605
  106PNCE   C2B  965   3.140   4.994   8.402
  106PNCE   C3B  966   2.776   4.976   8.100
  106PNCE   D4B  967   2.507   4.757   7.801
  106PNCE   C5B  968   2.270   4.960   7.458
  106PNCE   C6B  969   2.433   4.919   7.026
  107PNCE   AM1  970  14.091   1.308   8.400
  107PNCE   AM2  971  14.411   1.464   8.466
  107PNCE   T1A  972  13.753   1.505   8.178
  107PNCE   C2A  973  13.557   1.669   7.813
  107PNCE   C3A  974  13.494   1.624   7.365
  107PNCE   C1B  975  14.299   1.629   8.030
  107PNCE   C2B  976  14.120   1.838   7.661
  107PNCE   C3B  977  13.919   1.878   7.255
  107PNCE   D4B  978  14.029   2.057   6.859
  107PNCE   C5B  979  14.279   1.870   6.530
  107PNCE   C6B  980  14.556   1.788   6.148
  108PNCE   AM1  981  13.834   7.915   8.148
  108PNCE   AM2  982  13.537   7.922   8.325
  108PNCE   T1A  983  13.930   8.062   7.737
  108PNCE   C2A  984  14.230   8.249   7.485
  108PNCE   C3A  985  14.589   8.512   7.492
  108PNCE   C1B  986  13.408   8.248   7.994
  108PNCE   C2B  987  13.549   8.407   7.612
  108PNCE   C3B  988  13.775   8.631   7.290
  108PNCE   D4B  989  13.846   9.026   7.092
  108PNCE   C5B  990  13.996   9.259   7.413
  108PNCE   C6B  991  13.633   9.376   7.657
  109CHOL   ROH  992  12.016   7.181   4.816
  109CHOL    R1  993  12.089   7.264   5.077
  109CHOL    R2  994  11.923   7.232   5.295
  109CHOL    R3  995  12.139   7.105   5.401
  109CHOL    R4  996  11.982   7.191   5.633
  109CHOL    R5  997  12.192   7.232   5.596
  109CHOL    C1  998  12.218   7.047   5.929
  109CHOL    C2  999  12.410   6.740   6.114
  110CHOL   ROH 1000  13.559   9.493   4.053
  110CHOL    R1 1001  13.636   9.373   4.297
  110CHOL    R2 1002  13.752   9.516   4.503
  110CHOL    R3 1003  13.548   9.409   4.649
  110CHOL    R4 1004  13.744   9.498   4.848
  110CHOL    R5 1005  13.657   9.298   4.831
  110CHOL    C1 1006  13.549   9.387   5.186
  110CHOL    C2 1007  13.754   9.524   5.493
  111PNCE   AM1 1008   4.065   4.248   8.410
  111PNCE   AM2 1009   3.793   4.439   8.443
  111PNCE   T1A 1010   4.386   4.326   8.088
  111PNCE   C2A 1011   4.548   4.282   7.668
  111PNCE   C3A 1012   4.608   4.236   7.233
  111PNCE   C1B 1013   3.543   4.606   8.148
  111PNCE   C2B 1014   3.515   4.572   7.746
  111PNCE   C3B 1015   3.574   4.323   7.423
  111PNCE   D4B 1016   3.519   3.934   7.354
  111PNCE   C5B 1017   3.325   3.600   7.121
  111PNCE   C6B 1018   3.245   3.522   6.693
  112CHOL   ROH 1019   8.423  12.858   9.234
  112CHOL    R1 1020   8.464  13.002   8.994
  112CHOL    R2 1021   8.631  12.913   8.793
  112CHOL    R3 1022   8.409  12.947   8.639
  112CHOL    R4 1023   8.634  12.964   8.451
  112CHOL    R5 1024   8.475  13.111   8.477
  112CHOL    C1 1025   8.428  13.027   8.108
  112CHOL    C2 1026   8.680  13.082   7.862
  113CHOL   ROH 1027   6.955   0.744   7.058
  113CHOL    R1 1028   6.857   0.872   7.291
  113CHOL    R2 1029   6.590   0.927   7.329
  113CHOL    R3 1030   6.627   0.790   7.561
  113CHOL    R4 1031   6.406   0.971   7.618
  113CHOL    R5 1032   6.589   0.951   7.733
  113CHOL    C1 1033   6.334   0.868   8.004
  113CHOL    C2 1034   6.150   1.171   8.245
  114XCA    COO 1035  15.313  15.271   9.524
  114XCA     C1 1036  15.170  15.171   9.091
  114XCA     C2 1037  15.350  15.039   8.705
  114XCA     C3 1038  15.754  15.080   8.520
  114XCA     C4 1039   0.246  15.219   8.229
  114XCA     C5 1040   0.416  14.949   7.890
  114XCA     C6 1041   0.429  15.007   7.476
  115XCA    COO 1042   4.255   0.846   8.821
  115XCA     C1 1043   4.232   1.183   8.466
  115XCA     C2 1044   4.013   1.204   8.051
  115XCA     C3 1045   4.087   1.343   7.625
  115XCA     C4 1046   4.038   1.213   7.187
  115XCA     C5 1047   4.130   1.187   6.726
  115XCA     C6 1048   4.214   1.192   6.291
  116XCA    COO 1049   7.894   9.475   4.396
  116XCA     C1 1050   7.729   9.447   4.855
  116XCA     C2 1051   7.657   9.386   5.304
  116XCA     C3 1052   7.448   9.337   5.718
  116XCA     C4 1053   7.282   9.122   6.095
  116XCA     C5 1054   7.270   9.130   6.566
  116XCA     C6 1055   7.350   8.801   6.871
  117CHOL   ROH 1056  13.295  13.230   9.014
  117CHOL    R1 1057  13.289  13.356   8.761
  117CHOL    R2 1058  13.508  13.362   8.593
  117CHOL    R3 1059  13.334  13.254   8.414
  117CHOL    R4 1060  13.525  13.403   8.250
  117CHOL    R5 1061  13.309  13.422   8.246
  117CHOL    C1 1062  13.372  13.325   7.883
  117CHOL    C2 1063  13.480  13.496   7.527
  118CHOL   ROH 1064   0.782   2.328   5.112
  118CHOL    R1 1065   0.658   2.456   5.332
  118CHOL    R2 1066   0.553   2.316   5.546
  118CHOL    R3 1067   0.714   2.479   5.691
  118CHOL    R4 1068   0.509   2.390   5.880
  118CHOL    R5 1069   0.564   2.596   5.837
  118CHOL    C1 1070   0.634   2.586   6.212
  118CHOL    C2 1071   0.429   2.497   6.600
  119CHOL   ROH 1072   7.272   1.086   7.141
  119CHOL    R1 1073   7.175   1.193   7.385
  119CHOL    R2 1074   6.985   1.392   7.394
  119CHOL    R3 1075   6.854   1.215   7.554
  119CHOL    R4 1076   6.719   1.471   7.601
  119CHOL    R5 1077   6.804   1.340   7.752
  119CHOL    C1 1078   6.442   1.351   7.871
  119CHOL    C2 1079   6.055   1.246   7.749
  120PNCE   AM1 1080   7.811  15.720   9.440
  120PNCE   AM2 1081   8.131  15.577   9.539
  120PNCE   T1A 1082   7.853  15.324   9.160
  120PNCE   C2A 1083   7.849  14.934   8.921
  120PNCE   C3A 1084   8.091  14.525   8.969
  120PNCE   C1B 1085   8.233  15.685   9.067
  120PNCE   C2B 1086   8.259  15.707   8.579
  120PNCE   C3B 1087   8.105  15.690   8.169
  120PNCE   D4B 1088   7.952   0.131   7.869
  120PNCE   C5B 1089   8.155   0.517   7.829
  120PNCE   C6B 1090   8.101   0.838   7.512
  121CHOL   ROH 1091   3.171  13.767   4.362
  121CHOL    R1 1092   3.437  13.671   4.362
  121CHOL    R2 1093   3.593  13.665   4.590
  121CHOL    R3 1094   3.621  13.403   4.526
  121CHOL    R4 1095   3.809  13.446   4.746
  121CHOL    R5 1096   3.855  13.360   4.551
  121CHOL    C1 1097   3.962  13.071   4.776
  121CHOL    C2 1098   3.832  12.694   4.679
  122XCA    COO 1099   4.602  13.729   8.235
  122XCA     C1 1100   4.924  13.673   7.889
  122XCA     C2 1101   5.100  13.730   7.460
  122XCA     C3 1102   5.016  14.030   7.155
  122XCA     C4 1103   4.653  14.201   7.016
  122XCA     C5 1104   4.321  14.457   6.972
  122XCA     C6 1105   4.164  14.559   6.638
  123XCA    COO 1106  13.376   4.614   5.020
  123XCA     C1 1107  13.025   4.538   5.332
  123XCA     C2 1108  12.983   4.204   5.656
  123XCA     C3 1109  13.260   3.838   5.682
  123XCA     C4 1110  13.472   3.492   5.858
  123XCA     C5 1111  13.897   3.522   6.040
  123XCA     C6 1112  14.119   3.362   6.389
  124PNCE   AM1 1113  15.490   3.078   9.153
  124PNCE   AM2 1114  15.810   2.968   9.024
  124PNCE   T1A 1115  15.587   3.355   8.780
  124PNCE   C2A 1116  15.381   3.582   8.449
  124PNCE   C3A 1117  15.062   3.648   8.131
  124PNCE   C1B 1118   0.128   2.948   8.596
  124PNCE   C2B 1119   0.053   2.665   8.276
  124PNCE   C3B 1120   0.068   2.589   7.834
  124PNCE   D4B 1121   0.187   2.698   7.419
  124PNCE   C5B 1122   0.263   2.322   7.207
  124PNCE   C6B 1123   0.234   2.054   6.848
  125CHOL   ROH 1124   8.712   4.676   5.321
  125CHOL    R1 1125   8.794   4.562   5.567
  125CHOL    R2 1126   9.020   4.406   5.590
  125CHOL    R3 1127   9.084   4.584   5.785
  125CHOL    R4 1128   9.259   4.354   5.834
  125CHOL    R5 1129   9.125   4.449   5.978
  125CHOL    C1 1130   9.458   4.491   6.160
  125CHOL    C2 1131   9.801   4.306   6.236
  126CHOL   ROH 1132   4.351   9.663   8.138
  126CHOL    R1 1133   4.533   9.582   7.937
  126CHOL    R2 1134   4.476   9.602   7.668
  126CHOL    R3 1135   4.710   9.741   7.661
  126CHOL    R4 1136   4.664   9.660   7.383
  126CHOL    R5 1137   4.844   9.624   7.501
  126CHOL    C1 1138   4.993   9.823   7.212
  126CHOL    C2 1139   5.125  10.081   6.943
  127CHOL   ROH 1140  14.513   4.688   8.330
  127CHOL    R1 1141  14.389   4.528   8.132
  127CHOL    R2 1142  14.234   4.634   7.930
  127CHOL    R3 1143  14.405   4.495   7.770
  127CHOL    R4 1144  14.171   4.549   7.601
  127CHOL    R5 1145  14.261   4.354   7.639
  127CHOL    C1 1146  14.294   4.369   7.259
  127CHOL    C2 1147  13.916   4.422   7.118
  128PNCE   AM1 1148  11.905   8.888   8.038
  128PNCE   AM2 1149  12.069   9.232   8.077
  128PNCE   T1A 1150  11.505   8.974   7.790
  128PNCE   C2A 1151  11.241   8.841   7.428
  128PNCE   C3A 1152  10.937   8.574   7.248
  128PNCE   C1B 1153  12.193   9.153   7.629
  128PNCE   C2B 1154  12.195   9.000   7.205
  128PNCE   C3B 1155  12.145   8.559   7.079
  128PNCE   D4B 1156  12.054   8.304   6.735
  128PNCE   C5B 1157  12.061   7.847   6.786
  128PNCE   C6B 1158  12.067   7.405   6.618
  129PNCE   AM1 1159  11.820  12.908   8.832
  129PNCE   AM2 1160  11.522  12.738   8.846
  129PNCE   T1A 1161  12.148  12.821   8.476
  129PNCE   C2A 1162  12.147  12.881   8.006
  129PNCE   C3A 1163  12.166  13.024   7.536
  129PNCE   C1B 1164  11.384  12.534   8.456
  129PNCE   C2B 1165  11.416  12.390   8.049
  129PNCE   C3B 1166  11.576  12.466   7.632
  129PNCE   D4B 1167  11.617  12.237   7.236
  129PNCE   C5B 1168  11.688  12.436   6.807
  129PNCE   C6B 1169  11.884  12.291   6.404
  130XCA    COO 1170   9.268   2.574   5.387
  130XCA     C1 1171   9.318   2.837   5.778
  130XCA     C2 1172   9.451   2.978   6.169
  130XCA     C3 1173   9.606   3.101   6.584
  130XCA     C4 1174   9.564   3.041   7.042
  130XCA     C5 1175   9.205   3.134   7.366
  130XCA     C6 1176   8.825   3.371   7.570
  131PNCE   AM1 1177   8.477   9.773   8.576
  131PNCE   AM2 1178   8.292  10.027   8.436
  131PNCE   T1A 1179   8.575   9.723   8.135
  131PNCE   C2A 1180   8.397   9.746   7.753
  131PNCE   C3A 1181   8.420   9.785   7.329
  131PNCE   C1B 1182   8.250  10.177   8.027
  131PNCE   C2B 1183   8.278  10.285   7.592
  131PNCE   C3B 1184   8.343  10.335   7.178
  131PNCE   D4B 1185   8.545  10.453   6.807
  131PNCE   C5B 1186   8.887  10.150   6.698
  131PNCE   C6B 1187   8.854   9.724   6.545
  132PNCE   AM1 1188   4.334  15.684   8.703
  132PNCE   AM2 1189   4.668  15.722   8.823
  132PNCE   T1A 1190   4.539  15.620   8.272
  132PNCE   C2A 1191   4.787  15.726   7.890
  132PNCE   C3A 1192   4.937   0.023   7.467
  132PNCE   C1B 1193   4.961  15.822   8.489
  132PNCE   C2B 1194   5.148   0.179   8.129
  132PNCE   C3B 1195   5.356   0.111   7.757
  132PNCE   D4B 1196   5.458   0.027   7.335
  132PNCE   C5B 1197   5.154  15.744   6.982
  132PNCE   C6B 1198   5.245  15.448   6.608
  133PNCE   AM1 1199  15.127  12.249   9.397
  133PNCE   AM2 1200  14.792  12.327   9.297
  133PNCE   T1A 1201  15.312  12.496   9.053
  133PNCE   C2A 1202  15.587  12.804   8.914
  133PNCE   C3A 1203  15.408  13.129   8.699
  133PNCE   C1B 1204  14.848  12.357   8.840
  133PNCE   C2B 1205  14.697  12.199   8.433
  133PNCE   C3B 1206  14.911  12.127   8.017
  133PNCE   D4B 1207  15.209  12.368   7.754
  133PNCE   C5B 1208  15.127  12.773   7.581
  133PNCE   C6B 1209  14.985  13.201   7.666
  134CHOL   ROH 1210   9.830   2.157   5.216
  134CHOL    R1 1211   9.910   2.017   5.449
  134CHOL    R2 1212  10.009   2.145   5.673
  134CHOL    R3 1213   9.812   2.007   5.799
  134CHOL    R4 1214   9.993   2.090   6.014
  134CHOL    R5 1215   9.924   1.887   5.973
  134CHOL    C1 1216   9.798   1.929   6.331
  134CHOL    C2 1217   9.858   1.786   6.684
  135CHOL   ROH 1218   2.195   6.229   4.632
  135CHOL    R1 1219   2.296   6.457   4.766
  135CHOL    R2 1220   2.157   6.695   4.780
  135CHOL    R3 1221   2.195   6.664   5.047
  135CHOL    R4 1222   2.141   6.950   5.013
  135CHOL    R5 1223   2.312   6.862   5.114
  135CHOL    C1 1224   2.167   7.069   5.400
  135CHOL    C2 1225   2.139   7.391   5.651
  136CHOL   ROH 1226   0.680   9.679   7.951
  136CHOL    R1 1227   0.644   9.474   7.759
  136CHOL    R2 1228   0.531   9.520   7.511
  136CHOL    R3 1229   0.759   9.405   7.421
  136CHOL    R4 1230   0.568   9.371   7.202
  136CHOL    R5 1231   0.685   9.214   7.297
  136CHOL    C1 1232   0.804   9.176   6.937
  136CHOL    C2 1233   0.695   9.135   6.541
  137XCA    COO 1234   5.837  11.575   8.699
  137XCA     C1 1235   6.261  11.686   8.486
  137XCA     C2 1236   6.471  11.854   8.131
  137XCA     C3 1237   6.604  11.996   7.759
  137XCA     C4 1238   6.925  12.283   7.620
  137XCA     C5 1239   7.192  12.177   7.261
  137XCA     C6 1240   7.307  12.406   6.850
  138CHOL   ROH 1241  10.158   7.816   6.554
  138CHOL    R1 1242  10.134   7.625   6.347
  138CHOL    R2 1243  10.353   7.517   6.218
  138CHOL    R3 1244  10.238   7.281   6.290
  138CHOL    R4 1245  10.396   7.217   6.052
  138CHOL    R5 1246  10.185   7.175   6.082
  138CHOL    C1 1247  10.313   6.821   6.022
  138CHOL    C2 1248  10.321   6.540   5.796
  139PNCE   AM1 1249   9.850  15.066   9.644
  139PNCE   AM2 1250   9.903  14.745   9.799
  139PNCE   T1A 1251   9.959  14.857   9.273
  139PNCE   C2A 1252  10.134  14.566   8.994
  139PNCE   C3A 1253  10.324  14.391   8.638
  139PNCE   C1B 1254  10.046  14.403   9.498
  139PNCE   C2B 1255  10.285  14.133   9.219
  139PNCE   C3B 1256  10.562  13.925   8.934
  139PNCE   D4B 1257  10.585  13.927   8.495
  139PNCE   C5B 1258  10.772  13.657   8.237
  139PNCE   C6B 1259  11.060  13.677   7.901
  140PNCE   AM1 1260   4.080  15.278   8.483
  140PNCE   AM2 1261   3.773  15.437   8.572
  140PNCE   T1A 1262   4.222  15.264   8.056
  140PNCE   C2A 1263   4.481  15.346   7.691
  140PNCE   C3A 1264   4.722  15.416   7.279
  140PNCE   C1B 1265   3.696  15.559   8.087
  140PNCE   C2B 1266   3.433  15.808   7.790
  140PNCE   C3B 1267   3.153   0.129   7.489
  140PNCE   D4B 1268   3.219   0.201   7.051
  140PNCE   C5B 1269   3.662   0.352   6.978
  140PNCE   C6B 1270   3.919   0.699   6.789
  141CHOL   ROH 1271   2.884  15.459   6.426
  141CHOL    R1 1272   3.007  15.711   6.387
  141CHOL    R2 1273   3.134   0.018   6.590
  141CHOL    R3 1274   3.342   0.020   6.415
  141CHOL    R4 1275   3.409   0.226   6.612
  141CHOL    R5 1276   3.402   0.251   6.396
  141CHOL    C1 1277   3.765   0.349   6.460
  141CHOL    C2 1278   3.985   0.695   6.291
  142CHOL   ROH 1279  13.527  11.068   7.387
  142CHOL    R1 1280  13.281  11.200   7.341
  142CHOL    R2 1281  13.264  11.447   7.220
  142CHOL    R3 1282  13.094  11.318   7.052
  142CHOL    R4 1283  13.001  11.596   7.053
  142CHOL    R5 1284  12.881  11.419   7.094
  142CHOL    C1 1285  12.687  11.562   6.798
  142CHOL    C2 1286  12.320  11.616   6.625
  143CHOL   ROH 1287  15.354   2.690   8.250
  143CHOL    R1 1288  15.501   2.777   8.024
  143CHOL    R2 1289  15.438   2.700   7.767
  143CHOL    R3 1290  15.432   2.968   7.721
  143CHOL    R4 1291  15.517   2.850   7.466
  143CHOL    R5 1292  15.620   3.007   7.577
  143CHOL    C1 1293  15.558   3.189   7.248
  143CHOL    C2 1294  15.802   3.348   6.966
  144PNCE   AM1 1295   0.695   4.426   8.663
  144PNCE   AM2 1296   0.915   4.173   8.824
  144PNCE   T1A 1297   0.445   4.079   8.459
  144PNCE   C2A 1298   0.360   3.801   8.122
  144PNCE   C3A 1299   0.419   3.729   7.697
  144PNCE   C1B 1300   0.977   3.935   8.418
  144PNCE   C2B 1301   0.805   3.550   8.213
  144PNCE   C3B 1302   0.729   3.327   7.805
  144PNCE   D4B 1303   0.804   3.512   7.386
  144PNCE   C5B 1304   0.759   3.981   7.388
  144PNCE   C6B 1305   0.868   4.425   7.540
  145PNCE   AM1 1306   2.318   2.084   9.161
  145PNCE   AM2 1307   2.527   1.965   8.919
  145PNCE   T1A 1308   1.990   2.147   8.837
  145PNCE   C2A 1309   1.607   2.218   8.594
  145PNCE   C3A 1310   1.353   2.204   8.202
  145PNCE   C1B 1311   2.618   1.711   8.557
  145PNCE   C2B 1312   2.573   1.642   8.109
  145PNCE   C3B 1313   2.608   1.792   7.683
  145PNCE   D4B 1314   2.381   1.880   7.302
  145PNCE   C5B 1315   1.989   1.848   7.291
  145PNCE   C6B 1316   1.576   2.084   7.240
  146CHOL   ROH 1317  14.646   5.057   4.719
  146CHOL    R1 1318  14.757   5.181   4.948
  146CHOL    R2 1319  14.613   5.222   5.180
  146CHOL    R3 1320  14.821   5.089   5.294
  146CHOL    R4 1321  14.645   5.155   5.518
  146CHOL    R5 1322  14.857   5.202   5.502
  146CHOL    C1 1323  14.858   4.993   5.822
  146CHOL    C2 1324  14.870   4.625   6.035
  147XCA    COO 1325   3.399   2.012   8.651
  147XCA     C1 1326   3.488   1.917   8.193
  147XCA     C2 1327   3.409   2.009   7.752
  147XCA     C3 1328   3.383   2.027   7.292
  147XCA     C4 1329   3.492   1.845   6.904
  147XCA     C5 1330   3.475   1.627   6.519
  147XCA     C6 1331   3.392   1.478   6.124
  148PNCE   AM1 1332  14.458  14.903   9.327
  148PNCE   AM2 1333  14.257  15.093   9.112
  148PNCE   T1A 1334  14.724  14.947   8.960
  148PNCE   C2A 1335  14.875  14.809   8.576
  148PNCE   C3A 1336  15.204  14.792   8.255
  148PNCE   C1B 1337  14.186  14.968   8.680
  148PNCE   C2B 1338  14.364  14.885   8.257
  148PNCE   C3B 1339  14.454  14.931   7.785
  148PNCE   D4B 1340  14.258  14.931   7.394
  148PNCE   C5B 1341  14.501  14.762   7.087
  148PNCE   C6B 1342  14.728  14.484   6.862
  149PNCE   AM1 1343  15.590   2.263   8.531
  149PNCE   AM2 1344  15.292   2.225   8.367
  149PNCE   T1A 1345   0.024   2.159   8.189
  149PNCE   C2A 1346   0.411   2.228   7.975
  149PNCE   C3A 1347   0.600   2.453   7.618
  149PNCE   C1B 1348  15.436   2.266   7.908
  149PNCE   C2B 1349  15.615   2.382   7.441
  149PNCE   C3B 1350  15.673   2.679   7.034
  149PNCE   D4B 1351  15.783   2.681   6.574
  149PNCE   C5B 1352  15.589   2.887   6.209
  149PNCE   C6B 1353  15.316   3.022   5.872
  150XCA    COO 1354   2.001   9.674   8.113
  150XCA     C1 1355   2.400   9.593   7.862
  150XCA     C2 1356   2.664   9.606   7.469
  150XCA     C3 1357   2.908   9.956   7.283
  150XCA     C4 1358   2.839  10.138   6.881
  150XCA     C5 1359   2.679   9.951   6.518
  150XCA     C6 1360   2.471   9.638   6.270
  151PNCE   AM1 1361   8.416  11.889   9.022
  151PNCE   AM2 1362   8.200  12.110   8.848
  151PNCE   T1A 1363   8.688  11.967   8.674
  151PNCE   C2A 1364   8.724  11.924   8.247
  151PNCE   C3A 1365   8.745  12.118   7.888
  151PNCE   C1B 1366   8.244  12.030   8.395
  151PNCE   C2B 1367   8.160  12.104   7.969
  151PNCE   C3B 1368   7.912  12.252   7.610
  151PNCE   D4B 1369   7.677  12.298   7.207
  151PNCE   C5B 1370   7.622  12.749   7.043
  151PNCE   C6B 1371   7.577  13.193   7.208
  152PNCE   AM1 1372   3.775   0.124   8.617
  152PNCE   AM2 1373   3.692   0.417   8.796
  152PNCE   T1A 1374   4.075  15.818   8.296
  152PNCE   C2A 1375   4.132  15.736   7.866
  152PNCE   C3A 1376   3.983  15.444   7.566
  152PNCE   C1B 1377   3.524   0.623   8.382
  152PNCE   C2B 1378   3.565   0.924   8.014
  152PNCE   C3B 1379   3.667   1.064   7.575
  152PNCE   D4B 1380   3.658   1.536   7.407
  152PNCE   C5B 1381   4.046   1.741   7.305
  152PNCE   C6B 1382   4.267   2.110   7.350
  153XCA    COO 1383   0.228   5.384   7.853
  153XCA     C1 1384   0.672   5.394   7.937
  153XCA     C2 1385   1.096   5.327   7.823
  153XCA     C3 1386   1.351   4.941   7.751
  153XCA     C4 1387   1.510   4.638   8.068
  153XCA     C5 1388   1.799   4.555   8.388
  153XCA     C6 1389   1.874   4.428   8.815
  154CHOL   ROH 1390   3.107   6.822   7.905
  154CHOL    R1 1391   3.118   6.659   7.675
  154CHOL    R2 1392   2.957   6.702   7.454
  154CHOL    R3 1393   3.195   6.704   7.322
  154CHOL    R4 1394   3.003   6.593   7.129
  154CHOL    R5 1395   3.191   6.503   7.191
  154CHOL    C1 1396   3.252   6.532   6.815
  154CHOL    C2 1397   3.359   6.168   6.703
  155PNCE   AM1 1398  11.196   1.973   8.183
  155PNCE   AM2 1399  11.318   1.639   8.256
  155PNCE   T1A 1400  11.552   2.154   8.014
  155PNCE   C2A 1401  11.802   2.132   7.680
  155PNCE   C3A 1402  11.804   1.847   7.341
  155PNCE   C1B 1403  11.264   1.367   7.863
  155PNCE   C2B 1404  11.217   1.278   7.428
  155PNCE   C3B 1405  11.066   1.061   7.111
  155PNCE   D4B 1406  10.695   0.892   6.938
  155PNCE   C5B 1407  10.800   0.822   6.510
  155PNCE   C6B 1408  10.681   0.583   6.148
  156PNCE   AM1 1409   5.155   8.807   8.310
  156PNCE   AM2 1410   5.399   8.600   8.458
  156PNCE   T1A 1411   5.100   8.749   7.851
  156PNCE   C2A 1412   5.052   8.811   7.398
  156PNCE   C3A 1413   4.945   8.692   6.963
  156PNCE   C1B 1414   5.514   8.461   8.002
  156PNCE   C2B 1415   5.372   8.296   7.589
  156PNCE   C3B 1416   5.538   8.289   7.169
  156PNCE   D4B 1417   5.522   8.275   6.753
  156PNCE   C5B 1418   5.186   8.389   6.447
  156PNCE   C6B 1419   4.752   8.501   6.470
  157CHOL   ROH 1420  10.823  11.431   8.625
  157CHOL    R1 1421  10.980  11.565   8.432
  157CHOL    R2 1422  11.010  11.840   8.430
  157CHOL    R3 1423  11.275  11.779   8.434
  157CHOL    R4 1424  11.267  12.070   8.401
  157CHOL    R5 1425  11.373  11.928   8.274
  157CHOL    C1 1426  11.664  12.146   8.388
  157CHOL    C2 1427  11.896  12.403   8.641
  158XCA    COO 1428   7.085  10.902   8.831
  158XCA     C1 1429   6.870  10.951   8.450
  158XCA     C2 1430   6.974  11.079   8.056
  158XCA     C3 1431   7.173  10.920   7.771
  158XCA     C4 1432   7.388  10.602   7.830
  158XCA     C5 1433   7.136  10.263   7.705
  158XCA     C6 1434   6.941   9.900   7.571
  159PNCE   AM1 1435   9.296  13.706   9.369
  159PNCE   AM2 1436   9.024  13.521   9.522
  159PNCE   T1A 1437   9.415  13.864   8.965
  159PNCE   C2A 1438   9.425  14.004   8.526
  159PNCE   C3A 1439   9.295  14.249   8.184
  159PNCE   C1B 1440   8.773  13.734   9.175
  159PNCE   C2B 1441   8.525  14.071   8.918
  159PNCE   C3B 1442   8.532  14.246   8.529
  159PNCE   D4B 1443   8.330  14.513   8.329
  159PNCE   C5B 1444   8.219  14.848   8.580
  159PNCE   C6B 1445   8.207  15.258   8.783
  160XCA    COO 1446   3.564  13.010   7.893
  160XCA     C1 1447   3.796  12.994   7.490
  160XCA     C2 1448   3.942  13.066   7.055
  160XCA     C3 1449   3.955  13.473   6.853
  160XCA     C4 1450   4.093  13.895   6.941
  160XCA     C5 1451   4.250  14.094   7.330
  160XCA     C6 1452   4.389  14.500   7.477
  161CHOL   ROH 1453  14.180   8.789   7.526
  161CHOL    R1 1454  14.260   8.763   7.256
  161CHOL    R2 1455  14.231   8.528   7.114
  161CHOL    R3 1456  14.098   8.687   6.938
  161CHOL    R4 1457  14.190   8.461   6.778
  161CHOL    R5 1458  14.225   8.671   6.736
  161CHOL    C1 1459  14.042   8.571   6.417
  161CHOL    C2 1460  14.175   8.254   6.232
  162CHOL   ROH 1461  12.955   8.176   4.096
  162CHOL    R1 1462  12.912   8.201   4.374
  162CHOL    R2 1463  12.666   8.156   4.492
  162CHOL    R3 1464  12.808   7.984   4.647
  162CHOL    R4 1465  12.564   8.040   4.801
  162CHOL    R5 1466  12.770   8.061   4.871
  162CHOL    C1 1467  12.639   7.811   5.128
  162CHOL    C2 1468  12.547   7.958   5.481
  163CHOL   ROH 1469   9.247   7.563   4.902
  163CHOL    R1 1470   9.186   7.511   5.173
  163CHOL    R2 1471   9.381   7.473   5.365
  163CHOL    R3 1472   9.248   7.672   5.494
  163CHOL    R4 1473   9.374   7.516   5.707
  163CHOL    R5 1474   9.163   7.568   5.692
  163CHOL    C1 1475   9.245   7.728   6.028
  163CHOL    C2 1476   9.387   7.553   6.364
  164CHOL   ROH 1477  13.058   6.742   4.678
  164CHOL    R1 1478  12.820   6.842   4.794
  164CHOL    R2 1479  12.792   6.883   5.065
  164CHOL    R3 1480  12.722   7.134   4.988
  164CHOL    R4 1481  12.601   7.102   5.253
  164CHOL    R5 1482  12.499   7.162   5.070
  164CHOL    C1 1483  12.425   7.465   5.290
  164CHOL    C2 1484  12.093   7.678   5.470
  165CHOL   ROH 1485   1.322   0.615   6.557
  165CHOL    R1 1486   1.389   0.709   6.815
  165CHOL    R2 1487   1.354   0.557   7.043
  165CHOL    R3 1488   1.617   0.613   7.081
  165CHOL    R4 1489   1.517   0.543   7.348
  165CHOL    R5 1490   1.624   0.725   7.293
  165CHOL    C1 1491   1.858   0.587   7.561
  165CHOL    C2 1492   1.892   0.920   7.773
  166CHOL   ROH 1493   9.629   8.361   7.862
  166CHOL    R1 1494   9.482   8.290   7.631
  166CHOL    R2 1495   9.461   8.456   7.412
  166CHOL    R3 1496   9.554   8.239   7.278
  166CHOL    R4 1497   9.453   8.417   7.068
  166CHOL    R5 1498   9.398   8.208   7.098
  166CHOL    C1 1499   9.535   8.190   6.743
  166CHOL    C2 1500   9.351   8.061   6.390
  167PNCE   AM1 1501   3.983  14.194   8.271
  167PNCE   AM2 1502   4.308  14.142   8.291
  167PNCE   T1A 1503   3.993  14.322   7.810
  167PNCE   C2A 1504   3.845  14.567   7.438
  167PNCE   C3A 1505   3.930  14.802   7.065
  167PNCE   C1B 1506   4.519  14.402   7.993
  167PNCE   C2B 1507   4.619  14.795   7.823
  167PNCE   C3B 1508   4.710  14.942   7.453
  167PNCE   D4B 1509   4.687  14.810   7.048
  167PNCE   C5B 1510   4.394  14.995   6.773
  167PNCE   C6B 1511   4.490  15.098   6.366
  168CHOL   ROH 1512   8.121  12.710   8.896
  168CHOL    R1 1513   8.054  12.740   8.623
  168CHOL    R2 1514   7.870  12.925   8.534
  168CHOL    R3 1515   8.074  13.003   8.373
  168CHOL    R4 1516   7.833  13.106   8.242
  168CHOL    R5 1517   7.986  12.981   8.151
  168CHOL    C1 1518   8.003  13.285   7.920
  168CHOL    C2 1519   7.602  13.301   7.730
  169XCA    COO 1520   3.062   7.839   6.228
  169XCA     C1 1521   3.149   7.449   5.982
  169XCA     C2 1522   3.374   7.017   6.017
  169XCA     C3 1523   3.700   6.763   6.073
  169XCA     C4 1524   4.044   6.458   6.136
  169XCA     C5 1525   4.481   6.584   6.250
  169XCA     C6 1526   4.773   6.608   6.622
  170CHOL   ROH 1527   6.393   4.263   4.629
  170CHOL    R1 1528   6.120   4.337   4.630
  170CHOL    R2 1529   5.929   4.199   4.774
  170CHOL    R3 1530   5.875   4.445   4.877
  170CHOL    R4 1531   5.620   4.301   4.890
  170CHOL    R5 1532   5.655   4.496   4.797
  170CHOL    C1 1533   5.390   4.592   5.054
  170CHOL    C2 1534   5.072   4.790   4.857
  171XCA    COO 1535   9.926   5.791   8.311
  171XCA     C1 1536   9.882   5.951   7.889
  171XCA     C2 1537   9.676   5.869   7.528
  171XCA     C3 1538   9.627   5.943   7.096
  171XCA     C4 1539   9.463   6.304   6.842
  171XCA     C5 1540   9.163   6.680   6.786
  171XCA     C6 1541   9.175   7.093   6.561
  172PNCE   AM1 1542   2.677  14.530   8.252
  172PNCE   AM2 1543   3.017  14.509   8.333
  172PNCE   T1A 1544   2.666  14.842   7.940
  172PNCE   C2A 1545   2.654  15.080   7.571
  172PNCE   C3A 1546   2.433  15.058   7.192
  172PNCE   C1B 1547   2.985  14.437   7.862
  172PNCE   C2B 1548   2.777  14.559   7.478
  172PNCE   C3B 1549   2.763  14.277   7.097
  172PNCE   D4B 1550   2.675  13.836   7.042
  172PNCE   C5B 1551   2.268  13.643   7.025
  172PNCE   C6B 1552   1.846  13.699   7.141
  173PNCE   AM1 1553   7.235   5.975   8.063
  173PNCE   AM2 1554   7.025   5.735   7.967
  173PNCE   T1A 1555   6.927   6.170   7.736
  173PNCE   C2A 1556   6.793   6.533   7.476
  173PNCE   C3A 1557   6.754   6.928   7.249
  173PNCE   C1B 1558   7.135   5.752   7.479
  173PNCE   C2B 1559   7.112   5.610   7.064
  173PNCE   C3B 1560   7.104   5.312   6.706
  173PNCE   D4B 1561   7.001   5.387   6.295
  173PNCE   C5B 1562   6.639   5.242   6.112
  173PNCE   C6B 1563   6.224   5.214   5.992
  174CHOL   ROH 1564  10.131   5.368   8.196
  174CHOL    R1 1565  10.104   5.334   7.916
  174CHOL    R2 1566  10.135   5.542   7.738
  174CHOL    R3 1567  10.316   5.375   7.623
  174CHOL    R4 1568  10.215   5.536   7.401
  174CHOL    R5 1569  10.221   5.319   7.412
  174CHOL    C1 1570  10.431   5.375   7.098
  174CHOL    C2 1571  10.665   5.407   6.769
  175XCA    COO 1572   1.076   5.801   8.457
  175XCA     C1 1573   1.256   5.795   8.028
  175XCA     C2 1574   1.206   5.950   7.648
  175XCA     C3 1575   1.227   5.962   7.203
  175XCA     C4 1576   1.415   5.787   6.855
  175XCA     C5 1577   1.776   5.523   6.796
  175XCA     C6 1578   2.014   5.202   6.972
  176CHOL   ROH 1579   4.762   8.043   4.125
  176CHOL    R1 1580   4.795   8.184   4.368
  176CHOL    R2 1581   4.583   8.249   4.532
  176CHOL    R3 1582   4.731   8.122   4.721
  176CHOL    R4 1583   4.538   8.282   4.873
  176CHOL    R5 1584   4.755   8.283   4.896
  176CHOL    C1 1585   4.652   8.181   5.249
  176CHOL    C2 1586   4.663   8.067   5.644
  177CHOL   ROH 1587   9.203  15.792   9.224
  177CHOL    R1 1588   9.261  15.555   9.079
  177CHOL    R2 1589   9.095  15.335   9.083
  177CHOL    R3 1590   9.104  15.363   8.813
  177CHOL    R4 1591   9.074  15.075   8.856
  177CHOL    R5 1592   9.228  15.173   8.737
  177CHOL    C1 1593   9.070  14.951   8.470
  177CHOL    C2 1594   9.135  14.733   8.168
  178CHOL   ROH 1595   3.587   1.485   7.868
  178CHOL    R1 1596   3.822   1.635   7.915
  178CHOL    R2 1597   3.894   1.851   7.759
  178CHOL    R3 1598   3.903   1.979   7.999
  178CHOL    R4 1599   4.069   2.142   7.821
  178CHOL    R5 1600   4.128   2.060   8.014
  178CHOL    C1 1601   4.181   2.432   8.082
  178CHOL    C2 1602   4.440   2.725   8.069
  179XCA    COO 1603   7.551   6.354   8.208
  179XCA     C1 1604   7.701   6.743   8.037
  179XCA     C2 1605   7.771   7.009   7.696
  179XCA     C3 1606   7.689   7.032   7.282
  179XCA     C4 1607   7.877   7.005   6.895
  179XCA     C5 1608   7.875   6.840   6.429
  179XCA     C6 1609   8.084   6.845   6.007
  180XCA    COO 1610   8.422   8.588   4.608
  180XCA     C1 1611   8.478   8.655   5.094
  180XCA     C2 1612   8.391   8.606   5.552
  180XCA     C3 1613   8.502   8.440   5.992
  180XCA     C4 1614   8.446   8.331   6.419
  180XCA     C5 1615   8.161   8.396   6.751
  180XCA     C6 1616   7.854   8.726   6.822
  181CHOL   ROH 1617   2.191  10.952   8.110
  181CHOL    R1 1618   2.048  10.877   7.878
  181CHOL    R2 1619   1.815  11.001   7.800
  181CHOL    R3 1620   1.949  11.036   7.566
  181CHOL    R4 1621   1.666  11.072   7.496
  181CHOL    R5 1622   1.807  10.935   7.401
  181CHOL    C1 1623   1.706  11.146   7.099
  181CHOL    C2 1624   1.862  11.371   6.771
  182CHOL   ROH 1625   0.492  10.046   7.788
  182CHOL    R1 1626   0.730   9.973   7.653
  182CHOL    R2 1627   0.732   9.890   7.389
  182CHOL    R3 1628   0.916  10.089   7.362
  182CHOL    R4 1629   0.897   9.969   7.096
  182CHOL    R5 1630   1.079  10.000   7.212
  182CHOL    C1 1631   1.165  10.201   6.899
  182CHOL    C2 1632   1.127  10.586   6.701
  183PNCE   AM1 1633   4.446   6.967   8.620
  183PNCE   AM2 1634   4.602   7.240   8.446
  183PNCE   T1A 1635   4.221   6.687   8.279
  183PNCE   C2A 1636   3.972   6.498   7.888
  183PNCE   C3A 1637   3.895   6.177   7.536
  183PNCE   C1B 1638   4.926   7.467   8.205
  183PNCE   C2B 1639   5.135   7.771   7.886
  183PNCE   C3B 1640   4.981   7.857   7.477
  183PNCE   D4B 1641   4.596   7.644   7.374
  183PNCE   C5B 1642   4.480   7.237   7.460
  183PNCE   C6B 1643   4.558   6.793   7.536
  184PNCE   AM1 1644   5.277  13.034   8.424
  184PNCE   AM2 1645   4.885  13.060   8.437
  184PNCE   T1A 1646   5.353  13.485   8.236
  184PNCE   C2A 1647   5.654  13.846   8.155
  184PNCE   C3A 1648   6.062  13.812   7.941
  184PNCE   C1B 1649   5.011  13.177   8.010
  184PNCE   C2B 1650   5.224  13.266   7.617
  184PNCE   C3B 1651   5.219  13.296   7.156
  184PNCE   D4B 1652   5.096  13.259   6.668
  184PNCE   C5B 1653   4.907  13.644   6.484
  184PNCE   C6B 1654   4.992  14.096   6.612
  185PNCE   AM1 1655   2.285   3.691   8.524
  185PNCE   AM2 1656   2.597   3.775   8.722
  185PNCE   T1A 1657   2.269   3.824   8.079
  185PNCE   C2A 1658   2.346   3.681   7.646
  185PNCE   C3A 1659   2.340   3.656   7.142
  185PNCE   C1B 1660   2.746   3.793   8.297
  185PNCE   C2B 1661   2.821   3.634   7.887
  185PNCE   C3B 1662   3.144   3.362   7.721
  185PNCE   D4B 1663   3.126   3.037   7.439
  185PNCE   C5B 1664   3.002   3.215   7.039
  185PNCE   C6B 1665   2.625   3.292   6.784
  186PNCE   AM1 1666   2.485  15.481   9.030
  186PNCE   AM2 1667   2.808  15.637   8.900
  186PNCE   T1A 1668   2.233  15.641   8.681
  186PNCE   C2A 1669   1.870  15.533   8.473
  186PNCE   C3A 1670   1.762  15.252   8.116
  186PNCE   C1B 1671   2.681  15.626   8.462
  186PNCE   C2B 1672   2.355  15.750   8.158
  186PNCE   C3B 1673   2.075  15.700   7.794
  186PNCE   D4B 1674   1.798   0.121   7.516
  186PNCE   C5B 1675   2.022   0.347   7.177
  186PNCE   C6B 1676   2.148   0.597   6.825
  187PNCE   AM1 1677  11.720  14.261   5.289
  187PNCE   AM2 1678  12.024  14.103   5.156
  187PNCE   T1A 1679  11.679  14.506   5.690
  187PNCE   C2A 1680  11.626  14.376   6.136
  187PNCE   C3A 1681  11.730  14.252   6.582
  187PNCE   C1B 1682  12.154  14.291   5.551
  187PNCE   C2B 1683  12.121  14.262   5.985
  187PNCE   C3B 1684  12.212  14.221   6.413
  187PNCE   D4B 1685  12.216  14.340   6.849
  187PNCE   C5B 1686  12.548  14.642   6.860
  187PNCE   C6B 1687  12.997  14.563   6.952
  188XCA    COO 1688  15.675  14.011   9.478
  188XCA     C1 1689  15.590  13.718   9.114
  188XCA     C2 1690  15.322  13.629   8.722
  188XCA     C3 1691  15.183  13.705   8.279
  188XCA     C4 1692  14.850  13.539   8.029
  188XCA     C5 1693  14.882  13.698   7.609
  188XCA     C6 1694  15.005  13.661   7.222
  189PNCE   AM1 1695  11.443   8.715   8.556
  189PNCE   AM2 1696  11.277   8.836   8.234
  189PNCE   T1A 1697  11.625   8.463   8.206
  189PNCE   C2A 1698  11.710   8.435   7.771
  189PNCE   C3A 1699  11.796   8.735   7.434
  189PNCE   C1B 1700  11.176   8.552   7.856
  189PNCE   C2B 1701  10.804   8.319   7.678
  189PNCE   C3B 1702  10.544   8.247   7.301
  189PNCE   D4B 1703  10.430   8.540   6.983
  189PNCE   C5B 1704  10.791   8.682   6.772
  189PNCE   C6B 1705  11.235   8.744   6.837
  190PNCE   AM1 1706  11.786  11.334   8.899
  190PNCE   AM2 1707  12.099  11.510   8.894
  190PNCE   T1A 1708  11.710  11.681   8.583
  190PNCE   C2A 1709  11.836  11.776   8.153
  190PNCE   C3A 1710  11.769  12.031   7.817
  190PNCE   C1B 1711  12.110  11.424   8.406
  190PNCE   C2B 1712  11.973  11.299   7.958
  190PNCE   C3B 1713  11.903  11.271   7.483
  190PNCE   D4B 1714  11.523  11.230   7.192
  190PNCE   C5B 1715  11.064  11.141   7.327
  190PNCE   C6B 1716  10.601  10.960   7.460
  191CHOL   ROH 1717   4.896   0.155   5.518
  191CHOL    R1 1718   5.022   0.163   5.771
  191CHOL    R2 1719   5.047  15.769   5.932
  191CHOL    R3 1720   5.311   0.005   5.928
  191CHOL    R4 1721   5.284  15.647   6.152
  191CHOL    R5 1722   5.373   0.017   6.159
  191CHOL    C1 1723   5.670  15.638   6.276
  191CHOL    C2 1724   6.004  15.482   6.110
  192CHOL   ROH 1725  12.960   6.381   8.078
  192CHOL    R1 1726  12.881   6.362   7.807
  192CHOL    R2 1727  12.987   6.524   7.610
  192CHOL    R3 1728  13.042   6.286   7.489
  192CHOL    R4 1729  13.028   6.479   7.270
  192CHOL    R5 1730  12.917   6.293   7.285
  192CHOL    C1 1731  13.103   6.231   6.958
  192CHOL    C2 1732  13.184   6.446   6.609
  193XCA    COO 1733  11.951   6.513   3.993
  193XCA     C1 1734  12.083   6.573   4.445
  193XCA     C2 1735  12.213   6.357   4.841
  193XCA     C3 1736  12.132   6.266   5.282
  193XCA     C4 1737  12.244   6.316   5.709
  193XCA     C5 1738  12.172   6.038   6.043
  193XCA     C6 1739  12.365   5.810   6.367
  194CHOL   ROH 1740  12.530   4.318   8.378
  194CHOL    R1 1741  12.356   4.271   8.160
  194CHOL    R2 1742  12.442   4.274   7.897
  194CHOL    R3 1743  12.328   4.027   7.891
  194CHOL    R4 1744  12.344   4.109   7.609
  194CHOL    R5 1745  12.166   4.041   7.715
  194CHOL    C1 1746  12.181   3.782   7.435
  194CHOL    C2 1747  11.892   3.756   7.209
  195PNCE   AM1 1748  12.649   5.664   8.335
  195PNCE   AM2 1749  13.019   5.660   8.299
  195PNCE   T1A 1750  12.576   5.972   7.972
  195PNCE   C2A 1751  12.534   6.163   7.548
  195PNCE   C3A 1752  12.551   6.591   7.367
  195PNCE   C1B 1753  12.888   5.482   7.901
  195PNCE   C2B 1754  12.965   5.389   7.475
  195PNCE   C3B 1755  12.849   5.352   7.084
  195PNCE   D4B 1756  12.708   5.426   6.665
  195PNCE   C5B 1757  12.346   5.304   6.349
  195PNCE   C6B 1758  11.959   5.427   6.048
  196XCA    COO 1759  14.894  13.674   4.611
  196XCA     C1 1760  15.259  13.651   4.882
  196XCA     C2 1761  15.307  13.784   5.330
  196XCA     C3 1762  15.479  13.670   5.739
  196XCA     C4 1763  15.461  13.527   6.154
  196XCA     C5 1764  15.427  13.301   6.571
  196XCA     C6 1765  15.191  13.306   6.928
  197CHOL   ROH 1766   2.782  11.994   6.725
  197CHOL    R1 1767   2.976  11.987   6.520
  197CHOL    R2 1768   3.183  12.169   6.504
  197CHOL    R3 1769   3.337  11.946   6.498
  197CHOL    R4 1770   3.503  12.154   6.374
  197CHOL    R5 1771   3.453  11.959   6.289
  197CHOL    C1 1772   3.834  11.934   6.292
  197CHOL    C2 1773   4.103  11.912   6.039
  198CHOL   ROH 1774  10.607   4.636   8.212
  198CHOL    R1 1775  10.722   4.607   7.954
  198CHOL    R2 1776  10.820   4.366   7.862
  198CHOL    R3 1777  10.652   4.415   7.654
  198CHOL    R4 1778  10.847   4.223   7.548
  198CHOL    R5 1779  10.794   4.415   7.461
  198CHOL    C1 1780  10.705   4.184   7.171
  198CHOL    C2 1781  10.639   3.865   6.928
  199PNCE   AM1 1782   5.709  10.480   8.026
  199PNCE   AM2 1783   5.469  10.620   7.775
  199PNCE   T1A 1784   5.863  10.100   7.829
  199PNCE   C2A 1785   5.924   9.844   7.471
  199PNCE   C3A 1786   6.232   9.516   7.424
  199PNCE   C1B 1787   5.520  10.223   7.489
  199PNCE   C2B 1788   5.679  10.202   7.076
  199PNCE   C3B 1789   5.762  10.415   6.673
  199PNCE   D4B 1790   5.549  10.781   6.443
  199PNCE   C5B 1791   5.613  11.165   6.653
  199PNCE   C6B 1792   5.989  11.379   6.665
  200PNCE   AM1 1793  13.110   7.700   8.179
  200PNCE   AM2 1794  13.308   7.418   8.165
  200PNCE   T1A 1795  12.992   7.926   7.809
  200PNCE   C2A 1796  12.913   7.959   7.368
  200PNCE   C3A 1797  12.945   7.848   6.941
  200PNCE   C1B 1798  13.225   7.483   7.679
  200PNCE   C2B 1799  13.170   7.411   7.240
  200PNCE   C3B 1800  13.255   7.285   6.826
  200PNCE   D4B 1801  12.980   7.434   6.513
  200PNCE   C5B 1802  13.100   7.410   6.101
  200PNCE   C6B 1803  13.050   7.727   5.830
  201CHOL   ROH 1804   7.114   8.398   8.172
  201CHOL    R1 1805   7.036   8.644   8.056
  201CHOL    R2 1806   7.143   8.886   8.135
  201CHOL    R3 1807   7.198   8.912   7.870
  201CHOL    R4 1808   7.219   9.183   7.977
  201CHOL    R5 1809   7.098   9.120   7.808
  201CHOL    C1 1810   7.316   9.381   7.637
  201CHOL    C2 1811   7.584   9.588   7.372
  202CHOL   ROH 1812   3.106   0.475   8.198
  202CHOL    R1 1813   3.246   0.398   7.964
  202CHOL    R2 1814   3.228   0.538   7.727
  202CHOL    R3 1815   3.499   0.544   7.747
  202CHOL    R4 1816   3.445   0.589   7.463
  202CHOL    R5 1817   3.576   0.437   7.547
  202CHOL    C1 1818   3.826   0.624   7.328
  202CHOL    C2 1819   4.173   0.422   7.132
  203CHOL   ROH 1820   6.249   6.791   4.691
  203CHOL    R1 1821   6.123   6.707   4.930
  203CHOL    R2 1822   6.250   6.712   5.175
  203CHOL    R3 1823   6.033   6.858   5.248
  203CHOL    R4 1824   6.099   6.700   5.486
  203CHOL    R5 1825   5.906   6.711   5.387
  203CHOL    C1 1826   5.808   6.830   5.736
  203CHOL    C2 1827   5.412   6.759   5.855
  204PNCE   AM1 1828   6.979  13.220   9.121
  204PNCE   AM2 1829   6.747  13.007   8.924
  204PNCE   T1A 1830   7.228  13.511   8.868
  204PNCE   C2A 1831   7.576  13.816   8.770
  204PNCE   C3A 1832   7.496  14.254   8.794
  204PNCE   C1B 1833   7.033  13.162   8.550
  204PNCE   C2B 1834   7.237  13.263   8.135
  204PNCE   C3B 1835   7.067  13.337   7.733
  204PNCE   D4B 1836   7.112  13.703   7.512
  204PNCE   C5B 1837   7.555  13.717   7.404
  204PNCE   C6B 1838   7.995  13.934   7.278
  205CHOL   ROH 1839   6.231  11.205   8.441
  205CHOL    R1 1840   6.354  11.203   8.186
  205CHOL    R2 1841   6.524  11.001   8.105
  205CHOL    R3 1842   6.353  10.987   7.894
  205CHOL    R4 1843   6.618  10.945   7.777
  205CHOL    R5 1844   6.471  11.092   7.714
  205CHOL    C1 1845   6.512  10.898   7.388
  205CHOL    C2 1846   6.642  11.148   7.072
  206XCA    COO 1847   0.315   1.847   9.228
  206XCA     C1 1848   0.615   1.640   8.901
  206XCA     C2 1849   0.653   1.473   8.459
  206XCA     C3 1850   0.909   1.337   8.147
  206XCA     C4 1851   1.062   1.034   7.878
  206XCA     C5 1852   1.374   0.727   7.760
  206XCA     C6 1853   1.688   0.416   7.960
  207CHOL   ROH 1854  13.140   9.547   4.142
  207CHOL    R1 1855  13.227   9.560   4.411
  207CHOL    R2 1856  13.069   9.663   4.613
  207CHOL    R3 1857  13.118   9.422   4.730
  207CHOL    R4 1858  13.055   9.602   4.953
  207CHOL    R5 1859  13.233   9.477   4.933
  207CHOL    C1 1860  13.093   9.341   5.261
  207CHOL    C2 1861  12.839   9.449   5.584
  208CHOL   ROH 1862   9.637  14.507   5.672
  208CHOL    R1 1863   9.795  14.489   5.905
  208CHOL    R2 1864   9.779  14.672   6.111
  208CHOL    R3 1865   9.737  14.451   6.263
  208CHOL    R4 1866   9.833  14.652   6.452
  208CHOL    R5 1867   9.915  14.453   6.423
  208CHOL    C1 1868   9.825  14.433   6.793
  208CHOL    C2 1869   9.720  14.478   7.161
  209PNCE   AM1 1870  12.424   0.013   8.718
  209PNCE   AM2 1871  12.721   0.191   8.609
  209PNCE   T1A 1872  12.374  15.513   8.411
  209PNCE   C2A 1873  12.454  15.075   8.258
  209PNCE   C3A 1874  12.281  14.694   8.352
  209PNCE   C1B 1875  12.797  15.795   8.214
  209PNCE   C2B 1876  12.536  15.459   7.935
  209PNCE   C3B 1877  12.204  15.316   7.605
  209PNCE   D4B 1878  11.885  15.335   7.199
  209PNCE   C5B 1879  11.419  15.359   7.248
  209PNCE   C6B 1880  11.170  15.491   7.619
  210CHOL   ROH 1881   0.667   9.151   4.940
  210CHOL    R1 1882   0.746   9.019   5.177
  210CHOL    R2 1883   1.001   8.919   5.215
  210CHOL    R3 1884   0.993   9.071   5.440
  210CHOL    R4 1885   1.191   8.863   5.498
  210CHOL    R5 1886   1.017   8.914   5.619
  210CHOL    C1 1887   1.295   8.973   5.874
  210CHOL    C2 1888   1.436   8.715   6.160
  211PNCE   AM1 1889  11.115  10.969   8.692
  211PNCE   AM2 1890  11.342  11.150   8.753
  211PNCE   T1A 1891  11.006  11.107   8.330
  211PNCE   C2A 1892  10.670  11.306   8.151
  211PNCE   C3A 1893  10.283  11.151   7.919
  211PNCE   C1B 1894  11.623  11.200   8.410
  211PNCE   C2B 1895  11.461  11.450   8.132
  211PNCE   C3B 1896  11.542  11.560   7.738
  211PNCE   D4B 1897  11.250  11.600   7.428
  211PNCE   C5B 1898  11.171  11.958   7.216
  211PNCE   C6B 1899  10.858  12.074   6.904
  212CHOL   ROH 1900   3.772  12.814   5.106
  212CHOL    R1 1901   4.028  12.785   5.223
  212CHOL    R2 1902   4.135  12.974   5.394
  212CHOL    R3 1903   4.164  12.760   5.560
  212CHOL    R4 1904   4.368  12.950   5.648
  212CHOL    R5 1905   4.400  12.742   5.593
  212CHOL    C1 1906   4.531  12.736   5.951
  212CHOL    C2 1907   4.864  12.575   6.057
  213PNCE   AM1 1908  15.640   5.249   8.117
  213PNCE   AM2 1909  15.315   5.272   8.158
  213PNCE   T1A 1910  15.659   5.056   7.737
  213PNCE   C2A 1911   0.090   4.919   7.390
  213PNCE   C3A 1912   0.529   4.790   7.345
  213PNCE   C1B 1913  15.146   5.149   7.739
  213PNCE   C2B 1914  14.958   5.089   7.319
  213PNCE   C3B 1915  14.963   5.024   6.863
  213PNCE   D4B 1916  14.961   4.971   6.411
  213PNCE   C5B 1917  15.276   4.920   6.066
  213PNCE   C6B 1918  15.326   4.875   5.675
  214CHOL   ROH 1919   5.866   2.627   8.634
  214CHOL    R1 1920   5.890   2.700   8.362
  214CHOL    R2 1921   6.036   2.551   8.181
  214CHOL    R3 1922   5.803   2.555   8.040
  214CHOL    R4 1923   6.010   2.505   7.839
  214CHOL    R5 1924   5.859   2.662   7.834
  214CHOL    C1 1925   5.776   2.482   7.508
  214CHOL    C2 1926   5.722   2.160   7.261
  215CHOL   ROH 1927   2.435   2.903   8.724
  215CHOL    R1 1928   2.619   2.734   8.589
  215CHOL    R2 1929   2.559   2.474   8.519
  215CHOL    R3 1930   2.632   2.558   8.271
  215CHOL    R4 1931   2.661   2.267   8.262
  215CHOL    R5 1932   2.813   2.413   8.211
  215CHOL    C1 1933   2.789   2.224   7.880
  215CHOL    C2 1934   2.913   2.162   7.509
  216PNCE   AM1 1935   5.474   5.878   8.367
  216PNCE   AM2 1936   5.168   5.945   8.284
  216PNCE   T1A 1937   5.433   5.884   7.843
  216PNCE   C2A 1938   5.500   5.871   7.356
  216PNCE   C3A 1939   5.343   5.751   6.903
  216PNCE   C1B 1940   4.990   6.193   7.916
  216PNCE   C2B 1941   4.853   6.347   7.508
  216PNCE   C3B 1942   4.685   6.521   7.121
  216PNCE   D4B 1943   4.440   6.879   7.007
  216PNCE   C5B 1944   4.500   7.023   6.572
  216PNCE   C6B 1945   4.598   7.179   6.182
  217PNCE   AM1 1946   7.372   0.731   5.450
  217PNCE   AM2 1947   7.679   0.952   5.457
  217PNCE   T1A 1948   7.205   0.537   5.827
  217PNCE   C2A 1949   7.299   0.331   6.212
  217PNCE   C3A 1950   7.248   0.011   6.541
  217PNCE   C1B 1951   8.012   1.119   5.756
  217PNCE   C2B 1952   8.031   1.504   6.006
  217PNCE   C3B 1953   8.085   1.601   6.419
  217PNCE   D4B 1954   8.000   1.933   6.654
  217PNCE   C5B 1955   8.337   2.253   6.635
  217PNCE   C6B 1956   8.586   2.624   6.478
  218PNCE   AM1 1957  13.498   2.209   8.449
  218PNCE   AM2 1958  13.344   2.011   8.238
  218PNCE   T1A 1959  13.538   2.451   8.021
  218PNCE   C2A 1960  13.688   2.631   7.577
  218PNCE   C3A 1961  13.985   2.810   7.211
  218PNCE   C1B 1962  13.190   2.060   7.853
  218PNCE   C2B 1963  13.035   1.894   7.484
  218PNCE   C3B 1964  13.075   1.712   7.083
  218PNCE   D4B 1965  13.340   1.437   6.858
  218PNCE   C5B 1966  13.198   1.036   6.696
  218PNCE   C6B 1967  12.941   0.868   6.332
  219CHOL   ROH 1968   7.205  15.063   5.528
  219CHOL    R1 1969   7.159  15.051   5.807
  219CHOL    R2 1970   6.936  14.930   5.916
  219CHOL    R3 1971   7.121  14.791   6.057
  219CHOL    R4 1972   6.870  14.747   6.201
  219CHOL    R5 1973   7.057  14.820   6.286
  219CHOL    C1 1974   7.005  14.509   6.500
  219CHOL    C2 1975   6.881  14.295   6.795
  220PNCE   AM1 1976  13.127   1.346   8.629
  220PNCE   AM2 1977  12.813   1.300   8.795
  220PNCE   T1A 1978  12.922   1.072   8.279
  220PNCE   C2A 1979  12.790   1.113   7.838
  220PNCE   C3A 1980  12.955   1.389   7.499
  220PNCE   C1B 1981  12.507   1.286   8.475
  220PNCE   C2B 1982  12.360   1.058   8.121
  220PNCE   C3B 1983  12.221   1.153   7.705
  220PNCE   D4B 1984  11.955   0.912   7.465
  220PNCE   C5B 1985  12.142   0.572   7.336
  220PNCE   C6B 1986  12.364   0.472   6.939
  221CHOL   ROH 1987   2.462   1.421   6.917
  221CHOL    R1 1988   2.208   1.481   6.806
  221CHOL    R2 1989   1.985   1.529   6.962
  221CHOL    R3 1990   1.974   1.759   6.817
  221CHOL    R4 1991   1.706   1.729   6.931
  221CHOL    R5 1992   1.755   1.758   6.721
  221CHOL    C1 1993   1.532   2.062   6.777
  221CHOL    C2 1994   1.192   1.903   6.901
  222CHOL   ROH 1995   0.100  10.239   7.686
  222CHOL    R1 1996  15.780  10.440   7.552
  222CHOL    R2 1997  15.782  10.468   7.278
  222CHOL    R3 1998  15.512  10.451   7.307
  222CHOL    R4 1999  15.551  10.519   7.025
  222CHOL    R5 2000  15.426  10.624   7.167
  222CHOL    C1 2001  15.164  10.532   6.905
  222CHOL    C2 2002  14.916  10.475   6.593
  223PNCE   AM1 2003   6.204  13.944   8.921
  223PNCE   AM2 2004   6.079  14.286   8.916
  223PNCE   T1A 2005   6.413  14.006   8.475
  223PNCE   C2A 2006   6.434  14.148   8.026
  223PNCE   C3A 2007   6.683  14.012   7.642
  223PNCE   C1B 2008   5.946  14.253   8.474
  223PNCE   C2B 2009   6.046  14.539   8.144
  223PNCE   C3B 2010   6.302  14.810   7.922
  223PNCE   D4B 2011   6.509  14.931   7.543
  223PNCE   C5B 2012   6.356  15.306   7.332
  223PNCE   C6B 2013   6.636  15.625   7.146
  224XCA    COO 2014   6.614  10.743   6.438
  224XCA     C1 2015   6.948  10.502   6.477
  224XCA     C2 2016   7.173  10.176   6.578
  224XCA     C3 2017   7.349   9.806   6.657
  224XCA     C4 2018   7.682   9.689   6.868
  224XCA     C5 2019   8.119   9.687   6.752
  224XCA     C6 2020   8.462   9.929   6.839
  225CHOL   ROH 2021  12.193   9.519   7.295
  225CHOL    R1 2022  12.332   9.492   7.050
  225CHOL    R2 2023  12.536   9.310   7.014
  225CHOL    R3 2024  12.385   9.230   6.804
  225CHOL    R4 2025  12.661   9.205   6.710
  225CHOL    R5 2026  12.500   9.314   6.612
  225CHOL    C1 2027  12.591   9.069   6.334
  225CHOL    C2 2028  12.637   9.063   5.909
  226PNCE   AM1 2029   5.424   7.383   8.061
  226PNCE   AM2 2030   5.758   7.234   8.068
  226PNCE   T1A 2031   5.475   7.361   7.604
  226PNCE   C2A 2032   5.415   7.394   7.150
  226PNCE   C3A 2033   5.345   7.400   6.692
  226PNCE   C1B 2034   5.981   7.222   7.682
  226PNCE   C2B 2035   5.904   7.319   7.263
  226PNCE   C3B 2036   6.077   7.468   6.897
  226PNCE   D4B 2037   6.177   7.766   6.577
  226PNCE   C5B 2038   5.786   7.918   6.437
  226PNCE   C6B 2039   5.309   7.884   6.535
  227XCA    COO 2040   9.302  13.814   5.061
  227XCA     C1 2041   9.094  13.745   5.498
  227XCA     C2 2042   9.067  13.925   5.930
  227XCA     C3 2043   8.900  13.965   6.362
  227XCA     C4 2044   8.983  14.152   6.775
  227XCA     C5 2045   9.186  14.487   7.048
  227XCA     C6 2046   9.226  14.745   7.421
  228PNCE   AM1 2047  12.591  11.282   8.490
  228PNCE   AM2 2048  12.929  11.194   8.512
  228PNCE   T1A 2049  12.378  11.027   8.167
  228PNCE   C2A 2050  12.339  10.806   7.763
  228PNCE   C3A 2051  12.215  10.839   7.323
  228PNCE   C1B 2052  12.893  10.999   8.094
  228PNCE   C2B 2053  12.910  10.961   7.643
  228PNCE   C3B 2054  12.885  10.929   7.206
  228PNCE   D4B 2055  12.868  10.604   6.925
  228PNCE   C5B 2056  12.854  10.639   6.484
  228PNCE   C6B 2057  12.781  10.918   6.107
  229CHOL   ROH 2058   4.260  11.222   7.291
  229CHOL    R1 2059   4.262  11.168   7.013
  229CHOL    R2 2060   4.126  10.955   6.903
  229CHOL    R3 2061   4.016  11.147   6.746
  229CHOL    R4 2062   3.956  10.896   6.608
  229CHOL    R5 2063   4.053  11.071   6.522
  229CHOL    C1 2064   3.753  11.043   6.289
  229CHOL    C2 2065   3.623  10.937   5.899
  230XCA    COO 2066   4.241  14.760   8.614
  230XCA     C1 2067   4.585  14.813   8.333
  230XCA     C2 2068   4.755  15.179   8.118
  230XCA     C3 2069   4.985  15.257   7.755
  230XCA     C4 2070   5.211  15.385   7.404
  230XCA     C5 2071   5.530  15.395   7.086
  230XCA     C6 2072   5.770  15.382   6.682
  231CHOL   ROH 2073  14.426   0.631   5.122
  231CHOL    R1 2074  14.312   0.766   5.343
  231CHOL    R2 2075  14.040   0.813   5.364
  231CHOL    R3 2076  14.070   0.689   5.604
  231CHOL    R4 2077  13.821   0.842   5.629
  231CHOL    R5 2078  13.992   0.850   5.764
  231CHOL    C1 2079  13.720   0.743   6.009
  231CHOL    C2 2080  13.459   0.745   6.312
  232PNCE   AM1 2081  13.329   9.286   8.577
  232PNCE   AM2 2082  13.106   9.500   8.385
  232PNCE   T1A 2083  13.164   9.002   8.245
  232PNCE   C2A 2084  13.027   8.614   8.003
  232PNCE   C3A 2085  13.026   8.426   7.579
  232PNCE   C1B 2086  12.959   9.499   7.935
  232PNCE   C2B 2087  13.104   9.288   7.538
  232PNCE   C3B 2088  13.147   9.198   7.071
  232PNCE   D4B 2089  13.261   9.147   6.618
  232PNCE   C5B 2090  13.225   8.698   6.417
  232PNCE   C6B 2091  12.845   8.441   6.232
  233PNCE   AM1 2092  14.742   5.165   8.070
  233PNCE   AM2 2093  14.864   5.514   7.960
  233PNCE   T1A 2094  14.726   4.848   7.701
  233PNCE   C2A 2095  14.964   4.589   7.349
  233PNCE   C3A 2096  15.109   4.518   6.897
  233PNCE   C1B 2097  14.884   5.580   7.494
  233PNCE   C2B 2098  14.960   5.522   7.068
  233PNCE   C3B 2099  15.345   5.363   6.845
  233PNCE   D4B 2100  15.480   5.078   6.489
  233PNCE   C5B 2101  15.367   4.598   6.447
  233PNCE   C6B 2102  15.102   4.254   6.302
  234CHOL   ROH 2103   1.370   4.202   8.672
  234CHOL    R1 2104   1.431   4.228   8.397
  234CHOL    R2 2105   1.456   4.010   8.229
  234CHOL    R3 2106   1.271   4.143   8.081
  234CHOL    R4 2107   1.436   4.001   7.884
  234CHOL    R5 2108   1.391   4.214   7.886
  234CHOL    C1 2109   1.251   4.121   7.544
  234CHOL    C2 2110   1.538   4.145   7.264
  235PNCE   AM1 2111   8.025   2.829   8.821
  235PNCE   AM2 2112   7.688   2.933   8.839
  235PNCE   T1A 2113   7.856   2.872   8.350
  235PNCE   C2A 2114   7.881   2.934   7.876
  235PNCE   C3A 2115   7.990   2.751   7.469
  235PNCE   C1B 2116   7.502   3.193   8.527
  235PNCE   C2B 2117   7.689   3.421   8.196
  235PNCE   C3B 2118   7.812   3.517   7.782
  235PNCE   D4B 2119   7.671   3.367   7.399
  235PNCE   C5B 2120   7.507   2.958   7.460
  235PNCE   C6B 2121   7.466   2.549   7.592
  236XCA    COO 2122  10.022   3.778   8.420
  236XCA     C1 2123  10.451   3.683   8.541
  236XCA     C2 2124  10.829   3.414   8.604
  236XCA     C3 2125  11.132   3.257   8.317
  236XCA     C4 2126  11.244   3.018   7.936
  236XCA     C5 2127  11.361   2.942   7.523
  236XCA     C6 2128  11.308   2.603   7.231
  237CHOL   ROH 2129   3.587   3.475   8.424
  237CHOL    R1 2130   3.803   3.302   8.364
  237CHOL    R2 2131   3.914   3.283   8.112
  237CHOL    R3 2132   4.145   3.337   8.244
  237CHOL    R4 2133   4.227   3.176   8.014
  237CHOL    R5 2134   4.274   3.136   8.223
  237CHOL    C1 2135   4.627   3.164   8.081
  237CHOL    C2 2136   4.793   3.043   7.735
  238CHOL   ROH 2137   5.712  13.193   8.070
  238CHOL    R1 2138   5.726  13.441   7.934
  238CHOL    R2 2139   5.817  13.463   7.674
  238CHOL    R3 2140   5.578  13.588   7.636
  238CHOL    R4 2141   5.751  13.690   7.422
  238CHOL    R5 2142   5.637  13.809   7.566
  238CHOL    C1 2143   5.488  13.940   7.240
  238CHOL    C2 2144   5.506  14.144   6.918
  239CHOL   ROH 2145   9.941   1.327   8.820
  239CHOL    R1 2146   9.865   1.199   8.580
  239CHOL    R2 2147   9.905   1.313   8.331
  239CHOL    R3 2148  10.032   1.078   8.280
  239CHOL    R4 2149   9.921   1.161   8.021
  239CHOL    R5 2150   9.892   0.969   8.119
  239CHOL    C1 2151  10.051   0.853   7.792
  239CHOL    C2 2152  10.142   0.495   7.622
  240XCA    COO 2153   9.951   6.858   4.454
  240XCA     C1 2154   9.942   7.103   4.843
  240XCA     C2 2155  10.111   7.300   5.225
  240XCA     C3 2156  10.105   7.398   5.668
  240XCA     C4 2157   9.798   7.431   6.006
  240XCA     C5 2158   9.778   7.243   6.421
  240XCA     C6 2159   9.579   7.297   6.817
  241PNCE   AM1 2160   8.548   1.711   8.969
  241PNCE   AM2 2161   8.744   1.586   9.189
  241PNCE   T1A 2162   8.465   1.464   8.577
  241PNCE   C2A 2163   8.246   1.396   8.179
  241PNCE   C3A 2164   8.039   1.262   7.797
  241PNCE   C1B 2165   8.753   1.213   8.936
  241PNCE   C2B 2166   8.516   0.922   8.704
  241PNCE   C3B 2167   8.573   0.608   8.393
  241PNCE   D4B 2168   8.462   0.229   8.230
  241PNCE   C5B 2169   8.456   0.089   7.796
  241PNCE   C6B 2170   8.319  15.503   7.700
  242CHOL   ROH 2171  15.536  13.679   6.989
  242CHOL    R1 2172  15.719  13.851   7.121
  242CHOL    R2 2173  15.720  13.885   7.395
  242CHOL    R3 2174   0.152  13.816   7.370
  242CHOL    R4 2175   0.133  13.942   7.634
  242CHOL    R5 2176   0.271  13.996   7.474
  242CHOL    C1 2177   0.520  13.910   7.751
  242CHOL    C2 2178   0.445  13.878   8.126
  243XCA    COO 2179  13.260  15.010   9.098
  243XCA     C1 2180  13.407  14.885   8.651
  243XCA     C2 2181  13.305  14.874   8.205
  243XCA     C3 2182  13.123  14.629   7.876
  243XCA     C4 2183  12.869  14.483   7.569
  243XCA     C5 2184  12.498  14.539   7.360
  243XCA     C6 2185  12.037  14.452   7.423
  244PNCE   AM1 2186   9.283  13.104   9.357
  244PNCE   AM2 2187   9.254  12.747   9.248
  244PNCE   T1A 2188   9.263  13.368   8.973
  244PNCE   C2A 2189   9.199  13.503   8.551
  244PNCE   C3A 2190   8.909  13.306   8.250
  244PNCE   C1B 2191   8.983  12.572   8.893
  244PNCE   C2B 2192   8.974  12.360   8.465
  244PNCE   C3B 2193   9.223  12.043   8.251
  244PNCE   D4B 2194   9.295  11.978   7.804
  244PNCE   C5B 2195   9.740  11.989   7.594
  244PNCE   C6B 2196  10.189  12.035   7.472
  245PNCE   AM1 2197   1.817  15.267   8.937
  245PNCE   AM2 2198   2.124  15.169   8.777
  245PNCE   T1A 2199   1.423  15.457   8.716
  245PNCE   C2A 2200   1.064  15.544   8.417
  245PNCE   C3A 2201   1.059  15.606   7.958
  245PNCE   C1B 2202   2.312  15.233   8.361
  245PNCE   C2B 2203   2.324  15.267   7.919
  245PNCE   C3B 2204   2.073  15.222   7.536
  245PNCE   D4B 2205   1.933  14.916   7.194
  245PNCE   C5B 2206   1.575  14.991   6.899
  245PNCE   C6B 2207   1.354  15.258   6.594
  246CHOL   ROH 2208   6.398  10.801   4.568
  246CHOL    R1 2209   6.283  10.812   4.826
  246CHOL    R2 2210   6.325  10.615   5.016
  246CHOL    R3 2211   6.405  10.825   5.169
  246CHOL    R4 2212   6.319  10.621   5.361
  246CHOL    R5 2213   6.250  10.828   5.352
  246CHOL    C1 2214   6.390  10.821   5.707
  246CHOL    C2 2215   6.448  11.036   6.057
  247XCA    COO 2216   2.201  12.857   4.529
  247XCA     C1 2217   2.095  12.630   4.895
  247XCA     C2 2218   1.935  12.452   5.247
  247XCA     C3 2219   2.039  12.446   5.616
  247XCA     C4 2220   2.133  12.536   6.000
  247XCA     C5 2221   2.311  12.780   6.297
  247XCA     C6 2222   2.444  12.782   6.695
  248CHOL   ROH 2223   8.452  14.233   5.260
  248CHOL    R1 2224   8.492  14.160   5.531
  248CHOL    R2 2225   8.717  14.233   5.673
  248CHOL    R3 2226   8.535  14.334   5.847
  248CHOL    R4 2227   8.780  14.302   6.006
  248CHOL    R5 2228   8.583  14.223   6.054
  248CHOL    C1 2229   8.646  14.437   6.363
  248CHOL    C2 2230   8.846  14.639   6.675
  249XCA    COO 2231  14.132   8.163   3.573
  249XCA     C1 2232  13.954   8.177   4.010
  249XCA     C2 2233  13.702   7.937   4.330
  249XCA     C3 2234  13.331   7.988   4.562
  249XCA     C4 2235  13.227   7.955   4.982
  249XCA     C5 2236  13.058   7.924   5.368
  249XCA     C6 2237  12.968   8.220   5.702
  250CHOL   ROH 2238  10.594   4.529   6.381
  250CHOL    R1 2239  10.786   4.323   6.409
  250CHOL    R2 2240  10.727   4.078   6.520
  250CHOL    R3 2241  10.829   3.983   6.287
  250CHOL    R4 2242  10.885   3.773   6.483
  250CHOL    R5 2243  11.029   3.869   6.352
  250CHOL    C1 2244  11.073   3.506   6.243
  250CHOL    C2 2245  11.318   3.360   6.495
  251XCA    COO 2246   4.424   1.617   9.346
  251XCA     C1 2247   4.611   1.794   8.956
  251XCA     C2 2248   4.857   1.828   8.555
  251XCA     C3 2249   5.159   2.039   8.248
  251XCA     C4 2250   5.511   1.793   8.055
  251XCA     C5 2251   5.650   1.600   7.654
  251XCA     C6 2252   5.843   1.409   7.287
  252XCA    COO 2253  10.093   8.532   8.698
  252XCA     C1 2254  10.150   8.949   8.459
  252XCA     C2 2255   9.847   9.215   8.220
  252XCA     C3 2256   9.813   9.274   7.774
  252XCA     C4 2257   9.739   9.213   7.325
  252XCA     C5 2258   9.614   9.317   6.885
  252XCA     C6 2259   9.530   9.252   6.462
  253PNCE   AM1 2260   9.616   7.563   8.181
  253PNCE   AM2 2261   9.945   7.474   8.264
  253PNCE   T1A 2262   9.546   7.121   8.017
  253PNCE   C2A 2263   9.325   6.790   7.754
  253PNCE   C3A 2264   8.950   6.596   7.624
  253PNCE   C1B 2265  10.091   7.434   7.833
  253PNCE   C2B 2266  10.463   7.329   7.576
  253PNCE   C3B 2267  10.572   7.595   7.263
  253PNCE   D4B 2268  10.423   7.722   6.922
  253PNCE   C5B 2269  10.697   7.570   6.591
  253PNCE   C6B 2270  10.834   7.473   6.163
  254XCA    COO 2271   2.644   0.247   4.624
  254XCA     C1 2272   2.461   0.481   4.994
  254XCA     C2 2273   2.468   0.578   5.433
  254XCA     C3 2274   2.533   0.745   5.821
  254XCA     C4 2275   2.873   0.938   6.007
  254XCA     C5 2276   3.243   1.018   6.256
  254XCA     C6 2277   3.660   1.083   6.506
  255CHOL   ROH 2278  13.872   6.708   7.750
  255CHOL    R1 2279  13.901   6.782   7.478
  255CHOL    R2 2280  14.086   6.664   7.310
  255CHOL    R3 2281  13.869   6.618   7.154
  255CHOL    R4 2282  14.095   6.617   6.968
  255CHOL    R5 2283  13.914   6.737   6.952
  255CHOL    C1 2284  13.896   6.545   6.622
  255CHOL    C2 2285  13.616   6.385   6.337
  256PNCE   AM1 2286   2.014  12.658   8.368
  256PNCE   AM2 2287   2.269  12.940   8.331
  256PNCE   T1A 2288   1.944  12.520   7.907
  256PNCE   C2A 2289   1.676  12.438   7.551
  256PNCE   C3A 2290   1.650  12.360   7.108
  256PNCE   C1B 2291   2.293  13.034   7.850
  256PNCE   C2B 2292   2.379  12.956   7.394
  256PNCE   C3B 2293   2.520  12.616   7.152
  256PNCE   D4B 2294   2.392  12.241   6.895
  256PNCE   C5B 2295   2.481  11.806   7.009
  256PNCE   C6B 2296   2.801  11.502   7.191
  257PNCE   AM1 2297  12.346  14.327   9.561
  257PNCE   AM2 2298  12.191  14.552   9.803
  257PNCE   T1A 2299  11.927  14.290   9.408
  257PNCE   C2A 2300  11.642  14.550   9.190
  257PNCE   C3A 2301  11.432  14.920   9.068
  257PNCE   C1B 2302  12.165  14.762   9.387
  257PNCE   C2B 2303  12.067  15.028   9.060
  257PNCE   C3B 2304  12.059  15.140   8.640
  257PNCE   D4B 2305  11.843  15.472   8.421
  257PNCE   C5B 2306  11.462  15.698   8.573
  257PNCE   C6B 2307  11.046   0.075   8.662
  258PNCE   AM1 2308   5.038  15.346   8.792
  258PNCE   AM2 2309   5.360  15.318   8.940
  258PNCE   T1A 2310   5.116  15.048   8.444
  258PNCE   C2A 2311   5.347  15.045   8.071
  258PNCE   C3A 2312   5.799  15.018   7.983
  258PNCE   C1B 2313   5.525  15.364   8.488
  258PNCE   C2B 2314   5.536  15.784   8.371
  258PNCE   C3B 2315   5.645   0.324   8.162
  258PNCE   D4B 2316   5.974   0.583   8.088
  258PNCE   C5B 2317   5.982   0.718   7.662
  258PNCE   C6B 2318   6.068   0.949   7.296
  259CHOL   ROH 2319  13.049   5.983   7.896
  259CHOL    R1 2320  13.064   5.831   7.658
  259CHOL    R2 2321  12.908   5.885   7.437
  259CHOL    R3 2322  13.148   5.894   7.309
  259CHOL    R4 2323  12.956   5.823   7.100
  259CHOL    R5 2324  13.138   5.715   7.151
  259CHOL    C1 2325  13.209   5.794   6.785
  259CHOL    C2 2326  13.314   5.950   6.458
  260XCA    COO 2327  10.081   8.606   4.245
  260XCA     C1 2328  10.124   8.652   4.725
  260XCA     C2 2329  10.116   8.792   5.172
  260XCA     C3 2330  10.013   8.852   5.603
  260XCA     C4 2331   9.712   8.978   5.939
  260XCA     C5 2332   9.406   8.834   6.214
  260XCA     C6 2333   9.229   8.543   6.552
  261PNCE   AM1 2334   5.147  10.520   7.356
  261PNCE   AM2 2335   5.034  10.836   7.339
  261PNCE   T1A 2336   5.317  10.565   6.939
  261PNCE   C2A 2337   5.260  10.389   6.560
  261PNCE   C3A 2338   5.448  10.305   6.214
  261PNCE   C1B 2339   5.247  11.082   7.040
  261PNCE   C2B 2340   5.186  11.506   6.903
  261PNCE   C3B 2341   5.339  11.826   6.631
  261PNCE   D4B 2342   5.481  11.960   6.232
  261PNCE   C5B 2343   5.335  11.692   5.881
  261PNCE   C6B 2344   5.342  11.781   5.440
  262CHOL   ROH 2345   5.488   4.466   7.491
  262CHOL    R1 2346   5.387   4.397   7.236
  262CHOL    R2 2347   5.246   4.164   7.190
  262CHOL    R3 2348   5.060   4.335   7.089
  262CHOL    R4 2349   4.997   4.076   6.968
  262CHOL    R5 2350   5.030   4.264   6.863
  262CHOL    C1 2351   4.676   4.186   6.744
  262CHOL    C2 2352   4.301   4.182   6.838
  263PNCE   AM1 2353  13.974   0.730   7.291
  263PNCE   AM2 2354  13.912   0.688   6.940
  263PNCE   T1A 2355  14.441   0.817   7.162
  263PNCE   C2A 2356  14.926   0.779   7.202
  263PNCE   C3A 2357  15.341   0.558   7.286
  263PNCE   C1B 2358  14.224   0.347   6.996
  263PNCE   C2B 2359  14.434  15.780   7.121
  263PNCE   C3B 2360  14.855  15.580   7.053
  263PNCE   D4B 2361  15.280  15.472   7.022
  263PNCE   C5B 2362  15.541  15.463   6.631
  263PNCE   C6B 2363  15.802  15.472   6.232
  264CHOL   ROH 2364   7.702  12.080   8.855
  264CHOL    R1 2365   7.681  12.191   8.595
  264CHOL    R2 2366   7.745  12.454   8.540
  264CHOL    R3 2367   7.907  12.342   8.353
  264CHOL    R4 2368   7.851  12.611   8.251
  264CHOL    R5 2369   7.823  12.423   8.145
  264CHOL    C1 2370   8.066  12.597   7.908
  264CHOL    C2 2371   8.238  12.932   7.670
  265XCA    COO 2372   0.909   3.180   9.085
  265XCA     C1 2373   0.962   3.195   8.600
  265XCA     C2 2374   1.006   3.058   8.153
  265XCA     C3 2375   0.981   2.707   7.855
  265XCA     C4 2376   1.188   2.462   7.473
  265XCA     C5 2377   1.197   2.392   7.010
  265XCA     C6 2378   0.928   2.376   6.642
  266PNCE   AM1 2379  14.075   3.203   8.265
  266PNCE   AM2 2380  13.897   2.929   8.383
  266PNCE   T1A 2381  13.668   3.424   8.126
  266PNCE   C2A 2382  13.281   3.493   7.831
  266PNCE   C3A 2383  13.061   3.637   7.412
  266PNCE   C1B 2384  13.657   2.949   7.971
  266PNCE   C2B 2385  13.265   2.961   7.714
  266PNCE   C3B 2386  13.067   2.903   7.313
  266PNCE   D4B 2387  12.902   3.226   7.078
  266PNCE   C5B 2388  12.657   3.198   6.676
  266PNCE   C6B 2389  12.388   3.311   6.313
  267PNCE   AM1 2390   7.570   7.617   8.196
  267PNCE   AM2 2391   7.335   7.506   8.466
  267PNCE   T1A 2392   7.829   7.864   7.929
  267PNCE   C2A 2393   7.764   8.074   7.526
  267PNCE   C3A 2394   7.661   8.050   7.088
  267PNCE   C1B 2395   7.052   7.516   8.102
  267PNCE   C2B 2396   6.933   7.742   7.714
  267PNCE   C3B 2397   6.675   7.850   7.371
  267PNCE   D4B 2398   6.535   7.816   6.947
  267PNCE   C5B 2399   6.777   7.938   6.561
  267PNCE   C6B 2400   6.484   7.944   6.184
  268CHOL   ROH 2401   4.604  11.737   5.032
  268CHOL    R1 2402   4.677  11.991   5.133
  268CHOL    R2 2403   4.668  12.052   5.402
  268CHOL    R3 2404   4.927  12.123   5.362
  268CHOL    R4 2405   4.841  12.283   5.592
  268CHOL    R5 2406   4.933  12.358   5.409
  268CHOL    C1 2407   5.186  12.484   5.665
  268CHOL    C2 2408   5.373  12.530   6.045
  269XCA    COO 2409   8.408   3.474   8.828
  269XCA     C1 2410   8.681   3.432   8.460
  269XCA     C2 2411   8.740   3.132   8.120
  269XCA     C3 2412   9.089   3.015   7.878
  269XCA     C4 2413   9.479   3.212   7.837
  269XCA     C5 2414   9.875   3.273   7.657
  269XCA     C6 2415  10.061   3.512   7.301
  270CHOL   ROH 2416   1.027   0.258   8.702
  270CHOL    R1 2417   0.879   0.139   8.492
  270CHOL    R2 2418   0.696   0.279   8.341
  270CHOL    R3 2419   0.843   0.185   8.133
  270CHOL    R4 2420   0.584   0.253   8.015
  270CHOL    R5 2421   0.687   0.062   7.999
  270CHOL    C1 2422   0.658   0.151   7.630
  270CHOL    C2 2423   0.799  15.810   7.270
  271XCA    COO 2424   4.058  11.014   7.775
  271XCA     C1 2425   3.994  10.831   7.341
  271XCA     C2 2426   3.735  10.703   6.995
  271XCA     C3 2427   3.642  10.517   6.614
  271XCA     C4 2428   3.334  10.189   6.481
  271XCA     C5 2429   3.180   9.772   6.301
  271XCA     C6 2430   3.267   9.550   5.904
  272PNCE   AM1 2431   5.781   3.216   8.967
  272PNCE   AM2 2432   5.802   2.886   9.056
  272PNCE   T1A 2433   5.668   3.120   8.501
  272PNCE   C2A 2434   5.836   3.076   8.043
  272PNCE   C3A 2435   6.018   3.014   7.575
  272PNCE   C1B 2436   6.151   2.981   8.696
  272PNCE   C2B 2437   6.401   2.713   8.424
  272PNCE   C3B 2438   6.505   2.380   8.138
  272PNCE   D4B 2439   6.274   2.135   7.909
  272PNCE   C5B 2440   6.216   2.268   7.466
  272PNCE   C6B 2441   6.199   2.657   7.191
  273CHOL   ROH 2442  10.724  12.410   5.590
  273CHOL    R1 2443  10.804  12.324   5.847
  273CHOL    R2 2444  10.958  12.480   6.015
  273CHOL    R3 2445  10.755  12.434   6.191
  273CHOL    R4 2446  10.978  12.526   6.357
  273CHOL    R5 2447  10.863  12.343   6.384
  273CHOL    C1 2448  10.799  12.510   6.721
  273CHOL    C2 2449  10.793  12.760   7.032
  274CHOL   ROH 2450   4.937  10.125   3.976
  274CHOL    R1 2451   4.935  10.140   4.259
  274CHOL    R2 2452   4.754  10.295   4.399
  274CHOL    R3 2453   4.701  10.061   4.526
  274CHOL    R4 2454   4.616  10.269   4.714
  274CHOL    R5 2455   4.753  10.105   4.756
  274CHOL    C1 2456   4.485  10.034   5.018
  274CHOL    C2 2457   4.331  10.229   5.348
  275CHOL   ROH 2458   5.516   8.469   5.796
  275CHOL    R1 2459   5.755   8.620   5.787
  275CHOL    R2 2460   5.878   8.718   6.014
  275CHOL    R3 2461   6.094   8.587   5.914
  275CHOL    R4 2462   6.207   8.804   6.074
  275CHOL    R5 2463   6.252   8.759   5.866
  275CHOL    C1 2464   6.602   8.731   6.016
  275CHOL    C2 2465   6.949   8.838   5.831
  276PNCE   AM1 2466   9.100   3.730   8.547
  276PNCE   AM2 2467   9.445   3.826   8.456
  276PNCE   T1A 2468   8.792   3.927   8.233
  276PNCE   C2A 2469   8.376   3.998   8.101
  276PNCE   C3A 2470   7.990   3.827   8.161
  276PNCE   C1B 2471   9.664   3.686   8.048
  276PNCE   C2B 2472   9.777   3.790   7.610
  276PNCE   C3B 2473   9.799   3.950   7.174
  276PNCE   D4B 2474   9.712   4.372   7.058
  276PNCE   C5B 2475   9.966   4.778   7.190
  276PNCE   C6B 2476   9.937   4.986   7.581
  277PNCE   AM1 2477  10.353   1.593   8.873
  277PNCE   AM2 2478  10.084   1.772   8.882
  277PNCE   T1A 2479  10.367   1.536   8.479
  277PNCE   C2A 2480  10.335   1.433   8.097
  277PNCE   C3A 2481  10.439   1.061   7.969
  277PNCE   C1B 2482   9.912   1.782   8.453
  277PNCE   C2B 2483   9.876   1.682   8.031
  277PNCE   C3B 2484   9.859   1.846   7.633
  277PNCE   D4B 2485   9.565   1.752   7.351
  277PNCE   C5B 2486   9.154   1.946   7.255
  277PNCE   C6B 2487   8.735   1.782   7.312
  278PNCE   AM1 2488   2.556  11.162   8.359
  278PNCE   AM2 2489   2.232  11.241   8.494
  278PNCE   T1A 2490   2.515  11.348   7.896
  278PNCE   C2A 2491   2.443  11.184   7.486
  278PNCE   C3A 2492   2.184  11.142   7.138
  278PNCE   C1B 2493   2.152  11.551   8.184
  278PNCE   C2B 2494   2.018  11.462   7.783
  278PNCE   C3B 2495   1.891  11.493   7.373
  278PNCE   D4B 2496   1.543  11.601   7.130
  278PNCE   C5B 2497   1.234  11.299   7.270
  278PNCE   C6B 2498   1.206  11.077   7.662
  279CHOL   ROH 2499   0.533   7.342   7.647
  279CHOL    R1 2500   0.536   7.556   7.461
  279CHOL    R2 2501   0.549   7.515   7.188
  279CHOL    R3 2502   0.327   7.671   7.187
  279CHOL    R4 2503   0.409   7.657   6.906
  279CHOL    R5 2504   0.372   7.838   7.022
  279CHOL    C1 2505   0.119   7.887   6.740
  279CHOL    C2 2506  15.798   7.646   6.412
  280PNCE   AM1 2507   3.869   2.116   8.834
  280PNCE   AM2 2508   4.098   1.951   9.028
  280PNCE   T1A 2509   3.842   2.262   8.391
  280PNCE   C2A 2510   3.686   2.404   7.976
  280PNCE   C3A 2511   3.749   2.335   7.526
  280PNCE   C1B 2512   4.300   2.030   8.563
  280PNCE   C2B 2513   4.577   2.041   8.174
  280PNCE   C3B 2514   4.838   1.712   8.020
  280PNCE   D4B 2515   5.177   1.480   8.238
  280PNCE   C5B 2516   5.406   1.716   8.569
  280PNCE   C6B 2517   5.577   1.514   8.936
  281XCA    COO 2518   4.865   2.865   5.402
  281XCA     C1 2519   4.911   3.070   5.825
  281XCA     C2 2520   4.985   3.294   6.252
  281XCA     C3 2521   5.270   3.558   6.511
  281XCA     C4 2522   5.596   3.882   6.363
  281XCA     C5 2523   5.806   4.269   6.345
  281XCA     C6 2524   6.050   4.539   6.550
  282CHOL   ROH 2525   9.965   5.591   5.729
  282CHOL    R1 2526  10.131   5.373   5.800
  282CHOL    R2 2527  10.186   5.307   6.062
  282CHOL    R3 2528  10.095   5.062   5.986
  282CHOL    R4 2529  10.239   5.013   6.236
  282CHOL    R5 2530  10.271   4.912   6.046
  282CHOL    C1 2531  10.184   4.613   6.266
  282CHOL    C2 2532  10.304   4.196   6.314
  283CHOL   ROH 2533   6.793   7.935   4.586
  283CHOL    R1 2534   6.634   7.920   4.819
  283CHOL    R2 2535   6.437   7.729   4.852
  283CHOL    R3 2536   6.573   7.674   5.081
  283CHOL    R4 2537   6.301   7.577   5.131
  283CHOL    R5 2538   6.414   7.715   5.256
  283CHOL    C1 2539   6.350   7.437   5.509
  283CHOL    C2 2540   6.103   7.178   5.598
  284CHOL   ROH 2541   6.312   0.368   8.386
  284CHOL    R1 2542   6.424   0.338   8.128
  284CHOL    R2 2543   6.279   0.243   7.913
  284CHOL    R3 2544   6.362   0.474   7.796
  284CHOL    R4 2545   6.295   0.296   7.572
  284CHOL    R5 2546   6.483   0.402   7.603
  284CHOL    C1 2547   6.382   0.544   7.263
  284CHOL    C2 2548   6.597   0.314   6.981
  285PNCE   AM1 2549   1.734  13.901   8.778
  285PNCE   AM2 2550   1.351  13.914   8.732
  285PNCE   T1A 2551   1.694  13.894   8.308
  285PNCE   C2A 2552   1.460  13.625   8.027
  285PNCE   C3A 2553   1.249  13.226   8.057
  285PNCE   C1B 2554   1.200  14.153   8.348
  285PNCE   C2B 2555   1.422  14.281   7.968
  285PNCE   C3B 2556   1.377  14.102   7.556
  285PNCE   D4B 2557   1.483  14.055   7.126
  285PNCE   C5B 2558   1.105  13.943   6.892
  285PNCE   C6B 2559   0.671  13.901   6.735
  286CHOL   ROH 2560  15.672   3.297   4.379
  286CHOL    R1 2561  15.701   3.329   4.659
  286CHOL    R2 2562  15.663   3.571   4.786
  286CHOL    R3 2563  15.489   3.428   4.937
  286CHOL    R4 2564  15.555   3.663   5.101
  286CHOL    R5 2565  15.570   3.454   5.161
  286CHOL    C1 2566  15.328   3.581   5.427
  286CHOL    C2 2567  15.628   3.616   5.622
  287PNCE   AM1 2568   4.531  12.864   8.124
  287PNCE   AM2 2569   4.184  12.803   8.099
  287PNCE   T1A 2570   4.808  12.819   7.735
  287PNCE   C2A 2571   5.112  12.793   7.400
  287PNCE   C3A 2572   5.437  12.527   7.222
  287PNCE   C1B 2573   4.380  12.530   7.748
  287PNCE   C2B 2574   4.783  12.337   7.546
  287PNCE   C3B 2575   5.229  12.346   7.655
  287PNCE   D4B 2576   5.548  12.036   7.580
  287PNCE   C5B 2577   5.757  12.125   7.224
  287PNCE   C6B 2578   6.081  12.145   6.939
  288XCA    COO 2579  10.123  12.243   8.942
  288XCA     C1 2580   9.882  12.507   8.654
  288XCA     C2 2581   9.957  12.567   8.210
  288XCA     C3 2582   9.864  12.896   7.959
  288XCA     C4 2583   9.689  13.219   7.766
  288XCA     C5 2584   9.533  13.545   7.533
  288XCA     C6 2585   9.426  13.631   7.127
  289CHOL   ROH 2586   4.872   9.338   5.747
  289CHOL    R1 2587   5.121   9.419   5.639
  289CHOL    R2 2588   5.142   9.598   5.430
  289CHOL    R3 2589   5.304   9.732   5.602
  289CHOL    R4 2590   5.379   9.832   5.337
  289CHOL    R5 2591   5.513   9.748   5.486
  289CHOL    C1 2592   5.669  10.093   5.444
  289CHOL    C2 2593   5.791  10.504   5.332
  290PNCE   AM1 2594  10.573   6.528   8.165
  290PNCE   AM2 2595  10.755   6.244   8.164
  290PNCE   T1A 2596  10.631   6.395   7.695
  290PNCE   C2A 2597  10.528   6.380   7.247
  290PNCE   C3A 2598  10.435   6.197   6.836
  290PNCE   C1B 2599  10.901   5.884   7.922
  290PNCE   C2B 2600  11.101   5.756   7.524
  290PNCE   C3B 2601  11.249   5.822   7.096
  290PNCE   D4B 2602  11.349   6.123   6.767
  290PNCE   C5B 2603  11.246   5.919   6.404
  290PNCE   C6B 2604  10.842   5.785   6.231
  291XCA    COO 2605  10.260   4.710   8.526
  291XCA     C1 2606  10.153   4.542   8.158
  291XCA     C2 2607  10.202   4.569   7.751
  291XCA     C3 2608   9.873   4.367   7.533
  291XCA     C4 2609   9.447   4.192   7.470
  291XCA     C5 2610   9.224   4.160   7.098
  291XCA     C6 2611   8.905   4.067   6.799
  292CHOL   ROH 2612  10.126  13.757   8.823
  292CHOL    R1 2613  10.251  13.595   8.627
  292CHOL    R2 2614  10.123  13.381   8.508
  292CHOL    R3 2615  10.191  13.509   8.278
  292CHOL    R4 2616  10.130  13.235   8.195
  292CHOL    R5 2617  10.313  13.346   8.152
  292CHOL    C1 2618  10.197  13.271   7.797
  292CHOL    C2 2619  10.158  12.999   7.567
  293CHOL   ROH 2620   8.585   8.460   8.345
  293CHOL    R1 2621   8.470   8.539   8.100
  293CHOL    R2 2622   8.573   8.744   7.946
  293CHOL    R3 2623   8.574   8.555   7.751
  293CHOL    R4 2624   8.562   8.809   7.607
  293CHOL    R5 2625   8.426   8.641   7.584
  293CHOL    C1 2626   8.556   8.669   7.226
  293CHOL    C2 2627   8.643   8.476   6.879
  294PNCE   AM1 2628   8.759   2.223   8.855
  294PNCE   AM2 2629   9.002   1.989   8.997
  294PNCE   T1A 2630   8.535   2.193   8.443
  294PNCE   C2A 2631   8.489   2.184   8.007
  294PNCE   C3A 2632   8.386   2.038   7.590
  294PNCE   C1B 2633   9.111   1.570   8.841
  294PNCE   C2B 2634   9.007   1.309   8.481
  294PNCE   C3B 2635   8.667   1.102   8.252
  294PNCE   D4B 2636   8.515   1.015   7.832
  294PNCE   C5B 2637   8.616   0.615   7.682
  294PNCE   C6B 2638   8.381   0.389   7.323
  295CHOL   ROH 2639   2.206   3.080   8.367
  295CHOL    R1 2640   2.390   2.901   8.248
  295CHOL    R2 2641   2.320   2.729   8.044
  295CHOL    R3 2642   2.529   2.846   7.916
  295CHOL    R4 2643   2.494   2.590   7.779
  295CHOL    R5 2644   2.678   2.665   7.867
  295CHOL    C1 2645   2.791   2.619   7.506
  295CHOL    C2 2646   3.211   2.540   7.329
  296PNCE   AM1 2647   2.059   7.081   4.250
  296PNCE   AM2 2648   2.306   7.279   4.282
  296PNCE   T1A 2649   1.851   7.005   4.623
  296PNCE   C2A 2650   1.702   6.813   5.007
  296PNCE   C3A 2651   1.896   6.670   5.399
  296PNCE   C1B 2652   2.390   7.214   4.737
  296PNCE   C2B 2653   2.325   7.440   5.136
  296PNCE   C3B 2654   2.419   7.766   5.458
  296PNCE   D4B 2655   2.173   7.944   5.826
  296PNCE   C5B 2656   1.878   7.790   6.177
  296PNCE   C6B 2657   1.546   7.600   6.479
  297XCA    COO 2658   2.665   5.976   8.042
  297XCA     C1 2659   2.647   5.766   7.600
  297XCA     C2 2660   2.703   5.719   7.148
  297XCA     C3 2661   2.768   5.435   6.859
  297XCA     C4 2662   3.122   5.301   6.666
  297XCA     C5 2663   3.122   5.168   6.276
  297XCA     C6 2664   3.427   5.310   5.971
  298CHOL   ROH 2665   2.282   1.402   5.012
  298CHOL    R1 2666   2.263   1.377   5.294
  298CHOL    R2 2667   2.196   1.589   5.458
  298CHOL    R3 2668   2.004   1.418   5.546
  298CHOL    R4 2669   1.968   1.660   5.707
  298CHOL    R5 2670   1.993   1.457   5.782
  298CHOL    C1 2671   1.654   1.540   5.936
  298CHOL    C2 2672   1.262   1.474   6.019
  299PNCE   AM1 2673   0.598  15.720   9.263
  299PNCE   AM2 2674   0.331   0.008   9.490
  299PNCE   T1A 2675   0.585   0.195   8.876
  299PNCE   C2A 2676   0.704   0.604   8.672
  299PNCE   C3A 2677   0.611   1.049   8.743
  299PNCE   C1B 2678   0.600   0.383   9.357
  299PNCE   C2B 2679   0.890   0.648   9.147
  299PNCE   C3B 2680   1.191   0.709   8.828
  299PNCE   D4B 2681   1.515   0.581   8.541
  299PNCE   C5B 2682   1.608   0.851   8.194
  299PNCE   C6B 2683   1.525   1.266   7.967
  300XCA    COO 2684   6.101   8.022   8.487
  300XCA     C1 2685   6.212   8.134   8.092
  300XCA     C2 2686   6.380   8.046   7.740
  300XCA     C3 2687   6.426   8.289   7.380
  300XCA     C4 2688   6.807   8.327   7.129
  300XCA     C5 2689   7.001   8.445   6.713
  300XCA     C6 2690   6.969   8.789   6.368
  301CHOL   ROH 2691   1.139  15.011   6.080
  301CHOL    R1 2692   0.954  15.144   6.248
  301CHOL    R2 2693   0.792  15.009   6.426
  301CHOL    R3 2694   0.900  15.182   6.605
  301CHOL    R4 2695   0.638  15.113   6.718
  301CHOL    R5 2696   0.715  15.314   6.681
  301CHOL    C1 2697   0.651  15.337   7.056
  301CHOL    C2 2698   0.409  15.498   7.341
  302CHOL   ROH 2699   8.428  11.839   5.076
  302CHOL    R1 2700   8.523  11.864   5.341
  302CHOL    R2 2701   8.384  11.766   5.559
  302CHOL    R3 2702   8.618  11.638   5.610
  302CHOL    R4 2703   8.488  11.662   5.872
  302CHOL    R5 2704   8.690  11.727   5.821
  302CHOL    C1 2705   8.768  11.481   6.102
  302CHOL    C2 2706   9.040  11.362   6.340
  303XCA    COO 2707   5.450   4.502   8.386
  303XCA     C1 2708   5.325   4.403   7.946
  303XCA     C2 2709   5.046   4.377   7.587
  303XCA     C3 2710   4.848   4.656   7.369
  303XCA     C4 2711   4.734   5.009   7.212
  303XCA     C5 2712   4.501   5.155   6.862
  303XCA     C6 2713   4.361   5.281   6.423
  304PNCE   AM1 2714   5.437   3.595   8.883
  304PNCE   AM2 2715   5.757   3.724   8.995
  304PNCE   T1A 2716   5.267   3.557   8.430
  304PNCE   C2A 2717   5.017   3.477   8.025
  304PNCE   C3A 2718   5.106   3.415   7.560
  304PNCE   C1B 2719   5.796   3.631   8.512
  304PNCE   C2B 2720   5.632   3.562   8.057
  304PNCE   C3B 2721   5.638   3.381   7.639
  304PNCE   D4B 2722   5.817   3.314   7.215
  304PNCE   C5B 2723   6.284   3.229   7.183
  304PNCE   C6B 2724   6.696   3.070   7.047
  305CHOL   ROH 2725   7.295  14.970   8.934
  305CHOL    R1 2726   7.389  14.821   8.713
  305CHOL    R2 2727   7.433  14.934   8.465
  305CHOL    R3 2728   7.680  14.826   8.495
  305CHOL    R4 2729   7.673  14.918   8.217
  305CHOL    R5 2730   7.724  14.718   8.286
  305CHOL    C1 2731   8.045  14.807   8.101
  305CHOL    C2 2732   8.289  14.984   7.814
  306CHOL   ROH 2733   9.135  10.780   5.021
  306CHOL    R1 2734   9.216  10.780   5.292
  306CHOL    R2 2735   9.041  10.837   5.498
  306CHOL    R3 2736   9.127  10.598   5.594
  306CHOL    R4 2737   8.985  10.721   5.819
  306CHOL    R5 2738   9.188  10.643   5.821
  306CHOL    C1 2739   9.033  10.429   6.096
  306CHOL    C2 2740   8.866  10.577   6.433
  307CHOL   ROH 2741  12.255   5.259   8.409
  307CHOL    R1 2742  12.212   5.062   8.210
  307CHOL    R2 2743  11.995   5.069   8.039
  307CHOL    R3 2744  12.187   5.054   7.847
  307CHOL    R4 2745  11.943   4.960   7.715
  307CHOL    R5 2746  12.134   4.856   7.724
  307CHOL    C1 2747  12.093   4.884   7.346
  307CHOL    C2 2748  12.103   4.604   7.009
  308XCA    COO 2749   1.438   6.727   8.314
  308XCA     C1 2750   1.489   6.449   7.957
  308XCA     C2 2751   1.353   6.420   7.509
  308XCA     C3 2752   1.510   6.464   7.080
  308XCA     C4 2753   1.505   6.795   6.746
  308XCA     C5 2754   1.282   7.137   6.503
  308XCA     C6 2755   1.003   7.498   6.399
  309CHOL   ROH 2756  14.800  13.647   6.730
  309CHOL    R1 2757  14.566  13.494   6.682
  309CHOL    R2 2758  14.505  13.390   6.434
  309CHOL    R3 2759  14.489  13.156   6.572
  309CHOL    R4 2760  14.299  13.124   6.352
  309CHOL    R5 2761  14.258  13.096   6.563
  309CHOL    C1 2762  14.165  12.750   6.433
  309CHOL    C2 2763  13.922  12.646   6.746
  310CHOL   ROH 2764   2.316   2.012   5.311
  310CHOL    R1 2765   2.152   2.005   5.541
  310CHOL    R2 2766   2.188   2.175   5.755
  310CHOL    R3 2767   1.926   2.233   5.713
  310CHOL    R4 2768   1.966   2.276   6.000
  310CHOL    R5 2769   1.814   2.150   5.907
  310CHOL    C1 2770   1.590   2.389   6.102
  310CHOL    C2 2771   1.416   2.392   6.467
  311XCA    COO 2772   0.833  13.862   8.909
  311XCA     C1 2773   0.732  14.045   8.512
  311XCA     C2 2774   0.673  14.347   8.198
  311XCA     C3 2775   0.453  14.410   7.816
  311XCA     C4 2776   0.469  14.491   7.378
  311XCA     C5 2777   0.333  14.645   6.956
  311XCA     C6 2778   0.504  14.652   6.536
  312PNCE   AM1 2779   6.883   2.126   8.751
  312PNCE   AM2 2780   6.686   2.328   8.617
  312PNCE   T1A 2781   6.918   1.742   8.548
  312PNCE   C2A 2782   6.707   1.431   8.289
  312PNCE   C3A 2783   6.750   1.023   8.161
  312PNCE   C1B 2784   7.005   2.316   8.288
  312PNCE   C2B 2785   7.082   2.245   7.863
  312PNCE   C3B 2786   7.090   2.247   7.420
  312PNCE   D4B 2787   7.383   2.335   7.110
  312PNCE   C5B 2788   7.632   2.700   7.037
  312PNCE   C6B 2789   7.763   3.121   6.954
  313PNCE   AM1 2790   8.573  10.880   8.778
  313PNCE   AM2 2791   8.306  11.057   8.658
  313PNCE   T1A 2792   8.881  10.657   8.524
  313PNCE   C2A 2793   9.168  10.550   8.189
  313PNCE   C3A 2794   9.557  10.607   7.970
  313PNCE   C1B 2795   8.218  11.018   8.215
  313PNCE   C2B 2796   8.312  10.687   7.933
  313PNCE   C3B 2797   8.700  10.654   7.720
  313PNCE   D4B 2798   9.084  10.476   7.675
  313PNCE   C5B 2799   9.419  10.652   7.476
  313PNCE   C6B 2800   9.505  11.011   7.174
  314PNCE   AM1 2801   8.227  15.056   9.354
  314PNCE   AM2 2802   8.496  14.901   9.473
  314PNCE   T1A 2803   7.878  14.779   9.411
  314PNCE   C2A 2804   7.517  14.629   9.143
  314PNCE   C3A 2805   7.074  14.521   8.879
  314PNCE   C1B 2806   8.629  15.069   9.021
  314PNCE   C2B 2807   8.684  15.230   8.581
  314PNCE   C3B 2808   8.628  15.566   8.199
  314PNCE   D4B 2809   8.830  15.495   7.817
  314PNCE   C5B 2810   8.811  15.756   7.455
  314PNCE   C6B 2811   8.907   0.364   7.374
  315XCA    COO 2812  11.485  13.623   9.366
  315XCA     C1 2813  11.484  14.053   9.197
  315XCA     C2 2814  11.286  14.326   8.883
  315XCA     C3 2815  11.422  14.631   8.603
  315XCA     C4 2816  11.430  14.888   8.210
  315XCA     C5 2817  11.443  15.333   8.128
  315XCA     C6 2818  11.462  15.795   8.034
  316PNCE   AM1 2819   3.288   0.602   9.305
  316PNCE   AM2 2820   3.577   0.758   9.196
  316PNCE   T1A 2821   3.197   0.555   8.834
  316PNCE   C2A 2822   2.837   0.653   8.565
  316PNCE   C3A 2823   2.423   0.790   8.688
  316PNCE   C1B 2824   3.358   1.042   8.888
  316PNCE   C2B 2825   3.192   1.007   8.481
  316PNCE   C3B 2826   3.044   0.931   8.052
  316PNCE   D4B 2827   3.161   0.982   7.597
  316PNCE   C5B 2828   2.840   1.046   7.273
  316PNCE   C6B 2829   2.513   0.952   6.996
  317XCA    COO 2830   9.142   3.610   8.033
  317XCA     C1 2831   9.291   3.626   7.598
  317XCA     C2 2832   9.502   3.525   7.222
  317XCA     C3 2833   9.776   3.486   6.894
  317XCA     C4 2834  10.186   3.635   6.801
  317XCA     C5 2835  10.395   3.726   6.431
  317XCA     C6 2836  10.494   3.838   5.962
  318PNCE   AM1 2837  10.252  13.296   9.015
  318PNCE   AM2 2838  10.573  13.417   8.970
  318PNCE   T1A 2839   9.924  12.994   8.967
  318PNCE   C2A 2840   9.506  12.916   8.860
  318PNCE   C3A 2841   9.113  12.983   8.625
  318PNCE   C1B 2842  10.585  13.253   8.537
  318PNCE   C2B 2843  10.672  12.847   8.374
  318PNCE   C3B 2844  10.894  12.668   8.057
  318PNCE   D4B 2845  11.199  12.797   7.807
  318PNCE   C5B 2846  11.206  13.233   7.719
  318PNCE   C6B 2847  11.187  13.596   7.393
  319PNCE   AM1 2848  11.259   2.350   8.543
  319PNCE   AM2 2849  10.910   2.338   8.426
  319PNCE   T1A 2850  11.357   2.795   8.460
  319PNCE   C2A 2851  11.635   3.100   8.245
  319PNCE   C3A 2852  11.718   3.193   7.820
  319PNCE   C1B 2853  11.159   2.514   8.057
  319PNCE   C2B 2854  11.220   2.338   7.644
  319PNCE   C3B 2855  10.973   2.039   7.362
  319PNCE   D4B 2856  10.915   1.604   7.164
  319PNCE   C5B 2857  10.545   1.341   7.164
  319PNCE   C6B 2858  10.347   1.013   7.440
  320CHOL   ROH 2859   8.227   2.554   8.489
  320CHOL    R1 2860   8.130   2.401   8.272
  320CHOL    R2 2861   7.933   2.492   8.101
  320CHOL    R3 2862   8.116   2.434   7.910
  320CHOL    R4 2863   7.858   2.387   7.781
  320CHOL    R5 2864   8.024   2.247   7.793
  320CHOL    C1 2865   7.987   2.271   7.414
  320CHOL    C2 2866   7.898   2.251   7.032
  321CHOL   ROH 2867   9.400  11.317   4.669
  321CHOL    R1 2868   9.447  11.348   4.946
  321CHOL    R2 2869   9.382  11.153   5.131
  321CHOL    R3 2870   9.643  11.178   5.202
  321CHOL    R4 2871   9.510  11.076   5.443
  321CHOL    R5 2872   9.635  11.253   5.429
  321CHOL    C1 2873   9.829  11.054   5.691
  321CHOL    C2 2874   9.756  10.957   6.083
  322CHOL   ROH 2875   3.686   1.527   5.066
  322CHOL    R1 2876   3.708   1.556   5.347
  322CHOL    R2 2877   3.811   1.783   5.466
  322CHOL    R3 2878   3.575   1.779   5.601
  322CHOL    R4 2879   3.764   1.908   5.785
  322CHOL    R5 2880   3.638   1.736   5.828
  322CHOL    C1 2881   3.515   1.978   6.097
  322CHOL    C2 2882   3.492   2.139   6.396
  323XCA    COO 2883   2.052   3.547   5.008
  323XCA     C1 2884   2.268   3.555   5.383
  323XCA     C2 2885   2.140   3.598   5.787
  323XCA     C3 2886   1.836   3.620   6.115
  323XCA     C4 2887   1.581   3.628   6.461
  323XCA     C5 2888   1.546   3.437   6.854
  323XCA     C6 2889   1.468   3.257   7.243
  324XCA    COO 2890  12.554   5.403   5.142
  324XCA     C1 2891  12.795   5.544   5.539
  324XCA     C2 2892  13.094   5.732   5.839
  324XCA     C3 2893  13.352   5.536   6.135
  324XCA     C4 2894  13.382   5.107   6.306
  324XCA     C5 2895  13.433   4.695   6.521
  324XCA     C6 2896  13.795   4.437   6.620
  325CHOL   ROH 2897   0.272   3.328   4.740
  325CHOL    R1 2898   0.177   3.111   4.895
  325CHOL    R2 2899   0.343   2.907   4.981
  325CHOL    R3 2900   0.243   2.973   5.225
  325CHOL    R4 2901   0.303   2.686   5.244
  325CHOL    R5 2902   0.112   2.782   5.289
  325CHOL    C1 2903   0.186   2.619   5.626
  325CHOL    C2 2904  15.604   2.623   5.736
  326PNCE   AM1 2905   5.624  10.921   8.278
  326PNCE   AM2 2906   5.530  11.272   8.384
  326PNCE   T1A 2907   6.085  10.787   8.244
  326PNCE   C2A 2908   6.446  10.668   8.478
  326PNCE   C3A 2909   6.633  10.724   8.915
  326PNCE   C1B 2910   5.914  11.449   8.166
  326PNCE   C2B 2911   6.237  11.518   7.819
  326PNCE   C3B 2912   6.498  11.568   7.425
  326PNCE   D4B 2913   6.832  11.628   7.065
  326PNCE   C5B 2914   6.717  11.505   6.695
  326PNCE   C6B 2915   6.444  11.181   6.576
  327PNCE   AM1 2916  11.692   1.155   8.586
  327PNCE   AM2 2917  11.343   1.091   8.586
  327PNCE   T1A 2918  12.019   1.379   8.420
  327PNCE   C2A 2919  12.232   1.547   8.061
  327PNCE   C3A 2920  12.242   1.949   7.835
  327PNCE   C1B 2921  11.432   0.891   8.152
  327PNCE   C2B 2922  11.495   0.934   7.692
  327PNCE   C3B 2923  11.298   0.682   7.359
  327PNCE   D4B 2924  11.277   0.224   7.258
  327PNCE   C5B 2925  11.581  15.782   7.502
  327PNCE   C6B 2926  11.708  15.386   7.702
  328CHOL   ROH 2927   7.096  15.338   8.849
  328CHOL    R1 2928   7.336  15.429   8.729
  328CHOL    R2 2929   7.566  15.276   8.723
  328CHOL    R3 2930   7.551  15.324   8.455
  328CHOL    R4 2931   7.822  15.220   8.497
  328CHOL    R5 2932   7.768  15.406   8.397
  328CHOL    C1 2933   7.957  15.232   8.115
  328CHOL    C2 2934   8.280  15.223   8.262
  329CHOL   ROH 2935  12.690   4.467   6.570
  329CHOL    R1 2936  12.418   4.537   6.599
  329CHOL    R2 2937  12.240   4.537   6.388
  329CHOL    R3 2938  12.095   4.375   6.552
  329CHOL    R4 2939  11.896   4.506   6.383
  329CHOL    R5 2940  11.898   4.500   6.600
  329CHOL    C1 2941  11.560   4.337   6.533
  329CHOL    C2 2942  11.187   4.233   6.632
  330PNCE   AM1 2943  10.054  11.713   8.667
  330PNCE   AM2 2944   9.780  11.483   8.702
  330PNCE   T1A 2945  10.147  12.100   8.424
  330PNCE   C2A 2946  10.447  12.377   8.236
  330PNCE   C3A 2947  10.551  12.362   7.801
  330PNCE   C1B 2948   9.546  11.617   8.303
  330PNCE   C2B 2949   9.571  11.538   7.889
  330PNCE   C3B 2950   9.480  11.504   7.489
  330PNCE   D4B 2951   9.734  11.481   7.151
  330PNCE   C5B 2952   9.972  11.830   7.078
  330PNCE   C6B 2953  10.398  11.874   6.988
  331PNCE   AM1 2954  14.814   1.205   8.690
  331PNCE   AM2 2955  14.823   1.191   8.302
  331PNCE   T1A 2956  15.286   1.208   8.602
  331PNCE   C2A 2957  15.657   1.353   8.343
  331PNCE   C3A 2958   0.144   1.679   8.248
  331PNCE   C1B 2959  14.865   1.359   7.850
  331PNCE   C2B 2960  15.045   1.254   7.420
  331PNCE   C3B 2961  15.327   1.061   7.048
  331PNCE   D4B 2962  15.745   1.164   6.884
  331PNCE   C5B 2963   0.152   0.936   6.599
  331PNCE   C6B 2964   0.351   1.213   6.392
  332PNCE   AM1 2965  13.246   5.134   8.107
  332PNCE   AM2 2966  13.030   4.905   7.923
  332PNCE   T1A 2967  13.378   5.160   7.651
  332PNCE   C2A 2968  13.434   5.218   7.207
  332PNCE   C3A 2969  13.246   5.278   6.792
  332PNCE   C1B 2970  12.903   4.853   7.472
  332PNCE   C2B 2971  12.995   4.881   7.025
  332PNCE   C3B 2972  12.966   4.905   6.567
  332PNCE   D4B 2973  13.044   4.650   6.171
  332PNCE   C5B 2974  13.438   4.711   5.949
  332PNCE   C6B 2975  13.526   4.751   5.492
  333PNCE   AM1 2976  10.762   1.882   8.614
  333PNCE   AM2 2977  11.107   1.864   8.688
  333PNCE   T1A 2978  10.735   1.771   8.179
  333PNCE   C2A 2979  10.800   1.683   7.733
  333PNCE   C3A 2980  10.751   1.283   7.617
  333PNCE   C1B 2981  10.927   1.415   8.724
  333PNCE   C2B 2982  10.855   0.957   8.810
  333PNCE   C3B 2983  10.706   0.526   8.809
  333PNCE   D4B 2984  10.564   0.255   8.484
  333PNCE   C5B 2985  10.887   0.246   8.185
  333PNCE   C6B 2986  11.204   0.433   7.905
  334PNCE   AM1 2987   8.717   9.288   8.606
  334PNCE   AM2 2988   8.937   9.458   8.410
  334PNCE   T1A 2989   8.895   8.904   8.412
  334PNCE   C2A 2990   9.055   8.760   8.040
  334PNCE   C3A 2991   9.042   8.459   7.740
  334PNCE   C1B 2992   8.691   9.226   8.082
  334PNCE   C2B 2993   8.449   9.254   7.680
  334PNCE   C3B 2994   8.549   9.158   7.262
  334PNCE   D4B 2995   8.822   8.967   6.952
  334PNCE   C5B 2996   9.260   8.855   6.970
  334PNCE   C6B 2997   9.642   8.800   6.786
  335PNCE   AM1 2998   1.660   1.838   9.107
  335PNCE   AM2 2999   1.522   2.172   9.125
  335PNCE   T1A 3000   1.706   1.733   8.676
  335PNCE   C2A 3001   1.727   1.846   8.252
  335PNCE   C3A 3002   1.840   2.275   8.023
  335PNCE   C1B 3003   1.160   2.271   8.879
  335PNCE   C2B 3004   0.792   2.103   8.737
  335PNCE   C3B 3005   0.564   1.961   8.390
  335PNCE   D4B 3006   0.700   1.774   8.008
  335PNCE   C5B 3007   0.594   1.920   7.590
  335PNCE   C6B 3008   0.273   1.793   7.301
  336CHOL   ROH 3009   4.405  15.337   4.991
  336CHOL    R1 3010   4.296  15.241   5.234
  336CHOL    R2 3011   4.160  15.001   5.251
  336CHOL    R3 3012   4.341  14.949   5.447
  336CHOL    R4 3013   4.114  14.774   5.508
  336CHOL    R5 3014   4.209  14.916   5.643
  336CHOL    C1 3015   4.258  14.593   5.841
  336CHOL    C2 3016   4.318  14.445   6.180
  337XCA    COO 3017   8.841   7.805   4.426
  337XCA     C1 3018   8.848   7.806   4.908
  337XCA     C2 3019   8.797   7.748   5.369
  337XCA     C3 3020   8.682   7.564   5.770
  337XCA     C4 3021   8.398   7.740   6.069
  337XCA     C5 3022   8.095   8.093   6.105
  337XCA     C6 3023   7.890   8.393   6.331
  338PNCE   AM1 3024  11.808  13.508   8.993
  338PNCE   AM2 3025  11.486  13.652   8.838
  338PNCE   T1A 3026  11.984  13.333   8.627
  338PNCE   C2A 3027  11.869  13.270   8.216
  338PNCE   C3A 3028  12.065  13.408   7.845
  338PNCE   C1B 3029  11.791  13.775   8.486
  338PNCE   C2B 3030  11.930  13.853   8.089
  338PNCE   C3B 3031  12.032  13.881   7.649
  338PNCE   D4B 3032  12.004  13.989   7.202
  338PNCE   C5B 3033  11.668  14.281   7.096
  338PNCE   C6B 3034  11.316  14.561   7.009
  339CHOL   ROH 3035   6.550   9.553   6.112
  339CHOL    R1 3036   6.364   9.503   6.319
  339CHOL    R2 3037   6.301   9.247   6.403
  339CHOL    R3 3038   6.370   9.345   6.647
  339CHOL    R4 3039   6.202   9.113   6.706
  339CHOL    R5 3040   6.175   9.315   6.782
  339CHOL    C1 3041   6.209   9.127   7.111
  339CHOL    C2 3042   5.916   8.901   7.047
  340PNCE   AM1 3043   6.252   9.037   8.666
  340PNCE   AM2 3044   6.211   8.692   8.725
  340PNCE   T1A 3045   6.192   8.850   8.236
  340PNCE   C2A 3046   6.069   8.582   7.852
  340PNCE   C3A 3047   5.904   8.258   7.590
  340PNCE   C1B 3048   6.459   8.468   8.394
  340PNCE   C2B 3049   6.550   8.538   7.948
  340PNCE   C3B 3050   6.654   8.728   7.572
  340PNCE   D4B 3051   6.779   9.032   7.260
  340PNCE   C5B 3052   6.694   8.996   6.784
  340PNCE   C6B 3053   6.452   8.773   6.479
  341PNCE   AM1 3054   5.481   6.362   8.037
  341PNCE   AM2 3055   5.811   6.297   7.952
  341PNCE   T1A 3056   5.383   6.347   7.582
  341PNCE   C2A 3057   5.539   6.358   7.167
  341PNCE   C3A 3058   5.733   6.094   6.866
  341PNCE   C1B 3059   5.877   6.169   7.539
  341PNCE   C2B 3060   6.055   6.379   7.224
  341PNCE   C3B 3061   6.464   6.435   7.083
  341PNCE   D4B 3062   6.898   6.514   6.967
  341PNCE   C5B 3063   6.970   6.577   6.533
  341PNCE   C6B 3064   7.131   6.426   6.121
  342PNCE   AM1 3065   0.027   8.558   7.748
  342PNCE   AM2 3066   0.193   8.796   7.958
  342PNCE   T1A 3067  15.642   8.710   7.381
  342PNCE   C2A 3068  15.648   8.988   7.041
  342PNCE   C3A 3069  15.358   9.164   6.778
  342PNCE   C1B 3070   0.516   9.023   7.720
  342PNCE   C2B 3071   0.964   9.094   7.698
  342PNCE   C3B 3072   1.396   9.214   7.563
  342PNCE   D4B 3073   1.798   9.196   7.346
  342PNCE   C5B 3074   1.891   9.453   6.985
  342PNCE   C6B 3075   2.273   9.362   6.695
  343CHOL   ROH 3076  14.455  15.147   6.814
  343CHOL    R1 3077  14.530  15.417   6.770
  343CHOL    R2 3078  14.508  15.539   6.523
  343CHOL    R3 3079  14.365  15.723   6.663
  343CHOL    R4 3080  14.476   0.043   6.436
  343CHOL    R5 3081  14.494   0.095   6.647
  343CHOL    C1 3082  14.322   0.409   6.516
  343CHOL    C2 3083  14.316   0.839   6.646
  344CHOL   ROH 3084  15.445   9.195   5.318
  344CHOL    R1 3085  15.513   8.953   5.448
  344CHOL    R2 3086  15.770   8.894   5.529
  344CHOL    R3 3087  15.652   8.856   5.770
  344CHOL    R4 3088   0.081   8.718   5.791
  344CHOL    R5 3089  15.713   8.633   5.832
  344CHOL    C1 3090   0.051   8.579   6.171
  344CHOL    C2 3091   0.006   8.340   6.533
  345PNCE   AM1 3092   8.857  15.266   9.592
  345PNCE   AM2 3093   8.597  15.411   9.391
  345PNCE   T1A 3094   9.017  14.939   9.339
  345PNCE   C2A 3095   9.160  14.653   9.061
  345PNCE   C3A 3096   9.288  14.528   8.639
  345PNCE   C1B 3097   8.763  15.681   9.073
  345PNCE   C2B 3098   8.779  15.709   8.661
  345PNCE   C3B 3099   9.095  15.489   8.359
  345PNCE   D4B 3100   9.335  15.435   7.977
  345PNCE   C5B 3101   9.466  15.043   7.805
  345PNCE   C6B 3102   9.689  14.981   7.403
  346PNCE   AM1 3103   2.441  11.095   4.245
  346PNCE   AM2 3104   2.689  11.085   4.463
  346PNCE   T1A 3105   2.161  11.142   4.641
  346PNCE   C2A 3106   2.056  11.143   5.117
  346PNCE   C3A 3107   1.799  11.074   5.513
  346PNCE   C1B 3108   2.856  10.994   4.865
  346PNCE   C2B 3109   3.081  10.934   5.202
  346PNCE   C3B 3110   3.082  11.109   5.576
  346PNCE   D4B 3111   2.995  11.243   5.973
  346PNCE   C5B 3112   3.327  11.272   6.259
  346PNCE   C6B 3113   3.630  11.439   6.556
  347PNCE   AM1 3114   6.385   1.968   8.844
  347PNCE   AM2 3115   6.456   1.644   8.747
  347PNCE   T1A 3116   6.168   2.186   8.494
  347PNCE   C2A 3117   5.853   2.118   8.213
  347PNCE   C3A 3118   5.794   2.092   7.768
  347PNCE   C1B 3119   6.439   1.182   8.680
  347PNCE   C2B 3120   6.562   0.746   8.624
  347PNCE   C3B 3121   6.823   0.532   8.334
  347PNCE   D4B 3122   6.823   0.533   7.912
  347PNCE   C5B 3123   7.098   0.814   7.700
  347PNCE   C6B 3124   7.358   0.700   7.332
  348XCA    COO 3125  13.997   9.705   7.885
  348XCA     C1 3126  13.900   9.773   7.426
  348XCA     C2 3127  13.810   9.970   7.040
  348XCA     C3 3128  13.461  10.201   6.867
  348XCA     C4 3129  13.349  10.500   6.550
  348XCA     C5 3130  13.244  10.671   6.128
  348XCA     C6 3131  13.245  11.046   5.834
  349XCA    COO 3132   8.258   5.635   4.425
  349XCA     C1 3133   7.862   5.824   4.607
  349XCA     C2 3134   7.760   6.126   4.953
  349XCA     C3 3135   7.691   6.423   5.312
  349XCA     C4 3136   7.971   6.459   5.662
  349XCA     C5 3137   8.366   6.378   5.855
  349XCA     C6 3138   8.728   6.544   5.912
  350XCA    COO 3139   4.075  15.655   5.138
  350XCA     C1 3140   4.048  15.681   5.637
  350XCA     C2 3141   4.167   0.187   5.930
  350XCA     C3 3142   4.282   0.293   6.337
  350XCA     C4 3143   4.597   0.240   6.638
  350XCA     C5 3144   4.646   0.062   7.041
  350XCA     C6 3145   4.407  15.796   7.430
  351CHOL   ROH 3146   6.853  10.222   6.048
  351CHOL    R1 3147   6.606  10.319   6.146
  351CHOL    R2 3148   6.490  10.553   6.054
  351CHOL    R3 3149   6.276  10.392   6.009
  351CHOL    R4 3150   6.163  10.661   6.033
  351CHOL    R5 3151   6.102  10.484   6.145
  351CHOL    C1 3152   5.771  10.573   5.978
  351CHOL    C2 3153   5.495  10.717   5.690
  352PNCE   AM1 3154   2.892  13.319   8.181
  352PNCE   AM2 3155   3.202  13.376   8.006
  352PNCE   T1A 3156   2.508  13.501   8.001
  352PNCE   C2A 3157   2.168  13.765   7.825
  352PNCE   C3A 3158   1.756  13.748   7.636
  352PNCE   C1B 3159   2.910  13.389   7.636
  352PNCE   C2B 3160   2.520  13.543   7.476
  352PNCE   C3B 3161   2.104  13.386   7.458
  352PNCE   D4B 3162   2.007  13.194   7.064
  352PNCE   C5B 3163   2.005  12.756   7.023
  352PNCE   C6B 3164   1.998  12.477   6.689
  353PNCE   AM1 3165  12.333   8.888   8.359
  353PNCE   AM2 3166  12.108   8.581   8.433
  353PNCE   T1A 3167  12.490   8.656   7.992
  353PNCE   C2A 3168  12.619   8.262   7.859
  353PNCE   C3A 3169  12.422   7.918   7.634
  353PNCE   C1B 3170  12.116   8.290   8.044
  353PNCE   C2B 3171  12.201   8.401   7.591
  353PNCE   C3B 3172  12.578   8.421   7.322
  353PNCE   D4B 3173  12.946   8.451   7.050
  353PNCE   C5B 3174  13.359   8.297   7.165
  353PNCE   C6B 3175  13.820   8.138   7.181
  354PNCE   AM1 3176   9.341  14.211   9.490
  354PNCE   AM2 3177   8.993  14.228   9.507
  354PNCE   T1A 3178   9.647  14.305   9.154
  354PNCE   C2A 3179   9.863  14.150   8.775
  354PNCE   C3A 3180  10.079  14.027   8.394
  354PNCE   C1B 3181   9.016  14.173   9.043
  354PNCE   C2B 3182   8.942  13.951   8.648
  354PNCE   C3B 3183   8.959  13.828   8.209
  354PNCE   D4B 3184   8.841  13.583   7.810
  354PNCE   C5B 3185   8.385  13.450   7.666
  354PNCE   C6B 3186   7.998  13.442   7.444
  355XCA    COO 3187   0.647   0.109   4.465
  355XCA     C1 3188   0.797   0.105   4.930
  355XCA     C2 3189   1.057   0.025   5.309
  355XCA     C3 3190   1.280   0.004   5.708
  355XCA     C4 3191   1.305   0.151   6.137
  355XCA     C5 3192   1.273   0.157   6.586
  355XCA     C6 3193   0.991   0.296   6.901
  356CHOL   ROH 3194  14.385   0.021   8.723
  356CHOL    R1 3195  14.487  15.800   8.464
  356CHOL    R2 3196  14.701   0.109   8.358
  356CHOL    R3 3197  14.803  15.689   8.321
  356CHOL    R4 3198  14.892   0.013   8.087
  356CHOL    R5 3199  14.784  15.652   8.085
  356CHOL    C1 3200  15.098  15.552   7.893
  356CHOL    C2 3201  15.111  15.406   7.507
  357PNCE   AM1 3202  14.418  13.951   9.460
  357PNCE   AM2 3203  14.712  13.940   9.257
  357PNCE   T1A 3204  14.223  14.030   9.052
  357PNCE   C2A 3205  14.311  13.943   8.613
  357PNCE   C3A 3206  14.695  13.888   8.399
  357PNCE   C1B 3207  14.820  13.679   8.850
  357PNCE   C2B 3208  14.967  13.331   8.525
  357PNCE   C3B 3209  14.760  13.076   8.278
  357PNCE   D4B 3210  14.668  12.867   7.874
  357PNCE   C5B 3211  14.240  12.832   7.714
  357PNCE   C6B 3212  13.775  12.912   7.722
  358CHOL   ROH 3213   2.719  14.027   4.647
  358CHOL    R1 3214   2.739  13.891   4.894
  358CHOL    R2 3215   2.786  13.619   4.910
  358CHOL    R3 3216   2.993  13.696   5.069
  358CHOL    R4 3217   2.953  13.413   5.131
  358CHOL    R5 3218   2.958  13.578   5.274
  358CHOL    C1 3219   3.245  13.365   5.409
  358CHOL    C2 3220   3.212  12.997   5.587
  359XCA    COO 3221   6.786  11.545   9.201
  359XCA     C1 3222   7.008  11.502   8.767
  359XCA     C2 3223   7.222  11.382   8.440
  359XCA     C3 3224   7.259  11.489   8.034
  359XCA     C4 3225   7.362  11.402   7.573
  359XCA     C5 3226   7.238  11.246   7.142
  359XCA     C6 3227   7.221  11.428   6.717
  360PNCE   AM1 3228   3.558  13.803   8.158
  360PNCE   AM2 3229   3.685  13.534   7.944
  360PNCE   T1A 3230   3.557  14.024   7.745
  360PNCE   C2A 3231   3.729  14.085   7.321
  360PNCE   C3A 3232   3.806  14.314   6.920
  360PNCE   C1B 3233   4.022  13.801   7.828
  360PNCE   C2B 3234   4.440  13.924   7.794
  360PNCE   C3B 3235   4.776  14.122   7.603
  360PNCE   D4B 3236   4.917  14.483   7.363
  360PNCE   C5B 3237   5.106  14.499   6.909
  360PNCE   C6B 3238   5.151  14.610   6.426
  361XCA    COO 3239   0.079   2.299   4.472
  361XCA     C1 3240   0.017   2.510   4.887
  361XCA     C2 3241  15.531   2.516   5.211
  361XCA     C3 3242  15.162   2.672   5.403
  361XCA     C4 3243  15.066   2.578   5.814
  361XCA     C5 3244  15.109   2.714   6.228
  361XCA     C6 3245  15.273   2.580   6.619
  362CHOL   ROH 3246   0.646   2.821   8.890
  362CHOL    R1 3247   0.849   2.676   8.757
  362CHOL    R2 3248   0.921   2.728   8.495
  362CHOL    R3 3249   1.170   2.751   8.603
  362CHOL    R4 3250   1.215   2.642   8.334
  362CHOL    R5 3251   1.287   2.559   8.521
  362CHOL    C1 3252   1.619   2.614   8.341
  362CHOL    C2 3253   1.872   2.858   8.120
  363CHOL   ROH 3254   8.772  11.075   8.309
  363CHOL    R1 3255   8.776  11.049   8.028
  363CHOL    R2 3256   8.549  11.075   7.872
  363CHOL    R3 3257   8.699  11.260   7.741
  363CHOL    R4 3258   8.482  11.196   7.556
  363CHOL    R5 3259   8.695  11.189   7.513
  363CHOL    C1 3260   8.583  11.441   7.249
  363CHOL    C2 3261   8.536  11.783   7.020
  364CHOL   ROH 3262   9.866  15.790   5.489
  364CHOL    R1 3263   9.800   0.134   5.703
  364CHOL    R2 3264   9.798   0.051   5.966
  364CHOL    R3 3265   9.967   0.261   6.001
  364CHOL    R4 3266   9.863   0.205   6.269
  364CHOL    R5 3267   9.860   0.397   6.167
  364CHOL    C1 3268  10.059   0.491   6.478
  364CHOL    C2 3269  10.399   0.548   6.667
  365CHOL   ROH 3270   8.831   6.789   5.251
  365CHOL    R1 3271   8.942   6.669   5.482
  365CHOL    R2 3272   9.210   6.689   5.546
  365CHOL    R3 3273   9.113   6.783   5.782
  365CHOL    R4 3274   9.373   6.666   5.850
  365CHOL    R5 3275   9.182   6.621   5.944
  365CHOL    C1 3276   9.378   6.742   6.248
  365CHOL    C2 3277   9.615   6.697   6.533
  366PNCE   AM1 3278  12.244   3.961   8.543
  366PNCE   AM2 3279  12.492   3.728   8.539
  366PNCE   T1A 3280  11.952   4.027   8.181
  366PNCE   C2A 3281  11.564   4.112   7.996
  366PNCE   C3A 3282  11.156   4.071   8.027
  366PNCE   C1B 3283  12.404   3.619   8.146
  366PNCE   C2B 3284  12.231   3.497   7.784
  366PNCE   C3B 3285  11.991   3.307   7.420
  366PNCE   D4B 3286  11.554   3.375   7.338
  366PNCE   C5B 3287  11.269   3.460   7.668
  366PNCE   C6B 3288  11.393   3.604   8.047
  367CHOL   ROH 3289   3.270   6.070   8.061
  367CHOL    R1 3290   3.173   5.854   7.905
  367CHOL    R2 3291   3.112   5.881   7.637
  367CHOL    R3 3292   3.283   5.671   7.610
  367CHOL    R4 3293   3.112   5.657   7.373
  367CHOL    R5 3294   3.149   5.497   7.515
  367CHOL    C1 3295   3.272   5.330   7.195
  367CHOL    C2 3296   3.497   5.044   6.961
  368CHOL   ROH 3297   8.723   1.083   5.703
  368CHOL    R1 3298   8.885   1.168   5.919
  368CHOL    R2 3299   8.832   1.396   6.064
  368CHOL    R3 3300   8.840   1.226   6.275
  368CHOL    R4 3301   8.890   1.490   6.392
  368CHOL    R5 3302   9.014   1.313   6.415
  368CHOL    C1 3303   8.932   1.384   6.781
  368CHOL    C2 3304   8.922   1.743   6.835
  369PNCE   AM1 3305   9.413  10.220   8.692
  369PNCE   AM2 3306   9.479   9.929   8.835
  369PNCE   T1A 3307   9.503  10.158   8.244
  369PNCE   C2A 3308   9.387  10.104   7.809
  369PNCE   C3A 3309   9.370  10.119   7.350
  369PNCE   C1B 3310   9.407   9.692   8.428
  369PNCE   C2B 3311   9.571   9.669   7.999
  369PNCE   C3B 3312   9.681   9.736   7.546
  369PNCE   D4B 3313   9.737   9.763   7.091
  369PNCE   C5B 3314   9.696  10.113   6.807
  369PNCE   C6B 3315   9.911  10.264   6.436
  370PNCE   AM1 3316  13.676   4.836   7.930
  370PNCE   AM2 3317  13.426   4.656   7.729
  370PNCE   T1A 3318  13.847   4.902   7.496
  370PNCE   C2A 3319  14.185   4.887   7.187
  370PNCE   C3A 3320  14.231   4.903   6.717
  370PNCE   C1B 3321  13.293   4.523   7.308
  370PNCE   C2B 3322  13.166   4.424   6.876
  370PNCE   C3B 3323  13.127   4.261   6.471
  370PNCE   D4B 3324  13.307   4.158   6.102
  370PNCE   C5B 3325  13.376   3.754   6.267
  370PNCE   C6B 3326  13.619   3.491   6.554
  371CHOL   ROH 3327  15.191   1.193   6.577
  371CHOL    R1 3328  14.945   1.331   6.594
  371CHOL    R2 3329  14.763   1.339   6.386
  371CHOL    R3 3330  14.591   1.246   6.575
  371CHOL    R4 3331  14.428   1.422   6.408
  371CHOL    R5 3332  14.449   1.432   6.624
  371CHOL    C1 3333  14.072   1.383   6.597
  371CHOL    C2 3334  13.822   1.592   6.817
  372CHOL   ROH 3335  10.994   9.352   8.213
  372CHOL    R1 3336  10.941   9.248   7.955
  372CHOL    R2 3337  10.936   8.976   7.903
  372CHOL    R3 3338  10.689   9.032   7.804
  372CHOL    R4 3339  10.789   8.814   7.636
  372CHOL    R5 3340  10.713   9.006   7.568
  372CHOL    C1 3341  10.471   8.771   7.388
  372CHOL    C2 3342  10.102   8.884   7.119
  373CHOL   ROH 3343   6.274  12.490   4.491
  373CHOL    R1 3344   6.188  12.297   4.680
  373CHOL    R2 3345   6.275  12.296   4.941
  373CHOL    R3 3346   6.010  12.298   4.997
  373CHOL    R4 3347   6.135  12.202   5.243
  373CHOL    R5 3348   5.975  12.104   5.133
  373CHOL    C1 3349   5.804  12.149   5.471
  373CHOL    C2 3350   5.558  12.147   5.762
  374XCA    COO 3351   2.252   3.079   4.965
  374XCA     C1 3352   2.060   3.087   5.419
  374XCA     C2 3353   1.874   3.145   5.848
  374XCA     C3 3354   1.711   3.156   6.245
  374XCA     C4 3355   1.295   3.203   6.373
  374XCA     C5 3356   0.861   3.266   6.518
  374XCA     C6 3357   0.529   3.343   6.848
  375CHOL   ROH 3358   3.745  15.098   8.201
  375CHOL    R1 3359   3.790  15.108   7.921
  375CHOL    R2 3360   3.667  14.936   7.744
  375CHOL    R3 3361   3.591  15.167   7.623
  375CHOL    R4 3362   3.549  14.959   7.420
  375CHOL    R5 3363   3.665  15.142   7.397
  375CHOL    C1 3364   3.410  15.190   7.117
  375CHOL    C2 3365   3.250  15.529   6.909
  376PNCE   AM1 3366   2.689   1.765   5.492
  376PNCE   AM2 3367   2.719   1.460   5.307
  376PNCE   T1A 3368   2.425   1.734   5.868
  376PNCE   C2A 3369   2.064   1.804   6.139
  376PNCE   C3A 3370   1.948   2.088   6.442
  376PNCE   C1B 3371   2.502   1.256   5.690
  376PNCE   C2B 3372   2.406   1.137   6.137
  376PNCE   C3B 3373   2.280   1.031   6.545
  376PNCE   D4B 3374   2.000   1.067   6.914
  376PNCE   C5B 3375   2.110   0.872   7.294
  376PNCE   C6B 3376   2.454   0.885   7.589
  377XCA    COO 3377   8.601  13.779   5.773
  377XCA     C1 3378   8.444  13.807   6.196
  377XCA     C2 3379   8.216  13.875   6.535
  377XCA     C3 3380   7.927  14.040   6.780
  377XCA     C4 3381   7.724  13.689   6.939
  377XCA     C5 3382   7.342  13.511   6.894
  377XCA     C6 3383   7.060  13.293   7.177
  378PNCE   AM1 3384   8.317  11.586   8.609
  378PNCE   AM2 3385   8.637  11.460   8.616
  378PNCE   T1A 3386   8.040  11.563   8.207
  378PNCE   C2A 3387   7.729  11.649   7.878
  378PNCE   C3A 3388   7.582  11.876   7.509
  378PNCE   C1B 3389   8.542  11.456   8.160
  378PNCE   C2B 3390   8.401  11.646   7.782
  378PNCE   C3B 3391   8.124  11.765   7.441
  378PNCE   D4B 3392   8.122  12.067   7.111
  378PNCE   C5B 3393   7.850  12.045   6.741
  378PNCE   C6B 3394   7.635  11.690   6.557
  379CHOL   ROH 3395   7.609   6.469   7.639
  379CHOL    R1 3396   7.625   6.556   7.370
  379CHOL    R2 3397   7.866   6.588   7.238
  379CHOL    R3 3398   7.752   6.422   7.056
  379CHOL    R4 3399   7.988   6.530   6.920
  379CHOL    R5 3400   7.783   6.533   6.846
  379CHOL    C1 3401   7.952   6.341   6.563
  379CHOL    C2 3402   7.997   6.248   6.150
  380CHOL   ROH 3403   4.904   8.880   5.768
  380CHOL    R1 3404   4.814   8.964   6.023
  380CHOL    R2 3405   4.570   9.087   6.062
  380CHOL    R3 3406   4.535   8.888   6.244
  380CHOL    R4 3407   4.341   9.094   6.320
  380CHOL    R5 3408   4.491   9.003   6.449
  380CHOL    C1 3409   4.175   8.912   6.642
  380CHOL    C2 3410   4.068   9.045   7.024
  381CHOL   ROH 3411   2.610   6.027   5.550
  381CHOL    R1 3412   2.664   6.289   5.641
  381CHOL    R2 3413   2.916   6.370   5.722
  381CHOL    R3 3414   2.877   6.567   5.539
  381CHOL    R4 3415   3.056   6.685   5.738
  381CHOL    R5 3416   2.867   6.768   5.669
  381CHOL    C1 3417   3.102   7.054   5.575
  381CHOL    C2 3418   3.174   7.343   5.293
  382PNCE   AM1 3419   4.769  14.074   8.584
  382PNCE   AM2 3420   4.588  14.377   8.656
  382PNCE   T1A 3421   4.952  14.107   8.164
  382PNCE   C2A 3422   5.286  14.066   7.841
  382PNCE   C3A 3423   5.404  14.335   7.492
  382PNCE   C1B 3424   4.992  14.531   8.487
  382PNCE   C2B 3425   5.049  14.608   8.051
  382PNCE   C3B 3426   5.173  14.788   7.665
  382PNCE   D4B 3427   5.541  14.947   7.527
  382PNCE   C5B 3428   5.923  14.697   7.572
  382PNCE   C6B 3429   6.291  14.406   7.601
  383PNCE   AM1 3430   1.058   9.478   8.461
  383PNCE   AM2 3431   1.272   9.740   8.623
  383PNCE   T1A 3432   1.121   9.480   8.001
  383PNCE   C2A 3433   1.107   9.651   7.582
  383PNCE   C3A 3434   1.105   9.521   7.143
  383PNCE   C1B 3435   1.451   9.804   8.210
  383PNCE   C2B 3436   1.569   9.785   7.774
  383PNCE   C3B 3437   1.540   9.758   7.306
  383PNCE   D4B 3438   1.490   9.741   6.847
  383PNCE   C5B 3439   1.093   9.777   6.688
  383PNCE   C6B 3440   0.698   9.638   6.821
  384PNCE   AM1 3441   0.194   4.516   8.804
  384PNCE   AM2 3442   0.047   4.770   8.615
  384PNCE   T1A 3443  15.791   4.285   8.482
  384PNCE   C2A 3444  15.709   3.952   8.214
  384PNCE   C3A 3445  15.566   3.657   7.965
  384PNCE   C1B 3446   0.344   4.622   8.319
  384PNCE   C2B 3447   0.659   4.892   8.144
  384PNCE   C3B 3448   0.832   4.893   7.748
  384PNCE   D4B 3449   0.966   5.104   7.354
  384PNCE   C5B 3450   0.571   5.267   7.141
  384PNCE   C6B 3451   0.309   4.943   6.905
  385CHOL   ROH 3452  13.133  11.704   6.671
  385CHOL    R1 3453  13.298  11.689   6.442
  385CHOL    R2 3454  13.230  11.806   6.201
  385CHOL    R3 3455  13.475  11.922   6.226
  385CHOL    R4 3456  13.424  11.918   5.938
  385CHOL    R5 3457  13.599  11.839   6.039
  385CHOL    C1 3458  13.766  12.092   5.807
  385CHOL    C2 3459  13.949  11.923   5.483
  386PNCE   AM1 3460   4.220  12.414   8.478
  386PNCE   AM2 3461   4.468  12.312   8.232
  386PNCE   T1A 3462   3.987  12.327   8.060
  386PNCE   C2A 3463   3.883  12.228   7.635
  386PNCE   C3A 3464   3.780  11.987   7.247
  386PNCE   C1B 3465   4.877  12.429   8.074
  386PNCE   C2B 3466   5.241  12.692   8.035
  386PNCE   C3B 3467   5.509  12.871   7.727
  386PNCE   D4B 3468   5.678  13.079   7.346
  386PNCE   C5B 3469   5.690  13.440   7.025
  386PNCE   C6B 3470   5.918  13.832   6.981
  387CHOL   ROH 3471  10.301  14.083   5.791
  387CHOL    R1 3472  10.263  14.230   6.030
  387CHOL    R2 3473  10.138  14.124   6.252
  387CHOL    R3 3474  10.367  14.202   6.377
  387CHOL    R4 3475  10.182  14.133   6.595
  387CHOL    R5 3476  10.291  14.321   6.571
  387CHOL    C1 3477  10.422  14.211   6.912
  387CHOL    C2 3478  10.229  14.411   7.212
  388CHOL   ROH 3479   5.106   0.776   8.683
  388CHOL    R1 3480   5.158   0.831   8.410
  388CHOL    R2 3481   5.413   0.832   8.305
  388CHOL    R3 3482   5.307   0.654   8.129
  388CHOL    R4 3483   5.539   0.768   7.989
  388CHOL    R5 3484   5.334   0.759   7.915
  388CHOL    C1 3485   5.512   0.564   7.640
  388CHOL    C2 3486   5.604   0.747   7.271
  389PNCE   AM1 3487  13.672   0.240   7.073
  389PNCE   AM2 3488  13.886   0.030   7.308
  389PNCE   T1A 3489  13.923  15.819   6.784
  389PNCE   C2A 3490  14.008  15.414   6.594
  389PNCE   C3A 3491  14.264  15.139   6.359
  389PNCE   C1B 3492  14.022  15.432   7.125
  389PNCE   C2B 3493  14.030  15.005   6.936
  389PNCE   C3B 3494  14.021  14.572   7.051
  389PNCE   D4B 3495  14.128  14.155   7.144
  389PNCE   C5B 3496  14.432  14.041   6.842
  389PNCE   C6B 3497  14.609  13.977   6.442
  390CHOL   ROH 3498   4.181   7.002   7.907
  390CHOL    R1 3499   4.063   6.930   7.660
  390CHOL    R2 3500   3.933   7.112   7.498
  390CHOL    R3 3501   4.105   7.019   7.310
  390CHOL    R4 3502   3.891   7.146   7.157
  390CHOL    R5 3503   3.965   6.943   7.132
  390CHOL    C1 3504   4.028   7.080   6.782
  390CHOL    C2 3505   4.046   6.879   6.429
  391XCA    COO 3506   7.254   0.759   9.069
  391XCA     C1 3507   7.132   0.837   8.624
  391XCA     C2 3508   7.224   0.885   8.193
  391XCA     C3 3509   7.244   1.257   7.940
  391XCA     C4 3510   7.577   1.521   7.814
  391XCA     C5 3511   7.688   1.380   7.431
  391XCA     C6 3512   7.737   1.018   7.181
  392CHOL   ROH 3513   4.187   1.912   5.578
  392CHOL    R1 3514   4.211   1.905   5.860
  392CHOL    R2 3515   4.230   2.134   6.013
  392CHOL    R3 3516   4.018   2.025   6.145
  392CHOL    R4 3517   4.131   2.220   6.333
  392CHOL    R5 3518   4.091   2.009   6.372
  392CHOL    C1 3519   3.874   2.168   6.642
  392CHOL    C2 3520   3.866   2.198   7.042
  393XCA    COO 3521   2.720  15.036   8.936
  393XCA     C1 3522   2.792  15.016   8.467
  393XCA     C2 3523   2.822  15.294   8.106
  393XCA     C3 3524   2.998  15.440   7.750
  393XCA     C4 3525   3.264  15.459   7.449
  393XCA     C5 3526   3.593  15.689   7.272
  393XCA     C6 3527   3.910   0.124   7.449
  394PNCE   AM1 3528   2.568   7.482   8.145
  394PNCE   AM2 3529   2.841   7.302   8.079
  394PNCE   T1A 3530   2.566   7.501   7.682
  394PNCE   C2A 3531   2.439   7.512   7.273
  394PNCE   C3A 3532   2.736   7.471   6.970
  394PNCE   C1B 3533   3.173   7.257   7.789
  394PNCE   C2B 3534   3.393   7.122   7.424
  394PNCE   C3B 3535   3.490   6.937   7.015
  394PNCE   D4B 3536   3.522   6.974   6.563
  394PNCE   C5B 3537   3.142   7.167   6.440
  394PNCE   C6B 3538   2.881   7.018   6.073
  395CHOL   ROH 3539   8.203  12.591   7.323
  395CHOL    R1 3540   8.199  12.566   7.041
  395CHOL    R2 3541   7.984  12.461   6.905
  395CHOL    R3 3542   7.997  12.695   6.767
  395CHOL    R4 3543   7.793  12.537   6.626
  395CHOL    R5 3544   7.969  12.631   6.538
  395CHOL    C1 3545   7.695  12.801   6.335
  395CHOL    C2 3546   7.417  12.654   6.073
  396CHOL   ROH 3547   9.481  12.420   8.944
  396CHOL    R1 3548   9.383  12.414   8.679
  396CHOL    R2 3549   9.414  12.626   8.504
  396CHOL    R3 3550   9.524  12.436   8.344
  396CHOL    R4 3551   9.485  12.667   8.168
  396CHOL    R5 3552   9.414  12.464   8.134
  396CHOL    C1 3553   9.630  12.512   7.823
  396CHOL    C2 3554   9.666  12.791   7.498
  397PNCE   AM1 3555  15.310   4.550   8.449
  397PNCE   AM2 3556  14.978   4.565   8.361
  397PNCE   T1A 3557  15.318   4.240   8.119
  397PNCE   C2A 3558  15.296   4.035   7.696
  397PNCE   C3A 3559  15.252   4.169   7.254
  397PNCE   C1B 3560  14.892   4.431   7.918
  397PNCE   C2B 3561  14.725   4.203   7.566
  397PNCE   C3B 3562  14.698   4.166   7.115
  397PNCE   D4B 3563  14.809   4.107   6.698
  397PNCE   C5B 3564  15.270   4.033   6.729
  397PNCE   C6B 3565  15.487   3.640   6.692
  398CHOL   ROH 3566  15.331   5.371   7.397
  398CHOL    R1 3567  15.473   5.141   7.314
  398CHOL    R2 3568  15.378   4.968   7.121
  398CHOL    R3 3569  15.619   5.017   7.004
  398CHOL    R4 3570  15.510   4.790   6.856
  398CHOL    R5 3571  15.705   4.800   6.951
  398CHOL    C1 3572  15.812   4.732   6.592
  398CHOL    C2 3573   0.312   4.521   6.560
  399CHOL   ROH 3574   9.356  12.530   5.567
  399CHOL    R1 3575   9.334  12.275   5.689
  399CHOL    R2 3576   9.547  12.149   5.810
  399CHOL    R3 3577   9.378  12.136   6.022
  399CHOL    R4 3578   9.543  11.896   6.045
  399CHOL    R5 3579   9.326  11.904   6.043
  399CHOL    C1 3580   9.382  11.736   6.381
  399CHOL    C2 3581   9.532  11.332   6.346
  400XCA    COO 3582  13.694   6.513   4.066
  400XCA     C1 3583  13.616   6.534   4.525
  400XCA     C2 3584  13.536   6.613   4.977
  400XCA     C3 3585  13.147   6.552   5.218
  400XCA     C4 3586  12.937   6.853   5.499
  400XCA     C5 3587  12.791   7.071   5.854
  400XCA     C6 3588  12.574   7.249   6.213
  401CHOL   ROH 3589   5.886   9.168   4.918
  401CHOL    R1 3590   5.926   9.051   5.173
  401CHOL    R2 3591   6.110   9.148   5.354
  401CHOL    R3 3592   5.895   9.155   5.520
  401CHOL    R4 3593   6.126   9.142   5.699
  401CHOL    R5 3594   5.954   9.009   5.700
  401CHOL    C1 3595   5.934   9.145   6.056
  401CHOL    C2 3596   5.815   9.308   6.406
  402CHOL   ROH 3597   1.697   2.829   9.053
  402CHOL    R1 3598   1.559   2.844   8.806
  402CHOL    R2 3599   1.462   3.082   8.705
  402CHOL    R3 3600   1.607   3.011   8.487
  402CHOL    R4 3601   1.401   3.190   8.383
  402CHOL    R5 3602   1.446   2.990   8.312
  402CHOL    C1 3603   1.502   3.187   7.990
  402CHOL    C2 3604   1.224   3.209   7.698
  403XCA    COO 3605  12.508   8.319   3.956
  403XCA     C1 3606  12.313   8.464   4.340
  403XCA     C2 3607  12.278   8.835   4.593
  403XCA     C3 3608  12.286   8.884   5.069
  403XCA     C4 3609  12.235   8.906   5.536
  403XCA     C5 3610  11.954   8.732   5.858
  403XCA     C6 3611  11.867   8.695   6.329
  404XCA    COO 3612  14.256  11.517   5.623
  404XCA     C1 3613  13.955  11.583   5.927
  404XCA     C2 3614  13.904  11.686   6.395
  404XCA     C3 3615  13.802  12.093   6.604
  404XCA     C4 3616  13.752  12.226   7.042
  404XCA     C5 3617  13.686  11.924   7.344
  404XCA     C6 3618  13.448  11.678   7.581
  405PNCE   AM1 3619   5.694  14.939   8.779
  405PNCE   AM2 3620   5.985  14.860   8.985
  405PNCE   T1A 3621   5.578  14.735   8.394
  405PNCE   C2A 3622   5.560  14.557   7.959
  405PNCE   C3A 3623   5.810  14.218   7.793
  405PNCE   C1B 3624   6.197  14.865   8.561
  405PNCE   C2B 3625   6.521  15.062   8.301
  405PNCE   C3B 3626   6.717  15.278   7.973
  405PNCE   D4B 3627   6.994  15.393   7.694
  405PNCE   C5B 3628   6.917  15.207   7.306
  405PNCE   C6B 3629   6.633  15.085   6.984
  406PNCE   AM1 3630   3.291   6.757   8.350
  406PNCE   AM2 3631   3.203   7.097   8.383
  406PNCE   T1A 3632   3.458   6.495   8.008
  406PNCE   C2A 3633   3.407   6.267   7.620
  406PNCE   C3A 3634   3.437   6.014   7.268
  406PNCE   C1B 3635   3.572   7.170   8.153
  406PNCE   C2B 3636   3.633   6.945   7.833
  406PNCE   C3B 3637   3.673   6.688   7.476
  406PNCE   D4B 3638   3.646   6.460   7.102
  406PNCE   C5B 3639   3.884   6.091   7.011
  406PNCE   C6B 3640   4.109   5.711   6.878
  407PNCE   AM1 3641  15.384   8.702   7.923
  407PNCE   AM2 3642  15.330   9.012   7.774
  407PNCE   T1A 3643  15.176   8.548   7.519
  407PNCE   C2A 3644  14.950   8.319   7.216
  407PNCE   C3A 3645  14.953   8.213   6.812
  407PNCE   C1B 3646  15.224   9.051   7.320
  407PNCE   C2B 3647  15.167   8.740   7.003
  407PNCE   C3B 3648  15.060   8.670   6.581
  407PNCE   D4B 3649  14.889   8.675   6.156
  407PNCE   C5B 3650  14.625   8.331   5.997
  407PNCE   C6B 3651  14.497   7.891   5.903
  408XCA    COO 3652   8.921   2.892   5.219
  408XCA     C1 3653   8.842   2.981   5.642
  408XCA     C2 3654   8.782   3.108   6.058
  408XCA     C3 3655   9.046   3.175   6.414
  408XCA     C4 3656   9.252   3.440   6.741
  408XCA     C5 3657   9.435   3.826   6.773
  408XCA     C6 3658   9.830   3.941   6.593
  409XCA    COO 3659   7.727   2.387   8.544
  409XCA     C1 3660   7.548   2.220   8.117
  409XCA     C2 3661   7.534   2.056   7.675
  409XCA     C3 3662   7.442   1.837   7.342
  409XCA     C4 3663   7.055   1.795   7.133
  409XCA     C5 3664   6.630   1.674   7.103
  409XCA     C6 3665   6.359   1.372   7.342
  410CHOL   ROH 3666   7.269  14.497   6.997
  410CHOL    R1 3667   7.549  14.504   6.952
  410CHOL    R2 3668   7.726  14.614   7.132
  410CHOL    R3 3669   7.846  14.371   7.113
  410CHOL    R4 3670   8.052  14.547   7.225
  410CHOL    R5 3671   8.071  14.420   7.049
  410CHOL    C1 3672   8.355  14.279   7.262
  410CHOL    C2 3673   8.774  14.288   7.258
  411PNCE   AM1 3674   3.031   1.801   8.991
  411PNCE   AM2 3675   2.812   1.631   9.198
  411PNCE   T1A 3676   3.114   1.571   8.595
  411PNCE   C2A 3677   3.414   1.424   8.305
  411PNCE   C3A 3678   3.710   1.141   8.468
  411PNCE   C1B 3679   2.764   1.313   8.883
  411PNCE   C2B 3680   2.711   1.181   8.456
  411PNCE   C3B 3681   2.515   1.013   8.089
  411PNCE   D4B 3682   2.244   1.308   7.795
  411PNCE   C5B 3683   2.110   1.764   7.884
  411PNCE   C6B 3684   2.335   2.170   7.937
  412CHOL   ROH 3685  13.065  13.243   5.091
  412CHOL    R1 3686  12.971  13.215   5.356
  412CHOL    R2 3687  13.127  13.113   5.559
  412CHOL    R3 3688  13.061  13.345   5.684
  412CHOL    R4 3689  13.129  13.161   5.902
  412CHOL    R5 3690  12.945  13.276   5.882
  412CHOL    C1 3691  13.068  13.408   6.218
  412CHOL    C2 3692  13.348  13.245   6.394
  413CHOL   ROH 3693  13.455  13.813   8.644
  413CHOL    R1 3694  13.483  13.937   8.391
  413CHOL    R2 3695  13.542  13.795   8.161
  413CHOL    R3 3696  13.318  13.918   8.067
  413CHOL    R4 3697  13.485  13.875   7.830
  413CHOL    R5 3698  13.398  14.064   7.895
  413CHOL    C1 3699  13.242  14.037   7.548
  413CHOL    C2 3700  13.352  14.422   7.379
  414CHOL   ROH 3701   4.568   0.747   5.885
  414CHOL    R1 3702   4.457   0.683   6.137
  414CHOL    R2 3703   4.612   0.641   6.362
  414CHOL    R3 3704   4.450   0.832   6.469
  414CHOL    R4 3705   4.605   0.730   6.696
  414CHOL    R5 3706   4.388   0.744   6.683
  414CHOL    C1 3707   4.449   0.960   6.991
  414CHOL    C2 3708   4.524   1.278   7.317
  415XCA    COO 3709   9.330   8.620   8.592
  415XCA     C1 3710   9.550   8.782   8.202
  415XCA     C2 3711   9.522   8.841   7.755
  415XCA     C3 3712   9.851   8.701   7.511
  415XCA     C4 3713  10.016   8.363   7.257
  415XCA     C5 3714   9.938   7.990   7.023
  415XCA     C6 3715   9.719   7.758   6.699
  416PNCE   AM1 3716   4.870   9.221   8.190
  416PNCE   AM2 3717   4.856   9.541   8.322
  416PNCE   T1A 3718   4.808   9.205   7.737
  416PNCE   C2A 3719   4.561   9.176   7.359
  416PNCE   C3A 3720   4.579   9.037   6.902
  416PNCE   C1B 3721   5.086   9.637   7.934
  416PNCE   C2B 3722   5.393   9.706   7.592
  416PNCE   C3B 3723   5.487   9.740   7.163
  416PNCE   D4B 3724   5.570   9.861   6.718
  416PNCE   C5B 3725   5.991   9.785   6.494
  416PNCE   C6B 3726   6.017   9.651   6.060
  417CHOL   ROH 3727   3.440   1.854   4.877
  417CHOL    R1 3728   3.428   2.066   5.064
  417CHOL    R2 3729   3.198   2.130   5.203
  417CHOL    R3 3730   3.360   2.102   5.419
  417CHOL    R4 3731   3.136   2.266   5.514
  417CHOL    R5 3732   3.348   2.314   5.530
  417CHOL    C1 3733   3.252   2.319   5.899
  417CHOL    C2 3734   2.946   2.308   6.111
  418CHOL   ROH 3735   4.869   7.523   5.978
  418CHOL    R1 3736   4.601   7.557   5.893
  418CHOL    R2 3737   4.507   7.458   5.653
  418CHOL    R3 3738   4.320   7.341   5.811
  418CHOL    R4 3739   4.208   7.327   5.541
  418CHOL    R5 3740   4.111   7.410   5.717
  418CHOL    C1 3741   3.857   7.140   5.624
  418CHOL    C2 3742   3.511   7.312   5.658
  419XCA    COO 3743   5.632  12.640   3.962
  419XCA     C1 3744   5.835  12.423   4.300
  419XCA     C2 3745   5.759  12.113   4.627
  419XCA     C3 3746   5.492  11.887   4.896
  419XCA     C4 3747   5.070  11.710   5.009
  419XCA     C5 3748   4.881  11.555   5.396
  419XCA     C6 3749   4.787  11.776   5.778
  420PNCE   AM1 3750  15.403   7.917   7.988
  420PNCE   AM2 3751  15.476   8.222   7.825
  420PNCE   T1A 3752  15.418   7.653   7.576
  420PNCE   C2A 3753  15.473   7.384   7.188
  420PNCE   C3A 3754   0.002   7.408   6.869
  420PNCE   C1B 3755   0.006   8.006   7.670
  420PNCE   C2B 3756   0.089   7.572   7.609
  420PNCE   C3B 3757   0.166   7.240   7.332
  420PNCE   D4B 3758   0.550   7.040   7.230
  420PNCE   C5B 3759   0.915   7.273   7.372
  420PNCE   C6B 3760   0.963   7.739   7.322
  421CHOL   ROH 3761   4.054   5.403   4.654
  421CHOL    R1 3762   4.145   5.423   4.921
  421CHOL    R2 3763   4.033   5.598   5.103
  421CHOL    R3 3764   4.004   5.373   5.253
  421CHOL    R4 3765   3.956   5.593   5.440
  421CHOL    R5 3766   4.098   5.430   5.465
  421CHOL    C1 3767   3.884   5.379   5.777
  421CHOL    C2 3768   3.897   5.443   6.207
  422PNCE   AM1 3769  15.508  14.618   4.906
  422PNCE   AM2 3770  15.770  14.376   5.030
  422PNCE   T1A 3771  15.437  14.791   5.336
  422PNCE   C2A 3772  15.361  14.682   5.777
  422PNCE   C3A 3773  15.364  14.504   6.191
  422PNCE   C1B 3774   0.087  14.564   5.409
  422PNCE   C2B 3775   0.044  14.563   5.856
  422PNCE   C3B 3776   0.063  14.582   6.279
  422PNCE   D4B 3777  15.640  14.572   6.620
  422PNCE   C5B 3778  15.678  14.893   6.896
  422PNCE   C6B 3779   0.201  15.141   7.034
  423PNCE   AM1 3780  12.329   0.018   9.430
  423PNCE   AM2 3781  12.642  15.631   9.473
  423PNCE   T1A 3782  11.990  15.735   9.089
  423PNCE   C2A 3783  11.690  15.396   8.957
  423PNCE   C3A 3784  11.451  15.171   8.627
  423PNCE   C1B 3785  12.415  15.448   9.094
  423PNCE   C2B 3786  12.614  15.217   8.753
  423PNCE   C3B 3787  12.900  14.876   8.716
  423PNCE   D4B 3788  12.910  14.608   8.358
  423PNCE   C5B 3789  12.635  14.600   8.014
  423PNCE   C6B 3790  12.288  14.723   7.837
  424CHOL   ROH 3791  15.549   4.523   4.504
  424CHOL    R1 3792  15.489   4.620   4.763
  424CHOL    R2 3793  15.380   4.460   4.960
  424CHOL    R3 3794  15.594   4.546   5.103
  424CHOL    R4 3795  15.407   4.443   5.304
  424CHOL    R5 3796  15.499   4.640   5.302
  424CHOL    C1 3797  15.624   4.514   5.639
  424CHOL    C2 3798  15.520   4.308   6.007
  425PNCE   AM1 3799   2.899  12.478   8.117
  425PNCE   AM2 3800   2.726  12.802   8.089
  425PNCE   T1A 3801   2.963  12.337   7.667
  425PNCE   C2A 3802   2.996  12.488   7.220
  425PNCE   C3A 3803   2.858  12.460   6.779
  425PNCE   C1B 3804   2.968  12.855   7.690
  425PNCE   C2B 3805   2.887  12.991   7.264
  425PNCE   C3B 3806   2.996  12.983   6.830
  425PNCE   D4B 3807   3.142  13.332   6.583
  425PNCE   C5B 3808   2.806  13.548   6.382
  425PNCE   C6B 3809   2.524  13.769   6.153
  426PNCE   AM1 3810  15.250  11.734   9.281
  426PNCE   AM2 3811  14.891  11.813   9.233
  426PNCE   T1A 3812  15.568  12.078   9.232
  426PNCE   C2A 3813  15.813  12.340   8.933
  426PNCE   C3A 3814   0.270  12.635   8.728
  426PNCE   C1B 3815  14.804  11.817   8.803
  426PNCE   C2B 3816  14.963  11.776   8.380
  426PNCE   C3B 3817  14.894  11.606   7.973
  426PNCE   D4B 3818  15.080  11.446   7.603
  426PNCE   C5B 3819  14.927  11.651   7.255
  426PNCE   C6B 3820  14.846  11.953   6.929
  427PNCE   AM1 3821  11.627   5.251   8.766
  427PNCE   AM2 3822  11.773   5.094   8.525
  427PNCE   T1A 3823  11.654   5.479   8.264
  427PNCE   C2A 3824  11.820   5.464   7.847
  427PNCE   C3A 3825  12.060   5.384   7.496
  427PNCE   C1B 3826  11.544   4.977   8.128
  427PNCE   C2B 3827  11.479   4.846   7.711
  427PNCE   C3B 3828  11.642   4.656   7.342
  427PNCE   D4B 3829  11.591   4.727   6.892
  427PNCE   C5B 3830  11.485   5.158   6.780
  427PNCE   C6B 3831  11.168   5.470   6.658
  428PNCE   AM1 3832   2.264  12.066   8.439
  428PNCE   AM2 3833   1.910  12.160   8.467
  428PNCE   T1A 3834   2.385  12.406   8.138
  428PNCE   C2A 3835   2.443  12.537   7.714
  428PNCE   C3A 3836   2.138  12.424   7.400
  428PNCE   C1B 3837   1.569  12.305   8.181
  428PNCE   C2B 3838   1.282  12.344   7.829
  428PNCE   C3B 3839   1.045  12.301   7.463
  428PNCE   D4B 3840   0.721  12.119   7.198
  428PNCE   C5B 3841   0.814  11.954   6.778
  428PNCE   C6B 3842   0.784  11.604   6.475
  429CHOL   ROH 3843   1.527   8.851   4.395
  429CHOL    R1 3844   1.653   8.964   4.622
  429CHOL    R2 3845   1.840   8.827   4.771
  429CHOL    R3 3846   1.993   9.047   4.721
  429CHOL    R4 3847   2.153   8.886   4.906
  429CHOL    R5 3848   2.098   9.095   4.931
  429CHOL    C1 3849   2.478   9.126   4.939
  429CHOL    C2 3850   2.803   9.057   4.751
  430PNCE   AM1 3851   5.667  12.407   8.335
  430PNCE   AM2 3852   5.698  12.762   8.265
  430PNCE   T1A 3853   5.722  12.417   7.880
  430PNCE   C2A 3854   5.876  12.562   7.486
  430PNCE   C3A 3855   5.902  12.623   7.051
  430PNCE   C1B 3856   5.995  12.884   7.864
  430PNCE   C2B 3857   6.169  13.068   7.458
  430PNCE   C3B 3858   6.157  13.479   7.301
  430PNCE   D4B 3859   6.181  13.913   7.456
  430PNCE   C5B 3860   5.891  14.238   7.289
  430PNCE   C6B 3861   5.642  14.595   7.113
  431PNCE   AM1 3862  10.773   7.734   8.052
  431PNCE   AM2 3863  10.518   7.992   7.970
  431PNCE   T1A 3864  10.900   7.796   7.596
  431PNCE   C2A 3865  10.942   7.921   7.144
  431PNCE   C3A 3866  11.009   8.237   6.854
  431PNCE   C1B 3867  10.300   7.891   7.583
  431PNCE   C2B 3868  10.073   7.582   7.323
  431PNCE   C3B 3869  10.082   7.162   7.210
  431PNCE   D4B 3870  10.256   6.760   7.074
  431PNCE   C5B 3871  10.548   6.726   6.715
  431PNCE   C6B 3872  10.679   7.022   6.375
  432XCA    COO 3873   7.685  15.174   5.457
  432XCA     C1 3874   7.603  15.306   5.883
  432XCA     C2 3875   7.435  15.107   6.199
  432XCA     C3 3876   7.490  14.747   6.466
  432XCA     C4 3877   7.572  14.314   6.511
  432XCA     C5 3878   7.326  14.022   6.757
  432XCA     C6 3879   6.923  13.763   6.795
  433XCA    COO 3880   4.958   9.440   3.558
  433XCA     C1 3881   4.788   9.518   3.964
  433XCA     C2 3882   4.849   9.652   4.375
  433XCA     C3 3883   4.631   9.624   4.744
  433XCA     C4 3884   4.807   9.312   4.923
  433XCA     C5 3885   5.103   9.221   5.157
  433XCA     C6 3886   5.476   9.249   5.375
  434CHOL   ROH 3887  15.428   5.712   7.156
  434CHOL    R1 3888  15.655   5.848   7.054
  434CHOL    R2 3889  15.771   5.783   6.812
  434CHOL    R3 3890  15.734   6.047   6.759
  434CHOL    R4 3891   0.142   5.973   6.604
  434CHOL    R5 3892   0.126   6.137   6.746
  434CHOL    C1 3893   0.222   6.331   6.432
  434CHOL    C2 3894   0.232   6.652   6.155
  435CHOL   ROH 3895  12.560  14.258   9.143
  435CHOL    R1 3896  12.326  14.267   8.984
  435CHOL    R2 3897  12.131  14.460   9.018
  435CHOL    R3 3898  12.172  14.502   8.753
  435CHOL    R4 3899  11.918  14.636   8.810
  435CHOL    R5 3900  11.954  14.487   8.655
  435CHOL    C1 3901  11.833  14.777   8.440
  435CHOL    C2 3902  11.916  15.040   8.118
  436XCA    COO 3903  14.945   2.690   8.530
  436XCA     C1 3904  14.962   2.917   8.147
  436XCA     C2 3905  14.996   3.210   7.822
  436XCA     C3 3906  15.292   3.438   7.584
  436XCA     C4 3907  15.431   3.661   7.217
  436XCA     C5 3908  15.708   3.991   7.082
  436XCA     C6 3909  15.693   4.320   6.776
  437CHOL   ROH 3910  10.502   9.989   4.270
  437CHOL    R1 3911  10.486   9.941   4.548
  437CHOL    R2 3912  10.670  10.042   4.727
  437CHOL    R3 3913  10.449  10.141   4.850
  437CHOL    R4 3914  10.611  10.032   5.068
  437CHOL    R5 3915  10.402   9.985   5.025
  437CHOL    C1 3916  10.368  10.119   5.381
  437CHOL    C2 3917  10.404  10.222   5.788
  438PNCE   AM1 3918   8.853   7.408   8.499
  438PNCE   AM2 3919   8.534   7.562   8.506
  438PNCE   T1A 3920   9.092   7.530   8.139
  438PNCE   C2A 3921   9.244   7.421   7.709
  438PNCE   C3A 3922   9.555   7.177   7.475
  438PNCE   C1B 3923   8.684   7.877   8.190
  438PNCE   C2B 3924   8.697   8.066   7.781
  438PNCE   C3B 3925   8.658   8.244   7.389
  438PNCE   D4B 3926   9.001   8.435   7.221
  438PNCE   C5B 3927   9.007   8.821   7.399
  438PNCE   C6B 3928   8.934   9.089   7.673
  439XCA    COO 3929  14.128  11.361   8.459
  439XCA     C1 3930  14.221  11.384   7.996
  439XCA     C2 3931  14.446  11.603   7.670
  439XCA     C3 3932  14.649  11.998   7.542
  439XCA     C4 3933  14.522  12.428   7.346
  439XCA     C5 3934  14.648  12.879   7.349
  439XCA     C6 3935  14.678  13.242   7.069
  440CHOL   ROH 3936   6.342   1.833   5.520
  440CHOL    R1 3937   6.343   2.038   5.715
  440CHOL    R2 3938   6.116   2.113   5.853
  440CHOL    R3 3939   6.271   2.065   6.070
  440CHOL    R4 3940   6.064   2.250   6.165
  440CHOL    R5 3941   6.280   2.276   6.184
  440CHOL    C1 3942   6.181   2.286   6.552
  440CHOL    C2 3943   5.894   2.445   6.831
  441CHOL   ROH 3944  12.644   6.525   8.357
  441CHOL    R1 3945  12.427   6.562   8.180
  441CHOL    R2 3946  12.444   6.506   7.910
  441CHOL    R3 3947  12.225   6.353   7.961
  441CHOL    R4 3948  12.188   6.446   7.686
  441CHOL    R5 3949  12.046   6.467   7.849
  441CHOL    C1 3950  11.833   6.268   7.603
  441CHOL    C2 3951  11.508   6.221   7.352
  442CHOL   ROH 3952  12.038   0.517   4.945
  442CHOL    R1 3953  12.111   0.633   5.193
  442CHOL    R2 3954  11.924   0.706   5.383
  442CHOL    R3 3955  12.076   0.549   5.545
  442CHOL    R4 3956  11.937   0.731   5.727
  442CHOL    R5 3957  12.152   0.697   5.717
  442CHOL    C1 3958  12.086   0.599   6.080
  442CHOL    C2 3959  12.051   0.359   6.449
  443CHOL   ROH 3960  11.344  12.943   5.523
  443CHOL    R1 3961  11.363  12.945   5.806
  443CHOL    R2 3962  11.222  13.123   5.962
  443CHOL    R3 3963  11.137  12.896   6.086
  443CHOL    R4 3964  11.050  13.114   6.262
  443CHOL    R5 3965  11.168  12.940   6.319
  443CHOL    C1 3966  10.870  12.896   6.553
  443CHOL    C2 3967  10.636  13.134   6.679
  444CHOL   ROH 3968   1.945   9.674   7.551
  444CHOL    R1 3969   2.183   9.584   7.427
  444CHOL    R2 3970   2.281   9.328   7.461
  444CHOL    R3 3971   2.276   9.325   7.189
  444CHOL    R4 3972   2.463   9.112   7.262
  444CHOL    R5 3973   2.502   9.277   7.126
  444CHOL    C1 3974   2.565   8.983   6.892
  444CHOL    C2 3975   2.814   8.947   6.629
  445CHOL   ROH 3976  12.784  11.941   5.138
  445CHOL    R1 3977  13.034  11.969   5.269
  445CHOL    R2 3978  13.169  12.209   5.282
  445CHOL    R3 3979  13.166  12.160   5.549
  445CHOL    R4 3980  13.377  12.360   5.513
  445CHOL    R5 3981  13.397  12.168   5.614
  445CHOL    C1 3982  13.495  12.401   5.899
  445CHOL    C2 3983  13.763  12.481   6.221
  446XCA    COO 3984   7.815   4.798   8.415
  446XCA     C1 3985   7.762   4.700   7.968
  446XCA     C2 3986   7.706   4.847   7.571
  446XCA     C3 3987   7.798   4.774   7.184
  446XCA     C4 3988   7.716   4.469   6.908
  446XCA     C5 3989   7.863   4.499   6.513
  446XCA     C6 3990   8.244   4.602   6.349
  447PNCE   AM1 3991   5.456  11.249   7.880
  447PNCE   AM2 3992   5.450  11.111   7.531
  447PNCE   T1A 3993   5.743  11.563   7.696
  447PNCE   C2A 3994   5.895  11.652   7.343
  447PNCE   C3A 3995   5.686  11.663   6.964
  447PNCE   C1B 3996   5.745  11.156   7.142
  447PNCE   C2B 3997   6.163  11.287   7.137
  447PNCE   C3B 3998   6.306  11.683   6.966
  447PNCE   D4B 3999   6.527  12.027   6.741
  447PNCE   C5B 4000   6.246  12.235   6.429
  447PNCE   C6B 4001   5.807  12.373   6.285
  448PNCE   AM1 4002   6.398   4.942   8.251
  448PNCE   AM2 4003   6.073   5.070   8.299
  448PNCE   T1A 4004   6.501   4.829   7.795
  448PNCE   C2A 4005   6.859   4.647   7.511
  448PNCE   C3A 4006   7.220   4.817   7.349
  448PNCE   C1B 4007   5.940   5.047   7.852
  448PNCE   C2B 4008   5.816   5.249   7.473
  448PNCE   C3B 4009   5.832   5.088   7.045
  448PNCE   D4B 4010   6.178   4.920   6.836
  448PNCE   C5B 4011   6.407   4.567   7.041
  448PNCE   C6B 4012   6.835   4.379   7.057
  449CHOL   ROH 4013   8.412  14.519   7.886
  449CHOL    R1 4014   8.155  14.410   7.839
  449CHOL    R2 4015   7.960  14.545   7.697
  449CHOL    R3 4016   7.956  14.317   7.548
  449CHOL    R4 4017   7.690  14.434   7.511
  449CHOL    R5 4018   7.735  14.231   7.577
  449CHOL    C1 4019   7.529  14.156   7.264
  449CHOL    C2 4020   7.093  14.130   7.238
  450PNCE   AM1 4021  12.145  12.697   5.142
  450PNCE   AM2 4022  11.778  12.765   5.185
  450PNCE   T1A 4023  12.272  12.646   5.591
  450PNCE   C2A 4024  12.282  12.666   6.054
  450PNCE   C3A 4025  12.103  12.775   6.468
  450PNCE   C1B 4026  11.801  12.838   5.635
  450PNCE   C2B 4027  11.770  12.738   6.048
  450PNCE   C3B 4028  11.595  12.781   6.433
  450PNCE   D4B 4029  11.258  12.679   6.710
  450PNCE   C5B 4030  11.203  12.413   7.008
  450PNCE   C6B 4031  11.059  12.418   7.470
  451PNCE   AM1 4032  11.976   3.535   8.692
  451PNCE   AM2 4033  12.171   3.312   8.510
  451PNCE   T1A 4034  11.556   3.552   8.533
  451PNCE   C2A 4035  11.199   3.801   8.474
  451PNCE   C3A 4036  10.863   3.925   8.734
  451PNCE   C1B 4037  11.904   3.525   8.161
  451PNCE   C2B 4038  11.778   3.726   7.721
  451PNCE   C3B 4039  11.438   3.895   7.418
  451PNCE   D4B 4040  10.994   3.817   7.351
  451PNCE   C5B 4041  10.849   3.798   7.753
  451PNCE   C6B 4042  10.804   3.709   8.179
  452PNCE   AM1 4043   5.549   9.981   8.338
  452PNCE   AM2 4044   5.581   9.711   8.083
  452PNCE   T1A 4045   5.311  10.122   7.961
  452PNCE   C2A 4046   5.030  10.084   7.628
  452PNCE   C3A 4047   4.696  10.202   7.369
  452PNCE   C1B 4048   5.850   9.433   7.807
  452PNCE   C2B 4049   5.775   9.265   7.406
  452PNCE   C3B 4050   5.369   9.212   7.226
  452PNCE   D4B 4051   4.964   9.320   7.082
  452PNCE   C5B 4052   4.827   9.650   6.801
  452PNCE   C6B 4053   4.594   9.992   6.935
  453PNCE   AM1 4054   9.906   1.550   9.308
  453PNCE   AM2 4055  10.119   1.239   9.272
  453PNCE   T1A 4056   9.540   1.338   9.106
  453PNCE   C2A 4057   9.381   1.026   8.809
  453PNCE   C3A 4058   9.024   0.794   8.612
  453PNCE   C1B 4059   9.775   0.923   9.294
  453PNCE   C2B 4060   9.531   0.623   9.125
  453PNCE   C3B 4061   9.460   0.338   8.830
  453PNCE   D4B 4062   9.246   0.031   8.688
  453PNCE   C5B 4063   9.002   0.192   8.333
  453PNCE   C6B 4064   8.943   0.183   7.891
  454CHOL   ROH 4065  10.439  10.503   7.990
  454CHOL    R1 4066  10.456  10.608   7.728
  454CHOL    R2 4067  10.590  10.479   7.524
  454CHOL    R3 4068  10.353  10.505   7.394
  454CHOL    R4 4069  10.543  10.430   7.185
  454CHOL    R5 4070  10.410  10.602   7.183
  454CHOL    C1 4071  10.293  10.426   6.866
  454CHOL    C2 4072  10.411  10.349   6.473
  455PNCE   AM1 4073  14.584   0.131   9.226
  455PNCE   AM2 4074  14.445  15.622   9.173
  455PNCE   T1A 4075  14.945  15.657   9.058
  455PNCE   C2A 4076  15.123  15.516   8.657
  455PNCE   C3A 4077  15.217  15.310   8.281
  455PNCE   C1B 4078  14.530  15.409   8.821
  455PNCE   C2B 4079  14.697  15.264   8.491
  455PNCE   C3B 4080  14.791  15.121   8.105
  455PNCE   D4B 4081  15.078  15.012   7.802
  455PNCE   C5B 4082  15.488  15.262   7.862
  455PNCE   C6B 4083   0.075  15.301   7.717
  456PNCE   AM1 4084  14.850  10.922   8.857
  456PNCE   AM2 4085  14.535  11.071   8.699
  456PNCE   T1A 4086  14.911  10.922   8.386
  456PNCE   C2A 4087  15.141  11.129   8.029
  456PNCE   C3A 4088  15.510  11.261   7.821
  456PNCE   C1B 4089  14.621  11.312   8.305
  456PNCE   C2B 4090  14.660  11.137   7.859
  456PNCE   C3B 4091  14.969  10.964   7.550
  456PNCE   D4B 4092  14.996  10.544   7.381
  456PNCE   C5B 4093  14.692  10.403   7.057
  456PNCE   C6B 4094  14.415  10.606   6.775
  457PNCE   AM1 4095   6.240   5.459   7.982
  457PNCE   AM2 4096   6.535   5.570   8.057
  457PNCE   T1A 4097   6.320   5.308   7.564
  457PNCE   C2A 4098   6.251   4.943   7.350
  457PNCE   C3A 4099   5.855   4.733   7.434
  457PNCE   C1B 4100   6.654   5.679   7.629
  457PNCE   C2B 4101   6.620   5.581   7.196
  457PNCE   C3B 4102   6.292   5.432   6.950
  457PNCE   D4B 4103   6.239   5.303   6.497
  457PNCE   C5B 4104   5.809   5.141   6.459
  457PNCE   C6B 4105   5.422   5.426   6.502
  458PNCE   AM1 4106  12.999  14.088   9.217
  458PNCE   AM2 4107  13.179  14.162   8.971
  458PNCE   T1A 4108  12.773  13.763   9.076
  458PNCE   C2A 4109  12.840  13.385   8.906
  458PNCE   C3A 4110  12.874  13.278   8.467
  458PNCE   C1B 4111  13.284  14.359   8.617
  458PNCE   C2B 4112  13.412  14.380   8.230
  458PNCE   C3B 4113  13.613  14.512   7.862
  458PNCE   D4B 4114  13.870  14.634   7.523
  458PNCE   C5B 4115  14.333  14.435   7.506
  458PNCE   C6B 4116  14.658  14.119   7.346
  459XCA    COO 4117   3.530   1.863   9.148
  459XCA     C1 4118   3.621   1.572   8.791
  459XCA     C2 4119   3.885   1.652   8.412
  459XCA     C3 4120   4.260   1.633   8.159
  459XCA     C4 4121   4.376   1.772   7.736
  459XCA     C5 4122   4.748   1.740   7.514
  459XCA     C6 4123   5.140   1.484   7.659
  460CHOL   ROH 4124   8.298   7.617   7.998
  460CHOL    R1 4125   8.355   7.745   7.752
  460CHOL    R2 4126   8.353   7.611   7.511
  460CHOL    R3 4127   8.180   7.808   7.439
  460CHOL    R4 4128   8.294   7.714   7.186
  460CHOL    R5 4129   8.288   7.920   7.257
  460CHOL    C1 4130   8.096   7.958   6.930
  460CHOL    C2 4131   7.946   7.918   6.559
  461CHOL   ROH 4132  12.178   4.727   4.784
  461CHOL    R1 4133  12.052   4.521   4.932
  461CHOL    R2 4134  11.897   4.571   5.155
  461CHOL    R3 4135  11.711   4.428   5.018
  461CHOL    R4 4136  11.616   4.429   5.296
  461CHOL    R5 4137  11.647   4.254   5.170
  461CHOL    C1 4138  11.276   4.212   5.249
  461CHOL    C2 4139  11.018   4.363   5.516
  462CHOL   ROH 4140   3.431  14.766   7.027
  462CHOL    R1 4141   3.545  14.683   6.782
  462CHOL    R2 4142   3.526  14.832   6.550
  462CHOL    R3 4143   3.796  14.809   6.551
  462CHOL    R4 4144   3.730  14.892   6.278
  462CHOL    R5 4145   3.849  14.719   6.335
  462CHOL    C1 4146   4.103  14.906   6.120
  462CHOL    C2 4147   4.236  15.293   5.945
  463CHOL   ROH 4148   8.204   9.458   8.321
  463CHOL    R1 4149   8.230   9.292   8.093
  463CHOL    R2 4150   8.238   9.016   8.109
  463CHOL    R3 4151   8.034   9.032   7.931
  463CHOL    R4 4152   8.149   8.766   7.889
  463CHOL    R5 4153   8.116   8.918   7.737
  463CHOL    C1 4154   7.906   8.634   7.592
  463CHOL    C2 4155   7.645   8.574   7.279
  464CHOL   ROH 4156  13.905  10.927   4.972
  464CHOL    R1 4157  14.054  10.792   5.172
  464CHOL    R2 4158  14.044  10.863   5.438
  464CHOL    R3 4159  13.980  10.601   5.473
  464CHOL    R4 4160  14.045  10.697   5.742
  464CHOL    R5 4161  14.132  10.524   5.641
  464CHOL    C1 4162  13.986  10.355   5.950
  464CHOL    C2 4163  13.764  10.364   6.275
  465XCA    COO 4164  14.333   7.249   3.987
  465XCA     C1 4165  14.237   7.062   4.383
  465XCA     C2 4166  13.963   6.877   4.690
  465XCA     C3 4167  13.809   7.086   5.041
  465XCA     C4 4168  13.997   7.474   5.280
  465XCA     C5 4169  14.034   7.822   5.596
  465XCA     C6 4170  14.168   8.252   5.721
  466PNCE   AM1 4171  11.131  12.948   8.560
  466PNCE   AM2 4172  10.971  13.072   8.841
  466PNCE   T1A 4173  10.985  13.192   8.180
  466PNCE   C2A 4174  10.677  13.130   7.885
  466PNCE   C3A 4175  10.360  12.824   7.985
  466PNCE   C1B 4176  11.063  13.446   8.623
  466PNCE   C2B 4177  11.376  13.534   8.292
  466PNCE   C3B 4178  11.567  13.547   7.871
  466PNCE   D4B 4179  11.627  13.341   7.457
  466PNCE   C5B 4180  11.999  13.475   7.315
  466PNCE   C6B 4181  12.304  13.320   7.070
  467PNCE   AM1 4182  14.539   6.787   8.060
  467PNCE   AM2 4183  14.357   6.691   7.761
  467PNCE   T1A 4184  14.848   6.515   7.813
  467PNCE   C2A 4185  14.985   6.180   7.521
  467PNCE   C3A 4186  14.754   6.030   7.167
  467PNCE   C1B 4187  14.585   6.778   7.382
  467PNCE   C2B 4188  14.864   6.566   7.099
  467PNCE   C3B 4189  15.202   6.659   6.830
  467PNCE   D4B 4190  15.476   7.001   6.811
  467PNCE   C5B 4191  15.349   7.387   6.668
  467PNCE   C6B 4192  15.457   7.794   6.772
  468XCA    COO 4193   2.867   4.223   8.637
  468XCA     C1 4194   3.038   4.513   8.256
  468XCA     C2 4195   2.988   4.532   7.780
  468XCA     C3 4196   3.031   4.330   7.355
  468XCA     C4 4197   2.873   4.490   6.940
  468XCA     C5 4198   2.509   4.472   6.679
  468XCA     C6 4199   2.241   4.321   6.326
  469PNCE   AM1 4200   1.804  10.630   8.630
  469PNCE   AM2 4201   1.721  10.987   8.658
  469PNCE   T1A 4202   1.697  10.685   8.168
  469PNCE   C2A 4203   1.471  10.651   7.755
  469PNCE   C3A 4204   1.364  10.762   7.287
  469PNCE   C1B 4205   1.782  11.199   8.267
  469PNCE   C2B 4206   1.544  11.348   7.946
  469PNCE   C3B 4207   1.443  11.581   7.641
  469PNCE   D4B 4208   1.087  11.795   7.521
  469PNCE   C5B 4209   0.826  11.619   7.222
  469PNCE   C6B 4210   0.724  11.361   6.918
  470XCA    COO 4211   8.052  11.658   4.812
  470XCA     C1 4212   8.207  11.446   5.242
  470XCA     C2 4213   8.305  11.262   5.662
  470XCA     C3 4214   8.320  11.309   6.153
  470XCA     C4 4215   8.571  11.531   6.529
  470XCA     C5 4216   8.844  11.381   6.863
  470XCA     C6 4217   9.068  11.349   7.248
  471XCA    COO 4218   0.270   9.089   4.555
  471XCA     C1 4219   0.186   9.137   5.004
  471XCA     C2 4220   0.200   9.282   5.398
  471XCA     C3 4221   0.114   9.224   5.826
  471XCA     C4 4222   0.203   9.333   6.226
  471XCA     C5 4223   0.530   9.585   6.335
  471XCA     C6 4224   0.942   9.681   6.196
  472PNCE   AM1 4225   0.249   9.976   8.394
  472PNCE   AM2 4226   0.143   9.855   8.079
  472PNCE   T1A 4227   0.221  10.341   8.145
  472PNCE   C2A 4228   0.347  10.592   7.827
  472PNCE   C3A 4229   0.533  10.943   7.839
  472PNCE   C1B 4230   0.142   9.726   7.660
  472PNCE   C2B 4231   0.121   9.316   7.456
  472PNCE   C3B 4232   0.281   8.959   7.267
  472PNCE   D4B 4233   0.214   8.576   7.078
  472PNCE   C5B 4234   0.098   8.194   7.210
  472PNCE   C6B 4235  15.721   7.825   7.191
  473PNCE   AM1 4236   6.497  14.803   9.097
  473PNCE   AM2 4237   6.777  15.042   9.083
  473PNCE   T1A 4238   6.566  14.545   8.719
  473PNCE   C2A 4239   6.608  14.551   8.280
  473PNCE   C3A 4240   6.885  14.415   7.934
  473PNCE   C1B 4241   6.912  14.948   8.632
  473PNCE   C2B 4242   7.007  14.872   8.195
  473PNCE   C3B 4243   7.047  14.879   7.735
  473PNCE   D4B 4244   7.333  14.733   7.410
  473PNCE   C5B 4245   7.285  14.956   7.057
  473PNCE   C6B 4246   7.060  14.914   6.740
  474PNCE   AM1 4247  11.034   4.422   8.752
  474PNCE   AM2 4248  10.989   4.674   8.489
  474PNCE   T1A 4249  10.801   4.232   8.344
  474PNCE   C2A 4250  10.472   4.095   8.030
  474PNCE   C3A 4251  10.026   4.082   7.941
  474PNCE   C1B 4252  11.208   4.577   8.068
  474PNCE   C2B 4253  11.286   4.382   7.624
  474PNCE   C3B 4254  11.165   4.317   7.167
  474PNCE   D4B 4255  10.848   4.535   6.875
  474PNCE   C5B 4256  10.448   4.361   6.790
  474PNCE   C6B 4257  10.022   4.404   6.682
  475XCA    COO 4258   9.962   7.972   8.040
  475XCA     C1 4259   9.786   7.929   7.577
  475XCA     C2 4260   9.581   7.655   7.224
  475XCA     C3 4261   9.203   7.366   7.169
  475XCA     C4 4262   8.851   7.193   6.987
  475XCA     C5 4263   8.677   7.291   6.584
  475XCA     C6 4264   8.897   7.432   6.211
  476PNCE   AM1 4265   5.722   8.997   8.593
  476PNCE   AM2 4266   5.847   9.349   8.563
  476PNCE   T1A 4267   5.747   9.035   8.139
  476PNCE   C2A 4268   5.692   8.889   7.754
  476PNCE   C3A 4269   5.584   8.737   7.389
  476PNCE   C1B 4270   6.024   9.680   8.291
  476PNCE   C2B 4271   6.255   9.748   7.909
  476PNCE   C3B 4272   6.426   9.980   7.584
  476PNCE   D4B 4273   6.455   9.953   7.161
  476PNCE   C5B 4274   6.763  10.153   6.907
  476PNCE   C6B 4275   7.084  10.360   7.081
  477CHOL   ROH 4276   4.258   6.317   4.628
  477CHOL    R1 4277   4.250   6.255   4.904
  477CHOL    R2 4278   4.456   6.320   5.077
  477CHOL    R3 4279   4.256   6.440   5.217
  477CHOL    R4 4280   4.476   6.412   5.409
  477CHOL    R5 4281   4.271   6.344   5.436
  477CHOL    C1 4282   4.301   6.579   5.734
  477CHOL    C2 4283   4.187   6.909   5.919
  478CHOL   ROH 4284   9.156  12.961   6.439
  478CHOL    R1 4285   9.094  12.717   6.568
  478CHOL    R2 4286   9.075  12.694   6.843
  478CHOL    R3 4287   8.830  12.592   6.785
  478CHOL    R4 4288   8.882  12.510   7.063
  478CHOL    R5 4289   8.827  12.379   6.897
  478CHOL    C1 4290   8.540  12.307   7.137
  478CHOL    C2 4291   8.416  12.220   7.521
  479XCA    COO 4292   9.300   8.028   4.301
  479XCA     C1 4293   9.281   8.115   4.757
  479XCA     C2 4294   9.273   8.016   5.183
  479XCA     C3 4295   9.288   8.149   5.608
  479XCA     C4 4296   9.399   8.378   5.982
  479XCA     C5 4297   9.711   8.450   6.343
  479XCA     C6 4298   9.979   8.421   6.726
  480CHOL   ROH 4299  15.390   0.046   6.371
  480CHOL    R1 4300  15.380   0.294   6.507
  480CHOL    R2 4301  15.275   0.522   6.392
  480CHOL    R3 4302  15.122   0.526   6.617
  480CHOL    R4 4303  15.087   0.792   6.500
  480CHOL    R5 4304  15.149   0.747   6.704
  480CHOL    C1 4305  14.835   0.953   6.773
  480CHOL    C2 4306  14.702   1.258   7.037
  481CHOL   ROH 4307   2.000   5.965   6.147
  481CHOL    R1 4308   2.197   5.886   6.335
  481CHOL    R2 4309   2.394   5.702   6.276
  481CHOL    R3 4310   2.559   5.900   6.360
  481CHOL    R4 4311   2.709   5.653   6.407
  481CHOL    R5 4312   2.668   5.809   6.553
  481CHOL    C1 4313   3.049   5.810   6.563
  481CHOL    C2 4314   3.177   5.748   6.925
  482PNCE   AM1 4315  12.331   0.812   9.058
  482PNCE   AM2 4316  12.154   1.112   8.971
  482PNCE   T1A 4317  12.061   0.429   8.983
  482PNCE   C2A 4318  11.909   0.155   8.662
  482PNCE   C3A 4319  11.926   0.106   8.225
  482PNCE   C1B 4320  12.153   0.874   8.568
  482PNCE   C2B 4321  12.281   0.469   8.452
  482PNCE   C3B 4322  12.399   0.239   8.103
  482PNCE   D4B 4323  12.562   0.074   7.717
  482PNCE   C5B 4324  12.636   0.259   7.325
  482PNCE   C6B 4325  12.900   0.545   7.100
  483PNCE   AM1 4326  14.122  15.651   8.131
  483PNCE   AM2 4327  14.323  15.383   8.168
  483PNCE   T1A 4328  13.738  15.552   7.896
  483PNCE   C2A 4329  13.406  15.219   7.830
  483PNCE   C3A 4330  13.164  15.000   7.501
  483PNCE   C1B 4331  14.017  15.110   7.932
  483PNCE   C2B 4332  13.843  15.177   7.549
  483PNCE   C3B 4333  13.549  15.466   7.393
  483PNCE   D4B 4334  13.311  15.507   7.052
  483PNCE   C5B 4335  13.456  15.659   6.673
  483PNCE   C6B 4336  13.602  15.540   6.266
  484PNCE   AM1 4337  15.488  14.134  10.134
  484PNCE   AM2 4338  15.377  13.868   9.917
  484PNCE   T1A 4339  15.335  14.390   9.815
  484PNCE   C2A 4340  15.088  14.353   9.462
  484PNCE   C3A 4341  14.759  14.515   9.251
  484PNCE   C1B 4342  15.189  13.844   9.478
  484PNCE   C2B 4343  15.162  14.006   9.031
  484PNCE   C3B 4344  15.130  14.133   8.556
  484PNCE   D4B 4345  14.819  14.381   8.335
  484PNCE   C5B 4346  14.800  14.601   7.952
  484PNCE   C6B 4347  14.835  14.600   7.486
  485PNCE   AM1 4348   9.312   6.506   8.488
  485PNCE   AM2 4349   9.625   6.610   8.289
  485PNCE   T1A 4350   9.147   6.874   8.260
  485PNCE   C2A 4351   8.891   7.049   7.949
  485PNCE   C3A 4352   8.847   7.104   7.518
  485PNCE   C1B 4353   9.480   6.285   7.960
  485PNCE   C2B 4354   9.217   6.127   7.601
  485PNCE   C3B 4355   9.105   6.320   7.207
  485PNCE   D4B 4356   8.763   6.357   6.891
  485PNCE   C5B 4357   8.543   6.738   6.893
  485PNCE   C6B 4358   8.307   6.968   6.648
  486PNCE   AM1 4359  14.704  10.156   7.858
  486PNCE   AM2 4360  14.580   9.927   8.032
  486PNCE   T1A 4361  14.765  10.072   7.418
  486PNCE   C2A 4362  14.831   9.908   6.965
  486PNCE   C3A 4363  15.090   9.594   6.751
  486PNCE   C1B 4364  14.218  10.217   7.850
  486PNCE   C2B 4365  13.847  10.283   7.604
  486PNCE   C3B 4366  13.485  10.116   7.414
  486PNCE   D4B 4367  13.379   9.696   7.297
  486PNCE   C5B 4368  13.654   9.486   7.003
  486PNCE   C6B 4369  14.105   9.519   6.993
  487PNCE   AM1 4370   6.449  15.409   8.892
  487PNCE   AM2 4371   6.282  15.299   9.159
  487PNCE   T1A 4372   6.719  15.431   8.578
  487PNCE   C2A 4373   7.077  15.380   8.329
  487PNCE   C3A 4374   7.355  15.195   8.019
  487PNCE   C1B 4375   5.975  15.349   8.777
  487PNCE   C2B 4376   6.054  15.305   8.332
  487PNCE   C3B 4377   6.214  15.316   7.915
  487PNCE   D4B 4378   6.256  15.658   7.672
  487PNCE   C5B 4379   6.659  15.797   7.656
  487PNCE   C6B 4380   7.050   0.033   7.844
  488PNCE   AM1 4381   0.484  13.139   8.699
  488PNCE   AM2 4382   0.728  13.358   8.833
  488PNCE   T1A 4383   0.071  13.085   8.571
  488PNCE   C2A 4384  15.695  12.735   8.413
  488PNCE   C3A 4385  15.528  12.662   8.020
  488PNCE   C1B 4386   0.426  13.656   8.651
  488PNCE   C2B 4387   0.006  13.655   8.656
  488PNCE   C3B 4388  15.595  14.036   8.692
  488PNCE   D4B 4389  15.524  14.345   8.975
  488PNCE   C5B 4390  15.125  14.511   8.906
  488PNCE   C6B 4391  14.721  14.231   8.830
  489XCA    COO 4392   2.395   0.164   9.021
  489XCA     C1 4393   2.436   0.273   8.572
  489XCA     C2 4394   2.631   0.369   8.190
  489XCA     C3 4395   2.767   0.556   7.821
  489XCA     C4 4396   2.891   0.557   7.395
  489XCA     C5 4397   3.114   0.698   7.019
  489XCA     C6 4398   3.340   0.687   6.628
  490CHOL   ROH 4399  10.044   8.608   8.177
  490CHOL    R1 4400  10.026   8.792   7.964
  490CHOL    R2 4401  10.190   9.013   7.943
  490CHOL    R3 4402  10.243   8.911   7.697
  490CHOL    R4 4403  10.319   9.193   7.677
  490CHOL    R5 4404  10.183   9.086   7.545
  490CHOL    C1 4405  10.444   9.201   7.292
  490CHOL    C2 4406  10.812   9.083   7.129
  491CHOL   ROH 4407  11.364   2.086   7.027
  491CHOL    R1 4408  11.527   2.052   6.798
  491CHOL    R2 4409  11.482   2.189   6.563
  491CHOL    R3 4410  11.742   2.263   6.594
  491CHOL    R4 4411  11.666   2.368   6.331
  491CHOL    R5 4412  11.837   2.241   6.375
  491CHOL    C1 4413  12.017   2.542   6.226
  491CHOL    C2 4414  12.029   2.940   6.104
  492CHOL   ROH 4415   3.556   8.882   5.271
  492CHOL    R1 4416   3.497   8.893   5.547
  492CHOL    R2 4417   3.428   8.669   5.694
  492CHOL    R3 4418   3.633   8.751   5.853
  492CHOL    R4 4419   3.467   8.583   6.026
  492CHOL    R5 4420   3.531   8.787   6.067
  492CHOL    C1 4421   3.681   8.610   6.369
  492CHOL    C2 4422   3.891   8.387   6.647
  493PNCE   AM1 4423   3.366  13.608   7.542
  493PNCE   AM2 4424   3.391  13.289   7.445
  493PNCE   T1A 4425   3.074  13.936   7.411
  493PNCE   C2A 4426   2.634  14.058   7.538
  493PNCE   C3A 4427   2.438  14.251   7.893
  493PNCE   C1B 4428   3.477  13.255   6.974
  493PNCE   C2B 4429   3.502  12.909   6.748
  493PNCE   C3B 4430   3.358  12.509   6.789
  493PNCE   D4B 4431   3.329  12.102   6.963
  493PNCE   C5B 4432   2.947  11.993   7.170
  493PNCE   C6B 4433   2.571  12.158   7.383
  494XCA    COO 4434   2.495   4.839   4.672
  494XCA     C1 4435   2.494   4.684   5.117
  494XCA     C2 4436   2.782   4.487   5.429
  494XCA     C3 4437   2.839   4.547   5.880
  494XCA     C4 4438   2.694   4.761   6.231
  494XCA     C5 4439   2.740   4.948   6.624
  494XCA     C6 4440   2.967   4.980   7.029
  495CHOL   ROH 4441  10.622   1.369   4.896
  495CHOL    R1 4442  10.559   1.466   5.154
  495CHOL    R2 4443  10.609   1.321   5.384
  495CHOL    R3 4444  10.743   1.545   5.458
  495CHOL    R4 4445  10.726   1.384   5.703
  495CHOL    R5 4446  10.663   1.592   5.679
  495CHOL    C1 4447  10.919   1.632   5.958
  495CHOL    C2 4448  10.773   1.678   6.366
  496XCA    COO 4449  14.120   7.097   7.973
  496XCA     C1 4450  14.493   7.188   7.724
  496XCA     C2 4451  14.601   7.338   7.338
  496XCA     C3 4452  14.531   7.422   6.907
  496XCA     C4 4453  14.255   7.535   6.542
  496XCA     C5 4454  14.046   7.761   6.180
  496XCA     C6 4455  13.761   8.061   5.957
  497PNCE   AM1 4456  13.741   0.887   8.715
  497PNCE   AM2 4457  13.660   1.232   8.692
  497PNCE   T1A 4458  13.529   0.558   8.404
  497PNCE   C2A 4459  13.263   0.271   8.160
  497PNCE   C3A 4460  13.028   0.262   7.779
  497PNCE   C1B 4461  13.457   1.055   8.287
  497PNCE   C2B 4462  13.196   0.754   7.986
  497PNCE   C3B 4463  13.034   0.785   7.526
  497PNCE   D4B 4464  12.927   1.056   7.133
  497PNCE   C5B 4465  12.645   0.938   6.782
  497PNCE   C6B 4466  12.266   0.813   6.538
  498CHOL   ROH 4467  14.645  13.146   9.089
  498CHOL    R1 4468  14.634  13.205   8.812
  498CHOL    R2 4469  14.396  13.214   8.672
  498CHOL    R3 4470  14.484  13.462   8.602
  498CHOL    R4 4471  14.291  13.391   8.394
  498CHOL    R5 4472  14.496  13.456   8.363
  498CHOL    C1 4473  14.311  13.726   8.167
  498CHOL    C2 4474  14.258  13.812   7.741
  499PNCE   AM1 4475   2.383   6.989   8.044
  499PNCE   AM2 4476   2.700   6.817   8.182
  499PNCE   T1A 4477   2.229   6.868   7.643
  499PNCE   C2A 4478   2.268   6.941   7.216
  499PNCE   C3A 4479   2.353   7.104   6.837
  499PNCE   C1B 4480   2.633   6.613   7.799
  499PNCE   C2B 4481   2.528   6.537   7.374
  499PNCE   C3B 4482   2.563   6.544   6.941
  499PNCE   D4B 4483   2.416   6.521   6.527
  499PNCE   C5B 4484   2.512   6.935   6.394
  499PNCE   C6B 4485   2.667   7.342   6.492
  500PNCE   AM1 4486   8.958   6.115   8.229
  500PNCE   AM2 4487   8.575   6.057   8.175
  500PNCE   T1A 4488   8.758   6.539   8.109
  500PNCE   C2A 4489   8.473   6.757   7.800
  500PNCE   C3A 4490   8.365   7.187   7.684
  500PNCE   C1B 4491   8.619   6.232   7.732
  500PNCE   C2B 4492   8.479   6.453   7.346
  500PNCE   C3B 4493   8.237   6.861   7.300
  500PNCE   D4B 4494   8.378   7.263   7.157
  500PNCE   C5B 4495   8.208   7.460   6.753
  500PNCE   C6B 4496   8.189   7.317   6.291
  501PNCE   AM1 4497   6.849   8.188   8.540
  501PNCE   AM2 4498   6.611   7.911   8.507
  501PNCE   T1A 4499   6.763   8.117   8.074
  501PNCE   C2A 4500   6.892   8.259   7.660
  501PNCE   C3A 4501   7.253   8.191   7.378
  501PNCE   C1B 4502   6.564   7.663   8.123
  501PNCE   C2B 4503   6.472   7.497   7.718
  501PNCE   C3B 4504   6.416   7.390   7.292
  501PNCE   D4B 4505   6.562   7.275   6.883
  501PNCE   C5B 4506   6.544   6.827   6.778
  501PNCE   C6B 4507   6.417   6.654   6.405
  502PNCE   AM1 4508  14.118  10.283   8.354
  502PNCE   AM2 4509  14.155  10.570   8.547
  502PNCE   T1A 4510  13.736  10.424   8.121
  502PNCE   C2A 4511  13.370  10.223   7.903
  502PNCE   C3A 4512  13.381   9.778   7.843
  502PNCE   C1B 4513  14.318  10.873   8.259
  502PNCE   C2B 4514  14.231  10.809   7.857
  502PNCE   C3B 4515  14.240  11.068   7.526
  502PNCE   D4B 4516  14.588  11.247   7.332
  502PNCE   C5B 4517  14.420  11.618   7.140
  502PNCE   C6B 4518  14.044  11.743   6.930
  503CHOL   ROH 4519   5.649  15.142   4.802
  503CHOL    R1 4520   5.527  14.893   4.854
  503CHOL    R2 4521   5.522  14.779   5.106
  503CHOL    R3 4522   5.254  14.770   5.062
  503CHOL    R4 4523   5.299  14.582   5.282
  503CHOL    R5 4524   5.196  14.541   5.095
  503CHOL    C1 4525   4.918  14.459   5.343
  503CHOL    C2 4526   4.688  14.585   5.648
  504CHOL   ROH 4527  14.466   6.324   7.440
  504CHOL    R1 4528  14.334   6.330   7.190
  504CHOL    R2 4529  14.465   6.393   6.955
  504CHOL    R3 4530  14.361   6.155   6.872
  504CHOL    R4 4531  14.408   6.306   6.625
  504CHOL    R5 4532  14.221   6.213   6.686
  504CHOL    C1 4533  14.278   6.032   6.355
  504CHOL    C2 4534  14.213   5.757   6.068
  505CHOL   ROH 4535  10.537  14.286   8.212
  505CHOL    R1 4536  10.762  14.195   8.068
  505CHOL    R2 4537  10.742  14.020   7.855
  505CHOL    R3 4538  10.882  14.214   7.725
  505CHOL    R4 4539  10.907  13.976   7.555
  505CHOL    R5 4540  11.070  14.098   7.631
  505CHOL    C1 4541  11.133  14.131   7.257
  505CHOL    C2 4542  11.229  14.064   6.901
  506CHOL   ROH 4543  11.603   4.847   6.362
  506CHOL    R1 4544  11.558   5.063   6.185
  506CHOL    R2 4545  11.667   5.071   5.931
  506CHOL    R3 4546  11.408   5.108   5.857
  506CHOL    R4 4547  11.564   5.188   5.622
  506CHOL    R5 4548  11.412   5.306   5.723
  506CHOL    C1 4549  11.262   5.290   5.372
  506CHOL    C2 4550  10.961   5.202   5.064
  507CHOL   ROH 4551   9.599   5.552   7.926
  507CHOL    R1 4552   9.727   5.419   7.712
  507CHOL    R2 4553   9.588   5.285   7.515
  507CHOL    R3 4554   9.732   5.445   7.349
  507CHOL    R4 4555   9.642   5.223   7.179
  507CHOL    R5 4556   9.847   5.292   7.205
  507CHOL    C1 4557   9.809   5.337   6.828
  507CHOL    C2 4558  10.021   5.338   6.500
  508PNCE   AM1 4559   1.899  14.860   8.445
  508PNCE   AM2 4560   1.606  14.949   8.626
  508PNCE   T1A 4561   2.148  14.795   8.066
  508PNCE   C2A 4562   2.250  14.722   7.620
  508PNCE   C3A 4563   2.320  14.539   7.215
  508PNCE   C1B 4564   1.287  15.095   8.328
  508PNCE   C2B 4565   1.241  15.138   7.885
  508PNCE   C3B 4566   0.910  15.110   7.581
  508PNCE   D4B 4567   0.783  14.868   7.164
  508PNCE   C5B 4568   1.077  14.813   6.854
  508PNCE   C6B 4569   1.178  14.750   6.460
  509CHOL   ROH 4570  11.687   2.302   7.273
  509CHOL    R1 4571  11.730   2.376   7.004
  509CHOL    R2 4572  11.540   2.508   6.853
  509CHOL    R3 4573  11.742   2.686   6.813
  509CHOL    R4 4574  11.532   2.768   6.625
  509CHOL    R5 4575  11.740   2.725   6.577
  509CHOL    C1 4576  11.716   3.086   6.454
  509CHOL    C2 4577  11.490   3.002   6.157
  510PNCE   AM1 4578  10.063  10.213   8.466
  510PNCE   AM2 4579   9.880   9.934   8.519
  510PNCE   T1A 4580   9.973  10.191   8.028
  510PNCE   C2A 4581   9.864  10.200   7.616
  510PNCE   C3A 4582  10.043  10.191   7.206
  510PNCE   C1B 4583  10.062   9.688   8.192
  510PNCE   C2B 4584  10.148   9.677   7.772
  510PNCE   C3B 4585  10.149   9.566   7.357
  510PNCE   D4B 4586  10.119   9.373   6.943
  510PNCE   C5B 4587  10.450   9.053   6.784
  510PNCE   C6B 4588  10.924   9.157   6.636
  511PNCE   AM1 4589   7.604   7.087   4.177
  511PNCE   AM2 4590   7.801   6.868   4.393
  511PNCE   T1A 4591   7.253   7.053   4.474
  511PNCE   C2A 4592   7.028   6.873   4.821
  511PNCE   C3A 4593   6.647   6.637   4.910
  511PNCE   C1B 4594   7.560   6.768   4.786
  511PNCE   C2B 4595   7.729   6.953   5.156
  511PNCE   C3B 4596   7.993   6.965   5.507
  511PNCE   D4B 4597   8.404   6.810   5.592
  511PNCE   C5B 4598   8.742   7.064   5.679
  511PNCE   C6B 4599   9.092   7.143   5.467
  512CHOL   ROH 4600  10.224   3.315   5.281
  512CHOL    R1 4601  10.042   3.158   5.432
  512CHOL    R2 4602  10.120   2.931   5.569
  512CHOL    R3 4603  10.006   3.058   5.780
  512CHOL    R4 4604  10.041   2.782   5.870
  512CHOL    R5 4605   9.856   2.896   5.873
  512CHOL    C1 4606   9.888   2.814   6.244
  512CHOL    C2 4607  10.109   2.744   6.545
  513CHOL   ROH 4608   0.550  12.747   8.371
  513CHOL    R1 4609   0.386  12.938   8.242
  513CHOL    R2 4610   0.331  12.929   7.971
  513CHOL    R3 4611   0.073  12.936   8.056
  513CHOL    R4 4612   0.060  13.003   7.771
  513CHOL    R5 4613  15.805  13.118   7.936
  513CHOL    C1 4614  15.488  13.053   7.733
  513CHOL    C2 4615  15.390  13.279   7.389
  514PNCE   AM1 4616  13.419  11.402   8.343
  514PNCE   AM2 4617  13.368  11.075   8.284
  514PNCE   T1A 4618  13.378  11.816   8.086
  514PNCE   C2A 4619  13.657  12.098   7.819
  514PNCE   C3A 4620  13.876  12.422   7.543
  514PNCE   C1B 4621  13.296  11.263   7.845
  514PNCE   C2B 4622  12.970  11.506   7.580
  514PNCE   C3B 4623  12.682  11.817   7.713
  514PNCE   D4B 4624  12.597  12.236   7.701
  514PNCE   C5B 4625  12.487  12.474   7.304
  514PNCE   C6B 4626  12.747  12.768   7.050
  515CHOL   ROH 4627   6.975  12.079   6.837
  515CHOL    R1 4628   7.179  11.883   6.842
  515CHOL    R2 4629   7.435  11.937   6.928
  515CHOL    R3 4630   7.390  11.727   7.095
  515CHOL    R4 4631   7.682  11.753   7.086
  515CHOL    R5 4632   7.566  11.573   7.045
  515CHOL    C1 4633   7.783  11.449   7.334
  515CHOL    C2 4634   8.026  11.284   7.668
  516CHOL   ROH 4635  11.978  12.619   7.405
  516CHOL    R1 4636  11.776  12.799   7.322
  516CHOL    R2 4637  11.534  12.715   7.219
  516CHOL    R3 4638  11.432  12.873   7.415
  516CHOL    R4 4639  11.203  12.809   7.245
  516CHOL    R5 4640  11.269  13.008   7.304
  516CHOL    C1 4641  10.914  13.012   7.444
  516CHOL    C2 4642  10.617  12.768   7.519
  517PNCE   AM1 4643   6.287   3.997   8.682
  517PNCE   AM2 4644   5.943   4.130   8.731
  517PNCE   T1A 4645   6.314   3.540   8.519
  517PNCE   C2A 4646   6.400   3.190   8.213
  517PNCE   C3A 4647   6.319   2.847   7.943
  517PNCE   C1B 4648   5.854   4.107   8.293
  517PNCE   C2B 4649   6.088   3.799   8.096
  517PNCE   C3B 4650   6.146   3.451   7.831
  517PNCE   D4B 4651   6.532   3.285   7.678
  517PNCE   C5B 4652   6.556   2.872   7.500
  517PNCE   C6B 4653   6.656   2.447   7.634
  518PNCE   AM1 4654   0.717  10.121   8.200
  518PNCE   AM2 4655   0.977   9.932   8.226
  518PNCE   T1A 4656   0.826  10.444   7.862
  518PNCE   C2A 4657   0.862  10.730   7.508
  518PNCE   C3A 4658   0.914  10.931   7.101
  518PNCE   C1B 4659   1.174  10.094   7.811
  518PNCE   C2B 4660   1.406  10.252   7.431
  518PNCE   C3B 4661   1.580  10.393   7.013
  518PNCE   D4B 4662   1.797  10.329   6.625
  518PNCE   C5B 4663   1.598  10.007   6.413
  518PNCE   C6B 4664   1.427   9.605   6.341
  519XCA    COO 4665   3.081  11.243   8.164
  519XCA     C1 4666   3.035  11.415   7.726
  519XCA     C2 4667   2.789  11.760   7.625
  519XCA     C3 4668   2.354  11.710   7.487
  519XCA     C4 4669   2.045  11.952   7.225
  519XCA     C5 4670   1.942  11.941   6.806
  519XCA     C6 4671   1.567  12.113   6.625
  520XCA    COO 4672   5.651   6.389   4.344
  520XCA     C1 4673   5.728   6.445   4.812
  520XCA     C2 4674   5.704   6.318   5.234
  520XCA     C3 4675   5.749   6.359   5.685
  520XCA     C4 4676   5.740   6.042   5.998
  520XCA     C5 4677   5.584   5.931   6.406
  520XCA     C6 4678   5.263   6.172   6.619
  521XCA    COO 4679   5.841   1.871   9.239
  521XCA     C1 4680   5.885   1.880   8.794
  521XCA     C2 4681   5.955   1.631   8.453
  521XCA     C3 4682   6.091   1.669   8.044
  521XCA     C4 4683   6.129   1.735   7.622
  521XCA     C5 4684   6.128   1.840   7.210
  521XCA     C6 4685   5.901   1.937   6.812
  522PNCE   AM1 4686   7.664   9.905   8.821
  522PNCE   AM2 4687   7.919   9.731   8.623
  522PNCE   T1A 4688   7.809  10.246   8.502
  522PNCE   C2A 4689   7.759  10.676   8.327
  522PNCE   C3A 4690   7.353  10.853   8.292
  522PNCE   C1B 4691   7.857   9.832   8.153
  522PNCE   C2B 4692   7.928   9.907   7.663
  522PNCE   C3B 4693   7.965   9.970   7.192
  522PNCE   D4B 4694   8.035  10.230   6.797
  522PNCE   C5B 4695   7.722  10.457   6.517
  522PNCE   C6B 4696   7.394  10.717   6.281
  523CHOL   ROH 4697   9.336  10.971   8.427
  523CHOL    R1 4698   9.200  11.038   8.188
  523CHOL    R2 4699   9.333  11.111   7.957
  523CHOL    R3 4700   9.186  10.911   7.847
  523CHOL    R4 4701   9.246  11.090   7.623
  523CHOL    R5 4702   9.049  11.020   7.684
  523CHOL    C1 4703   9.058  10.889   7.325
  523CHOL    C2 4704   9.055  10.909   6.891
  524XCA    COO 4705   8.620  14.548   9.113
  524XCA     C1 4706   8.728  14.700   8.665
  524XCA     C2 4707   8.657  14.879   8.198
  524XCA     C3 4708   8.911  14.979   7.790
  524XCA     C4 4709   9.125  15.267   7.469
  524XCA     C5 4710   9.410  15.423   7.159
  524XCA     C6 4711   9.869  15.487   7.212
  525CHOL   ROH 4712  10.595   4.508   4.371
  525CHOL    R1 4713  10.764   4.399   4.570
  525CHOL    R2 4714  10.895   4.158   4.539
  525CHOL    R3 4715  11.115   4.306   4.598
  525CHOL    R4 4716  11.199   4.028   4.639
  525CHOL    R5 4717  11.216   4.191   4.782
  525CHOL    C1 4718  11.583   4.091   4.753
  525CHOL    C2 4719  11.920   3.922   4.971
  526PNCE   AM1 4720  10.804  15.440   9.674
  526PNCE   AM2 4721  10.820  15.103   9.742
  526PNCE   T1A 4722  10.704  15.535   9.231
  526PNCE   C2A 4723  10.562  15.659   8.806
  526PNCE   C3A 4724  10.518  15.542   8.373
  526PNCE   C1B 4725  10.861  15.000   9.279
  526PNCE   C2B 4726  10.980  14.817   8.871
  526PNCE   C3B 4727  10.993  14.945   8.451
  526PNCE   D4B 4728  10.998  15.092   8.011
  526PNCE   C5B 4729  11.357  15.015   7.702
  526PNCE   C6B 4730  11.606  14.859   7.333
  527XCA    COO 4731  13.046  11.696   8.511
  527XCA     C1 4732  12.842  11.516   8.100
  527XCA     C2 4733  12.525  11.328   7.774
  527XCA     C3 4734  12.432  11.399   7.328
  527XCA     C4 4735  12.376  11.182   6.949
  527XCA     C5 4736  12.397  10.783   6.745
  527XCA     C6 4737  12.369  10.637   6.301
  528CHOL   ROH 4738   7.620   9.084   4.594
  528CHOL    R1 4739   7.590   8.987   4.859
  528CHOL    R2 4740   7.388   8.813   4.931
  528CHOL    R3 4741   7.595   8.662   5.023
  528CHOL    R4 4742   7.361   8.568   5.174
  528CHOL    R5 4743   7.550   8.637   5.257
  528CHOL    C1 4744   7.539   8.284   5.402
  528CHOL    C2 4745   7.837   8.085   5.630
  529XCA    COO 4746  11.997   2.918   4.724
  529XCA     C1 4747  12.336   3.031   5.013
  529XCA     C2 4748  12.602   2.821   5.289
  529XCA     C3 4749  12.795   2.914   5.671
  529XCA     C4 4750  12.787   3.023   6.097
  529XCA     C5 4751  12.973   2.849   6.473
  529XCA     C6 4752  12.818   2.730   6.856
  530PNCE   AM1 4753  13.694   6.262   8.082
  530PNCE   AM2 4754  13.451   6.527   8.000
  530PNCE   T1A 4755  13.465   6.125   7.691
  530PNCE   C2A 4756  13.469   6.202   7.250
  530PNCE   C3A 4757  13.662   6.254   6.892
  530PNCE   C1B 4758  13.446   6.626   7.516
  530PNCE   C2B 4759  13.392   6.689   7.039
  530PNCE   C3B 4760  13.554   6.883   6.633
  530PNCE   D4B 4761  13.824   6.836   6.239
  530PNCE   C5B 4762  14.247   6.630   6.306
  530PNCE   C6B 4763  14.531   6.327   6.093
  531CHOL   ROH 4764   7.415  14.718   5.754
  531CHOL    R1 4765   7.291  14.477   5.838
  531CHOL    R2 4766   7.353  14.354   6.077
  531CHOL    R3 4767   7.084  14.369   6.117
  531CHOL    R4 4768   7.168  14.133   6.268
  531CHOL    R5 4769   7.011  14.141   6.118
  531CHOL    C1 4770   6.809  14.018   6.417
  531CHOL    C2 4771   6.459  14.009   6.676
  532PNCE   AM1 4772   2.250   8.075   8.426
  532PNCE   AM2 4773   2.068   7.876   8.190
  532PNCE   T1A 4774   2.546   8.370   8.160
  532PNCE   C2A 4775   2.685   8.770   7.995
  532PNCE   C3A 4776   2.598   9.126   7.727
  532PNCE   C1B 4777   2.086   8.313   7.968
  532PNCE   C2B 4778   2.200   8.737   7.760
  532PNCE   C3B 4779   2.138   8.788   7.348
  532PNCE   D4B 4780   2.076   8.970   6.974
  532PNCE   C5B 4781   2.190   8.834   6.595
  532PNCE   C6B 4782   2.503   8.662   6.325
  533PNCE   AM1 4783  15.693  11.632   8.994
  533PNCE   AM2 4784  15.565  11.377   8.754
  533PNCE   T1A 4785  15.739  11.938   8.632
  533PNCE   C2A 4786   0.091  12.266   8.391
  533PNCE   C3A 4787   0.302  12.462   8.051
  533PNCE   C1B 4788  15.623  11.103   8.344
  533PNCE   C2B 4789  15.756  10.854   7.977
  533PNCE   C3B 4790   0.080  10.940   7.560
  533PNCE   D4B 4791   0.382  10.702   7.309
  533PNCE   C5B 4792   0.393  10.230   7.337
  533PNCE   C6B 4793   0.324   9.804   7.181
  534PNCE   AM1 4794   3.500   9.803   8.214
  534PNCE   AM2 4795   3.615   9.495   8.125
  534PNCE   T1A 4796   3.509   9.810   7.743
  534PNCE   C2A 4797   3.709   9.772   7.330
  534PNCE   C3A 4798   3.819   9.520   6.936
  534PNCE   C1B 4799   3.166   9.394   8.200
  534PNCE   C2B 4800   2.713   9.303   8.202
  534PNCE   C3B 4801   2.283   9.149   8.144
  534PNCE   D4B 4802   1.996   9.233   7.811
  534PNCE   C5B 4803   1.623   9.322   7.998
  534PNCE   C6B 4804   1.532   9.357   8.415
  535PNCE   AM1 4805  12.835   6.835   8.059
  535PNCE   AM2 4806  13.162   6.950   8.016
  535PNCE   T1A 4807  12.605   6.953   7.702
  535PNCE   C2A 4808  12.352   7.107   7.365
  535PNCE   C3A 4809  11.965   7.067   7.099
  535PNCE   C1B 4810  13.090   7.001   7.554
  535PNCE   C2B 4811  12.913   6.961   7.155
  535PNCE   C3B 4812  12.793   6.641   6.895
  535PNCE   D4B 4813  12.670   6.568   6.502
  535PNCE   C5B 4814  12.622   6.235   6.223
  535PNCE   C6B 4815  12.666   6.005   5.823
  536CHOL   ROH 4816  15.159   8.036   7.541
  536CHOL    R1 4817  15.369   8.114   7.368
  536CHOL    R2 4818  15.344   8.109   7.093
  536CHOL    R3 4819  15.421   8.369   7.114
  536CHOL    R4 4820  15.426   8.314   6.826
  536CHOL    R5 4821  15.589   8.396   6.945
  536CHOL    C1 4822  15.545   8.677   6.690
  536CHOL    C2 4823  15.645   8.964   6.376
  537CHOL   ROH 4824   8.895   6.767   7.202
  537CHOL    R1 4825   9.158   6.856   7.252
  537CHOL    R2 4826   9.381   6.701   7.200
  537CHOL    R3 4827   9.459   6.917   7.056
  537CHOL    R4 4828   9.679   6.727   7.028
  537CHOL    R5 4829   9.694   6.934   7.095
  537CHOL    C1 4830   9.926   6.946   6.792
  537CHOL    C2 4831  10.115   6.851   6.442
  538PNCE   AM1 4832   1.121   1.594   4.689
  538PNCE   AM2 4833   0.867   1.812   4.780
  538PNCE   T1A 4834   1.400   1.638   5.039
  538PNCE   C2A 4835   1.533   1.787   5.497
  538PNCE   C3A 4836   1.366   1.968   5.884
  538PNCE   C1B 4837   0.665   1.835   5.194
  538PNCE   C2B 4838   0.527   1.800   5.608
  538PNCE   C3B 4839   0.465   1.902   6.014
  538PNCE   D4B 4840   0.593   2.070   6.395
  538PNCE   C5B 4841   0.699   1.874   6.750
  538PNCE   C6B 4842   0.814   1.615   7.137
  539XCA    COO 4843   6.756   8.856   4.468
  539XCA     C1 4844   6.931   8.821   4.880
  539XCA     C2 4845   6.864   8.643   5.274
  539XCA     C3 4846   7.086   8.410   5.568
  539XCA     C4 4847   6.902   8.130   5.871
  539XCA     C5 4848   6.921   7.717   6.105
  539XCA     C6 4849   6.600   7.495   6.403
  540CHOL   ROH 4850  13.494   6.728   5.484
  540CHOL    R1 4851  13.327   6.654   5.700
  540CHOL    R2 4852  13.404   6.684   5.963
  540CHOL    R3 4853  13.170   6.822   5.982
  540CHOL    R4 4854  13.251   6.776   6.260
  540CHOL    R5 4855  13.059   6.725   6.171
  540CHOL    C1 4856  12.943   6.958   6.450
  540CHOL    C2 4857  12.607   7.086   6.707
  541PNCE   AM1 4858   2.088   7.343   7.732
  541PNCE   AM2 4859   1.813   7.536   7.852
  541PNCE   T1A 4860   1.916   7.533   7.340
  541PNCE   C2A 4861   1.720   7.661   6.965
  541PNCE   C3A 4862   1.353   7.896   6.906
  541PNCE   C1B 4863   1.720   7.994   7.828
  541PNCE   C2B 4864   1.450   8.346   7.803
  541PNCE   C3B 4865   1.240   8.690   7.586
  541PNCE   D4B 4866   1.159   8.972   7.191
  541PNCE   C5B 4867   1.147   8.806   6.754
  541PNCE   C6B 4868   0.951   8.465   6.536
  542PNCE   AM1 4869   0.312   6.928   7.726
  542PNCE   AM2 4870   0.117   6.744   7.939
  542PNCE   T1A 4871   0.313   6.593   7.434
  542PNCE   C2A 4872   0.378   6.418   7.033
  542PNCE   C3A 4873   0.543   6.620   6.652
  542PNCE   C1B 4874  15.658   6.536   7.651
  542PNCE   C2B 4875  15.295   6.557   7.369
  542PNCE   C3B 4876  15.233   6.210   7.053
  542PNCE   D4B 4877  15.171   5.885   6.804
  542PNCE   C5B 4878  15.450   5.719   6.497
  542PNCE   C6B 4879  15.827   5.646   6.279
  543PNCE   AM1 4880   7.840   8.544   8.792
  543PNCE   AM2 4881   8.191   8.482   8.796
  543PNCE   T1A 4882   7.844   8.969   8.594
  543PNCE   C2A 4883   7.775   9.306   8.270
  543PNCE   C3A 4884   7.794   9.441   7.832
  543PNCE   C1B 4885   8.051   8.571   8.329
  543PNCE   C2B 4886   7.805   8.406   7.982
  543PNCE   C3B 4887   7.427   8.519   7.756
  543PNCE   D4B 4888   7.148   8.681   7.460
  543PNCE   C5B 4889   7.295   9.049   7.313
  543PNCE   C6B 4890   7.259   9.375   7.008
  544CHOL   ROH 4891   5.466  11.539   4.476
  544CHOL    R1 4892   5.358  11.457   4.725
  544CHOL    R2 4893   5.469  11.254   4.875
  544CHOL    R3 4894   5.472  11.443   5.070
  544CHOL    R4 4895   5.469  11.189   5.215
  544CHOL    R5 4896   5.331  11.354   5.242
  544CHOL    C1 4897   5.472  11.328   5.595
  544CHOL    C2 4898   5.434  11.134   5.981
  545PNCE   AM1 4899   9.706  10.616   8.556
  545PNCE   AM2 4900   9.776  10.961   8.620
  545PNCE   T1A 4901  10.027  10.673   8.232
  545PNCE   C2A 4902  10.021  10.699   7.801
  545PNCE   C3A 4903   9.904  10.643   7.392
  545PNCE   C1B 4904   9.764  11.101   8.141
  545PNCE   C2B 4905   9.746  11.090   7.639
  545PNCE   C3B 4906  10.032  11.072   7.205
  545PNCE   D4B 4907  10.274  10.906   6.824
  545PNCE   C5B 4908  10.052  10.758   6.460
  545PNCE   C6B 4909  10.139  10.586   6.060
  546PNCE   AM1 4910   5.946   4.614   8.546
  546PNCE   AM2 4911   6.238   4.461   8.427
  546PNCE   T1A 4912   5.850   4.592   8.082
  546PNCE   C2A 4913   5.812   4.277   7.755
  546PNCE   C3A 4914   5.882   3.861   7.624
  546PNCE   C1B 4915   6.277   4.278   7.994
  546PNCE   C2B 4916   6.470   3.899   7.780
  546PNCE   C3B 4917   6.324   3.703   7.404
  546PNCE   D4B 4918   5.986   3.790   7.135
  546PNCE   C5B 4919   5.998   4.000   6.754
  546PNCE   C6B 4920   6.204   3.816   6.396
  547PNCE   AM1 4921   4.854   3.851   8.628
  547PNCE   AM2 4922   4.966   3.990   8.337
  547PNCE   T1A 4923   4.749   3.421   8.466
  547PNCE   C2A 4924   4.572   2.974   8.539
  547PNCE   C3A 4925   4.276   2.582   8.544
  547PNCE   C1B 4926   4.949   3.973   7.892
  547PNCE   C2B 4927   5.348   3.956   7.644
  547PNCE   C3B 4928   5.488   3.736   7.297
  547PNCE   D4B 4929   5.534   3.794   6.876
  547PNCE   C5B 4930   5.523   4.229   6.792
  547PNCE   C6B 4931   5.749   4.587   6.952
  548PNCE   AM1 4932   6.277   7.247   8.149
  548PNCE   AM2 4933   6.248   6.926   8.059
  548PNCE   T1A 4934   6.066   7.641   8.028
  548PNCE   C2A 4935   5.703   7.833   7.850
  548PNCE   C3A 4936   5.642   7.835   7.410
  548PNCE   C1B 4937   6.433   6.979   7.649
  548PNCE   C2B 4938   6.237   6.866   7.290
  548PNCE   C3B 4939   6.093   6.960   6.912
  548PNCE   D4B 4940   6.213   7.161   6.530
  548PNCE   C5B 4941   5.818   7.400   6.439
  548PNCE   C6B 4942   5.483   7.571   6.166
  549CHOL   ROH 4943  13.236  12.487   8.218
  549CHOL    R1 4944  13.496  12.392   8.159
  549CHOL    R2 4945  13.676  12.537   8.008
  549CHOL    R3 4946  13.838  12.498   8.223
  549CHOL    R4 4947  14.021  12.522   7.996
  549CHOL    R5 4948  14.015  12.359   8.141
  549CHOL    C1 4949  14.374  12.477   8.191
  549CHOL    C2 4950  14.503  12.383   7.856
  550XCA    COO 4951   0.313   7.481   4.296
  550XCA     C1 4952   0.336   7.413   4.774
  550XCA     C2 4953   0.124   7.532   5.139
  550XCA     C3 4954  15.758   7.345   5.478
  550XCA     C4 4955  15.363   7.124   5.470
  550XCA     C5 4956  15.112   7.087   5.114
  550XCA     C6 4957  14.940   7.017   4.702
  551PNCE   AM1 4958  12.627   2.375   8.477
  551PNCE   AM2 4959  12.866   2.222   8.267
  551PNCE   T1A 4960  12.571   2.689   8.145
  551PNCE   C2A 4961  12.670   2.766   7.703
  551PNCE   C3A 4962  12.654   2.581   7.306
  551PNCE   C1B 4963  12.685   2.270   7.846
  551PNCE   C2B 4964  12.581   2.104   7.449
  551PNCE   C3B 4965  12.285   1.931   7.204
  551PNCE   D4B 4966  11.988   1.993   6.884
  551PNCE   C5B 4967  12.008   1.771   6.502
  551PNCE   C6B 4968  12.133   1.504   6.136
  552XCA    COO 4969  10.416  14.776   9.827
  552XCA     C1 4970  10.474  14.669   9.366
  552XCA     C2 4971  10.669  14.437   9.022
  552XCA     C3 4972  10.849  14.374   8.596
  552XCA     C4 4973  11.093  14.489   8.248
  552XCA     C5 4974  11.170  14.564   7.851
  552XCA     C6 4975  11.397  14.441   7.512
  553PNCE   AM1 4976   0.770  12.516   8.775
  553PNCE   AM2 4977   0.840  12.838   8.944
  553PNCE   T1A 4978   0.455  12.133   8.735
  553PNCE   C2A 4979   0.299  11.765   8.386
  553PNCE   C3A 4980   0.338  11.766   7.949
  553PNCE   C1B 4981   0.929  13.012   8.486
  553PNCE   C2B 4982   0.799  13.008   8.023
  553PNCE   C3B 4983   0.963  12.948   7.611
  553PNCE   D4B 4984   1.306  12.741   7.384
  553PNCE   C5B 4985   1.532  13.026   7.114
  553PNCE   C6B 4986   1.402  13.482   6.991
  554CHOL   ROH 4987   6.328   5.066   4.521
  554CHOL    R1 4988   6.298   5.165   4.784
  554CHOL    R2 4989   6.152   5.393   4.842
  554CHOL    R3 4990   6.023   5.227   5.014
  554CHOL    R4 4991   6.027   5.487   5.150
  554CHOL    R5 4992   6.097   5.297   5.231
  554CHOL    C1 4993   5.832   5.386   5.491
  554CHOL    C2 4994   6.059   5.569   5.684
  555CHOL   ROH 4995   5.119   8.830   5.393
  555CHOL    R1 4996   5.272   8.759   5.620
  555CHOL    R2 4997   5.411   8.945   5.769
  555CHOL    R3 4998   5.271   8.837   5.975
  555CHOL    R4 4999   5.521   8.930   6.096
  555CHOL    R5 5000   5.436   8.730   6.110
  555CHOL    C1 5001   5.453   8.820   6.481
  555CHOL    C2 5002   5.443   8.793   6.889
  556CHOL   ROH 5003  15.161   3.128   8.596
  556CHOL    R1 5004  15.389   3.067   8.439
  556CHOL    R2 5005  15.419   3.157   8.180
  556CHOL    R3 5006  15.655   3.255   8.276
  556CHOL    R4 5007  15.702   3.215   7.990
  556CHOL    R5 5008  15.822   3.136   8.153
  556CHOL    C1 5009   0.258   3.339   7.969
  556CHOL    C2 5010   0.290   3.049   7.758
  557PNCE   AM1 5011  11.449  10.225   8.381
  557PNCE   AM2 5012  11.549   9.931   8.235
  557PNCE   T1A 5013  11.387  10.415   7.947
  557PNCE   C2A 5014  11.387  10.368   7.484
  557PNCE   C3A 5015  11.563  10.205   7.098
  557PNCE   C1B 5016  11.580   9.962   7.769
  557PNCE   C2B 5017  11.801   9.830   7.371
  557PNCE   C3B 5018  11.581   9.705   6.978
  557PNCE   D4B 5019  11.199   9.849   6.818
  557PNCE   C5B 5020  11.057  10.280   6.931
  557PNCE   C6B 5021  10.732  10.625   6.774
  558CHOL   ROH 5022  11.398  12.442   6.118
  558CHOL    R1 5023  11.392  12.360   6.388
  558CHOL    R2 5024  11.234  12.152   6.477
  558CHOL    R3 5025  11.469  12.056   6.574
  558CHOL    R4 5026  11.263  11.915   6.728
  558CHOL    R5 5027  11.430  12.029   6.809
  558CHOL    C1 5028  11.500  11.688   6.965
  558CHOL    C2 5029  11.179  11.469   6.919
  559PNCE   AM1 5030   4.845   1.273   9.240
  559PNCE   AM2 5031   5.062   1.002   9.123
  559PNCE   T1A 5032   4.672   1.277   8.803
  559PNCE   C2A 5033   4.714   1.309   8.342
  559PNCE   C3A 5034   4.974   1.064   8.023
  559PNCE   C1B 5035   5.193   1.236   8.729
  559PNCE   C2B 5036   5.590   1.241   8.486
  559PNCE   C3B 5037   5.649   1.276   8.057
  559PNCE   D4B 5038   5.583   1.093   7.638
  559PNCE   C5B 5039   5.168   0.962   7.524
  559PNCE   C6B 5040   4.726   0.896   7.602
  560PNCE   AM1 5041   0.266   5.879   7.999
  560PNCE   AM2 5042   0.151   6.203   7.918
  560PNCE   T1A 5043   0.494   5.729   7.581
  560PNCE   C2A 5044   0.904   5.604   7.434
  560PNCE   C3A 5045   1.387   5.518   7.419
  560PNCE   C1B 5046   0.176   6.098   7.465
  560PNCE   C2B 5047   0.301   5.868   7.100
  560PNCE   C3B 5048   0.428   5.622   6.733
  560PNCE   D4B 5049   0.611   5.235   6.629
  560PNCE   C5B 5050   1.083   5.171   6.697
  560PNCE   C6B 5051   1.437   5.122   7.030
  561PNCE   AM1 5052   7.576   4.380   8.596
  561PNCE   AM2 5053   7.713   4.256   8.301
  561PNCE   T1A 5054   7.231   4.094   8.375
  561PNCE   C2A 5055   7.202   3.621   8.221
  561PNCE   C3A 5056   6.974   3.256   7.995
  561PNCE   C1B 5057   7.544   3.986   7.951
  561PNCE   C2B 5058   7.611   3.938   7.518
  561PNCE   C3B 5059   7.620   3.999   7.115
  561PNCE   D4B 5060   7.738   3.953   6.681
  561PNCE   C5B 5061   8.123   3.694   6.553
  561PNCE   C6B 5062   8.443   3.433   6.330
  562PNCE   AM1 5063  10.559   2.899   4.694
  562PNCE   AM2 5064  10.555   2.564   4.629
  562PNCE   T1A 5065  10.662   3.229   4.981
  562PNCE   C2A 5066  10.701   3.280   5.401
  562PNCE   C3A 5067  10.894   3.413   5.797
  562PNCE   C1B 5068  10.648   2.430   5.077
  562PNCE   C2B 5069  10.739   2.415   5.505
  562PNCE   C3B 5070  10.863   2.465   5.948
  562PNCE   D4B 5071  11.213   2.554   6.271
  562PNCE   C5B 5072  11.104   2.457   6.718
  562PNCE   C6B 5073  10.820   2.458   7.090
  563PNCE   AM1 5074  15.302   5.733   7.746
  563PNCE   AM2 5075  15.615   5.722   7.911
  563PNCE   T1A 5076  15.500   6.064   7.477
  563PNCE   C2A 5077  15.711   6.337   7.140
  563PNCE   C3A 5078  15.706   6.538   6.732
  563PNCE   C1B 5079  15.758   5.592   7.496
  563PNCE   C2B 5080   0.042   5.398   7.123
  563PNCE   C3B 5081   0.023   5.324   6.703
  563PNCE   D4B 5082   0.165   5.129   6.346
  563PNCE   C5B 5083   0.385   5.384   6.057
  563PNCE   C6B 5084   0.727   5.613   5.851
  564PNCE   AM1 5085   2.209  10.110   8.362
  564PNCE   AM2 5086   2.169  10.467   8.225
  564PNCE   T1A 5087   2.408  10.118   7.933
  564PNCE   C2A 5088   2.422  10.077   7.473
  564PNCE   C3A 5089   2.350  10.214   7.041
  564PNCE   C1B 5090   1.975  10.429   7.770
  564PNCE   C2B 5091   1.925  10.226   7.369
  564PNCE   C3B 5092   1.904   9.977   6.995
  564PNCE   D4B 5093   2.124   9.846   6.617
  564PNCE   C5B 5094   1.950   9.732   6.183
  564PNCE   C6B 5095   1.820   9.557   5.770
  565CHOL   ROH 5096  13.642   4.881   4.718
  565CHOL    R1 5097  13.839   4.722   4.843
  565CHOL    R2 5098  13.855   4.693   5.117
  565CHOL    R3 5099  13.844   4.428   5.058
  565CHOL    R4 5100  13.941   4.438   5.335
  565CHOL    R5 5101  14.036   4.334   5.168
  565CHOL    C1 5102  13.980   4.041   5.406
  565CHOL    C2 5103  13.776   3.791   5.602
  566CHOL   ROH 5104   1.858   1.269   4.905
  566CHOL    R1 5105   1.848   1.272   5.188
  566CHOL    R2 5106   1.633   1.373   5.328
  566CHOL    R3 5107   1.637   1.128   5.447
  566CHOL    R4 5108   1.467   1.292   5.620
  566CHOL    R5 5109   1.640   1.176   5.682
  566CHOL    C1 5110   1.373   1.016   5.902
  566CHOL    C2 5111   1.405   1.073   6.305
  567PNCE   AM1 5112  13.552   5.718   8.218
  567PNCE   AM2 5113  13.387   5.609   7.934
  567PNCE   T1A 5114  13.861   5.814   7.900
  567PNCE   C2A 5115  14.252   5.654   7.759
  567PNCE   C3A 5116  14.568   5.931   7.667
  567PNCE   C1B 5117  13.506   5.650   7.491
  567PNCE   C2B 5118  13.600   5.683   7.027
  567PNCE   C3B 5119  13.629   5.506   6.587
  567PNCE   D4B 5120  13.822   5.385   6.217
  567PNCE   C5B 5121  14.174   5.264   6.334
  567PNCE   C6B 5122  14.566   5.397   6.288
  568PNCE   AM1 5123   8.766   5.413   7.798
  568PNCE   AM2 5124   8.672   5.738   7.762
  568PNCE   T1A 5125   9.062   5.167   7.646
  568PNCE   C2A 5126   9.206   5.092   7.284
  568PNCE   C3A 5127   9.309   5.179   6.857
  568PNCE   C1B 5128   8.783   5.947   7.331
  568PNCE   C2B 5129   8.991   5.910   6.916
  568PNCE   C3B 5130   9.176   5.960   6.513
  568PNCE   D4B 5131   9.149   6.364   6.397
  568PNCE   C5B 5132   8.848   6.689   6.386
  568PNCE   C6B 5133   8.582   6.994   6.161
  569PNCE   AM1 5134   4.106  13.273   7.795
  569PNCE   AM2 5135   4.414  13.357   7.921
  569PNCE   T1A 5136   4.301  13.096   7.416
  569PNCE   C2A 5137   4.577  12.741   7.290
  569PNCE   C3A 5138   4.654  12.429   7.001
  569PNCE   C1B 5139   4.714  13.320   7.586
  569PNCE   C2B 5140   4.735  13.199   7.161
  569PNCE   C3B 5141   4.939  12.865   6.935
  569PNCE   D4B 5142   4.918  12.713   6.551
  569PNCE   C5B 5143   4.530  12.534   6.467
  569PNCE   C6B 5144   4.146  12.368   6.287
  570CHOL   ROH 5145   8.056   3.243   8.541
  570CHOL    R1 5146   8.236   3.261   8.324
  570CHOL    R2 5147   8.164   3.366   8.079
  570CHOL    R3 5148   8.379   3.527   8.120
  570CHOL    R4 5149   8.328   3.544   7.832
  570CHOL    R5 5150   8.517   3.493   7.927
  570CHOL    C1 5151   8.625   3.799   7.728
  570CHOL    C2 5152   8.958   4.007   7.601
  571XCA    COO 5153   4.659   8.753   8.150
  571XCA     C1 5154   4.574   8.685   7.702
  571XCA     C2 5155   4.521   8.667   7.257
  571XCA     C3 5156   4.403   8.525   6.838
  571XCA     C4 5157   4.349   8.147   6.556
  571XCA     C5 5158   4.385   7.643   6.537
  571XCA     C6 5159   4.572   7.367   6.912
  572PNCE   AM1 5160   2.966   3.274   8.712
  572PNCE   AM2 5161   3.093   3.632   8.690
  572PNCE   T1A 5162   2.647   3.291   8.436
  572PNCE   C2A 5163   2.449   3.350   8.074
  572PNCE   C3A 5164   2.170   3.177   7.828
  572PNCE   C1B 5165   3.154   3.482   8.255
  572PNCE   C2B 5166   3.502   3.616   7.966
  572PNCE   C3B 5167   3.616   3.486   7.536
  572PNCE   D4B 5168   3.815   3.221   7.223
  572PNCE   C5B 5169   3.719   3.186   6.769
  572PNCE   C6B 5170   3.464   3.054   6.412
  573CHOL   ROH 5171   0.354   0.721   5.285
  573CHOL    R1 5172   0.128   0.765   5.449
  573CHOL    R2 5173   0.081   1.005   5.577
  573CHOL    R3 5174  15.671   0.990   5.450
  573CHOL    R4 5175  15.634   1.198   5.654
  573CHOL    R5 5176  15.509   1.021   5.625
  573CHOL    C1 5177  15.248   1.296   5.580
  573CHOL    C2 5178  15.129   1.697   5.486
  574PNCE   AM1 5179   6.344  12.700   8.679
  574PNCE   AM2 5180   6.038  12.592   8.627
  574PNCE   T1A 5181   6.701  12.730   8.460
  574PNCE   C2A 5182   6.906  12.889   8.140
  574PNCE   C3A 5183   7.143  12.847   7.777
  574PNCE   C1B 5184   6.144  12.485   8.165
  574PNCE   C2B 5185   6.309  12.434   7.728
  574PNCE   C3B 5186   6.388  12.620   7.320
  574PNCE   D4B 5187   6.367  12.552   6.849
  574PNCE   C5B 5188   6.717  12.491   6.568
  574PNCE   C6B 5189   7.041  12.760   6.404
  575PNCE   AM1 5190  14.286   2.348   8.506
  575PNCE   AM2 5191  13.956   2.425   8.456
  575PNCE   T1A 5192  14.373   2.174   8.079
  575PNCE   C2A 5193  14.571   2.139   7.664
  575PNCE   C3A 5194  14.407   2.029   7.235
  575PNCE   C1B 5195  14.042   2.570   8.000
  575PNCE   C2B 5196  14.105   2.935   7.705
  575PNCE   C3B 5197  13.937   3.350   7.613
  575PNCE   D4B 5198  13.604   3.592   7.423
  575PNCE   C5B 5199  13.391   3.479   7.037
  575PNCE   C6B 5200  13.129   3.703   6.758
  576XCA    COO 5201  11.871   4.964   4.463
  576XCA     C1 5202  11.703   4.878   4.843
  576XCA     C2 5203  11.547   4.933   5.222
  576XCA     C3 5204  11.409   4.731   5.581
  576XCA     C4 5205  11.110   4.724   5.901
  576XCA     C5 5206  10.757   4.863   6.124
  576XCA     C6 5207  10.660   4.943   6.562
  577XCA    COO 5208   1.628   3.876   9.000
  577XCA     C1 5209   1.827   3.966   8.554
  577XCA     C2 5210   1.871   4.145   8.102
  577XCA     C3 5211   1.916   4.084   7.671
  577XCA     C4 5212   1.960   3.875   7.362
  577XCA     C5 5213   1.942   3.428   7.436
  577XCA     C6 5214   1.727   3.016   7.606
  578PNCE   AM1 5215   4.549  11.471   7.644
  578PNCE   AM2 5216   4.261  11.494   7.741
  578PNCE   T1A 5217   4.736  11.371   7.211
  578PNCE   C2A 5218   4.775  11.083   6.839
  578PNCE   C3A 5219   4.475  10.837   6.585
  578PNCE   C1B 5220   4.255  11.677   7.273
  578PNCE   C2B 5221   4.025  11.604   6.895
  578PNCE   C3B 5222   3.745  11.892   6.745
  578PNCE   D4B 5223   3.818  12.312   6.673
  578PNCE   C5B 5224   3.803  12.547   7.029
  578PNCE   C6B 5225   4.089  12.622   7.323
  579CHOL   ROH 5226   4.758   1.154   5.794
  579CHOL    R1 5227   4.636   1.133   6.048
  579CHOL    R2 5228   4.768   1.031   6.268
  579CHOL    R3 5229   4.694   1.267   6.381
  579CHOL    R4 5230   4.794   1.106   6.605
  579CHOL    R5 5231   4.601   1.205   6.593
  579CHOL    C1 5232   4.741   1.371   6.907
  579CHOL    C2 5233   4.989   1.468   7.166
  580PNCE   AM1 5234  11.687   7.476   7.839
  580PNCE   AM2 5235  11.329   7.572   7.802
  580PNCE   T1A 5236  11.518   7.067   7.886
  580PNCE   C2A 5237  11.638   6.674   7.980
  580PNCE   C3A 5238  11.907   6.626   8.281
  580PNCE   C1B 5239  11.483   7.267   7.428
  580PNCE   C2B 5240  11.399   7.011   7.119
  580PNCE   C3B 5241  11.446   6.728   6.819
  580PNCE   D4B 5242  11.700   6.640   6.486
  580PNCE   C5B 5243  11.580   6.304   6.256
  580PNCE   C6B 5244  11.790   5.927   6.396
  581CHOL   ROH 5245   6.880   2.671   5.977
  581CHOL    R1 5246   6.951   2.739   6.242
  581CHOL    R2 5247   7.097   2.966   6.304
  581CHOL    R3 5248   6.888   3.015   6.471
  581CHOL    R4 5249   7.079   3.233   6.522
  581CHOL    R5 5250   6.991   3.099   6.671
  581CHOL    C1 5251   6.872   3.435   6.807
  581CHOL    C2 5252   6.895   3.853   6.863
  582CHOL   ROH 5253  14.349   4.257   6.731
  582CHOL    R1 5254  14.247   4.064   6.912
  582CHOL    R2 5255  13.982   3.985   6.912
  582CHOL    R3 5256  14.090   3.737   6.889
  582CHOL    R4 5257  13.824   3.693   7.006
  582CHOL    R5 5258  14.014   3.621   7.085
  582CHOL    C1 5259  13.833   3.289   7.039
  582CHOL    C2 5260  13.573   3.082   7.320
  583CHOL   ROH 5261   5.038   1.529   5.711
  583CHOL    R1 5262   4.912   1.590   5.957
  583CHOL    R2 5263   4.999   1.488   6.198
  583CHOL    R3 5264   5.007   1.750   6.270
  583CHOL    R4 5265   4.934   1.607   6.516
  583CHOL    R5 5266   4.826   1.774   6.426
  583CHOL    C1 5267   4.904   1.922   6.769
  583CHOL    C2 5268   4.571   1.803   7.009
  584XCA    COO 5269  15.065   7.599   8.244
  584XCA     C1 5270  15.335   7.323   7.940
  584XCA     C2 5271  15.487   7.040   7.592
  584XCA     C3 5272  15.696   6.844   7.235
  584XCA     C4 5273   0.167   6.913   6.911
  584XCA     C5 5274   0.306   7.041   6.508
  584XCA     C6 5275   0.730   7.054   6.326
  585PNCE   AM1 5276   1.584  12.522   8.700
  585PNCE   AM2 5277   1.265  12.422   8.595
  585PNCE   T1A 5278   1.517  12.815   8.325
  585PNCE   C2A 5279   1.529  12.834   7.857
  585PNCE   C3A 5280   1.866  12.909   7.514
  585PNCE   C1B 5281   1.070  12.602   8.216
  585PNCE   C2B 5282   0.809  12.529   7.864
  585PNCE   C3B 5283   0.491  12.659   7.610
  585PNCE   D4B 5284   0.283  12.883   7.311
  585PNCE   C5B 5285   0.559  13.051   7.006
  585PNCE   C6B 5286   1.027  13.086   7.111
  586PNCE   AM1 5287   4.935   6.793   8.152
  586PNCE   AM2 5288   4.700   6.587   8.124
  586PNCE   T1A 5289   5.105   6.776   7.721
  586PNCE   C2A 5290   5.140   6.694   7.272
  586PNCE   C3A 5291   5.223   6.616   6.856
  586PNCE   C1B 5292   4.463   6.355   7.827
  586PNCE   C2B 5293   4.553   5.942   7.668
  586PNCE   C3B 5294   4.447   5.549   7.889
  586PNCE   D4B 5295   4.175   5.243   7.791
  586PNCE   C5B 5296   4.074   5.175   7.316
  586PNCE   C6B 5297   3.991   5.198   6.829
  587CHOL   ROH 5298   2.275  12.134   5.061
  587CHOL    R1 5299   2.173  12.000   5.288
  587CHOL    R2 5300   2.055  11.751   5.273
  587CHOL    R3 5301   2.239  11.687   5.462
  587CHOL    R4 5302   2.036  11.476   5.482
  587CHOL    R5 5303   2.109  11.601   5.644
  587CHOL    C1 5304   2.198  11.257   5.782
  587CHOL    C2 5305   2.275  10.956   6.090
  588PNCE   AM1 5306   1.440   1.296   9.772
  588PNCE   AM2 5307   1.109   1.371   9.598
  588PNCE   T1A 5308   1.641   1.364   9.362
  588PNCE   C2A 5309   1.741   1.289   8.919
  588PNCE   C3A 5310   1.584   1.285   8.478
  588PNCE   C1B 5311   0.962   1.317   9.145
  588PNCE   C2B 5312   1.083   1.284   8.696
  588PNCE   C3B 5313   1.169   0.976   8.394
  588PNCE   D4B 5314   1.104   0.568   8.225
  588PNCE   C5B 5315   0.864   0.572   7.828
  588PNCE   C6B 5316   0.964   0.495   7.387
  589CHOL   ROH 5317  11.104  11.708   5.767
  589CHOL    R1 5318  11.054  11.494   5.945
  589CHOL    R2 5319  11.139  11.496   6.208
  589CHOL    R3 5320  10.877  11.448   6.260
  589CHOL    R4 5321  11.022  11.297   6.466
  589CHOL    R5 5322  10.871  11.219   6.330
  589CHOL    C1 5323  10.707  11.137   6.665
  589CHOL    C2 5324  10.658  11.167   7.020
  590XCA    COO 5325  14.321  12.509   4.572
  590XCA     C1 5326  14.284  12.564   5.056
  590XCA     C2 5327  14.351  12.288   5.447
  590XCA     C3 5328  14.425  11.962   5.784
  590XCA     C4 5329  14.399  11.630   6.143
  590XCA     C5 5330  14.411  11.484   6.589
  590XCA     C6 5331  14.770  11.403   6.844
  591CHOL   ROH 5332   6.540   9.136   5.991
  591CHOL    R1 5333   6.676   9.152   6.239
  591CHOL    R2 5334   6.890   9.321   6.280
  591CHOL    R3 5335   6.741   9.408   6.489
  591CHOL    R4 5336   7.006   9.521   6.537
  591CHOL    R5 5337   6.889   9.401   6.676
  591CHOL    C1 5338   6.933   9.719   6.883
  591CHOL    C2 5339   7.199   9.861   7.140
  592CHOL   ROH 5340   8.527  12.503   9.013
  592CHOL    R1 5341   8.541  12.411   8.746
  592CHOL    R2 5342   8.343  12.461   8.561
  592CHOL    R3 5343   8.549  12.561   8.414
  592CHOL    R4 5344   8.344  12.492   8.216
  592CHOL    R5 5345   8.552  12.427   8.216
  592CHOL    C1 5346   8.538  12.605   7.879
  592CHOL    C2 5347   8.706  12.683   7.515
  593CHOL   ROH 5348   7.667   6.069   7.840
  593CHOL    R1 5349   7.518   6.010   7.607
  593CHOL    R2 5350   7.342   6.191   7.494
  593CHOL    R3 5351   7.489   6.145   7.271
  593CHOL    R4 5352   7.245   6.275   7.173
  593CHOL    R5 5353   7.328   6.086   7.104
  593CHOL    C1 5354   7.327   6.282   6.776
  593CHOL    C2 5355   7.474   6.535   6.478
  594CHOL   ROH 5356   6.729  11.572   4.615
  594CHOL    R1 5357   6.687  11.669   4.878
  594CHOL    R2 5358   6.692  11.505   5.100
  594CHOL    R3 5359   6.877  11.684   5.188
  594CHOL    R4 5360   6.781  11.550   5.431
  594CHOL    R5 5361   6.786  11.765   5.395
  594CHOL    C1 5362   7.006  11.745   5.706
  594CHOL    C2 5363   7.068  11.783   6.156
  595CHOL   ROH 5364  15.129  12.511   6.563
  595CHOL    R1 5365  15.090  12.691   6.347
  595CHOL    R2 5366  15.217  12.935   6.333
  595CHOL    R3 5367  15.296  12.844   6.089
  595CHOL    R4 5368  15.266  13.133   6.053
  595CHOL    R5 5369  15.173  12.977   5.933
  595CHOL    C1 5370  15.369  13.162   5.662
  595CHOL    C2 5371  15.557  13.326   5.347
  596CHOL   ROH 5372   4.906   8.320   7.686
  596CHOL    R1 5373   4.855   8.357   7.411
  596CHOL    R2 5374   5.045   8.309   7.216
  596CHOL    R3 5375   4.852   8.149   7.112
  596CHOL    R4 5376   5.026   8.213   6.885
  596CHOL    R5 5377   4.810   8.241   6.894
  596CHOL    C1 5378   4.834   8.007   6.594
  596CHOL    C2 5379   4.885   7.580   6.449
  597PNCE   AM1 5380   8.076   1.950   5.015
  597PNCE   AM2 5381   8.373   2.132   5.153
  597PNCE   T1A 5382   8.089   1.800   5.453
  597PNCE   C2A 5383   7.977   1.982   5.840
  597PNCE   C3A 5384   8.051   2.190   6.212
  597PNCE   C1B 5385   8.391   2.211   5.640
  597PNCE   C2B 5386   8.553   2.290   6.070
  597PNCE   C3B 5387   8.805   2.136   6.437
  597PNCE   D4B 5388   8.923   2.248   6.854
  597PNCE   C5B 5389   8.746   2.640   6.987
  597PNCE   C6B 5390   8.647   2.935   7.314
  598XCA    COO 5391  14.616  14.376   5.270
  598XCA     C1 5392  14.465  14.247   5.686
  598XCA     C2 5393  14.345  14.355   6.106
  598XCA     C3 5394  13.977  14.234   6.310
  598XCA     C4 5395  13.782  14.320   6.667
  598XCA     C5 5396  13.531  14.596   6.911
  598XCA     C6 5397  13.578  14.936   7.192
  599CHOL   ROH 5398   2.148  13.165   4.927
  599CHOL    R1 5399   2.130  13.059   5.189
  599CHOL    R2 5400   2.302  12.864   5.283
  599CHOL    R3 5401   2.342  13.043   5.484
  599CHOL    R4 5402   2.469  12.796   5.578
  599CHOL    R5 5403   2.320  12.914   5.684
  599CHOL    C1 5404   2.604  12.924   5.938
  599CHOL    C2 5405   2.790  12.987   6.314
  600PNCE   AM1 5406  13.570   7.092   7.695
  600PNCE   AM2 5407  13.698   7.392   7.840
  600PNCE   T1A 5408  13.614   7.116   7.220
  600PNCE   C2A 5409  13.805   7.332   6.848
  600PNCE   C3A 5410  13.794   7.780   6.631
  600PNCE   C1B 5411  14.010   7.276   7.499
  600PNCE   C2B 5412  14.185   7.092   7.131
  600PNCE   C3B 5413  14.508   6.876   6.887
  600PNCE   D4B 5414  14.736   6.658   6.571
  600PNCE   C5B 5415  14.706   6.800   6.148
  600PNCE   C6B 5416  14.846   7.001   5.821
  601XCA    COO 5417   4.430  12.001   7.803
  601XCA     C1 5418   4.324  12.180   7.372
  601XCA     C2 5419   4.202  12.115   6.960
  601XCA     C3 5420   4.259  11.956   6.556
  601XCA     C4 5421   4.543  11.756   6.263
  601XCA     C5 5422   4.986  11.682   6.254
  601XCA     C6 5423   5.201  11.325   6.408
  602CHOL   ROH 5424   3.775   7.430   4.174
  602CHOL    R1 5425   3.578   7.455   4.375
  602CHOL    R2 5426   3.623   7.379   4.637
  602CHOL    R3 5427   3.544   7.634   4.691
  602CHOL    R4 5428   3.505   7.489   4.943
  602CHOL    R5 5429   3.356   7.608   4.837
  602CHOL    C1 5430   3.361   7.792   5.171
  602CHOL    C2 5431   3.310   7.804   5.555
  603PNCE   AM1 5432  10.837   2.805   9.000
  603PNCE   AM2 5433  10.571   3.058   8.880
  603PNCE   T1A 5434  10.855   2.831   8.532
  603PNCE   C2A 5435  10.783   2.925   8.102
  603PNCE   C3A 5436  10.786   3.304   7.861
  603PNCE   C1B 5437  10.419   3.138   8.400
  603PNCE   C2B 5438  10.307   3.032   7.934
  603PNCE   C3B 5439  10.440   3.171   7.503
  603PNCE   D4B 5440  10.514   3.390   7.105
  603PNCE   C5B 5441  10.887   3.414   6.833
  603PNCE   C6B 5442  11.168   3.785   6.877
  604XCA    COO 5443  12.784   7.338   8.021
  604XCA     C1 5444  12.715   7.478   7.585
  604XCA     C2 5445  12.662   7.449   7.148
  604XCA     C3 5446  12.506   7.584   6.784
  604XCA     C4 5447  12.565   7.733   6.418
  604XCA     C5 5448  12.956   7.958   6.387
  604XCA     C6 5449  13.216   8.230   6.658
  605PNCE   AM1 5450   2.735   7.935   8.330
  605PNCE   AM2 5451   3.065   7.968   8.225
  605PNCE   T1A 5452   2.504   7.932   7.925
  605PNCE   C2A 5453   2.175   7.905   7.615
  605PNCE   C3A 5454   1.949   8.317   7.465
  605PNCE   C1B 5455   3.020   7.766   7.810
  605PNCE   C2B 5456   3.019   7.554   7.407
  605PNCE   C3B 5457   3.242   7.432   7.050
  605PNCE   D4B 5458   3.234   7.646   6.662
  605PNCE   C5B 5459   3.524   7.601   6.327
  605PNCE   C6B 5460   3.652   7.748   5.926
  606CHOL   ROH 5461  12.351  10.417   4.673
  606CHOL    R1 5462  12.351  10.306   4.934
  606CHOL    R2 5463  12.288  10.455   5.158
  606CHOL    R3 5464  12.108  10.256   5.200
  606CHOL    R4 5465  12.156  10.369   5.466
  606CHOL    R5 5466  12.173  10.159   5.409
  606CHOL    C1 5467  11.910  10.132   5.684
  606CHOL    C2 5468  11.656  10.140   5.992
  607XCA    COO 5469  14.704   2.855   4.784
  607XCA     C1 5470  14.679   2.815   5.232
  607XCA     C2 5471  14.615   2.775   5.681
  607XCA     C3 5472  14.621   2.649   6.100
  607XCA     C4 5473  14.398   2.293   6.219
  607XCA     C5 5474  14.095   2.013   6.048
  607XCA     C6 5475  14.006   1.595   6.197
  608XCA    COO 5476  10.960  10.018   8.506
  608XCA     C1 5477  11.042   9.919   8.082
  608XCA     C2 5478  11.177   9.637   7.799
  608XCA     C3 5479  11.140   9.334   7.508
  608XCA     C4 5480  11.284   9.259   7.100
  608XCA     C5 5481  11.449   9.250   6.710
  608XCA     C6 5482  11.401   9.409   6.315
  609XCA    COO 5483  11.650  13.246   5.331
  609XCA     C1 5484  11.652  13.338   5.775
  609XCA     C2 5485  11.686  13.243   6.183
  609XCA     C3 5486  11.444  13.265   6.540
  609XCA     C4 5487  11.192  13.141   6.844
  609XCA     C5 5488  10.904  13.292   7.075
  609XCA     C6 5489  10.499  13.164   7.197
  610CHOL   ROH 5490  11.901  13.633   5.226
  610CHOL    R1 5491  12.044  13.576   5.463
  610CHOL    R2 5492  12.157  13.773   5.619
  610CHOL    R3 5493  12.012  13.655   5.817
  610CHOL    R4 5494  12.232  13.789   5.956
  610CHOL    R5 5495  12.176  13.579   5.974
  610CHOL    C1 5496  12.140  13.687   6.338
  610CHOL    C2 5497  12.162  13.811   6.741
  611CHOL   ROH 5498   6.209  15.285   6.833
  611CHOL    R1 5499   6.236  15.034   6.705
  611CHOL    R2 5500   6.019  14.890   6.614
  611CHOL    R3 5501   6.156  14.893   6.379
  611CHOL    R4 5502   5.982  14.658   6.360
  611CHOL    R5 5503   6.198  14.662   6.332
  611CHOL    C1 5504   6.090  14.526   5.992
  611CHOL    C2 5505   6.256  14.510   5.593
  612CHOL   ROH 5506   9.915  10.488   4.367
  612CHOL    R1 5507   9.854  10.329   4.593
  612CHOL    R2 5508  10.046  10.252   4.776
  612CHOL    R3 5509   9.875  10.365   4.954
  612CHOL    R4 5510  10.027  10.171   5.111
  612CHOL    R5 5511   9.810  10.185   5.098
  612CHOL    C1 5512   9.855  10.229   5.474
  612CHOL    C2 5513   9.891  10.194   5.855
  613CHOL   ROH 5514  14.933  12.852   8.788
  613CHOL    R1 5515  15.048  12.724   8.564
  613CHOL    R2 5516  15.292  12.594   8.575
  613CHOL    R3 5517  15.149  12.385   8.475
  613CHOL    R4 5518  15.429  12.318   8.419
  613CHOL    R5 5519  15.265  12.324   8.275
  613CHOL    C1 5520  15.375  11.961   8.234
  613CHOL    C2 5521  15.377  11.531   8.266
  614CHOL   ROH 5522   0.679  13.717   5.643
  614CHOL    R1 5523   0.659  13.562   5.879
  614CHOL    R2 5524   0.483  13.350   5.903
  614CHOL    R3 5525   0.708  13.213   5.971
  614CHOL    R4 5526   0.488  13.053   6.080
  614CHOL    R5 5527   0.661  13.127   6.190
  614CHOL    C1 5528   0.702  12.752   6.248
  614CHOL    C2 5529   0.673  12.485   6.599
  615PNCE   AM1 5530  15.101   9.767   8.024
  615PNCE   AM2 5531  14.989   9.740   7.728
  615PNCE   T1A 5532  15.495   9.880   7.760
  615PNCE   C2A 5533  15.698  10.011   7.336
  615PNCE   C3A 5534  15.813  10.118   6.924
  615PNCE   C1B 5535  14.928   9.566   7.333
  615PNCE   C2B 5536  14.607   9.436   7.092
  615PNCE   C3B 5537  14.362   9.087   6.937
  615PNCE   D4B 5538  14.068   9.124   6.623
  615PNCE   C5B 5539  13.708   8.906   6.480
  615PNCE   C6B 5540  13.599   8.722   6.073
  616CHOL   ROH 5541   6.143   6.318   5.313
  616CHOL    R1 5542   6.210   6.278   5.585
  616CHOL    R2 5543   6.127   6.056   5.728
  616CHOL    R3 5544   6.392   6.030   5.780
  616CHOL    R4 5545   6.260   5.861   5.980
  616CHOL    R5 5546   6.405   6.019   6.018
  616CHOL    C1 5547   6.587   5.723   6.175
  616CHOL    C2 5548   6.649   5.631   6.596
  617CHOL   ROH 5549   8.628   4.444   8.098
  617CHOL    R1 5550   8.679   4.328   7.845
  617CHOL    R2 5551   8.486   4.193   7.702
  617CHOL    R3 5552   8.554   4.368   7.505
  617CHOL    R4 5553   8.459   4.130   7.363
  617CHOL    R5 5554   8.651   4.231   7.334
  617CHOL    C1 5555   8.508   4.258   6.981
  617CHOL    C2 5556   8.385   4.142   6.623
  618CHOL   ROH 5557  10.830  13.332   5.874
  618CHOL    R1 5558  10.880  13.514   6.085
  618CHOL    R2 5559  10.799  13.467   6.345
  618CHOL    R3 5560  11.061  13.511   6.401
  618CHOL    R4 5561  10.927  13.525   6.661
  618CHOL    R5 5562  11.059  13.675   6.574
  618CHOL    C1 5563  11.248  13.600   6.897
  618CHOL    C2 5564  11.588  13.724   7.078
  619CHOL   ROH 5565   3.008   2.634   8.687
  619CHOL    R1 5566   3.020   2.837   8.491
  619CHOL    R2 5567   3.070   2.785   8.224
  619CHOL    R3 5568   2.839   2.923   8.187
  619CHOL    R4 5569   2.982   2.946   7.932
  619CHOL    R5 5570   2.903   3.110   8.052
  619CHOL    C1 5571   2.714   3.170   7.726
  619CHOL    C2 5572   2.685   3.378   7.411
  620PNCE   AM1 5573   3.234  10.765   7.979
  620PNCE   AM2 5574   3.026  10.559   8.179
  620PNCE   T1A 5575   2.961  10.592   7.630
  620PNCE   C2A 5576   2.763  10.508   7.248
  620PNCE   C3A 5577   2.526  10.668   6.913
  620PNCE   C1B 5578   2.933  10.182   7.929
  620PNCE   C2B 5579   2.971   9.739   7.868
  620PNCE   C3B 5580   3.058   9.339   7.669
  620PNCE   D4B 5581   2.945   9.159   7.247
  620PNCE   C5B 5582   3.309   9.056   6.979
  620PNCE   C6B 5583   3.307   8.751   6.625
  621XCA    COO 5584   4.539  10.953   7.568
  621XCA     C1 5585   4.517  10.780   7.165
  621XCA     C2 5586   4.813  10.536   6.934
  621XCA     C3 5587   4.784  10.273   6.575
  621XCA     C4 5588   5.010   9.936   6.361
  621XCA     C5 5589   4.913   9.796   5.922
  621XCA     C6 5590   4.543   9.931   5.686
  622PNCE   AM1 5591   0.704  15.269   9.032
  622PNCE   AM2 5592   0.428  15.080   8.946
  622PNCE   T1A 5593   0.787  15.109   8.582
  622PNCE   C2A 5594   0.778  15.206   8.131
  622PNCE   C3A 5595   0.576  15.456   7.807
  622PNCE   C1B 5596   0.175  14.722   8.834
  622PNCE   C2B 5597  15.680  14.570   8.559
  622PNCE   C3B 5598  15.471  14.367   8.213
  622PNCE   D4B 5599  15.244  14.361   7.839
  622PNCE   C5B 5600  15.369  13.945   7.762
  622PNCE   C6B 5601  15.476  13.532   7.812
  623CHOL   ROH 5602   7.012  14.871   5.195
  623CHOL    R1 5603   7.000  14.633   5.348
  623CHOL    R2 5604   6.954  14.633   5.620
  623CHOL    R3 5605   6.753  14.463   5.554
  623CHOL    R4 5606   6.769  14.447   5.846
  623CHOL    R5 5607   6.777  14.280   5.706
  623CHOL    C1 5608   6.474  14.178   5.914
  623CHOL    C2 5609   6.360  13.894   6.173
  624XCA    COO 5610   3.900  11.748   3.755
  624XCA     C1 5611   3.941  11.810   4.218
  624XCA     C2 5612   3.866  11.805   4.682
  624XCA     C3 5613   3.810  12.138   4.967
  624XCA     C4 5614   3.823  12.293   5.369
  624XCA     C5 5615   4.151  12.308   5.673
  624XCA     C6 5616   4.508  12.223   5.922
  625XCA    COO 5617   6.624  12.090   4.575
  625XCA     C1 5618   6.704  12.126   5.051
  625XCA     C2 5619   6.543  12.260   5.479
  625XCA     C3 5620   6.456  12.621   5.773
  625XCA     C4 5621   6.226  12.678   6.182
  625XCA     C5 5622   5.992  12.788   6.572
  625XCA     C6 5623   6.064  13.091   6.931
  626CHOL   ROH 5624   6.501   5.841   4.632
  626CHOL    R1 5625   6.541   5.597   4.768
  626CHOL    R2 5626   6.697   5.577   4.996
  626CHOL    R3 5627   6.473   5.464   5.100
  626CHOL    R4 5628   6.690   5.374   5.276
  626CHOL    R5 5629   6.544   5.248   5.175
  626CHOL    C1 5630   6.476   5.151   5.537
  626CHOL    C2 5631   6.550   4.833   5.812
  627CHOL   ROH 5632   0.195   4.943   8.022
  627CHOL    R1 5633   0.313   4.801   7.808
  627CHOL    R2 5634   0.417   4.547   7.838
  627CHOL    R3 5635   0.251   4.488   7.632
  627CHOL    R4 5636   0.425   4.254   7.655
  627CHOL    R5 5637   0.389   4.372   7.475
  627CHOL    C1 5638   0.274   4.029   7.353
  627CHOL    C2 5639   0.314   3.650   7.207
  628CHOL   ROH 5640   2.445   1.297   7.333
  628CHOL    R1 5641   2.648   1.492   7.306
  628CHOL    R2 5642   2.832   1.488   7.100
  628CHOL    R3 5643   2.744   1.742   7.060
  628CHOL    R4 5644   3.031   1.754   7.004
  628CHOL    R5 5645   2.921   1.881   7.143
  628CHOL    C1 5646   3.064   2.147   6.911
  628CHOL    C2 5647   3.394   2.332   6.858
  629XCA    COO 5648  11.446   5.557   3.874
  629XCA     C1 5649  11.449   5.190   4.196
  629XCA     C2 5650  11.323   5.212   4.654
  629XCA     C3 5651  11.635   5.381   4.937
  629XCA     C4 5652  11.846   5.360   5.296
  629XCA     C5 5653  12.179   5.359   5.551
  629XCA     C6 5654  12.406   5.572   5.876
  630PNCE   AM1 5655   3.303   8.557   8.383
  630PNCE   AM2 5656   3.549   8.321   8.375
  630PNCE   T1A 5657   3.147   8.432   7.981
  630PNCE   C2A 5658   2.846   8.261   7.726
  630PNCE   C3A 5659   2.442   8.332   7.580
  630PNCE   C1B 5660   3.648   8.561   7.960
  630PNCE   C2B 5661   3.564   8.569   7.496
  630PNCE   C3B 5662   3.520   8.467   7.030
  630PNCE   D4B 5663   3.416   8.133   6.729
  630PNCE   C5B 5664   3.552   8.135   6.306
  630PNCE   C6B 5665   3.831   8.297   5.979
  631PNCE   AM1 5666  14.345   7.740   8.324
  631PNCE   AM2 5667  14.578   7.509   8.138
  631PNCE   T1A 5668  14.477   7.997   7.934
  631PNCE   C2A 5669  14.686   8.002   7.537
  631PNCE   C3A 5670  14.567   7.987   7.093
  631PNCE   C1B 5671  14.882   7.547   7.743
  631PNCE   C2B 5672  14.997   7.671   7.294
  631PNCE   C3B 5673  14.960   7.705   6.861
  631PNCE   D4B 5674  14.974   7.612   6.424
  631PNCE   C5B 5675  15.032   7.808   6.002
  631PNCE   C6B 5676  15.071   8.179   5.798
  632CHOL   ROH 5677   3.836  13.506   7.472
  632CHOL    R1 5678   4.051  13.642   7.350
  632CHOL    R2 5679   4.310  13.629   7.447
  632CHOL    R3 5680   4.367  13.552   7.193
  632CHOL    R4 5681   4.615  13.672   7.291
  632CHOL    R5 5682   4.509  13.725   7.109
  632CHOL    C1 5683   4.847  13.625   6.962
  632CHOL    C2 5684   5.255  13.706   6.859
  633CHOL   ROH 5685   0.847  13.402   5.397
  633CHOL    R1 5686   0.852  13.172   5.563
  633CHOL    R2 5687   1.066  12.998   5.569
  633CHOL    R3 5688   1.058  13.048   5.836
  633CHOL    R4 5689   1.137  12.767   5.816
  633CHOL    R5 5690   0.971  12.846   5.932
  633CHOL    C1 5691   1.172  12.679   6.210
  633CHOL    C2 5692   1.138  12.321   6.415
  634CHOL   ROH 5693  10.382   6.107   4.240
  634CHOL    R1 5694  10.234   6.163   4.474
  634CHOL    R2 5695  10.353   6.237   4.712
  634CHOL    R3 5696  10.183   6.449   4.694
  634CHOL    R4 5697  10.244   6.426   4.980
  634CHOL    R5 5698  10.046   6.431   4.889
  634CHOL    C1 5699  10.021   6.735   5.119
  634CHOL    C2 5700  10.039   6.880   5.497
  635PNCE   AM1 5701   8.733   4.908   7.954
  635PNCE   AM2 5702   8.376   4.896   8.015
  635PNCE   T1A 5703   8.631   4.960   7.492
  635PNCE   C2A 5704   8.365   4.914   7.146
  635PNCE   C3A 5705   8.214   4.621   6.863
  635PNCE   C1B 5706   8.204   4.694   7.621
  635PNCE   C2B 5707   8.069   4.374   7.313
  635PNCE   C3B 5708   8.112   4.007   7.055
  635PNCE   D4B 5709   7.964   3.582   7.034
  635PNCE   C5B 5710   8.199   3.184   7.203
  635PNCE   C6B 5711   8.212   2.744   6.997
  636XCA    COO 5712   6.161   6.313   4.570
  636XCA     C1 5713   6.392   6.197   4.949
  636XCA     C2 5714   6.619   6.300   5.352
  636XCA     C3 5715   6.670   6.481   5.763
  636XCA     C4 5716   6.790   6.788   6.064
  636XCA     C5 5717   6.801   7.046   6.412
  636XCA     C6 5718   7.007   7.026   6.814
  637PNCE   AM1 5719   9.886  14.092   5.554
  637PNCE   AM2 5720   9.540  14.004   5.584
  637PNCE   T1A 5721   9.955  13.752   5.893
  637PNCE   C2A 5722   9.919  13.596   6.331
  637PNCE   C3A 5723   9.792  13.589   6.769
  637PNCE   C1B 5724   9.593  14.074   6.029
  637PNCE   C2B 5725   9.700  14.041   6.501
  637PNCE   C3B 5726   9.489  14.094   6.889
  637PNCE   D4B 5727   9.391  14.108   7.331
  637PNCE   C5B 5728   9.033  13.854   7.394
  637PNCE   C6B 5729   8.581  13.836   7.424
  638CHOL   ROH 5730   3.584  11.209   7.663
  638CHOL    R1 5731   3.421  11.078   7.473
  638CHOL    R2 5732   3.159  11.009   7.524
  638CHOL    R3 5733   3.111  11.149   7.297
  638CHOL    R4 5734   2.871  10.984   7.335
  638CHOL    R5 5735   2.994  10.995   7.155
  638CHOL    C1 5736   2.658  11.102   7.010
  638CHOL    C2 5737   2.534  11.376   6.760
  639XCA    COO 5738   0.757   3.951   4.722
  639XCA     C1 5739   1.088   3.893   5.045
  639XCA     C2 5740   1.281   3.754   5.466
  639XCA     C3 5741   1.366   3.926   5.897
  639XCA     C4 5742   1.243   4.192   6.284
  639XCA     C5 5743   0.981   4.319   6.640
  639XCA     C6 5744   1.040   4.263   7.080
  640XCA    COO 5745   6.546  13.544   9.019
  640XCA     C1 5746   6.793  13.619   8.632
  640XCA     C2 5747   7.198  13.711   8.391
  640XCA     C3 5748   7.531  14.012   8.294
  640XCA     C4 5749   7.719  14.302   8.041
  640XCA     C5 5750   7.509  14.658   7.874
  640XCA     C6 5751   7.770  14.995   7.733
  641XCA    COO 5752   1.912   0.914   9.465
  641XCA     C1 5753   2.128   0.977   9.066
  641XCA     C2 5754   2.253   1.277   8.728
  641XCA     C3 5755   2.139   1.571   8.409
  641XCA     C4 5756   2.208   2.009   8.388
  641XCA     C5 5757   2.115   2.455   8.395
  641XCA     C6 5758   1.990   2.782   8.640
  642PNCE   AM1 5759  15.138  14.976   4.854
  642PNCE   AM2 5760  14.986  14.721   5.053
  642PNCE   T1A 5761  15.028  15.205   5.228
  642PNCE   C2A 5762  14.986  15.558   5.518
  642PNCE   C3A 5763  15.057   0.164   5.575
  642PNCE   C1B 5764  14.797  14.805   5.453
  642PNCE   C2B 5765  14.842  14.575   5.801
  642PNCE   C3B 5766  14.844  14.376   6.191
  642PNCE   D4B 5767  15.080  14.265   6.540
  642PNCE   C5B 5768  14.997  14.068   6.929
  642PNCE   C6B 5769  15.282  14.114   7.298
  643CHOL   ROH 5770  15.466   1.808   8.202
  643CHOL    R1 5771  15.577   1.776   7.944
  643CHOL    R2 5772  15.428   1.693   7.727
  643CHOL    R3 5773  15.524   1.921   7.614
  643CHOL    R4 5774  15.424   1.763   7.388
  643CHOL    R5 5775  15.624   1.848   7.409
  643CHOL    C1 5776  15.513   2.017   7.085
  643CHOL    C2 5777  15.574   2.187   6.714
  644PNCE   AM1 5778   5.105   7.756   3.962
  644PNCE   AM2 5779   5.421   7.778   3.878
  644PNCE   T1A 5780   5.006   7.705   4.399
  644PNCE   C2A 5781   4.901   7.554   4.801
  644PNCE   C3A 5782   4.891   7.102   4.961
  644PNCE   C1B 5783   5.505   7.709   4.325
  644PNCE   C2B 5784   5.343   7.940   4.678
  644PNCE   C3B 5785   5.241   7.932   5.065
  644PNCE   D4B 5786   5.436   7.609   5.281
  644PNCE   C5B 5787   5.349   7.176   5.195
  644PNCE   C6B 5788   5.433   6.737   5.317
  645CHOL   ROH 5789   4.597   0.317   5.808
  645CHOL    R1 5790   4.703   0.327   6.071
  645CHOL    R2 5791   4.768   0.101   6.214
  645CHOL    R3 5792   5.009   0.223   6.237
  645CHOL    R4 5793   5.015   0.011   6.439
  645CHOL    R5 5794   5.054   0.222   6.472
  645CHOL    C1 5795   5.385   0.073   6.591
  645CHOL    C2 5796   5.682   0.033   6.862
  646PNCE   AM1 5797   8.087  10.273   4.412
  646PNCE   AM2 5798   7.790  10.264   4.613
  646PNCE   T1A 5799   8.209   9.874   4.657
  646PNCE   C2A 5800   8.225   9.430   4.799
  646PNCE   C3A 5801   8.518   9.093   4.844
  646PNCE   C1B 5802   7.809   9.956   4.953
  646PNCE   C2B 5803   8.105   9.749   5.186
  646PNCE   C3B 5804   8.116   9.497   5.550
  646PNCE   D4B 5805   8.259   9.269   5.911
  646PNCE   C5B 5806   8.561   8.941   5.964
  646PNCE   C6B 5807   8.947   8.657   6.085
  647XCA    COO 5808  13.093   7.770   3.885
  647XCA     C1 5809  12.992   7.692   4.312
  647XCA     C2 5810  13.003   7.468   4.678
  647XCA     C3 5811  12.984   7.501   5.086
  647XCA     C4 5812  12.864   7.429   5.463
  647XCA     C5 5813  12.548   7.512   5.756
  647XCA     C6 5814  12.204   7.652   5.991
  648CHOL   ROH 5815   1.438  15.539   5.166
  648CHOL    R1 5816   1.619  15.434   5.356
  648CHOL    R2 5817   1.837  15.577   5.449
  648CHOL    R3 5818   1.729  15.520   5.692
  648CHOL    R4 5819   2.015  15.557   5.745
  648CHOL    R5 5820   1.895  15.385   5.800
  648CHOL    C1 5821   2.018  15.492   6.145
  648CHOL    C2 5822   2.260  15.149   6.224
  649PNCE   AM1 5823   3.346  15.567   5.217
  649PNCE   AM2 5824   3.639  15.358   5.115
  649PNCE   T1A 5825   3.544  15.527   5.652
  649PNCE   C2A 5826   3.731  15.298   6.025
  649PNCE   C3A 5827   4.012  15.253   6.419
  649PNCE   C1B 5828   3.763  15.103   5.501
  649PNCE   C2B 5829   3.755  14.790   5.828
  649PNCE   C3B 5830   3.824  14.377   5.995
  649PNCE   D4B 5831   3.917  14.183   6.392
  649PNCE   C5B 5832   4.019  13.745   6.431
  649PNCE   C6B 5833   4.288  13.415   6.312
  650CHOL   ROH 5834   7.606  15.668   8.988
  650CHOL    R1 5835   7.813  15.762   8.819
  650CHOL    R2 5836   7.779  15.795   8.547
  650CHOL    R3 5837   7.866   0.218   8.600
  650CHOL    R4 5838   7.813   0.217   8.311
  650CHOL    R5 5839   7.998   0.277   8.409
  650CHOL    C1 5840   7.914   0.599   8.223
  650CHOL    C2 5841   8.183   0.888   8.191
  651PNCE   AM1 5842   2.053  13.645   4.947
  651PNCE   AM2 5843   2.318  13.757   4.847
  651PNCE   T1A 5844   2.061  13.859   5.329
  651PNCE   C2A 5845   2.225  14.000   5.732
  651PNCE   C3A 5846   2.227  14.177   6.155
  651PNCE   C1B 5847   2.450  13.451   5.230
  651PNCE   C2B 5848   2.755  13.243   5.536
  651PNCE   C3B 5849   2.925  13.304   5.930
  651PNCE   D4B 5850   3.276  13.130   6.132
  651PNCE   C5B 5851   3.644  13.140   5.872
  651PNCE   C6B 5852   4.066  13.250   5.859
  652PNCE   AM1 5853   7.390   4.792   4.678
  652PNCE   AM2 5854   7.109   4.588   4.785
  652PNCE   T1A 5855   7.773   4.728   4.949
  652PNCE   C2A 5856   7.887   4.603   5.380
  652PNCE   C3A 5857   8.300   4.534   5.574
  652PNCE   C1B 5858   6.824   4.824   5.064
  652PNCE   C2B 5859   6.918   4.987   5.454
  652PNCE   C3B 5860   7.091   5.188   5.802
  652PNCE   D4B 5861   6.969   5.554   5.828
  652PNCE   C5B 5862   6.556   5.595   5.693
  652PNCE   C6B 5863   6.336   5.842   5.338
  653PNCE   AM1 5864   8.720   6.361   4.551
  653PNCE   AM2 5865   8.573   6.513   4.860
  653PNCE   T1A 5866   9.070   6.531   4.730
  653PNCE   C2A 5867   9.173   6.467   5.112
  653PNCE   C3A 5868   9.193   6.200   5.443
  653PNCE   C1B 5869   8.791   6.092   5.007
  653PNCE   C2B 5870   9.226   5.892   5.016
  653PNCE   C3B 5871   9.573   5.856   5.305
  653PNCE   D4B 5872   9.638   6.099   5.652
  653PNCE   C5B 5873  10.012   6.067   5.841
  653PNCE   C6B 5874  10.307   5.953   5.580
  654PNCE   AM1 5875   7.482   5.478   4.581
  654PNCE   AM2 5876   7.675   5.189   4.528
  654PNCE   T1A 5877   7.440   5.711   4.984
  654PNCE   C2A 5878   7.339   6.033   5.313
  654PNCE   C3A 5879   7.212   6.350   5.624
  654PNCE   C1B 5880   7.980   5.350   4.829
  654PNCE   C2B 5881   7.972   5.674   5.148
  654PNCE   C3B 5882   7.840   5.947   5.468
  654PNCE   D4B 5883   7.627   6.113   5.829
  654PNCE   C5B 5884   7.246   5.939   6.013
  654PNCE   C6B 5885   6.854   6.032   5.853
  655CHOL   ROH 5886   0.648  15.595   8.699
  655CHOL    R1 5887   0.427  15.611   8.523
  655CHOL    R2 5888   0.367   0.010   8.379
  655CHOL    R3 5889   0.376  15.669   8.167
  655CHOL    R4 5890   0.211   0.064   8.076
  655CHOL    R5 5891   0.157  15.682   8.071
  655CHOL    C1 5892   0.129  15.765   7.700
  655CHOL    C2 5893  15.525  15.666   7.563
  656PNCE   AM1 5894   7.112   9.567   4.650
  656PNCE   AM2 5895   6.840   9.349   4.778
  656PNCE   T1A 5896   7.334   9.739   5.016
  656PNCE   C2A 5897   7.263   9.750   5.454
  656PNCE   C3A 5898   6.879   9.900   5.648
  656PNCE   C1B 5899   7.215   9.239   5.038
  656PNCE   C2B 5900   7.242   8.984   5.398
  656PNCE   C3B 5901   7.479   8.774   5.712
  656PNCE   D4B 5902   7.562   8.408   5.948
  656PNCE   C5B 5903   7.208   8.272   6.252
  656PNCE   C6B 5904   6.726   8.365   6.281
  657CHOL   ROH 5905   4.355   3.877   7.498
  657CHOL    R1 5906   4.219   3.721   7.305
  657CHOL    R2 5907   3.946   3.733   7.268
  657CHOL    R3 5908   4.015   3.783   7.010
  657CHOL    R4 5909   3.761   3.638   6.993
  657CHOL    R5 5910   3.947   3.587   6.892
  657CHOL    C1 5911   3.718   3.629   6.590
  657CHOL    C2 5912   3.762   3.465   6.249
  658CHOL   ROH 5913   7.915   7.391   7.935
  658CHOL    R1 5914   7.962   7.509   7.682
  658CHOL    R2 5915   7.990   7.360   7.451
  658CHOL    R3 5916   7.792   7.523   7.360
  658CHOL    R4 5917   7.928   7.430   7.118
  658CHOL    R5 5918   7.890   7.637   7.174
  658CHOL    C1 5919   7.707   7.624   6.839
  658CHOL    C2 5920   7.731   7.340   6.531
  659PNCE   AM1 5921  14.324   3.736   4.637
  659PNCE   AM2 5922  14.063   3.580   4.466
  659PNCE   T1A 5923  14.266   3.813   5.097
  659PNCE   C2A 5924  14.272   3.690   5.572
  659PNCE   C3A 5925  14.457   3.570   5.983
  659PNCE   C1B 5926  13.893   3.447   4.847
  659PNCE   C2B 5927  13.941   3.418   5.271
  659PNCE   C3B 5928  13.799   3.206   5.621
  659PNCE   D4B 5929  13.834   3.009   6.026
  659PNCE   C5B 5930  14.268   3.091   5.920
  659PNCE   C6B 5931  14.459   3.227   5.497
  660CHOL   ROH 5932   3.780   2.263   5.198
  660CHOL    R1 5933   3.755   2.212   5.475
  660CHOL    R2 5934   3.940   2.300   5.660
  660CHOL    R3 5935   3.721   2.410   5.779
  660CHOL    R4 5936   3.928   2.413   5.986
  660CHOL    R5 5937   3.728   2.328   6.003
  660CHOL    C1 5938   3.717   2.582   6.288
  660CHOL    C2 5939   3.723   2.672   6.698
  661PNCE   AM1 5940   7.812   8.103   8.389
  661PNCE   AM2 5941   7.461   8.041   8.537
  661PNCE   T1A 5942   8.213   8.121   8.115
  661PNCE   C2A 5943   8.224   8.225   7.685
  661PNCE   C3A 5944   8.144   8.366   7.258
  661PNCE   C1B 5945   7.495   8.517   8.417
  661PNCE   C2B 5946   7.613   8.850   8.135
  661PNCE   C3B 5947   7.616   8.988   7.724
  661PNCE   D4B 5948   7.799   9.105   7.398
  661PNCE   C5B 5949   8.123   8.880   7.246
  661PNCE   C6B 5950   8.340   8.880   6.855
  662PNCE   AM1 5951   6.064   9.048   4.327
  662PNCE   AM2 5952   5.778   8.910   4.474
  662PNCE   T1A 5953   6.299   8.969   4.721
  662PNCE   C2A 5954   6.524   9.032   5.102
  662PNCE   C3A 5955   6.535   8.957   5.540
  662PNCE   C1B 5956   5.910   8.665   4.856
  662PNCE   C2B 5957   5.693   8.329   4.987
  662PNCE   C3B 5958   5.571   8.198   5.356
  662PNCE   D4B 5959   5.563   7.941   5.683
  662PNCE   C5B 5960   5.499   8.100   6.066
  662PNCE   C6B 5961   5.695   8.407   6.310
  663CHOL   ROH 5962   9.344  11.919   7.336
  663CHOL    R1 5963   9.214  11.796   7.117
  663CHOL    R2 5964   8.991  11.905   6.996
  663CHOL    R3 5965   9.141  11.881   6.771
  663CHOL    R4 5966   8.864  11.882   6.675
  663CHOL    R5 5967   9.016  11.732   6.631
  663CHOL    C1 5968   8.931  11.847   6.277
  663CHOL    C2 5969   8.910  12.104   6.002
  664XCA    COO 5970   6.234  13.529   8.603
  664XCA     C1 5971   6.119  13.392   8.209
  664XCA     C2 5972   6.354  13.398   7.830
  664XCA     C3 5973   6.634  13.468   7.501
  664XCA     C4 5974   6.597  13.784   7.176
  664XCA     C5 5975   6.534  14.242   7.165
  664XCA     C6 5976   6.807  14.646   7.181
  665XCA    COO 5977  10.049   6.943   8.135
  665XCA     C1 5978  10.022   6.524   7.945
  665XCA     C2 5979  10.128   6.313   7.583
  665XCA     C3 5980  10.149   5.977   7.327
  665XCA     C4 5981  10.109   5.708   6.977
  665XCA     C5 5982  10.333   5.748   6.582
  665XCA     C6 5983  10.296   5.758   6.141
  666XCA    COO 5984   1.639   5.650   8.287
  666XCA     C1 5985   1.596   5.388   7.895
  666XCA     C2 5986   1.747   5.137   7.481
  666XCA     C3 5987   1.837   4.779   7.192
  666XCA     C4 5988   2.016   4.678   6.799
  666XCA     C5 5989   2.199   4.820   6.431
  666XCA     C6 5990   2.230   5.076   6.086
  667CHOL   ROH 5991   2.849   1.497   6.668
  667CHOL    R1 5992   2.740   1.235   6.670
  667CHOL    R2 5993   2.778   1.057   6.462
  667CHOL    R3 5994   2.870   0.895   6.660
  667CHOL    R4 5995   2.794   0.712   6.444
  667CHOL    R5 5996   2.728   0.703   6.651
  667CHOL    C1 5997   2.891   0.360   6.619
  667CHOL    C2 5998   2.712  15.794   6.783
  668PNCE   AM1 5999   9.603   8.751   4.361
  668PNCE   AM2 6000   9.663   8.420   4.534
  668PNCE   T1A 6001   9.468   9.064   4.668
  668PNCE   C2A 6002   9.429   9.120   5.130
  668PNCE   C3A 6003   9.458   9.252   5.579
  668PNCE   C1B 6004   9.520   8.599   4.937
  668PNCE   C2B 6005   9.155   8.538   5.204
  668PNCE   C3B 6006   8.848   8.392   5.512
  668PNCE   D4B 6007   8.826   8.040   5.803
  668PNCE   C5B 6008   8.857   8.049   6.256
  668PNCE   C6B 6009   8.968   8.128   6.720
  669CHOL   ROH 6010  13.779  11.430   5.238
  669CHOL    R1 6011  13.817  11.396   5.517
  669CHOL    R2 6012  13.665  11.221   5.667
  669CHOL    R3 6013  13.908  11.123   5.740
  669CHOL    R4 6014  13.719  10.998   5.925
  669CHOL    R5 6015  13.898  11.110   5.978
  669CHOL    C1 6016  13.979  10.776   6.144
  669CHOL    C2 6017  14.300  10.533   6.270
  670XCA    COO 6018   0.655   2.979   4.597
  670XCA     C1 6019   0.811   2.854   5.024
  670XCA     C2 6020   0.724   2.905   5.429
  670XCA     C3 6021   0.428   3.023   5.664
  670XCA     C4 6022   0.252   2.997   6.062
  670XCA     C5 6023   0.377   2.995   6.486
  670XCA     C6 6024   0.311   2.877   6.942
  671PNCE   AM1 6025  12.079   3.735   4.067
  671PNCE   AM2 6026  11.868   3.447   4.132
  671PNCE   T1A 6027  11.919   4.076   4.365
  671PNCE   C2A 6028  11.697   4.468   4.516
  671PNCE   C3A 6029  11.358   4.725   4.467
  671PNCE   C1B 6030  11.547   3.745   4.261
  671PNCE   C2B 6031  11.296   4.129   4.186
  671PNCE   C3B 6032  11.010   4.503   4.149
  671PNCE   D4B 6033  10.886   4.911   4.342
  671PNCE   C5B 6034  10.946   4.815   4.751
  671PNCE   C6B 6035  11.239   4.607   5.002
  672PNCE   AM1 6036   0.161   5.730   4.476
  672PNCE   AM2 6037   0.472   5.875   4.355
  672PNCE   T1A 6038  15.686   5.997   4.641
  672PNCE   C2A 6039  15.444   6.333   4.739
  672PNCE   C3A 6040  15.364   6.753   4.810
  672PNCE   C1B 6041   0.354   5.917   4.869
  672PNCE   C2B 6042   0.288   5.934   5.291
  672PNCE   C3B 6043   0.634   6.028   5.565
  672PNCE   D4B 6044   0.923   6.116   5.927
  672PNCE   C5B 6045   0.764   6.272   6.337
  672PNCE   C6B 6046   0.627   6.098   6.719
  673CHOL   ROH 6047   2.057   2.707   7.726
  673CHOL    R1 6048   2.174   2.836   7.503
  673CHOL    R2 6049   2.441   2.905   7.494
  673CHOL    R3 6050   2.437   2.762   7.263
  673CHOL    R4 6051   2.671   2.937   7.238
  673CHOL    R5 6052   2.507   2.918   7.096
  673CHOL    C1 6053   2.801   2.822   6.872
  673CHOL    C2 6054   3.216   2.802   6.854
  674CHOL   ROH 6055  10.802   0.225   7.701
  674CHOL    R1 6056  10.818   0.122   7.438
  674CHOL    R2 6057  10.614   0.151   7.254
  674CHOL    R3 6058  10.812   0.257   7.100
  674CHOL    R4 6059  10.607   0.172   6.909
  674CHOL    R5 6060  10.817   0.118   6.906
  674CHOL    C1 6061  10.788   0.284   6.564
  674CHOL    C2 6062  10.857   0.069   6.179
  675CHOL   ROH 6063   9.959  11.487   6.256
  675CHOL    R1 6064  10.089  11.250   6.339
  675CHOL    R2 6065  10.223  11.084   6.164
  675CHOL    R3 6066  10.428  11.119   6.338
  675CHOL    R4 6067  10.504  10.884   6.181
  675CHOL    R5 6068  10.495  10.897   6.398
  675CHOL    C1 6069  10.861  10.801   6.354
  675CHOL    C2 6070  11.219  10.746   6.396
  676PNCE   AM1 6071   6.659   4.647   4.537
  676PNCE   AM2 6072   6.810   4.914   4.397
  676PNCE   T1A 6073   6.340   4.694   4.845
  676PNCE   C2A 6074   6.247   4.856   5.205
  676PNCE   C3A 6075   6.082   4.898   5.601
  676PNCE   C1B 6076   6.771   5.186   4.723
  676PNCE   C2B 6077   7.086   5.280   4.999
  676PNCE   C3B 6078   7.212   5.430   5.368
  676PNCE   D4B 6079   7.450   5.644   5.653
  676PNCE   C5B 6080   7.840   5.509   5.783
  676PNCE   C6B 6081   8.183   5.255   5.723
  677PNCE   AM1 6082  13.044  12.461   4.836
  677PNCE   AM2 6083  12.925  12.799   4.847
  677PNCE   T1A 6084  13.473  12.469   5.033
  677PNCE   C2A 6085  13.822  12.429   5.334
  677PNCE   C3A 6086  13.918  12.572   5.742
  677PNCE   C1B 6087  13.083  12.713   5.292
  677PNCE   C2B 6088  13.142  12.679   5.751
  677PNCE   C3B 6089  13.221  12.790   6.171
  677PNCE   D4B 6090  13.481  12.782   6.524
  677PNCE   C5B 6091  13.258  12.608   6.846
  677PNCE   C6B 6092  13.409  12.569   7.259
  678XCA    COO 6093   0.138   4.739   4.593
  678XCA     C1 6094   0.089   4.930   5.007
  678XCA     C2 6095  15.797   4.966   5.434
  678XCA     C3 6096   0.190   4.996   5.782
  678XCA     C4 6097   0.459   4.790   6.109
  678XCA     C5 6098   0.748   4.767   6.495
  678XCA     C6 6099   0.878   4.754   6.950
  679CHOL   ROH 6100   3.939   3.744   7.825
  679CHOL    R1 6101   4.098   3.514   7.784
  679CHOL    R2 6102   3.996   3.278   7.682
  679CHOL    R3 6103   4.197   3.307   7.502
  679CHOL    R4 6104   4.142   3.019   7.506
  679CHOL    R5 6105   4.336   3.114   7.536
  679CHOL    C1 6106   4.415   2.895   7.234
  679CHOL    C2 6107   4.692   2.673   7.409
  680XCA    COO 6108   9.841  15.590   9.654
  680XCA     C1 6109   9.975  15.384   9.216
  680XCA     C2 6110  10.153  15.308   8.751
  680XCA     C3 6111  10.232  15.144   8.313
  680XCA     C4 6112  10.485  15.214   7.926
  680XCA     C5 6113  10.781  15.139   7.556
  680XCA     C6 6114  11.085  14.935   7.267
  681CHOL   ROH 6115  14.188  15.618   7.644
  681CHOL    R1 6116  14.321  15.379   7.570
  681CHOL    R2 6117  14.452  15.350   7.329
  681CHOL    R3 6118  14.662  15.281   7.487
  681CHOL    R4 6119  14.725  15.167   7.224
  681CHOL    R5 6120  14.720  15.060   7.414
  681CHOL    C1 6121  15.082  14.995   7.312
  681CHOL    C2 6122  15.510  15.126   7.336
  682PNCE   AM1 6123   4.525   5.426   4.558
  682PNCE   AM2 6124   4.662   5.125   4.412
  682PNCE   T1A 6125   4.693   5.514   4.971
  682PNCE   C2A 6126   4.706   5.560   5.407
  682PNCE   C3A 6127   4.851   5.319   5.676
  682PNCE   C1B 6128   4.505   5.027   4.842
  682PNCE   C2B 6129   4.449   5.138   5.265
  682PNCE   C3B 6130   4.563   4.867   5.619
  682PNCE   D4B 6131   4.437   4.561   5.978
  682PNCE   C5B 6132   4.830   4.352   6.192
  682PNCE   C6B 6133   5.185   4.435   6.459
  683CHOL   ROH 6134  15.137   9.030   5.051
  683CHOL    R1 6135  15.058   8.884   5.281
  683CHOL    R2 6136  14.995   9.007   5.520
  683CHOL    R3 6137  14.764   8.865   5.495
  683CHOL    R4 6138  14.777   8.936   5.779
  683CHOL    R5 6139  14.751   8.736   5.696
  683CHOL    C1 6140  14.433   8.762   5.905
  683CHOL    C2 6141  14.100   8.930   6.109
  684PNCE   AM1 6142  11.143  11.868   4.911
  684PNCE   AM2 6143  10.804  11.923   4.855
  684PNCE   T1A 6144  11.242  11.477   5.078
  684PNCE   C2A 6145  11.447  11.082   5.107
  684PNCE   C3A 6146  11.437  10.623   5.015
  684PNCE   C1B 6147  10.757  11.435   4.884
  684PNCE   C2B 6148  10.964  11.029   4.958
  684PNCE   C3B 6149  11.079  10.807   5.333
  684PNCE   D4B 6150  11.434  10.866   5.600
  684PNCE   C5B 6151  11.456  10.615   5.965
  684PNCE   C6B 6152  11.686  10.540   6.349
  685CHOL   ROH 6153  13.472   7.844   7.803
  685CHOL    R1 6154  13.529   7.900   7.531
  685CHOL    R2 6155  13.585   7.702   7.347
  685CHOL    R3 6156  13.383   7.818   7.208
  685CHOL    R4 6157  13.531   7.663   7.008
  685CHOL    R5 6158  13.481   7.875   6.997
  685CHOL    C1 6159  13.311   7.751   6.679
  685CHOL    C2 6160  13.431   7.791   6.263
  686XCA    COO 6161   2.927   9.859   4.122
  686XCA     C1 6162   2.837  10.158   4.468
  686XCA     C2 6163   2.814  10.468   4.780
  686XCA     C3 6164   2.855  10.473   5.201
  686XCA     C4 6165   2.483  10.389   5.432
  686XCA     C5 6166   2.299  10.309   5.821
  686XCA     C6 6167   2.290  10.159   6.241
  687PNCE   AM1 6168   0.751   7.232   4.235
  687PNCE   AM2 6169   0.621   6.915   4.137
  687PNCE   T1A 6170   0.859   7.097   4.659
  687PNCE   C2A 6171   0.741   7.084   5.090
  687PNCE   C3A 6172   0.830   7.064   5.525
  687PNCE   C1B 6173   0.398   6.970   4.540
  687PNCE   C2B 6174   0.288   6.878   4.976
  687PNCE   C3B 6175   0.330   6.953   5.401
  687PNCE   D4B 6176   0.444   7.003   5.849
  687PNCE   C5B 6177   0.160   7.270   6.069
  687PNCE   C6B 6178  15.651   7.133   6.345
  688CHOL   ROH 6179  13.571  12.037   5.195
  688CHOL    R1 6180  13.457  11.803   5.305
  688CHOL    R2 6181  13.515  11.715   5.560
  688CHOL    R3 6182  13.245  11.720   5.589
  688CHOL    R4 6183  13.338  11.536   5.798
  688CHOL    R5 6184  13.186  11.495   5.647
  688CHOL    C1 6185  12.981  11.438   5.963
  688CHOL    C2 6186  13.087  11.273   6.318
  689CHOL   ROH 6187   2.328  13.857   6.604
  689CHOL    R1 6188   2.586  13.973   6.593
  689CHOL    R2 6189   2.656  14.162   6.404
  689CHOL    R3 6190   2.728  14.307   6.623
  689CHOL    R4 6191   2.910  14.396   6.412
  689CHOL    R5 6192   2.966  14.322   6.609
  689CHOL    C1 6193   3.125  14.668   6.621
  689CHOL    C2 6194   3.173  15.059   6.738
  690PNCE   AM1 6195   6.965  10.093   4.762
  690PNCE   AM2 6196   6.699  10.341   4.758
  690PNCE   T1A 6197   6.828   9.782   5.091
  690PNCE   C2A 6198   6.867   9.405   5.367
  690PNCE   C3A 6199   6.923   9.371   5.812
  690PNCE   C1B 6200   6.584  10.248   5.227
  690PNCE   C2B 6201   6.695  10.437   5.640
  690PNCE   C3B 6202   6.932  10.699   5.975
  690PNCE   D4B 6203   7.003  11.073   6.268
  690PNCE   C5B 6204   6.972  10.979   6.716
  690PNCE   C6B 6205   6.698  10.666   6.923
  691PNCE   AM1 6206  12.543  11.820   8.489
  691PNCE   AM2 6207  12.194  11.912   8.553
  691PNCE   T1A 6208  12.343  11.738   8.075
  691PNCE   C2A 6209  12.143  11.702   7.659
  691PNCE   C3A 6210  11.793  11.763   7.335
  691PNCE   C1B 6211  12.107  12.219   8.211
  691PNCE   C2B 6212  12.126  12.402   7.805
  691PNCE   C3B 6213  12.104  12.169   7.440
  691PNCE   D4B 6214  12.083  12.240   7.023
  691PNCE   C5B 6215  11.907  11.894   6.792
  691PNCE   C6B 6216  11.923  11.441   6.936
  692PNCE   AM1 6217   4.491  11.829   4.124
  692PNCE   AM2 6218   4.387  11.644   4.458
  692PNCE   T1A 6219   4.317  12.242   3.998
  692PNCE   C2A 6220   4.025  12.519   4.166
  692PNCE   C3A 6221   3.850  12.254   4.460
  692PNCE   C1B 6222   4.221  11.519   4.894
  692PNCE   C2B 6223   4.400  11.406   5.308
  692PNCE   C3B 6224   4.561  11.070   5.623
  692PNCE   D4B 6225   4.514  10.732   5.958
  692PNCE   C5B 6226   4.048  10.677   6.192
  692PNCE   C6B 6227   3.616  10.470   6.110
  693CHOL   ROH 6228  10.483   4.874   4.695
  693CHOL    R1 6229  10.523   5.030   4.927
  693CHOL    R2 6230  10.318   5.097   5.099
  693CHOL    R3 6231  10.481   4.986   5.286
  693CHOL    R4 6232  10.335   5.196   5.430
  693CHOL    R5 6233  10.551   5.171   5.421
  693CHOL    C1 6234  10.498   5.150   5.798
  693CHOL    C2 6235  10.605   5.332   6.227
  694PNCE   AM1 6236  11.760  11.256   4.342
  694PNCE   AM2 6237  11.866  10.938   4.489
  694PNCE   T1A 6238  11.342  11.080   4.484
  694PNCE   C2A 6239  11.131  10.675   4.587
  694PNCE   C3A 6240  10.893  10.493   4.899
  694PNCE   C1B 6241  11.868  10.523   4.717
  694PNCE   C2B 6242  11.538  10.205   4.717
  694PNCE   C3B 6243  11.210  10.107   5.024
  694PNCE   D4B 6244  11.018   9.778   5.256
  694PNCE   C5B 6245  10.798   9.938   5.584
  694PNCE   C6B 6246  10.747   9.917   6.029
  695PNCE   AM1 6247   2.548   2.316   4.801
  695PNCE   AM2 6248   2.539   2.652   4.953
  695PNCE   T1A 6249   2.724   2.235   5.233
  695PNCE   C2A 6250   2.648   2.244   5.703
  695PNCE   C3A 6251   2.446   2.175   6.161
  695PNCE   C1B 6252   2.352   2.585   5.374
  695PNCE   C2B 6253   2.189   2.671   5.768
  695PNCE   C3B 6254   2.021   2.735   6.165
  695PNCE   D4B 6255   1.899   2.569   6.563
  695PNCE   C5B 6256   2.093   2.709   6.935
  695PNCE   C6B 6257   1.959   3.037   7.138
  696PNCE   AM1 6258   6.391  10.012   4.415
  696PNCE   AM2 6259   6.620   9.777   4.558
  696PNCE   T1A 6260   6.187  10.348   4.632
  696PNCE   C2A 6261   5.855  10.554   4.829
  696PNCE   C3A 6262   5.495  10.775   4.987
  696PNCE   C1B 6263   6.356   9.935   4.900
  696PNCE   C2B 6264   6.077  10.096   5.178
  696PNCE   C3B 6265   6.113  10.229   5.601
  696PNCE   D4B 6266   5.799  10.105   5.900
  696PNCE   C5B 6267   5.320  10.194   5.742
  696PNCE   C6B 6268   4.974  10.071   5.453
  697PNCE   AM1 6269  10.901   3.145   4.117
  697PNCE   AM2 6270  10.649   3.400   4.047
  697PNCE   T1A 6271  11.031   3.125   4.563
  697PNCE   C2A 6272  11.159   3.225   5.011
  697PNCE   C3A 6273  11.152   3.487   5.366
  697PNCE   C1B 6274  10.651   3.470   4.547
  697PNCE   C2B 6275  10.840   3.763   4.876
  697PNCE   C3B 6276  10.810   4.189   5.032
  697PNCE   D4B 6277  10.679   4.599   5.122
  697PNCE   C5B 6278  10.961   4.851   5.395
  697PNCE   C6B 6279  10.950   5.181   5.709
  698PNCE   AM1 6280  15.132   4.909   4.596
  698PNCE   AM2 6281  15.442   5.053   4.517
  698PNCE   T1A 6282  15.015   4.780   5.006
  698PNCE   C2A 6283  14.930   4.646   5.425
  698PNCE   C3A 6284  15.130   4.400   5.682
  698PNCE   C1B 6285  15.441   5.039   5.000
  698PNCE   C2B 6286  15.323   5.252   5.370
  698PNCE   C3B 6287  15.181   5.408   5.772
  698PNCE   D4B 6288  15.176   5.395   6.209
  698PNCE   C5B 6289  14.956   5.523   6.549
  698PNCE   C6B 6290  14.659   5.801   6.731
  699XCA    COO 6291   1.281   6.364   4.072
  699XCA     C1 6292   1.225   6.216   4.476
  699XCA     C2 6293   1.367   6.032   4.843
  699XCA     C3 6294   1.617   5.898   5.169
  699XCA     C4 6295   1.748   5.766   5.583
  699XCA     C5 6296   1.717   5.541   5.965
  699XCA     C6 6297   1.965   5.447   6.315
  700XCA    COO 6298  14.553  12.982   5.208
  700XCA     C1 6299  14.163  12.911   5.425
  700XCA     C2 6300  13.963  13.201   5.666
  700XCA     C3 6301  14.112  13.411   6.037
  700XCA     C4 6302  14.109  13.658   6.417
  700XCA     C5 6303  13.942  13.814   6.817
  700XCA     C6 6304  13.606  14.063   7.078
  701PNCE   AM1 6305   3.262  14.049   3.983
  701PNCE   AM2 6306   3.498  13.821   3.905
  701PNCE   T1A 6307   3.595  14.116   4.316
  701PNCE   C2A 6308   4.053  14.183   4.355
  701PNCE   C3A 6309   4.470  14.133   4.118
  701PNCE   C1B 6310   3.860  13.653   4.131
  701PNCE   C2B 6311   4.266  13.562   4.297
  701PNCE   C3B 6312   4.384  13.367   4.694
  701PNCE   D4B 6313   4.389  13.008   4.986
  701PNCE   C5B 6314   4.763  12.834   5.117
  701PNCE   C6B 6315   5.173  12.741   5.244
  702PNCE   AM1 6316   4.514  15.678   5.395
  702PNCE   AM2 6317   4.405   0.162   5.404
  702PNCE   T1A 6318   4.588  15.661   5.856
  702PNCE   C2A 6319   4.845  15.451   6.205
  702PNCE   C3A 6320   5.161  15.110   6.210
  702PNCE   C1B 6321   4.216   0.542   5.557
  702PNCE   C2B 6322   3.813   0.551   5.766
  702PNCE   C3B 6323   3.538   0.555   6.083
  702PNCE   D4B 6324   3.119   0.528   6.170
  702PNCE   C5B 6325   2.777   0.293   6.123
  702PNCE   C6B 6326   2.443   0.216   5.839
  703CHOL   ROH 6327   8.251   5.980   7.647
  703CHOL    R1 6328   8.273   5.738   7.501
  703CHOL    R2 6329   8.362   5.730   7.240
  703CHOL    R3 6330   8.540   5.550   7.340
  703CHOL    R4 6331   8.566   5.526   7.049
  703CHOL    R5 6332   8.527   5.364   7.190
  703CHOL    C1 6333   8.851   5.238   7.032
  703CHOL    C2 6334   8.832   4.976   6.837
  704PNCE   AM1 6335   9.418   4.021   4.818
  704PNCE   AM2 6336   9.442   3.675   4.686
  704PNCE   T1A 6337   9.839   4.068   4.996
  704PNCE   C2A 6338  10.264   4.157   5.113
  704PNCE   C3A 6339  10.494   4.258   5.463
  704PNCE   C1B 6340   9.389   3.625   5.147
  704PNCE   C2B 6341   9.399   3.712   5.563
  704PNCE   C3B 6342   9.531   3.947   5.905
  704PNCE   D4B 6343   9.370   4.013   6.268
  704PNCE   C5B 6344   8.897   4.144   6.280
  704PNCE   C6B 6345   8.551   3.909   6.196
  705PNCE   AM1 6346   1.476  15.008   5.232
  705PNCE   AM2 6347   1.304  15.060   4.923
  705PNCE   T1A 6348   1.465  15.106   5.705
  705PNCE   C2A 6349   1.526  15.337   6.107
  705PNCE   C3A 6350   1.655  15.706   6.366
  705PNCE   C1B 6351   1.002  15.402   5.032
  705PNCE   C2B 6352   0.638  15.548   5.309
  705PNCE   C3B 6353   0.581  15.778   5.674
  705PNCE   D4B 6354   0.850   0.220   5.914
  705PNCE   C5B 6355   0.832   0.355   6.348
  705PNCE   C6B 6356   0.627   0.756   6.482
  706CHOL   ROH 6357   5.155   2.017   5.754
  706CHOL    R1 6358   5.203   2.059   6.030
  706CHOL    R2 6359   5.182   2.308   6.148
  706CHOL    R3 6360   5.013   2.177   6.317
  706CHOL    R4 6361   5.066   2.432   6.449
  706CHOL    R5 6362   5.091   2.234   6.536
  706CHOL    C1 6363   4.840   2.382   6.782
  706CHOL    C2 6364   4.771   2.780   6.916
  707XCA    COO 6365  11.774   9.126   8.515
  707XCA     C1 6366  11.576   9.397   8.170
  707XCA     C2 6367  11.696   9.460   7.731
  707XCA     C3 6368  11.756   9.281   7.315
  707XCA     C4 6369  11.923   9.353   6.893
  707XCA     C5 6370  12.011   9.182   6.488
  707XCA     C6 6371  12.146   9.191   6.064
  708XCA    COO 6372   6.950  13.578   5.055
  708XCA     C1 6373   6.829  13.674   5.492
  708XCA     C2 6374   6.498  13.470   5.768
  708XCA     C3 6375   6.077  13.560   5.891
  708XCA     C4 6376   5.706  13.401   6.059
  708XCA     C5 6377   5.255  13.460   6.056
  708XCA     C6 6378   4.897  13.749   5.975
  709CHOL   ROH 6379   0.478   6.490   8.124
  709CHOL    R1 6380   0.545   6.465   7.850
  709CHOL    R2 6381   0.779   6.347   7.764
  709CHOL    R3 6382   0.609   6.193   7.617
  709CHOL    R4 6383   0.861   6.190   7.467
  709CHOL    R5 6384   0.665   6.244   7.390
  709CHOL    C1 6385   0.750   5.955   7.156
  709CHOL    C2 6386   0.910   5.636   6.908
  710CHOL   ROH 6387   1.160  14.780   8.663
  710CHOL    R1 6388   1.076  14.653   8.425
  710CHOL    R2 6389   0.894  14.767   8.252
  710CHOL    R3 6390   1.089  14.724   8.068
  710CHOL    R4 6391   0.840  14.711   7.915
  710CHOL    R5 6392   0.997  14.560   7.920
  710CHOL    C1 6393   0.992  14.638   7.546
  710CHOL    C2 6394   1.161  14.454   7.211
  711CHOL   ROH 6395   2.457  12.480   5.280
  711CHOL    R1 6396   2.497  12.259   5.452
  711CHOL    R2 6397   2.459  12.275   5.725
  711CHOL    R3 6398   2.294  12.063   5.682
  711CHOL    R4 6399   2.349  12.057   5.970
  711CHOL    R5 6400   2.376  11.893   5.829
  711CHOL    C1 6401   2.130  11.731   6.072
  711CHOL    C2 6402   1.807  11.693   6.348
  712CHOL   ROH 6403   6.095   5.740   7.598
  712CHOL    R1 6404   6.187   5.736   7.331
  712CHOL    R2 6405   6.082   5.900   7.135
  712CHOL    R3 6406   6.341   5.972   7.100
  712CHOL    R4 6407   6.207   6.057   6.854
  712CHOL    R5 6408   6.384   5.931   6.869
  712CHOL    C1 6409   6.525   6.216   6.658
  712CHOL    C2 6410   6.769   6.130   6.346
  713XCA    COO 6411   3.157   1.487   5.000
  713XCA     C1 6412   3.179   1.672   5.391
  713XCA     C2 6413   3.142   1.869   5.808
  713XCA     C3 6414   3.079   1.856   6.275
  713XCA     C4 6415   2.781   1.947   6.594
  713XCA     C5 6416   2.388   1.978   6.795
  713XCA     C6 6417   2.007   2.211   6.934
  714CHOL   ROH 6418   1.606  14.043   5.451
  714CHOL    R1 6419   1.687  13.827   5.615
  714CHOL    R2 6420   1.747  13.859   5.883
  714CHOL    R3 6421   1.562  13.662   5.915
  714CHOL    R4 6422   1.700  13.678   6.174
  714CHOL    R5 6423   1.672  13.499   6.052
  714CHOL    C1 6424   1.499  13.388   6.373
  714CHOL    C2 6425   1.386  13.125   6.624
  715CHOL   ROH 6426   9.681  13.390   9.208
  715CHOL    R1 6427   9.791  13.455   8.956
  715CHOL    R2 6428   9.674  13.378   8.718
  715CHOL    R3 6429   9.687  13.644   8.663
  715CHOL    R4 6430   9.669  13.514   8.401
  715CHOL    R5 6431   9.820  13.657   8.464
  715CHOL    C1 6432   9.677  13.843   8.164
  715CHOL    C2 6433   9.893  13.644   7.922
  716PNCE   AM1 6434   0.747   0.606   4.746
  716PNCE   AM2 6435   1.101   0.623   4.889
  716PNCE   T1A 6436   0.672   0.978   5.031
  716PNCE   C2A 6437   0.895   1.352   5.172
  716PNCE   C3A 6438   1.060   1.573   5.538
  716PNCE   C1B 6439   0.810   0.536   5.253
  716PNCE   C2B 6440   0.613   0.600   5.664
  716PNCE   C3B 6441   0.406   0.499   6.077
  716PNCE   D4B 6442   0.337   0.339   6.513
  716PNCE   C5B 6443  15.802   0.087   6.598
  716PNCE   C6B 6444  15.487   0.137   6.939
  717CHOL   ROH 6445  10.427  15.149   9.442
  717CHOL    R1 6446  10.371  15.099   9.169
  717CHOL    R2 6447  10.548  15.165   8.967
  717CHOL    R3 6448  10.519  14.903   8.900
  717CHOL    R4 6449  10.575  15.038   8.646
  717CHOL    R5 6450  10.406  14.907   8.689
  717CHOL    C1 6451  10.564  14.718   8.398
  717CHOL    C2 6452  10.676  14.687   7.991
  718PNCE   AM1 6453   0.318  12.400   4.791
  718PNCE   AM2 6454   0.614  12.272   4.909
  718PNCE   T1A 6455   0.016  12.534   5.096
  718PNCE   C2A 6456  15.716  12.566   5.515
  718PNCE   C3A 6457   0.044  12.657   5.922
  718PNCE   C1B 6458   0.442  12.342   5.358
  718PNCE   C2B 6459   0.228  12.173   5.739
  718PNCE   C3B 6460  15.803  11.953   6.053
  718PNCE   D4B 6461  15.383  11.817   6.058
  718PNCE   C5B 6462  15.198  11.589   6.389
  718PNCE   C6B 6463  15.261  11.542   6.849
  719PNCE   AM1 6464  15.077   4.394   4.559
  719PNCE   AM2 6465  14.751   4.510   4.646
  719PNCE   T1A 6466  15.204   3.974   4.750
  719PNCE   C2A 6467  15.075   3.614   4.967
  719PNCE   C3A 6468  14.695   3.370   4.968
  719PNCE   C1B 6469  14.953   4.289   5.049
  719PNCE   C2B 6470  15.207   4.023   5.293
  719PNCE   C3B 6471  15.299   3.949   5.737
  719PNCE   D4B 6472  15.364   3.806   6.169
  719PNCE   C5B 6473  15.744   3.961   6.385
  719PNCE   C6B 6474   0.183   3.751   6.709
  720PNCE   AM1 6475  12.775   2.436   4.613
  720PNCE   AM2 6476  12.986   2.171   4.673
  720PNCE   T1A 6477  12.446   2.555   4.879
  720PNCE   C2A 6478  12.184   2.446   5.220
  720PNCE   C3A 6479  12.139   2.313   5.666
  720PNCE   C1B 6480  13.266   2.043   5.015
  720PNCE   C2B 6481  13.497   2.293   5.356
  720PNCE   C3B 6482  13.928   2.218   5.553
  720PNCE   D4B 6483  14.380   2.187   5.672
  720PNCE   C5B 6484  14.560   1.771   5.593
  720PNCE   C6B 6485  14.712   1.492   5.276
  721XCA    COO 6486   8.375  12.777   5.543
  721XCA     C1 6487   8.175  12.986   5.930
  721XCA     C2 6488   8.094  13.058   6.386
  721XCA     C3 6489   7.804  13.144   6.712
  721XCA     C4 6490   7.361  13.039   6.705
  721XCA     C5 6491   6.962  13.254   6.583
  721XCA     C6 6492   6.625  13.519   6.421
  722PNCE   AM1 6493   4.494   1.773   5.220
  722PNCE   AM2 6494   4.571   2.052   5.035
  722PNCE   T1A 6495   4.174   1.482   5.364
  722PNCE   C2A 6496   3.992   1.437   5.779
  722PNCE   C3A 6497   3.898   1.580   6.217
  722PNCE   C1B 6498   4.270   2.293   5.297
  722PNCE   C2B 6499   4.356   2.495   5.697
  722PNCE   C3B 6500   4.330   2.607   6.117
  722PNCE   D4B 6501   4.192   2.629   6.533
  722PNCE   C5B 6502   4.197   2.951   6.815
  722PNCE   C6B 6503   4.293   3.322   7.030
  723PNCE   AM1 6504  11.912   7.426   4.415
  723PNCE   AM2 6505  12.164   7.527   4.188
  723PNCE   T1A 6506  11.763   6.968   4.446
  723PNCE   C2A 6507  11.581   6.582   4.639
  723PNCE   C3A 6508  11.723   6.361   4.998
  723PNCE   C1B 6509  12.266   7.878   4.448
  723PNCE   C2B 6510  12.068   8.183   4.689
  723PNCE   C3B 6511  11.895   8.562   4.848
  723PNCE   D4B 6512  11.853   8.671   5.280
  723PNCE   C5B 6513  11.485   8.630   5.552
  723PNCE   C6B 6514  11.073   8.450   5.775
  724PNCE   AM1 6515   1.239   7.427   4.555
  724PNCE   AM2 6516   1.375   7.133   4.620
  724PNCE   T1A 6517   1.051   7.481   4.931
  724PNCE   C2A 6518   0.673   7.569   5.184
  724PNCE   C3A 6519   0.446   7.429   5.541
  724PNCE   C1B 6520   1.247   7.036   5.021
  724PNCE   C2B 6521   1.299   6.886   5.412
  724PNCE   C3B 6522   1.502   6.673   5.714
  724PNCE   D4B 6523   1.820   6.369   5.851
  724PNCE   C5B 6524   1.986   6.445   6.237
  724PNCE   C6B 6525   2.016   6.845   6.400
  725PNCE   AM1 6526   8.086  10.985   4.958
  725PNCE   AM2 6527   8.158  10.641   4.800
  725PNCE   T1A 6528   8.043  10.845   5.402
  725PNCE   C2A 6529   8.093  10.821   5.866
  725PNCE   C3A 6530   7.875  10.939   6.246
  725PNCE   C1B 6531   8.315  10.264   5.082
  725PNCE   C2B 6532   8.524   9.950   5.401
  725PNCE   C3B 6533   8.636   9.536   5.643
  725PNCE   D4B 6534   8.960   9.194   5.752
  725PNCE   C5B 6535   9.162   8.811   5.647
  725PNCE   C6B 6536   9.553   8.649   5.530
  726PNCE   AM1 6537  14.891   0.724   4.529
  726PNCE   AM2 6538  14.717   0.449   4.404
  726PNCE   T1A 6539  14.870   0.858   4.975
  726PNCE   C2A 6540  14.731   0.989   5.385
  726PNCE   C3A 6541  14.493   0.901   5.783
  726PNCE   C1B 6542  14.577   0.092   4.690
  726PNCE   C2B 6543  14.614  15.753   5.156
  726PNCE   C3B 6544  14.569   0.009   5.620
  726PNCE   D4B 6545  14.802   0.015   6.038
  726PNCE   C5B 6546  14.774   0.390   6.328
  726PNCE   C6B 6547  14.682   0.516   6.787
  727CHOL   ROH 6548   3.587   9.205   5.823
  727CHOL    R1 6549   3.746   9.395   5.959
  727CHOL    R2 6550   3.787   9.387   6.232
  727CHOL    R3 6551   4.049   9.390   6.161
  727CHOL    R4 6552   4.050   9.434   6.450
  727CHOL    R5 6553   4.146   9.559   6.300
  727CHOL    C1 6554   4.450   9.465   6.511
  727CHOL    C2 6555   4.804   9.401   6.354
  728XCA    COO 6556   6.711   8.630   8.809
  728XCA     C1 6557   7.068   8.814   8.591
  728XCA     C2 6558   7.299   9.203   8.452
  728XCA     C3 6559   7.355   9.590   8.170
  728XCA     C4 6560   7.428   9.847   7.797
  728XCA     C5 6561   7.532  10.126   7.421
  728XCA     C6 6562   7.546  10.190   6.941
  729PNCE   AM1 6563   0.191   0.699   4.835
  729PNCE   AM2 6564   0.262   1.007   4.683
  729PNCE   T1A 6565  15.756   0.447   5.141
  729PNCE   C2A 6566  15.359   0.223   5.176
  729PNCE   C3A 6567  15.177  15.655   5.029
  729PNCE   C1B 6568   0.178   1.156   5.108
  729PNCE   C2B 6569   0.407   1.330   5.435
  729PNCE   C3B 6570   0.280   1.386   5.858
  729PNCE   D4B 6571   0.060   1.594   6.148
  729PNCE   C5B 6572   0.105   1.617   6.587
  729PNCE   C6B 6573   0.382   1.486   6.887
  730XCA    COO 6574   3.603   5.299   8.628
  730XCA     C1 6575   3.603   5.112   8.191
  730XCA     C2 6576   3.275   4.995   7.910
  730XCA     C3 6577   2.983   5.056   7.607
  730XCA     C4 6578   2.697   5.261   7.356
  730XCA     C5 6579   2.291   5.466   7.324
  730XCA     C6 6580   2.000   5.567   7.649
  731PNCE   AM1 6581   6.865   6.641   4.321
  731PNCE   AM2 6582   6.525   6.644   4.343
  731PNCE   T1A 6583   6.844   6.251   4.599
  731PNCE   C2A 6584   6.865   6.016   4.998
  731PNCE   C3A 6585   6.874   5.825   5.383
  731PNCE   C1B 6586   6.623   7.051   4.570
  731PNCE   C2B 6587   6.845   7.386   4.795
  731PNCE   C3B 6588   7.049   7.699   5.055
  731PNCE   D4B 6589   7.092   7.911   5.400
  731PNCE   C5B 6590   6.736   7.746   5.611
  731PNCE   C6B 6591   6.338   7.870   5.706
  732PNCE   AM1 6592  14.894  10.340   4.693
  732PNCE   AM2 6593  14.729  10.634   4.532
  732PNCE   T1A 6594  14.864  10.428   5.140
  732PNCE   C2A 6595  14.914  10.296   5.562
  732PNCE   C3A 6596  15.253  10.022   5.743
  732PNCE   C1B 6597  14.541  10.781   4.948
  732PNCE   C2B 6598  14.497  10.677   5.389
  732PNCE   C3B 6599  14.589  10.596   5.825
  732PNCE   D4B 6600  14.803  10.821   6.121
  732PNCE   C5B 6601  15.210  10.817   6.323
  732PNCE   C6B 6602  15.504  10.598   6.562
  733PNCE   AM1 6603   5.640   8.390   4.202
  733PNCE   AM2 6604   5.326   8.198   4.182
  733PNCE   T1A 6605   5.801   8.098   4.524
  733PNCE   C2A 6606   6.019   7.683   4.552
  733PNCE   C3A 6607   6.448   7.521   4.417
  733PNCE   C1B 6608   5.240   8.420   4.580
  733PNCE   C2B 6609   5.175   8.498   5.012
  733PNCE   C3B 6610   5.086   8.355   5.419
  733PNCE   D4B 6611   5.038   8.411   5.870
  733PNCE   C5B 6612   4.602   8.488   5.989
  733PNCE   C6B 6613   4.191   8.562   6.255
  734CHOL   ROH 6614  15.783   4.087   8.968
  734CHOL    R1 6615  15.822   3.823   8.873
  734CHOL    R2 6616  15.809   3.758   8.605
  734CHOL    R3 6617   0.226   3.653   8.651
  734CHOL    R4 6618   0.127   3.507   8.417
  734CHOL    R5 6619   0.203   3.420   8.602
  734CHOL    C1 6620   0.444   3.264   8.351
  734CHOL    C2 6621   0.524   2.875   8.192
  735CHOL   ROH 6622   8.710   7.475   7.864
  735CHOL    R1 6623   8.819   7.618   7.645
  735CHOL    R2 6624   8.785   7.536   7.383
  735CHOL    R3 6625   8.689   7.788   7.350
  735CHOL    R4 6626   8.687   7.673   7.081
  735CHOL    R5 6627   8.781   7.860   7.141
  735CHOL    C1 6628   8.540   7.989   6.875
  735CHOL    C2 6629   8.490   7.829   6.553
  736XCA    COO 6630   5.015  10.022   8.461
  736XCA     C1 6631   4.757   9.998   8.088
  736XCA     C2 6632   4.441  10.121   7.823
  736XCA     C3 6633   4.234   9.962   7.485
  736XCA     C4 6634   4.135   9.911   7.101
  736XCA     C5 6635   4.185   9.850   6.665
  736XCA     C6 6636   4.472   9.928   6.300
  737PNCE   AM1 6637  14.477   1.837   4.094
  737PNCE   AM2 6638  14.133   1.750   4.204
  737PNCE   T1A 6639  14.310   2.177   4.382
  737PNCE   C2A 6640  14.261   2.299   4.802
  737PNCE   C3A 6641  14.394   2.398   5.219
  737PNCE   C1B 6642  13.894   1.870   4.591
  737PNCE   C2B 6643  13.850   2.054   5.016
  737PNCE   C3B 6644  13.880   2.515   5.111
  737PNCE   D4B 6645  13.615   2.846   5.328
  737PNCE   C5B 6646  13.337   2.987   5.736
  737PNCE   C6B 6647  13.297   3.147   6.182
  738PNCE   AM1 6648   9.329  14.911   5.564
  738PNCE   AM2 6649   9.067  14.700   5.411
  738PNCE   T1A 6650   9.345  14.831   6.015
  738PNCE   C2A 6651   9.521  15.018   6.384
  738PNCE   C3A 6652   9.612  15.354   6.682
  738PNCE   C1B 6653   9.173  14.403   5.749
  738PNCE   C2B 6654   9.211  14.361   6.215
  738PNCE   C3B 6655   9.381  14.552   6.584
  738PNCE   D4B 6656   9.273  14.953   6.834
  738PNCE   C5B 6657   8.901  14.966   7.094
  738PNCE   C6B 6658   8.621  15.166   7.414
  739CHOL   ROH 6659   5.499   7.444   5.707
  739CHOL    R1 6660   5.609   7.204   5.810
  739CHOL    R2 6661   5.838   7.200   5.964
  739CHOL    R3 6662   5.680   7.066   6.139
  739CHOL    R4 6663   5.953   6.986   6.209
  739CHOL    R5 6664   5.787   6.853   6.164
  739CHOL    C1 6665   5.871   6.734   6.517
  739CHOL    C2 6666   6.053   6.481   6.732
  740PNCE   AM1 6667  11.846   1.334   4.573
  740PNCE   AM2 6668  11.945   0.990   4.691
  740PNCE   T1A 6669  11.645   1.435   4.955
  740PNCE   C2A 6670  11.711   1.524   5.385
  740PNCE   C3A 6671  11.732   1.555   5.810
  740PNCE   C1B 6672  12.009   1.111   5.136
  740PNCE   C2B 6673  12.078   1.171   5.591
  740PNCE   C3B 6674  12.421   1.098   5.876
  740PNCE   D4B 6675  12.581   1.261   6.280
  740PNCE   C5B 6676  12.264   1.322   6.621
  740PNCE   C6B 6677  12.044   1.496   6.983
  741PNCE   AM1 6678  14.812  12.450   4.832
  741PNCE   AM2 6679  15.112  12.225   4.771
  741PNCE   T1A 6680  14.794  12.520   5.300
  741PNCE   C2A 6681  14.613  12.716   5.697
  741PNCE   C3A 6682  14.260  12.885   5.949
  741PNCE   C1B 6683  15.321  12.281   5.223
  741PNCE   C2B 6684  15.454  12.156   5.674
  741PNCE   C3B 6685  15.458  12.351   6.121
  741PNCE   D4B 6686  15.571  12.635   6.463
  741PNCE   C5B 6687  15.485  12.440   6.874
  741PNCE   C6B 6688  15.530  12.259   7.316
  742CHOL   ROH 6689   9.334  15.515   9.568
  742CHOL    R1 6690   9.512  15.380   9.395
  742CHOL    R2 6691   9.480  15.115   9.326
  742CHOL    R3 6692   9.492  15.212   9.073
  742CHOL    R4 6693   9.544  14.925   9.045
  742CHOL    R5 6694   9.668  15.087   8.969
  742CHOL    C1 6695   9.592  14.906   8.643
  742CHOL    C2 6696   9.952  14.821   8.599
  743CHOL   ROH 6697   2.706   3.085   5.182
  743CHOL    R1 6698   2.560   3.026   5.418
  743CHOL    R2 6699   2.661   3.070   5.671
  743CHOL    R3 6700   2.433   3.213   5.703
  743CHOL    R4 6701   2.520   3.149   5.976
  743CHOL    R5 6702   2.324   3.109   5.890
  743CHOL    C1 6703   2.223   3.329   6.184
  743CHOL    C2 6704   2.100   3.501   6.574
  744XCA    COO 6705  11.553  11.562   4.697
  744XCA     C1 6706  11.770  11.496   5.107
  744XCA     C2 6707  11.994  11.764   5.373
  744XCA     C3 6708  12.160  11.662   5.753
  744XCA     C4 6709  12.509  11.612   6.023
  744XCA     C5 6710  12.783  11.714   6.333
  744XCA     C6 6711  12.886  12.096   6.533
  745PNCE   AM1 6712  12.407   6.995   4.385
  745PNCE   AM2 6713  12.693   7.166   4.446
  745PNCE   T1A 6714  12.362   6.837   4.779
  745PNCE   C2A 6715  12.363   6.703   5.194
  745PNCE   C3A 6716  12.432   6.789   5.601
  745PNCE   C1B 6717  12.499   7.498   4.732
  745PNCE   C2B 6718  12.192   7.739   4.957
  745PNCE   C3B 6719  12.144   8.132   5.190
  745PNCE   D4B 6720  12.003   8.289   5.589
  745PNCE   C5B 6721  12.305   8.213   5.870
  745PNCE   C6B 6722  12.636   7.972   5.987
  746PNCE   AM1 6723   5.582  10.977   4.439
  746PNCE   AM2 6724   5.936  10.974   4.514
  746PNCE   T1A 6725   5.386  10.574   4.544
  746PNCE   C2A 6726   5.056  10.461   4.807
  746PNCE   C3A 6727   4.733  10.472   5.130
  746PNCE   C1B 6728   5.900  11.063   4.971
  746PNCE   C2B 6729   5.838  11.017   5.415
  746PNCE   C3B 6730   5.964  11.041   5.803
  746PNCE   D4B 6731   5.933  11.059   6.234
  746PNCE   C5B 6732   6.119  10.767   6.532
  746PNCE   C6B 6733   6.204  10.806   6.985
  747XCA    COO 6734   7.201  11.828   9.083
  747XCA     C1 6735   7.227  12.072   8.698
  747XCA     C2 6736   7.262  12.524   8.605
  747XCA     C3 6737   7.439  12.839   8.336
  747XCA     C4 6738   7.615  12.824   7.917
  747XCA     C5 6739   7.781  12.810   7.512
  747XCA     C6 6740   8.054  13.010   7.166
  748CHOL   ROH 6741  15.598   7.837   4.936
  748CHOL    R1 6742  15.666   7.971   5.176
  748CHOL    R2 6743  15.548   8.208   5.253
  748CHOL    R3 6744  15.494   8.071   5.481
  748CHOL    R4 6745  15.537   8.348   5.569
  748CHOL    R5 6746  15.638   8.170   5.645
  748CHOL    C1 6747  15.480   8.300   5.967
  748CHOL    C2 6748  15.400   8.548   6.229
  749PNCE   AM1 6749   2.357  15.796   4.969
  749PNCE   AM2 6750   2.258  15.443   4.936
  749PNCE   T1A 6751   2.161   0.162   5.356
  749PNCE   C2A 6752   2.054   0.488   5.707
  749PNCE   C3A 6753   2.179   0.613   6.164
  749PNCE   C1B 6754   2.303  15.473   5.377
  749PNCE   C2B 6755   2.381  15.239   5.731
  749PNCE   C3B 6756   2.729  15.162   6.007
  749PNCE   D4B 6757   2.782  14.988   6.424
  749PNCE   C5B 6758   2.694  15.250   6.790
  749PNCE   C6B 6759   2.830  15.407   7.188
  750XCA    COO 6760   2.063   9.660   4.140
  750XCA     C1 6761   2.057   9.572   4.617
  750XCA     C2 6762   2.357   9.582   4.951
  750XCA     C3 6763   2.467   9.452   5.345
  750XCA     C4 6764   2.258   9.306   5.689
  750XCA     C5 6765   1.920   9.032   5.723
  750XCA     C6 6766   1.629   8.674   5.684
  751XCA    COO 6767   6.288   6.032   7.924
  751XCA     C1 6768   6.445   6.132   7.518
  751XCA     C2 6769   6.800   6.066   7.237
  751XCA     C3 6770   6.926   6.017   6.824
  751XCA     C4 6771   7.259   5.784   6.604
  751XCA     C5 6772   7.596   5.468   6.774
  751XCA     C6 6773   7.833   5.048   6.758
  752PNCE   AM1 6774   4.927   7.035   4.416
  752PNCE   AM2 6775   4.619   6.985   4.240
  752PNCE   T1A 6776   5.280   7.250   4.627
  752PNCE   C2A 6777   5.599   7.490   4.790
  752PNCE   C3A 6778   5.802   7.830   4.992
  752PNCE   C1B 6779   4.516   7.254   4.610
  752PNCE   C2B 6780   4.308   7.269   4.990
  752PNCE   C3B 6781   3.949   7.409   5.135
  752PNCE   D4B 6782   3.790   7.642   5.449
  752PNCE   C5B 6783   3.864   8.055   5.536
  752PNCE   C6B 6784   4.239   8.344   5.660
  753PNCE   AM1 6785  12.072   2.171   4.679
  753PNCE   AM2 6786  12.401   2.081   4.545
  753PNCE   T1A 6787  12.127   1.717   4.856
  753PNCE   C2A 6788  12.400   1.330   4.848
  753PNCE   C3A 6789  12.784   1.182   5.074
  753PNCE   C1B 6790  12.523   2.072   4.971
  753PNCE   C2B 6791  12.351   1.906   5.325
  753PNCE   C3B 6792  12.195   1.749   5.687
  753PNCE   D4B 6793  12.017   1.982   6.033
  753PNCE   C5B 6794  11.601   1.846   6.221
  753PNCE   C6B 6795  11.280   1.539   6.273
  754XCA    COO 6796   6.725   3.297   8.934
  754XCA     C1 6797   6.819   3.327   8.480
  754XCA     C2 6798   6.676   3.636   8.170
  754XCA     C3 6799   6.657   4.070   8.264
  754XCA     C4 6800   6.775   4.451   8.061
  754XCA     C5 6801   6.976   4.827   7.993
  754XCA     C6 6802   7.313   5.005   7.833
  755PNCE   AM1 6803  12.765   1.575   8.052
  755PNCE   AM2 6804  13.126   1.550   8.153
  755PNCE   T1A 6805  12.523   1.594   7.619
  755PNCE   C2A 6806  12.593   1.527   7.144
  755PNCE   C3A 6807  12.817   1.419   6.731
  755PNCE   C1B 6808  13.286   1.237   7.846
  755PNCE   C2B 6809  13.387   1.140   7.416
  755PNCE   C3B 6810  13.703   1.163   7.123
  755PNCE   D4B 6811  14.120   1.173   7.010
  755PNCE   C5B 6812  14.290   1.571   7.046
  755PNCE   C6B 6813  14.660   1.762   6.876
  756CHOL   ROH 6814   5.286   6.282   4.902
  756CHOL    R1 6815   5.188   6.240   5.164
  756CHOL    R2 6816   5.327   6.094   5.353
  756CHOL    R3 6817   5.296   6.318   5.503
  756CHOL    R4 6818   5.355   6.108   5.697
  756CHOL    R5 6819   5.185   6.243   5.701
  756CHOL    C1 6820   5.343   6.326   6.038
  756CHOL    C2 6821   5.589   6.434   6.306
  757CHOL   ROH 6822   8.457   0.171   6.047
  757CHOL    R1 6823   8.436   0.373   6.243
  757CHOL    R2 6824   8.346   0.324   6.500
  757CHOL    R3 6825   8.581   0.441   6.570
  757CHOL    R4 6826   8.410   0.472   6.805
  757CHOL    R5 6827   8.517   0.631   6.701
  757CHOL    C1 6828   8.667   0.669   7.049
  757CHOL    C2 6829   8.537   0.916   7.278
  758CHOL   ROH 6830  12.619   5.132   7.752
  758CHOL    R1 6831  12.470   5.061   7.522
  758CHOL    R2 6832  12.448   5.226   7.302
  758CHOL    R3 6833  12.537   5.007   7.169
  758CHOL    R4 6834  12.426   5.180   6.960
  758CHOL    R5 6835  12.375   4.972   6.996
  758CHOL    C1 6836  12.497   4.947   6.636
  758CHOL    C2 6837  12.573   4.833   6.255
  759CHOL   ROH 6838   5.131  15.482   8.226
  759CHOL    R1 6839   5.276  15.538   7.990
  759CHOL    R2 6840   5.552  15.535   7.980
  759CHOL    R3 6841   5.511  15.361   7.776
  759CHOL    R4 6842   5.791  15.443   7.749
  759CHOL    R5 6843   5.638  15.452   7.594
  759CHOL    C1 6844   5.892  15.226   7.422
  759CHOL    C2 6845   5.886  15.033   7.064
  760CHOL   ROH 6846  11.383   1.688   7.200
  760CHOL    R1 6847  11.569   1.567   7.024
  760CHOL    R2 6848  11.511   1.338   6.881
  760CHOL    R3 6849  11.586   1.491   6.668
  760CHOL    R4 6850  11.586   1.216   6.567
  760CHOL    R5 6851  11.751   1.358   6.556
  760CHOL    C1 6852  11.700   1.287   6.184
  760CHOL    C2 6853  11.988   1.040   6.124
  761CHOL   ROH 6854  11.017  13.950   8.766
  761CHOL    R1 6855  11.144  13.890   8.521
  761CHOL    R2 6856  11.089  14.026   8.287
  761CHOL    R3 6857  11.358  14.064   8.283
  761CHOL    R4 6858  11.276  14.091   8.003
  761CHOL    R5 6859  11.430  13.958   8.081
  761CHOL    C1 6860  11.637  14.163   7.835
  761CHOL    C2 6861  11.530  13.950   7.526
  762PNCE   AM1 6862   5.280   0.500   5.492
  762PNCE   AM2 6863   4.934   0.622   5.586
  762PNCE   T1A 6864   5.445   0.471   5.910
  762PNCE   C2A 6865   5.486   0.460   6.353
  762PNCE   C3A 6866   5.509   0.536   6.806
  762PNCE   C1B 6867   5.004   0.675   6.050
  762PNCE   C2B 6868   5.059   0.705   6.503
  762PNCE   C3B 6869   5.006   0.451   6.875
  762PNCE   D4B 6870   5.185   0.461   7.286
  762PNCE   C5B 6871   5.003   0.482   7.703
  762PNCE   C6B 6872   4.835   0.570   8.106
  763PNCE   AM1 6873  10.562  10.643   4.012
  763PNCE   AM2 6874  10.560  11.008   3.989
  763PNCE   T1A 6875  10.851  10.325   4.250
  763PNCE   C2A 6876  11.090  10.024   4.512
  763PNCE   C3A 6877  11.202   9.651   4.782
  763PNCE   C1B 6878  10.695  11.081   4.440
  763PNCE   C2B 6879  10.498  10.909   4.825
  763PNCE   C3B 6880  10.312  10.559   5.077
  763PNCE   D4B 6881  10.170  10.575   5.509
  763PNCE   C5B 6882  10.350  10.921   5.737
  763PNCE   C6B 6883  10.632  11.259   5.909
  764CHOL   ROH 6884   7.250   2.524   8.655
  764CHOL    R1 6885   7.380   2.684   8.460
  764CHOL    R2 6886   7.340   2.649   8.189
  764CHOL    R3 6887   7.278   2.914   8.197
  764CHOL    R4 6888   7.410   2.877   7.939
  764CHOL    R5 6889   7.464   3.022   8.092
  764CHOL    C1 6890   7.394   3.257   7.800
  764CHOL    C2 6891   7.273   3.598   7.671
  765PNCE   AM1 6892   1.533   3.640   4.974
  765PNCE   AM2 6893   1.708   3.920   4.868
  765PNCE   T1A 6894   1.583   3.220   5.187
  765PNCE   C2A 6895   1.236   2.946   5.392
  765PNCE   C3A 6896   1.128   2.553   5.313
  765PNCE   C1B 6897   1.515   4.151   5.223
  765PNCE   C2B 6898   1.100   4.243   5.460
  765PNCE   C3B 6899   0.937   4.212   5.880
  765PNCE   D4B 6900   0.695   4.343   6.211
  765PNCE   C5B 6901   0.561   4.040   6.517
  765PNCE   C6B 6902   0.741   3.827   6.892
  766PNCE   AM1 6903   6.929   4.147   4.589
  766PNCE   AM2 6904   7.304   4.043   4.577
  766PNCE   T1A 6905   6.691   4.333   4.983
  766PNCE   C2A 6906   6.571   4.534   5.395
  766PNCE   C3A 6907   6.302   4.377   5.704
  766PNCE   C1B 6908   7.504   3.808   4.941
  766PNCE   C2B 6909   7.284   3.532   5.265
  766PNCE   C3B 6910   7.484   3.483   5.673
  766PNCE   D4B 6911   7.951   3.524   5.664
  766PNCE   C5B 6912   8.122   3.718   6.007
  766PNCE   C6B 6913   8.051   4.108   6.233
  767CHOL   ROH 6914  11.932   6.755   4.917
  767CHOL    R1 6915  11.901   6.822   5.190
  767CHOL    R2 6916  11.740   6.677   5.361
  767CHOL    R3 6917  11.966   6.662   5.511
  767CHOL    R4 6918  11.748   6.621   5.702
  767CHOL    R5 6919  11.908   6.768   5.718
  767CHOL    C1 6920  11.965   6.574   6.041
  767CHOL    C2 6921  12.127   6.377   6.408
  768XCA    COO 6922   6.243  14.348   4.235
  768XCA     C1 6923   6.075  14.021   4.513
  768XCA     C2 6924   5.812  13.735   4.725
  768XCA     C3 6925   5.556  13.382   4.813
  768XCA     C4 6926   5.573  12.997   5.036
  768XCA     C5 6927   5.646  12.571   5.213
  768XCA     C6 6928   5.377  12.244   5.247
  769XCA    COO 6929  10.502  15.713   5.072
  769XCA     C1 6930  10.326   0.042   5.469
  769XCA     C2 6931  10.427   0.238   5.853
  769XCA     C3 6932  10.359   0.161   6.298
  769XCA     C4 6933  10.551  15.672   6.570
  769XCA     C5 6934  10.666  15.285   6.737
  769XCA     C6 6935  10.596  14.989   7.082
  770PNCE   AM1 6936  14.306   9.764   4.090
  770PNCE   AM2 6937  14.001   9.894   4.236
  770PNCE   T1A 6938  14.162   9.327   4.200
  770PNCE   C2A 6939  13.904   9.041   4.468
  770PNCE   C3A 6940  13.734   8.810   4.789
  770PNCE   C1B 6941  13.960   9.940   4.705
  770PNCE   C2B 6942  14.056   9.771   5.114
  770PNCE   C3B 6943  14.209   9.722   5.542
  770PNCE   D4B 6944  14.178   9.499   5.929
  770PNCE   C5B 6945  14.526   9.231   6.082
  770PNCE   C6B 6946  14.516   8.927   6.428
  771PNCE   AM1 6947   1.000  14.691   5.642
  771PNCE   AM2 6948   0.993  14.956   5.377
  771PNCE   T1A 6949   0.863  14.572   6.076
  771PNCE   C2A 6950   0.907  14.314   6.463
  771PNCE   C3A 6951   0.775  14.383   6.889
  771PNCE   C1B 6952   1.072  15.381   5.548
  771PNCE   C2B 6953   0.992  15.529   5.973
  771PNCE   C3B 6954   0.933  15.654   6.384
  771PNCE   D4B 6955   0.625  15.788   6.690
  771PNCE   C5B 6956   0.294  15.503   6.615
  771PNCE   C6B 6957   0.176  15.066   6.517
  772CHOL   ROH 6958   7.595   2.255   5.808
  772CHOL    R1 6959   7.525   2.087   6.024
  772CHOL    R2 6960   7.579   1.816   6.025
  772CHOL    R3 6961   7.701   1.873   6.260
  772CHOL    R4 6962   7.584   1.608   6.301
  772CHOL    R5 6963   7.555   1.783   6.427
  772CHOL    C1 6964   7.702   1.541   6.683
  772CHOL    C2 6965   7.455   1.452   6.972
  773PNCE   AM1 6966   1.697  13.305   4.812
  773PNCE   AM2 6967   1.705  12.966   4.664
  773PNCE   T1A 6968   1.795  13.386   5.285
  773PNCE   C2A 6969   2.034  13.426   5.635
  773PNCE   C3A 6970   2.402  13.349   5.871
  773PNCE   C1B 6971   1.701  12.907   5.135
  773PNCE   C2B 6972   1.861  12.918   5.575
  773PNCE   C3B 6973   1.983  13.069   6.013
  773PNCE   D4B 6974   1.917  13.072   6.491
  773PNCE   C5B 6975   1.849  13.496   6.672
  773PNCE   C6B 6976   1.772  13.960   6.690
  774CHOL   ROH 6977   9.219   1.620   6.182
  774CHOL    R1 6978   9.396   1.568   6.396
  774CHOL    R2 6979   9.372   1.691   6.642
  774CHOL    R3 6980   9.371   1.435   6.734
  774CHOL    R4 6981   9.528   1.584   6.932
  774CHOL    R5 6982   9.590   1.404   6.827
  774CHOL    C1 6983   9.616   1.282   7.187
  774CHOL    C2 6984   9.899   1.282   7.510
  775CHOL   ROH 6985   2.219   0.623   8.308
  775CHOL    R1 6986   2.166   0.454   8.087
  775CHOL    R2 6987   2.184   0.541   7.826
  775CHOL    R3 6988   2.351   0.329   7.800
  775CHOL    R4 6989   2.328   0.439   7.529
  775CHOL    R5 6990   2.292   0.232   7.589
  775CHOL    C1 6991   2.568   0.179   7.331
  775CHOL    C2 6992   2.592   0.422   7.007
  776CHOL   ROH 6993  11.670   8.152   4.983
  776CHOL    R1 6994  11.670   8.195   5.263
  776CHOL    R2 6995  11.441   8.175   5.416
  776CHOL    R3 6996  11.590   8.000   5.560
  776CHOL    R4 6997  11.389   8.098   5.749
  776CHOL    R5 6998  11.605   8.098   5.777
  776CHOL    C1 6999  11.500   7.888   6.078
  776CHOL    C2 7000  11.599   7.669   6.489
  777CHOL   ROH 7001   4.646  11.861   7.401
  777CHOL    R1 7002   4.755  11.970   7.164
  777CHOL    R2 7003   4.828  11.815   6.948
  777CHOL    R3 7004   4.664  11.983   6.812
  777CHOL    R4 7005   4.884  11.929   6.627
  777CHOL    R5 7006   4.812  12.125   6.689
  777CHOL    C1 7007   4.763  12.153   6.312
  777CHOL    C2 7008   5.063  12.124   5.989
  778PNCE   AM1 7009   2.002   5.858   8.569
  778PNCE   AM2 7010   2.183   6.154   8.526
  778PNCE   T1A 7011   2.083   5.426   8.454
  778PNCE   C2A 7012   2.239   5.071   8.210
  778PNCE   C3A 7013   1.908   4.979   7.941
  778PNCE   C1B 7014   2.278   6.316   8.097
  778PNCE   C2B 7015   2.305   6.171   7.685
  778PNCE   C3B 7016   2.287   5.996   7.300
  778PNCE   D4B 7017   2.440   6.056   6.896
  778PNCE   C5B 7018   2.275   5.669   6.762
  778PNCE   C6B 7019   2.372   5.286   6.564
  779XCA    COO 7020   1.369   7.248   8.175
  779XCA     C1 7021   1.360   7.364   7.711
  779XCA     C2 7022   1.398   7.406   7.261
  779XCA     C3 7023   1.116   7.421   6.914
  779XCA     C4 7024   0.693   7.295   6.782
  779XCA     C5 7025   0.466   7.521   6.466
  779XCA     C6 7026   0.605   7.918   6.333
  780PNCE   AM1 7027   5.765   1.865   5.362
  780PNCE   AM2 7028   5.482   1.666   5.499
  780PNCE   T1A 7029   5.636   2.092   5.756
  780PNCE   C2A 7030   5.643   2.454   6.041
  780PNCE   C3A 7031   5.525   2.578   6.470
  780PNCE   C1B 7032   5.408   1.628   5.956
  780PNCE   C2B 7033   5.450   1.594   6.388
  780PNCE   C3B 7034   5.333   1.520   6.768
  780PNCE   D4B 7035   5.443   1.711   7.158
  780PNCE   C5B 7036   5.099   1.983   7.191
  780PNCE   C6B 7037   4.755   2.217   7.232
  781PNCE   AM1 7038   0.533   9.625   4.591
  781PNCE   AM2 7039   0.194   9.611   4.655
  781PNCE   T1A 7040   0.905   9.556   4.871
  781PNCE   C2A 7041   1.209   9.381   5.156
  781PNCE   C3A 7042   1.505   9.212   5.467
  781PNCE   C1B 7043   0.405   9.650   5.081
  781PNCE   C2B 7044   0.698   9.470   5.351
  781PNCE   C3B 7045   1.002   9.551   5.638
  781PNCE   D4B 7046   1.331   9.432   5.888
  781PNCE   C5B 7047   1.658   9.195   6.126
  781PNCE   C6B 7048   2.130   9.239   6.194
  782PNCE   AM1 7049   5.681   0.140   4.839
  782PNCE   AM2 7050   5.565   0.181   5.182
  782PNCE   T1A 7051   5.473  15.561   4.969
  782PNCE   C2A 7052   5.158  15.212   4.929
  782PNCE   C3A 7053   4.811  15.079   4.655
  782PNCE   C1B 7054   5.288  15.720   5.441
  782PNCE   C2B 7055   5.255  15.392   5.744
  782PNCE   C3B 7056   5.568  15.231   5.935
  782PNCE   D4B 7057   5.690  15.037   6.310
  782PNCE   C5B 7058   5.470  14.936   6.710
  782PNCE   C6B 7059   5.226  14.950   7.118
  783PNCE   AM1 7060   5.271   3.080   9.033
  783PNCE   AM2 7061   5.111   3.207   8.769
  783PNCE   T1A 7062   5.389   2.747   8.730
  783PNCE   C2A 7063   5.397   2.633   8.291
  783PNCE   C3A 7064   5.388   2.388   7.918
  783PNCE   C1B 7065   5.102   3.062   8.348
  783PNCE   C2B 7066   5.310   3.060   7.935
  783PNCE   C3B 7067   5.517   2.879   7.596
  783PNCE   D4B 7068   5.677   2.797   7.164
  783PNCE   C5B 7069   5.832   2.960   6.751
  783PNCE   C6B 7070   6.005   2.703   6.390
  784CHOL   ROH 7071  10.423   8.102   4.636
  784CHOL    R1 7072  10.427   8.268   4.865
  784CHOL    R2 7073  10.213   8.290   5.037
  784CHOL    R3 7074  10.398   8.224   5.225
  784CHOL    R4 7075  10.191   8.370   5.373
  784CHOL    R5 7076  10.405   8.413   5.371
  784CHOL    C1 7077  10.353   8.354   5.744
  784CHOL    C2 7078  10.623   8.405   6.040
  785PNCE   AM1 7079  11.178   2.261   4.798
  785PNCE   AM2 7080  11.038   2.421   4.545
  785PNCE   T1A 7081  11.211   2.379   5.204
  785PNCE   C2A 7082  11.279   2.363   5.609
  785PNCE   C3A 7083  11.627   2.069   5.725
  785PNCE   C1B 7084  11.003   2.743   4.905
  785PNCE   C2B 7085  10.999   2.843   5.363
  785PNCE   C3B 7086  11.142   2.862   5.794
  785PNCE   D4B 7087  10.960   3.011   6.165
  785PNCE   C5B 7088  11.031   2.953   6.600
  785PNCE   C6B 7089  11.278   3.034   6.966
  786XCA    COO 7090  11.380  11.202   9.266
  786XCA     C1 7091  10.926  11.165   9.100
  786XCA     C2 7092  10.610  11.005   8.763
  786XCA     C3 7093  10.532  10.847   8.321
  786XCA     C4 7094  10.786  10.868   7.934
  786XCA     C5 7095  11.052  10.727   7.621
  786XCA     C6 7096  10.951  10.655   7.230
  787CHOL   ROH 7097   7.394   6.075   4.593
  787CHOL    R1 7098   7.283   6.152   4.841
  787CHOL    R2 7099   7.361   6.381   4.975
  787CHOL    R3 7100   7.095   6.436   4.970
  787CHOL    R4 7101   7.200   6.598   5.190
  787CHOL    R5 7102   7.034   6.457   5.201
  787CHOL    C1 7103   6.857   6.776   5.312
  787CHOL    C2 7104   6.529   6.910   5.543
  788CHOL   ROH 7105   1.264  14.222   5.683
  788CHOL    R1 7106   1.385  14.109   5.913
  788CHOL    R2 7107   1.275  14.132   6.165
  788CHOL    R3 7108   1.296  13.861   6.164
  788CHOL    R4 7109   1.178  13.925   6.424
  788CHOL    R5 7110   1.356  13.805   6.389
  788CHOL    C1 7111   1.142  13.549   6.574
  788CHOL    C2 7112   0.860  13.444   6.812
  789XCA    COO 7113   3.878   6.588   4.567
  789XCA     C1 7114   4.200   6.754   4.864
  789XCA     C2 7115   4.153   6.890   5.318
  789XCA     C3 7116   4.537   6.981   5.526
  789XCA     C4 7117   4.869   6.932   5.824
  789XCA     C5 7118   5.018   6.669   6.181
  789XCA     C6 7119   4.888   6.224   6.272
  790XCA    COO 7120  10.459   9.838   8.474
  790XCA     C1 7121  10.468  10.023   8.029
  790XCA     C2 7122  10.421  10.042   7.558
  790XCA     C3 7123  10.622   9.973   7.147
  790XCA     C4 7124  10.708  10.009   6.704
  790XCA     C5 7125  10.466   9.791   6.415
  790XCA     C6 7126  10.148   9.888   6.158
  791CHOL   ROH 7127   0.247   3.782   4.780
  791CHOL    R1 7128   0.185   3.793   5.056
  791CHOL    R2 7129   0.140   3.566   5.207
  791CHOL    R3 7130   0.334   3.672   5.366
  791CHOL    R4 7131   0.236   3.439   5.514
  791CHOL    R5 7132   0.251   3.643   5.588
  791CHOL    C1 7133   0.473   3.465   5.842
  791CHOL    C2 7134   0.441   3.477   6.276
  792PNCE   AM1 7135  14.431  13.711   4.819
  792PNCE   AM2 7136  14.438  13.391   4.827
  792PNCE   T1A 7137  14.739  13.690   5.168
  792PNCE   C2A 7138  14.687  13.773   5.616
  792PNCE   C3A 7139  14.577  13.658   6.051
  792PNCE   C1B 7140  14.296  13.414   5.280
  792PNCE   C2B 7141  14.489  13.286   5.693
  792PNCE   C3B 7142  14.709  13.103   6.065
  792PNCE   D4B 7143  14.625  12.754   6.312
  792PNCE   C5B 7144  14.386  12.407   6.124
  792PNCE   C6B 7145  14.076  12.080   6.144
  793XCA    COO 7146  13.344   2.811   4.525
  793XCA     C1 7147  13.321   2.550   4.909
  793XCA     C2 7148  12.919   2.403   5.127
  793XCA     C3 7149  12.632   2.329   5.444
  793XCA     C4 7150  12.598   2.070   5.776
  793XCA     C5 7151  12.891   2.124   6.100
  793XCA     C6 7152  12.844   2.342   6.496
  794CHOL   ROH 7153  12.723   0.543   4.534
  794CHOL    R1 7154  12.901   0.570   4.752
  794CHOL    R2 7155  12.845   0.729   4.970
  794CHOL    R3 7156  12.895   0.501   5.109
  794CHOL    R4 7157  12.947   0.717   5.300
  794CHOL    R5 7158  13.083   0.555   5.247
  794CHOL    C1 7159  13.053   0.495   5.623
  794CHOL    C2 7160  13.099   0.466   6.028
  795PNCE   AM1 7161  14.189   0.438   4.462
  795PNCE   AM2 7162  13.844   0.302   4.450
  795PNCE   T1A 7163  14.152   0.252   4.913
  795PNCE   C2A 7164  14.208   0.285   5.366
  795PNCE   C3A 7165  14.037   0.094   5.741
  795PNCE   C1B 7166  13.688   0.038   4.810
  795PNCE   C2B 7167  13.819  15.784   5.251
  795PNCE   C3B 7168  13.959  15.430   5.522
  795PNCE   D4B 7169  13.925  15.247   5.964
  795PNCE   C5B 7170  13.506  15.025   6.131
  795PNCE   C6B 7171  13.293  14.786   6.506
  796XCA    COO 7172   4.885   2.329   5.404
  796XCA     C1 7173   4.855   2.511   5.842
  796XCA     C2 7174   4.799   2.738   6.227
  796XCA     C3 7175   4.609   3.010   6.504
  796XCA     C4 7176   4.720   3.367   6.725
  796XCA     C5 7177   4.832   3.782   6.569
  796XCA     C6 7178   5.063   3.901   6.216
  797XCA    COO 7179   5.774   5.566   7.097
  797XCA     C1 7180   5.892   5.627   6.691
  797XCA     C2 7181   6.154   5.869   6.431
  797XCA     C3 7182   6.097   6.286   6.250
  797XCA     C4 7183   6.183   6.615   5.950
  797XCA     C5 7184   6.363   7.034   6.014
  797XCA     C6 7185   6.696   7.300   5.900
  798PNCE   AM1 7186   4.828  11.454   4.178
  798PNCE   AM2 7187   4.931  11.487   4.508
  798PNCE   T1A 7188   4.554  11.164   4.342
  798PNCE   C2A 7189   4.278  10.802   4.276
  798PNCE   C3A 7190   4.156  10.372   4.361
  798PNCE   C1B 7191   4.707  11.306   4.860
  798PNCE   C2B 7192   4.561  10.963   5.119
  798PNCE   C3B 7193   4.282  10.741   5.333
  798PNCE   D4B 7194   4.060  10.686   5.679
  798PNCE   C5B 7195   4.215  10.300   5.903
  798PNCE   C6B 7196   4.005  10.168   6.309
  799CHOL   ROH 7197   0.598   1.091   6.813
  799CHOL    R1 7198   0.723   1.086   7.067
  799CHOL    R2 7199   0.921   0.905   7.131
  799CHOL    R3 7200   1.060   1.130   7.196
  799CHOL    R4 7201   1.203   0.912   7.332
  799CHOL    R5 7202   1.127   1.095   7.424
  799CHOL    C1 7203   1.497   1.127   7.510
  799CHOL    C2 7204   1.863   1.329   7.411
  800PNCE   AM1 7205   9.000   7.038   4.534
  800PNCE   AM2 7206   8.847   7.331   4.649
  800PNCE   T1A 7207   9.175   7.016   4.953
  800PNCE   C2A 7208   9.550   7.050   5.182
  800PNCE   C3A 7209   9.586   7.080   5.610
  800PNCE   C1B 7210   8.745   7.300   5.104
  800PNCE   C2B 7211   8.393   7.345   5.416
  800PNCE   C3B 7212   8.090   7.400   5.782
  800PNCE   D4B 7213   7.823   7.653   6.097
  800PNCE   C5B 7214   7.378   7.580   6.264
  800PNCE   C6B 7215   7.056   7.500   6.624
  801CHOL   ROH 7216   1.920   9.214   8.603
  801CHOL    R1 7217   1.887   8.981   8.447
  801CHOL    R2 7218   1.663   8.936   8.292
  801CHOL    R3 7219   1.846   8.902   8.094
  801CHOL    R4 7220   1.593   8.814   7.976
  801CHOL    R5 7221   1.779   8.700   7.984
  801CHOL    C1 7222   1.724   8.711   7.606
  801CHOL    C2 7223   1.617   8.699   7.241
  802CHOL   ROH 7224   2.038   0.412   9.248
  802CHOL    R1 7225   1.902   0.367   9.004
  802CHOL    R2 7226   1.991   0.469   8.763
  802CHOL    R3 7227   1.976   0.209   8.684
  802CHOL    R4 7228   1.933   0.363   8.439
  802CHOL    R5 7229   1.804   0.207   8.518
  802CHOL    C1 7230   1.885   0.057   8.177
  802CHOL    C2 7231   1.583  15.700   7.927
  803PNCE   AM1 7232  10.157   0.352   5.083
  803PNCE   AM2 7233   9.922   0.650   5.034
  803PNCE   T1A 7234  10.078   0.513   5.518
  803PNCE   C2A 7235  10.151   0.711   5.914
  803PNCE   C3A 7236  10.255   0.890   6.304
  803PNCE   C1B 7237   9.664   0.826   5.382
  803PNCE   C2B 7238   9.739   1.067   5.772
  803PNCE   C3B 7239   9.848   1.345   6.133
  803PNCE   D4B 7240  10.062   1.368   6.504
  803PNCE   C5B 7241  10.491   1.263   6.557
  803PNCE   C6B 7242  10.901   1.316   6.706
  804PNCE   AM1 7243   1.490   6.648   4.474
  804PNCE   AM2 7244   1.105   6.689   4.498
  804PNCE   T1A 7245   1.753   6.382   4.756
  804PNCE   C2A 7246   1.996   6.244   5.112
  804PNCE   C3A 7247   2.177   6.214   5.521
  804PNCE   C1B 7248   1.216   6.539   4.911
  804PNCE   C2B 7249   1.483   6.417   5.225
  804PNCE   C3B 7250   1.457   6.185   5.548
  804PNCE   D4B 7251   1.168   5.880   5.503
  804PNCE   C5B 7252   0.978   6.116   5.174
  804PNCE   C6B 7253   0.825   6.056   4.736
  805XCA    COO 7254   3.394  11.180   4.509
  805XCA     C1 7255   3.620  11.373   4.886
  805XCA     C2 7256   3.733  11.676   5.222
  805XCA     C3 7257   3.708  11.880   5.666
  805XCA     C4 7258   3.731  12.270   5.952
  805XCA     C5 7259   3.969  12.712   5.974
  805XCA     C6 7260   4.243  12.919   6.266
  806PNCE   AM1 7261  15.073   8.024   4.087
  806PNCE   AM2 7262  15.378   7.834   4.190
  806PNCE   T1A 7263  14.880   8.332   4.397
  806PNCE   C2A 7264  14.868   8.738   4.631
  806PNCE   C3A 7265  14.745   9.193   4.697
  806PNCE   C1B 7266  15.004   7.651   4.411
  806PNCE   C2B 7267  14.683   7.894   4.609
  806PNCE   C3B 7268  14.582   8.254   4.852
  806PNCE   D4B 7269  14.734   8.594   5.100
  806PNCE   C5B 7270  14.522   9.021   5.124
  806PNCE   C6B 7271  14.500   9.499   5.093
  807PNCE   AM1 7272  10.912   8.251   4.352
  807PNCE   AM2 7273  11.136   8.533   4.255
  807PNCE   T1A 7274  10.860   8.032   4.766
  807PNCE   C2A 7275  10.696   7.802   5.169
  807PNCE   C3A 7276  10.622   7.575   5.601
  807PNCE   C1B 7277  11.004   8.928   4.465
  807PNCE   C2B 7278  10.957   9.185   4.834
  807PNCE   C3B 7279  10.862   9.289   5.282
  807PNCE   D4B 7280  10.771   9.434   5.703
  807PNCE   C5B 7281  10.887   9.351   6.123
  807PNCE   C6B 7282  10.955   9.639   6.441
  808PNCE   AM1 7283  11.172   0.909   9.585
  808PNCE   AM2 7284  11.479   0.767   9.436
  808PNCE   T1A 7285  10.904   0.601   9.359
  808PNCE   C2A 7286  11.050   0.238   9.145
  808PNCE   C3A 7287  11.501   0.173   8.999
  808PNCE   C1B 7288  11.270   0.697   9.011
  808PNCE   C2B 7289  11.170   0.591   8.564
  808PNCE   C3B 7290  10.916   0.771   8.231
  808PNCE   D4B 7291  10.993   0.879   7.776
  808PNCE   C5B 7292  10.759   0.656   7.411
  808PNCE   C6B 7293  10.362   0.549   7.166
  809CHOL   ROH 7294   6.084   5.862   4.800
  809CHOL    R1 7295   5.957   5.956   5.035
  809CHOL    R2 7296   5.713   5.860   5.121
  809CHOL    R3 7297   5.848   5.813   5.352
  809CHOL    R4 7298   5.570   5.750   5.416
  809CHOL    R5 7299   5.700   5.887   5.524
  809CHOL    C1 7300   5.614   5.643   5.804
  809CHOL    C2 7301   5.835   5.557   6.157
  810PNCE   AM1 7302  10.175  12.089   5.100
  810PNCE   AM2 7303  10.518  12.186   5.205
  810PNCE   T1A 7304  10.316  11.712   4.939
  810PNCE   C2A 7305  10.265  11.305   5.024
  810PNCE   C3A 7306  10.086  11.042   5.301
  810PNCE   C1B 7307  10.477  11.978   5.647
  810PNCE   C2B 7308  10.512  11.733   6.054
  810PNCE   C3B 7309  10.331  11.687   6.468
  810PNCE   D4B 7310  10.231  11.413   6.816
  810PNCE   C5B 7311  10.302  11.480   7.281
  810PNCE   C6B 7312  10.023  11.540   7.626
  811PNCE   AM1 7313   8.767   4.530   4.503
  811PNCE   AM2 7314   8.682   4.775   4.744
  811PNCE   T1A 7315   8.886   4.263   4.893
  811PNCE   C2A 7316   9.123   4.085   5.260
  811PNCE   C3A 7317   9.501   4.214   5.447
  811PNCE   C1B 7318   8.955   4.986   5.058
  811PNCE   C2B 7319   9.258   4.767   5.308
  811PNCE   C3B 7320   9.523   4.718   5.641
  811PNCE   D4B 7321   9.817   4.712   5.940
  811PNCE   C5B 7322   9.760   4.879   6.346
  811PNCE   C6B 7323   9.666   4.822   6.788
  812CHOL   ROH 7324  12.916  12.475   8.760
  812CHOL    R1 7325  12.876  12.558   8.492
  812CHOL    R2 7326  12.771  12.806   8.428
  812CHOL    R3 7327  12.996  12.826   8.277
  812CHOL    R4 7328  12.789  12.959   8.119
  812CHOL    R5 7329  12.921  12.798   8.052
  812CHOL    C1 7330  13.012  13.067   7.797
  812CHOL    C2 7331  13.194  13.057   7.415
  813PNCE   AM1 7332   7.632  10.719   4.892
  813PNCE   AM2 7333   7.549  11.069   4.976
  813PNCE   T1A 7334   7.821  10.408   5.200
  813PNCE   C2A 7335   7.724  10.028   5.495
  813PNCE   C3A 7336   7.749   9.775   5.906
  813PNCE   C1B 7337   7.732  11.266   5.371
  813PNCE   C2B 7338   7.835  11.302   5.810
  813PNCE   C3B 7339   7.903  11.595   6.042
  813PNCE   D4B 7340   7.961  12.030   6.016
  813PNCE   C5B 7341   7.613  12.208   6.255
  813PNCE   C6B 7342   7.161  12.257   6.377
  814CHOL   ROH 7343   4.432   3.928   8.411
  814CHOL    R1 7344   4.569   3.796   8.202
  814CHOL    R2 7345   4.472   3.567   8.082
  814CHOL    R3 7346   4.503   3.712   7.854
  814CHOL    R4 7347   4.522   3.432   7.767
  814CHOL    R5 7348   4.666   3.590   7.728
  814CHOL    C1 7349   4.579   3.490   7.370
  814CHOL    C2 7350   4.755   3.211   7.225
  815XCA    COO 7351   7.429  14.678   5.032
  815XCA     C1 7352   7.462  14.395   5.375
  815XCA     C2 7353   7.687  14.256   5.716
  815XCA     C3 7354   7.777  14.547   6.071
  815XCA     C4 7355   7.919  14.974   6.181
  815XCA     C5 7356   8.034  15.187   6.539
  815XCA     C6 7357   7.971  15.422   6.920
  816PNCE   AM1 7358  11.376  12.425   5.279
  816PNCE   AM2 7359  11.241  12.498   5.606
  816PNCE   T1A 7360  11.009  12.105   5.349
  816PNCE   C2A 7361  10.860  11.641   5.378
  816PNCE   C3A 7362  11.169  11.289   5.536
  816PNCE   C1B 7363  11.297  12.127   5.794
  816PNCE   C2B 7364  11.007  11.979   6.105
  816PNCE   C3B 7365  10.834  11.871   6.452
  816PNCE   D4B 7366  10.734  11.589   6.741
  816PNCE   C5B 7367  10.786  11.630   7.198
  816PNCE   C6B 7368  10.710  11.431   7.588
  817PNCE   AM1 7369   9.174   9.480   4.413
  817PNCE   AM2 7370   9.296   9.786   4.563
  817PNCE   T1A 7371   9.068   9.376   4.847
  817PNCE   C2A 7372   9.045   9.456   5.303
  817PNCE   C3A 7373   9.129   9.672   5.709
  817PNCE   C1B 7374   9.449   9.896   4.963
  817PNCE   C2B 7375   9.499   9.721   5.347
  817PNCE   C3B 7376   9.629   9.763   5.772
  817PNCE   D4B 7377   9.613   9.929   6.197
  817PNCE   C5B 7378   9.375   9.748   6.548
  817PNCE   C6B 7379   9.194   9.814   6.972
  818CHOL   ROH 7380   4.899  15.429   5.284
  818CHOL    R1 7381   4.837  15.365   5.552
  818CHOL    R2 7382   4.626  15.200   5.621
  818CHOL    R3 7383   4.819  15.063   5.755
  818CHOL    R4 7384   4.568  14.978   5.879
  818CHOL    R5 7385   4.742  15.058   5.981
  818CHOL    C1 7386   4.715  14.719   6.155
  818CHOL    C2 7387   4.669  14.567   6.568
  819CHOL   ROH 7388   9.799   3.426   5.018
  819CHOL    R1 7389   9.864   3.539   5.269
  819CHOL    R2 7390  10.027   3.760   5.294
  819CHOL    R3 7391   9.817   3.860   5.434
  819CHOL    R4 7392  10.043   4.029   5.511
  819CHOL    R5 7393   9.909   3.923   5.645
  819CHOL    C1 7394   9.854   4.280   5.768
  819CHOL    C2 7395  10.202   4.365   5.861
  820CHOL   ROH 7396  11.152   8.073   7.901
  820CHOL    R1 7397  11.304   8.105   7.664
  820CHOL    R2 7398  11.195   8.197   7.428
  820CHOL    R3 7399  11.396   8.379   7.443
  820CHOL    R4 7400  11.361   8.332   7.156
  820CHOL    R5 7401  11.547   8.317   7.268
  820CHOL    C1 7402  11.645   8.582   7.013
  820CHOL    C2 7403  11.795   8.871   6.839
  821CHOL   ROH 7404  13.078   3.548   8.389
  821CHOL    R1 7405  12.870   3.610   8.207
  821CHOL    R2 7406  12.861   3.848   8.067
  821CHOL    R3 7407  12.842   3.683   7.852
  821CHOL    R4 7408  12.720   3.935   7.764
  821CHOL    R5 7409  12.630   3.737   7.755
  821CHOL    C1 7410  12.620   3.831   7.385
  821CHOL    C2 7411  12.388   4.059   7.110
  822CHOL   ROH 7412   9.390   2.274   8.953
  822CHOL    R1 7413   9.301   2.198   8.695
  822CHOL    R2 7414   9.471   2.099   8.502
  822CHOL    R3 7415   9.294   1.893   8.497
  822CHOL    R4 7416   9.459   1.855   8.258
  822CHOL    R5 7417   9.242   1.865   8.265
  822CHOL    C1 7418   9.286   1.519   8.111
  822CHOL    C2 7419   9.512   1.374   7.815
  823PNCE   AM1 7420   3.265   3.093   5.117
  823PNCE   AM2 7421   3.047   3.189   4.852
  823PNCE   T1A 7422   3.116   3.176   5.556
  823PNCE   C2A 7423   2.990   3.118   6.002
  823PNCE   C3A 7424   2.928   2.999   6.440
  823PNCE   C1B 7425   3.127   3.599   5.010
  823PNCE   C2B 7426   3.088   3.953   5.268
  823PNCE   C3B 7427   3.435   4.130   5.511
  823PNCE   D4B 7428   3.490   4.291   5.926
  823PNCE   C5B 7429   3.848   4.569   6.073
  823PNCE   C6B 7430   4.109   4.958   6.092
  824PNCE   AM1 7431   9.704   1.251   4.470
  824PNCE   AM2 7432   9.777   1.584   4.580
  824PNCE   T1A 7433   9.592   1.218   4.931
  824PNCE   C2A 7434   9.510   1.363   5.365
  824PNCE   C3A 7435   9.632   1.572   5.735
  824PNCE   C1B 7436   9.794   1.696   5.038
  824PNCE   C2B 7437  10.133   1.618   5.335
  824PNCE   C3B 7438  10.194   1.570   5.754
  824PNCE   D4B 7439  10.381   1.303   6.044
  824PNCE   C5B 7440  10.832   1.204   6.154
  824PNCE   C6B 7441  11.240   1.031   6.300
  825XCA    COO 7442   2.451  13.411   8.530
  825XCA     C1 7443   2.053  13.428   8.258
  825XCA     C2 7444   1.828  13.269   7.896
  825XCA     C3 7445   1.499  13.296   7.580
  825XCA     C4 7446   1.140  13.584   7.602
  825XCA     C5 7447   0.739  13.482   7.777
  825XCA     C6 7448   0.492  13.196   7.629
  826XCA    COO 7449   1.208   3.312   4.690
  826XCA     C1 7450   1.111   3.372   5.151
  826XCA     C2 7451   0.801   3.624   5.360
  826XCA     C3 7452   0.663   3.871   5.649
  826XCA     C4 7453   0.433   3.937   6.016
  826XCA     C5 7454   0.188   4.328   6.113
  826XCA     C6 7455  15.757   4.734   6.117
  827XCA    COO 7456   9.266  11.573   8.708
  827XCA     C1 7457   9.046  11.492   8.314
  827XCA     C2 7458   9.059  11.505   7.871
  827XCA     C3 7459   8.875  11.742   7.512
  827XCA     C4 7460   8.932  12.195   7.423
  827XCA     C5 7461   9.068  12.505   7.806
  827XCA     C6 7462   8.984  12.781   8.163
  828PNCE   AM1 7463   9.675  12.774   5.277
  828PNCE   AM2 7464   9.433  12.993   5.459
  828PNCE   T1A 7465   9.787  12.663   5.723
  828PNCE   C2A 7466   9.858  12.379   6.080
  828PNCE   C3A 7467   9.964  12.422   6.531
  828PNCE   C1B 7468   9.423  13.038   5.932
  828PNCE   C2B 7469   9.538  13.234   6.341
  828PNCE   C3B 7470   9.417  13.221   6.763
  828PNCE   D4B 7471   9.384  13.128   7.217
  828PNCE   C5B 7472   9.200  12.735   7.319
  828PNCE   C6B 7473   9.401  12.359   7.459
  829PNCE   AM1 7474   3.986   9.508   3.209
  829PNCE   AM2 7475   3.998   9.829   3.385
  829PNCE   T1A 7476   3.999   9.147   3.534
  829PNCE   C2A 7477   3.697   8.981   3.875
  829PNCE   C3A 7478   3.335   8.750   4.058
  829PNCE   C1B 7479   4.106   9.624   3.765
  829PNCE   C2B 7480   3.870   9.437   4.090
  829PNCE   C3B 7481   3.748   9.435   4.537
  829PNCE   D4B 7482   3.683   9.223   4.929
  829PNCE   C5B 7483   3.720   9.322   5.371
  829PNCE   C6B 7484   4.095   9.362   5.634
  830PNCE   AM1 7485   4.484   4.620   4.499
  830PNCE   AM2 7486   4.612   4.289   4.474
  830PNCE   T1A 7487   4.613   4.529   4.938
  830PNCE   C2A 7488   4.931   4.453   5.244
  830PNCE   C3A 7489   4.886   4.446   5.691
  830PNCE   C1B 7490   4.992   4.292   4.710
  830PNCE   C2B 7491   5.221   4.042   4.973
  830PNCE   C3B 7492   5.443   4.189   5.317
  830PNCE   D4B 7493   5.370   4.489   5.596
  830PNCE   C5B 7494   5.134   4.858   5.494
  830PNCE   C6B 7495   5.034   5.186   5.184
  831PNCE   AM1 7496   2.188  11.990   4.473
  831PNCE   AM2 7497   2.020  12.307   4.380
  831PNCE   T1A 7498   2.478  12.292   4.673
  831PNCE   C2A 7499   2.617  12.658   4.882
  831PNCE   C3A 7500   2.813  12.861   5.233
  831PNCE   C1B 7501   1.831  12.164   4.808
  831PNCE   C2B 7502   1.556  11.806   4.943
  831PNCE   C3B 7503   1.609  11.596   5.360
  831PNCE   D4B 7504   1.672  11.562   5.847
  831PNCE   C5B 7505   1.350  11.478   6.231
  831PNCE   C6B 7506   1.246  11.596   6.702
  832XCA    COO 7507   2.447   9.994   4.002
  832XCA     C1 7508   2.504   9.757   4.417
  832XCA     C2 7509   2.812   9.716   4.762
  832XCA     C3 7510   2.928   9.472   5.129
  832XCA     C4 7511   3.183   9.276   5.475
  832XCA     C5 7512   3.136   9.010   5.842
  832XCA     C6 7513   3.012   8.725   6.164
  833PNCE   AM1 7514   4.995  13.381   4.151
  833PNCE   AM2 7515   4.664  13.228   4.202
  833PNCE   T1A 7516   5.330  13.171   4.364
  833PNCE   C2A 7517   5.713  12.967   4.465
  833PNCE   C3A 7518   5.847  12.653   4.750
  833PNCE   C1B 7519   4.860  13.089   4.618
  833PNCE   C2B 7520   5.080  13.230   5.012
  833PNCE   C3B 7521   5.225  13.224   5.440
  833PNCE   D4B 7522   5.356  12.961   5.769
  833PNCE   C5B 7523   5.139  12.986   6.165
  833PNCE   C6B 7524   4.722  13.098   6.308
  834PNCE   AM1 7525  13.189  10.022   4.331
  834PNCE   AM2 7526  13.526  10.065   4.397
  834PNCE   T1A 7527  12.796   9.846   4.236
  834PNCE   C2A 7528  12.379   9.710   4.348
  834PNCE   C3A 7529  12.163   9.490   4.682
  834PNCE   C1B 7530  13.459   9.865   4.757
  834PNCE   C2B 7531  13.526   9.878   5.150
  834PNCE   C3B 7532  13.288   9.750   5.469
  834PNCE   D4B 7533  13.303   9.468   5.785
  834PNCE   C5B 7534  13.367   9.609   6.208
  834PNCE   C6B 7535  13.644   9.863   6.510
  835CHOL   ROH 7536  12.980  12.122   8.290
  835CHOL    R1 7537  12.965  12.152   8.009
  835CHOL    R2 7538  13.184  12.221   7.855
  835CHOL    R3 7539  13.119  11.995   7.718
  835CHOL    R4 7540  13.254  12.165   7.521
  835CHOL    R5 7541  13.057  12.073   7.500
  835CHOL    C1 7542  13.233  11.921   7.198
  835CHOL    C2 7543  13.315  12.102   6.817
  836CHOL   ROH 7544   8.250   1.895   8.658
  836CHOL    R1 7545   8.130   1.796   8.422
  836CHOL    R2 7546   7.951   1.943   8.273
  836CHOL    R3 7547   8.123   1.889   8.070
  836CHOL    R4 7548   7.858   1.887   7.944
  836CHOL    R5 7549   8.007   1.728   7.935
  836CHOL    C1 7550   7.966   1.803   7.563
  836CHOL    C2 7551   7.892   1.730   7.128
  837PNCE   AM1 7552  10.239   2.186   4.739
  837PNCE   AM2 7553  10.147   2.479   4.940
  837PNCE   T1A 7554  10.330   2.037   5.147
  837PNCE   C2A 7555  10.435   1.989   5.558
  837PNCE   C3A 7556  10.562   1.968   5.988
  837PNCE   C1B 7557  10.205   2.472   5.415
  837PNCE   C2B 7558  10.346   2.418   5.853
  837PNCE   C3B 7559  10.288   2.337   6.297
  837PNCE   D4B 7560  10.428   2.206   6.763
  837PNCE   C5B 7561  10.852   2.006   6.837
  837PNCE   C6B 7562  11.188   1.731   6.738
  838PNCE   AM1 7563   9.882  11.768   4.651
  838PNCE   AM2 7564   9.705  11.589   4.417
  838PNCE   T1A 7565   9.809  11.664   5.085
  838PNCE   C2A 7566  10.067  11.584   5.437
  838PNCE   C3A 7567  10.158  11.395   5.818
  838PNCE   C1B 7568   9.854  11.249   4.730
  838PNCE   C2B 7569   9.841  10.835   4.887
  838PNCE   C3B 7570   9.721  10.678   5.277
  838PNCE   D4B 7571   9.637  10.618   5.700
  838PNCE   C5B 7572   9.540  10.472   6.125
  838PNCE   C6B 7573   9.329  10.292   6.481
  839PNCE   AM1 7574  13.512  14.406   4.934
  839PNCE   AM2 7575  13.757  14.680   4.986
  839PNCE   T1A 7576  13.457  14.450   5.390
  839PNCE   C2A 7577  13.459  14.576   5.803
  839PNCE   C3A 7578  13.547  14.493   6.196
  839PNCE   C1B 7579  13.756  14.864   5.422
  839PNCE   C2B 7580  13.529  15.176   5.635
  839PNCE   C3B 7581  13.543  15.615   5.766
  839PNCE   D4B 7582  13.212  15.787   5.995
  839PNCE   C5B 7583  12.959  15.795   6.409
  839PNCE   C6B 7584  12.591   0.024   6.701
  840XCA    COO 7585  13.024   8.662   4.036
  840XCA     C1 7586  12.794   8.675   4.461
  840XCA     C2 7587  12.593   8.515   4.845
  840XCA     C3 7588  12.528   8.479   5.312
  840XCA     C4 7589  12.612   8.586   5.750
  840XCA     C5 7590  12.375   8.682   6.154
  840XCA     C6 7591  12.286   8.772   6.620
  841CHOL   ROH 7592   2.748   4.736   7.388
  841CHOL    R1 7593   2.580   4.520   7.313
  841CHOL    R2 7594   2.316   4.504   7.391
  841CHOL    R3 7595   2.272   4.477   7.124
  841CHOL    R4 7596   2.036   4.358   7.249
  841CHOL    R5 7597   2.166   4.264   7.102
  841CHOL    C1 7598   1.833   4.248   6.916
  841CHOL    C2 7599   1.837   3.847   6.872
  842PNCE   AM1 7600   4.890  12.762   4.121
  842PNCE   AM2 7601   4.546  12.689   4.150
  842PNCE   T1A 7602   4.888  12.509   4.505
  842PNCE   C2A 7603   4.776  12.383   4.919
  842PNCE   C3A 7604   4.424  12.431   5.235
  842PNCE   C1B 7605   4.358  12.515   4.569
  842PNCE   C2B 7606   4.305  12.111   4.812
  842PNCE   C3B 7607   4.200  11.926   5.218
  842PNCE   D4B 7608   4.316  11.831   5.607
  842PNCE   C5B 7609   4.383  11.472   5.871
  842PNCE   C6B 7610   4.253  11.126   6.102
  843CHOL   ROH 7611  10.893   7.285   7.821
  843CHOL    R1 7612  11.025   7.265   7.572
  843CHOL    R2 7613  10.890   7.278   7.331
  843CHOL    R3 7614  11.069   7.476   7.278
  843CHOL    R4 7615  10.946   7.416   7.019
  843CHOL    R5 7616  11.159   7.419   7.064
  843CHOL    C1 7617  11.146   7.682   6.788
  843CHOL    C2 7618  11.146   7.887   6.454
  844XCA    COO 7619   3.302  14.916   8.192
  844XCA     C1 7620   3.163  14.936   7.740
  844XCA     C2 7621   3.070  14.949   7.307
  844XCA     C3 7622   2.838  14.763   6.991
  844XCA     C4 7623   2.483  14.735   6.757
  844XCA     C5 7624   2.214  15.093   6.728
  844XCA     C6 7625   1.875  15.310   6.586
  845PNCE   AM1 7626   8.378   4.004   5.019
  845PNCE   AM2 7627   8.525   4.232   5.227
  845PNCE   T1A 7628   7.945   4.203   5.069
  845PNCE   C2A 7629   7.493   4.308   5.154
  845PNCE   C3A 7630   7.100   4.067   5.073
  845PNCE   C1B 7631   8.192   4.031   5.496
  845PNCE   C2B 7632   7.884   4.225   5.753
  845PNCE   C3B 7633   7.632   3.916   5.928
  845PNCE   D4B 7634   7.661   3.673   6.257
  845PNCE   C5B 7635   7.376   3.358   6.187
  845PNCE   C6B 7636   7.128   3.144   5.862
  846CHOL   ROH 7637  11.426   6.647   7.574
  846CHOL    R1 7638  11.201   6.634   7.403
  846CHOL    R2 7639  10.948   6.711   7.484
  846CHOL    R3 7640  10.961   6.870   7.264
  846CHOL    R4 7641  10.684   6.893   7.356
  846CHOL    R5 7642  10.750   6.839   7.156
  846CHOL    C1 7643  10.542   7.148   7.074
  846CHOL    C2 7644  10.329   7.224   6.745
  847XCA    COO 7645  12.443   9.675   9.008
  847XCA     C1 7646  12.263   9.775   8.570
  847XCA     C2 7647  12.038   9.779   8.142
  847XCA     C3 7648  12.209   9.668   7.735
  847XCA     C4 7649  12.600   9.474   7.518
  847XCA     C5 7650  12.894   9.605   7.205
  847XCA     C6 7651  13.205   9.668   6.810
  848CHOL   ROH 7652   2.803   8.210   6.035
  848CHOL    R1 7653   2.769   8.260   6.312
  848CHOL    R2 7654   2.973   8.228   6.495
  848CHOL    R3 7655   2.913   8.485   6.559
  848CHOL    R4 7656   3.029   8.373   6.804
  848CHOL    R5 7657   2.837   8.474   6.786
  848CHOL    C1 7658   3.004   8.699   7.044
  848CHOL    C2 7659   3.082   8.399   7.303
  849CHOL   ROH 7660  12.325   7.378   7.855
  849CHOL    R1 7661  12.145   7.516   7.687
  849CHOL    R2 7662  12.189   7.549   7.416
  849CHOL    R3 7663  11.942   7.437   7.395
  849CHOL    R4 7664  12.001   7.540   7.126
  849CHOL    R5 7665  11.824   7.583   7.246
  849CHOL    C1 7666  11.659   7.430   6.938
  849CHOL    C2 7667  11.634   7.149   6.595
  850CHOL   ROH 7668   7.232   4.641   8.349
  850CHOL    R1 7669   7.357   4.531   8.120
  850CHOL    R2 7670   7.233   4.346   7.957
  850CHOL    R3 7671   7.295   4.525   7.761
  850CHOL    R4 7672   7.273   4.267   7.623
  850CHOL    R5 7673   7.442   4.404   7.616
  850CHOL    C1 7674   7.355   4.388   7.245
  850CHOL    C2 7675   7.266   4.225   6.847
  851PNCE   AM1 7676   0.036   4.164   4.394
  851PNCE   AM2 7677   0.359   4.260   4.572
  851PNCE   T1A 7678  15.690   4.092   4.827
  851PNCE   C2A 7679  15.726   4.092   5.283
  851PNCE   C3A 7680   0.080   4.084   5.671
  851PNCE   C1B 7681   0.201   4.429   4.986
  851PNCE   C2B 7682   0.240   4.526   5.431
  851PNCE   C3B 7683   0.645   4.572   5.652
  851PNCE   D4B 7684   0.956   4.728   5.964
  851PNCE   C5B 7685   1.359   4.578   5.945
  851PNCE   C6B 7686   1.602   4.403   5.659
  852XCA    COO 7687  14.744   3.636   8.637
  852XCA     C1 7688  14.664   3.304   8.305
  852XCA     C2 7689  14.454   3.293   7.923
  852XCA     C3 7690  14.445   3.374   7.514
  852XCA     C4 7691  14.289   3.238   7.161
  852XCA     C5 7692  14.223   3.013   6.787
  852XCA     C6 7693  14.227   2.841   6.373
  853PNCE   AM1 7694   2.111  14.668   4.906
  853PNCE   AM2 7695   1.927  15.009   4.958
  853PNCE   T1A 7696   2.338  14.256   5.082
  853PNCE   C2A 7697   2.567  13.936   5.322
  853PNCE   C3A 7698   2.685  13.723   5.669
  853PNCE   C1B 7699   1.934  15.068   5.455
  853PNCE   C2B 7700   1.896  14.915   5.899
  853PNCE   C3B 7701   2.090  14.668   6.211
  853PNCE   D4B 7702   2.521  14.588   6.248
  853PNCE   C5B 7703   2.933  14.696   6.032
  853PNCE   C6B 7704   3.266  14.969   6.185
  854CHOL   ROH 7705  10.850   4.999   8.066
  854CHOL    R1 7706  11.029   4.963   7.849
  854CHOL    R2 7707  10.992   4.768   7.657
  854CHOL    R3 7708  11.011   4.979   7.486
  854CHOL    R4 7709  11.048   4.743   7.317
  854CHOL    R5 7710  11.181   4.914   7.331
  854CHOL    C1 7711  11.099   4.926   6.959
  854CHOL    C2 7712  11.158   4.800   6.532
  855PNCE   AM1 7713   8.689  15.791   5.579
  855PNCE   AM2 7714   8.751   0.307   5.659
  855PNCE   T1A 7715   8.821  15.707   5.994
  855PNCE   C2A 7716   8.831   0.086   6.407
  855PNCE   C3A 7717   9.041   0.413   6.693
  855PNCE   C1B 7718   8.988   0.650   5.868
  855PNCE   C2B 7719   9.214   0.647   6.256
  855PNCE   C3B 7720   9.539   0.504   6.572
  855PNCE   D4B 7721   9.835   0.465   6.925
  855PNCE   C5B 7722   9.704   0.295   7.363
  855PNCE   C6B 7723   9.813  15.794   7.702
  856CHOL   ROH 7724  15.664   4.755   8.186
  856CHOL    R1 7725  15.759   4.599   7.970
  856CHOL    R2 7726   0.058   4.358   8.006
  856CHOL    R3 7727  15.696   4.267   7.836
  856CHOL    R4 7728   0.082   4.070   7.816
  856CHOL    R5 7729  15.818   4.177   7.651
  856CHOL    C1 7730  15.746   3.817   7.546
  856CHOL    C2 7731  15.820   3.441   7.571
  857CHOL   ROH 7732  15.216   5.931   4.711
  857CHOL    R1 7733  15.336   5.804   4.933
  857CHOL    R2 7734  15.533   5.924   5.085
  857CHOL    R3 7735  15.365   5.867   5.291
  857CHOL    R4 7736  15.630   5.874   5.413
  857CHOL    R5 7737  15.486   5.712   5.426
  857CHOL    C1 7738  15.529   5.791   5.797
  857CHOL    C2 7739  15.302   5.895   6.058
  858CHOL   ROH 7740   1.821   2.838   4.979
  858CHOL    R1 7741   1.689   2.748   5.212
  858CHOL    R2 7742   1.825   2.670   5.439
  858CHOL    R3 7743   1.664   2.853   5.560
  858CHOL    R4 7744   1.704   2.645   5.762
  858CHOL    R5 7745   1.513   2.722   5.691
  858CHOL    C1 7746   1.482   2.802   6.063
  858CHOL    C2 7747   1.098   2.734   6.271
  859CHOL   ROH 7748   0.739   1.466   5.882
  859CHOL    R1 7749   0.820   1.561   6.136
  859CHOL    R2 7750   0.730   1.452   6.372
  859CHOL    R3 7751   0.995   1.427   6.425
  859CHOL    R4 7752   0.868   1.445   6.689
  859CHOL    R5 7753   1.031   1.569   6.615
  859CHOL    C1 7754   1.198   1.417   6.923
  859CHOL    C2 7755   1.395   1.559   7.269
  860PNCE   AM1 7756   2.914   8.431   3.999
  860PNCE   AM2 7757   2.908   8.046   3.933
  860PNCE   T1A 7758   3.352   8.229   4.130
  860PNCE   C2A 7759   3.710   7.926   4.312
  860PNCE   C3A 7760   4.008   7.661   4.588
  860PNCE   C1B 7761   2.775   8.079   4.349
  860PNCE   C2B 7762   2.491   8.041   4.670
  860PNCE   C3B 7763   2.483   8.144   5.108
  860PNCE   D4B 7764   2.107   8.325   5.349
  860PNCE   C5B 7765   2.097   8.473   5.799
  860PNCE   C6B 7766   1.960   8.758   6.150
  861PNCE   AM1 7767   5.754   9.440   4.490
  861PNCE   AM2 7768   5.972   9.683   4.295
  861PNCE   T1A 7769   6.171   9.487   4.737
  861PNCE   C2A 7770   6.383   9.508   5.174
  861PNCE   C3A 7771   6.441   9.485   5.639
  861PNCE   C1B 7772   5.834   9.913   4.724
  861PNCE   C2B 7773   5.515  10.170   4.998
  861PNCE   C3B 7774   5.259  10.454   5.290
  861PNCE   D4B 7775   4.924  10.568   5.604
  861PNCE   C5B 7776   5.085  10.709   6.007
  861PNCE   C6B 7777   4.990  10.826   6.437
  862XCA    COO 7778  12.315  10.557   8.379
  862XCA     C1 7779  12.352  10.321   7.961
  862XCA     C2 7780  12.364  10.116   7.513
  862XCA     C3 7781  12.523   9.952   7.121
  862XCA     C4 7782  12.701   9.707   6.772
  862XCA     C5 7783  12.876   9.535   6.406
  862XCA     C6 7784  12.571   9.524   6.096
  863CHOL   ROH 7785   9.640  15.757   9.243
  863CHOL    R1 7786   9.625  15.732   8.961
  863CHOL    R2 7787   9.760  15.536   8.821
  863CHOL    R3 7788   9.513  15.480   8.724
  863CHOL    R4 7789   9.695  15.312   8.567
  863CHOL    R5 7790   9.547  15.452   8.488
  863CHOL    C1 7791   9.424  15.129   8.327
  863CHOL    C2 7792   9.618  14.758   8.207
  864PNCE   AM1 7793   5.389   5.412   8.131
  864PNCE   AM2 7794   5.287   5.355   8.454
  864PNCE   T1A 7795   5.353   5.371   7.678
  864PNCE   C2A 7796   5.265   5.373   7.239
  864PNCE   C3A 7797   4.997   5.326   6.865
  864PNCE   C1B 7798   5.122   4.901   8.307
  864PNCE   C2B 7799   4.833   4.659   7.993
  864PNCE   C3B 7800   4.489   4.803   7.698
  864PNCE   D4B 7801   4.305   4.685   7.303
  864PNCE   C5B 7802   4.549   4.631   6.908
  864PNCE   C6B 7803   4.989   4.746   6.839
  865PNCE   AM1 7804  10.002   2.974   4.994
  865PNCE   AM2 7805  10.161   3.214   4.781
  865PNCE   T1A 7806  10.411   2.874   5.213
  865PNCE   C2A 7807  10.573   2.862   5.670
  865PNCE   C3A 7808  10.463   2.847   6.115
  865PNCE   C1B 7809  10.322   3.627   4.942
  865PNCE   C2B 7810  10.494   3.749   5.345
  865PNCE   C3B 7811  10.837   3.887   5.566
  865PNCE   D4B 7812  11.256   3.884   5.668
  865PNCE   C5B 7813  11.521   4.240   5.712
  865PNCE   C6B 7814  11.723   4.588   5.954
  866PNCE   AM1 7815   3.659  12.235   3.923
  866PNCE   AM2 7816   3.466  12.029   4.123
  866PNCE   T1A 7817   3.507  12.636   4.157
  866PNCE   C2A 7818   3.405  12.992   4.468
  866PNCE   C3A 7819   3.158  13.389   4.669
  866PNCE   C1B 7820   3.350  12.293   4.502
  866PNCE   C2B 7821   3.372  12.370   4.933
  866PNCE   C3B 7822   3.373  12.631   5.260
  866PNCE   D4B 7823   3.661  12.731   5.566
  866PNCE   C5B 7824   3.442  12.681   5.941
  866PNCE   C6B 7825   3.632  12.653   6.342
  867CHOL   ROH 7826  12.128   6.388   7.276
  867CHOL    R1 7827  12.148   6.619   7.114
  867CHOL    R2 7828  12.287   6.622   6.876
  867CHOL    R3 7829  12.052   6.713   6.776
  867CHOL    R4 7830  12.252   6.791   6.577
  867CHOL    R5 7831  12.108   6.922   6.674
  867CHOL    C1 7832  12.011   6.976   6.309
  867CHOL    C2 7833  11.857   7.297   6.126
  868PNCE   AM1 7834  12.653   3.305   4.737
  868PNCE   AM2 7835  12.609   3.002   4.564
  868PNCE   T1A 7836  12.512   3.692   4.942
  868PNCE   C2A 7837  12.344   3.898   5.304
  868PNCE   C3A 7838  12.481   4.046   5.687
  868PNCE   C1B 7839  12.911   2.870   4.871
  868PNCE   C2B 7840  13.115   2.848   5.279
  868PNCE   C3B 7841  13.124   2.524   5.623
  868PNCE   D4B 7842  13.141   2.580   6.079
  868PNCE   C5B 7843  13.489   2.721   6.369
  868PNCE   C6B 7844  13.739   3.007   6.620
  869PNCE   AM1 7845   7.421   2.712   5.875
  869PNCE   AM2 7846   7.568   2.823   5.554
  869PNCE   T1A 7847   7.350   2.489   6.246
  869PNCE   C2A 7848   7.138   2.536   6.658
  869PNCE   C3A 7849   6.911   2.171   6.812
  869PNCE   C1B 7850   7.763   3.103   5.915
  869PNCE   C2B 7851   7.916   3.251   6.346
  869PNCE   C3B 7852   8.196   3.167   6.683
  869PNCE   D4B 7853   8.630   3.090   6.725
  869PNCE   C5B 7854   8.829   3.325   7.050
  869PNCE   C6B 7855   9.006   3.703   7.160
  870XCA    COO 7856   9.363   9.168   8.483
  870XCA     C1 7857   9.286   9.238   8.034
  870XCA     C2 7858   9.319   9.395   7.608
  870XCA     C3 7859   9.198   9.309   7.186
  870XCA     C4 7860   9.109   9.345   6.758
  870XCA     C5 7861   9.047   9.023   6.504
  870XCA     C6 7862   8.658   8.810   6.467
  871CHOL   ROH 7863   0.349  13.938   9.061
  871CHOL    R1 7864   0.202  14.061   8.853
  871CHOL    R2 7865   0.319  14.226   8.665
  871CHOL    R3 7866   0.203  14.055   8.489
  871CHOL    R4 7867   0.232  14.305   8.340
  871CHOL    R5 7868   0.049  14.190   8.367
  871CHOL    C1 7869   0.072  14.190   7.986
  871CHOL    C2 7870  15.719  14.328   7.636
  872CHOL   ROH 7871   8.464   1.471   5.513
  872CHOL    R1 7872   8.563   1.601   5.744
  872CHOL    R2 7873   8.412   1.779   5.891
  872CHOL    R3 7874   8.478   1.615   6.097
  872CHOL    R4 7875   8.418   1.871   6.224
  872CHOL    R5 7876   8.600   1.754   6.249
  872CHOL    C1 7877   8.483   1.771   6.611
  872CHOL    C2 7878   8.369   1.786   6.982
  873XCA    COO 7879   9.118  12.962   5.051
  873XCA     C1 7880   8.895  12.731   5.371
  873XCA     C2 7881   8.924  12.540   5.763
  873XCA     C3 7882   9.210  12.577   6.101
  873XCA     C4 7883   9.558  12.712   6.329
  873XCA     C5 7884   9.939  12.927   6.445
  873XCA     C6 7885  10.145  13.204   6.723
  874CHOL   ROH 7886  10.625  10.485   6.100
  874CHOL    R1 7887  10.890  10.416   6.173
  874CHOL    R2 7888  10.962  10.356   6.433
  874CHOL    R3 7889  11.058  10.129   6.320
  874CHOL    R4 7890  11.264  10.209   6.512
  874CHOL    R5 7891  11.294  10.167   6.300
  874CHOL    C1 7892  11.531   9.909   6.452
  874CHOL    C2 7893  11.834   9.656   6.456
  875PNCE   AM1 7894   0.946  12.638   5.038
  875PNCE   AM2 7895   1.265  12.759   4.951
  875PNCE   T1A 7896   0.929  12.504   5.476
  875PNCE   C2A 7897   1.153  12.284   5.850
  875PNCE   C3A 7898   1.443  12.008   6.114
  875PNCE   C1B 7899   1.413  12.617   5.422
  875PNCE   C2B 7900   1.594  12.550   5.850
  875PNCE   C3B 7901   1.645  12.506   6.286
  875PNCE   D4B 7902   1.527  12.654   6.706
  875PNCE   C5B 7903   1.142  12.527   6.916
  875PNCE   C6B 7904   0.777  12.630   7.177
  876CHOL   ROH 7905   9.735  14.327   8.342
  876CHOL    R1 7906   9.758  14.328   8.060
  876CHOL    R2 7907   9.969  14.209   7.928
  876CHOL    R3 7908   9.771  14.080   7.794
  876CHOL    R4 7909  10.002  14.066   7.614
  876CHOL    R5 7910   9.803  14.141   7.565
  876CHOL    C1 7911   9.834  13.862   7.307
  876CHOL    C2 7912   9.977  14.019   6.997
  877CHOL   ROH 7913  12.947   4.810   5.720
  877CHOL    R1 7914  12.822   5.000   5.888
  877CHOL    R2 7915  12.945   5.106   6.111
  877CHOL    R3 7916  12.884   5.343   5.993
  877CHOL    R4 7917  12.935   5.411   6.273
  877CHOL    R5 7918  12.757   5.461   6.158
  877CHOL    C1 7919  12.871   5.811   6.256
  877CHOL    C2 7920  12.786   5.958   6.644
  878CHOL   ROH 7921  12.197   2.827   8.513
  878CHOL    R1 7922  12.103   2.904   8.257
  878CHOL    R2 7923  12.256   3.051   8.080
  878CHOL    R3 7924  12.199   2.846   7.911
  878CHOL    R4 7925  12.305   3.058   7.738
  878CHOL    R5 7926  12.115   2.954   7.714
  878CHOL    C1 7927  12.280   2.870   7.380
  878CHOL    C2 7928  12.388   2.972   7.047
  879CHOL   ROH 7929   8.041   2.865   5.328
  879CHOL    R1 7930   8.130   3.105   5.449
  879CHOL    R2 7931   8.202   3.120   5.715
  879CHOL    R3 7932   8.433   3.222   5.613
  879CHOL    R4 7933   8.407   3.345   5.878
  879CHOL    R5 7934   8.435   3.449   5.689
  879CHOL    C1 7935   8.743   3.572   5.878
  879CHOL    C2 7936   9.032   3.909   5.848
  880CHOL   ROH 7937   2.444   8.409   4.214
  880CHOL    R1 7938   2.604   8.512   4.423
  880CHOL    R2 7939   2.500   8.666   4.628
  880CHOL    R3 7940   2.619   8.479   4.785
  880CHOL    R4 7941   2.533   8.689   4.971
  880CHOL    R5 7942   2.734   8.607   4.952
  880CHOL    C1 7943   2.664   8.527   5.319
  880CHOL    C2 7944   2.551   8.258   5.627
  881PNCE   AM1 7945   3.040   7.229   4.041
  881PNCE   AM2 7946   3.376   7.173   4.021
  881PNCE   T1A 7947   3.142   7.304   4.494
  881PNCE   C2A 7948   3.236   7.073   4.867
  881PNCE   C3A 7949   3.152   6.719   5.183
  881PNCE   C1B 7950   3.309   7.661   4.052
  881PNCE   C2B 7951   3.214   7.860   4.450
  881PNCE   C3B 7952   3.003   8.099   4.805
  881PNCE   D4B 7953   3.019   8.145   5.238
  881PNCE   C5B 7954   3.463   8.293   5.326
  881PNCE   C6B 7955   3.840   8.567   5.458
  882XCA    COO 7956   6.591  11.239   8.758
  882XCA     C1 7957   6.724  11.447   8.333
  882XCA     C2 7958   6.737  11.471   7.871
  882XCA     C3 7959   6.878  11.240   7.509
  882XCA     C4 7960   6.992  10.819   7.319
  882XCA     C5 7961   7.423  10.623   7.340
  882XCA     C6 7962   7.850  10.493   7.205
  883XCA    COO 7963  13.815  10.967   8.496
  883XCA     C1 7964  13.804  11.063   8.018
  883XCA     C2 7965  13.787  10.792   7.636
  883XCA     C3 7966  13.898  10.791   7.185
  883XCA     C4 7967  13.802  10.785   6.721
  883XCA     C5 7968  13.574  10.978   6.373
  883XCA     C6 7969  13.557  11.382   6.175
  884PNCE   AM1 7970   1.371   2.439   4.353
  884PNCE   AM2 7971   1.652   2.367   4.584
  884PNCE   T1A 7972   1.191   2.180   4.727
  884PNCE   C2A 7973   1.150   2.046   5.175
  884PNCE   C3A 7974   0.964   2.083   5.565
  884PNCE   C1B 7975   1.560   2.332   5.045
  884PNCE   C2B 7976   1.504   2.294   5.505
  884PNCE   C3B 7977   1.182   2.454   5.831
  884PNCE   D4B 7978   0.923   2.236   6.067
  884PNCE   C5B 7979   1.110   1.945   6.348
  884PNCE   C6B 7980   1.532   1.786   6.330
  885CHOL   ROH 7981  12.054   4.728   8.557
  885CHOL    R1 7982  11.957   4.728   8.290
  885CHOL    R2 7983  12.099   4.617   8.081
  885CHOL    R3 7984  11.870   4.477   8.041
  885CHOL    R4 7985  12.021   4.445   7.792
  885CHOL    R5 7986  11.816   4.516   7.811
  885CHOL    C1 7987  11.760   4.213   7.586
  885CHOL    C2 7988  11.976   4.245   7.319
  886XCA    COO 7989   8.591  10.979   5.145
  886XCA     C1 7990   8.542  10.771   5.558
  886XCA     C2 7991   8.261  10.403   5.596
  886XCA     C3 7992   8.263  10.028   5.831
  886XCA     C4 7993   8.246   9.741   6.147
  886XCA     C5 7994   7.969   9.456   6.300
  886XCA     C6 7995   7.542   9.491   6.318
  887PNCE   AM1 7996   5.436   2.946   4.995
  887PNCE   AM2 7997   5.326   2.683   5.221
  887PNCE   T1A 7998   5.238   3.214   5.296
  887PNCE   C2A 7999   4.868   3.437   5.442
  887PNCE   C3A 8000   4.514   3.543   5.177
  887PNCE   C1B 8001   5.309   2.676   5.676
  887PNCE   C2B 8002   5.288   2.845   6.099
  887PNCE   C3B 8003   5.354   3.050   6.510
  887PNCE   D4B 8004   5.409   3.271   6.912
  887PNCE   C5B 8005   5.071   3.588   7.039
  887PNCE   C6B 8006   4.907   3.859   7.390
  888PNCE   AM1 8007   6.283   1.358   5.189
  888PNCE   AM2 8008   5.949   1.391   5.355
  888PNCE   T1A 8009   6.327   1.229   5.658
  888PNCE   C2A 8010   6.380   1.055   6.077
  888PNCE   C3A 8011   6.323   1.137   6.501
  888PNCE   C1B 8012   5.973   1.650   5.765
  888PNCE   C2B 8013   5.851   1.827   6.158
  888PNCE   C3B 8014   5.554   2.083   6.407
  888PNCE   D4B 8015   5.429   2.187   6.844
  888PNCE   C5B 8016   5.260   2.617   6.898
  888PNCE   C6B 8017   5.165   2.930   7.237
  889PNCE   AM1 8018   0.027  13.743   5.276
  889PNCE   AM2 8019   0.215  13.652   5.563
  889PNCE   T1A 8020  15.748  14.082   5.562
  889PNCE   C2A 8021  15.631  14.122   5.966
  889PNCE   C3A 8022  15.651  14.115   6.365
  889PNCE   C1B 8023   0.100  13.673   6.014
  889PNCE   C2B 8024  15.822  13.656   6.462
  889PNCE   C3B 8025   0.194  13.728   6.770
  889PNCE   D4B 8026   0.406  13.522   7.074
  889PNCE   C5B 8027   0.700  13.698   7.290
  889PNCE   C6B 8028   0.801  14.103   7.321
  890CHOL   ROH 8029  14.832  12.566   8.187
  890CHOL    R1 8030  15.086  12.686   8.148
  890CHOL    R2 8031  15.116  12.938   8.040
  890CHOL    R3 8032  15.259  12.983   8.267
  890CHOL    R4 8033  15.314  13.216   8.098
  890CHOL    R5 8034  15.461  13.086   8.191
  890CHOL    C1 8035  15.562  13.420   8.345
  890CHOL    C2 8036  15.690  13.799   8.190
  891PNCE   AM1 8037   8.142  13.924   5.029
  891PNCE   AM2 8038   7.986  14.232   5.209
  891PNCE   T1A 8039   7.722  13.804   5.146
  891PNCE   C2A 8040   7.485  13.674   5.496
  891PNCE   C3A 8041   7.229  13.485   5.791
  891PNCE   C1B 8042   8.067  13.916   5.544
  891PNCE   C2B 8043   8.108  13.599   5.853
  891PNCE   C3B 8044   7.948  13.524   6.252
  891PNCE   D4B 8045   7.596  13.687   6.465
  891PNCE   C5B 8046   7.159  13.655   6.326
  891PNCE   C6B 8047   6.841  13.737   6.008
  892PNCE   AM1 8048  13.797   7.318   3.898
  892PNCE   AM2 8049  13.683   7.002   3.827
  892PNCE   T1A 8050  13.931   7.455   4.286
  892PNCE   C2A 8051  14.095   7.436   4.731
  892PNCE   C3A 8052  14.347   7.726   4.966
  892PNCE   C1B 8053  13.622   7.020   4.297
  892PNCE   C2B 8054  13.410   7.046   4.711
  892PNCE   C3B 8055  13.284   7.047   5.176
  892PNCE   D4B 8056  13.282   7.202   5.624
  892PNCE   C5B 8057  13.519   7.146   5.986
  892PNCE   C6B 8058  13.721   7.350   6.343
  893CHOL   ROH 8059   5.641   4.680   6.192
  893CHOL    R1 8060   5.428   4.766   6.027
  893CHOL    R2 8061   5.174   4.658   6.041
  893CHOL    R3 8062   5.100   4.917   6.075
  893CHOL    R4 8063   4.851   4.776   6.017
  893CHOL    R5 8064   4.927   4.951   5.913
  893CHOL    C1 8065   4.592   5.088   6.034
  893CHOL    C2 8066   4.361   5.372   5.865
  894XCA    COO 8067   5.236   9.341   4.259
  894XCA     C1 8068   5.230   9.460   4.673
  894XCA     C2 8069   5.507   9.561   4.968
  894XCA     C3 8070   5.878   9.590   5.167
  894XCA     C4 8071   5.950   9.618   5.571
  894XCA     C5 8072   5.613   9.398   5.835
  894XCA     C6 8073   5.234   9.305   6.100
  895PNCE   AM1 8074   3.525   5.633   4.626
  895PNCE   AM2 8075   3.249   5.413   4.580
  895PNCE   T1A 8076   3.562   5.535   5.090
  895PNCE   C2A 8077   3.592   5.181   5.395
  895PNCE   C3A 8078   3.626   4.912   5.769
  895PNCE   C1B 8079   3.098   5.318   5.003
  895PNCE   C2B 8080   3.151   5.440   5.438
  895PNCE   C3B 8081   3.506   5.661   5.608
  895PNCE   D4B 8082   3.511   5.843   6.001
  895PNCE   C5B 8083   3.426   5.613   6.374
  895PNCE   C6B 8084   3.604   5.522   6.767
  896XCA    COO 8085   1.049  14.342   8.829
  896XCA     C1 8086   0.664  14.568   8.653
  896XCA     C2 8087   0.378  14.749   8.361
  896XCA     C3 8088  15.813  14.765   8.108
  896XCA     C4 8089  15.527  14.775   7.777
  896XCA     C5 8090  15.351  14.616   7.390
  896XCA     C6 8091  15.237  14.577   6.948
  897CHOL   ROH 8092   6.937   9.516   8.445
  897CHOL    R1 8093   6.868   9.402   8.196
  897CHOL    R2 8094   6.692   9.522   8.021
  897CHOL    R3 8095   6.898   9.495   7.845
  897CHOL    R4 8096   6.662   9.536   7.677
  897CHOL    R5 8097   6.804   9.372   7.662
  897CHOL    C1 8098   6.838   9.519   7.312
  897CHOL    C2 8099   6.570   9.446   7.049
  898CHOL   ROH 8100  11.908  10.734   8.216
  898CHOL    R1 8101  11.769  10.850   7.998
  898CHOL    R2 8102  11.869  10.851   7.741
  898CHOL    R3 8103  11.631  10.736   7.682
  898CHOL    R4 8104  11.725  10.845   7.427
  898CHOL    R5 8105  11.532  10.883   7.520
  898CHOL    C1 8106  11.417  10.734   7.188
  898CHOL    C2 8107  11.460  10.599   6.807
  899CHOL   ROH 8108   9.000   2.232   8.431
  899CHOL    R1 8109   9.071   2.213   8.158
  899CHOL    R2 8110   8.941   2.044   7.983
  899CHOL    R3 8111   8.907   2.272   7.838
  899CHOL    R4 8112   8.856   2.055   7.648
  899CHOL    R5 8113   8.997   2.219   7.622
  899CHOL    C1 8114   8.775   2.275   7.317
  899CHOL    C2 8115   8.411   2.281   7.138
  900CHOL   ROH 8116   2.675   4.237   8.175
  900CHOL    R1 8117   2.644   4.102   7.928
  900CHOL    R2 8118   2.431   4.149   7.758
  900CHOL    R3 8119   2.628   4.194   7.576
  900CHOL    R4 8120   2.399   4.103   7.417
  900CHOL    R5 8121   2.600   4.020   7.414
  900CHOL    C1 8122   2.565   4.119   7.048
  900CHOL    C2 8123   2.298   3.997   6.734
  901CHOL   ROH 8124   0.393  14.125   5.572
  901CHOL    R1 8125   0.382  14.031   5.839
  901CHOL    R2 8126   0.510  14.159   6.047
  901CHOL    R3 8127   0.262  14.156   6.159
  901CHOL    R4 8128   0.444  14.199   6.384
  901CHOL    R5 8129   0.292  14.044   6.369
  901CHOL    C1 8130   0.174  14.221   6.685
  901CHOL    C2 8131   0.343  14.126   7.039
  902PNCE   AM1 8132   2.391  12.422   3.907
  902PNCE   AM2 8133   2.479  12.529   4.239
  902PNCE   T1A 8134   2.751  12.740   3.882
  902PNCE   C2A 8135   3.121  12.984   4.020
  902PNCE   C3A 8136   3.505  13.272   4.043
  902PNCE   C1B 8137   2.908  12.598   4.445
  902PNCE   C2B 8138   3.113  12.796   4.823
  902PNCE   C3B 8139   3.420  13.103   4.999
  902PNCE   D4B 8140   3.716  13.219   5.326
  902PNCE   C5B 8141   4.089  13.407   5.153
  902PNCE   C6B 8142   4.448  13.673   5.124
  903CHOL   ROH 8143   3.442   0.125   8.242
  903CHOL    R1 8144   3.697   0.229   8.176
  903CHOL    R2 8145   3.779   0.265   7.915
  903CHOL    R3 8146   3.826   0.519   7.999
  903CHOL    R4 8147   3.972   0.497   7.746
  903CHOL    R5 8148   4.053   0.562   7.937
  903CHOL    C1 8149   4.128   0.871   7.727
  903CHOL    C2 8150   4.262   0.835   7.405
  904PNCE   AM1 8151   2.378   5.561   4.329
  904PNCE   AM2 8152   2.436   5.745   4.621
  904PNCE   T1A 8153   2.143   5.284   4.668
  904PNCE   C2A 8154   2.057   4.971   5.031
  904PNCE   C3A 8155   2.082   4.771   5.449
  904PNCE   C1B 8156   2.481   6.051   4.972
  904PNCE   C2B 8157   2.556   6.428   5.196
  904PNCE   C3B 8158   2.409   6.681   5.532
  904PNCE   D4B 8159   2.478   6.703   5.953
  904PNCE   C5B 8160   2.775   6.499   6.144
  904PNCE   C6B 8161   3.003   6.102   6.137
  905CHOL   ROH 8162   0.154  13.163   5.496
  905CHOL    R1 8163   0.073  13.249   5.753
  905CHOL    R2 8164  15.712  13.116   5.902
  905CHOL    R3 8165   0.078  13.113   6.091
  905CHOL    R4 8166  15.661  13.056   6.239
  905CHOL    R5 8167  15.805  13.213   6.283
  905CHOL    C1 8168  15.814  13.020   6.612
  905CHOL    C2 8169   0.073  12.738   6.882
  906PNCE   AM1 8170   9.765   2.066   9.210
  906PNCE   AM2 8171   9.456   1.864   9.243
  906PNCE   T1A 8172   9.846   2.195   8.782
  906PNCE   C2A 8173   9.889   2.294   8.358
  906PNCE   C3A 8174   9.701   2.230   7.982
  906PNCE   C1B 8175   9.583   1.763   8.838
  906PNCE   C2B 8176   9.498   1.470   8.532
  906PNCE   C3B 8177   9.469   1.098   8.306
  906PNCE   D4B 8178   9.441   0.875   7.958
  906PNCE   C5B 8179   9.612   0.869   7.567
  906PNCE   C6B 8180   9.901   0.821   7.259
  907PNCE   AM1 8181   8.845   3.142   8.853
  907PNCE   AM2 8182   9.127   3.151   8.616
  907PNCE   T1A 8183   8.510   2.942   8.555
  907PNCE   C2A 8184   8.329   2.834   8.113
  907PNCE   C3A 8185   8.362   3.073   7.717
  907PNCE   C1B 8186   9.511   3.059   8.342
  907PNCE   C2B 8187   9.918   3.275   8.223
  907PNCE   C3B 8188  10.184   3.556   7.987
  907PNCE   D4B 8189  10.391   3.681   7.629
  907PNCE   C5B 8190  10.276   4.037   7.387
  907PNCE   C6B 8191  10.342   4.465   7.276
  908PNCE   AM1 8192   2.939   5.742   4.355
  908PNCE   AM2 8193   3.156   6.025   4.471
  908PNCE   T1A 8194   2.907   5.760   4.823
  908PNCE   C2A 8195   2.737   5.684   5.230
  908PNCE   C3A 8196   2.663   5.533   5.635
  908PNCE   C1B 8197   2.953   6.282   4.838
  908PNCE   C2B 8198   2.973   6.165   5.274
  908PNCE   C3B 8199   3.057   5.910   5.656
  908PNCE   D4B 8200   3.014   5.608   6.028
  908PNCE   C5B 8201   2.677   5.281   6.068
  908PNCE   C6B 8202   2.533   4.933   5.715
  909PNCE   AM1 8203   1.553   8.099   4.874
  909PNCE   AM2 8204   1.568   7.780   4.718
  909PNCE   T1A 8205   1.595   8.141   5.350
  909PNCE   C2A 8206   1.676   8.148   5.795
  909PNCE   C3A 8207   1.748   8.307   6.200
  909PNCE   C1B 8208   1.475   7.666   5.166
  909PNCE   C2B 8209   1.211   7.417   5.401
  909PNCE   C3B 8210   0.956   7.538   5.721
  909PNCE   D4B 8211   0.668   7.455   6.009
  909PNCE   C5B 8212   0.346   7.732   5.932
  909PNCE   C6B 8213   0.098   7.826   5.562
  910XCA    COO 8214  14.544   5.552   4.693
  910XCA     C1 8215  14.257   5.538   5.053
  910XCA     C2 8216  14.197   5.221   5.386
  910XCA     C3 8217  14.283   5.142   5.833
  910XCA     C4 8218  14.471   4.883   6.179
  910XCA     C5 8219  14.620   4.615   6.536
  910XCA     C6 8220  14.604   4.653   6.989
  911PNCE   AM1 8221  11.092   5.962   3.939
  911PNCE   AM2 8222  10.707   5.862   3.909
  911PNCE   T1A 8223  11.229   6.215   4.302
  911PNCE   C2A 8224  11.081   6.390   4.687
  911PNCE   C3A 8225  10.723   6.477   4.936
  911PNCE   C1B 8226  10.783   5.918   4.354
  911PNCE   C2B 8227  10.743   5.977   4.757
  911PNCE   C3B 8228  10.578   6.017   5.150
  911PNCE   D4B 8229  10.538   6.372   5.390
  911PNCE   C5B 8230  10.867   6.655   5.568
  911PNCE   C6B 8231  10.988   7.002   5.904
  912CHOL   ROH 8232  13.218   3.179   6.688
  912CHOL    R1 8233  13.269   2.981   6.884
  912CHOL    R2 8234  13.322   2.718   6.819
  912CHOL    R3 8235  13.544   2.760   6.971
  912CHOL    R4 8236  13.519   2.468   6.956
  912CHOL    R5 8237  13.536   2.588   7.137
  912CHOL    C1 8238  13.841   2.362   7.177
  912CHOL    C2 8239  14.138   2.380   7.498
  913CHOL   ROH 8240   0.789   6.879   7.630
  913CHOL    R1 8241   0.808   6.640   7.478
  913CHOL    R2 8242   0.756   6.632   7.207
  913CHOL    R3 8243   1.004   6.521   7.196
  913CHOL    R4 8244   0.884   6.460   6.936
  913CHOL    R5 8245   0.973   6.318   7.074
  913CHOL    C1 8246   1.191   6.257   6.767
  913CHOL    C2 8247   1.531   6.316   6.550
  914CHOL   ROH 8248  15.243   4.808   8.031
  914CHOL    R1 8249  15.322   4.636   7.820
  914CHOL    R2 8250  15.356   4.725   7.561
  914CHOL    R3 8251  15.602   4.612   7.589
  914CHOL    R4 8252  15.558   4.624   7.300
  914CHOL    R5 8253  15.612   4.448   7.416
  914CHOL    C1 8254   0.078   4.459   7.174
  914CHOL    C2 8255   0.477   4.333   7.011
  915XCA    COO 8256  15.045   0.003   4.437
  915XCA     C1 8257  15.029   0.285   4.798
  915XCA     C2 8258  14.848   0.393   5.170
  915XCA     C3 8259  14.674   0.502   5.546
  915XCA     C4 8260  14.453   0.406   5.911
  915XCA     C5 8261  14.097   0.492   6.111
  915XCA     C6 8262  13.845   0.425   6.501
  916PNCE   AM1 8263  11.856  12.261   5.083
  916PNCE   AM2 8264  11.640  12.039   4.918
  916PNCE   T1A 8265  11.814  12.295   5.546
  916PNCE   C2A 8266  11.864  12.066   5.933
  916PNCE   C3A 8267  12.005  11.730   6.237
  916PNCE   C1B 8268  11.488  11.901   5.319
  916PNCE   C2B 8269  11.577  11.688   5.695
  916PNCE   C3B 8270  11.492  11.785   6.138
  916PNCE   D4B 8271  11.580  11.578   6.519
  916PNCE   C5B 8272  11.471  11.150   6.628
  916PNCE   C6B 8273  11.114  10.967   6.846
  917CHOL   ROH 8274   5.673  13.992   4.263
  917CHOL    R1 8275   5.580  14.118   4.498
  917CHOL    R2 8276   5.317  14.101   4.582
  917CHOL    R3 8277   5.430  14.013   4.813
  917CHOL    R4 8278   5.197  14.169   4.899
  917CHOL    R5 8279   5.403  14.196   4.966
  917CHOL    C1 8280   5.233  14.126   5.300
  917CHOL    C2 8281   5.027  14.142   5.668
  918CHOL   ROH 8282   1.048   7.714   7.801
  918CHOL    R1 8283   1.247   7.886   7.694
  918CHOL    R2 8284   1.445   7.796   7.524
  918CHOL    R3 8285   1.352   7.995   7.363
  918CHOL    R4 8286   1.639   7.980   7.305
  918CHOL    R5 8287   1.528   8.158   7.363
  918CHOL    C1 8288   1.665   8.274   7.027
  918CHOL    C2 8289   1.995   8.469   6.924
  919CHOL   ROH 8290  10.193   0.447   8.727
  919CHOL    R1 8291  10.082   0.262   8.545
  919CHOL    R2 8292   9.830   0.154   8.577
  919CHOL    R3 8293   9.792   0.248   8.325
  919CHOL    R4 8294   9.584   0.045   8.360
  919CHOL    R5 8295   9.729   0.056   8.198
  919CHOL    C1 8296   9.406   0.071   7.996
  919CHOL    C2 8297   9.314  15.773   7.578
  920CHOL   ROH 8298  15.711  11.312   6.980
  920CHOL    R1 8299   0.055  11.254   7.197
  920CHOL    R2 8300   0.305  11.144   7.162
  920CHOL    R3 8301   0.385  11.360   7.308
  920CHOL    R4 8302   0.579  11.150   7.373
  920CHOL    R5 8303   0.462  11.267   7.515
  920CHOL    C1 8304   0.813  11.356   7.632
  920CHOL    C2 8305   1.040  11.459   7.966
  921PNCE   AM1 8306   9.822   4.547   4.248
  921PNCE   AM2 8307   9.683   4.403   4.572
  921PNCE   T1A 8308  10.076   4.874   4.462
  921PNCE   C2A 8309  10.142   5.289   4.695
  921PNCE   C3A 8310  10.274   5.744   4.695
  921PNCE   C1B 8311   9.629   4.518   5.026
  921PNCE   C2B 8312   9.907   4.509   5.374
  921PNCE   C3B 8313  10.178   4.777   5.580
  921PNCE   D4B 8314  10.586   4.704   5.681
  921PNCE   C5B 8315  10.721   4.340   5.937
  921PNCE   C6B 8316  11.162   4.243   6.081
  922CHOL   ROH 8317   9.333   2.106   5.395
  922CHOL    R1 8318   9.238   2.056   5.656
  922CHOL    R2 8319   9.399   1.960   5.858
  922CHOL    R3 8320   9.309   2.179   5.992
  922CHOL    R4 8321   9.399   1.996   6.202
  922CHOL    R5 8322   9.203   2.090   6.187
  922CHOL    C1 8323   9.314   2.222   6.527
  922CHOL    C2 8324   9.498   2.091   6.893
  923PNCE   AM1 8325   0.985   9.529   4.338
  923PNCE   AM2 8326   0.785   9.207   4.442
  923PNCE   T1A 8327   1.359   9.460   4.614
  923PNCE   C2A 8328   1.683   9.371   4.922
  923PNCE   C3A 8329   1.955   9.390   5.278
  923PNCE   C1B 8330   1.101   9.033   4.751
  923PNCE   C2B 8331   1.442   8.922   5.047
  923PNCE   C3B 8332   1.836   8.842   5.253
  923PNCE   D4B 8333   2.284   8.843   5.391
  923PNCE   C5B 8334   2.426   8.868   5.862
  923PNCE   C6B 8335   2.678   9.168   6.156
  924PNCE   AM1 8336   6.784  15.507   4.927
  924PNCE   AM2 8337   6.884  15.722   5.201
  924PNCE   T1A 8338   6.434  15.404   5.217
  924PNCE   C2A 8339   6.195  15.254   5.587
  924PNCE   C3A 8340   6.007  14.982   5.905
  924PNCE   C1B 8341   6.865  15.387   5.496
  924PNCE   C2B 8342   6.605  15.376   5.861
  924PNCE   C3B 8343   6.443  15.283   6.246
  924PNCE   D4B 8344   6.661  15.071   6.490
  924PNCE   C5B 8345   6.559  14.678   6.642
  924PNCE   C6B 8346   6.570  14.390   6.312
  925CHOL   ROH 8347  14.408   1.626   4.585
  925CHOL    R1 8348  14.290   1.739   4.816
  925CHOL    R2 8349  14.091   1.611   4.959
  925CHOL    R3 8350  14.261   1.651   5.168
  925CHOL    R4 8351  13.994   1.636   5.289
  925CHOL    R5 8352  14.140   1.796   5.315
  925CHOL    C1 8353  14.096   1.688   5.678
  925CHOL    C2 8354  13.741   1.731   5.805
  926CHOL   ROH 8355  12.356   6.990   8.085
  926CHOL    R1 8356  12.140   6.880   7.938
  926CHOL    R2 8357  11.990   7.029   7.761
  926CHOL    R3 8358  12.057   6.831   7.588
  926CHOL    R4 8359  11.786   6.910   7.509
  926CHOL    R5 8360  11.854   6.708   7.556
  926CHOL    C1 8361  11.730   6.654   7.199
  926CHOL    C2 8362  11.775   6.351   6.925
  927PNCE   AM1 8363   8.215   0.769   6.085
  927PNCE   AM2 8364   8.470   0.694   5.860
  927PNCE   T1A 8365   8.089   0.721   6.482
  927PNCE   C2A 8366   7.710   0.798   6.715
  927PNCE   C3A 8367   7.282   0.766   6.757
  927PNCE   C1B 8368   8.698   0.782   6.261
  927PNCE   C2B 8369   8.891   0.913   6.658
  927PNCE   C3B 8370   8.997   1.029   7.087
  927PNCE   D4B 8371   9.164   1.433   7.221
  927PNCE   C5B 8372   9.091   1.631   7.656
  927PNCE   C6B 8373   9.350   1.925   7.800
  928CHOL   ROH 8374  12.969   0.540   8.406
  928CHOL    R1 8375  12.805   0.482   8.183
  928CHOL    R2 8376  12.618   0.660   8.086
  928CHOL    R3 8377  12.750   0.622   7.852
  928CHOL    R4 8378  12.501   0.754   7.775
  928CHOL    R5 8379  12.579   0.568   7.694
  928CHOL    C1 8380  12.558   0.773   7.373
  928CHOL    C2 8381  12.341   1.075   7.173
  929CHOL   ROH 8382   0.206   3.151   7.293
  929CHOL    R1 8383   0.484   3.185   7.331
  929CHOL    R2 8384   0.642   2.995   7.453
  929CHOL    R3 8385   0.789   3.016   7.225
  929CHOL    R4 8386   0.965   2.878   7.414
  929CHOL    R5 8387   1.012   3.058   7.301
  929CHOL    C1 8388   1.290   2.829   7.178
  929CHOL    C2 8389   1.650   2.587   7.139
  930CHOL   ROH 8390   2.535  12.010   7.985
  930CHOL    R1 8391   2.284  11.909   7.903
  930CHOL    R2 8392   2.047  12.040   7.956
  930CHOL    R3 8393   2.012  12.017   7.687
  930CHOL    R4 8394   1.741  12.034   7.795
  930CHOL    R5 8395   1.819  11.879   7.663
  930CHOL    C1 8396   1.530  12.008   7.450
  930CHOL    C2 8397   1.253  12.019   7.084
  931CHOL   ROH 8398   5.569   1.164   5.546
  931CHOL    R1 8399   5.650   1.133   5.816
  931CHOL    R2 8400   5.899   1.210   5.906
  931CHOL    R3 8401   5.755   1.353   6.086
  931CHOL    R4 8402   6.025   1.346   6.197
  931CHOL    R5 8403   5.842   1.286   6.299
  931CHOL    C1 8404   5.963   1.558   6.537
  931CHOL    C2 8405   6.201   1.484   6.864
  932XCA    COO 8406  11.766   9.317   3.834
  932XCA     C1 8407  11.798   9.431   4.290
  932XCA     C2 8408  11.687   9.682   4.625
  932XCA     C3 8409  11.727   9.842   5.023
  932XCA     C4 8410  11.660  10.213   5.267
  932XCA     C5 8411  11.351  10.374   5.496
  932XCA     C6 8412  11.147  10.219   5.843
  933XCA    COO 8413   2.741  10.916   7.948
  933XCA     C1 8414   2.456  10.638   7.761
  933XCA     C2 8415   2.248  10.669   7.386
  933XCA     C3 8416   2.017  10.654   7.028
  933XCA     C4 8417   1.754  10.833   6.735
  933XCA     C5 8418   1.498  10.772   6.385
  933XCA     C6 8419   1.192  10.667   6.079
  934CHOL   ROH 8420  11.692   0.957   9.050
  934CHOL    R1 8421  11.785   0.784   8.846
  934CHOL    R2 8422  11.629   0.583   8.739
  934CHOL    R3 8423  11.691   0.704   8.503
  934CHOL    R4 8424  11.611   0.433   8.428
  934CHOL    R5 8425  11.797   0.533   8.374
  934CHOL    C1 8426  11.659   0.459   8.026
  934CHOL    C2 8427  11.684   0.450   7.616
  935PNCE   AM1 8428  13.464   0.372   4.010
  935PNCE   AM2 8429  13.626   0.667   4.144
  935PNCE   T1A 8430  13.120   0.639   4.275
  935PNCE   C2A 8431  13.031   1.005   4.595
  935PNCE   C3A 8432  13.149   1.420   4.820
  935PNCE   C1B 8433  13.508   0.644   4.595
  935PNCE   C2B 8434  13.323   0.399   4.885
  935PNCE   C3B 8435  13.311   0.124   5.221
  935PNCE   D4B 8436  13.377  15.524   5.292
  935PNCE   C5B 8437  13.694  15.272   5.088
  935PNCE   C6B 8438  14.086  15.071   4.944
  936CHOL   ROH 8439  14.710   3.883   4.880
  936CHOL    R1 8440  14.742   3.881   5.161
  936CHOL    R2 8441  14.661   3.669   5.318
  936CHOL    R3 8442  14.918   3.678   5.406
  936CHOL    R4 8443  14.766   3.576   5.634
  936CHOL    R5 8444  14.901   3.746   5.635
  936CHOL    C1 8445  15.069   3.530   5.901
  936CHOL    C2 8446  15.182   3.299   6.278
  937PNCE   AM1 8447   2.471  11.546   4.567
  937PNCE   AM2 8448   2.563  11.804   4.782
  937PNCE   T1A 8449   2.525  11.372   5.033
  937PNCE   C2A 8450   2.601  11.371   5.521
  937PNCE   C3A 8451   2.551  11.480   5.985
  937PNCE   C1B 8452   2.660  11.845   5.258
  937PNCE   C2B 8453   2.846  12.007   5.659
  937PNCE   C3B 8454   2.790  11.913   6.099
  937PNCE   D4B 8455   2.885  11.542   6.399
  937PNCE   C5B 8456   3.170  11.595   6.787
  937PNCE   C6B 8457   3.318  11.616   7.235
  938XCA    COO 8458  14.513  12.741   9.437
  938XCA     C1 8459  14.498  12.700   8.988
  938XCA     C2 8460  14.532  12.731   8.563
  938XCA     C3 8461  14.283  12.939   8.239
  938XCA     C4 8462  14.363  13.281   7.937
  938XCA     C5 8463  14.505  13.370   7.538
  938XCA     C6 8464  14.415  13.679   7.207
  939CHOL   ROH 8465   2.089  13.639   6.043
  939CHOL    R1 8466   2.107  13.474   6.272
  939CHOL    R2 8467   2.327  13.317   6.326
  939CHOL    R3 8468   2.323  13.448   6.564
  939CHOL    R4 8469   2.521  13.235   6.600
  939CHOL    R5 8470   2.349  13.276   6.728
  939CHOL    C1 8471   2.630  13.312   6.983
  939CHOL    C2 8472   3.018  13.465   7.106
  940CHOL   ROH 8473   8.077   9.484   7.450
  940CHOL    R1 8474   8.010   9.470   7.175
  940CHOL    R2 8475   8.132   9.294   7.001
  940CHOL    R3 8476   7.877   9.218   6.948
  940CHOL    R4 8477   8.022   9.170   6.698
  940CHOL    R5 8478   7.840   9.288   6.722
  940CHOL    C1 8479   7.717   9.027   6.472
  940CHOL    C2 8480   7.493   8.722   6.339
  941CHOL   ROH 8481  15.094   3.155   4.765
  941CHOL    R1 8482  15.087   3.083   5.039
  941CHOL    R2 8483  15.159   3.258   5.240
  941CHOL    R3 8484  14.913   3.197   5.337
  941CHOL    R4 8485  15.071   3.265   5.574
  941CHOL    R5 8486  14.956   3.083   5.543
  941CHOL    C1 8487  14.788   3.212   5.860
  941CHOL    C2 8488  14.662   3.175   6.241
  942PNCE   AM1 8489   1.824  10.371   4.445
  942PNCE   AM2 8490   2.067  10.143   4.352
  942PNCE   T1A 8491   1.973  10.422   4.880
  942PNCE   C2A 8492   2.014  10.599   5.283
  942PNCE   C3A 8493   2.176  10.766   5.644
  942PNCE   C1B 8494   2.353  10.160   4.692
  942PNCE   C2B 8495   2.547  10.070   5.032
  942PNCE   C3B 8496   2.820   9.953   5.327
  942PNCE   D4B 8497   3.189   9.796   5.434
  942PNCE   C5B 8498   3.485   9.698   5.100
  942PNCE   C6B 8499   3.915   9.719   4.926
  943PNCE   AM1 8500  10.048  13.502   5.358
  943PNCE   AM2 8501  10.417  13.388   5.401
  943PNCE   T1A 8502   9.885  13.197   5.610
  943PNCE   C2A 8503   9.942  13.179   6.014
  943PNCE   C3A 8504  10.337  13.242   6.256
  943PNCE   C1B 8505  10.424  13.565   5.827
  943PNCE   C2B 8506  10.413  13.743   6.241
  943PNCE   C3B 8507  10.436  13.627   6.669
  943PNCE   D4B 8508  10.299  13.635   7.096
  943PNCE   C5B 8509  10.445  13.996   7.395
  943PNCE   C6B 8510  10.400  14.335   7.712
  944PNCE   AM1 8511   4.645   6.603   4.582
  944PNCE   AM2 8512   5.005   6.530   4.491
  944PNCE   T1A 8513   4.851   6.570   4.991
  944PNCE   C2A 8514   4.924   6.596   5.426
  944PNCE   C3A 8515   4.749   6.426   5.813
  944PNCE   C1B 8516   5.296   6.758   4.807
  944PNCE   C2B 8517   5.712   6.970   4.898
  944PNCE   C3B 8518   5.872   7.310   5.178
  944PNCE   D4B 8519   5.927   7.671   5.453
  944PNCE   C5B 8520   5.907   7.656   5.889
  944PNCE   C6B 8521   6.200   7.504   6.113
  945CHOL   ROH 8522  12.806   3.229   5.192
  945CHOL    R1 8523  12.586   3.350   5.322
  945CHOL    R2 8524  12.503   3.275   5.575
  945CHOL    R3 8525  12.530   3.540   5.627
  945CHOL    R4 8526  12.367   3.437   5.848
  945CHOL    R5 8527  12.318   3.605   5.718
  945CHOL    C1 8528  12.314   3.781   6.057
  945CHOL    C2 8529  12.118   4.163   6.090
  946CHOL   ROH 8530  15.500   9.471   7.980
  946CHOL    R1 8531  15.538   9.403   7.708
  946CHOL    R2 8532  15.351   9.460   7.513
  946CHOL    R3 8533  15.562   9.581   7.391
  946CHOL    R4 8534  15.374   9.523   7.174
  946CHOL    R5 8535  15.584   9.467   7.182
  946CHOL    C1 8536  15.585   9.674   6.862
  946CHOL    C2 8537  15.624   9.486   6.497
  947XCA    COO 8538   8.743   5.802   4.569
  947XCA     C1 8539   8.857   5.557   4.968
  947XCA     C2 8540   8.898   5.654   5.406
  947XCA     C3 8541   9.234   5.709   5.666
  947XCA     C4 8542   9.505   5.753   5.997
  947XCA     C5 8543   9.810   5.750   6.274
  947XCA     C6 8544   9.847   5.983   6.640
  948PNCE   AM1 8545  11.416  15.283   5.182
  948PNCE   AM2 8546  11.116  15.128   5.147
  948PNCE   T1A 8547  11.570  15.354   5.631
  948PNCE   C2A 8548  11.857  15.550   5.936
  948PNCE   C3A 8549  12.126  15.279   6.183
  948PNCE   C1B 8550  11.064  15.350   5.569
  948PNCE   C2B 8551  11.004  15.388   6.036
  948PNCE   C3B 8552  11.050  15.509   6.480
  948PNCE   D4B 8553  11.226  15.747   6.838
  948PNCE   C5B 8554  11.661  15.773   6.979
  948PNCE   C6B 8555  12.017   0.087   7.257
  949XCA    COO 8556   1.571  14.368   8.922
  949XCA     C1 8557   1.561  14.476   8.468
  949XCA     C2 8558   1.577  14.752   8.081
  949XCA     C3 8559   1.659  14.927   7.673
  949XCA     C4 8560   1.334  14.933   7.345
  949XCA     C5 8561   1.123  15.253   7.105
  949XCA     C6 8562   1.073  15.609   6.875
  950CHOL   ROH 8563   1.784   3.723   5.385
  950CHOL    R1 8564   1.722   3.496   5.541
  950CHOL    R2 8565   1.556   3.507   5.761
  950CHOL    R3 8566   1.422   3.310   5.630
  950CHOL    R4 8567   1.330   3.290   5.907
  950CHOL    R5 8568   1.414   3.129   5.787
  950CHOL    C1 8569   1.073   2.979   5.870
  950CHOL    C2 8570   0.749   3.083   6.067
  951CHOL   ROH 8571   0.028  12.549   7.674
  951CHOL    R1 8572  15.634  12.684   7.564
  951CHOL    R2 8573  15.658  12.875   7.366
  951CHOL    R3 8574  15.481  12.716   7.236
  951CHOL    R4 8575  15.504  12.954   7.067
  951CHOL    R5 8576  15.320  12.868   7.145
  951CHOL    C1 8577  15.248  12.851   6.770
  951CHOL    C2 8578  14.897  12.976   6.682
  952XCA    COO 8579   0.901   1.860   9.271
  952XCA     C1 8580   1.174   1.751   8.917
  952XCA     C2 8581   1.209   1.768   8.474
  952XCA     C3 8582   1.229   1.720   8.046
  952XCA     C4 8583   1.088   1.523   7.683
  952XCA     C5 8584   0.731   1.352   7.556
  952XCA     C6 8585   0.358   1.284   7.356
  953CHOL   ROH 8586   9.580   4.873   4.566
  953CHOL    R1 8587   9.747   4.913   4.791
  953CHOL    R2 8588   9.747   5.147   4.937
  953CHOL    R3 8589   9.702   4.979   5.146
  953CHOL    R4 8590   9.817   5.219   5.268
  953CHOL    R5 8591   9.888   5.014   5.292
  953CHOL    C1 8592   9.816   5.104   5.656
  953CHOL    C2 8593   9.672   5.268   6.001
  954PNCE   AM1 8594   2.279   9.224   3.869
  954PNCE   AM2 8595   2.547   9.424   4.018
  954PNCE   T1A 8596   2.232   8.818   4.060
  954PNCE   C2A 8597   2.075   8.627   4.423
  954PNCE   C3A 8598   2.124   8.411   4.827
  954PNCE   C1B 8599   2.895   9.404   4.352
  954PNCE   C2B 8600   3.223   9.395   4.700
  954PNCE   C3B 8601   3.223   9.055   5.017
  954PNCE   D4B 8602   3.123   8.665   5.246
  954PNCE   C5B 8603   3.014   8.484   5.648
  954PNCE   C6B 8604   3.263   8.184   5.885
  955XCA    COO 8605   2.582   4.640   8.475
  955XCA     C1 8606   2.274   4.471   8.165
  955XCA     C2 8607   2.050   4.539   7.777
  955XCA     C3 8608   1.642   4.521   7.593
  955XCA     C4 8609   1.337   4.640   7.279
  955XCA     C5 8610   1.398   4.614   6.821
  955XCA     C6 8611   1.248   4.764   6.407
  956PNCE   AM1 8612   8.280  14.685   5.189
  956PNCE   AM2 8613   7.921  14.738   5.279
  956PNCE   T1A 8614   8.581  14.716   5.568
  956PNCE   C2A 8615   8.771  14.790   6.007
  956PNCE   C3A 8616   8.953  15.048   6.369
  956PNCE   C1B 8617   8.122  14.519   5.670
  956PNCE   C2B 8618   8.283  14.623   6.112
  956PNCE   C3B 8619   8.450  14.888   6.457
  956PNCE   D4B 8620   8.432  15.088   6.867
  956PNCE   C5B 8621   8.467  14.715   7.064
  956PNCE   C6B 8622   8.520  14.671   7.480
  957CHOL   ROH 8623  14.437  11.553   8.751
  957CHOL    R1 8624  14.407  11.768   8.569
  957CHOL    R2 8625  14.519  11.766   8.317
  957CHOL    R3 8626  14.264  11.816   8.238
  957CHOL    R4 8627  14.432  11.923   8.022
  957CHOL    R5 8628  14.277  12.031   8.131
  957CHOL    C1 8629  14.141  12.062   7.776
  957CHOL    C2 8630  14.174  12.016   7.375
  958PNCE   AM1 8631  11.570   2.371   4.491
  958PNCE   AM2 8632  11.584   1.991   4.571
  958PNCE   T1A 8633  11.726   2.473   4.934
  958PNCE   C2A 8634  11.724   2.518   5.427
  958PNCE   C3A 8635  11.652   2.580   5.896
  958PNCE   C1B 8636  11.278   1.783   4.888
  958PNCE   C2B 8637  11.072   1.446   5.107
  958PNCE   C3B 8638  10.989   1.061   5.297
  958PNCE   D4B 8639  11.010   0.687   5.049
  958PNCE   C5B 8640  11.226   0.401   5.284
  958PNCE   C6B 8641  11.526   0.527   5.602
  959CHOL   ROH 8642   9.155   0.092   5.439
  959CHOL    R1 8643   9.279   0.200   5.669
  959CHOL    R2 8644   9.155   0.207   5.915
  959CHOL    R3 8645   9.379   0.078   5.997
  959CHOL    R4 8646   9.253   0.170   6.244
  959CHOL    R5 8647   9.458   0.207   6.182
  959CHOL    C1 8648   9.521   0.027   6.513
  959CHOL    C2 8649   9.663  15.823   6.882
  960CHOL   ROH 8650  12.737   9.370   4.063
  960CHOL    R1 8651  12.765   9.371   4.344
  960CHOL    R2 8652  12.598   9.229   4.511
  960CHOL    R3 8653  12.831   9.126   4.605
  960CHOL    R4 8654  12.632   9.053   4.807
  960CHOL    R5 8655  12.820   9.158   4.841
  960CHOL    C1 8656  12.871   8.855   5.067
  960CHOL    C2 8657  12.732   8.969   5.411
  961PNCE   AM1 8658  15.438  11.818   4.868
  961PNCE   AM2 8659  15.652  12.093   4.847
  961PNCE   T1A 8660  15.321  11.763   5.307
  961PNCE   C2A 8661  15.225  11.519   5.671
  961PNCE   C3A 8662  15.230  11.225   6.014
  961PNCE   C1B 8663  15.795  12.045   5.280
  961PNCE   C2B 8664  15.753  11.721   5.603
  961PNCE   C3B 8665  15.721  11.428   5.952
  961PNCE   D4B 8666  15.682  10.980   6.077
  961PNCE   C5B 8667   0.094  10.915   6.448
  961PNCE   C6B 8668   0.029  10.847   6.911
  962CHOL   ROH 8669   5.737   3.400   5.283
  962CHOL    R1 8670   5.917   3.486   5.484
  962CHOL    R2 8671   5.834   3.561   5.736
  962CHOL    R3 8672   6.015   3.375   5.816
  962CHOL    R4 8673   5.960   3.533   6.057
  962CHOL    R5 8674   6.156   3.492   5.971
  962CHOL    C1 8675   6.205   3.343   6.318
  962CHOL    C2 8676   6.448   3.142   6.578
  963PNCE   AM1 8677   3.768   3.095   4.949
  963PNCE   AM2 8678   3.670   3.436   5.005
  963PNCE   T1A 8679   4.140   3.157   5.238
  963PNCE   C2A 8680   4.402   3.017   5.598
  963PNCE   C3A 8681   4.437   3.099   6.042
  963PNCE   C1B 8682   3.667   3.254   5.450
  963PNCE   C2B 8683   3.517   3.228   5.881
  963PNCE   C3B 8684   3.265   3.479   6.191
  963PNCE   D4B 8685   3.233   3.901   6.279
  963PNCE   C5B 8686   3.664   3.970   6.253
  963PNCE   C6B 8687   3.964   4.015   6.514
  964CHOL   ROH 8688   0.089   2.086   7.638
  964CHOL    R1 8689   0.156   1.863   7.799
  964CHOL    R2 8690   0.091   1.604   7.728
  964CHOL    R3 8691   0.357   1.562   7.762
  964CHOL    R4 8692   0.233   1.304   7.825
  964CHOL    R5 8693   0.371   1.416   7.951
  964CHOL    C1 8694   0.566   1.090   7.914
  964CHOL    C2 8695   0.698   0.866   8.231
  965XCA    COO 8696  11.149   7.716   4.451
  965XCA     C1 8697  11.419   7.329   4.554
  965XCA     C2 8698  11.568   7.067   4.915
  965XCA     C3 8699  11.450   7.043   5.325
  965XCA     C4 8700  11.526   7.070   5.734
  965XCA     C5 8701  11.519   6.902   6.117
  965XCA     C6 8702  11.173   6.729   6.388
  966XCA    COO 8703   4.543   8.259   8.069
  966XCA     C1 8704   4.481   8.080   7.643
  966XCA     C2 8705   4.377   8.163   7.226
  966XCA     C3 8706   4.503   7.881   6.951
  966XCA     C4 8707   4.930   7.705   6.954
  966XCA     C5 8708   5.285   7.869   7.052
  966XCA     C6 8709   5.681   7.794   6.905
  967PNCE   AM1 8710  14.268   6.006   4.753
  967PNCE   AM2 8711  14.454   6.301   4.788
  967PNCE   T1A 8712  14.278   6.020   5.217
  967PNCE   C2A 8713  14.250   6.155   5.645
  967PNCE   C3A 8714  14.014   6.283   6.014
  967PNCE   C1B 8715  14.371   6.531   5.174
  967PNCE   C2B 8716  14.159   6.887   5.338
  967PNCE   C3B 8717  13.818   7.082   5.561
  967PNCE   D4B 8718  13.936   7.388   5.855
  967PNCE   C5B 8719  14.198   7.197   6.170
  967PNCE   C6B 8720  14.126   7.029   6.604
  968PNCE   AM1 8721   7.025   8.399   4.559
  968PNCE   AM2 8722   7.318   8.376   4.456
  968PNCE   T1A 8723   6.992   8.223   4.976
  968PNCE   C2A 8724   6.650   8.148   5.283
  968PNCE   C3A 8725   6.478   8.384   5.657
  968PNCE   C1B 8726   7.528   8.225   4.862
  968PNCE   C2B 8727   7.560   7.853   5.124
  968PNCE   C3B 8728   7.479   7.398   5.030
  968PNCE   D4B 8729   7.235   7.079   5.242
  968PNCE   C5B 8730   7.458   6.810   5.557
  968PNCE   C6B 8731   7.581   6.635   5.974
  969PNCE   AM1 8732   0.075   7.026   4.154
  969PNCE   AM2 8733   0.133   6.683   4.193
  969PNCE   T1A 8734  15.751   7.127   4.584
  969PNCE   C2A 8735  15.651   7.115   5.022
  969PNCE   C3A 8736  15.653   6.723   5.262
  969PNCE   C1B 8737   0.020   6.619   4.641
  969PNCE   C2B 8738   0.061   6.338   5.003
  969PNCE   C3B 8739   0.349   6.439   5.316
  969PNCE   D4B 8740   0.522   6.513   5.675
  969PNCE   C5B 8741   0.402   6.202   5.984
  969PNCE   C6B 8742   0.465   5.861   6.259
  970CHOL   ROH 8743   5.309  11.584   7.544
  970CHOL    R1 8744   5.198  11.738   7.334
  970CHOL    R2 8745   5.110  11.997   7.370
  970CHOL    R3 8746   5.278  12.049   7.163
  970CHOL    R4 8747   5.068  12.253   7.142
  970CHOL    R5 8748   5.134  12.117   6.985
  970CHOL    C1 8749   5.202  12.452   6.815
  970CHOL    C2 8750   5.189  12.305   6.455
  971PNCE   AM1 8751   0.144   5.240   4.577
  971PNCE   AM2 8752   0.484   5.166   4.471
  971PNCE   T1A 8753   0.358   5.372   4.993
  971PNCE   C2A 8754   0.378   5.446   5.483
  971PNCE   C3A 8755   0.192   5.763   5.784
  971PNCE   C1B 8756   0.590   4.931   4.860
  971PNCE   C2B 8757   0.504   4.966   5.322
  971PNCE   C3B 8758   0.675   5.094   5.733
  971PNCE   D4B 8759   0.819   5.166   6.175
  971PNCE   C5B 8760   0.885   5.575   6.362
  971PNCE   C6B 8761   1.141   5.940   6.421
  972CHOL   ROH 8762  10.817   7.135   4.645
  972CHOL    R1 8763  10.902   6.902   4.782
  972CHOL    R2 8764  11.168   6.837   4.814
  972CHOL    R3 8765  11.101   6.827   5.078
  972CHOL    R4 8766  11.326   6.641   5.051
  972CHOL    R5 8767  11.131   6.597   5.138
  972CHOL    C1 8768  11.355   6.517   5.436
  972CHOL    C2 8769  11.619   6.205   5.483
  973PNCE   AM1 8770   3.618   4.768   4.462
  973PNCE   AM2 8771   3.662   5.125   4.487
  973PNCE   T1A 8772   3.484   4.801   4.911
  973PNCE   C2A 8773   3.708   4.679   5.315
  973PNCE   C3A 8774   4.062   4.944   5.541
  973PNCE   C1B 8775   3.930   5.010   4.876
  973PNCE   C2B 8776   4.163   4.714   5.084
  973PNCE   C3B 8777   4.327   4.472   5.398
  973PNCE   D4B 8778   4.479   4.163   5.660
  973PNCE   C5B 8779   4.472   3.755   5.644
  973PNCE   C6B 8780   4.675   3.540   5.940
  974XCA    COO 8781   8.976  11.195   4.846
  974XCA     C1 8782   8.972  11.276   5.324
  974XCA     C2 8783   8.796  11.197   5.713
  974XCA     C3 8784   8.725  10.999   6.084
  974XCA     C4 8785   8.680  11.042   6.501
  974XCA     C5 8786   8.526  10.974   6.891
  974XCA     C6 8787   8.623  10.759   7.240
  975CHOL   ROH 8788   0.888  13.997   6.088
  975CHOL    R1 8789   0.740  13.859   6.287
  975CHOL    R2 8790   0.513  13.713   6.229
  975CHOL    R3 8791   0.648  13.514   6.356
  975CHOL    R4 8792   0.371  13.417   6.338
  975CHOL    R5 8793   0.493  13.432   6.519
  975CHOL    C1 8794   0.415  13.058   6.521
  975CHOL    C2 8795   0.248  12.702   6.379
  976XCA    COO 8796  14.153   7.606   7.873
  976XCA     C1 8797  14.261   7.721   7.458
  976XCA     C2 8798  14.108   7.729   7.038
  976XCA     C3 8799  14.246   8.010   6.688
  976XCA     C4 8800  14.598   7.959   6.403
  976XCA     C5 8801  15.003   8.192   6.319
  976XCA     C6 8802  15.412   8.042   6.350
  977PNCE   AM1 8803   7.104   2.503   5.517
  977PNCE   AM2 8804   6.760   2.647   5.476
  977PNCE   T1A 8805   7.087   2.246   5.902
  977PNCE   C2A 8806   7.152   1.995   6.299
  977PNCE   C3A 8807   7.116   1.678   6.605
  977PNCE   C1B 8808   6.464   2.511   5.818
  977PNCE   C2B 8809   6.475   2.714   6.248
  977PNCE   C3B 8810   6.538   2.633   6.697
  977PNCE   D4B 8811   6.726   2.564   7.113
  977PNCE   C5B 8812   7.106   2.753   7.178
  977PNCE   C6B 8813   7.261   3.133   7.051
  978XCA    COO 8814  14.953   5.375   4.419
  978XCA     C1 8815  15.135   5.407   4.842
  978XCA     C2 8816  14.988   5.581   5.239
  978XCA     C3 8817  15.011   5.844   5.613
  978XCA     C4 8818  14.961   6.218   5.839
  978XCA     C5 8819  15.066   6.438   6.189
  978XCA     C6 8820  15.324   6.249   6.508
  979PNCE   AM1 8821  15.403   2.464   4.551
  979PNCE   AM2 8822  15.159   2.622   4.755
  979PNCE   T1A 8823  15.496   2.119   4.860
  979PNCE   C2A 8824  15.518   1.997   5.299
  979PNCE   C3A 8825  15.352   2.129   5.730
  979PNCE   C1B 8826  15.034   2.306   5.046
  979PNCE   C2B 8827  14.879   2.175   5.447
  979PNCE   C3B 8828  14.836   2.134   5.889
  979PNCE   D4B 8829  15.095   2.207   6.242
  979PNCE   C5B 8830  15.521   2.365   6.184
  979PNCE   C6B 8831   0.125   2.511   6.105
  980PNCE   AM1 8832   6.676  14.347   5.118
  980PNCE   AM2 8833   6.640  14.006   5.020
  980PNCE   T1A 8834   7.026  14.140   5.320
  980PNCE   C2A 8835   7.196  14.030   5.711
  980PNCE   C3A 8836   7.508  13.878   6.006
  980PNCE   C1B 8837   6.442  14.035   5.450
  980PNCE   C2B 8838   6.015  14.039   5.660
  980PNCE   C3B 8839   5.839  14.044   6.089
  980PNCE   D4B 8840   5.948  14.053   6.525
  980PNCE   C5B 8841   6.092  14.419   6.780
  980PNCE   C6B 8842   6.252  14.684   7.132
  981PNCE   AM1 8843   4.981   8.600   4.163
  981PNCE   AM2 8844   5.310   8.803   4.241
  981PNCE   T1A 8845   4.799   8.677   4.601
  981PNCE   C2A 8846   4.730   8.818   5.048
  981PNCE   C3A 8847   4.549   9.174   5.343
  981PNCE   C1B 8848   5.230   8.948   4.653
  981PNCE   C2B 8849   5.478   8.914   4.996
  981PNCE   C3B 8850   5.644   8.720   5.341
  981PNCE   D4B 8851   6.070   8.654   5.433
  981PNCE   C5B 8852   6.352   8.559   5.155
  981PNCE   C6B 8853   6.568   8.473   4.785
  982CHOL   ROH 8854   5.939   4.743   4.520
  982CHOL    R1 8855   5.903   4.893   4.757
  982CHOL    R2 8856   5.657   4.918   4.881
  982CHOL    R3 8857   5.793   4.826   5.098
  982CHOL    R4 8858   5.551   4.948   5.209
  982CHOL    R5 8859   5.756   4.992   5.266
  982CHOL    C1 8860   5.617   4.879   5.603
  982CHOL    C2 8861   5.724   5.120   5.915
  983PNCE   AM1 8862  15.714   8.767   4.726
  983PNCE   AM2 8863  15.382   8.848   4.627
  983PNCE   T1A 8864  15.724   8.641   5.142
  983PNCE   C2A 8865   0.146   8.381   5.391
  983PNCE   C3A 8866   0.308   8.287   5.770
  983PNCE   C1B 8867  15.247   8.504   4.931
  983PNCE   C2B 8868  15.125   8.417   5.359
  983PNCE   C3B 8869  15.218   8.658   5.740
  983PNCE   D4B 8870  15.266   9.009   6.020
  983PNCE   C5B 8871  14.988   9.169   6.350
  983PNCE   C6B 8872  14.854   9.103   6.788
  984XCA    COO 8873  12.212  13.175   9.131
  984XCA     C1 8874  12.440  13.142   8.726
  984XCA     C2 8875  12.399  13.233   8.279
  984XCA     C3 8876  12.550  13.249   7.856
  984XCA     C4 8877  12.669  13.143   7.435
  984XCA     C5 8878  12.841  13.264   7.048
  984XCA     C6 8879  12.992  13.496   6.697
  985CHOL   ROH 8880   4.494   9.207   3.734
  985CHOL    R1 8881   4.299   9.212   3.938
  985CHOL    R2 8882   4.142   8.994   4.000
  985CHOL    R3 8883   4.238   9.037   4.251
  985CHOL    R4 8884   3.972   8.922   4.292
  985CHOL    R5 8885   4.046   9.108   4.376
  985CHOL    C1 8886   3.962   8.921   4.697
  985CHOL    C2 8887   3.778   8.630   4.938
  986CHOL   ROH 8888   3.953   4.942   8.462
  986CHOL    R1 8889   4.031   4.937   8.190
  986CHOL    R2 8890   4.040   4.704   8.043
  986CHOL    R3 8891   3.879   4.843   7.873
  986CHOL    R4 8892   3.995   4.630   7.708
  986CHOL    R5 8893   3.999   4.844   7.666
  986CHOL    C1 8894   3.818   4.718   7.354
  986CHOL    C2 8895   3.921   4.714   6.967
  987XCA    COO 8896   2.073   0.841   4.943
  987XCA     C1 8897   2.067   0.912   5.391
  987XCA     C2 8898   2.059   0.981   5.793
  987XCA     C3 8899   1.886   1.150   6.123
  987XCA     C4 8900   1.912   1.407   6.438
  987XCA     C5 8901   1.599   1.322   6.700
  987XCA     C6 8902   1.518   1.101   7.043
  988PNCE   AM1 8903   4.891   8.929   3.655
  988PNCE   AM2 8904   5.004   9.057   3.915
  988PNCE   T1A 8905   4.562   8.785   3.906
  988PNCE   C2A 8906   4.410   8.591   4.243
  988PNCE   C3A 8907   4.297   8.620   4.657
  988PNCE   C1B 8908   4.731   9.109   4.287
  988PNCE   C2B 8909   4.466   9.096   4.644
  988PNCE   C3B 8910   4.214   9.285   4.924
  988PNCE   D4B 8911   4.060   8.995   5.211
  988PNCE   C5B 8912   4.278   8.615   5.174
  988PNCE   C6B 8913   4.158   8.223   5.163
  989CHOL   ROH 8914   6.136  10.354   9.211
  989CHOL    R1 8915   6.176  10.268   8.945
  989CHOL    R2 8916   6.408  10.323   8.804
  989CHOL    R3 8917   6.413  10.054   8.769
  989CHOL    R4 8918   6.567  10.161   8.544
  989CHOL    R5 8919   6.398  10.025   8.531
  989CHOL    C1 8920   6.665   9.814   8.359
  989CHOL    C2 8921   6.970   9.914   8.089
  990CHOL   ROH 8922   2.935  11.527   4.434
  990CHOL    R1 8923   2.925  11.437   4.702
  990CHOL    R2 8924   3.150  11.426   4.863
  990CHOL    R3 8925   2.997  11.576   5.030
  990CHOL    R4 8926   3.189  11.440   5.206
  990CHOL    R5 8927   2.972  11.440   5.226
  990CHOL    C1 8928   3.069  11.590   5.563
  990CHOL    C2 8929   3.240  11.743   5.924
  991CHOL   ROH 8930   7.707  15.051   7.166
  991CHOL    R1 8931   7.804  14.974   6.911
  991CHOL    R2 8932   8.036  14.829   6.879
  991CHOL    R3 8933   7.875  14.661   6.739
  991CHOL    R4 8934   8.145  14.594   6.650
  991CHOL    R5 8935   7.976  14.646   6.523
  991CHOL    C1 8936   8.057  14.300   6.385
  991CHOL    C2 8937   8.021  14.070   6.059
  992CHOL   ROH 8938   3.257   0.222   5.450
  992CHOL    R1 8939   3.392   0.262   5.696
  992CHOL    R2 8940   3.388   0.077   5.900
  992CHOL    R3 8941   3.658   0.098   5.882
  992CHOL    R4 8942   3.613  15.756   6.115
  992CHOL    R5 8943   3.732   0.109   6.109
  992CHOL    C1 8944   3.998  15.690   6.223
  992CHOL    C2 8945   4.387  15.625   6.371
  993CHOL   ROH 8946   0.803  15.098   5.813
  993CHOL    R1 8947   0.616  15.304   5.759
  993CHOL    R2 8948   0.385  15.260   5.614
  993CHOL    R3 8949   0.266  15.369   5.833
  993CHOL    R4 8950   0.076  15.415   5.615
  993CHOL    R5 8951   0.157  15.565   5.750
  993CHOL    C1 8952  15.613  15.607   5.821
  993CHOL    C2 8953  15.247  15.569   5.996
  994CHOL   ROH 8954  12.408  14.088   7.423
  994CHOL    R1 8955  12.431  14.197   7.684
  994CHOL    R2 8956  12.212  14.271   7.834
  994CHOL    R3 8957  12.322  14.105   8.019
  994CHOL    R4 8958  12.137  14.273   8.172
  994CHOL    R5 8959  12.349  14.242   8.213
  994CHOL    C1 8960  12.198  14.120   8.542
  994CHOL    C2 8961  11.917  14.052   8.893
  995PNCE   AM1 8962  10.517   8.974   4.140
  995PNCE   AM2 8963  10.603   8.659   4.297
  995PNCE   T1A 8964  10.508   9.077   4.609
  995PNCE   C2A 8965  10.401   9.210   5.037
  995PNCE   C3A 8966  10.384   9.175   5.498
  995PNCE   C1B 8967  10.733   8.605   4.751
  995PNCE   C2B 8968  10.634   8.770   5.153
  995PNCE   C3B 8969  10.624   8.740   5.613
  995PNCE   D4B 8970  10.530   8.946   5.979
  995PNCE   C5B 8971  10.829   8.825   6.265
  995PNCE   C6B 8972  11.036   8.448   6.380
  996CHOL   ROH 8973  13.324  14.875   5.045
  996CHOL    R1 8974  13.148  14.920   5.262
  996CHOL    R2 8975  13.068  14.718   5.432
  996CHOL    R3 8976  13.161  14.886   5.624
  996CHOL    R4 8977  12.976  14.707   5.765
  996CHOL    R5 8978  12.972  14.925   5.766
  996CHOL    C1 8979  13.010  14.859   6.139
  996CHOL    C2 8980  12.812  14.952   6.508
  997PNCE   AM1 8981   0.004   1.482   4.683
  997PNCE   AM2 8982   0.093   1.821   4.709
  997PNCE   T1A 8983  15.404   1.595   4.736
  997PNCE   C2A 8984  15.052   1.786   4.959
  997PNCE   C3A 8985  14.629   1.958   5.050
  997PNCE   C1B 8986   0.152   1.719   5.156
  997PNCE   C2B 8987  15.808   1.679   5.586
  997PNCE   C3B 8988  15.467   1.614   5.865
  997PNCE   D4B 8989  15.056   1.697   6.043
  997PNCE   C5B 8990  14.993   1.785   6.496
  997PNCE   C6B 8991  15.071   2.083   6.871
  998PNCE   AM1 8992   2.803   6.901   4.369
  998PNCE   AM2 8993   2.470   6.775   4.414
  998PNCE   T1A 8994   3.134   6.674   4.555
  998PNCE   C2A 8995   3.454   6.504   4.826
  998PNCE   C3A 8996   3.792   6.548   5.125
  998PNCE   C1B 8997   2.695   6.780   4.847
  998PNCE   C2B 8998   2.738   7.024   5.242
  998PNCE   C3B 8999   2.668   7.287   5.597
  998PNCE   D4B 9000   2.480   7.328   6.011
  998PNCE   C5B 9001   2.480   7.739   6.230
  998PNCE   C6B 9002   2.701   7.861   6.624
  999CHOL   ROH 9003  14.520   8.996   4.033
  999CHOL    R1 9004  14.557   8.927   4.305
  999CHOL    R2 9005  14.367   8.977   4.498
  999CHOL    R3 9006  14.393   8.711   4.548
  999CHOL    R4 9007  14.218   8.809   4.761
  999CHOL    R5 9008  14.402   8.695   4.786
  999CHOL    C1 9009  14.155   8.462   4.960
  999CHOL    C2 9010  14.162   8.147   5.204
 1000CHOL   ROH 9011  15.145  10.236   7.764
 1000CHOL    R1 9012  15.275  10.197   7.516
 1000CHOL    R2 9013  15.231   9.974   7.359
 1000CHOL    R3 9014  15.175  10.159   7.168
 1000CHOL    R4 9015  15.293   9.935   7.021
 1000CHOL    R5 9016  15.357  10.143   7.014
 1000CHOL    C1 9017  15.275  10.087   6.645
 1000CHOL    C2 9018  15.622  10.013   6.453
 1001XCA    COO 9019   1.987   7.989   4.484
 1001XCA     C1 9020   2.062   7.898   4.940
 1001XCA     C2 9021   1.939   7.773   5.348
 1001XCA     C3 9022   1.674   7.634   5.686
 1001XCA     C4 9023   1.413   7.294   5.841
 1001XCA     C5 9024   1.116   6.984   5.939
 1001XCA     C6 9025   0.826   6.663   6.025
 1002CHOL   ROH 9026  13.827  11.608   8.190
 1002CHOL    R1 9027  13.764  11.582   7.915
 1002CHOL    R2 9028  13.934  11.669   7.715
 1002CHOL    R3 9029  13.907  11.413   7.626
 1002CHOL    R4 9030  14.016  11.561   7.397
 1002CHOL    R5 9031  13.836  11.437   7.398
 1002CHOL    C1 9032  14.038  11.258   7.128
 1002CHOL    C2 9033  14.326  11.085   6.914
 1003PNCE   AM1 9034   2.651  14.516   4.793
 1003PNCE   AM2 9035   2.813  14.761   5.007
 1003PNCE   T1A 9036   2.913  14.268   5.112
 1003PNCE   C2A 9037   3.070  14.001   5.451
 1003PNCE   C3A 9038   3.196  13.708   5.765
 1003PNCE   C1B 9039   3.164  14.671   5.332
 1003PNCE   C2B 9040   3.372  14.473   5.714
 1003PNCE   C3B 9041   3.359  14.471   6.179
 1003PNCE   D4B 9042   3.441  14.303   6.529
 1003PNCE   C5B 9043   3.580  13.907   6.668
 1003PNCE   C6B 9044   3.465  13.745   7.058
 1004CHOL   ROH 9045   1.157   5.624   4.975
 1004CHOL    R1 9046   1.382   5.489   5.083
 1004CHOL    R2 9047   1.439   5.490   5.353
 1004CHOL    R3 9048   1.439   5.220   5.321
 1004CHOL    R4 9049   1.580   5.264   5.575
 1004CHOL    R5 9050   1.653   5.150   5.404
 1004CHOL    C1 9051   1.663   4.880   5.673
 1004CHOL    C2 9052   1.749   4.974   6.059
 1005PNCE   AM1 9053  10.549   3.861   4.263
 1005PNCE   AM2 9054  10.810   3.962   4.084
 1005PNCE   T1A 9055  10.436   4.040   4.632
 1005PNCE   C2A 9056  10.268   4.437   4.697
 1005PNCE   C3A 9057  10.139   4.701   4.990
 1005PNCE   C1B 9058  11.047   3.671   4.322
 1005PNCE   C2B 9059  11.289   3.577   4.680
 1005PNCE   C3B 9060  11.391   3.792   5.051
 1005PNCE   D4B 9061  11.637   3.655   5.395
 1005PNCE   C5B 9062  11.933   3.909   5.620
 1005PNCE   C6B 9063  12.022   4.354   5.585
 1006PNCE   AM1 9064   5.466   3.578   4.936
 1006PNCE   AM2 9065   5.620   3.840   4.717
 1006PNCE   T1A 9066   5.369   3.698   5.384
 1006PNCE   C2A 9067   5.517   3.934   5.764
 1006PNCE   C3A 9068   5.392   4.246   6.039
 1006PNCE   C1B 9069   5.831   3.883   5.132
 1006PNCE   C2B 9070   5.977   3.981   5.536
 1006PNCE   C3B 9071   6.021   4.012   5.966
 1006PNCE   D4B 9072   6.359   4.281   6.206
 1006PNCE   C5B 9073   6.436   4.237   6.648
 1006PNCE   C6B 9074   6.442   4.042   7.026
 1007PNCE   AM1 9075   4.698  15.244   3.596
 1007PNCE   AM2 9076   4.445  15.215   3.872
 1007PNCE   T1A 9077   4.925  15.043   3.955
 1007PNCE   C2A 9078   4.998  14.721   4.274
 1007PNCE   C3A 9079   5.262  14.568   4.627
 1007PNCE   C1B 9080   4.492  14.988   4.256
 1007PNCE   C2B 9081   4.529  14.577   4.446
 1007PNCE   C3B 9082   4.864  14.253   4.476
 1007PNCE   D4B 9083   4.719  13.833   4.476
 1007PNCE   C5B 9084   4.320  13.897   4.687
 1007PNCE   C6B 9085   3.890  13.915   4.876
 1008CHOL   ROH 9086   7.061   4.754   6.896
 1008CHOL    R1 9087   6.940   4.725   6.642
 1008CHOL    R2 9088   6.974   4.909   6.439
 1008CHOL    R3 9089   7.053   4.691   6.297
 1008CHOL    R4 9090   6.941   4.872   6.097
 1008CHOL    R5 9091   6.885   4.664   6.129
 1008CHOL    C1 9092   6.997   4.646   5.765
 1008CHOL    C2 9093   7.062   4.450   5.408
 1009CHOL   ROH 9094  12.866  15.227   4.912
 1009CHOL    R1 9095  12.985  15.344   5.141
 1009CHOL    R2 9096  12.838  15.420   5.362
 1009CHOL    R3 9097  13.015  15.262   5.494
 1009CHOL    R4 9098  12.894  15.429   5.703
 1009CHOL    R5 9099  13.106  15.404   5.664
 1009CHOL    C1 9100  13.092  15.285   6.026
 1009CHOL    C2 9101  13.157  15.312   6.432
 1010CHOL   ROH 9102   1.282  12.274   5.041
 1010CHOL    R1 9103   1.383  12.130   5.262
 1010CHOL    R2 9104   1.652  12.076   5.294
 1010CHOL    R3 9105   1.613  12.193   5.537
 1010CHOL    R4 9106   1.843  12.014   5.576
 1010CHOL    R5 9107   1.660  12.019   5.695
 1010CHOL    C1 9108   1.918  12.088   5.967
 1010CHOL    C2 9109   2.053  12.139   6.332
 1011XCA    COO 9110   3.288  10.221   4.045
 1011XCA     C1 9111   3.328   9.978   4.465
 1011XCA     C2 9112   3.168  10.064   4.902
 1011XCA     C3 9113   3.352  10.258   5.261
 1011XCA     C4 9114   3.364  10.614   5.536
 1011XCA     C5 9115   3.159  10.723   5.913
 1011XCA     C6 9116   3.189  10.747   6.337
 1012PNCE   AM1 9117   9.358   3.121   5.330
 1012PNCE   AM2 9118   9.487   2.983   5.075
 1012PNCE   T1A 9119   9.612   3.250   5.621
 1012PNCE   C2A 9120   9.871   3.508   5.833
 1012PNCE   C3A 9121   9.997   3.851   6.101
 1012PNCE   C1B 9122   9.730   2.746   5.417
 1012PNCE   C2B 9123   9.659   2.454   5.779
 1012PNCE   C3B 9124   9.655   2.400   6.231
 1012PNCE   D4B 9125   9.566   2.615   6.641
 1012PNCE   C5B 9126   9.307   2.536   7.051
 1012PNCE   C6B 9127   9.058   2.646   7.422
 1013CHOL   ROH 9128  10.873  14.969   5.798
 1013CHOL    R1 9129  10.901  14.889   6.068
 1013CHOL    R2 9130  11.131  14.934   6.214
 1013CHOL    R3 9131  10.959  15.051   6.388
 1013CHOL    R4 9132  11.215  15.043   6.531
 1013CHOL    R5 9133  11.025  14.966   6.602
 1013CHOL    C1 9134  11.103  15.217   6.879
 1013CHOL    C2 9135  10.910  15.489   7.161
 1014PNCE   AM1 9136  12.473  10.906   4.429
 1014PNCE   AM2 9137  12.707  11.168   4.548
 1014PNCE   T1A 9138  12.371  10.819   4.878
 1014PNCE   C2A 9139  12.474  10.831   5.350
 1014PNCE   C3A 9140  12.401  10.676   5.775
 1014PNCE   C1B 9141  12.533  11.260   4.992
 1014PNCE   C2B 9142  12.215  11.277   5.362
 1014PNCE   C3B 9143  11.823  11.225   5.623
 1014PNCE   D4B 9144  11.540  11.270   6.000
 1014PNCE   C5B 9145  11.165  11.049   6.005
 1014PNCE   C6B 9146  10.865  10.820   5.859
 1015XCA    COO 9147   8.188   6.355   5.183
 1015XCA     C1 9148   8.581   6.363   5.387
 1015XCA     C2 9149   8.756   6.089   5.667
 1015XCA     C3 9150   9.134   6.142   5.947
 1015XCA     C4 9151   9.542   6.264   6.119
 1015XCA     C5 9152   9.933   6.340   6.257
 1015XCA     C6 9153  10.356   6.400   6.344
 1016CHOL   ROH 9154   4.564   3.979   6.193
 1016CHOL    R1 9155   4.404   4.121   6.378
 1016CHOL    R2 9156   4.444   4.389   6.434
 1016CHOL    R3 9157   4.181   4.408   6.369
 1016CHOL    R4 9158   4.239   4.653   6.518
 1016CHOL    R5 9159   4.080   4.511   6.560
 1016CHOL    C1 9160   3.872   4.826   6.507
 1016CHOL    C2 9161   3.590   5.095   6.445
 1017XCA    COO 9162  12.743   1.711   4.659
 1017XCA     C1 9163  12.839   1.706   5.123
 1017XCA     C2 9164  13.091   1.449   5.386
 1017XCA     C3 9165  13.292   1.454   5.762
 1017XCA     C4 9166  13.294   1.821   6.016
 1017XCA     C5 9167  13.541   2.190   5.983
 1017XCA     C6 9168  13.630   2.584   5.794
 1018CHOL   ROH 9169   1.568   0.083   5.370
 1018CHOL    R1 9170   1.745   0.140   5.583
 1018CHOL    R2 9171   1.660   0.247   5.823
 1018CHOL    R3 9172   1.788   0.032   5.928
 1018CHOL    R4 9173   1.868   0.255   6.099
 1018CHOL    R5 9174   2.001   0.117   5.997
 1018CHOL    C1 9175   2.110   0.059   6.357
 1018CHOL    C2 9176   2.424   0.297   6.506
 1019PNCE   AM1 9177  15.205   9.541   4.954
 1019PNCE   AM2 9178  15.020   9.802   4.739
 1019PNCE   T1A 9179  14.954   9.418   5.294
 1019PNCE   C2A 9180  14.604   9.332   5.574
 1019PNCE   C3A 9181  14.219   9.091   5.605
 1019PNCE   C1B 9182  14.798   9.924   5.105
 1019PNCE   C2B 9183  14.692   9.840   5.510
 1019PNCE   C3B 9184  14.621   9.730   5.947
 1019PNCE   D4B 9185  14.835   9.683   6.309
 1019PNCE   C5B 9186  15.255   9.716   6.229
 1019PNCE   C6B 9187  15.626   9.600   5.986
 1020XCA    COO 9188   0.519   7.527   8.232
 1020XCA     C1 9189   0.572   7.788   7.871
 1020XCA     C2 9190   0.517   8.017   7.485
 1020XCA     C3 9191   0.612   8.240   7.121
 1020XCA     C4 9192   0.480   8.241   6.708
 1020XCA     C5 9193   0.499   8.421   6.260
 1020XCA     C6 9194   0.437   8.879   6.134
 1021PNCE   AM1 9195   0.048   8.258   4.852
 1021PNCE   AM2 9196  15.690   8.159   4.546
 1021PNCE   T1A 9197   0.346   8.002   5.121
 1021PNCE   C2A 9198   0.592   7.953   5.508
 1021PNCE   C3A 9199   0.813   8.086   5.879
 1021PNCE   C1B 9200  15.260   8.051   4.647
 1021PNCE   C2B 9201  15.029   8.011   5.022
 1021PNCE   C3B 9202  14.975   7.855   5.426
 1021PNCE   D4B 9203  14.908   7.448   5.625
 1021PNCE   C5B 9204  14.680   7.423   6.056
 1021PNCE   C6B 9205  14.633   7.192   6.459
 1022XCA    COO 9206  11.063  15.689   5.080
 1022XCA     C1 9207  11.382  15.766   5.402
 1022XCA     C2 9208  11.356  15.757   5.852
 1022XCA     C3 9209  11.411  15.809   6.276
 1022XCA     C4 9210  11.819  15.723   6.445
 1022XCA     C5 9211  12.125  15.696   6.779
 1022XCA     C6 9212  12.373  15.554   7.163
 1023CHOL   ROH 9213   2.933  10.174   6.187
 1023CHOL    R1 9214   2.782   9.990   6.034
 1023CHOL    R2 9215   2.878   9.875   5.803
 1023CHOL    R3 9216   2.815   9.643   5.929
 1023CHOL    R4 9217   2.824   9.572   5.645
 1023CHOL    R5 9218   2.659   9.536   5.782
 1023CHOL    C1 9219   2.733   9.178   5.673
 1023CHOL    C2 9220   2.761   9.006   5.302
 1024XCA    COO 9221  11.731   2.583   8.217
 1024XCA     C1 9222  11.722   2.645   7.755
 1024XCA     C2 9223  11.810   2.793   7.310
 1024XCA     C3 9224  11.799   3.121   6.967
 1024XCA     C4 9225  11.613   3.530   6.863
 1024XCA     C5 9226  11.534   3.845   6.531
 1024XCA     C6 9227  11.543   3.866   6.088
 1025CHOL   ROH 9228   1.838   6.104   8.151
 1025CHOL    R1 9229   1.782   5.968   7.909
 1025CHOL    R2 9230   1.643   6.085   7.701
 1025CHOL    R3 9231   1.861   6.011   7.556
 1025CHOL    R4 9232   1.656   6.070   7.356
 1025CHOL    R5 9233   1.772   5.887   7.372
 1025CHOL    C1 9234   1.868   5.994   7.019
 1025CHOL    C2 9235   2.003   6.155   6.673
 1026CHOL   ROH 9236   3.245  14.673   4.765
 1026CHOL    R1 9237   3.296  14.418   4.876
 1026CHOL    R2 9238   3.546  14.343   4.965
 1026CHOL    R3 9239   3.413  14.288   5.195
 1026CHOL    R4 9240   3.673  14.157   5.228
 1026CHOL    R5 9241   3.477  14.064   5.250
 1026CHOL    C1 9242   3.622  13.998   5.597
 1026CHOL    C2 9243   3.689  13.604   5.656
 1027PNCE   AM1 9244   4.424   5.911   4.376
 1027PNCE   AM2 9245   4.706   6.079   4.559
 1027PNCE   T1A 9246   4.342   5.825   4.807
 1027PNCE   C2A 9247   4.380   5.890   5.253
 1027PNCE   C3A 9248   4.281   5.854   5.688
 1027PNCE   C1B 9249   4.808   6.022   4.988
 1027PNCE   C2B 9250   4.830   6.072   5.432
 1027PNCE   C3B 9251   4.756   5.913   5.852
 1027PNCE   D4B 9252   4.512   5.831   6.220
 1027PNCE   C5B 9253   4.066   5.934   6.183
 1027PNCE   C6B 9254   3.784   5.958   6.519
 1028CHOL   ROH 9255   3.093  15.674   5.619
 1028CHOL    R1 9256   2.892  15.761   5.798
 1028CHOL    R2 9257   2.649  15.633   5.823
 1028CHOL    R3 9258   2.717  15.624   6.086
 1028CHOL    R4 9259   2.427  15.581   6.083
 1028CHOL    R5 9260   2.535  15.731   6.198
 1028CHOL    C1 9261   2.362  15.542   6.481
 1028CHOL    C2 9262   2.154  15.732   6.791
 1029PNCE   AM1 9263  12.766  10.404   4.404
 1029PNCE   AM2 9264  12.891  10.664   4.628
 1029PNCE   T1A 9265  12.623  10.040   4.662
 1029PNCE   C2A 9266  12.633   9.616   4.789
 1029PNCE   C3A 9267  12.535   9.370   5.159
 1029PNCE   C1B 9268  12.789  10.475   5.051
 1029PNCE   C2B 9269  12.628  10.307   5.468
 1029PNCE   C3B 9270  12.371  10.158   5.848
 1029PNCE   D4B 9271  12.135   9.782   5.990
 1029PNCE   C5B 9272  11.699   9.630   5.948
 1029PNCE   C6B 9273  11.236   9.745   5.982
 1030XCA    COO 9274   1.533  13.407   8.491
 1030XCA     C1 9275   1.078  13.561   8.453
 1030XCA     C2 9276   0.676  13.419   8.291
 1030XCA     C3 9277   0.244  13.406   8.215
 1030XCA     C4 9278   0.156  13.532   7.825
 1030XCA     C5 9279   0.051  13.354   7.429
 1030XCA     C6 9280  15.797  13.299   6.985
 1031CHOL   ROH 9281   0.619  11.283   8.659
 1031CHOL    R1 9282   0.471  11.192   8.436
 1031CHOL    R2 9283   0.230  11.305   8.361
 1031CHOL    R3 9284   0.355  11.332   8.121
 1031CHOL    R4 9285   0.072  11.383   8.064
 1031CHOL    R5 9286   0.201  11.239   7.963
 1031CHOL    C1 9287   0.096  11.454   7.665
 1031CHOL    C2 9288  15.588  11.558   7.419
 1032PNCE   AM1 9289  13.244  11.535   5.010
 1032PNCE   AM2 9290  12.923  11.567   4.865
 1032PNCE   T1A 9291  13.372  11.215   5.304
 1032PNCE   C2A 9292  13.554  10.818   5.445
 1032PNCE   C3A 9293  13.584  10.520   5.775
 1032PNCE   C1B 9294  12.887  11.382   5.312
 1032PNCE   C2B 9295  12.679  11.197   5.668
 1032PNCE   C3B 9296  12.277  11.158   5.885
 1032PNCE   D4B 9297  11.954  10.966   6.137
 1032PNCE   C5B 9298  11.992  11.065   6.576
 1032PNCE   C6B 9299  11.851  10.912   6.971
 1033PNCE   AM1 9300   3.532  14.443   8.243
 1033PNCE   AM2 9301   3.783  14.653   8.381
 1033PNCE   T1A 9302   3.486  14.520   7.816
 1033PNCE   C2A 9303   3.303  14.481   7.403
 1033PNCE   C3A 9304   3.282  14.256   7.002
 1033PNCE   C1B 9305   4.110  14.756   8.066
 1033PNCE   C2B 9306   4.144  14.937   7.638
 1033PNCE   C3B 9307   4.268  15.140   7.256
 1033PNCE   D4B 9308   4.332  15.489   6.951
 1033PNCE   C5B 9309   4.727  15.443   6.729
 1033PNCE   C6B 9310   4.937  15.029   6.658
 1034PNCE   AM1 9311   9.283   7.508   4.433
 1034PNCE   AM2 9312   9.605   7.648   4.566
 1034PNCE   T1A 9313   9.509   7.136   4.577
 1034PNCE   C2A 9314   9.581   6.707   4.753
 1034PNCE   C3A 9315   9.783   6.377   4.463
 1034PNCE   C1B 9316   9.703   7.562   5.011
 1034PNCE   C2B 9317   9.767   7.699   5.435
 1034PNCE   C3B 9318   9.657   7.880   5.826
 1034PNCE   D4B 9319   9.815   7.960   6.239
 1034PNCE   C5B 9320  10.209   8.212   6.300
 1034PNCE   C6B 9321  10.395   8.619   6.461
 1035CHOL   ROH 9322   8.183   9.072   4.471
 1035CHOL    R1 9323   8.014   9.008   4.689
 1035CHOL    R2 9324   8.094   8.844   4.896
 1035CHOL    R3 9325   8.018   9.055   5.050
 1035CHOL    R4 9326   8.029   8.828   5.235
 1035CHOL    R5 9327   7.860   8.962   5.204
 1035CHOL    C1 9328   7.920   9.016   5.577
 1035CHOL    C2 9329   7.793   9.074   5.998
 1036PNCE   AM1 9330  11.567   0.652   4.965
 1036PNCE   AM2 9331  11.436   0.964   4.802
 1036PNCE   T1A 9332  11.739   0.288   5.207
 1036PNCE   C2A 9333  11.856   0.108   5.587
 1036PNCE   C3A 9334  11.761   0.250   6.015
 1036PNCE   C1B 9335  11.506   1.047   5.286
 1036PNCE   C2B 9336  11.588   1.048   5.735
 1036PNCE   C3B 9337  11.588   0.739   6.068
 1036PNCE   D4B 9338  11.735   0.766   6.478
 1036PNCE   C5B 9339  11.418   0.829   6.788
 1036PNCE   C6B 9340  11.087   0.557   6.883
 1037XCA    COO 9341   1.872  11.612   8.594
 1037XCA     C1 9342   1.685  11.774   8.195
 1037XCA     C2 9343   1.276  11.891   8.044
 1037XCA     C3 9344   0.830  11.923   7.930
 1037XCA     C4 9345   0.522  12.146   7.667
 1037XCA     C5 9346   0.073  12.057   7.631
 1037XCA     C6 9347  15.662  12.200   7.955
 1038PNCE   AM1 9348  15.007  11.545   4.935
 1038PNCE   AM2 9349  14.779  11.776   4.828
 1038PNCE   T1A 9350  14.953  11.170   5.202
 1038PNCE   C2A 9351  14.918  10.938   5.604
 1038PNCE   C3A 9352  15.206  10.644   5.829
 1038PNCE   C1B 9353  14.872  12.024   5.173
 1038PNCE   C2B 9354  14.935  12.053   5.606
 1038PNCE   C3B 9355  14.880  11.824   5.995
 1038PNCE   D4B 9356  14.760  11.845   6.434
 1038PNCE   C5B 9357  14.345  11.986   6.568
 1038PNCE   C6B 9358  14.246  12.254   6.918
 1039CHOL   ROH 9359   7.917  11.337   8.624
 1039CHOL    R1 9360   7.811  11.168   8.424
 1039CHOL    R2 9361   7.618  11.251   8.246
 1039CHOL    R3 9362   7.796  11.164   8.061
 1039CHOL    R4 9363   7.537  11.144   7.927
 1039CHOL    R5 9364   7.684  10.985   7.948
 1039CHOL    C1 9365   7.657  11.000   7.568
 1039CHOL    C2 9366   7.710  11.004   7.167
 1040CHOL   ROH 9367  14.681   2.128   6.576
 1040CHOL    R1 9368  14.753   2.395   6.517
 1040CHOL    R2 9369  14.596   2.611   6.589
 1040CHOL    R3 9370  14.825   2.698   6.706
 1040CHOL    R4 9371  14.678   2.943   6.640
 1040CHOL    R5 9372  14.883   2.895   6.585
 1040CHOL    C1 9373  14.941   3.217   6.781
 1040CHOL    C2 9374  14.991   3.620   6.833
 1041CHOL   ROH 9375   5.585  10.731   7.276
 1041CHOL    R1 9376   5.808  10.584   7.369
 1041CHOL    R2 9377   6.049  10.703   7.433
 1041CHOL    R3 9378   6.013  10.575   7.670
 1041CHOL    R4 9379   6.297  10.647   7.667
 1041CHOL    R5 9380   6.214  10.448   7.701
 1041CHOL    C1 9381   6.407  10.494   8.026
 1041CHOL    C2 9382   6.526  10.149   8.050
 1042PNCE   AM1 9383  13.356  10.668   4.949
 1042PNCE   AM2 9384  13.591  10.507   4.732
 1042PNCE   T1A 9385  13.258  10.403   5.311
 1042PNCE   C2A 9386  13.096  10.191   5.652
 1042PNCE   C3A 9387  12.878   9.876   5.880
 1042PNCE   C1B 9388  13.790  10.348   5.119
 1042PNCE   C2B 9389  13.828  10.118   5.519
 1042PNCE   C3B 9390  13.827   9.889   5.911
 1042PNCE   D4B 9391  14.132   9.989   6.230
 1042PNCE   C5B 9392  14.170   9.709   6.535
 1042PNCE   C6B 9393  14.501   9.423   6.583
 1043PNCE   AM1 9394   6.067  15.105   4.496
 1043PNCE   AM2 9395   5.819  14.824   4.456
 1043PNCE   T1A 9396   6.076  15.136   4.969
 1043PNCE   C2A 9397   5.950  14.885   5.325
 1043PNCE   C3A 9398   5.616  14.782   5.615
 1043PNCE   C1B 9399   5.759  14.468   4.795
 1043PNCE   C2B 9400   5.748  14.397   5.266
 1043PNCE   C3B 9401   5.537  14.274   5.656
 1043PNCE   D4B 9402   5.440  13.869   5.822
 1043PNCE   C5B 9403   5.638  13.532   5.577
 1043PNCE   C6B 9404   5.777  13.105   5.507
 1044PNCE   AM1 9405   6.972  12.996   5.047
 1044PNCE   AM2 9406   6.639  13.149   5.056
 1044PNCE   T1A 9407   6.889  12.603   5.284
 1044PNCE   C2A 9408   7.056  12.210   5.459
 1044PNCE   C3A 9409   7.217  12.172   5.870
 1044PNCE   C1B 9410   6.334  13.120   5.415
 1044PNCE   C2B 9411   6.166  13.045   5.832
 1044PNCE   C3B 9412   6.133  13.187   6.252
 1044PNCE   D4B 9413   6.059  13.561   6.445
 1044PNCE   C5B 9414   6.298  13.539   6.810
 1044PNCE   C6B 9415   6.573  13.261   7.028
 1045CHOL   ROH 9416  14.914  10.612   7.896
 1045CHOL    R1 9417  14.650  10.614   7.794
 1045CHOL    R2 9418  14.586  10.723   7.548
 1045CHOL    R3 9419  14.478  10.478   7.503
 1045CHOL    R4 9420  14.357  10.651   7.299
 1045CHOL    R5 9421  14.251  10.524   7.441
 1045CHOL    C1 9422  14.122  10.379   7.112
 1045CHOL    C2 9423  14.004  10.302   6.713
 1046CHOL   ROH 9424  15.741  11.764   8.121
 1046CHOL    R1 9425  15.605  11.736   7.874
 1046CHOL    R2 9426  15.332  11.771   7.850
 1046CHOL    R3 9427  15.404  11.949   7.658
 1046CHOL    R4 9428  15.114  11.920   7.627
 1046CHOL    R5 9429  15.264  11.894   7.471
 1046CHOL    C1 9430  15.055  12.173   7.316
 1046CHOL    C2 9431  14.976  12.531   7.067
 1047PNCE   AM1 9432  14.933  13.261   4.953
 1047PNCE   AM2 9433  15.030  12.922   5.033
 1047PNCE   T1A 9434  14.951  13.281   5.432
 1047PNCE   C2A 9435  15.014  13.467   5.859
 1047PNCE   C3A 9436  14.980  13.421   6.346
 1047PNCE   C1B 9437  15.225  12.768   5.435
 1047PNCE   C2B 9438  15.088  12.512   5.801
 1047PNCE   C3B 9439  14.894  12.302   6.184
 1047PNCE   D4B 9440  14.691  12.358   6.632
 1047PNCE   C5B 9441  14.462  12.736   6.851
 1047PNCE   C6B 9442  14.144  12.834   7.204
 1048CHOL   ROH 9443  11.094   3.361   7.245
 1048CHOL    R1 9444  10.899   3.177   7.336
 1048CHOL    R2 9445  10.940   2.904   7.335
 1048CHOL    R3 9446  10.874   2.926   7.598
 1048CHOL    R4 9447  10.831   2.643   7.533
 1048CHOL    R5 9448  10.687   2.779   7.624
 1048CHOL    C1 9449  10.706   2.511   7.895
 1048CHOL    C2 9450  10.790   2.168   7.873
 1049CHOL   ROH 9451  13.334  13.585   5.167
 1049CHOL    R1 9452  13.358  13.470   5.425
 1049CHOL    R2 9453  13.590  13.486   5.573
 1049CHOL    R3 9454  13.424  13.589   5.763
 1049CHOL    R4 9455  13.669  13.520   5.908
 1049CHOL    R5 9456  13.467  13.456   5.958
 1049CHOL    C1 9457  13.560  13.636   6.281
 1049CHOL    C2 9458  13.465  13.688   6.685
 1050CHOL   ROH 9459   0.740   2.898   6.774
 1050CHOL    R1 9460   1.005   2.877   6.873
 1050CHOL    R2 9461   1.211   2.771   6.724
 1050CHOL    R3 9462   1.332   3.007   6.782
 1050CHOL    R4 9463   1.544   2.842   6.665
 1050CHOL    R5 9464   1.551   2.946   6.857
 1050CHOL    C1 9465   1.852   3.105   6.685
 1050CHOL    C2 9466   2.255   2.999   6.550
 1051CHOL   ROH 9467  11.661  14.218   8.540
 1051CHOL    R1 9468  11.720  14.275   8.269
 1051CHOL    R2 9469  11.572  14.453   8.118
 1051CHOL    R3 9470  11.814  14.567   8.074
 1051CHOL    R4 9471  11.644  14.666   7.856
 1051CHOL    R5 9472  11.837  14.567   7.835
 1051CHOL    C1 9473  11.913  14.898   7.661
 1051CHOL    C2 9474  12.178  14.926   7.291
 1052CHOL   ROH 9475  10.125  14.762   7.484
 1052CHOL    R1 9476   9.948  14.574   7.599
 1052CHOL    R2 9477   9.745  14.647   7.772
 1052CHOL    R3 9478   9.590  14.511   7.595
 1052CHOL    R4 9479   9.419  14.549   7.830
 1052CHOL    R5 9480   9.463  14.360   7.730
 1052CHOL    C1 9481   9.083  14.364   7.698
 1052CHOL    C2 9482   8.823  14.372   8.020
 1053CHOL   ROH 9483  13.277  15.477   8.979
 1053CHOL    R1 9484  13.106  15.340   8.800
 1053CHOL    R2 9485  12.994  15.462   8.579
 1053CHOL    R3 9486  13.108  15.253   8.447
 1053CHOL    R4 9487  12.893  15.345   8.270
 1053CHOL    R5 9488  12.923  15.142   8.342
 1053CHOL    C1 9489  12.941  15.082   7.965
 1053CHOL    C2 9490  12.660  15.024   7.676
 1054PNCE   AM1 9491   2.784  15.565   5.194
 1054PNCE   AM2 9492   2.718  15.273   5.051
 1054PNCE   T1A 9493   2.726   0.133   5.402
 1054PNCE   C2A 9494   2.938   0.476   5.665
 1054PNCE   C3A 9495   3.309   0.779   5.700
 1054PNCE   C1B 9496   2.813  15.052   5.462
 1054PNCE   C2B 9497   3.168  15.151   5.713
 1054PNCE   C3B 9498   3.221  15.460   6.052
 1054PNCE   D4B 9499   3.444  15.389   6.451
 1054PNCE   C5B 9500   3.735  15.719   6.620
 1054PNCE   C6B 9501   4.103   0.079   6.762
 1055CHOL   ROH 9502   0.253  15.523   9.013
 1055CHOL    R1 9503   0.122  15.433   8.779
 1055CHOL    R2 9504  15.701  15.522   8.705
 1055CHOL    R3 9505  15.826  15.582   8.472
 1055CHOL    R4 9506  15.541  15.616   8.414
 1055CHOL    R5 9507  15.682  15.493   8.302
 1055CHOL    C1 9508  15.565  15.727   8.025
 1055CHOL    C2 9509  15.354   0.163   7.892
 1056PNCE   AM1 9510   6.224   2.584   9.156
 1056PNCE   AM2 9511   6.281   2.497   8.875
 1056PNCE   T1A 9512   5.826   2.349   9.007
 1056PNCE   C2A 9513   5.570   2.253   8.629
 1056PNCE   C3A 9514   5.151   2.229   8.728
 1056PNCE   C1B 9515   6.641   2.776   8.867
 1056PNCE   C2B 9516   6.898   2.810   8.482
 1056PNCE   C3B 9517   6.828   2.769   8.055
 1056PNCE   D4B 9518   7.032   2.802   7.680
 1056PNCE   C5B 9519   7.005   3.197   7.476
 1056PNCE   C6B 9520   6.781   3.540   7.271
 1057CHOL   ROH 9521   9.794  15.175   8.188
 1057CHOL    R1 9522   9.845  15.450   8.142
 1057CHOL    R2 9523  10.023  15.596   8.294
 1057CHOL    R3 9524  10.132  15.654   8.052
 1057CHOL    R4 9525  10.226   0.038   8.229
 1057CHOL    R5 9526  10.124   0.064   8.039
 1057CHOL    C1 9527  10.447   0.251   7.964
 1057CHOL    C2 9528  10.574   0.592   7.894
 1058PNCE   AM1 9529  10.254  14.676   5.568
 1058PNCE   AM2 9530   9.946  14.880   5.601
 1058PNCE   T1A 9531  10.405  15.090   5.774
 1058PNCE   C2A 9532  10.599  15.524   5.743
 1058PNCE   C3A 9533  10.901   0.019   5.623
 1058PNCE   C1B 9534   9.960  15.084   6.019
 1058PNCE   C2B 9535  10.030  15.098   6.451
 1058PNCE   C3B 9536  10.162  15.303   6.809
 1058PNCE   D4B 9537  10.399  15.517   7.109
 1058PNCE   C5B 9538  10.283  15.242   7.436
 1058PNCE   C6B 9539   9.980  15.248   7.750
 1059CHOL   ROH 9540  12.484  11.649   5.235
 1059CHOL    R1 9541  12.541  11.754   5.492
 1059CHOL    R2 9542  12.767  11.685   5.634
 1059CHOL    R3 9543  12.804  11.954   5.644
 1059CHOL    R4 9544  12.968  11.850   5.862
 1059CHOL    R5 9545  12.816  12.005   5.877
 1059CHOL    C1 9546  13.120  12.198   6.004
 1059CHOL    C2 9547  13.286  12.330   6.350
 1060PNCE   AM1 9548  10.221   5.706   3.775
 1060PNCE   AM2 9549  10.466   5.422   3.728
 1060PNCE   T1A 9550  10.059   5.768   4.198
 1060PNCE   C2A 9551   9.802   5.868   4.551
 1060PNCE   C3A 9552   9.688   5.609   4.883
 1060PNCE   C1B 9553  10.596   5.424   4.185
 1060PNCE   C2B 9554  10.695   5.411   4.641
 1060PNCE   C3B 9555  10.521   5.497   5.052
 1060PNCE   D4B 9556  10.126   5.571   5.200
 1060PNCE   C5B 9557  10.041   5.993   5.104
 1060PNCE   C6B 9558  10.045   6.335   5.391
 1061PNCE   AM1 9559   1.780   0.504   5.245
 1061PNCE   AM2 9560   1.576   0.746   5.096
 1061PNCE   T1A 9561   1.607   0.689   5.622
 1061PNCE   C2A 9562   1.661   0.680   6.076
 1061PNCE   C3A 9563   1.783   0.817   6.522
 1061PNCE   C1B 9564   1.207   0.915   5.371
 1061PNCE   C2B 9565   0.847   1.077   5.626
 1061PNCE   C3B 9566   0.556   0.991   5.984
 1061PNCE   D4B 9567   0.083   0.947   6.065
 1061PNCE   C5B 9568  15.761   0.558   6.286
 1061PNCE   C6B 9569  15.786   0.147   6.087
 1062CHOL   ROH 9570  10.338  12.758   6.913
 1062CHOL    R1 9571  10.261  12.759   7.185
 1062CHOL    R2 9572  10.040  12.622   7.277
 1062CHOL    R3 9573  10.220  12.513   7.449
 1062CHOL    R4 9574   9.958  12.443   7.561
 1062CHOL    R5 9575  10.121  12.543   7.666
 1062CHOL    C1 9576  10.079  12.236   7.888
 1062CHOL    C2 9577   9.745  12.081   8.097
 1063PNCE   AM1 9578   6.101  11.753   4.394
 1063PNCE   AM2 9579   6.346  11.515   4.316
 1063PNCE   T1A 9580   6.224  11.839   4.803
 1063PNCE   C2A 9581   6.335  11.782   5.208
 1063PNCE   C3A 9582   6.224  11.869   5.587
 1063PNCE   C1B 9583   6.306  11.329   4.756
 1063PNCE   C2B 9584   6.277  11.286   5.214
 1063PNCE   C3B 9585   6.369  11.341   5.616
 1063PNCE   D4B 9586   6.197  11.483   5.992
 1063PNCE   C5B 9587   5.977  11.884   6.035
 1063PNCE   C6B 9588   6.090  12.278   5.857
 1064CHOL   ROH 9589   0.036   6.161   5.620
 1064CHOL    R1 9590   0.035   6.402   5.768
 1064CHOL    R2 9591   0.078   6.649   5.652
 1064CHOL    R3 9592  15.670   6.710   5.771
 1064CHOL    R4 9593  15.804   6.968   5.734
 1064CHOL    R5 9594  15.724   6.890   5.921
 1064CHOL    C1 9595  15.522   7.212   5.893
 1064CHOL    C2 9596  15.214   7.339   6.064
 1065PNCE   AM1 9597  12.431  13.962   4.865
 1065PNCE   AM2 9598  12.277  13.646   4.920
 1065PNCE   T1A 9599  12.500  13.952   5.331
 1065PNCE   C2A 9600  12.581  14.051   5.765
 1065PNCE   C3A 9601  12.604  13.976   6.208
 1065PNCE   C1B 9602  12.482  13.448   5.289
 1065PNCE   C2B 9603  12.564  13.508   5.704
 1065PNCE   C3B 9604  12.599  13.478   6.139
 1065PNCE   D4B 9605  12.509  13.459   6.566
 1065PNCE   C5B 9606  12.471  13.028   6.697
 1065PNCE   C6B 9607  12.185  12.811   7.019
 1066XCA    COO 9608   1.937   3.288   9.177
 1066XCA     C1 9609   1.822   3.398   8.741
 1066XCA     C2 9610   1.840   3.399   8.283
 1066XCA     C3 9611   1.795   3.634   7.901
 1066XCA     C4 9612   1.514   3.691   7.542
 1066XCA     C5 9613   1.231   3.734   7.185
 1066XCA     C6 9614   1.048   3.380   6.957
 1067PNCE   AM1 9615   1.930   6.693   8.085
 1067PNCE   AM2 9616   1.786   7.008   8.005
 1067PNCE   T1A 9617   1.898   6.481   7.661
 1067PNCE   C2A 9618   2.024   6.421   7.237
 1067PNCE   C3A 9619   2.012   6.647   6.857
 1067PNCE   C1B 9620   1.714   6.966   7.573
 1067PNCE   C2B 9621   1.755   7.026   7.142
 1067PNCE   C3B 9622   1.855   7.205   6.741
 1067PNCE   D4B 9623   2.135   7.329   6.388
 1067PNCE   C5B 9624   1.860   7.284   6.081
 1067PNCE   C6B 9625   1.582   6.910   6.149
 1068PNCE   AM1 9626   9.498  15.551   5.753
 1068PNCE   AM2 9627   9.719  15.339   5.622
 1068PNCE   T1A 9628   9.699  15.488   6.185
 1068PNCE   C2A 9629   9.986  15.651   6.493
 1068PNCE   C3A 9630  10.162   0.092   6.801
 1068PNCE   C1B 9631  10.082  15.549   5.825
 1068PNCE   C2B 9632  10.318  15.470   6.161
 1068PNCE   C3B 9633  10.518  15.122   6.274
 1068PNCE   D4B 9634  10.540  14.817   6.595
 1068PNCE   C5B 9635  10.182  14.741   6.809
 1068PNCE   C6B 9636   9.780  14.918   6.891
 1069PNCE   AM1 9637  14.094   1.250   4.600
 1069PNCE   AM2 9638  13.963   0.925   4.458
 1069PNCE   T1A 9639  13.871   1.182   5.045
 1069PNCE   C2A 9640  13.717   1.287   5.479
 1069PNCE   C3A 9641  13.726   1.228   5.945
 1069PNCE   C1B 9642  13.939   0.708   4.882
 1069PNCE   C2B 9643  13.698   0.505   5.228
 1069PNCE   C3B 9644  13.536   0.402   5.642
 1069PNCE   D4B 9645  13.643   0.240   6.048
 1069PNCE   C5B 9646  13.376   0.247   6.403
 1069PNCE   C6B 9647  13.274   0.525   6.730
 1070PNCE   AM1 9648   3.439   6.466   4.208
 1070PNCE   AM2 9649   3.706   6.672   4.075
 1070PNCE   T1A 9650   3.650   6.144   4.450
 1070PNCE   C2A 9651   3.860   5.989   4.809
 1070PNCE   C3A 9652   3.923   6.057   5.240
 1070PNCE   C1B 9653   3.566   6.950   4.432
 1070PNCE   C2B 9654   3.756   7.000   4.849
 1070PNCE   C3B 9655   3.598   7.045   5.230
 1070PNCE   D4B 9656   3.505   6.793   5.563
 1070PNCE   C5B 9657   3.843   6.547   5.632
 1070PNCE   C6B 9658   3.864   6.131   5.747
 1071CHOL   ROH 9659  14.770   6.659   4.945
 1071CHOL    R1 9660  14.885   6.586   5.193
 1071CHOL    R2 9661  15.147   6.645   5.259
 1071CHOL    R3 9662  15.032   6.759   5.477
 1071CHOL    R4 9663  15.301   6.682   5.566
 1071CHOL    R5 9664  15.112   6.629   5.661
 1071CHOL    C1 9665  15.283   6.810   5.950
 1071CHOL    C2 9666  15.541   6.638   6.262
 1072PNCE   AM1 9667   2.635   3.807   4.976
 1072PNCE   AM2 9668   2.595   3.491   4.966
 1072PNCE   T1A 9669   2.568   4.016   5.400
 1072PNCE   C2A 9670   2.388   4.340   5.722
 1072PNCE   C3A 9671   2.045   4.587   5.929
 1072PNCE   C1B 9672   2.774   3.527   5.414
 1072PNCE   C2B 9673   2.693   3.584   5.868
 1072PNCE   C3B 9674   2.776   3.582   6.321
 1072PNCE   D4B 9675   2.781   3.958   6.587
 1072PNCE   C5B 9676   3.002   4.355   6.446
 1072PNCE   C6B 9677   3.203   4.761   6.592
 1073XCA    COO 9678   5.729   5.890   4.437
 1073XCA     C1 9679   5.718   5.568   4.759
 1073XCA     C2 9680   5.549   5.393   5.102
 1073XCA     C3 9681   5.387   5.291   5.541
 1073XCA     C4 9682   5.264   5.347   6.005
 1073XCA     C5 9683   4.921   5.253   6.344
 1073XCA     C6 9684   4.675   4.850   6.446
 1074XCA    COO 9685   0.328  10.485   4.718
 1074XCA     C1 9686   0.339  10.601   5.142
 1074XCA     C2 9687   0.577  10.532   5.513
 1074XCA     C3 9688   0.708  10.631   5.942
 1074XCA     C4 9689   0.656  10.617   6.418
 1074XCA     C5 9690   0.526  10.905   6.767
 1074XCA     C6 9691   0.263  11.293   6.721
 1075XCA    COO 9692  11.294   9.571   3.727
 1075XCA     C1 9693  11.251   9.485   4.190
 1075XCA     C2 9694  11.407   9.228   4.544
 1075XCA     C3 9695  11.436   8.818   4.768
 1075XCA     C4 9696  11.296   8.450   5.032
 1075XCA     C5 9697  10.889   8.280   5.211
 1075XCA     C6 9698  10.715   8.108   5.586
 1076PNCE   AM1 9699   3.026   2.686   4.790
 1076PNCE   AM2 9700   3.375   2.803   4.687
 1076PNCE   T1A 9701   2.959   2.696   5.286
 1076PNCE   C2A 9702   2.928   2.678   5.746
 1076PNCE   C3A 9703   2.604   2.696   6.115
 1076PNCE   C1B 9704   3.428   2.586   5.122
 1076PNCE   C2B 9705   3.440   2.772   5.554
 1076PNCE   C3B 9706   3.388   2.752   5.994
 1076PNCE   D4B 9707   3.262   2.581   6.403
 1076PNCE   C5B 9708   2.862   2.458   6.583
 1076PNCE   C6B 9709   2.406   2.470   6.603
 1077CHOL   ROH 9710   6.758  11.882   8.817
 1077CHOL    R1 9711   6.769  11.871   8.534
 1077CHOL    R2 9712   6.886  12.070   8.383
 1077CHOL    R3 9713   7.030  11.864   8.280
 1077CHOL    R4 9714   6.999  12.051   8.057
 1077CHOL    R5 9715   6.947  11.839   8.057
 1077CHOL    C1 9716   7.200  11.846   7.770
 1077CHOL    C2 9717   6.996  11.761   7.501
 1078CHOL   ROH 9718   5.739  13.218   6.566
 1078CHOL    R1 9719   5.557  13.432   6.533
 1078CHOL    R2 9720   5.625  13.694   6.588
 1078CHOL    R3 9721   5.539  13.736   6.333
 1078CHOL    R4 9722   5.462  13.979   6.477
 1078CHOL    R5 9723   5.332  13.852   6.357
 1078CHOL    C1 9724   5.288  14.183   6.173
 1078CHOL    C2 9725   4.862  14.268   6.139
 1079XCA    COO 9726   4.305   0.869   4.888
 1079XCA     C1 9727   4.013   1.000   5.192
 1079XCA     C2 9728   3.758   1.035   5.516
 1079XCA     C3 9729   3.435   1.301   5.648
 1079XCA     C4 9730   3.014   1.375   5.789
 1079XCA     C5 9731   2.812   1.440   6.179
 1079XCA     C6 9732   2.444   1.582   6.414
 1080PNCE   AM1 9733  14.146  14.358   5.022
 1080PNCE   AM2 9734  13.892  14.233   5.252
 1080PNCE   T1A 9735  14.234  14.714   5.271
 1080PNCE   C2A 9736  14.243  14.924   5.646
 1080PNCE   C3A 9737  14.530  14.933   5.977
 1080PNCE   C1B 9738  13.954  14.416   5.692
 1080PNCE   C2B 9739  13.986  14.726   6.060
 1080PNCE   C3B 9740  13.826  14.834   6.491
 1080PNCE   D4B 9741  13.573  15.159   6.722
 1080PNCE   C5B 9742  13.148  15.049   6.919
 1080PNCE   C6B 9743  12.757  14.988   7.177
 1081CHOL   ROH 9744  14.338   2.827   8.607
 1081CHOL    R1 9745  14.500   2.833   8.374
 1081CHOL    R2 9746  14.500   2.629   8.188
 1081CHOL    R3 9747  14.446   2.831   8.014
 1081CHOL    R4 9748  14.528   2.606   7.845
 1081CHOL    R5 9749  14.612   2.807   7.843
 1081CHOL    C1 9750  14.494   2.783   7.481
 1081CHOL    C2 9751  14.624   2.869   7.100
 1082PNCE   AM1 9752   6.440   3.341   4.726
 1082PNCE   AM2 9753   6.589   3.662   4.621
 1082PNCE   T1A 9754   6.286   3.465   5.153
 1082PNCE   C2A 9755   6.368   3.632   5.572
 1082PNCE   C3A 9756   6.502   3.858   5.952
 1082PNCE   C1B 9757   6.311   3.912   4.913
 1082PNCE   C2B 9758   6.206   4.272   5.161
 1082PNCE   C3B 9759   5.874   4.469   5.380
 1082PNCE   D4B 9760   5.815   4.467   5.823
 1082PNCE   C5B 9761   6.106   4.720   6.081
 1082PNCE   C6B 9762   6.487   4.791   6.363
 1083CHOL   ROH 9763   6.579   2.973   5.799
 1083CHOL    R1 9764   6.555   3.121   6.039
 1083CHOL    R2 9765   6.771   3.243   6.161
 1083CHOL    R3 9766   6.614   3.465   6.144
 1083CHOL    R4 9767   6.821   3.534   6.341
 1083CHOL    R5 9768   6.605   3.548   6.368
 1083CHOL    C1 9769   6.703   3.911   6.430
 1083CHOL    C2 9770   6.899   4.276   6.485
 1084XCA    COO 9771  11.914  10.091   4.226
 1084XCA     C1 9772  12.084  10.019   4.667
 1084XCA     C2 9773  12.254   9.826   5.071
 1084XCA     C3 9774  11.979   9.735   5.449
 1084XCA     C4 9775  11.518   9.693   5.475
 1084XCA     C5 9776  11.264   9.344   5.637
 1084XCA     C6 9777  11.068   8.970   5.830
 1085PNCE   AM1 9778  10.706   0.532   4.589
 1085PNCE   AM2 9779  10.782   0.251   4.813
 1085PNCE   T1A 9780  10.541   0.830   4.894
 1085PNCE   C2A 9781  10.523   0.835   5.322
 1085PNCE   C3A 9782  10.615   0.936   5.756
 1085PNCE   C1B 9783  10.683   0.349   5.258
 1085PNCE   C2B 9784  10.873   0.521   5.639
 1085PNCE   C3B 9785  11.179   0.398   5.956
 1085PNCE   D4B 9786  11.205   0.505   6.378
 1085PNCE   C5B 9787  11.522   0.322   6.641
 1085PNCE   C6B 9788  11.828   0.478   6.934
 1086PNCE   AM1 9789  15.560   9.825   4.724
 1086PNCE   AM2 9790  15.781  10.084   4.886
 1086PNCE   T1A 9791  15.707   9.640   5.143
 1086PNCE   C2A 9792   0.091   9.734   5.568
 1086PNCE   C3A 9793   0.486   9.639   5.814
 1086PNCE   C1B 9794   0.249  10.113   5.242
 1086PNCE   C2B 9795   0.284  10.183   5.714
 1086PNCE   C3B 9796   0.190  10.013   6.136
 1086PNCE   D4B 9797   0.343   9.975   6.589
 1086PNCE   C5B 9798   0.754  10.150   6.634
 1086PNCE   C6B 9799   1.127  10.199   6.355
 1087CHOL   ROH 9800  15.456   5.602   4.501
 1087CHOL    R1 9801  15.595   5.474   4.711
 1087CHOL    R2 9802  15.753   5.612   4.890
 1087CHOL    R3 9803  15.597   5.487   5.074
 1087CHOL    R4 9804   0.007   5.565   5.222
 1087CHOL    R5 9805  15.750   5.366   5.211
 1087CHOL    C1 9806  15.738   5.421   5.588
 1087CHOL    C2 9807  15.638   5.285   5.970
 1088CHOL   ROH 9808   7.092   6.489   8.213
 1088CHOL    R1 9809   7.227   6.624   8.004
 1088CHOL    R2 9810   7.201   6.551   7.740
 1088CHOL    R3 9811   7.133   6.812   7.707
 1088CHOL    R4 9812   7.247   6.732   7.449
 1088CHOL    R5 9813   7.308   6.902   7.570
 1088CHOL    C1 9814   7.209   7.083   7.249
 1088CHOL    C2 9815   7.398   7.320   6.981
 1089XCA    COO 9816   9.477   5.961   4.109
 1089XCA     C1 9817   9.355   6.132   4.559
 1089XCA     C2 9818   9.606   6.242   4.957
 1089XCA     C3 9819   9.611   6.544   5.345
 1089XCA     C4 9820   9.813   6.554   5.789
 1089XCA     C5 9821   9.773   6.900   6.044
 1089XCA     C6 9822   9.339   7.159   6.042
 1090CHOL   ROH 9823   0.791  10.334   4.643
 1090CHOL    R1 9824   0.691  10.170   4.852
 1090CHOL    R2 9825   0.854  10.009   5.005
 1090CHOL    R3 9826   0.738  10.142   5.211
 1090CHOL    R4 9827   0.894   9.929   5.339
 1090CHOL    R5 9828   0.682   9.970   5.369
 1090CHOL    C1 9829   0.808  10.007   5.727
 1090CHOL    C2 9830   0.682  10.125   6.104
 1091XCA    COO 9831   8.829   3.746   5.025
 1091XCA     C1 9832   8.695   3.835   5.466
 1091XCA     C2 9833   8.614   4.151   5.743
 1091XCA     C3 9834   8.572   4.435   6.014
 1091XCA     C4 9835   8.807   4.732   6.212
 1091XCA     C5 9836   8.848   5.158   6.345
 1091XCA     C6 9837   8.935   5.497   6.624
 1092CHOL   ROH 9838   0.480  11.717   7.507
 1092CHOL    R1 9839   0.344  11.820   7.282
 1092CHOL    R2 9840   0.153  11.676   7.144
 1092CHOL    R3 9841  15.828  11.895   7.192
 1092CHOL    R4 9842  15.685  11.747   6.984
 1092CHOL    R5 9843  15.744  11.956   6.977
 1092CHOL    C1 9844  15.367  11.994   6.935
 1092CHOL    C2 9845  15.226  12.067   6.551
 1093XCA    COO 9846  10.327  12.944   5.671
 1093XCA     C1 9847  10.327  12.506   5.839
 1093XCA     C2 9848  10.350  12.202   6.171
 1093XCA     C3 9849  10.442  12.200   6.601
 1093XCA     C4 9850  10.190  12.317   6.974
 1093XCA     C5 9851   9.750  12.302   7.101
 1093XCA     C6 9852   9.295  12.280   6.973
 1094PNCE   AM1 9853   6.286   0.124   5.287
 1094PNCE   AM2 9854   6.044  15.797   5.161
 1094PNCE   T1A 9855   6.269  15.784   5.710
 1094PNCE   C2A 9856   6.408   0.007   6.143
 1094PNCE   C3A 9857   6.716  15.779   6.499
 1094PNCE   C1B 9858   5.796  15.513   5.390
 1094PNCE   C2B 9859   5.499  15.195   5.322
 1094PNCE   C3B 9860   5.159  14.973   5.475
 1094PNCE   D4B 9861   5.150  14.699   5.866
 1094PNCE   C5B 9862   5.563  14.581   6.093
 1094PNCE   C6B 9863   5.614  14.443   6.533
 1095XCA    COO 9864   3.864   2.595   4.839
 1095XCA     C1 9865   3.909   2.692   5.335
 1095XCA     C2 9866   3.920   2.844   5.783
 1095XCA     C3 9867   3.961   2.990   6.223
 1095XCA     C4 9868   4.191   3.321   6.467
 1095XCA     C5 9869   4.334   3.697   6.633
 1095XCA     C6 9870   4.574   3.784   7.003
 1096XCA    COO 9871   9.284  12.456   5.088
 1096XCA     C1 9872   9.577  12.152   5.286
 1096XCA     C2 9873   9.949  12.112   5.553
 1096XCA     C3 9874  10.012  11.887   5.918
 1096XCA     C4 9875   9.909  11.939   6.350
 1096XCA     C5 9876   9.745  11.666   6.667
 1096XCA     C6 9877   9.353  11.424   6.813
 1097PNCE   AM1 9878   3.563   9.970   3.647
 1097PNCE   AM2 9879   3.237   9.877   3.654
 1097PNCE   T1A 9880   3.766   9.983   4.009
 1097PNCE   C2A 9881   3.889   9.908   4.394
 1097PNCE   C3A 9882   4.252   9.946   4.622
 1097PNCE   C1B 9883   3.380   9.639   4.035
 1097PNCE   C2B 9884   3.382   9.236   4.232
 1097PNCE   C3B 9885   3.520   8.923   4.522
 1097PNCE   D4B 9886   3.682   8.484   4.452
 1097PNCE   C5B 9887   3.552   8.126   4.759
 1097PNCE   C6B 9888   3.806   7.884   5.015
 1098PNCE   AM1 9889   8.375   3.532   5.233
 1098PNCE   AM2 9890   8.610   3.287   5.157
 1098PNCE   T1A 9891   7.973   3.687   5.165
 1098PNCE   C2A 9892   7.663   3.902   5.417
 1098PNCE   C3A 9893   7.220   3.943   5.549
 1098PNCE   C1B 9894   8.970   3.422   5.452
 1098PNCE   C2B 9895   9.187   3.367   5.882
 1098PNCE   C3B 9896   9.500   3.504   6.212
 1098PNCE   D4B 9897   9.904   3.460   6.407
 1098PNCE   C5B 9898  10.151   3.239   6.179
 1098PNCE   C6B 9899  10.369   3.348   5.775
 1099PNCE   AM1 9900  14.753   6.309   4.330
 1099PNCE   AM2 9901  14.781   5.991   4.525
 1099PNCE   T1A 9902  14.565   6.707   4.509
 1099PNCE   C2A 9903  14.437   6.984   4.891
 1099PNCE   C3A 9904  14.654   7.026   5.314
 1099PNCE   C1B 9905  14.735   5.926   4.988
 1099PNCE   C2B 9906  14.733   6.183   5.375
 1099PNCE   C3B 9907  14.622   6.555   5.630
 1099PNCE   D4B 9908  14.316   6.839   5.818
 1099PNCE   C5B 9909  14.385   7.277   5.665
 1099PNCE   C6B 9910  14.493   7.670   5.441
 1100CHOL   ROH 9911   4.704   2.294   8.669
 1100CHOL    R1 9912   4.703   2.422   8.417
 1100CHOL    R2 9913   4.884   2.619   8.349
 1100CHOL    R3 9914   4.933   2.457   8.137
 1100CHOL    R4 9915   4.989   2.727   8.038
 1100CHOL    R5 9916   4.855   2.581   7.948
 1100CHOL    C1 9917   5.097   2.637   7.658
 1100CHOL    C2 9918   5.294   2.437   7.374
 1101XCA    COO 9919   9.209   0.574   5.418
 1101XCA     C1 9920   9.521   0.581   5.836
 1101XCA     C2 9921   9.726   0.830   6.217
 1101XCA     C3 9922   9.887   0.910   6.660
 1101XCA     C4 9923  10.090   1.190   6.973
 1101XCA     C5 9924  10.023   1.602   7.134
 1101XCA     C6 9925   9.984   2.057   7.127
 1102PNCE   AM1 9926   7.103  10.675   4.926
 1102PNCE   AM2 9927   6.846  10.670   5.155
 1102PNCE   T1A 9928   7.351  10.675   5.342
 1102PNCE   C2A 9929   7.670  10.516   5.672
 1102PNCE   C3A 9930   7.911  10.344   6.044
 1102PNCE   C1B 9931   6.759  11.013   5.466
 1102PNCE   C2B 9932   6.842  11.294   5.827
 1102PNCE   C3B 9933   6.662  11.475   6.198
 1102PNCE   D4B 9934   6.309  11.700   6.433
 1102PNCE   C5B 9935   5.882  11.888   6.548
 1102PNCE   C6B 9936   5.616  12.242   6.749
 1103CHOL   ROH 9937   1.903  14.372   8.132
 1103CHOL    R1 9938   1.968  14.202   7.915
 1103CHOL    R2 9939   1.830  14.205   7.677
 1103CHOL    R3 9940   2.078  14.243   7.571
 1103CHOL    R4 9941   1.921  14.123   7.354
 1103CHOL    R5 9942   2.112  14.051   7.431
 1103CHOL    C1 9943   2.206  14.109   7.066
 1103CHOL    C2 9944   2.234  14.297   6.668
 1104XCA    COO 9945   8.192   6.386   8.071
 1104XCA     C1 9946   8.062   6.419   7.647
 1104XCA     C2 9947   7.981   6.115   7.309
 1104XCA     C3 9948   8.235   6.101   6.928
 1104XCA     C4 9949   8.524   5.828   6.695
 1104XCA     C5 9950   8.467   5.520   6.356
 1104XCA     C6 9951   8.643   5.400   5.921
 1105CHOL   ROH 9952  12.696  14.099   8.733
 1105CHOL    R1 9953  12.710  14.182   8.462
 1105CHOL    R2 9954  12.934  14.142   8.306
 1105CHOL    R3 9955  12.756  14.022   8.139
 1105CHOL    R4 9956  12.966  14.124   7.962
 1105CHOL    R5 9957  12.752  14.162   7.945
 1105CHOL    C1 9958  12.817  14.002   7.605
 1105CHOL    C2 9959  12.893  14.116   7.211
 1106PNCE   AM1 9960   8.507  12.318   5.287
 1106PNCE   AM2 9961   8.162  12.179   5.353
 1106PNCE   T1A 9962   8.479  12.206   5.760
 1106PNCE   C2A 9963   8.454  12.014   6.202
 1106PNCE   C3A 9964   8.144  11.760   6.434
 1106PNCE   C1B 9965   7.914  11.816   5.536
 1106PNCE   C2B 9966   7.526  11.781   5.755
 1106PNCE   C3B 9967   7.337  11.430   5.913
 1106PNCE   D4B 9968   7.491  11.268   6.274
 1106PNCE   C5B 9969   7.580  11.065   6.670
 1106PNCE   C6B 9970   7.393  10.694   6.839
 1107CHOL   ROH 9971   3.715   7.587   8.327
 1107CHOL    R1 9972   3.921   7.637   8.140
 1107CHOL    R2 9973   3.982   7.462   7.935
 1107CHOL    R3 9974   3.947   7.683   7.780
 1107CHOL    R4 9975   4.099   7.497   7.612
 1107CHOL    R5 9976   4.152   7.703   7.659
 1107CHOL    C1 9977   4.135   7.725   7.278
 1107CHOL    C2 9978   4.116   7.527   6.975
 1108CHOL   ROH 9979   1.656   9.869   4.553
 1108CHOL    R1 9980   1.766   9.987   4.785
 1108CHOL    R2 9981   1.771   9.859   5.030
 1108CHOL    R3 9982   2.037   9.913   5.017
 1108CHOL    R4 9983   1.985   9.864   5.301
 1108CHOL    R5 9984   2.082  10.040   5.215
 1108CHOL    C1 9985   2.360   9.918   5.447
 1108CHOL    C2 9986   2.290   9.809   5.813
 1109CHOL   ROH 9987  11.653   1.321   8.117
 1109CHOL    R1 9988  11.859   1.147   8.032
 1109CHOL    R2 9989  11.917   0.911   8.163
 1109CHOL    R3 9990  11.884   0.803   7.917
 1109CHOL    R4 9991  12.065   0.618   8.054
 1109CHOL    R5 9992  12.098   0.713   7.861
 1109CHOL    C1 9993  12.119   0.346   7.758
 1109CHOL    C2 9994  12.056  15.778   7.764
 1110PNCE   AM1 9995  10.427   9.479   4.142
 1110PNCE   AM2 9996  10.723   9.671   3.980
 1110PNCE   T1A 9997  10.260   9.534   4.583
 1110PNCE   C2A 9998  10.045   9.704   4.952
 1110PNCE   C3A 9999   9.995   9.790   5.388
 1110PNCE   C1B10000  10.804   9.583   4.454
 1110PNCE   C2B10001  10.680   9.603   4.891
 1110PNCE   C3B10002  10.482   9.633   5.310
 1110PNCE   D4B10003  10.352   9.725   5.722
 1110PNCE   C5B10004  10.368   9.426   6.025
 1110PNCE   C6B10005  10.250   9.334   6.432
 1111XCA    COO10006   8.605  10.339   4.368
 1111XCA     C110007   8.694  10.538   4.801
 1111XCA     C210008   8.821  10.450   5.255
 1111XCA     C310009   8.770  10.302   5.701
 1111XCA     C410010   8.531  10.526   6.032
 1111XCA     C510011   8.303  10.708   6.408
 1111XCA     C610012   8.046  10.775   6.813
 1112CHOL   ROH10013   1.192  13.840   5.372
 1112CHOL    R110014   1.248  13.732   5.627
 1112CHOL    R210015   1.065  13.734   5.834
 1112CHOL    R310016   1.114  13.467   5.838
 1112CHOL    R410017   1.033  13.532   6.112
 1112CHOL    R510018   1.215  13.428   6.051
 1112CHOL    C110019   1.060  13.163   6.278
 1112CHOL    C210020   0.898  12.964   6.614
 1113CHOL   ROH10021   5.825   6.777   7.839
 1113CHOL    R110022   5.758   6.707   7.573
 1113CHOL    R210023   5.557   6.833   7.432
 1113CHOL    R310024   5.754   6.873   7.249
 1113CHOL    R410025   5.506   6.937   7.107
 1113CHOL    R510026   5.660   6.796   7.043
 1113CHOL    C110027   5.661   7.034   6.745
 1113CHOL    C210028   5.414   6.887   6.478
 1114XCA    COO10029   8.890  15.664   5.111
 1114XCA     C110030   9.087  15.429   5.472
 1114XCA     C210031   9.083  15.269   5.907
 1114XCA     C310032   9.204  15.508   6.273
 1114XCA     C410033   9.139  15.589   6.692
 1114XCA     C510034   8.875  15.473   7.038
 1114XCA     C610035   8.421  15.551   7.174
 1115CHOL   ROH10036  13.155  10.267   4.734
 1115CHOL    R110037  13.035  10.047   4.866
 1115CHOL    R210038  13.051  10.011   5.139
 1115CHOL    R310039  12.780   9.999   5.122
 1115CHOL    R410040  12.843   9.887   5.385
 1115CHOL    R510041  12.722   9.794   5.229
 1115CHOL    C110042  12.467   9.805   5.512
 1115CHOL    C210043  12.332   9.423   5.641
 1116XCA    COO10044  13.039  11.064   4.925
 1116XCA     C110045  13.000  10.870   5.331
 1116XCA     C210046  12.920  10.667   5.692
 1116XCA     C310047  12.798  10.390   6.035
 1116XCA     C410048  12.633  10.051   6.300
 1116XCA     C510049  12.316   9.795   6.487
 1116XCA     C610050  12.062   9.884   6.874
 1117PNCE   AM110051  11.635   7.932   4.488
 1117PNCE   AM210052  11.357   8.158   4.611
 1117PNCE   T1A10053  11.683   7.659   4.865
 1117PNCE   C2A10054  11.584   7.570   5.304
 1117PNCE   C3A10055  11.661   7.574   5.750
 1117PNCE   C1B10056  11.267   7.924   5.045
 1117PNCE   C2B10057  11.131   7.805   5.465
 1117PNCE   C3B10058  11.145   7.473   5.751
 1117PNCE   D4B10059  11.351   7.386   6.142
 1117PNCE   C5B10060  11.148   7.289   6.532
 1117PNCE   C6B10061  10.985   7.001   6.797
 1118PNCE   AM110062   8.605   1.041   5.244
 1118PNCE   AM210063   8.345   0.771   5.339
 1118PNCE   T1A10064   8.909   1.373   5.370
 1118PNCE   C2A10065   9.094   1.588   5.708
 1118PNCE   C3A10066   8.873   1.925   5.917
 1118PNCE   C1B10067   8.015   0.597   5.644
 1118PNCE   C2B10068   7.700   0.694   5.970
 1118PNCE   C3B10069   7.441   0.825   6.278
 1118PNCE   D4B10070   7.341   1.222   6.475
 1118PNCE   C5B10071   7.020   1.218   6.786
 1118PNCE   C6B10072   6.645   1.196   6.955
 1119PNCE   AM110073   6.823   3.329   5.072
 1119PNCE   AM210074   6.724   3.211   5.400
 1119PNCE   T1A10075   6.721   3.748   5.190
 1119PNCE   C2A10076   6.702   4.059   5.517
 1119PNCE   C3A10077   6.850   4.226   5.937
 1119PNCE   C1B10078   6.876   3.564   5.663
 1119PNCE   C2B10079   7.090   3.744   6.010
 1119PNCE   C3B10080   7.213   3.760   6.475
 1119PNCE   D4B10081   7.446   3.502   6.743
 1119PNCE   C5B10082   7.289   3.620   7.151
 1119PNCE   C6B10083   7.075   3.972   7.329
 1120PNCE   AM110084  13.912   4.118   4.614
 1120PNCE   AM210085  14.227   4.247   4.592
 1120PNCE   T1A10086  13.780   3.938   4.981
 1120PNCE   C2A10087  13.491   3.675   5.170
 1120PNCE   C3A10088  13.302   3.346   5.379
 1120PNCE   C1B10089  14.297   4.639   4.854
 1120PNCE   C2B10090  14.459   4.775   5.252
 1120PNCE   C3B10091  14.476   4.631   5.682
 1120PNCE   D4B10092  14.169   4.332   5.747
 1120PNCE   C5B10093  14.162   3.979   5.991
 1120PNCE   C6B10094  14.351   3.850   6.425
 1121PNCE   AM110095   0.961  13.195   4.968
 1121PNCE   AM210096   0.720  13.007   4.754
 1121PNCE   T1A10097   1.289  13.334   5.288
 1121PNCE   C2A10098   1.492  13.242   5.686
 1121PNCE   C3A10099   1.481  13.013   6.081
 1121PNCE   C1B10100   0.543  12.902   5.206
 1121PNCE   C2B10101   0.538  12.827   5.663
 1121PNCE   C3B10102   0.646  12.464   5.888
 1121PNCE   D4B10103   0.706  12.137   6.178
 1121PNCE   C5B10104   0.329  12.141   6.370
 1121PNCE   C6B10105  15.742  12.152   6.540
 1122CHOL   ROH10106   6.137  10.287   7.332
 1122CHOL    R110107   6.117  10.343   7.056
 1122CHOL    R210108   6.337  10.347   6.889
 1122CHOL    R310109   6.191  10.169   6.745
 1122CHOL    R410110   6.407  10.251   6.564
 1122CHOL    R510111   6.193  10.256   6.522
 1122CHOL    C110112   6.311  10.027   6.240
 1122CHOL    C210113   6.429   9.947   5.878
 1123CHOL   ROH10114   8.045   8.279   4.433
 1123CHOL    R110115   7.992   8.243   4.709
 1123CHOL    R210116   8.170   8.318   4.906
 1123CHOL    R310117   7.956   8.455   5.002
 1123CHOL    R410118   8.113   8.387   5.239
 1123CHOL    R510119   7.902   8.345   5.207
 1123CHOL    C110120   7.879   8.556   5.524
 1123CHOL    C210121   8.025   8.632   5.898
 1124XCA    COO10122  11.577   8.828   3.954
 1124XCA     C110123  11.811   8.906   4.357
 1124XCA     C210124  11.871   9.100   4.775
 1124XCA     C310125  12.029   9.316   5.172
 1124XCA     C410126  11.838   9.253   5.612
 1124XCA     C510127  11.579   9.068   5.965
 1124XCA     C610128  11.341   8.890   6.336
 1125CHOL   ROH10129   0.415   0.185   7.093
 1125CHOL    R110130   0.166   0.252   6.977
 1125CHOL    R210131   0.014   0.466   7.063
 1125CHOL    R310132   0.025   0.537   6.801
 1125CHOL    R410133  15.630   0.690   6.911
 1125CHOL    R510134  15.625   0.560   6.737
 1125CHOL    C110135  15.515   0.888   6.576
 1125CHOL    C210136  15.600   1.249   6.377
 1126PNCE   AM110137   3.958  10.336   3.662
 1126PNCE   AM210138   3.756  10.494   3.906
 1126PNCE   T1A10139   4.255  10.138   3.892
 1126PNCE   C2A10140   4.444   9.866   4.148
 1126PNCE   C3A10141   4.333   9.493   4.343
 1126PNCE   C1B10142   3.638  10.385   4.359
 1126PNCE   C2B10143   3.731  10.213   4.792
 1126PNCE   C3B10144   3.858  10.358   5.218
 1126PNCE   D4B10145   3.761  10.253   5.666
 1126PNCE   C5B10146   3.325  10.143   5.799
 1126PNCE   C6B10147   2.924  10.325   5.690
 1127CHOL   ROH10148   5.113   1.063   5.550
 1127CHOL    R110149   5.229   1.155   5.792
 1127CHOL    R210150   5.100   1.135   6.035
 1127CHOL    R310151   5.329   1.008   6.109
 1127CHOL    R410152   5.224   1.123   6.358
 1127CHOL    R510153   5.424   1.150   6.277
 1127CHOL    C110154   5.511   0.997   6.615
 1127CHOL    C210155   5.771   1.215   6.810
 1128PNCE   AM110156   6.231  14.697   4.758
 1128PNCE   AM210157   6.339  14.376   4.749
 1128PNCE   T1A10158   6.494  14.838   5.119
 1128PNCE   C2A10159   6.603  14.933   5.548
 1128PNCE   C3A10160   6.477  14.823   5.972
 1128PNCE   C1B10161   6.101  14.081   5.041
 1128PNCE   C2B10162   5.711  13.889   5.210
 1128PNCE   C3B10163   5.315  13.677   5.200
 1128PNCE   D4B10164   4.897  13.658   5.445
 1128PNCE   C5B10165   4.686  13.250   5.389
 1128PNCE   C6B10166   4.858  12.867   5.625
 1129CHOL   ROH10167  14.997   6.293   4.874
 1129CHOL    R110168  15.135   6.178   5.093
 1129CHOL    R210169  15.364   6.290   5.199
 1129CHOL    R310170  15.223   6.277   5.432
 1129CHOL    R410171  15.500   6.325   5.515
 1129CHOL    R510172  15.370   6.164   5.584
 1129CHOL    C110173  15.448   6.332   5.917
 1129CHOL    C210174  15.732   6.139   6.153
 1130PNCE   AM110175   6.485  12.897   4.634
 1130PNCE   AM210176   6.640  12.621   4.770
 1130PNCE   T1A10177   6.145  13.047   4.871
 1130PNCE   C2A10178   5.970  13.360   5.105
 1130PNCE   C3A10179   6.145  13.625   5.382
 1130PNCE   C1B10180   6.400  12.684   5.152
 1130PNCE   C2B10181   6.078  12.641   5.444
 1130PNCE   C3B10182   5.785  12.667   5.781
 1130PNCE   D4B10183   5.706  12.907   6.155
 1130PNCE   C5B10184   5.463  12.758   6.508
 1130PNCE   C6B10185   5.467  12.930   6.905
 1131PNCE   AM110186   4.430   7.341   3.901
 1131PNCE   AM210187   4.676   7.490   4.101
 1131PNCE   T1A10188   4.183   7.689   4.100
 1131PNCE   C2A10189   4.197   8.108   4.267
 1131PNCE   C3A10190   4.064   8.181   4.672
 1131PNCE   C1B10191   4.514   7.761   4.482
 1131PNCE   C2B10192   4.383   7.821   4.921
 1131PNCE   C3B10193   4.279   7.776   5.374
 1131PNCE   D4B10194   4.226   7.848   5.826
 1131PNCE   C5B10195   4.568   7.964   6.136
 1131PNCE   C6B10196   5.012   7.970   6.127
 1132PNCE   AM110197   8.273   2.612   4.981
 1132PNCE   AM210198   7.956   2.450   4.914
 1132PNCE   T1A10199   8.476   2.668   5.395
 1132PNCE   C2A10200   8.453   2.731   5.841
 1132PNCE   C3A10201   8.309   2.969   6.183
 1132PNCE   C1B10202   7.948   2.364   5.380
 1132PNCE   C2B10203   7.972   2.561   5.781
 1132PNCE   C3B10204   7.909   2.673   6.185
 1132PNCE   D4B10205   7.896   2.559   6.598
 1132PNCE   C5B10206   7.595   2.248   6.608
 1132PNCE   C6B10207   7.482   1.935   6.852
 1133PNCE   AM110208   9.129   5.008   4.419
 1133PNCE   AM210209   8.980   5.262   4.248
 1133PNCE   T1A10210   9.301   5.244   4.784
 1133PNCE   C2A10211   9.331   5.356   5.229
 1133PNCE   C3A10212   9.147   5.176   5.628
 1133PNCE   C1B10213   8.676   5.276   4.573
 1133PNCE   C2B10214   8.489   5.215   4.970
 1133PNCE   C3B10215   8.618   5.198   5.420
 1133PNCE   D4B10216   8.576   4.914   5.787
 1133PNCE   C5B10217   8.357   5.054   6.167
 1133PNCE   C6B10218   8.374   5.067   6.626
 1134PNCE   AM110219   8.571  13.107   5.162
 1134PNCE   AM210220   8.207  13.185   5.141
 1134PNCE   T1A10221   8.444  13.303   5.586
 1134PNCE   C2A10222   8.514  13.344   6.040
 1134PNCE   C3A10223   8.470  13.399   6.517
 1134PNCE   C1B10224   7.902  13.373   5.426
 1134PNCE   C2B10225   7.717  13.268   5.847
 1134PNCE   C3B10226   7.425  13.201   6.196
 1134PNCE   D4B10227   7.024  13.090   6.017
 1134PNCE   C5B10228   6.625  13.033   6.177
 1134PNCE   C6B10229   6.474  12.990   6.595
 1135CHOL   ROH10230   7.279   0.987   5.846
 1135CHOL    R110231   7.088   1.041   6.047
 1135CHOL    R210232   6.868   0.879   6.089
 1135CHOL    R310233   6.962   0.872   6.344
 1135CHOL    R410234   6.678   0.803   6.368
 1135CHOL    R510235   6.783   0.960   6.476
 1135CHOL    C110236   6.656   0.752   6.770
 1135CHOL    C210237   6.319   0.823   6.890
 1136PNCE   AM110238   6.071   0.876   5.347
 1136PNCE   AM210239   5.862   0.597   5.237
 1136PNCE   T1A10240   6.051   0.770   5.760
 1136PNCE   C2A10241   6.220   0.542   6.122
 1136PNCE   C3A10242   6.407   0.413   6.511
 1136PNCE   C1B10243   5.871   0.303   5.586
 1136PNCE   C2B10244   5.843   0.169   6.004
 1136PNCE   C3B10245   5.942   0.185   6.410
 1136PNCE   D4B10246   6.182  15.698   6.578
 1136PNCE   C5B10247   6.183  15.768   6.989
 1136PNCE   C6B10248   5.927  15.669   7.294
 1137CHOL   ROH10249   2.308   9.737   7.066
 1137CHOL    R110250   2.546   9.718   6.915
 1137CHOL    R210251   2.769   9.583   7.006
 1137CHOL    R310252   2.747   9.452   6.769
 1137CHOL    R410253   3.031   9.433   6.837
 1137CHOL    R510254   2.948   9.508   6.650
 1137CHOL    C110255   3.162   9.222   6.517
 1137CHOL    C210256   3.375   9.183   6.246
 1138PNCE   AM110257  12.570   6.448   4.474
 1138PNCE   AM210258  12.509   6.067   4.513
 1138PNCE   T1A10259  12.734   6.392   4.914
 1138PNCE   C2A10260  12.687   6.327   5.381
 1138PNCE   C3A10261  12.799   6.499   5.816
 1138PNCE   C1B10262  12.502   5.936   4.979
 1138PNCE   C2B10263  12.374   5.840   5.414
 1138PNCE   C3B10264  11.974   5.816   5.646
 1138PNCE   D4B10265  11.614   5.888   5.908
 1138PNCE   C5B10266  11.453   5.530   6.145
 1138PNCE   C6B10267  11.105   5.236   6.199
 1139PNCE   AM110268   7.261   6.982   8.363
 1139PNCE   AM210269   6.925   6.954   8.346
 1139PNCE   T1A10270   7.351   7.133   7.983
 1139PNCE   C2A10271   7.453   7.456   7.708
 1139PNCE   C3A10272   7.359   7.699   7.360
 1139PNCE   C1B10273   6.772   7.126   7.985
 1139PNCE   C2B10274   6.938   7.250   7.600
 1139PNCE   C3B10275   6.932   7.456   7.180
 1139PNCE   D4B10276   7.039   7.866   7.002
 1139PNCE   C5B10277   7.336   7.938   6.682
 1139PNCE   C6B10278   7.538   8.336   6.681
 1140XCA    COO10279  12.131   2.216   8.511
 1140XCA     C110280  12.166   2.394   8.074
 1140XCA     C210281  12.222   2.459   7.622
 1140XCA     C310282  12.173   2.446   7.162
 1140XCA     C410283  12.159   2.447   6.706
 1140XCA     C510284  12.344   2.201   6.362
 1140XCA     C610285  12.515   1.804   6.205
 1141CHOL   ROH10286   3.980  12.816   6.621
 1141CHOL    R110287   3.902  13.084   6.578
 1141CHOL    R210288   3.845  13.184   6.327
 1141CHOL    R310289   3.610  13.256   6.444
 1141CHOL    R410290   3.649  13.451   6.229
 1141CHOL    R510291   3.612  13.495   6.440
 1141CHOL    C110292   3.315  13.674   6.282
 1141CHOL    C210293   3.493  13.980   6.090
 1142PNCE   AM110294  11.014  14.618   5.178
 1142PNCE   AM210295  11.354  14.652   5.150
 1142PNCE   T1A10296  10.865  14.541   5.590
 1142PNCE   C2A10297  10.603  14.541   5.943
 1142PNCE   C3A10298  10.255  14.679   6.196
 1142PNCE   C1B10299  11.275  14.843   5.571
 1142PNCE   C2B10300  11.501  14.943   5.929
 1142PNCE   C3B10301  11.488  15.303   6.208
 1142PNCE   D4B10302  11.518  15.381   6.654
 1142PNCE   C5B10303  11.542  15.021   6.874
 1142PNCE   C6B10304  11.881  14.723   6.896
 1143PNCE   AM110305  12.254   0.725   4.361
 1143PNCE   AM210306  12.252   0.383   4.471
 1143PNCE   T1A10307  12.402   0.804   4.837
 1143PNCE   C2A10308  12.476   0.893   5.336
 1143PNCE   C3A10309  12.852   1.062   5.610
 1143PNCE   C1B10310  12.514   0.291   4.858
 1143PNCE   C2B10311  12.768   0.017   5.129
 1143PNCE   C3B10312  12.918   0.048   5.544
 1143PNCE   D4B10313  12.729   0.048   5.954
 1143PNCE   C5B10314  12.611   0.386   6.228
 1143PNCE   C6B10315  12.779   0.478   6.613
 1144CHOL   ROH10316   6.072   7.678   7.539
 1144CHOL    R110317   6.152   7.885   7.364
 1144CHOL    R210318   6.094   7.883   7.094
 1144CHOL    R310319   5.987   8.127   7.147
 1144CHOL    R410320   6.050   8.134   6.861
 1144CHOL    R510321   6.114   8.278   7.012
 1144CHOL    C110322   5.925   8.510   6.775
 1144CHOL    C210323   5.932   8.814   6.480
 1145CHOL   ROH10324   9.045   4.492   8.213
 1145CHOL    R110325   9.088   4.601   7.955
 1145CHOL    R210326   9.120   4.443   7.731
 1145CHOL    R310327   8.917   4.595   7.634
 1145CHOL    R410328   9.017   4.448   7.401
 1145CHOL    R510329   8.992   4.664   7.417
 1145CHOL    C110330   8.766   4.594   7.118
 1145CHOL    C210331   8.734   4.525   6.667
 1146PNCE   AM110332   1.977  14.364   5.424
 1146PNCE   AM210333   1.786  14.593   5.276
 1146PNCE   T1A10334   1.823  14.338   5.868
 1146PNCE   C2A10335   1.695  14.323   6.327
 1146PNCE   C3A10336   1.411  14.374   6.714
 1146PNCE   C1B10337   1.497  14.610   5.581
 1146PNCE   C2B10338   1.428  14.649   6.018
 1146PNCE   C3B10339   1.651  14.873   6.368
 1146PNCE   D4B10340   1.925  14.693   6.680
 1146PNCE   C5B10341   1.841  14.431   7.001
 1146PNCE   C6B10342   1.642  14.513   7.379
 1147CHOL   ROH10343   8.768  13.009   5.745
 1147CHOL    R110344   8.693  12.877   5.984
 1147CHOL    R210345   8.798  12.944   6.230
 1147CHOL    R310346   8.537  12.969   6.299
 1147CHOL    R410347   8.680  12.963   6.554
 1147CHOL    R510348   8.513  12.836   6.497
 1147CHOL    C110349   8.365  12.999   6.808
 1147CHOL    C210350   8.557  12.864   7.087
 1148CHOL   ROH10351  13.949   6.407   4.850
 1148CHOL    R110352  13.929   6.322   5.119
 1148CHOL    R210353  13.893   6.498   5.329
 1148CHOL    R310354  13.680   6.339   5.384
 1148CHOL    R410355  13.763   6.446   5.645
 1148CHOL    R510356  13.735   6.236   5.593
 1148CHOL    C110357  13.486   6.266   5.881
 1148CHOL    C210358  13.142   6.260   6.097
 1149XCA    COO10359  12.984   4.137   4.566
 1149XCA     C110360  13.261   4.094   4.936
 1149XCA     C210361  13.487   4.193   5.323
 1149XCA     C310362  13.648   4.288   5.710
 1149XCA     C410363  13.793   4.376   6.110
 1149XCA     C510364  14.192   4.389   6.297
 1149XCA     C610365  14.579   4.241   6.194
 1150PNCE   AM110366   1.222   9.980   4.188
 1150PNCE   AM210367   1.538   9.937   4.099
 1150PNCE   T1A10368   1.152   9.954   4.630
 1150PNCE   C2A10369   1.300   9.886   5.058
 1150PNCE   C3A10370   1.468   9.750   5.452
 1150PNCE   C1B10371   1.593   9.468   4.149
 1150PNCE   C2B10372   1.937   9.185   4.286
 1150PNCE   C3B10373   2.374   9.128   4.452
 1150PNCE   D4B10374   2.726   8.928   4.227
 1150PNCE   C5B10375   3.031   8.689   4.472
 1150PNCE   C6B10376   3.275   8.545   4.790
 1151XCA    COO10377  13.192   9.131   3.876
 1151XCA     C110378  13.237   9.080   4.347
 1151XCA     C210379  13.249   8.957   4.775
 1151XCA     C310380  13.413   8.938   5.178
 1151XCA     C410381  13.475   9.007   5.613
 1151XCA     C510382  13.734   9.216   5.906
 1151XCA     C610383  13.829   9.414   6.290
 1152CHOL   ROH10384   4.290  10.476   7.456
 1152CHOL    R110385   4.265  10.356   7.201
 1152CHOL    R210386   4.138  10.481   6.990
 1152CHOL    R310387   4.372  10.432   6.861
 1152CHOL    R410388   4.178  10.473   6.646
 1152CHOL    R510389   4.310  10.302   6.670
 1152CHOL    C110390   4.421  10.423   6.326
 1152CHOL    C210391   4.751  10.288   6.044
 1153PNCE   AM110392   3.303   4.369   4.693
 1153PNCE   AM210393   3.165   4.032   4.692
 1153PNCE   T1A10394   3.237   4.437   5.156
 1153PNCE   C2A10395   3.258   4.613   5.595
 1153PNCE   C3A10396   3.282   4.717   6.088
 1153PNCE   C1B10397   3.536   3.981   4.979
 1153PNCE   C2B10398   3.888   4.168   5.214
 1153PNCE   C3B10399   3.930   4.255   5.642
 1153PNCE   D4B10400   4.105   4.123   6.012
 1153PNCE   C5B10401   4.176   3.700   6.077
 1153PNCE   C6B10402   4.050   3.344   5.811
 1154XCA    COO10403  14.315   3.198   4.717
 1154XCA     C110404  14.191   2.985   5.098
 1154XCA     C210405  14.127   2.783   5.490
 1154XCA     C310406  14.135   2.588   5.887
 1154XCA     C410407  13.901   2.460   6.246
 1154XCA     C510408  13.920   2.531   6.699
 1154XCA     C610409  14.301   2.484   6.965
 1155CHOL   ROH10410  10.346   4.981   8.114
 1155CHOL    R110411  10.441   5.058   7.859
 1155CHOL    R210412  10.594   4.891   7.701
 1155CHOL    R310413  10.402   4.943   7.516
 1155CHOL    R410414  10.625   4.832   7.362
 1155CHOL    R510415  10.522   5.020   7.324
 1155CHOL    C110416  10.462   4.845   6.991
 1155CHOL    C210417  10.173   4.880   6.693
 1156CHOL   ROH10418   0.144  15.597   4.621
 1156CHOL    R110419   0.030  15.560   4.877
 1156CHOL    R210420   0.143  15.664   5.107
 1156CHOL    R310421  15.726  15.774   5.141
 1156CHOL    R410422   0.022  15.790   5.405
 1156CHOL    R510423  15.658  15.702   5.358
 1156CHOL    C110424  15.549   0.138   5.610
 1156CHOL    C210425  15.307   0.296   5.979
 1157CHOL   ROH10426   9.121   5.416   6.060
 1157CHOL    R110427   9.051   5.684   6.119
 1157CHOL    R210428   8.823   5.804   6.019
 1157CHOL    R310429   8.774   5.856   6.282
 1157CHOL    R410430   8.590   6.031   6.135
 1157CHOL    R510431   8.733   6.092   6.289
 1157CHOL    C110432   8.408   6.212   6.449
 1157CHOL    C210433   8.348   6.567   6.347
 1158PNCE   AM110434   3.636  11.212   3.989
 1158PNCE   AM210435   3.521  11.507   4.108
 1158PNCE   T1A10436   3.761  10.883   4.288
 1158PNCE   C2A10437   3.884  10.697   4.688
 1158PNCE   C3A10438   4.245  10.499   4.882
 1158PNCE   C1B10439   3.390  11.685   4.497
 1158PNCE   C2B10440   3.384  11.846   4.889
 1158PNCE   C3B10441   3.268  11.937   5.304
 1158PNCE   D4B10442   3.337  12.256   5.613
 1158PNCE   C5B10443   3.171  12.257   6.029
 1158PNCE   C6B10444   3.120  12.605   6.344
 1159CHOL   ROH10445   7.043  10.200   5.253
 1159CHOL    R110446   7.235  10.232   5.458
 1159CHOL    R210447   7.171  10.332   5.708
 1159CHOL    R310448   7.288  10.102   5.794
 1159CHOL    R410449   7.320  10.290   6.016
 1159CHOL    R510450   7.478  10.175   5.919
 1159CHOL    C110451   7.517  10.049   6.277
 1159CHOL    C210452   7.840   9.944   6.421
 1160XCA    COO10453   6.102  13.326   4.446
 1160XCA     C110454   5.743  13.516   4.246
 1160XCA     C210455   5.385  13.666   4.409
 1160XCA     C310456   5.127  13.639   4.712
 1160XCA     C410457   4.889  13.833   4.971
 1160XCA     C510458   4.705  14.201   4.955
 1160XCA     C610459   4.801  14.611   4.870
 1161CHOL   ROH10460  11.150   0.851   5.857
 1161CHOL    R110461  11.089   1.112   5.765
 1161CHOL    R210462  11.226   1.336   5.851
 1161CHOL    R310463  11.264   1.376   5.585
 1161CHOL    R410464  11.287   1.643   5.704
 1161CHOL    R510465  11.155   1.585   5.540
 1161CHOL    C110466  11.358   1.859   5.369
 1161CHOL    C210467  11.705   2.036   5.205
 1162CHOL   ROH10468   0.374   2.167   4.900
 1162CHOL    R110469   0.350   2.226   5.176
 1162CHOL    R210470   0.108   2.281   5.296
 1162CHOL    R310471   0.182   2.081   5.464
 1162CHOL    R410472  15.807   2.230   5.612
 1162CHOL    R510473   0.179   2.180   5.681
 1162CHOL    C110474  15.801   2.012   5.954
 1162CHOL    C210475   0.097   2.077   6.352
 1163CHOL   ROH10476   9.381   9.447   6.036
 1163CHOL    R110477   9.149   9.436   6.199
 1163CHOL    R210478   8.902   9.521   6.110
 1163CHOL    R310479   8.825   9.271   6.186
 1163CHOL    R410480   8.589   9.438   6.231
 1163CHOL    R510481   8.684   9.307   6.376
 1163CHOL    C110482   8.335   9.155   6.373
 1163CHOL    C210483   8.142   8.822   6.372
 1164CHOL   ROH10484  10.553   9.355   8.227
 1164CHOL    R110485  10.514   9.448   7.962
 1164CHOL    R210486  10.678   9.637   7.845
 1164CHOL    R310487  10.703   9.448   7.651
 1164CHOL    R410488  10.785   9.698   7.523
 1164CHOL    R510489  10.633   9.559   7.451
 1164CHOL    C110490  10.871   9.557   7.153
 1164CHOL    C210491  10.609   9.531   6.851
 1165CHOL   ROH10492   7.476   4.660   6.125
 1165CHOL    R110493   7.384   4.924   6.078
 1165CHOL    R210494   7.385   5.119   6.274
 1165CHOL    R310495   7.526   5.259   6.088
 1165CHOL    R410496   7.486   5.448   6.309
 1165CHOL    R510497   7.435   5.481   6.100
 1165CHOL    C110498   7.677   5.771   6.156
 1165CHOL    C210499   7.587   6.072   6.370
 1166PNCE   AM110500  12.100   5.390   4.316
 1166PNCE   AM210501  12.131   5.684   4.472
 1166PNCE   T1A10502  12.139   5.268   4.797
 1166PNCE   C2A10503  12.145   4.977   5.171
 1166PNCE   C3A10504  11.924   4.867   5.557
 1166PNCE   C1B10505  12.000   5.900   4.803
 1166PNCE   C2B10506  11.843   5.849   5.169
 1166PNCE   C3B10507  11.487   5.701   5.431
 1166PNCE   D4B10508  11.134   5.712   5.734
 1166PNCE   C5B10509  11.147   6.123   5.962
 1166PNCE   C6B10510  11.256   6.540   5.893
 1167XCA    COO10511   1.548  11.346   4.753
 1167XCA     C110512   1.543  11.014   5.061
 1167XCA     C210513   1.457  10.704   5.371
 1167XCA     C310514   1.656  10.594   5.757
 1167XCA     C410515   1.914  10.527   6.129
 1167XCA     C510516   2.197  10.615   6.478
 1167XCA     C610517   2.231  10.988   6.663
 1168PNCE   AM110518   1.315  10.435   4.540
 1168PNCE   AM210519   1.184  10.712   4.729
 1168PNCE   T1A10520   1.484  10.352   4.963
 1168PNCE   C2A10521   1.664  10.222   5.365
 1168PNCE   C3A10522   1.815  10.085   5.787
 1168PNCE   C1B10523   1.040  10.948   5.121
 1168PNCE   C2B10524   0.858  10.967   5.543
 1168PNCE   C3B10525   0.955  11.221   5.929
 1168PNCE   D4B10526   0.925  11.697   6.003
 1168PNCE   C5B10527   0.755  12.003   5.680
 1168PNCE   C6B10528   0.886  12.035   5.265
 1169PNCE   AM110529   4.692   1.013   5.329
 1169PNCE   AM210530   4.742   1.349   5.355
 1169PNCE   T1A10531   4.356   1.055   5.575
 1169PNCE   C2A10532   4.122   0.943   5.873
 1169PNCE   C3A10533   3.711   1.056   6.016
 1169PNCE   C1B10534   4.518   1.549   5.713
 1169PNCE   C2B10535   4.471   1.614   6.140
 1169PNCE   C3B10536   4.373   1.642   6.555
 1169PNCE   D4B10537   3.993   1.724   6.792
 1169PNCE   C5B10538   3.679   1.382   6.909
 1169PNCE   C6B10539   3.572   0.944   7.063
 1170XCA    COO10540   5.448   9.825   4.250
 1170XCA     C110541   5.210   9.980   4.620
 1170XCA     C210542   5.046   9.818   5.001
 1170XCA     C310543   4.721   9.673   5.262
 1170XCA     C410544   4.315   9.656   5.273
 1170XCA     C510545   3.974   9.860   5.408
 1170XCA     C610546   3.642   9.744   5.620
 1171CHOL   ROH10547  14.063   8.946   3.886
 1171CHOL    R110548  14.014   8.701   4.020
 1171CHOL    R210549  14.102   8.652   4.277
 1171CHOL    R310550  13.841   8.595   4.322
 1171CHOL    R410551  13.981   8.485   4.554
 1171CHOL    R510552  13.844   8.378   4.423
 1171CHOL    C110553  13.665   8.333   4.757
 1171CHOL    C210554  13.531   8.435   5.114
 1172CHOL   ROH10555   1.949   7.466   4.575
 1172CHOL    R110556   1.872   7.476   4.847
 1172CHOL    R210557   1.678   7.310   4.953
 1172CHOL    R310558   1.874   7.249   5.131
 1172CHOL    R410559   1.625   7.196   5.275
 1172CHOL    R510560   1.789   7.323   5.342
 1172CHOL    C110561   1.777   7.073   5.630
 1172CHOL    C210562   2.017   6.858   5.864
 1173PNCE   AM110563  12.844  13.667   5.014
 1173PNCE   AM210564  13.086  13.850   4.830
 1173PNCE   T1A10565  12.959  13.740   5.454
 1173PNCE   C2A10566  13.001  13.773   5.904
 1173PNCE   C3A10567  13.084  13.858   6.344
 1173PNCE   C1B10568  12.966  14.172   5.167
 1173PNCE   C2B10569  13.049  14.240   5.618
 1173PNCE   C3B10570  13.054  14.308   6.065
 1173PNCE   D4B10571  12.793  14.421   6.439
 1173PNCE   C5B10572  12.680  14.059   6.719
 1173PNCE   C6B10573  12.613  13.724   7.038
 1174CHOL   ROH10574   8.844  13.030   9.156
 1174CHOL    R110575   8.801  13.275   9.022
 1174CHOL    R210576   8.795  13.295   8.747
 1174CHOL    R310577   8.553  13.411   8.793
 1174CHOL    R410578   8.664  13.558   8.564
 1174CHOL    R510579   8.590  13.644   8.750
 1174CHOL    C110580   8.361  13.820   8.501
 1174CHOL    C210581   8.073  13.959   8.255
 1175CHOL   ROH10582   8.436   1.182   6.008
 1175CHOL    R110583   8.371   1.251   6.275
 1175CHOL    R210584   8.424   1.084   6.489
 1175CHOL    R310585   8.551   1.304   6.586
 1175CHOL    R410586   8.498   1.138   6.822
 1175CHOL    R510587   8.444   1.347   6.795
 1175CHOL    C110588   8.662   1.375   7.107
 1175CHOL    C210589   8.758   1.298   7.481
 1176XCA    COO10590   0.965  11.786   4.828
 1176XCA     C110591   1.175  11.459   5.119
 1176XCA     C210592   1.303  11.217   5.518
 1176XCA     C310593   1.495  11.072   5.936
 1176XCA     C410594   1.827  11.156   6.272
 1176XCA     C510595   2.219  11.385   6.365
 1176XCA     C610596   2.422  11.792   6.458
 1177XCA    COO10597  13.274   5.125   5.010
 1177XCA     C110598  12.951   5.079   5.330
 1177XCA     C210599  12.544   4.986   5.498
 1177XCA     C310600  12.303   4.998   5.872
 1177XCA     C410601  12.039   4.928   6.208
 1177XCA     C510602  12.015   4.966   6.651
 1177XCA     C610603  11.943   5.209   7.029
 1178XCA    COO10604  14.388  12.105   4.919
 1178XCA     C110605  14.424  11.779   5.226
 1178XCA     C210606  14.748  11.576   5.459
 1178XCA     C310607  14.753  11.359   5.851
 1178XCA     C410608  14.793  11.308   6.293
 1178XCA     C510609  14.748  10.971   6.598
 1178XCA     C610610  14.825  10.892   7.039
 1179XCA    COO10611   0.693   8.706   4.572
 1179XCA     C110612   0.401   8.670   4.950
 1179XCA     C210613   0.388   8.813   5.399
 1179XCA     C310614   0.582   9.082   5.684
 1179XCA     C410615   0.859   9.204   6.001
 1179XCA     C510616   1.172   9.133   6.322
 1179XCA     C610617   1.271   9.289   6.725
 1180CHOL   ROH10618  12.937   3.685   4.703
 1180CHOL    R110619  13.131   3.563   4.870
 1180CHOL    R210620  13.139   3.291   4.914
 1180CHOL    R310621  13.397   3.318   4.832
 1180CHOL    R410622  13.381   3.045   4.937
 1180CHOL    R510623  13.525   3.198   4.995
 1180CHOL    C110624  13.764   2.927   4.873
 1180CHOL    C210625  14.059   2.757   4.629
 1181PNCE   AM110626  13.788   0.210   8.113
 1181PNCE   AM210627  13.685  15.806   8.379
 1181PNCE   T1A10628  13.543   0.179   7.709
 1181PNCE   C2A10629  13.240   0.118   7.337
 1181PNCE   C3A10630  13.061   0.096   6.904
 1181PNCE   C1B10631  13.310  15.594   8.192
 1181PNCE   C2B10632  13.027  15.563   7.821
 1181PNCE   C3B10633  12.902  15.483   7.384
 1181PNCE   D4B10634  12.821  15.446   6.914
 1181PNCE   C5B10635  12.449  15.188   6.800
 1181PNCE   C6B10636  12.004  15.198   6.683
 1182CHOL   ROH10637   0.845   3.289   5.649
 1182CHOL    R110638   0.969   3.484   5.812
 1182CHOL    R210639   0.833   3.623   6.008
 1182CHOL    R310640   1.032   3.530   6.167
 1182CHOL    R410641   0.918   3.756   6.315
 1182CHOL    R510642   1.128   3.727   6.264
 1182CHOL    C110643   1.154   3.746   6.645
 1182CHOL    C210644   1.395   4.055   6.770
 1183PNCE   AM110645   6.082   2.702   5.107
 1183PNCE   AM210646   6.011   3.042   5.041
 1183PNCE   T1A10647   5.760   2.857   5.451
 1183PNCE   C2A10648   5.555   3.169   5.718
 1183PNCE   C3A10649   5.450   3.493   6.034
 1183PNCE   C1B10650   6.219   3.077   5.483
 1183PNCE   C2B10651   6.107   2.926   5.915
 1183PNCE   C3B10652   5.777   3.099   6.180
 1183PNCE   D4B10653   5.742   3.410   6.482
 1183PNCE   C5B10654   6.040   3.449   6.763
 1183PNCE   C6B10655   6.434   3.592   6.830
 1184PNCE   AM110656  13.625   1.442   4.634
 1184PNCE   AM210657  13.533   1.130   4.650
 1184PNCE   T1A10658  13.583   1.598   5.045
 1184PNCE   C2A10659  13.466   1.793   5.405
 1184PNCE   C3A10660  13.068   1.994   5.545
 1184PNCE   C1B10661  13.327   0.931   5.024
 1184PNCE   C2B10662  13.370   0.876   5.468
 1184PNCE   C3B10663  13.285   0.947   5.885
 1184PNCE   D4B10664  13.264   1.253   6.238
 1184PNCE   C5B10665  13.534   1.579   6.389
 1184PNCE   C6B10666  13.761   1.983   6.431
 1185PNCE   AM110667  13.935  13.557   4.818
 1185PNCE   AM210668  13.667  13.359   4.778
 1185PNCE   T1A10669  13.828  13.717   5.222
 1185PNCE   C2A10670  14.023  13.705   5.614
 1185PNCE   C3A10671  14.135  13.919   5.949
 1185PNCE   C1B10672  13.701  13.218   5.191
 1185PNCE   C2B10673  13.556  12.892   5.431
 1185PNCE   C3B10674  13.553  12.979   5.843
 1185PNCE   D4B10675  13.821  13.013   6.194
 1185PNCE   C5B10676  13.816  13.245   6.601
 1185PNCE   C6B10677  14.130  13.319   6.962
 1186XCA    COO10678  12.121   3.430   4.688
 1186XCA     C110679  12.112   3.458   5.202
 1186XCA     C210680  11.941   3.343   5.643
 1186XCA     C310681  11.900   3.454   6.077
 1186XCA     C410682  11.968   3.535   6.508
 1186XCA     C510683  12.227   3.494   6.880
 1186XCA     C610684  12.651   3.639   6.953
 1187CHOL   ROH10685   7.001   5.298   8.148
 1187CHOL    R110686   6.869   5.301   7.898
 1187CHOL    R210687   7.004   5.321   7.658
 1187CHOL    R310688   6.865   5.095   7.598
 1187CHOL    R410689   6.927   5.215   7.338
 1187CHOL    R510690   6.730   5.156   7.410
 1187CHOL    C110691   6.753   4.941   7.096
 1187CHOL    C210692   6.648   5.107   6.744
 1188XCA    COO10693  12.607  13.213   4.853
 1188XCA     C110694  12.601  12.934   5.247
 1188XCA     C210695  12.700  12.917   5.706
 1188XCA     C310696  12.729  12.987   6.179
 1188XCA     C410697  12.969  12.973   6.597
 1188XCA     C510698  13.317  13.121   6.897
 1188XCA     C610699  13.678  13.084   7.185
 1189XCA    COO10700   3.501   9.031   8.396
 1189XCA     C110701   3.307   8.955   7.977
 1189XCA     C210702   3.090   8.815   7.616
 1189XCA     C310703   2.698   8.733   7.424
 1189XCA     C410704   2.489   8.519   7.091
 1189XCA     C510705   2.422   8.301   6.689
 1189XCA     C610706   2.243   8.195   6.286
 1190PNCE   AM110707   0.159  11.551   4.704
 1190PNCE   AM210708   0.354  11.821   4.866
 1190PNCE   T1A10709  15.806  11.538   5.117
 1190PNCE   C2A10710  15.551  11.259   5.366
 1190PNCE   C3A10711  15.353  10.836   5.347
 1190PNCE   C1B10712   0.404  11.771   5.357
 1190PNCE   C2B10713   0.397  11.677   5.834
 1190PNCE   C3B10714   0.314  11.609   6.275
 1190PNCE   D4B10715   0.327  11.778   6.724
 1190PNCE   C5B10716   0.320  12.189   6.883
 1190PNCE   C6B10717   0.196  12.379   7.255
 1191PNCE   AM110718  12.637  12.413   9.136
 1191PNCE   AM210719  12.611  12.743   9.354
 1191PNCE   T1A10720  12.450  12.414   8.657
 1191PNCE   C2A10721  12.507  12.529   8.167
 1191PNCE   C3A10722  12.555  12.743   7.747
 1191PNCE   C1B10723  12.821  12.879   8.951
 1191PNCE   C2B10724  13.190  12.885   8.697
 1191PNCE   C3B10725  13.562  12.701   8.555
 1191PNCE   D4B10726  14.018  12.689   8.627
 1191PNCE   C5B10727  14.222  12.297   8.603
 1191PNCE   C6B10728  14.413  12.098   8.952
 1192CHOL   ROH10729   6.362   9.376   8.309
 1192CHOL    R110730   6.231   9.305   8.068
 1192CHOL    R210731   6.364   9.279   7.828
 1192CHOL    R310732   6.249   9.033   7.827
 1192CHOL    R410733   6.332   9.077   7.550
 1192CHOL    R510734   6.132   9.022   7.619
 1192CHOL    C110735   6.205   8.727   7.387
 1192CHOL    C210736   6.395   8.685   7.044
 1193PNCE   AM110737  12.655   4.555   4.525
 1193PNCE   AM210738  12.950   4.624   4.726
 1193PNCE   T1A10739  12.542   4.266   4.853
 1193PNCE   C2A10740  12.790   4.096   5.179
 1193PNCE   C3A10741  12.910   3.697   5.336
 1193PNCE   C1B10742  12.612   4.745   5.021
 1193PNCE   C2B10743  12.451   4.497   5.353
 1193PNCE   C3B10744  12.543   4.529   5.818
 1193PNCE   D4B10745  12.664   4.217   6.156
 1193PNCE   C5B10746  12.845   3.791   6.006
 1193PNCE   C6B10747  12.965   3.394   5.769
 1194CHOL   ROH10748   0.007  14.995   5.595
 1194CHOL    R110749  15.794  15.047   5.870
 1194CHOL    R210750  15.567  15.171   5.966
 1194CHOL    R310751  15.552  14.950   6.124
 1194CHOL    R410752  15.396  15.155   6.266
 1194CHOL    R510753  15.561  15.037   6.347
 1194CHOL    C110754  15.283  14.938   6.589
 1194CHOL    C210755  14.970  15.051   6.842
 1195CHOL   ROH10756  11.944  10.996   4.968
 1195CHOL    R110757  11.871  10.950   5.237
 1195CHOL    R210758  11.791  10.703   5.330
 1195CHOL    R310759  11.989  10.743   5.512
 1195CHOL    R410760  11.812  10.546   5.637
 1195CHOL    R510761  11.878  10.735   5.724
 1195CHOL    C110762  12.010  10.492   5.987
 1195CHOL    C210763  12.076  10.208   6.309
 1196CHOL   ROH10764   3.312   7.557   8.147
 1196CHOL    R110765   3.490   7.631   7.939
 1196CHOL    R210766   3.596   7.448   7.762
 1196CHOL    R310767   3.493   7.616   7.576
 1196CHOL    R410768   3.705   7.470   7.435
 1196CHOL    R510769   3.682   7.687   7.448
 1196CHOL    C110770   3.670   7.641   7.069
 1196CHOL    C210771   3.675   7.391   6.772
 1197CHOL   ROH10772   6.137  12.945   8.307
 1197CHOL    R110773   6.371  12.973   8.150
 1197CHOL    R210774   6.476  12.767   8.001
 1197CHOL    R310775   6.459  12.946   7.798
 1197CHOL    R410776   6.678  12.767   7.720
 1197CHOL    R510777   6.686  12.985   7.733
 1197CHOL    C110778   6.778  12.936   7.366
 1197CHOL    C210779   7.180  12.750   7.291
 1198PNCE   AM110780  14.615   1.246   4.348
 1198PNCE   AM210781  14.464   0.915   4.312
 1198PNCE   T1A10782  14.775   1.333   4.782
 1198PNCE   C2A10783  15.144   1.281   5.080
 1198PNCE   C3A10784  15.556   1.414   5.222
 1198PNCE   C1B10785  14.417   0.891   4.740
 1198PNCE   C2B10786  14.368   1.179   5.067
 1198PNCE   C3B10787  14.258   1.265   5.489
 1198PNCE   D4B10788  14.335   1.347   5.933
 1198PNCE   C5B10789  14.112   1.059   6.235
 1198PNCE   C6B10790  13.749   1.055   6.585
 1199PNCE   AM110791   3.625  15.130   4.313
 1199PNCE   AM210792   3.547  15.054   4.637
 1199PNCE   T1A10793   4.036  14.916   4.479
 1199PNCE   C2A10794   4.362  14.883   4.842
 1199PNCE   C3A10795   4.723  14.995   5.182
 1199PNCE   C1B10796   3.611  14.821   5.024
 1199PNCE   C2B10797   3.718  14.600   5.362
 1199PNCE   C3B10798   4.014  14.300   5.531
 1199PNCE   D4B10799   4.062  13.880   5.399
 1199PNCE   C5B10800   4.365  13.611   5.619
 1199PNCE   C6B10801   4.594  13.315   5.879
 1200CHOL   ROH10802  11.941  10.249   8.311
 1200CHOL    R110803  11.832  10.268   8.050
 1200CHOL    R210804  11.915  10.458   7.868
 1200CHOL    R310805  11.957  10.241   7.709
 1200CHOL    R410806  11.970  10.470   7.527
 1200CHOL    R510807  11.843  10.294   7.505
 1200CHOL    C110808  12.041  10.274   7.179
 1200CHOL    C210809  11.961  10.432   6.796
 1201CHOL   ROH10810  15.305   0.685   4.904
 1201CHOL    R110811  15.332   0.694   5.185
 1201CHOL    R210812  15.208   0.885   5.341
 1201CHOL    R310813  15.111   0.669   5.473
 1201CHOL    R410814  15.095   0.888   5.667
 1201CHOL    R510815  15.192   0.695   5.697
 1201CHOL    C110816  14.938   0.686   5.982
 1201CHOL    C210817  14.679   0.887   6.265
 1202XCA    COO10818   3.067   0.137   8.562
 1202XCA     C110819   2.998   0.012   8.112
 1202XCA     C210820   2.724   0.037   7.784
 1202XCA     C310821   2.508  15.586   7.546
 1202XCA     C410822   2.178  15.670   7.283
 1202XCA     C510823   1.788  15.466   7.151
 1202XCA     C610824   1.456  15.422   7.479
 1203PNCE   AM110825   7.796  12.462   5.109
 1203PNCE   AM210826   7.454  12.522   5.220
 1203PNCE   T1A10827   7.647  12.046   5.153
 1203PNCE   C2A10828   7.320  11.778   5.299
 1203PNCE   C3A10829   7.212  11.359   5.413
 1203PNCE   C1B10830   7.637  12.353   5.627
 1203PNCE   C2B10831   7.909  12.540   5.966
 1203PNCE   C3B10832   8.303  12.532   6.189
 1203PNCE   D4B10833   8.743  12.488   6.282
 1203PNCE   C5B10834   9.057  12.258   6.485
 1203PNCE   C6B10835   9.492  12.204   6.488
 1204CHOL   ROH10836  14.489   4.247   4.977
 1204CHOL    R110837  14.534   4.288   5.253
 1204CHOL    R210838  14.458   4.104   5.445
 1204CHOL    R310839  14.719   4.120   5.518
 1204CHOL    R410840  14.583   4.003   5.751
 1204CHOL    R510841  14.712   4.179   5.750
 1204CHOL    C110842  14.901   3.959   5.998
 1204CHOL    C210843  14.848   3.702   6.316
 1205CHOL   ROH10844  10.136  13.678   7.536
 1205CHOL    R110845  10.007  13.442   7.451
 1205CHOL    R210846   9.878  13.422   7.207
 1205CHOL    R310847  10.040  13.206   7.175
 1205CHOL    R410848   9.800  13.141   7.021
 1205CHOL    R510849   9.892  13.019   7.176
 1205CHOL    C110850   9.908  12.775   6.883
 1205CHOL    C210851   9.540  12.713   6.839
 1206PNCE   AM110852   4.947  10.714   4.302
 1206PNCE   AM210853   5.113  11.018   4.182
 1206PNCE   T1A10854   4.645  10.765   4.648
 1206PNCE   C2A10855   4.257  11.031   4.735
 1206PNCE   C3A10856   3.998  11.090   5.096
 1206PNCE   C1B10857   5.110  11.028   4.659
 1206PNCE   C2B10858   5.054  10.978   5.105
 1206PNCE   C3B10859   5.089  11.052   5.557
 1206PNCE   D4B10860   4.935  11.303   5.919
 1206PNCE   C5B10861   4.686  11.258   6.335
 1206PNCE   C6B10862   4.509  11.504   6.720
 1207CHOL   ROH10863   6.528  13.163   8.519
 1207CHOL    R110864   6.592  13.288   8.274
 1207CHOL    R210865   6.568  13.561   8.235
 1207CHOL    R310866   6.828  13.540   8.159
 1207CHOL    R410867   6.757  13.819   8.104
 1207CHOL    R510868   6.844  13.677   7.964
 1207CHOL    C110869   7.111  13.950   7.957
 1207CHOL    C210870   7.304  14.191   7.729
 1208PNCE   AM110871  14.968   7.197   3.788
 1208PNCE   AM210872  15.279   7.155   3.944
 1208PNCE   T1A10873  14.784   7.180   4.227
 1208PNCE   C2A10874  14.608   7.387   4.617
 1208PNCE   C3A10875  14.816   7.508   5.036
 1208PNCE   C1B10876  15.295   7.219   4.389
 1208PNCE   C2B10877  15.292   7.447   4.787
 1208PNCE   C3B10878  15.349   7.566   5.212
 1208PNCE   D4B10879  15.372   7.629   5.648
 1208PNCE   C5B10880  15.606   7.746   5.954
 1208PNCE   C6B10881   0.037   8.071   6.119
 1209XCA    COO10882   9.527  13.507   5.437
 1209XCA     C110883   9.456  13.553   5.896
 1209XCA     C210884   9.374  13.716   6.294
 1209XCA     C310885   9.239  13.689   6.664
 1209XCA     C410886   8.905  13.647   6.930
 1209XCA     C510887   8.539  13.885   6.930
 1209XCA     C610888   8.456  14.280   6.780
 1210PNCE   AM110889  10.908  12.656   5.223
 1210PNCE   AM210890  10.601  12.842   5.246
 1210PNCE   T1A10891  10.875  12.854   5.684
 1210PNCE   C2A10892  10.664  12.885   6.098
 1210PNCE   C3A10893  10.423  12.697   6.443
 1210PNCE   C1B10894  10.876  13.186   5.271
 1210PNCE   C2B10895  11.196  13.390   5.477
 1210PNCE   C3B10896  11.519  13.733   5.488
 1210PNCE   D4B10897  11.727  14.010   5.747
 1210PNCE   C5B10898  11.756  13.880   6.167
 1210PNCE   C6B10899  11.551  13.760   6.556
 1211PNCE   AM110900  11.474   2.872   4.695
 1211PNCE   AM210901  11.585   3.198   4.520
 1211PNCE   T1A10902  11.457   2.846   5.146
 1211PNCE   C2A10903  11.480   3.115   5.510
 1211PNCE   C3A10904  11.410   3.413   5.858
 1211PNCE   C1B10905  11.680   3.277   4.990
 1211PNCE   C2B10906  11.930   2.975   5.300
 1211PNCE   C3B10907  12.243   2.835   5.642
 1211PNCE   D4B10908  12.519   2.570   5.949
 1211PNCE   C5B10909  12.465   2.722   6.386
 1211PNCE   C6B10910  12.147   2.965   6.612
 1212CHOL   ROH10911   9.051   9.849   8.139
 1212CHOL    R110912   9.065   9.745   7.876
 1212CHOL    R210913   8.882   9.562   7.779
 1212CHOL    R310914   8.853   9.745   7.580
 1212CHOL    R410915   8.826   9.486   7.446
 1212CHOL    R510916   8.963   9.647   7.392
 1212CHOL    C110917   8.767   9.614   7.066
 1212CHOL    C210918   8.543   9.385   6.802
 1213PNCE   AM110919   3.118   4.922   4.479
 1213PNCE   AM210920   2.935   5.143   4.214
 1213PNCE   T1A10921   2.959   4.823   4.905
 1213PNCE   C2A10922   2.936   4.963   5.343
 1213PNCE   C3A10923   3.032   5.049   5.777
 1213PNCE   C1B10924   2.746   5.297   4.596
 1213PNCE   C2B10925   2.583   5.234   4.997
 1213PNCE   C3B10926   2.343   5.238   5.345
 1213PNCE   D4B10927   2.063   5.332   5.651
 1213PNCE   C5B10928   2.222   5.739   5.824
 1213PNCE   C6B10929   2.393   6.169   5.999
 1214PNCE   AM110930  12.506  14.409   5.112
 1214PNCE   AM210931  12.335  14.646   4.969
 1214PNCE   T1A10932  12.611  14.522   5.543
 1214PNCE   C2A10933  12.520  14.634   5.997
 1214PNCE   C3A10934  12.337  14.825   6.413
 1214PNCE   C1B10935  12.214  14.805   5.353
 1214PNCE   C2B10936  12.092  14.905   5.756
 1214PNCE   C3B10937  11.952  14.757   6.106
 1214PNCE   D4B10938  11.675  14.871   6.418
 1214PNCE   C5B10939  11.346  14.592   6.504
 1214PNCE   C6B10940  11.226  14.162   6.424
 1215XCA    COO10941  15.348   2.952   4.401
 1215XCA     C110942  15.532   2.941   4.878
 1215XCA     C210943  15.539   3.016   5.331
 1215XCA     C310944  15.765   3.118   5.670
 1215XCA     C410945  15.757   3.387   6.049
 1215XCA     C510946  15.772   3.283   6.468
 1215XCA     C610947  15.421   3.076   6.724
 1216CHOL   ROH10948   5.820  11.524   4.743
 1216CHOL    R110949   5.920  11.535   5.007
 1216CHOL    R210950   5.818  11.707   5.198
 1216CHOL    R310951   5.789  11.479   5.342
 1216CHOL    R410952   5.794  11.693   5.542
 1216CHOL    R510953   5.921  11.516   5.539
 1216CHOL    C110954   5.753  11.471   5.879
 1216CHOL    C210955   5.678  11.502   6.268
 1217CHOL   ROH10956   8.400   5.714   4.958
 1217CHOL    R110957   8.458   5.742   5.233
 1217CHOL    R210958   8.335   5.930   5.393
 1217CHOL    R310959   8.276   5.714   5.547
 1217CHOL    R410960   8.250   5.943   5.728
 1217CHOL    R510961   8.371   5.765   5.760
 1217CHOL    C110962   8.145   5.748   6.067
 1217CHOL    C210963   8.059   5.863   6.476
 1218CHOL   ROH10964  14.561  15.159   5.017
 1218CHOL    R110965  14.474  15.158   5.286
 1218CHOL    R210966  14.636  15.238   5.495
 1218CHOL    R310967  14.428  15.405   5.550
 1218CHOL    R410968  14.584  15.395   5.798
 1218CHOL    R510969  14.371  15.355   5.777
 1218CHOL    C110970  14.359  15.644   6.026
 1218CHOL    C210971  14.048  15.811   6.258
 1219CHOL   ROH10972   4.244  12.570   6.839
 1219CHOL    R110973   4.333  12.834   6.890
 1219CHOL    R210974   4.521  12.960   6.732
 1219CHOL    R310975   4.330  13.153   6.716
 1219CHOL    R410976   4.584  13.299   6.709
 1219CHOL    R510977   4.417  13.334   6.845
 1219CHOL    C110978   4.442  13.677   6.680
 1219CHOL    C210979   4.424  14.088   6.560
 1220XCA    COO10980   5.213   6.062   4.421
 1220XCA     C110981   5.248   5.809   4.789
 1220XCA     C210982   5.149   5.691   5.196
 1220XCA     C310983   5.155   5.713   5.636
 1220XCA     C410984   5.212   5.852   6.077
 1220XCA     C510985   4.998   5.750   6.487
 1220XCA     C610986   4.603   5.638   6.713
 1221CHOL   ROH10987   4.662   8.581   5.474
 1221CHOL    R110988   4.528   8.789   5.611
 1221CHOL    R210989   4.253   8.819   5.604
 1221CHOL    R310990   4.278   8.814   5.875
 1221CHOL    R410991   4.010   8.922   5.827
 1221CHOL    R510992   4.166   9.013   5.948
 1221CHOL    C110993   3.891   8.977   6.210
 1221CHOL    C210994   3.729   9.077   6.598
 1222PNCE   AM110995   8.139   0.080   5.698
 1222PNCE   AM210996   7.967  15.598   5.621
 1222PNCE   T1A10997   7.994   0.290   6.101
 1222PNCE   C2A10998   7.750   0.336   6.481
 1222PNCE   C3A10999   7.690   0.015   6.792
 1222PNCE   C1B11000   8.036  15.504   6.079
 1222PNCE   C2B11001   8.123  15.717   6.480
 1222PNCE   C3B11002   8.188   0.068   6.897
 1222PNCE   D4B11003   8.005   0.017   7.337
 1222PNCE   C5B11004   7.902  15.412   7.429
 1222PNCE   C6B11005   8.130  15.013   7.323
 1223PNCE   AM111006   0.490  11.119   4.727
 1223PNCE   AM211007   0.161  10.980   4.749
 1223PNCE   T1A11008   0.641  11.339   5.122
 1223PNCE   C2A11009   0.847  11.521   5.509
 1223PNCE   C3A11010   1.230  11.807   5.606
 1223PNCE   C1B11011   0.187  11.074   5.187
 1223PNCE   C2B11012   0.226  11.281   5.560
 1223PNCE   C3B11013   0.347  11.133   5.966
 1223PNCE   D4B11014   0.588  11.148   6.329
 1223PNCE   C5B11015   1.027  11.052   6.437
 1223PNCE   C6B11016   1.316  11.084   6.802
 1224PNCE   AM111017   7.172   2.075   5.209
 1224PNCE   AM211018   7.510   2.047   5.371
 1224PNCE   T1A11019   6.816   2.049   5.521
 1224PNCE   C2A11020   6.728   1.874   5.955
 1224PNCE   C3A11021   6.393   1.601   6.078
 1224PNCE   C1B11022   7.248   1.808   5.679
 1224PNCE   C2B11023   7.166   1.535   6.034
 1224PNCE   C3B11024   6.824   1.368   6.257
 1224PNCE   D4B11025   6.616   1.547   6.579
 1224PNCE   C5B11026   6.538   1.961   6.478
 1224PNCE   C6B11027   6.755   2.307   6.306
 1225XCA    COO11028   3.093  10.759   4.459
 1225XCA     C111029   3.332  10.557   4.787
 1225XCA     C211030   3.571  10.765   5.089
 1225XCA     C311031   3.537  11.122   5.343
 1225XCA     C411032   3.502  11.388   5.683
 1225XCA     C511033   3.758  11.504   6.049
 1225XCA     C611034   4.095  11.516   6.374
 1226CHOL   ROH11035   6.988   6.962   5.679
 1226CHOL    R111036   7.188   7.003   5.875
 1226CHOL    R211037   7.143   7.151   6.104
 1226CHOL    R311038   7.233   6.926   6.228
 1226CHOL    R411039   7.287   7.142   6.418
 1226CHOL    R511040   7.430   6.996   6.343
 1226CHOL    C111041   7.454   6.926   6.717
 1226CHOL    C211042   7.374   6.709   7.002
 1227CHOL   ROH11043   6.915  10.304   8.838
 1227CHOL    R111044   6.874  10.476   8.617
 1227CHOL    R211045   7.042  10.479   8.398
 1227CHOL    R311046   6.811  10.439   8.261
 1227CHOL    R411047   6.996  10.547   8.062
 1227CHOL    R511048   6.798  10.624   8.110
 1227CHOL    C111049   6.753  10.550   7.738
 1227CHOL    C211050   6.607  10.418   7.361
 1228XCA    COO11051  13.420   8.305   3.954
 1228XCA     C111052  13.366   8.488   4.386
 1228XCA     C211053  13.120   8.418   4.756
 1228XCA     C311054  13.006   8.389   5.157
 1228XCA     C411055  13.122   8.637   5.475
 1228XCA     C511056  13.096   8.748   5.897
 1228XCA     C611057  13.108   9.137   6.129
 1229CHOL   ROH11058  13.454   7.555   4.185
 1229CHOL    R111059  13.448   7.453   4.449
 1229CHOL    R211060  13.641   7.514   4.637
 1229CHOL    R311061  13.426   7.589   4.786
 1229CHOL    R411062  13.625   7.504   4.982
 1229CHOL    R511063  13.420   7.433   4.966
 1229CHOL    C111064  13.414   7.569   5.323
 1229CHOL    C211065  13.536   7.662   5.708
 1230CHOL   ROH11066  12.719   9.043   8.108
 1230CHOL    R111067  12.749   9.085   7.830
 1230CHOL    R211068  12.862   8.896   7.663
 1230CHOL    R311069  12.630   8.927   7.524
 1230CHOL    R411070  12.827   8.846   7.323
 1230CHOL    R511071  12.698   9.022   7.315
 1230CHOL    C111072  12.589   8.846   6.994
 1230CHOL    C211073  12.790   8.746   6.657
 1231CHOL   ROH11074   5.757   4.193   7.244
 1231CHOL    R111075   6.032   4.258   7.243
 1231CHOL    R211076   6.153   4.397   7.449
 1231CHOL    R311077   6.322   4.184   7.451
 1231CHOL    R411078   6.472   4.398   7.582
 1231CHOL    R511079   6.538   4.279   7.413
 1231CHOL    C111080   6.816   4.199   7.662
 1231CHOL    C211081   6.997   3.954   7.892
 1232XCA    COO11082   7.204  10.006   8.575
 1232XCA     C111083   7.382  10.205   8.191
 1232XCA     C211084   7.752  10.290   7.957
 1232XCA     C311085   7.878  10.606   7.696
 1232XCA     C411086   8.162  10.836   7.434
 1232XCA     C511087   8.177  11.213   7.174
 1232XCA     C611088   8.070  11.565   6.904
 1233PNCE   AM111089   1.432   4.771   4.566
 1233PNCE   AM211090   1.078   4.905   4.465
 1233PNCE   T1A11091   1.607   5.133   4.844
 1233PNCE   C2A11092   1.869   5.443   5.115
 1233PNCE   C3A11093   2.188   5.744   5.289
 1233PNCE   C1B11094   1.087   5.206   4.789
 1233PNCE   C2B11095   0.965   5.225   5.234
 1233PNCE   C3B11096   1.116   5.300   5.660
 1233PNCE   D4B11097   1.297   5.158   6.050
 1233PNCE   C5B11098   1.420   5.454   6.396
 1233PNCE   C6B11099   1.662   5.843   6.420
 1234PNCE   AM111100  10.366   7.183   4.431
 1234PNCE   AM211101  10.026   7.353   4.390
 1234PNCE   T1A11102  10.401   6.875   4.783
 1234PNCE   C2A11103  10.485   6.841   5.226
 1234PNCE   C3A11104  10.502   7.043   5.634
 1234PNCE   C1B11105  10.166   7.550   4.768
 1234PNCE   C2B11106  10.177   7.814   5.111
 1234PNCE   C3B11107  10.208   7.924   5.531
 1234PNCE   D4B11108  10.182   7.855   5.916
 1234PNCE   C5B11109  10.569   7.885   6.026
 1234PNCE   C6B11110  11.010   7.948   5.974
 1235PNCE   AM111111  12.960   5.868   4.303
 1235PNCE   AM211112  12.954   6.217   4.231
 1235PNCE   T1A11113  13.071   5.761   4.736
 1235PNCE   C2A11114  12.989   5.892   5.183
 1235PNCE   C3A11115  13.200   6.137   5.526
 1235PNCE   C1B11116  13.193   6.260   4.659
 1235PNCE   C2B11117  13.433   6.120   5.048
 1235PNCE   C3B11118  13.791   5.880   5.253
 1235PNCE   D4B11119  14.024   5.636   5.593
 1235PNCE   C5B11120  13.767   5.238   5.727
 1235PNCE   C6B11121  13.288   5.169   5.768
 1236PNCE   AM111122  12.099  15.786   4.710
 1236PNCE   AM211123  12.401  15.576   4.724
 1236PNCE   T1A11124  12.214   0.048   5.176
 1236PNCE   C2A11125  12.493   0.366   5.392
 1236PNCE   C3A11126  12.619   0.613   5.757
 1236PNCE   C1B11127  12.436  15.342   5.137
 1236PNCE   C2B11128  12.513  15.155   5.606
 1236PNCE   C3B11129  12.625  15.147   6.038
 1236PNCE   D4B11130  12.585  15.445   6.370
 1236PNCE   C5B11131  12.299  15.788   6.241
 1236PNCE   C6B11132  12.261   0.245   5.868
 1237CHOL   ROH11133   6.534   1.912   8.331
 1237CHOL    R111134   6.683   1.865   8.095
 1237CHOL    R211135   6.566   1.776   7.861
 1237CHOL    R311136   6.686   1.995   7.755
 1237CHOL    R411137   6.553   1.867   7.528
 1237CHOL    R511138   6.763   1.923   7.540
 1237CHOL    C111139   6.659   2.125   7.234
 1237CHOL    C211140   6.396   2.187   6.953
 1238XCA    COO11141  10.723   2.015   4.784
 1238XCA     C111142  10.874   1.944   5.206
 1238XCA     C211143  10.943   1.981   5.629
 1238XCA     C311144  11.188   2.022   5.970
 1238XCA     C411145  11.113   2.045   6.335
 1238XCA     C511146  10.771   2.241   6.395
 1238XCA     C611147  10.626   2.643   6.558
 1239XCA    COO11148   0.993   3.763   9.170
 1239XCA     C111149   1.251   3.522   8.893
 1239XCA     C211150   1.416   3.637   8.515
 1239XCA     C311151   1.304   3.584   8.091
 1239XCA     C411152   1.058   3.729   7.775
 1239XCA     C511153   0.802   4.039   7.894
 1239XCA     C611154   0.783   4.391   8.144
 1240PNCE   AM111155   8.897  11.707   5.059
 1240PNCE   AM211156   8.936  12.064   5.110
 1240PNCE   T1A11157   9.317  11.650   5.273
 1240PNCE   C2A11158   9.592  11.727   5.584
 1240PNCE   C3A11159   9.666  11.462   5.885
 1240PNCE   C1B11160   9.012  11.942   5.540
 1240PNCE   C2B11161   9.142  11.563   5.781
 1240PNCE   C3B11162   9.277  11.127   5.868
 1240PNCE   D4B11163   9.219  10.876   6.232
 1240PNCE   C5B11164   9.508  10.860   6.563
 1240PNCE   C6B11165   9.808  11.141   6.742
 1241CHOL   ROH11166  11.418   7.697   7.350
 1241CHOL    R111167  11.447   7.926   7.187
 1241CHOL    R211168  11.635   7.943   6.985
 1241CHOL    R311169  11.419   8.004   6.832
 1241CHOL    R411170  11.648   8.100   6.678
 1241CHOL    R511171  11.473   8.216   6.735
 1241CHOL    C111172  11.453   8.249   6.356
 1241CHOL    C211173  11.510   8.487   6.039
 1242PNCE   AM111174   9.454  10.601   4.355
 1242PNCE   AM211175   9.385  10.846   4.600
 1242PNCE   T1A11176   9.143  10.301   4.499
 1242PNCE   C2A11177   9.005  10.136   4.886
 1242PNCE   C3A11178   9.020   9.967   5.307
 1242PNCE   C1B11179   9.431  10.459   4.889
 1242PNCE   C2B11180   9.395  10.298   5.324
 1242PNCE   C3B11181   9.308  10.171   5.760
 1242PNCE   D4B11182   9.113   9.956   6.132
 1242PNCE   C5B11183   8.687  10.059   6.189
 1242PNCE   C6B11184   8.306  10.196   6.377
 1243XCA    COO11185  13.305  10.561   8.426
 1243XCA     C111186  13.315  10.720   7.946
 1243XCA     C211187  13.312  10.620   7.493
 1243XCA     C311188  13.386  10.700   7.060
 1243XCA     C411189  13.226  10.968   6.753
 1243XCA     C511190  12.812  11.107   6.703
 1243XCA     C611191  12.472  11.191   6.397
 1244PNCE   AM111192   7.218   0.226   5.386
 1244PNCE   AM211193   7.448   0.049   5.166
 1244PNCE   T1A11194   6.910   0.136   5.731
 1244PNCE   C2A11195   6.777   0.379   6.124
 1244PNCE   C3A11196   6.928   0.437   6.551
 1244PNCE   C1B11197   7.353  15.580   5.531
 1244PNCE   C2B11198   7.106  15.499   5.934
 1244PNCE   C3B11199   7.056  15.378   6.384
 1244PNCE   D4B11200   7.051  15.464   6.849
 1244PNCE   C5B11201   7.453  15.486   7.108
 1244PNCE   C6B11202   7.418  15.244   7.485
 1245PNCE   AM111203   2.323   4.342   4.731
 1245PNCE   AM211204   2.212   4.020   4.754
 1245PNCE   T1A11205   1.958   4.457   5.015
 1245PNCE   C2A11206   1.603   4.704   5.205
 1245PNCE   C3A11207   1.222   4.799   5.476
 1245PNCE   C1B11208   2.120   4.006   5.167
 1245PNCE   C2B11209   1.983   4.108   5.536
 1245PNCE   C3B11210   1.930   4.081   5.962
 1245PNCE   D4B11211   1.761   4.119   6.380
 1245PNCE   C5B11212   1.722   4.573   6.396
 1245PNCE   C6B11213   1.693   5.027   6.573
 1246PNCE   AM111214   4.171   4.019   4.732
 1246PNCE   AM211215   4.103   3.730   4.956
 1246PNCE   T1A11216   4.460   4.060   5.112
 1246PNCE   C2A11217   4.847   3.957   5.331
 1246PNCE   C3A11218   4.998   3.936   5.724
 1246PNCE   C1B11219   4.018   3.695   5.413
 1246PNCE   C2B11220   3.702   3.731   5.762
 1246PNCE   C3B11221   3.233   3.712   5.744
 1246PNCE   D4B11222   2.951   4.067   5.755
 1246PNCE   C5B11223   2.659   4.085   6.097
 1246PNCE   C6B11224   2.313   3.816   6.230
 1247CHOL   ROH11225   7.414   5.448   7.990
 1247CHOL    R111226   7.422   5.466   7.708
 1247CHOL    R211227   7.602   5.323   7.555
 1247CHOL    R311228   7.378   5.239   7.427
 1247CHOL    R411229   7.596   5.181   7.240
 1247CHOL    R511230   7.416   5.295   7.197
 1247CHOL    C111231   7.383   5.018   6.937
 1247CHOL    C211232   7.423   4.756   6.589
 1248XCA    COO11233   7.115   9.789   6.130
 1248XCA     C111234   6.759   9.908   6.403
 1248XCA     C211235   6.461   9.791   6.693
 1248XCA     C311236   6.051   9.721   6.979
 1248XCA     C411237   5.730   9.381   6.903
 1248XCA     C511238   5.339   9.270   6.655
 1248XCA     C611239   4.993   8.961   6.525
 1249XCA    COO11240  10.764  13.948   5.671
 1249XCA     C111241  10.787  14.063   6.128
 1249XCA     C211242  10.748  14.023   6.601
 1249XCA     C311243  10.796  13.811   7.039
 1249XCA     C411244  10.693  13.559   7.441
 1249XCA     C511245  10.526  13.607   7.796
 1249XCA     C611246  10.323  13.897   7.994
 1250CHOL   ROH11247   5.058   5.053   7.884
 1250CHOL    R111248   4.939   5.124   7.637
 1250CHOL    R211249   4.703   5.265   7.621
 1250CHOL    R311250   4.850   5.432   7.466
 1250CHOL    R411251   4.573   5.518   7.424
 1250CHOL    R511252   4.717   5.464   7.270
 1250CHOL    C111253   4.637   5.822   7.163
 1250CHOL    C211254   4.370   6.106   7.186
 1251XCA    COO11255   6.328   8.038   4.413
 1251XCA     C111256   6.194   8.139   4.852
 1251XCA     C211257   6.125   8.114   5.281
 1251XCA     C311258   5.974   8.212   5.659
 1251XCA     C411259   6.034   8.134   6.050
 1251XCA     C511260   6.189   8.317   6.415
 1251XCA     C611261   6.488   8.306   6.731
 1252CHOL   ROH11262  12.325   1.436   5.297
 1252CHOL    R111263  12.544   1.416   5.474
 1252CHOL    R211264  12.678   1.637   5.571
 1252CHOL    R311265  12.622   1.525   5.812
 1252CHOL    R411266  12.870   1.676   5.855
 1252CHOL    R511267  12.836   1.465   5.901
 1252CHOL    C111268  12.930   1.593   6.248
 1252CHOL    C211269  13.066   1.838   6.549
 1253CHOL   ROH11270  12.913  10.435   8.162
 1253CHOL    R111271  12.844  10.554   7.915
 1253CHOL    R211272  12.916  10.445   7.672
 1253CHOL    R311273  12.649  10.461   7.622
 1253CHOL    R411274  12.773  10.437   7.358
 1253CHOL    R511275  12.634  10.591   7.422
 1253CHOL    C111276  12.439  10.446   7.127
 1253CHOL    C211277  12.444  10.273   6.726
 1254XCA    COO11278   2.331  10.635   4.470
 1254XCA     C111279   2.384  10.750   4.911
 1254XCA     C211280   2.547  10.904   5.288
 1254XCA     C311281   2.690  10.806   5.694
 1254XCA     C411282   2.659  10.578   6.075
 1254XCA     C511283   2.746  10.496   6.491
 1254XCA     C611284   3.044  10.625   6.817
 1255PNCE   AM111285  10.659   7.812   4.277
 1255PNCE   AM211286  10.299   7.773   4.297
 1255PNCE   T1A11287  10.657   7.574   4.668
 1255PNCE   C2A11288  10.612   7.306   5.053
 1255PNCE   C3A11289  10.925   7.155   5.381
 1255PNCE   C1B11290   9.979   7.998   4.599
 1255PNCE   C2B11291   9.758   8.098   4.984
 1255PNCE   C3B11292   9.759   8.205   5.409
 1255PNCE   D4B11293   9.895   8.317   5.839
 1255PNCE   C5B11294  10.099   8.653   6.054
 1255PNCE   C6B11295   9.960   8.917   6.407
 1256CHOL   ROH11296  14.826   6.229   6.733
 1256CHOL    R111297  14.795   6.165   6.459
 1256CHOL    R211298  14.933   5.959   6.338
 1256CHOL    R311299  14.684   5.879   6.264
 1256CHOL    R411300  14.864   5.748   6.073
 1256CHOL    R511301  14.692   5.873   6.025
 1256CHOL    C111302  14.590   5.550   5.850
 1256CHOL    C211303  14.538   5.636   5.471
 1257XCA    COO11304  10.057   9.114   4.368
 1257XCA     C111305   9.952   9.143   4.821
 1257XCA     C211306   9.916   9.288   5.261
 1257XCA     C311307   9.956   9.374   5.705
 1257XCA     C411308   9.850   9.466   6.138
 1257XCA     C511309   9.893   9.680   6.565
 1257XCA     C611310  10.195   9.925   6.816
 1258PNCE   AM111311   7.358   1.088   5.055
 1258PNCE   AM211312   7.589   1.382   5.150
 1258PNCE   T1A11313   7.178   1.228   5.446
 1258PNCE   C2A11314   6.823   1.050   5.649
 1258PNCE   C3A11315   6.568   0.699   5.762
 1258PNCE   C1B11316   7.647   1.482   5.611
 1258PNCE   C2B11317   7.594   1.255   6.006
 1258PNCE   C3B11318   7.854   1.151   6.346
 1258PNCE   D4B11319   8.012   1.206   6.767
 1258PNCE   C5B11320   8.159   0.841   6.970
 1258PNCE   C6B11321   7.935   0.473   7.044
 1259CHOL   ROH11322  14.044   4.802   5.499
 1259CHOL    R111323  13.923   4.756   5.751
 1259CHOL    R211324  14.068   4.743   5.985
 1259CHOL    R311325  13.894   4.934   6.067
 1259CHOL    R411326  13.995   4.817   6.315
 1259CHOL    R511327  13.786   4.840   6.258
 1259CHOL    C111328  13.789   5.040   6.583
 1259CHOL    C211329  13.708   4.863   6.943
 1260XCA    COO11330  10.633   3.371   6.215
 1260XCA     C111331  10.472   3.178   6.579
 1260XCA     C211332  10.128   3.126   6.860
 1260XCA     C311333  10.030   3.016   7.244
 1260XCA     C411334  10.147   2.735   7.525
 1260XCA     C511335   9.923   2.356   7.544
 1260XCA     C611336   9.496   2.264   7.448
 1261XCA    COO11337  14.032   1.611   8.814
 1261XCA     C111338  14.061   1.871   8.441
 1261XCA     C211339  13.859   2.034   8.075
 1261XCA     C311340  13.703   2.132   7.665
 1261XCA     C411341  13.459   2.130   7.328
 1261XCA     C511342  13.480   1.995   6.898
 1261XCA     C611343  13.354   2.264   6.537
 1262PNCE   AM111344  12.368  12.215   5.042
 1262PNCE   AM211345  12.611  12.442   5.097
 1262PNCE   T1A11346  12.308  12.156   5.458
 1262PNCE   C2A11347  12.368  12.145   5.887
 1262PNCE   C3A11348  12.395  12.085   6.340
 1262PNCE   C1B11349  12.750  12.409   5.542
 1262PNCE   C2B11350  12.749  12.477   5.999
 1262PNCE   C3B11351  12.666  12.558   6.424
 1262PNCE   D4B11352  12.450  12.454   6.754
 1262PNCE   C5B11353  12.510  12.028   6.865
 1262PNCE   C6B11354  12.660  11.860   7.225
 1263XCA    COO11355   8.254   4.393   4.707
 1263XCA     C111356   8.297   4.664   5.064
 1263XCA     C211357   8.129   5.035   5.258
 1263XCA     C311358   7.748   5.243   5.312
 1263XCA     C411359   7.553   5.094   5.637
 1263XCA     C511360   7.466   4.685   5.660
 1263XCA     C611361   7.360   4.331   5.817
 1264XCA    COO11362   6.124   6.440   4.058
 1264XCA     C111363   5.901   6.838   4.144
 1264XCA     C211364   5.902   7.178   4.452
 1264XCA     C311365   6.186   7.257   4.787
 1264XCA     C411366   6.470   7.131   5.088
 1264XCA     C511367   6.786   7.314   5.341
 1264XCA     C611368   7.124   7.412   5.630
 1265WN      WN11369   1.856  11.464  11.387
 1266WN      WN11370  14.112   0.376  11.281
 1267WN      WN11371  11.728   4.380   9.909
 1268WN      WN11372   0.740   5.901   9.240
 1269WN      WN11373   6.337  13.328   2.339
 1270WN      WN11374  10.171   6.056   8.823
 1271WN      WN11375  12.427   5.071  12.012
 1272WN      WN11376  12.044   8.644  11.319
 1273WN      WN11377  13.421   6.808   2.417
 1274WN      WN11378  13.887  12.875  11.124
 1275WN      WN11379  11.266   9.061   9.477
 1276WN      WN11380   6.767   9.325  10.302
 1277WN      WN11381   9.282   1.276   2.170
 1278WN      WN11382   8.579   4.645   8.543
 1279WN      WN11383  15.427   5.552  11.649
 1280WN      WN11384   5.570  12.739   8.795
 1281WN      WN11385  12.913   6.960   3.164
 1282WN      WN11386  15.460   6.601  13.579
 1283WN      WN11387   0.041  10.548   3.201
 1284WN      WN11388   2.436   1.079   4.653
 1285WN      WN11389   7.057   4.939  13.314
 1286WN      WN11390   5.736   4.245  13.413
 1287WN      WN11391   6.659   1.416  11.320
 1288WN      WN11392  12.027  14.283   4.680
 1289WN      WN11393   9.967   4.146   3.740
 1290WN      WN11394   3.866  11.188   3.407
 1291WN      WN11395   9.823  10.254  13.499
 1292WN      WN11396   0.918  14.154  12.544
 1293WN      WN11397   9.490   0.040   1.337
 1294WN      WN11398  14.605   1.238   3.046
 1295WN      WN11399   2.564  12.265  10.611
 1296WN      WN11400   3.023  11.379   9.552
 1297WN      WN11401   4.028   9.162   1.225
 1298WN      WN11402  12.478   8.307   1.964
 1299WN      WN11403   7.551   5.594   9.096
 1300WN      WN11404   5.798   1.478   1.833
 1301WN      WN11405   9.280   5.831   2.758
 1302WN      WN11406   4.884   9.918   1.964
 1303WN      WN11407   1.944   8.260  12.400
 1304WN      WN11408  15.712   1.315   2.361
 1305WN      WN11409  10.431  13.095   3.465
 1306WN      WN11410  10.583  12.940   0.806
 1307WN      WN11411  13.436  12.287   3.730
 1308WN      WN11412   5.669   6.167  10.876
 1309WN      WN11413   4.609   5.240  10.044
 1310WN      WN11414  14.821   4.050  13.148
 1311WN      WN11415   6.845  11.643  10.103
 1312WN      WN11416  12.129  11.898  11.669
 1313WN      WN11417   1.037  11.754  11.328
 1314WN      WN11418   2.036   6.963  10.790
 1315WN      WN11419   0.724  10.993  13.254
 1316WN      WN11420   7.266   5.377   3.493
 1317WN      WN11421   5.369  10.970  11.931
 1318WN      WN11422  11.231   9.807   2.271
 1319WN      WN11423   3.645   9.602   2.567
 1320WN      WN11424  10.429   2.003  11.097
 1321WN      WN11425   6.576   2.742   0.460
 1322WN      WN11426   0.503   8.776   0.334
 1323WN      WN11427  15.244   0.314   0.017
 1324WN      WN11428   3.477  12.369   0.032
 1325WN      WN11429   9.574   3.118  12.515
 1326WN      WN11430   9.442   9.764  11.663
 1327WN      WN11431  10.915   9.231  12.994
 1328WN      WN11432  13.769   8.033  12.808
 1329WN      WN11433  11.971   1.673   2.864
 1330WN      WN11434   8.463  11.338   9.089
 1331WN      WN11435   6.598  10.139   9.231
 1332WN      WN11436   6.647   1.822   5.061
 1333WN      WN11437  13.277   6.139   8.345
 1334WN      WN11438   5.482  11.925   8.511
 1335WN      WN11439  13.497   8.378   0.392
 1336WN      WN11440  14.057   4.019   9.225
 1337WN      WN11441   7.448   1.822  11.796
 1338WN      WN11442  12.360  15.161   1.609
 1339WN      WN11443   0.109  14.802  10.110
 1340WN      WN11444   9.424   4.285  10.383
 1341WN      WN11445   5.355   5.919   2.631
 1342WN      WN11446  15.064   0.951   3.086
 1343WN      WN11447   6.441   2.071  13.363
 1344WN      WN11448  14.051   0.896  12.884
 1345WN      WN11449  11.983   1.088   2.862
 1346WN      WN11450  15.681   2.888   1.254
 1347WN      WN11451   3.013   5.286   0.304
 1348WN      WN11452   3.421   2.918  11.601
 1349WN      WN11453  13.166  14.134   1.272
 1350WN      WN11454  11.067  14.514   1.317
 1351WN      WN11455   7.196   5.526   1.303
 1352WN      WN11456  10.924   7.524  11.158
 1353WN      WN11457   2.577  10.458   2.464
 1354WN      WN11458   8.623   3.671   3.675
 1355WN      WN11459  14.981   6.587   0.184
 1356WN      WN11460   2.087  14.690   2.005
 1357WN      WN11461   9.526   5.615  12.809
 1358WN      WN11462  12.884  14.540   0.093
 1359WN      WN11463  13.705  10.779  12.758
 1360WN      WN11464  12.992  12.526   9.904
 1361WN      WN11465   0.147   3.358  10.646
 1362WN      WN11466  15.087  15.469  13.449
 1363WN      WN11467   8.769   7.846   2.333
 1364WN      WN11468   3.685  15.285  12.628
 1365WN      WN11469  15.705  11.204   9.274
 1366WN      WN11470   6.496  14.847   2.343
 1367WN      WN11471   1.742   7.071   0.541
 1368WN      WN11472  13.477  15.673   0.750
 1369WN      WN11473  12.106   5.655   1.351
 1370WN      WN11474  15.504   2.562   9.209
 1371WN      WN11475   9.956  10.768  10.962
 1372WN      WN11476  13.403   9.277   1.129
 1373WN      WN11477   5.658  13.873  12.547
 1374WN      WN11478   2.564  14.381  12.642
 1375WN      WN11479   7.212   1.233  12.009
 1376WN      WN11480   2.668   3.991   4.492
 1377WN      WN11481   2.485  15.314   1.925
 1378WN      WN11482  15.678  10.917   0.186
 1379WN      WN11483   0.200   7.579  12.012
 1380WN      WN11484  15.117   0.986   1.551
 1381WN      WN11485  13.219  15.184  12.269
 1382WN      WN11486   2.613   3.669  11.988
 1383WN      WN11487  12.232   7.394   9.253
 1384WN      WN11488   3.793  15.592   9.539
 1385WN      WN11489  11.754   5.826  12.504
 1386WN      WN11490   0.560   9.395   1.724
 1387WN      WN11491   7.446   4.549  10.797
 1388WN      WN11492   9.896   3.433  10.979
 1389WN      WN11493  12.575   2.843  11.076
 1390WN      WN11494  14.768   0.832  10.555
 1391WN      WN11495  14.371   4.271  13.043
 1392WN      WN11496  13.752  12.410   4.138
 1393WN      WN11497   9.566   4.009   4.263
 1394WN      WN11498   6.514   5.699   9.488
 1395WN      WN11499  15.528  10.508   1.892
 1396WN      WN11500   3.520   0.234   4.869
 1397WN      WN11501   8.981   5.042   9.315
 1398WN      WN11502  14.603   6.345   3.804
 1399WN      WN11503   7.765   3.445   8.900
 1400WN      WN11504   7.833   9.471   3.829
 1401WN      WN11505   9.175  13.218  11.890
 1402WN      WN11506   4.272   9.782   1.325
 1403WN      WN11507   8.422  10.132   9.751
 1404WN      WN11508   9.986  11.768  13.454
 1405WN      WN11509   1.004  12.051   8.871
 1406WN      WN11510   7.411   3.177  10.897
 1407WN      WN11511   3.815  10.755  12.661
 1408WN      WN11512   3.968  14.707   2.643
 1409WN      WN11513  12.239   9.625   1.796
 1410WN      WN11514   8.071  14.269  12.425
 1411WN      WN11515   3.838   3.109   3.223
 1412WN      WN11516   0.976   3.084   1.921
 1413WN      WN11517   3.171  14.422   1.106
 1414WN      WN11518   2.454  10.356   8.966
 1415WN      WN11519   7.072   5.356   0.747
 1416WN      WN11520   7.309   7.415  12.430
 1417WN      WN11521   1.302  10.966   8.979
 1418WN      WN11522   2.150   9.883   0.268
 1419WN      WN11523  15.813  11.943   0.504
 1420WN      WN11524   1.143   3.587   4.046
 1421WN      WN11525   5.616   4.225   3.015
 1422WN      WN11526   3.423  10.438  12.588
 1423WN      WN11527  14.900  11.155   4.585
 1424WN      WN11528   2.643  15.600   3.599
 1425WN      WN11529  15.149   6.840   9.535
 1426WN      WN11530   8.778   0.636   1.894
 1427WN      WN11531  12.677   5.457   0.837
 1428WN      WN11532  14.467   9.233   9.665
 1429WN      WN11533  12.054  13.595  10.156
 1430WN      WN11534  12.447   0.263   3.939
 1431WN      WN11535   0.513  12.829   2.002
 1432WN      WN11536   1.238  15.710   1.343
 1433WN      WN11537  14.887  10.876   9.368
 1434WN      WN11538   4.116   6.833   2.432
 1435WN      WN11539   0.283   3.969   3.688
 1436WN      WN11540  12.515   9.535  11.650
 1437WN      WN11541   6.102   8.483   9.217
 1438WN      WN11542  11.913   3.011   3.807
 1439WN      WN11543  15.698  15.433   4.263
 1440WN      WN11544   2.110   1.576   2.940
 1441WN      WN11545  11.613  11.836  13.144
 1442WN      WN11546  13.819   7.004   3.107
 1443WN      WN11547  11.689  11.297  10.092
 1444WN      WN11548   0.904   1.377  10.100
 1445WN      WN11549  15.229  10.566   9.123
 1446WN      WN11550   4.563  14.346  10.835
 1447WN      WN11551  13.151  11.493   2.505
 1448WN      WN11552   4.780   0.105   3.596
 1449WN      WN11553   5.573   4.211   9.077
 1450WN      WN11554   8.232  11.402   2.602
 1451WN      WN11555   2.860  14.842   3.847
 1452WN      WN11556  10.626   2.155   4.301
 1453WN      WN11557   4.594   6.868   0.163
 1454WN      WN11558  10.451   3.415  11.829
 1455WN      WN11559   0.308   9.423  12.148
 1456WN      WN11560  14.196  11.267   1.469
 1457WN      WN11561   9.500   9.117  12.654
 1458WN      WN11562  15.357   2.756  12.190
 1459WN      WN11563  13.346   1.758  11.527
 1460WN      WN11564   6.484  14.192   1.401
 1461WN      WN11565  10.706   3.671  11.263
 1462WN      WN11566   5.733  12.111  12.896
 1463WN      WN11567  12.077   6.132   3.609
 1464WN      WN11568   8.427   6.187  10.920
 1465WN      WN11569   3.627   9.391  11.386
 1466WN      WN11570   8.320   7.440  12.472
 1467WN      WN11571   1.412  15.093  10.635
 1468WN      WN11572   8.058   9.715   9.150
 1469WN      WN11573  11.240  15.755  13.090
 1470WN      WN11574  13.784   4.465   2.401
 1471WN      WN11575   1.424  10.041   3.157
 1472WN      WN11576  15.687   4.276  10.916
 1473WN      WN11577  11.178  10.770  10.646
 1474WN      WN11578  14.385   5.207   4.330
 1475WN      WN11579   2.459   7.599   2.070
 1476WN      WN11580  13.554  10.513   9.990
 1477WN      WN11581  11.377  13.511   0.937
 1478WN      WN11582   9.669   2.586   2.945
 1479WN      WN11583   2.889  14.822   4.459
 1480WN      WN11584  15.261  14.148  10.584
 1481WN      WN11585  11.049  15.633  13.567
 1482WN      WN11586   5.090   6.505  13.000
 1483WN      WN11587   3.178   0.619  13.173
 1484WN      WN11588   1.742   5.798  12.775
 1485WN      WN11589   8.336   9.316   3.139
 1486WN      WN11590   1.156   5.089   3.565
 1487WN      WN11591  15.158   2.018   3.545
 1488WN      WN11592  12.264  13.384  12.860
 1489WN      WN11593  15.576   1.947   0.772
 1490WN      WN11594  10.286  15.302  12.530
 1491WN      WN11595   3.343   1.125  13.107
 1492WN      WN11596   9.990   0.681  12.012
 1493WN      WN11597   1.893   2.225   2.392
 1494WN      WN11598   4.413   5.880   1.618
 1495WN      WN11599  12.559   3.508   4.271
 1496WN      WN11600   1.101  12.788   9.432
 1497WN      WN11601  10.740  13.424  10.479
 1498WN      WN11602   8.716   5.926   8.704
 1499WN      WN11603   8.596   7.469   1.016
 1500WN      WN11604   6.830   0.357   1.602
 1501WN      WN11605   3.800   3.900   3.557
 1502WN      WN11606   9.440   9.135   0.153
 1503WN      WN11607  13.511  14.662   3.955
 1504WN      WN11608  13.481   9.272  12.951
 1505WN      WN11609   9.384  13.012   9.924
 1506WN      WN11610   6.808  13.014   0.240
 1507WN      WN11611  13.655  12.408  11.080
 1508WN      WN11612   8.831   2.007  11.996
 1509WN      WN11613  12.922   3.884   2.269
 1510WN      WN11614  12.997   3.814   4.153
 1511WN      WN11615   5.168  14.138   0.981
 1512WN      WN11616  12.747   5.806   9.131
 1513WN      WN11617  14.249   0.180  10.041
 1514WN      WN11618   1.661   0.136   3.581
 1515WN      WN11619  10.269  14.791  13.407
 1516WN      WN11620  11.208   3.152  10.379
 1517WN      WN11621   5.179   2.252   1.025
 1518WN      WN11622  13.448   1.418  10.977
 1519WN      WN11623  14.836   4.622  10.366
 1520WN      WN11624   0.658   0.169   3.463
 1521WN      WN11625  11.428   3.691   3.348
 1522WN      WN11626   3.336   9.657   1.440
 1523WN      WN11627  12.233   0.434  13.010
 1524WN      WN11628   1.490   7.236  10.134
 1525WN      WN11629   7.666  12.217   2.318
 1526WN      WN11630   8.799   2.293   4.631
 1527WN      WN11631   7.354   0.645   3.712
 1528WN      WN11632   7.388   9.456   1.677
 1529WN      WN11633   0.404  14.040   5.077
 1530WN      WN11634  13.734   5.391   2.167
 1531WN      WN11635   5.699   5.223  11.890
 1532WN      WN11636  10.251   2.028   2.843
 1533WN      WN11637   6.919  13.178  11.665
 1534WN      WN11638  10.506   7.321   9.297
 1535WN      WN11639  13.521  12.370   1.092
 1536WN      WN11640   4.023   7.388  10.870
 1537WN      WN11641   5.920   5.840   0.695
 1538WN      WN11642   6.547   7.737   8.985
 1539WN      WN11643   5.484  13.630   1.880
 1540WN      WN11644   1.066  14.087   3.435
 1541WN      WN11645   4.565   8.386  11.110
 1542WN      WN11646   3.738  13.244  13.598
 1543WN      WN11647   1.079   9.817   1.001
 1544WN      WN11648   9.105   0.146   3.172
 1545WN      WN11649  10.605   3.231  12.677
 1546WN      WN11650  12.480  11.808  12.923
 1547WN      WN11651   8.174   7.067   9.155
 1548WN      WN11652  14.619   4.335  13.537
 1549WN      WN11653   4.560  15.066  11.284
 1550WN      WN11654   1.969   6.916  13.082
 1551WN      WN11655   5.300   7.978  10.128
 1552WN      WN11656  13.489   3.507   0.213
 1553WN      WN11657   0.715   7.988   1.748
 1554WN      WN11658   4.645  11.442   9.412
 1555WN      WN11659   2.789   8.732  11.652
 1556WN      WN11660   5.760  15.157   1.766
 1557WN      WN11661  15.311   3.118  13.090
 1558WN      WN11662   4.638  14.377   1.659
 1559WN      WN11663   6.113  11.752   3.860
 1560WN      WN11664   5.714  15.065   9.878
 1561WN      WN11665   7.869   5.195   7.982
 1562WN      WN11666   0.070  13.756  11.586
 1563WN      WN11667  10.539  13.057   1.797
 1564WN      WN11668  12.271  14.049   0.961
 1565WN      WN11669   9.802   5.870   2.876
 1566WN      WN11670   1.283   7.613  11.710
 1567WN      WN11671  14.542   9.030   8.198
 1568WN      WN11672  15.310   0.920  13.292
 1569WN      WN11673   3.987   3.747   8.562
 1570WN      WN11674  10.269   1.300   3.813
 1571WN      WN11675  14.867   1.549   3.429
 1572WN      WN11676  15.610   0.435   9.569
 1573WN      WN11677  12.236  11.524   1.939
 1574WN      WN11678  10.626   4.966  12.331
 1575WN      WN11679  14.433   3.192  10.325
 1576WN      WN11680  13.605  10.727   1.472
 1577WN      WN11681  14.692   7.542  11.151
 1578WN      WN11682  10.972   0.834   3.206
 1579WN      WN11683  15.192   8.984   8.303
 1580WN      WN11684   5.006   9.509   0.807
 1581WN      WN11685  10.592  15.086  10.212
 1582WN      WN11686  15.274  10.647   0.402
 1583WN      WN11687   0.398   1.376   3.102
 1584WN      WN11688  15.279   9.208   1.563
 1585WN      WN11689   7.959  11.766   1.825
 1586WN      WN11690  14.924  15.785   9.590
 1587WN      WN11691  15.477   9.000  11.044
 1588WN      WN11692   8.003   4.927   2.379
 1589WN      WN11693  13.236   2.571  12.281
 1590WN      WN11694   9.703  11.099   4.249
 1591WN      WN11695  14.070  13.228   4.430
 1592WN      WN11696   7.388   3.825   9.651
 1593WN      WN11697  14.323  11.863  11.542
 1594WN      WN11698  12.896  12.412   2.933
 1595WN      WN11699  13.512   9.068   2.239
 1596WN      WN11700  11.154   5.630   3.119
 1597WN      WN11701   4.074  12.237   9.443
 1598WN      WN11702   6.214  15.706  13.139
 1599WN      WN11703   4.309  11.151  10.177
 1600WN      WN11704  14.376   9.675   2.457
 1601WN      WN11705   1.911  14.234  10.378
 1602WN      WN11706   8.117   1.671   2.919
 1603WN      WN11707   7.800  14.782  11.411
 1604WN      WN11708   6.843   8.190   9.091
 1605WN      WN11709  10.242   7.513   8.899
 1606WN      WN11710   4.197   0.498   1.780
 1607WN      WN11711   5.001  13.676   1.649
 1608WN      WN11712  12.112   0.415  11.142
 1609WN      WN11713   9.285  14.900   1.661
 1610WN      WN11714   1.808  13.393   1.249
 1611WN      WN11715   6.030  14.917   2.601
 1612WN      WN11716   0.718   6.371  10.552
 1613WN      WN11717   2.869   1.551   2.400
 1614WN      WN11718  13.882   3.600   8.973
 1615WN      WN11719   1.015   2.577   3.994
 1616WN      WN11720   8.187   8.928   0.935
 1617WN      WN11721   0.138   5.993  13.236
 1618WN      WN11722  15.827   2.391   9.929
 1619WN      WN11723   6.849   0.888   9.378
 1620WN      WN11724  14.489  14.932  13.487
 1621WN      WN11725   0.289  12.079  11.252
 1622WN      WN11726  12.235   9.102   0.728
 1623WN      WN11727  15.195  12.725   4.587
 1624WN      WN11728   2.506  12.592   2.981
 1625WN      WN11729   0.319   1.537   2.623
 1626WN      WN11730   5.620   1.254   2.329
 1627WN      WN11731   1.762   5.591  10.714
 1628WN      WN11732   2.036  10.265  13.552
 1629WN      WN11733  13.651   7.111  13.000
 1630WN      WN11734  12.677  10.946   1.132
 1631WN      WN11735   4.668   8.330   0.737
 1632WN      WN11736  11.970  12.720   2.458
 1633WN      WN11737  10.117   7.124   0.539
 1634WN      WN11738  10.133   3.192   0.871
 1635WN      WN11739   0.974   6.692   3.830
 1636WN      WN11740   8.797   1.524   2.133
 1637WN      WN11741   7.821  10.832   3.868
 1638WN      WN11742  12.221  11.163   1.275
 1639WN      WN11743   6.966   5.265   2.833
 1640WN      WN11744   8.629  14.275   2.117
 1641WN      WN11745   2.149   5.007   1.308
 1642WN      WN11746  12.305   8.764  13.114
 1643WN      WN11747  13.084   1.984   1.027
 1644WN      WN11748   3.382   3.231  12.551
 1645WN      WN11749   0.694   5.011   1.326
 1646WN      WN11750  14.056   1.017  13.432
 1647WN      WN11751  12.959   2.034   9.483
 1648WN      WN11752   0.444   3.605  11.137
 1649WN      WN11753   1.953  11.583  12.391
 1650WN      WN11754  11.290   1.957   0.319
 1651WN      WN11755   3.330   8.316   3.138
 1652WN      WN11756   9.305   0.967   2.656
 1653WN      WN11757   5.820  13.570   1.093
 1654WN      WN11758   7.471   6.881  11.223
 1655WN      WN11759  15.735   0.795   2.279
 1656WN      WN11760   1.241  15.503  12.710
 1657WN      WN11761   8.638   1.476  10.379
 1658WN      WN11762  11.571   2.314  11.590
 1659WN      WN11763   3.264  12.375   0.583
 1660WN      WN11764   8.696  13.037   1.780
 1661WN      WN11765   3.249   0.987  10.292
 1662WN      WN11766  14.615  10.450   8.283
 1663WN      WN11767  13.327   9.764  12.916
 1664WN      WN11768  12.021  10.714  11.722
 1665WN      WN11769  13.966   9.975   3.194
 1666WN      WN11770  10.466   5.845  13.005
 1667WN      WN11771   7.571   5.418   0.939
 1668WN      WN11772   8.479   7.901   1.885
 1669WN      WN11773   3.192  12.619  13.218
 1670WN      WN11774  12.047   7.059   4.027
 1671WN      WN11775   1.424   6.321  11.237
 1672WN      WN11776  12.868   6.970   3.675
 1673WN      WN11777   7.766  15.232   3.008
 1674WN      WN11778   0.035   5.529   3.666
 1675WN      WN11779  13.226  14.437   9.970
 1676WN      WN11780   1.832  13.920  12.976
 1677WN      WN11781   8.673  15.139  12.670
 1678WN      WN11782   2.960   9.520  10.144
 1679WN      WN11783   4.514   6.930   3.324
 1680WN      WN11784   5.667   3.459   2.859
 1681WN      WN11785  13.704   6.269  13.342
 1682WN      WN11786  14.387   7.111   0.361
 1683WN      WN11787   7.043  15.340  13.263
 1684WN      WN11788  15.533   2.000  12.398
 1685WN      WN11789   1.081   9.390   1.657
 1686WN      WN11790   4.541   2.538   0.418
 1687WN      WN11791   9.936  13.705  10.009
 1688WN      WN11792   6.139  13.297   0.797
 1689WN      WN11793  12.489   1.431   1.425
 1690WN      WN11794  12.362   9.530   3.458
 1691WN      WN11795   6.588  10.152   1.674
 1692WN      WN11796  11.703   5.723   2.425
 1693WN      WN11797   7.786  10.050   0.338
 1694WN      WN11798  13.347  13.699   9.124
 1695WN      WN11799  12.592   9.185  13.349
 1696WN      WN11800   4.220   0.728  13.093
 1697WN      WN11801   4.033  10.509   0.859
 1698WN      WN11802  15.032   5.249  13.139
 1699WN      WN11803   7.294   8.981   9.531
 1700WN      WN11804   8.045   5.207   4.177
 1701WN      WN11805  13.474  15.067  11.818
 1702WN      WN11806   6.796   2.525   9.592
 1703WN      WN11807  11.337   9.681  12.453
 1704WN      WN11808  13.354   9.756   1.455
 1705WN      WN11809   9.009   5.763   3.198
 1706WN      WN11810   8.497   2.337  10.086
 1707WN      WN11811   1.066  15.495   2.389
 1708WN      WN11812   0.275   9.135  13.412
 1709WN      WN11813   8.452  12.792  12.340
 1710WN      WN11814   0.682  13.459   3.444
 1711WN      WN11815   4.835   7.774  13.494
 1712WN      WN11816  13.433   5.248   9.392
 1713WN      WN11817   7.430   7.643  10.163
 1714WN      WN11818   1.047   0.930   9.889
 1715WN      WN11819  12.646   1.537  11.967
 1716WN      WN11820  14.135   8.867   9.856
 1717WN      WN11821   5.171   5.123  11.827
 1718WN      WN11822   4.899  13.063  10.425
 1719WN      WN11823   7.677  11.888  12.314
 1720WN      WN11824  10.216   6.787   0.126
 1721WN      WN11825   8.152   6.270   2.792
 1722WN      WN11826   2.100   5.326  10.369
 1723WN      WN11827   8.685   1.431   3.813
 1724WN      WN11828   5.392  11.163  10.374
 1725WN      WN11829  14.830   5.411  11.726
 1726WN      WN11830   3.282   4.476   4.190
 1727WN      WN11831   4.889  10.559   1.536
 1728WN      WN11832  13.290   2.820  13.366
 1729WN      WN11833  15.666  11.455  10.769
 1730WN      WN11834  14.605   2.163   9.925
 1731WN      WN11835   3.710  13.906   2.410
 1732WN      WN11836   4.683   2.076   1.183
 1733WN      WN11837   9.360   5.047   3.947
 1734WN      WN11838   9.635   7.851  12.423
 1735WN      WN11839  15.222   9.745  11.586
 1736WN      WN11840   4.991  12.473   2.924
 1737WN      WN11841   9.017  12.032  12.238
 1738WN      WN11842   9.469  11.110   0.980
 1739WN      WN11843   7.400   3.065   9.839
 1740WN      WN11844  12.646   2.757   9.960
 1741WN      WN11845   9.365  10.771   0.567
 1742WN      WN11846   8.686   6.390   3.767
 1743WN      WN11847  12.521  11.046   0.148
 1744WN      WN11848   9.081   6.617   0.208
 1745WN      WN11849  14.392  14.592   1.289
 1746WN      WN11850  12.275  13.103  13.278
 1747WN      WN11851   2.771  12.990   8.574
 1748WN      WN11852  10.206  10.909   0.265
 1749WN      WN11853   5.411  12.269   1.592
 1750WN      WN11854   7.222   6.680   0.522
 1751WN      WN11855   5.140   4.668   8.770
 1752WN      WN11856   8.844  15.342   4.175
 1753WN      WN11857   5.978   7.171   2.352
 1754WN      WN11858   7.475   2.531  11.266
 1755WN      WN11859   7.446  13.597  13.347
 1756WN      WN11860  10.643   3.439   1.388
 1757WN      WN11861   0.726   4.671   2.833
 1758WN      WN11862   6.137   7.771  10.656
 1759WN      WN11863   1.985   0.134   0.631
 1760WN      WN11864  13.565   7.760  13.243
 1761WN      WN11865   2.196  15.211  10.120
 1762WN      WN11866  14.594   7.132   1.661
 1763WN      WN11867   4.305   0.312   8.936
 1764WN      WN11868   2.705   5.834   2.262
 1765WN      WN11869   6.780   2.838   3.585
 1766WN      WN11870   4.588   8.367  10.124
 1767WN      WN11871   6.075   8.556  10.071
 1768WN      WN11872  14.533   1.719  10.841
 1769WN      WN11873  11.942  15.521  12.752
 1770WN      WN11874   6.697   0.478   3.981
 1771WN      WN11875   3.279   2.812  13.506
 1772WN      WN11876  10.379   6.071  12.149
 1773WN      WN11877  11.078   8.291  10.435
 1774WN      WN11878  14.887   2.563   3.639
 1775WN      WN11879  12.687   6.019   2.323
 1776WN      WN11880  15.496  13.139   2.155
 1777WN      WN11881   4.381  13.927  12.469
 1778WN      WN11882   9.414   0.800   4.068
 1779WN      WN11883   2.269  10.815   9.142
 1780WN      WN11884   7.179  12.599   0.312
 1781WN      WN11885   7.258  15.353   5.088
 1782WN      WN11886   3.908   1.521   9.287
 1783WN      WN11887   6.273  10.867   1.441
 1784WN      WN11888  10.868  11.451  11.255
 1785WN      WN11889   3.256  11.643   2.020
 1786WN      WN11890  12.862  14.270  11.925
 1787WN      WN11891  12.774  10.761   9.713
 1788WN      WN11892  14.801   5.574   2.221
 1789WN      WN11893  12.533   9.070   9.129
 1790WN      WN11894   7.196  11.603   9.557
 1791WN      WN11895  12.474   6.103   2.827
 1792WN      WN11896  11.251   3.831  12.789
 1793WN      WN11897  13.982   2.820   9.373
 1794WN      WN11898   1.767  11.883  13.186
 1795WN      WN11899   4.325  14.800  10.849
 1796WN      WN11900   2.152   9.523  11.265
 1797WN      WN11901   0.444   4.815  12.990
 1798WN      WN11902   7.937   4.173  11.772
 1799WN      WN11903   0.799  14.573  12.829
 1800WN      WN11904  13.224   5.370   2.138
 1801WN      WN11905   9.534   2.641   9.198
 1802WN      WN11906  12.590  15.672   0.667
 1803WN      WN11907  13.959  11.578  11.889
 1804WN      WN11908  10.124  10.101   9.368
 1805WN      WN11909   9.366  10.940   9.975
 1806WN      WN11910  14.481   7.322  11.627
 1807WN      WN11911  13.823  10.609  11.175
 1808WN      WN11912   3.159   9.667   0.326
 1809WN      WN11913   8.987  14.814  12.395
 1810WN      WN11914   1.630   3.214   2.399
 1811WN      WN11915   6.972   2.018   4.698
 1812WN      WN11916   2.337   1.376   2.512
 1813WN      WN11917  14.142   2.405   9.929
 1814WN      WN11918   4.979  15.603   1.716
 1815WN      WN11919   2.802   5.657   1.011
 1816WN      WN11920   4.788   4.767   9.874
 1817WN      WN11921  13.155   3.818  13.487
 1818WN      WN11922   0.343  12.410   2.316
 1819WN      WN11923   0.395   3.793   4.267
 1820WN      WN11924   2.149   6.739   0.764
 1821WN      WN11925  10.224   2.947   9.672
 1822WN      WN11926   5.040   7.363   9.439
 1823WN      WN11927   7.728   4.364   4.555
 1824WN      WN11928   6.806   9.920   3.735
 1825WN      WN11929   7.414  12.762  12.451
 1826WN      WN11930   0.260   4.589   2.579
 1827WN      WN11931  15.397   5.548   9.228
 1828WN      WN11932  12.085   6.299  12.447
 1829WN      WN11933   6.019  10.838   2.590
 1830WN      WN11934  13.840  12.213   1.517
 1831WN      WN11935   6.623   9.593  13.410
 1832WN      WN11936   0.306  12.786   0.972
 1833WN      WN11937  12.140   9.957   3.002
 1834WN      WN11938   3.695   7.770  13.008
 1835WN      WN11939   1.605   0.952   3.728
 1836WN      WN11940   5.615  11.497   3.632
 1837WN      WN11941  12.784  13.012   9.833
 1838WN      WN11942  10.557   8.560   0.011
 1839WN      WN11943   6.296  10.463  13.022
 1840WN      WN11944  14.247   2.163   3.252
 1841WN      WN11945  14.346   5.975   4.238
 1842WN      WN11946   7.105  15.423   4.520
 1843WN      WN11947   6.608   1.681  11.793
 1844WN      WN11948  13.882   5.732   2.543
 1845WN      WN11949   8.211   4.046   1.122
 1846WN      WN11950   4.304   9.140  10.337
 1847WN      WN11951  13.515   9.917   0.164
 1848WN      WN11952   8.560   9.178  12.501
 1849WN      WN11953   4.748  10.628   0.099
 1850WN      WN11954   5.953  13.334  13.342
 1851WN      WN11955   2.874  11.182  12.404
 1852WN      WN11956  12.040  13.821  12.748
 1853WN      WN11957   5.334  11.784   1.199
 1854WN      WN11958   4.540  12.307   9.189
 1855WN      WN11959   5.802  13.092   2.227
 1856WN      WN11960   7.530  11.755   2.157
 1857WN      WN11961  11.210  11.129   0.522
 1858WN      WN11962  15.152   6.683  11.645
 1859WN      WN11963   9.739  11.124  11.265
 1860WN      WN11964  14.655   9.425   3.177
 1861WN      WN11965   0.854   3.026  11.327
 1862WN      WN11966   1.244  10.389  12.556
 1863WN      WN11967   6.956   1.260   9.738
 1864WN      WN11968  13.437   0.908  10.832
 1865WN      WN11969  13.930  14.198   9.513
 1866WN      WN11970  14.137  14.476  10.673
 1867WN      WN11971   5.300   0.369   2.488
 1868WN      WN11972  15.380   3.024  11.230
 1869WN      WN11973  14.000  12.997   0.524
 1870WN      WN11974   0.424   9.336  10.337
 1871WN      WN11975   7.771   9.516   1.330
 1872WN      WN11976  12.029  14.303   2.860
 1873WN      WN11977  14.996  12.403  11.959
 1874WN      WN11978  11.792  12.244  11.884
 1875WN      WN11979   5.037  13.327   9.996
 1876WN      WN11980   8.577   9.771  10.096
 1877WN      WN11981  15.552  12.610   2.238
 1878WN      WN11982   4.557   7.613  13.071
 1879WN      WN11983   4.924   5.692  10.750
 1880WN      WN11984   6.492   1.992  10.849
 1881WN      WN11985  12.200  11.500   9.822
 1882WN      WN11986  11.746  12.260   2.373
 1883WN      WN11987   5.228   1.339   5.189
 1884WN      WN11988   9.619  11.263  12.598
 1885WN      WN11989  14.029  13.635   9.525
 1886WN      WN11990   3.784  10.495  12.209
 1887WN      WN11991   0.101   8.113   2.932
 1888WN      WN11992   7.969  10.130   2.757
 1889WN      WN11993   9.925   4.310   9.537
 1890WN      WN11994   4.683   6.560  10.995
 1891WN      WN11995  15.112   4.988   2.900
 1892WN      WN11996  14.288   7.131  13.463
 1893WN      WN11997  11.836   9.678   3.418
 1894WN      WN11998   2.994   4.038  11.893
 1895WN      WN11999   1.047  11.237   0.522
 1896WN      WN12000  10.237   3.139  13.028
 1897WN      WN12001  12.070   6.144  10.380
 1898WN      WN12002   1.432   5.485   0.284
 1899WN      WN12003   4.269   0.469   4.555
 1900WN      WN12004   1.572   6.131  12.166
 1901WN      WN12005   3.250   2.825   9.060
 1902WN      WN12006   8.981   4.792   9.776
 1903WN      WN12007   5.197   1.673  12.680
 1904WN      WN12008  15.198   0.972   9.402
 1905WN      WN12009  13.245   7.924  12.721
 1906WN      WN12010   4.150   9.732  12.567
 1907WN      WN12011  12.482   1.469   1.978
 1908WN      WN12012  10.936   1.002   1.218
 1909WN      WN12013  11.430  12.395  10.282
 1910WN      WN12014   4.542   4.244   3.964
 1911WN      WN12015  11.697   1.726  11.142
 1912WN      WN12016  15.213  11.244   3.661
 1913WN      WN12017   6.300   2.920   3.364
 1914WN      WN12018   1.923   5.988   9.786
 1915WN      WN12019  10.066   0.126   1.760
 1916WN      WN12020  11.664   0.644  11.252
 1917WN      WN12021   8.174  12.464  10.486
 1918WN      WN12022  15.594   4.615   9.708
 1919WN      WN12023   1.913   4.940   0.139
 1920WN      WN12024  15.634   9.899   8.793
 1921WN      WN12025   9.746  13.373   3.340
 1922WN      WN12026   1.716  10.590  13.280
 1923WN      WN12027   2.912   6.631  11.471
 1924WN      WN12028   7.728   2.614   4.395
 1925WN      WN12029   7.735   6.492   9.576
 1926WN      WN12030   2.873   4.036   1.380
 1927WN      WN12031   3.058  13.143  13.023
 1928WN      WN12032   4.769  15.335   2.137
 1929WN      WN12033   2.674  13.566   2.767
 1930WN      WN12034  15.434  15.142  11.774
 1931WN      WN12035   1.065  12.463   3.556
 1932WN      WN12036   5.833   8.208  12.626
 1933WN      WN12037   3.457  12.211  10.544
 1934WN      WN12038  15.414   3.476  13.480
 1935WN      WN12039   5.401   9.670   1.430
 1936WN      WN12040  10.339  14.145   2.470
 1937WN      WN12041   2.647  13.288  12.590
 1938WN      WN12042  12.687   5.383   2.046
 1939WN      WN12043  12.547   7.308   1.646
 1940WN      WN12044   0.318  10.175   3.465
 1941WN      WN12045  15.216  15.169  12.877
 1942WN      WN12046  11.387   0.699  11.823
 1943WN      WN12047   8.415  11.023  13.124
 1944WN      WN12048   6.308   1.713   3.123
 1945WN      WN12049   9.997   5.041   1.770
 1946WN      WN12050  10.026   3.880  12.097
 1947WN      WN12051   2.040   7.727   2.885
 1948WN      WN12052  13.838   4.072   2.033
 1949WN      WN12053  11.956  15.447   1.827
 1950WN      WN12054   4.567   1.411   3.234
 1951WN      WN12055   5.371   2.767   9.436
 1952WN      WN12056   3.992   5.278  10.917
 1953WN      WN12057   2.381  14.569   0.284
 1954WN      WN12058   4.053  12.246   3.561
 1955WN      WN12059  13.940   9.168  10.304
 1956WN      WN12060   9.179  15.395  12.231
 1957WN      WN12061  11.328   8.076   4.064
 1958WN      WN12062   2.383  15.520   4.076
 1959WN      WN12063   7.056   4.426  12.820
 1960WN      WN12064   0.759   3.527   0.705
 1961WN      WN12065   8.412   3.990  12.663
 1962WN      WN12066   2.855   8.439   3.006
 1963WN      WN12067   1.263   1.506  11.931
 1964WN      WN12068   8.027   4.048  13.063
 1965WN      WN12069   0.651   3.083   0.950
 1966WN      WN12070  14.223   8.355   2.384
 1967WN      WN12071   8.400   6.413   3.309
 1968WN      WN12072   4.316   7.830  13.548
 1969WN      WN12073   2.164   8.113  11.359
 1970WN      WN12074   9.600   9.685   9.258
 1971WN      WN12075   9.977  12.166   3.497
 1972WN      WN12076   6.257  11.266   0.806
 1973WN      WN12077   5.152   4.140  12.869
 1974WN      WN12078   0.762  13.109   0.192
 1975WN      WN12079   7.635   0.892   4.086
 1976WN      WN12080   5.169   2.874   0.724
 1977WN      WN12081   2.132  10.255  13.067
 1978WN      WN12082   1.387   1.905   4.365
 1979WN      WN12083   6.632   2.245   9.188
 1980WN      WN12084   9.492  15.612   5.226
 1981WN      WN12085   2.352  13.940   8.992
 1982WN      WN12086   4.714  11.180  10.914
 1983WN      WN12087   9.676  11.332  10.158
 1984WN      WN12088   8.591  15.500   0.351
 1985WN      WN12089  15.519   6.662   1.698
 1986WN      WN12090   6.227   0.195  10.515
 1987WN      WN12091  11.981  11.723  12.689
 1988WN      WN12092   1.917   5.229  11.769
 1989WN      WN12093   6.914  14.119  12.132
 1990WN      WN12094   6.717   6.109   8.196
 1991WN      WN12095   4.035   3.812  12.628
 1992WN      WN12096   4.788   9.023   1.840
 1993WN      WN12097   1.817  11.077   2.751
 1994WN      WN12098   2.723   7.156  11.459
 1995WN      WN12099   7.044   8.517  13.000
 1996WN      WN12100   4.901   5.677  10.010
 1997WN      WN12101  12.792   0.073  11.785
 1998WN      WN12102   9.863   7.145  10.339
 1999WN      WN12103   3.324  14.901  10.705
 2000WN      WN12104   3.129  14.684  13.376
 2001WN      WN12105  15.378   6.897  11.198
 2002WN      WN12106   0.495   7.315   1.045
 2003WN      WN12107  12.643   2.972   4.049
 2004WN      WN12108   9.496   4.835  13.344
 2005WN      WN12109  15.644   5.778   1.777
 2006WN      WN12110  13.490   4.084  12.284
 2007WN      WN12111   4.093   7.049  12.052
 2008WN      WN12112   1.884  12.704  13.063
 2009WN      WN12113   6.064  13.875   3.994
 2010WN      WN12114  12.093  15.516  10.777
 2011WN      WN12115  10.323  10.196  12.125
 2012WN      WN12116  11.425  14.638  11.591
 2013WN      WN12117   1.614  13.496   3.626
 2014WN      WN12118   6.554  14.885  12.338
 2015WN      WN12119  11.545   5.742  12.973
 2016WN      WN12120   5.013  11.296  11.342
 2017WN      WN12121   4.828   7.955  12.524
 2018WN      WN12122   2.606   3.566   4.152
 2019WN      WN12123  15.521   8.128   3.795
 2020WN      WN12124   0.658  15.259   2.106
 2021WN      WN12125   4.150   5.999   2.940
 2022WN      WN12126   9.646   3.193   4.632
 2023WN      WN12127   0.830  12.893   4.125
 2024WN      WN12128   9.205   9.583  13.602
 2025WN      WN12129   0.982  11.673   3.489
 2026WN      WN12130  12.509   8.857   2.956
 2027WN      WN12131   1.982   1.809   3.681
 2028WN      WN12132  11.326   7.050   1.251
 2029WN      WN12133   8.335  15.423   4.322
 2030WN      WN12134  14.406  11.320  10.680
 2031WN      WN12135   9.969   6.338   0.047
 2032WN      WN12136   8.395  12.347   0.636
 2033WN      WN12137   4.879   8.426  12.782
 2034WN      WN12138  13.068   7.108   2.196
 2035WN      WN12139   7.399   3.890   0.543
 2036WN      WN12140   9.845   7.789   1.375
 2037WN      WN12141   8.004   4.485  11.221
 2038WN      WN12142  15.132   9.151   2.070
 2039WN      WN12143   6.490   3.611   0.666
 2040WN      WN12144  14.232  11.041  13.200
 2041WN      WN12145   5.658  10.471   2.566
 2042WN      WN12146   5.319   5.528   3.677
 2043WN      WN12147   5.102  10.393  13.383
 2044WN      WN12148   7.919   4.694   8.910
 2045WN      WN12149  12.542   1.349   0.348
 2046WN      WN12150  12.042   0.885  10.814
 2047WN      WN12151   4.058  14.523  11.687
 2048WN      WN12152   8.444  13.248   3.755
 2049WN      WN12153   9.965   5.348  11.779
 2050WN      WN12154  14.721   7.652   8.653
 2051WN      WN12155   8.026  13.087  10.641
 2052WN      WN12156  10.042   4.734   0.019
 2053WN      WN12157   0.355   1.063  11.925
 2054WN      WN12158   2.063   2.285   5.018
 2055WN      WN12159   7.067   2.680  13.250
 2056WN      WN12160  12.524   2.817   9.319
 2057WN      WN12161   2.210  15.445  10.779
 2058WN      WN12162  10.357   9.936  11.362
 2059WN      WN12163   2.126   9.703  10.743
 2060WN      WN12164   1.914   2.190   9.452
 2061WN      WN12165   3.702  10.369  13.024
 2062WN      WN12166   6.804  12.273  10.085
 2063WN      WN12167   0.824   6.019   0.575
 2064WN      WN12168  13.588  15.310   1.211
 2065WN      WN12169   5.453   8.066   2.889
 2066WN      WN12170   2.083   4.918   9.936
 2067WN      WN12171  11.537  14.686   0.635
 2068WN      WN12172   5.269   6.804   9.458
 2069WN      WN12173   2.321  11.276   1.921
 2070WN      WN12174   6.942  10.566  11.553
 2071WN      WN12175  14.055   1.992  11.683
 2072WN      WN12176   9.537   8.596   0.426
 2073WN      WN12177  13.198   9.273  12.054
 2074WN      WN12178   0.727  13.277  12.904
 2075WN      WN12179   4.219  11.658   8.620
 2076WN      WN12180  10.873   4.468  13.302
 2077WN      WN12181   8.764   7.223   3.097
 2078WN      WN12182   7.194   4.057  12.053
 2079WN      WN12183  15.827   9.047   3.762
 2080WN      WN12184   8.078  12.334   2.639
 2081WN      WN12185   2.501   9.153  11.722
 2082WN      WN12186   8.060  15.512  13.227
 2083WN      WN12187  10.120   3.631   0.601
 2084WN      WN12188  13.897  12.247  12.666
 2085WN      WN12189   0.564   8.439   3.248
 2086WN      WN12190   8.515   5.005   4.172
 2087WN      WN12191   1.516  10.466   4.038
 2088WN      WN12192   5.505   3.105   2.473
 2089WN      WN12193   7.875   6.868   3.473
 2090WN      WN12194   6.045   7.554   0.178
 2091WN      WN12195   0.897   4.423   4.515
 2092WN      WN12196   0.059   1.391  10.624
 2093WN      WN12197  13.366   4.729  13.516
 2094WN      WN12198   2.691  13.128   0.375
 2095WN      WN12199   8.155   8.277   0.135
 2096WN      WN12200  14.287   2.054   8.942
 2097WN      WN12201  13.040   0.678   1.664
 2098WN      WN12202  11.587   0.459  12.260
 2099WN      WN12203   7.545   8.785  13.330
 2100WN      WN12204   3.662   7.945   3.257
 2101WN      WN12205  10.812   8.762  10.883
 2102WN      WN12206  10.839   3.823   1.706
 2103WN      WN12207   5.242  12.943  10.840
 2104WN      WN12208   1.630   7.712   3.697
 2105WN      WN12209  12.806   7.494   3.540
 2106WN      WN12210   9.033  14.091   1.876
 2107WN      WN12211  12.033   2.059  11.443
 2108WN      WN12212   2.951   5.307   8.912
 2109WN      WN12213  13.589   1.583   9.088
 2110WN      WN12214   2.375  13.896   2.415
 2111WN      WN12215   2.997   0.246  11.368
 2112WN      WN12216   4.809   1.303   3.949
 2113WN      WN12217  10.845   4.775   2.926
 2114WN      WN12218   8.704   0.263   2.259
 2115WN      WN12219  12.801   0.560   3.536
 2116WN      WN12220   0.228   0.838  11.473
 2117WN      WN12221   0.994   4.510   3.885
 2118WN      WN12222   6.416  14.717   1.526
 2119WN      WN12223  13.031  11.142   0.535
 2120WN      WN12224  11.936   4.408   9.378
 2121WN      WN12225  12.794   5.457  10.225
 2122WN      WN12226   9.143   4.306   3.785
 2123WN      WN12227  14.527  12.527  12.136
 2124WN      WN12228   9.238  15.191  12.702
 2125WN      WN12229  11.129   6.174   1.268
 2126WN      WN12230   0.263   8.613   2.871
 2127WN      WN12231  14.031  14.978  10.847
 2128WN      WN12232  13.026   6.871   0.014
 2129WN      WN12233   0.297  13.770  11.110
 2130WN      WN12234   3.585   7.685  11.013
 2131WN      WN12235  10.574   3.345   9.570
 2132WN      WN12236   4.063   8.043   0.376
 2133WN      WN12237   0.663  15.365  13.295
 2134WN      WN12238  11.165   1.453  10.815
 2135WN      WN12239   3.997   3.038   0.250
 2136WN      WN12240   4.920   1.826  10.294
 2137WN      WN12241   2.632  14.278  11.018
 2138WN      WN12242   9.987   5.242   3.589
 2139WN      WN12243   5.213  12.451   8.526
 2140WN      WN12244  13.835  10.695  11.705
 2141WN      WN12245  14.464   2.952   9.185
 2142WN      WN12246  11.620   4.437   1.561
 2143WN      WN12247  13.205  14.905  10.787
 2144WN      WN12248  11.695   4.816   3.559
 2145WN      WN12249   9.252  11.803   4.271
 2146WN      WN12250  12.083   9.783   1.262
 2147WN      WN12251   7.430  13.762   3.874
 2148WN      WN12252  11.345   5.625   8.609
 2149WN      WN12253  15.296   2.919  10.006
 2150WN      WN12254   6.134   7.484   1.915
 2151WN      WN12255   3.688   1.767   1.400
 2152WN      WN12256   5.584   7.945   1.899
 2153WN      WN12257   7.733   8.758   0.668
 2154WN      WN12258  11.437   9.527   2.674
 2155WN      WN12259   9.976   7.971   3.936
 2156WN      WN12260   9.228  12.676   0.653
 2157WN      WN12261   2.651   3.443   0.275
 2158WN      WN12262   2.897   8.294   3.491
 2159WN      WN12263  15.758   7.223   2.896
 2160WN      WN12264  11.847  13.363  12.488
 2161WN      WN12265   2.490   3.878   2.814
 2162WN      WN12266   4.067  10.627   9.769
 2163WN      WN12267   6.691  12.382  10.604
 2164WN      WN12268  14.752  10.845   3.063
 2165WN      WN12269   7.628  14.458  12.652
 2166WN      WN12270   0.476  11.591  11.308
 2167WN      WN12271  14.337   7.744   4.243
 2168WN      WN12272   5.113   6.205  10.947
 2169WN      WN12273  10.518   7.412   2.714
 2170WN      WN12274  11.800  13.821   4.752
 2171WN      WN12275  10.457   4.525  11.501
 2172WN      WN12276  11.924   0.709  11.690
 2173WN      WN12277   1.252  10.898   4.230
 2174WN      WN12278   9.040  12.107  10.755
 2175WN      WN12279   3.231   7.233   8.887
 2176WN      WN12280  12.846  15.343   1.615
 2177WN      WN12281   7.030   8.181  10.145
 2178WN      WN12282   8.331   9.879  13.142
 2179WN      WN12283  13.110  11.606   0.253
 2180WN      WN12284  10.826   5.259   0.590
 2181WN      WN12285   1.656   5.511   1.145
 2182WN      WN12286   3.021   4.280   2.641
 2183WN      WN12287  13.416   2.268   1.392
 2184WN      WN12288   6.156  15.335   1.477
 2185WN      WN12289   6.061  12.787  13.300
 2186WN      WN12290   6.235  13.660   0.032
 2187WN      WN12291   8.264  11.797   2.246
 2188WN      WN12292   5.703  13.498   0.589
 2189WN      WN12293   7.104   0.707  12.106
 2190WN      WN12294  14.300   3.281   0.947
 2191WN      WN12295  14.376   9.873  11.952
 2192WN      WN12296   4.777  13.074   3.714
 2193WN      WN12297   0.516   2.006   4.465
 2194WN      WN12298   9.613   8.334   4.024
 2195WN      WN12299  10.907   1.039   2.020
 2196WN      WN12300   4.079   4.317   9.242
 2197WN      WN12301   7.596   5.938   2.255
 2198WN      WN12302  15.616  10.454   1.379
 2199WN      WN12303  14.265   1.465  10.477
 2200WN      WN12304  14.695   4.529   0.401
 2201WN      WN12305  12.646   9.259   9.990
 2202WN      WN12306  12.618   7.172   0.086
 2203WN      WN12307  15.423   0.361  12.012
 2204WN      WN12308  10.865  15.127  11.189
 2205WN      WN12309   4.127   9.998   0.836
 2206WN      WN12310   1.374  11.413  11.734
 2207WN      WN12311   5.393   8.737   2.778
 2208WN      WN12312  10.864  12.095   2.853
 2209WN      WN12313  10.879   4.409  11.106
 2210WN      WN12314  12.015  14.890   0.529
 2211WN      WN12315  13.069   7.907  11.898
 2212WN      WN12316  14.910  10.160  12.251
 2213WN      WN12317  11.037   6.445   0.078
 2214WN      WN12318   4.522  10.903  11.978
 2215WN      WN12319  13.135   3.133   1.606
 2216WN      WN12320  14.753   0.008  10.117
 2217WN      WN12321  12.264   2.653   3.894
 2218WN      WN12322   2.265  10.841   2.288
 2219WN      WN12323  14.978  11.452  10.220
 2220WN      WN12324   5.999   3.495   9.429
 2221WN      WN12325  13.072   5.105  13.275
 2222WN      WN12326   8.829   0.951   2.852
 2223WN      WN12327  13.941  13.027   2.207
 2224WN      WN12328  12.656   1.240   0.901
 2225WN      WN12329   7.699   9.258   0.851
 2226WN      WN12330  12.533  14.853  13.429
 2227WN      WN12331   4.684   3.813   1.407
 2228WN      WN12332  15.026   9.405  12.537
 2229WN      WN12333   5.531  12.786   1.526
 2230WN      WN12334   1.683   3.750   2.413
 2231WN      WN12335   4.087   1.517  13.355
 2232WN      WN12336  15.036  11.011   0.696
 2233WN      WN12337   4.169   2.201   9.988
 2234WN      WN12338  11.899  12.141  10.363
 2235WN      WN12339  13.745   3.374   3.542
 2236WN      WN12340   4.069   6.181   1.868
 2237WN      WN12341   1.899   2.760   0.352
 2238WN      WN12342   4.742   3.241  10.016
 2239WN      WN12343   1.487   9.903  12.878
 2240WN      WN12344   2.059   3.707   0.812
 2241WN      WN12345  10.392   3.748   2.501
 2242WN      WN12346   6.526   3.046  12.212
 2243WN      WN12347  14.590  12.370   3.878
 2244WN      WN12348   1.046   6.498  12.274
 2245WN      WN12349   5.456   0.382  10.837
 2246WN      WN12350  13.486   6.760  10.486
 2247WN      WN12351  14.899  14.912   4.411
 2248WN      WN12352  11.468   9.316   9.063
 2249WN      WN12353   8.681   9.195  11.934
 2250WN      WN12354  11.687  11.144  11.660
 2251WN      WN12355   8.725  15.208   4.662
 2252WN      WN12356   9.596   3.513   1.373
 2253WN      WN12357   4.231   0.677   0.025
 2254WN      WN12358  10.441  12.002   0.749
 2255WN      WN12359  11.894   3.584  11.400
 2256WN      WN12360   1.430  14.717   1.703
 2257WN      WN12361  10.608   6.993   3.055
 2258WN      WN12362   2.586   8.227  10.122
 2259WN      WN12363  14.958  11.378   2.655
 2260WN      WN12364  11.993  11.929   1.130
 2261WN      WN12365  10.241  11.235   1.204
 2262WN      WN12366  13.744   0.790  10.401
 2263WN      WN12367   0.607   4.047  13.046
 2264WN      WN12368  11.175  12.512   2.691
 2265WN      WN12369  10.007  14.795   2.539
 2266WN      WN12370  12.946   9.582  10.287
 2267WN      WN12371   8.517   4.884   3.634
 2268WN      WN12372   1.043  14.600   4.798
 2269WN      WN12373   6.696   1.557   2.050
 2270WN      WN12374   3.975   9.878   0.342
 2271WN      WN12375   6.174  12.552   3.045
 2272WN      WN12376  13.634  15.034  10.523
 2273WN      WN12377   8.699   7.754  10.998
 2274WN      WN12378  14.263   4.577   3.401
 2275WN      WN12379   1.266   5.211   0.715
 2276WN      WN12380  11.084   9.020   3.971
 2277WN      WN12381  14.661   6.607  10.267
 2278WN      WN12382   7.485   5.908   0.248
 2279WN      WN12383  10.826  11.843  10.743
 2280WN      WN12384  10.466   7.948  13.071
 2281WN      WN12385   5.547  12.622   3.098
 2282WN      WN12386   7.810  10.731   4.412
 2283WN      WN12387   3.071  10.513   2.630
 2284WN      WN12388   1.422  14.008  12.604
 2285WN      WN12389   6.714  10.199  12.920
 2286WN      WN12390   8.629   3.148  10.482
 2287WN      WN12391   8.378  11.073   2.990
 2288WN      WN12392   0.385   1.415  10.207
 2289WN      WN12393   2.727   9.689  12.587
 2290WN      WN12394  15.362   7.275   3.434
 2291WN      WN12395  14.834  15.735   0.737
 2292WN      WN12396  12.561  11.645   3.414
 2293WN      WN12397   5.751  11.860   1.536
 2294WN      WN12398   8.636  14.276   1.578
 2295WN      WN12399   3.572   8.354   0.128
 2296WN      WN12400   9.123  12.591  10.536
 2297WN      WN12401   9.188   6.893  12.497
 2298WN      WN12402   5.526  14.067  13.003
 2299WN      WN12403   2.347   4.171   1.343
 2300WN      WN12404   3.871   4.722   4.004
 2301WN      WN12405  10.913   5.874   9.757
 2302WN      WN12406   8.901  14.115  10.592
 2303WN      WN12407   7.725   8.847   1.183
 2304WN      WN12408   9.503   4.365   9.834
 2305WN      WN12409  12.257  14.697   1.404
 2306WN      WN12410   2.344   4.518   4.251
 2307WN      WN12411   3.249   4.318   1.089
 2308WN      WN12412  10.192  12.720  12.478
 2309WN      WN12413   0.488   2.584   2.948
 2310WN      WN12414   6.668  12.556   4.205
 2311WN      WN12415  13.197   3.134   9.478
 2312WN      WN12416   2.992   5.506   2.564
 2313WN      WN12417   7.538   2.375  12.479
 2314WN      WN12418  13.272  11.860   4.021
 2315WN      WN12419  12.912   2.848   0.675
 2316WN      WN12420  13.150   1.444  11.879
 2317WN      WN12421   5.978   7.347   0.647
 2318WN      WN12422   5.321   2.641  11.419
 2319WN      WN12423  13.732  14.556   0.693
 2320WN      WN12424   4.948  14.572  11.161
 2321WN      WN12425   4.042  14.930  11.293
 2322WN      WN12426   2.393   1.199   4.103
 2323WN      WN12427  13.187   5.319   0.757
 2324WN      WN12428   9.059  14.369  12.663
 2325WN      WN12429   3.123   2.461   1.137
 2326WN      WN12430   0.718   2.215  12.725
 2327WN      WN12431   8.421   1.951   1.350
 2328WN      WN12432  12.684  13.941  12.299
 2329WN      WN12433   8.200   7.458  12.973
 2330WN      WN12434   2.753  13.975  10.602
 2331WN      WN12435  12.853  11.965  12.555
 2332WN      WN12436  11.436  14.551  12.378
 2333WN      WN12437   8.156  13.682  13.598
 2334WN      WN12438   5.891  14.381   3.854
 2335WN      WN12439  10.334   9.827  13.553
 2336WN      WN12440  11.305  13.369  11.865
 2337WN      WN12441   1.716  11.429  12.911
 2338WN      WN12442   1.229  10.053  10.685
 2339WN      WN12443   9.970   7.692  11.074
 2340WN      WN12444  10.074   7.964  12.152
 2341WN      WN12445   2.871  14.626   3.353
 2342WN      WN12446  15.000   1.570   1.567
 2343WN      WN12447   3.886   4.612   2.791
 2344WN      WN12448   8.404  12.524   4.548
 2345WN      WN12449   7.561   4.745   9.279
 2346WN      WN12450   8.945  10.356   3.489
 2347WN      WN12451   8.913   9.913  13.045
 2348WN      WN12452   5.894   7.902   3.116
 2349WN      WN12453   2.801  13.357   3.354
 2350WN      WN12454   5.718  14.823  11.115
 2351WN      WN12455   9.682   8.543  11.444
 2352WN      WN12456  11.615   2.461  12.107
 2353WN      WN12457  14.420   6.227  10.008
 2354PP      PP12458   0.451   6.299  10.072
 2355PP      PP12459  10.499  10.524   3.060
 2356PP      PP12460  10.989   4.619  11.582
 2357PP      PP12461   1.675  15.551   0.688
 2358PP      PP12462  13.211  11.600  12.466
 2359PP      PP12463  13.884   7.911  11.010
 2360PP      PP12464   3.155   3.522   0.478
 2361PP      PP12465  15.272  11.451   1.516
 2362PP      PP12466   9.285   6.244   0.966
 2363PP      PP12467  11.910  15.241   3.662
 2364PP      PP12468  12.890  12.678   0.291
 2365PP      PP12469   4.383  12.305  10.754
 2366PP      PP12470  14.549  11.544   4.415
 2367PP      PP12471   8.113   8.297   1.890
 2368PP      PP12472  15.628  13.038   4.464
 2369PP      PP12473   6.612  15.759   9.234
 2370PP      PP12474  11.168   4.265   2.832
 2371PP      PP12475  12.100  10.167  10.072
 2372PP      PP12476   0.698  14.983   0.469
 2373PP      PP12477   4.961  15.420  11.150
 2374PP      PP12478  10.555   1.519  10.939
 2375PP      PP12479  13.944   6.201   1.543
 2376PP      PP12480  11.984   0.249  13.484
 2377PP      PP12481   9.732   5.541  12.318
 2378PP      PP12482   2.439   0.381   1.703
 2379PP      PP12483  13.847  10.683   3.722
 2380PP      PP12484   5.479   6.278   2.250
 2381PP      PP12485  14.757   1.290   2.075
 2382PP      PP12486   5.383   6.285   1.324
 2383PP      PP12487   7.409   4.434   0.542
 2384PP      PP12488   2.186  10.643   3.299
 2385PP      PP12489   2.616  14.802   1.983
 2386PP      PP12490   5.653   1.115  13.478
 2387PP      PP12491   9.582   0.621  10.843
 2388PP      PP12492   0.955   4.615  12.226
 2389PP      PP12493   1.372   0.188  10.600
 2390PP      PP12494   6.844   3.992  11.399
 2391PP      PP12495   3.477   7.732  10.263
 2392PP      PP12496  11.924   8.786   0.402
 2393PP      PP12497  14.783   1.035   2.552
 2394PP      PP12498   2.749   4.593  13.576
 2395PP      PP12499   3.421   1.046   5.116
 2396PP      PP12500   4.316   2.431  10.494
 2397PP      PP12501   1.902  12.737   1.426
 2398PP      PP12502  13.103  10.425   2.113
 2399PP      PP12503   0.593  10.196  11.857
 2400PP      PP12504  11.983  14.914   1.887
 2401PP      PP12505   4.617  14.551   1.153
 2402PP      PP12506   1.207   9.092   4.136
 2403PP      PP12507   0.814   1.599   2.489
 2404PP      PP12508   1.904   2.307  10.663
 2405PP      PP12509   2.955   5.484   9.819
 2406PP      PP12510   2.039   3.221   0.556
 2407PP      PP12511   0.736   3.313   0.215
 2408PP      PP12512   2.509   6.456   1.441
 2409PP      PP12513  14.514   1.961  12.876
 2410PP      PP12514  12.232  14.443   1.864
 2411PP      PP12515   1.137  15.560   2.911
 2412PP      PP12516   8.686   7.242   4.145
 2413PP      PP12517   3.147  14.981   1.061
 2414PP      PP12518  10.710  13.769   1.191
 2415PP      PP12519  13.921   3.054  12.434
 2416PP      PP12520  10.027   4.737   0.991
 2417PP      PP12521  12.923  10.473  13.290
 2418PP      PP12522   0.532   0.124   2.446
 2419PP      PP12523   4.295  13.933  10.659
 2420PP      PP12524   9.565   2.504   3.450
 2421PP      PP12525   7.483   5.104   0.465
 2422PP      PP12526   6.035  14.234  10.183
 2423PP      PP12527   6.159  10.450   1.745
 2424PP      PP12528   2.430   7.659   0.260
 2425PP      PP12529   6.926   9.237   9.251
 2426PP      PP12530  10.345  15.332  10.592
 2427PP      PP12531  13.729   3.206   9.697
 2428PP      PP12532  11.916   1.100  11.285
 2429PP      PP12533  14.183  13.486  10.396
 2430PP      PP12534   7.726   8.981   2.536
 2431PP      PP12535  12.488  14.831   0.334
 2432PP      PP12536   1.255  12.206   2.390
 2433PP      PP12537   5.278  15.621   1.147
 2434PP      PP12538  12.974   8.781   3.181
 2435PP      PP12539  12.250   1.243   4.243
 2436PP      PP12540   3.326   3.517   2.223
 2437PP      PP12541   5.097   0.733   1.663
 2438PP      PP12542   9.936  12.686   1.236
 2439PP      PP12543   5.945  13.694   1.600
 2440PP      PP12544   6.822   6.921   8.850
 2441PP      PP12545   5.051  12.034   8.783
 2442PP      PP12546   2.553   5.558  12.550
 2443PP      PP12547  14.192   5.328  12.566
 2444PP      PP12548  10.383   7.518  12.207
 2445PP      PP12549  11.703  15.001  11.825
 2446PP      PP12550  10.382   2.697   9.237
 2447PP      PP12551   7.367   7.598   4.029
 2448PP      PP12552   3.330  10.433   3.571
 2449PP      PP12553   2.565  13.105  10.384
 2450PP      PP12554   2.882   2.766   3.364
 2451PP      PP12555   8.637   0.197   2.915
 2452PP      PP12556   5.340   6.849  12.722
 2453PP      PP12557   8.399  15.777  11.946
 2454PP      PP12558   7.656   7.094   2.524
 2455PP      PP12559   1.148  10.757   1.714
 2456PP      PP12560   0.640   2.037  11.387
 2457PP      PP12561   4.215   5.594   0.500
 2458PP      PP12562  12.580   7.339   2.403
 2459PP      PP12563  11.199   5.138   8.474
 2460PP      PP12564   8.127   5.490   3.102
 2461PP      PP12565   7.231   2.662   4.662
 2462PP      PP12566   4.869   8.523   3.370
 2463PP      PP12567   9.424   4.848   9.038
 2464PP      PP12568  11.993   7.911  10.875
 2465PP      PP12569   7.558   7.003   1.337
 2466PP      PP12570  10.140  11.432  11.262
 2467PP      PP12571   6.682   6.766   2.544
 2468PP      PP12572  10.113  11.460   9.839
 2469PP      PP12573   1.920  14.537   1.523
 2470PP      PP12574   4.681   4.048   9.826
 2471PP      PP12575   2.600   5.413  10.213
 2472PP      PP12576   1.074   1.379   2.907
 2473PP      PP12577  13.075  12.197   4.354
 2474PP      PP12578   8.626  11.051   1.946
 2475PP      PP12579   9.887   4.436   3.304
 2476PP      PP12580  11.966   3.057  12.639
 2477PP      PP12581   5.842  11.856  11.497
 2478PP      PP12582   1.445   2.577  13.182
 2479PP      PP12583   6.930  15.178   3.128
 2480PP      PP12584   9.024   7.148   0.186
 2481PP      PP12585   7.119   1.587   5.057
 2482PP      PP12586   3.946   2.638   1.582
 2483PP      PP12587   8.416   1.915   4.628
 2484PP      PP12588   4.069  11.546   2.702
 2485PP      PP12589  14.214   1.879   9.737
 2486PP      PP12590  13.023   9.440   8.963
 2487PP      PP12591   1.338   6.946  13.434
 2488PP      PP12592   6.949  13.791   4.078
 2489PP      PP12593   0.193   8.915   0.745
 2490PP      PP12594  14.296   2.417  11.402
 2491PP      PP12595   0.748   6.419   4.233
 2492PP      PP12596   6.388  11.475  11.874
 2493PP      PP12597   9.717   8.320   8.364
 2494PP      PP12598   4.474   0.442  12.727
 2495PP      PP12599  13.451   3.218   3.947
 2496PP      PP12600   1.702   5.011   1.059
 2497PP      PP12601   5.398  13.089   2.938
 2498PP      PP12602  14.057  11.120   9.472
 2499PP      PP12603   9.222   0.842   1.732
 2500PP      PP12604   1.485   5.138   8.407
 2501PP      PP12605   5.772   5.676  11.659
 2502PP      PP12606   7.974  11.637  10.396
 2503PP      PP12607  14.350   8.854  13.032
 2504PP      PP12608  10.474  11.164  13.149
 2505PP      PP12609   7.401  12.470  11.620
 2506PP      PP12610  10.516   3.216  13.514
 2507PP      PP12611   0.410   1.249  13.262
 2508PP      PP12612  14.284   3.371   8.700
 2509PP      PP12613  13.657   5.366  11.449
 2510PP      PP12614   2.296   6.979  11.231
 2511PP      PP12615   7.813  14.423  11.794
 2512PP      PP12616  13.393   4.393   2.857
 2513PP      PP12617  11.982   9.396  10.372
 2514PP      PP12618   3.258   4.281   1.634
 2515PP      PP12619   0.478   5.364  10.557
 2516PP      PP12620  13.133  11.358   4.036
 2517PP      PP12621  13.769   1.216  10.093
 2518PP      PP12622   8.251  11.948  13.268
 2519PP      PP12623   8.903   6.552   9.134
 2520PP      PP12624   5.918   1.356  12.449
 2521PP      PP12625   6.246   9.769   3.581
 2522PP      PP12626  10.823   9.057   1.300
 2523PP      PP12627   8.661  15.378  12.214
 2524PP      PP12628   7.393   9.781   3.896
 2525PP      PP12629  10.775   4.893   1.365
 2526PP      PP12630   7.993   0.932   2.315
 2527PP      PP12631   9.241   1.741   1.931
 2528PP      PP12632   1.809   9.354   3.650
 2529PP      PP12633   9.733   2.165  12.851
 2530PP      PP12634   1.172   7.974  12.040
 2531PP      PP12635   5.155   3.974   9.406
 2532PP      PP12636  10.556   1.043  13.414
 2533PP      PP12637   6.691   1.481  10.789
 2534PP      PP12638   2.446  15.009   4.704
 2535PP      PP12639   7.031   4.224   9.427
 2536PP      PP12640   6.252  14.914  11.908
 2537PP      PP12641  12.888  14.202   0.525
 2538PP      PP12642   2.702  13.764   9.389
 2539PP      PP12643  12.917   8.907  12.325
 2540PP      PP12644   9.596   7.646   4.053
 2541PP      PP12645  15.485   3.228   0.846
 2542PP      PP12646   5.547   2.529   9.912
 2543PP      PP12647  14.459   4.222  10.459
 2544PP      PP12648   8.809  13.586  12.980
 2545PP      PP12649   4.662   9.842   1.005
 2546PP      PP12650   7.154  13.861   0.691
 2547PP      PP12651  12.252   6.046  11.627
 2548PP      PP12652  13.802   6.956   9.577
 2549PP      PP12653   5.671  14.008   0.852
 2550PP      PP12654  11.756   2.240  11.030
 2551PP      PP12655   0.398   7.274   3.829
 2552PP      PP12656   4.503   0.952  11.195
 2553PP      PP12657  11.818   1.486  12.049
 2554PP      PP12658   7.642  11.794   9.352
 2555PP      PP12659   2.490   5.726   8.480
 2556PP      PP12660   5.751  14.612  10.636
 2557PP      PP12661   0.061  14.041   4.156
 2558PP      PP12662   8.978   8.378   0.679
 2559PP      PP12663   1.541  14.901  11.615
 2560PP      PP12664   3.268   2.117   9.521
 2561PP      PP12665   4.852   5.133  12.600
 2562PP      PP12666   7.971   2.966   4.057
 2563PP      PP12667   1.356   3.611  13.161
 2564PP      PP12668   8.917   5.113  12.250
 2565PP      PP12669   1.207  13.967  13.581
 2566PP      PP12670  14.665   5.025  10.698
 2567PP      PP12671   4.259   6.461   3.201
 2568PP      PP12672   4.926   2.418   4.487
 2569PP      PP12673  11.029  13.588  11.474
 2570PP      PP12674   0.403   7.213  11.064
 2571PP      PP12675  15.295   2.961  13.603
 2572PP      PP12676   4.297   0.935   1.057
 2573PP      PP12677   5.623  10.928  11.208
 2574PP      PP12678   6.603  13.774  10.513
 2575PP      PP12679  12.714   0.301  10.227
 2576PP      PP12680  10.551   1.506   0.069
 2577PP      PP12681  14.745   9.479  10.701
 2578PP      PP12682   4.219   0.565  12.283
 2579PP      PP12683   4.740   9.986  12.010
 2580PP      PP12684   5.344   3.129  11.637
 2581PP      PP12685  10.782  12.215   1.785
 2582PP      PP12686   9.875   1.130  12.735
 2583PP      PP12687   3.213   7.203  11.040
 2584PP      PP12688   0.671   2.718  10.606
 2585PP      PP12689   7.655  14.784   3.303
 2586PP      PP12690   7.901   3.503  13.340
 2587PP      PP12691   1.388   1.699   0.488
 2588PP      PP12692   7.782  15.735   2.734
 2589PP      PP12693   4.709   4.215  12.619
 2590PP      PP12694  14.265   9.325   2.836
 2591PP      PP12695   3.191  14.677   2.864
 2592PP      PP12696   0.393   6.523   1.745
 2593PP      PP12697  10.276   0.254  13.042
 2594PP      PP12698   6.505  15.749   1.792
 2595PP      PP12699   7.805   0.503  10.485
 2596PP      PP12700   2.369   8.099   2.357
 2597PP      PP12701   2.535   9.322   2.880
 2598PP      PP12702  11.012   8.828   0.722
 2599PP      PP12703   2.865  14.671   0.731
 2600PP      PP12704   3.108   7.399  12.084
 2601PP      PP12705   0.165   5.044   1.505
 2602PP      PP12706   8.088   7.575   8.945
 2603PP      PP12707  10.465   4.832   1.782
 2604PP      PP12708  11.207  14.953   1.024
 2605PP      PP12709   6.474   7.785   1.083
 2606PP      PP12710  11.140  15.699  12.322
 2607PP      PP12711  12.532   2.322   0.205
 2608PP      PP12712  14.172   5.258  13.128
 2609PP      PP12713  11.280  12.539   4.296
 2610PP      PP12714   6.425   2.273   5.254
 2611PP      PP12715  10.375  13.116   1.271
 2612PP      PP12716   6.567   4.649  12.748
 2613PP      PP12717   9.645   9.217   9.693
 2614PP      PP12718  12.219   2.014  10.949
 2615PP      PP12719   5.912  12.642   3.498
 2616PP      PP12720   3.521   2.961   2.727
 2617PP      PP12721  10.051   1.814   3.297
 2618PP      PP12722   3.761   9.818  11.664
 2619PP      PP12723   6.600   7.419  10.630
 2620PP      PP12724  14.019  14.756   2.211
 2621PP      PP12725   0.966  10.245   0.069
 2622PP      PP12726  13.577   1.703  12.506
 2623PP      PP12727   2.503  14.457   2.369
 2624PP      PP12728   0.699   8.264   0.282
 2625PP      PP12729   5.700   4.939   1.088
 2626PP      PP12730  10.437  14.529   2.819
 2627PP      PP12731   4.444   5.135  12.247
 2628PP      PP12732   2.678   7.444  12.466
 2629PP      PP12733  15.658   3.509  12.996
 2630PP      PP12734   2.786   5.976  12.348
 2631PP      PP12735  12.217  12.918   0.148
 2632PP      PP12736   1.903  12.270   1.226
 2633PP      PP12737   2.175  11.826  11.176
 2634PP      PP12738  13.057   3.735   3.221
 2635PP      PP12739   3.228   3.946   4.186
 2636PP      PP12740   6.441   7.006   0.039
 2637PP      PP12741  14.194   5.784  10.863
 2638PP      PP12742   8.878   5.198  12.753
 2639PP      PP12743  14.110   0.758   3.979
 2640PP      PP12744   3.123   3.597  12.140
 2641PP      PP12745   7.675   5.043  13.548
 2642PP      PP12746  10.712  11.654   2.075
 2643PP      PP12747  13.299  10.536   4.313
 2644PP      PP12748   9.716  14.873   4.726
 2645PP      PP12749  12.216   5.445  12.320
 2646PP      PP12750   7.204  11.048   9.599
 2647PP      PP12751  10.881  12.339   3.872
 2648PP      PP12752   0.152  11.500   0.252
 2649PP      PP12753   1.741   8.564   9.474
 2650PP      PP12754   9.332  11.929   2.890
 2651PP      PP12755   6.302   6.728  12.395
 2652PP      PP12756  13.113   7.250   8.971
 2653PP      PP12757   1.871   1.826  13.177
 2654PP      PP12758  12.268  15.724  13.114
 2655PP      PP12759   8.532   6.868   3.731
 2656PP      PP12760   8.878   9.323   1.501
 2657PP      PP12761  10.410   9.374   1.071
 2658PP      PP12762   8.689   7.580   9.749
 2659PP      PP12763   3.603   5.881   1.623
 2660PP      PP12764   3.431  14.925  12.321
 2661PP      PP12765   4.197   0.324   3.121
 2662PP      PP12766  10.306   8.591   9.687
 2663PP      PP12767   3.219   2.709  12.558
 2664PP      PP12768  14.677   4.440  12.662
 2665PP      PP12769  15.090  14.486   4.621
 2666PP      PP12770   4.690  14.805   8.943
 2667PP      PP12771   4.938  14.444  11.922
 2668PP      PP12772   4.791   5.935  12.972
 2669PP      PP12773   0.555  12.728  10.607
 2670PP      PP12774  12.908   8.687  10.017
 2671PP      PP12775   3.201   9.610  11.644
 2672PP      PP12776   3.549  14.175   0.821
 2673PP      PP12777   8.053   3.748   2.407
 2674PP      PP12778   9.642  15.076   5.190
 2675PP      PP12779   4.098  10.706  13.090
 2676PP      PP12780  12.450   1.627  11.463
 2677PP      PP12781   3.222  10.263   9.312
 2678PP      PP12782  15.660  13.162   9.313
 2679PP      PP12783   2.636   5.869   3.974
 2680PP      PP12784   4.318   6.044  13.178
 2681PP      PP12785   7.265   3.441  11.751
 2682PP      PP12786   2.169  13.005   0.459
 2683PP      PP12787   3.205  10.367  12.137
 2684PP      PP12788   2.099   4.816   9.083
 2685PP      PP12789   5.314  15.053   3.619
 2686PP      PP12790  10.963  10.779   2.956
 2687PP      PP12791   3.557  15.439   3.143
 2688PP      PP12792  10.982  14.753  10.097
 2689PP      PP12793  13.941   0.739  10.906
 2690PP      PP12794   6.575  10.648   2.595
 2691PP      PP12795  10.944   9.717   0.303
 2692PP      PP12796  12.973   9.057  10.421
 2693PP      PP12797   7.014  15.351   9.971
 2694PP      PP12798   5.728   8.229  10.290
 2695PP      PP12799   7.365   7.377  11.441
 2696PP      PP12800   2.145   2.408  11.529
 2697PP      PP12801   3.537   4.772   3.124
 2698PP      PP12802   7.714   3.238   5.254
 2699PP      PP12803  13.638   0.807   9.276
 2700PP      PP12804  13.813  11.197   3.683
 2701PP      PP12805   7.905   1.175  12.213
 2702PP      PP12806   3.556  13.446   2.609
 2703PP      PP12807   4.040  14.382  10.664
 2704PP      PP12808   8.715   3.076   1.541
 2705PP      PP12809  15.139   1.438  10.256
 2706PP      PP12810   1.139  13.262   3.220
 2707PP      PP12811   9.980  10.138  11.703
 2708PP      PP12812  11.800  10.714   2.449
 2709PP      PP12813   9.300   6.752  11.930
 2710PP      PP12814   0.130   9.014  11.219
 2711PP      PP12815  10.517   2.409  10.240
 2712PP      PP12816   5.593  11.376   2.662
 2713PP      PP12817   1.034   7.411  12.732
 2714PP      PP12818  14.625   6.208   0.123
 2715PP      PP12819   4.786   1.641  12.994
 2716PP      PP12820  14.752  14.234  11.729
 2717PP      PP12821  13.249   1.142   0.182
 2718PP      PP12822   5.630   8.982  10.972
 2719PP      PP12823   3.915   5.212  12.198
 2720PP      PP12824  13.116  11.369  10.233
 2721PP      PP12825   5.056   5.357   4.653
 2722PP      PP12826   1.722   5.754   3.039
 2723PP      PP12827   3.311   6.799   2.058
 2724PP      PP12828  15.421   2.804   0.485
 2725PP      PP12829   8.890   2.325  10.916
 2726PP      PP12830   1.908   1.686   2.422
 2727PP      PP12831  10.160   0.655   1.750
 2728PP      PP12832   2.899  10.835   3.720
 2729PP      PP12833   0.126   2.802  10.699
 2730PP      PP12834  14.219  14.740   0.799
 2731PP      PP12835   1.283   3.613   3.558
 2732PP      PP12836  12.134   9.128   3.196
 2733PP      PP12837   9.626   6.621   0.892
 2734PP      PP12838   4.150  11.309   9.252
 2735PP      PP12839  10.139  14.195  12.688
 2736PP      PP12840   1.303  13.551   4.588
 2737PP      PP12841   7.386   0.790   3.210
 2738PP      PP12842   8.006  10.659   8.889
 2739PP      PP12843  15.602   4.460  13.195
 2740PP      PP12844  13.608   7.017   1.919
 2741PP      PP12845   6.335   5.562  13.140
 2742PP      PP12846  13.372   1.868   4.474
 2743PP      PP12847   1.115   8.093  11.525
 2744PP      PP12848   8.540  12.484  10.065
 2745PP      PP12849  14.129   7.805   9.626
 2746PP      PP12850   4.582  15.762   3.111
 2747PP      PP12851   2.816   0.998  13.064
 2748PP      PP12852   5.840   4.307  10.471
 2749PP      PP12853   4.680   8.931  12.367
 2750PP      PP12854   3.950  13.554  10.706
 2751PP      PP12855  13.936  10.442  12.437
 2752PP      PP12856  11.021   6.593   8.646
 2753PP      PP12857   0.053   4.035  13.009
 2754PP      PP12858  14.585  10.263  11.120
 2755PP      PP12859   6.269  15.054   1.914
 2756PP      PP12860  11.909   7.176   8.247
 2757PP      PP12861   5.680  14.570   9.591
 2758PP      PP12862   9.095  11.526   2.636
 2759PP      PP12863  12.644   6.778  10.738
 2760PP      PP12864   6.145   5.151   1.334
 2761PP      PP12865  10.512   9.428   9.171
 2762PP      PP12866   8.062   4.419  10.110
 2763PP      PP12867   9.262   0.140   4.913
 2764PP      PP12868  10.827  13.745   5.172
 2765PP      PP12869  11.881   8.300  12.390
 2766PP      PP12870   0.863  13.401   1.221
 2767PP      PP12871   1.874  15.297  11.736
 2768PP      PP12872   8.280   9.291   4.029
 2769PP      PP12873   8.278   9.094  11.600
 2770PP      PP12874   2.991   9.972  13.512
 2771PP      PP12875   5.067   4.141   1.199
 2772PP      PP12876   3.391   4.971   4.042
 2773PP      PP12877   2.507  13.012   9.392
 2774PP      PP12878   8.396   1.110   2.591
 2775PP      PP12879   0.664   4.235  11.244
 2776PP      PP12880  12.176  15.127  13.035
 2777PP      PP12881   7.561   2.430   0.432
 2778PP      PP12882   5.244   4.717   3.353
 2779PP      PP12883   8.298  14.759   3.699
 2780PP      PP12884   8.891  15.782   9.575
 2781PP      PP12885  11.945   6.900  12.234
 2782PP      PP12886   7.596  13.618   1.738
 2783PP      PP12887  12.973   6.313   9.242
 2784PP      PP12888   7.743   8.761   3.058
 2785PP      PP12889  10.397   7.827   9.361
 2786PP      PP12890  15.474   6.298  12.160
 2787PP      PP12891  14.799   3.141   2.615
 2788PP      PP12892   4.655   6.345   4.128
 2789PP      PP12893  14.309   4.086   0.370
 2790PP      PP12894  12.071   7.810  12.235
 2791PP      PP12895   6.464   4.775   8.775
 2792PP      PP12896   9.268   6.060  12.652
 2793PP      PP12897  11.549   8.099   2.965
 2794PP      PP12898   0.872  14.411  11.324
 2795PP      PP12899  11.873   0.099   2.812
 2796PP      PP12900   7.777  13.122   1.571
 2797PP      PP12901  14.000   0.843   2.944
 2798PP      PP12902   5.520   7.093   0.683
 2799PP      PP12903   9.610   9.282   4.186
 2800PP      PP12904   6.957   1.076   3.730
 2801PP      PP12905  12.153   5.160   8.879
 2802PP      PP12906  15.522   0.425   1.321
 2803PP      PP12907   7.337   3.088   3.911
 2804PP      PP12908  13.843   6.451   8.986
 2805PP      PP12909   7.362  12.298   9.203
 2806PP      PP12910   9.119   9.016   9.721
 2807PP      PP12911   2.056   3.703   2.050
 2808PP      PP12912  11.247   5.362   0.263
 2809PP      PP12913   7.549  14.026   2.547
 2810PP      PP12914  10.901   4.953  13.033
 2811PP      PP12915  15.628  13.789  10.970
 2812PP      PP12916  14.602  13.892   4.206
 2813PP      PP12917   6.820   3.678  12.671
 2814PP      PP12918  15.464  11.572   0.131
 2815PP      PP12919   8.435   1.121  13.087
 2816PP      PP12920   9.739  15.001  10.644
 2817PP      PP12921   2.380  10.589  11.198
 2818PP      PP12922   1.683  14.935   1.284
 2819PP      PP12923   8.935  15.606  12.653
 2820PP      PP12924   2.290   7.426   9.113
 2821PP      PP12925  14.491   1.253  13.543
 2822PP      PP12926  10.329   2.754  13.380
 2823PP      PP12927   4.590   7.887   0.372
 2824PP      PP12928   4.339   8.903   1.605
 2825PP      PP12929   2.844   6.484  12.505
 2826PP      PP12930   6.586  12.316  11.651
 2827PP      PP12931   2.587   7.342  11.938
 2828PP      PP12932   8.308   8.382  12.919
 2829PP      PP12933  12.722   8.010   3.585
 2830PP      PP12934  12.061  14.791   4.550
 2831PP      PP12935  12.600   6.872   2.126
 2832PP      PP12936  13.223  14.109   0.126
 2833PP      PP12937   2.890   3.372   9.916
 2834PP      PP12938  14.955   9.206  10.317
 2835PP      PP12939  10.770   9.278   3.625
 2836PP      PP12940  11.559   5.624  12.064
 2837PP      PP12941   4.335   0.411   0.934
 2838PP      PP12942   6.708  13.510   9.502
 2839PP      PP12943  14.750  12.819  11.702
 2840PP      PP12944   3.917   6.103   3.414
 2841PP      PP12945  15.467   1.979  13.432
 2842PP      PP12946   8.066   3.074   3.191
 2843PP      PP12947   4.244   9.985  10.237
 2844PP      PP12948   9.415   6.449   9.001
 2845PP      PP12949  14.971   4.129   1.097
 2846PP      PP12950   8.897   4.969  10.943
 2847PP      PP12951  11.445   5.236  11.717
 2848PP      PP12952  13.197   5.627  11.426
 2849PP      PP12953  14.869   1.708   4.432
 2850PP      PP12954  11.015   3.381   0.993
 2851PP      PP12955  10.014   0.432   3.292
 2852PP      PP12956   1.312  11.524  12.604
 2853PP      PP12957   1.512   5.347   3.851
 2854PP      PP12958   5.622  13.613  10.606
 2855PP      PP12959  13.448   8.851  12.275
 2856PP      PP12960   9.894   0.202  10.944
 2857PP      PP12961   9.027   5.667  12.946
 2858PP      PP12962   1.522   9.496   1.359
 2859PP      PP12963  10.538   7.447  11.717
 2860PP      PP12964   2.430  14.596   1.542
 2861PP      PP12965   5.414   6.461  10.491
 2862PP      PP12966  11.611   0.600   0.157
 2863PP      PP12967   5.010   1.274   9.748
 2864PP      PP12968  10.817  10.131   2.209
 2865PP      PP12969   3.218  11.034   2.744
 2866PP      PP12970   2.739   6.511   9.425
 2867PP      PP12971   8.089   8.096  11.236
 2868PP      PP12972   7.566  13.627   2.872
 2869PP      PP12973  13.316   3.931   8.213
 2870PP      PP12974   2.987   3.895   1.895
 2871PP      PP12975  12.995   9.943  10.998
 2872PP      PP12976  10.716   3.307  10.375
 2873PP      PP12977   4.957   5.820   9.193
 2874PP      PP12978   3.843   3.555   9.843
 2875PP      PP12979   9.838  13.526   2.403
 2876PP      PP12980  10.233   9.639   3.691
 2877PP      PP12981   0.452  14.728   0.889
 2878PP      PP12982   3.462  10.639   8.444
 2879PP      PP12983  12.465   7.580   0.353
 2880PP      PP12984   5.170   8.918  10.508
 2881PP      PP12985  11.701   9.905  11.372
 2882PP      PP12986  15.391   2.325   9.654
 2883PP      PP12987   8.963  13.524  10.637
 2884PP      PP12988  11.578   5.714   9.071
 2885PP      PP12989  13.451   6.783   8.980
 2886PP      PP12990   6.414   6.864   3.282
 2887PP      PP12991  15.512   4.970  10.930
 2888PP      PP12992   7.079   6.008   1.188
 2889PP      PP12993  10.890   1.693   0.927
 2890PP      PP12994  13.841   9.728   9.499
 2891PP      PP12995   2.605  12.641   2.428
 2892PP      PP12996   9.496  11.757   3.400
 2893PP      PP12997   2.074   6.640  11.546
 2894PP      PP12998  13.103  13.355   4.625
 2895PP      PP12999   0.713  11.964  10.974
 2896PP      PP13000   5.571  12.782   2.567
 2897PP      PP13001   5.367  11.371   9.914
 2898PP      PP13002  10.407   4.764  10.141
 2899PP      PP13003  12.768   8.830  10.937
 2900PP      PP13004  13.906   3.124   0.150
 2901PP      PP13005  11.006   5.808  12.962
 2902PP      PP13006   1.812  14.839  13.029
 2903PP      PP13007   5.604   0.993  12.144
 2904PP      PP13008   6.640   2.201   0.678
 2905PP      PP13009   7.947   9.118  11.173
 2906PP      PP13010  10.032   8.979   0.949
 2907PP      PP13011   8.794   1.873   5.324
 2908PP      PP13012   3.497  13.488   2.080
 2909PP      PP13013   1.080   5.526  13.300
 2910PP      PP13014  13.427   7.852   3.080
 2911PP      PP13015  12.530   4.501   9.384
 2912PP      PP13016   4.578  10.422   3.575
 2913PP      PP13017   8.547   2.088   3.198
 2914PP      PP13018   5.257  15.457   3.977
 2915PP      PP13019   7.018  13.671  11.443
 2916PP      PP13020   5.774   7.731   9.409
 2917PP      PP13021   8.008   8.605  11.956
 2918PP      PP13022  14.359   6.352   9.042
 2919PP      PP13023  10.979   1.617   1.450
 2920PP      PP13024  12.491   7.763  11.920
 2921PP      PP13025   1.255   2.877   0.827
 2922PP      PP13026  14.056   6.003  10.390
 2923PP      PP13027   2.975   6.799  12.911
 2924PP      PP13028   2.824  13.621   1.332
 2925PP      PP13029   0.958   8.780  10.786
 2926PP      PP13030  11.429   7.635   1.508
 2927PP      PP13031  11.847   2.760  10.859
 2928PP      PP13032  13.064  15.767   9.836
 2929PP      PP13033  14.870   7.048  10.423
 2930PP      PP13034  11.238  12.110   9.291
 2931PP      PP13035   7.870   7.693   2.437
 2932PP      PP13036   5.121   4.943  13.095
 2933PP      PP13037   8.299   0.564   2.112
 2934PP      PP13038  14.711  14.104  12.789
 2935PP      PP13039   5.326  10.360   9.363
 2936PP      PP13040  11.074   8.107  11.972
 2937PP      PP13041  13.449   6.219   1.768
 2938PP      PP13042   1.580   9.823   3.604
 2939PP      PP13043   0.684  14.791  12.302
 2940PP      PP13044  14.073   8.116  10.524
 2941PP      PP13045   4.784   0.001  11.918
 2942PP      PP13046   8.872   5.851  11.010
 2943PP      PP13047   4.064   3.886   3.997
 2944PP      PP13048  13.104   2.369   8.743
 2945PP      PP13049   9.338   8.206  12.180
 2946PP      PP13050   1.297  11.981   9.871
 2947PP      PP13051   9.895   4.887  11.028
 2948PP      PP13052  10.416  10.391  11.633
 2949PP      PP13053   4.496   3.087   0.464
 2950PP      PP13054   2.017   1.377   1.997
 2951PP      PP13055  11.693  10.534   1.664
 2952PP      PP13056  15.754   6.386  10.107
 2953PP      PP13057  15.129   9.461  13.415
 2954PP      PP13058   1.729   5.901  11.409
 2955PP      PP13059   4.057   3.321   0.822
 2956PP      PP13060   9.901  12.274  12.375
 2957PP      PP13061  13.340   2.332   3.189
 2958PP      PP13062  13.429  10.842  10.924
 2959PP      PP13063   0.743   0.146   1.417
 2960PP      PP13064   0.451   2.318  10.252
 2961PP      PP13065   0.480   9.049   3.589
 2962PP      PP13066   9.499   3.369  13.444
 2963PP      PP13067  15.075   8.139   1.461
 2964PP      PP13068  12.363  14.223  12.991
 2965PP      PP13069  15.489  14.476   1.313
 2966PP      PP13070  13.092   5.655   1.135
 2967PP      PP13071  11.126   7.385  10.513
 2968PP      PP13072  10.069   6.206   3.875
 2969PP      PP13073  15.406  11.243   4.789
 2970PP      PP13074   5.302   7.655  11.053
 2971PP      PP13075   6.050   6.622   0.838
 2972PP      PP13076   9.312   4.560   4.221
 2973PP      PP13077   0.905   4.007   4.226
 2974PP      PP13078  15.071   0.110   2.467
 2975PP      PP13079   3.129   8.653   1.539
 2976PP      PP13080   6.192   6.430   1.681
 2977PP      PP13081   0.088  13.558   0.844
 2978PP      PP13082  12.724   7.726  11.444
 2979PP      PP13083  15.553  12.055   0.958
 2980PP      PP13084  10.398  11.801   2.730
 2981PP      PP13085  12.856  10.935  10.323
 2982PP      PP13086   6.160   2.996  13.047
 2983PP      PP13087   8.392  12.456  13.268
 2984PP      PP13088  11.497  10.317   8.936
 2985PP      PP13089   7.944  10.149  10.542
 2986PP      PP13090  11.629   1.493   3.636
 2987PP      PP13091   6.305  11.028   4.136
 2988PP      PP13092   9.683   1.444   1.830
 2989PP      PP13093   4.577   2.080   3.670
 2990PP      PP13094   3.098  10.236  12.920
 2991PP      PP13095   0.958  10.643   2.349
 2992PP      PP13096  10.024   2.170   1.007
 2993PP      PP13097   1.125   4.577   0.200
 2994PP      PP13098   9.678   7.255  10.996
 2995PP      PP13099  15.547   4.974   3.176
 2996PP      PP13100   3.335   0.413   2.367
 2997PP      PP13101   3.786   8.284   1.150
 2998PP      PP13102   3.612   4.901   9.502
 2999PP      PP13103   2.776   0.411   3.032
 3000PP      PP13104   9.480   6.705  10.992
 3001PP      PP13105   0.653  10.974  11.171
 3002PP      PP13106   4.355   7.279   2.910
 3003PP      PP13107   7.739  14.900  10.516
 3004PP      PP13108   7.722   4.894  11.547
 3005PP      PP13109   0.867  13.441  10.181
 3006PP      PP13110   9.141   0.903  12.447
 3007PP      PP13111   3.199  11.160   2.207
 3008PP      PP13112   4.221   9.527  10.018
 3009PP      PP13113   6.386   2.878   3.953
 3010PP      PP13114   1.148  15.028   2.604
 3011PP      PP13115   2.511   1.607  10.684
 3012PP      PP13116  12.638   6.551  13.481
 3013PP      PP13117  15.099   2.733   1.792
 3014PP      PP13118  14.940  12.186  12.877
 3015PP      PP13119   0.250  12.422  10.295
 3016PP      PP13120   7.456   4.853   0.908
 3017PP      PP13121   8.958   2.607  12.885
 3018PP      PP13122   9.938  12.648   4.839
 3019PP      PP13123   0.772  10.798   4.415
 3020PP      PP13124  11.370   4.591  11.197
 3021PP      PP13125  11.639   2.006   8.499
 3022PP      PP13126  13.379   5.159   1.232
 3023PP      PP13127   9.616  14.242  12.637
 3024PP      PP13128  15.406  10.710   2.934
 3025PP      PP13129   7.079   3.402   9.493
 3026PP      PP13130  14.360  13.542   9.089
 3027PP      PP13131   6.623   5.169  12.903
 3028PP      PP13132   7.460   2.511   5.119
 3029PP      PP13133   4.282   6.718   1.934
 3030PP      PP13134   0.116   3.808   0.965
 3031PP      PP13135  13.026   4.467   2.370
 3032PP      PP13136   1.526   4.474   3.707
 3033PP      PP13137  13.756  14.652  12.916
 3034PP      PP13138   0.325  10.353   1.291
 3035PP      PP13139   8.181   5.392   0.950
 3036PP      PP13140  12.968  14.052  10.192
 3037PP      PP13141   1.662  12.301  10.897
 3038PP      PP13142   5.389  10.453   1.316
 3039PP      PP13143   4.786   4.659   0.392
 3040PP      PP13144  13.619  11.829   1.229
 3041PP      PP13145   9.678   5.496   3.925
 3042PP      PP13146   2.346   9.315   1.196
 3043PP      PP13147  15.154  13.504  11.154
 3044PP      PP13148   5.783   0.963   4.050
 3045PP      PP13149   3.530  14.785  11.237
 3046PP      PP13150  11.745   0.618   2.844
 3047PP      PP13151   7.633   0.409   0.896
 3048PP      PP13152   4.976   4.982   1.361
 3049PP      PP13153  15.171  10.037   9.076
 3050PP      PP13154   4.542   9.851  12.900
 3051PP      PP13155  11.831  15.399   2.798
 3052PP      PP13156   7.126   0.135   0.779
 3053PP      PP13157   1.917   6.493   9.900
 3054PP      PP13158   5.999   7.848   8.950
 3055PP      PP13159   5.252  14.535   3.777
 3056PP      PP13160  10.018  11.832  10.871
 3057PP      PP13161  11.752   0.058   0.316
 3058PP      PP13162  13.012   4.123  12.467
 3059PP      PP13163  14.530   1.272  12.103
 3060PP      PP13164  12.089   5.046   0.589
 3061PP      PP13165   7.507  12.235  12.697
 3062PP      PP13166   5.367   8.810   2.238
 3063PP      PP13167   4.983   8.518   2.490
 3064PP      PP13168  15.411  10.497  11.446
 3065PP      PP13169  10.126   8.175  11.178
 3066PP      PP13170   9.766   5.883   0.206
 3067PP      PP13171   8.275   1.662   3.427
 3068PP      PP13172  11.019  13.284   1.800
 3069PP      PP13173  14.864   3.450   3.042
 3070PP      PP13174   6.978  10.945   3.171
 3071PP      PP13175   0.701  11.370   0.966
 3072PP      PP13176   4.855  12.505   0.384
 3073PP      PP13177  12.201   9.616  12.060
 3074PP      PP13178   9.751  10.762   9.121
 3075PP      PP13179   7.592  11.748   1.450
 3076PP      PP13180   3.697   6.159  10.469
 3077PP      PP13181   4.083   2.155   4.186
 3078PP      PP13182   2.053  11.955   8.921
 3079PP      PP13183   8.940   2.205   0.211
 3080PP      PP13184   2.968   5.358  10.590
 3081PP      PP13185   6.710  10.044  10.880
 3082PP      PP13186   8.371   6.742  11.677
 3083PP      PP13187   3.542   0.204  13.126
 3084PP      PP13188   6.477  11.241  12.598
 3085PP      PP13189   9.142   9.157   1.094
 3086PP      PP13190  13.945   2.162   1.257
 3087PP      PP13191  15.510  10.306   0.713
 3088PP      PP13192   9.513  15.425  13.490
 3089PP      PP13193   0.789  12.557  11.881
 3090PP      PP13194  14.922   8.645  11.996
 3091PP      PP13195   5.045  13.465  12.296
 3092PP      PP13196   3.658  15.306   9.126
 3093PP      PP13197   0.209  13.062   0.085
 3094PP      PP13198  12.000  14.910   4.055
 3095PP      PP13199  10.091   4.107   4.244
 3096PP      PP13200   6.167   3.382   1.018
 3097PP      PP13201   1.602   7.530   2.683
 3098PP      PP13202   6.202   5.940   4.222
 3099PP      PP13203   9.621   9.542   0.431
 3100PP      PP13204   2.408  14.943   9.721
 3101PP      PP13205  11.092   9.199  11.432
 3102PP      PP13206   6.930  13.125  13.236
 3103PP      PP13207  12.824  10.262   0.603
 3104PP      PP13208   6.230   4.035  13.535
 3105PP      PP13209  10.990   3.308   3.615
 3106PP      PP13210  10.215  15.160   4.161
 3107PP      PP13211   1.054   0.019  10.051
 3108PP      PP13212   2.342   2.023   9.723
 3109PP      PP13213   6.035   1.419   3.446
 3110PP      PP13214   0.567   2.867   0.472
 3111PP      PP13215   0.036   0.643  11.952
 3112PP      PP13216   7.148   6.716   1.114
 3113PP      PP13217  11.360   5.242  12.987
 3114PP      PP13218   8.843   5.688   0.385
 3115PP      PP13219   9.937   4.492   1.487
 3116PP      PP13220   4.095   1.210  11.026
 3117PP      PP13221   5.030   1.359   0.090
 3118PP      PP13222   7.883   8.556   3.532
 3119PP      PP13223  10.225   7.521  10.387
 3120PP      PP13224   8.857  12.565   4.321
 3121PP      PP13225   1.803   7.948   1.318
 3122PP      PP13226  14.383  15.418  12.576
 3123PP      PP13227   6.532   4.141  10.072
 3124PP      PP13228   9.015  10.265   9.578
 3125PP      PP13229  12.371   8.500   0.091
 3126PP      PP13230   6.530   6.501  10.687
 3127PP      PP13231  14.996   3.800   9.954
 3128PP      PP13232   8.558  14.909   1.417
 3129PP      PP13233   4.690   0.467   3.124
 3130PP      PP13234   0.660   4.962   8.683
 3131PP      PP13235  12.438   6.553   2.510
 3132PP      PP13236   9.865   6.789  13.296
 3133PP      PP13237   6.774  13.275   9.969
 3134PP      PP13238   6.352  11.426  10.051
 3135PP      PP13239   1.675   9.546  10.984
 3136PP      PP13240   2.463  11.128   9.918
 3137PP      PP13241  11.482   6.548   0.471
 3138PP      PP13242  14.228  13.247  11.254
 3139PP      PP13243   9.280  10.695   8.878
 3140PP      PP13244   6.753   3.552  13.429
 3141PP      PP13245   8.448   5.484   3.953
 3142PP      PP13246  10.109   7.348   1.268
 3143PP      PP13247   1.019  11.259   3.190
 3144PP      PP13248  13.723   3.174   4.406
 3145PP      PP13249   0.828   1.601   4.262
 3146PP      PP13250   4.078  15.173  10.603
 3147PP      PP13251   5.050   2.910  10.335
 3148PP      PP13252  10.130   7.313  11.419
 3149PP      PP13253  13.045  15.519   0.470
 3150PP      PP13254   5.077   3.400  11.258
 3151PP      PP13255   3.972   7.440  12.725
 3152PP      PP13256   1.670   2.612   3.460
 3153PP      PP13257   9.362   0.596   3.017
 3154PP      PP13258   3.626  14.944   2.940
 3155PP      PP13259   3.111   6.252   0.321
 3156PP      PP13260   9.487   7.057  12.911
 3157PP      PP13261   8.361  13.405   1.773
 3158PP      PP13262   6.657   3.507   1.959
 3159PP      PP13263   0.246   3.511   0.087
 3160PP      PP13264   0.353  13.014  11.020
 3161PP      PP13265   0.586   6.874   3.562
 3162PP      PP13266   3.399   2.785  10.002
 3163PP      PP13267   7.735  15.759  10.397
 3164PP      PP13268  14.194   4.609  10.216
 3165PP      PP13269   9.559  10.348  11.895
 3166PP      PP13270   1.329  14.188  11.183
 3167PP      PP13271   3.697   3.527  11.617
 3168PP      PP13272  12.884   1.427   3.312
 3169PP      PP13273  13.505   6.764  13.353
 3170PP      PP13274  11.652   2.418  13.182
 3171PP      PP13275  12.742  14.343  12.636
 3172PP      PP13276   6.909  13.779   1.510
 3173PP      PP13277   7.676  13.787   0.768
 3174PP      PP13278   1.877  13.575   3.098
 3175PP      PP13279   1.776   4.404  12.623
 3176PP      PP13280   3.164  10.640   2.142
 3177PP      PP13281  15.043   9.674   1.288
 3178PP      PP13282   6.237  14.161   3.125
 3179PP      PP13283   4.064   4.751  10.954
 3180PP      PP13284   9.337  11.273   0.458
 3181PP      PP13285  13.159  14.949   1.818
 3182PP      PP13286   0.812   0.259  12.080
 3183PP      PP13287  14.300   6.543  12.873
 3184PP      PP13288   4.542   6.846  11.424
 3185PP      PP13289  15.776  14.476   1.772
 3186PP      PP13290  12.167   1.722   1.053
 3187PP      PP13291  15.021   5.735  12.860
 3188PP      PP13292   9.450  11.173   9.005
 3189PP      PP13293  11.307   4.673   2.109
 3190PP      PP13294  11.497  12.509   0.670
 3191PP      PP13295   6.961  15.028  12.040
 3192PP      PP13296   5.942  10.423   0.725
 3193PP      PP13297   1.912   0.948  10.048
 3194PP      PP13298  14.467   6.448   2.508
 3195PP      PP13299  13.503  12.649   1.530
 3196PP      PP13300   0.197  10.444   1.795
 3197PP      PP13301  14.355  10.312   9.812
 3198PP      PP13302   4.233   6.635   4.210
 3199PP      PP13303   5.245   4.255  12.379
 3200PP      PP13304   6.728   2.200   0.173
 3201PP      PP13305   2.464  10.113   3.399
 3202PP      PP13306  14.397  11.640   9.528
 3203PP      PP13307  13.631   0.647   9.787
 3204PP      PP13308   3.180  10.852  10.225
 3205PP      PP13309   9.469   3.497   9.444
 3206PP      PP13310   5.648  15.230  10.755
 3207PP      PP13311   2.153   1.067   2.895
 3208PP      PP13312   4.309  11.439   3.522
 3209PP      PP13313   2.090  12.810  10.313
 3210PP      PP13314   7.831   7.468  12.096
 3211PP      PP13315   3.577  11.996  12.720
 3212PP      PP13316   5.533   5.374   1.315
 3213PP      PP13317   7.496  11.847   3.020
 3214PP      PP13318  12.691   4.235   2.695
 3215PP      PP13319  12.268  11.442  12.358
 3216PP      PP13320  13.680   6.669   1.486
 3217PP      PP13321   5.411   8.842   1.064
 3218PP      PP13322  15.798   8.046  10.626
 3219PP      PP13323   9.702   9.592   3.751
 3220PP      PP13324  10.381   2.914  11.554
 3221PP      PP13325  14.633   7.411  12.581
 3222PP      PP13326   7.902   6.761   1.999
 3223PP      PP13327   2.326   4.017   3.307
 3224PP      PP13328   8.947  15.104   0.395
 3225PP      PP13329   0.677   9.629  11.783
 3226PP      PP13330   5.857   1.735   0.567
 3227PP      PP13331  13.199   7.094  10.227
 3228PP      PP13332  14.244   5.625   0.916
 3229PP      PP13333   1.875   2.534   4.145
 3230PP      PP13334  14.874   7.270   0.460
 3231PP      PP13335  15.451  12.480  13.334
 3232PP      PP13336   7.054   6.319   2.501
 3233PP      PP13337   8.245   2.598  10.805
 3234PP      PP13338  12.949  13.633  11.566
 3235PP      PP13339   0.083  13.902   9.951
 3236PP      PP13340   7.848  14.977   0.394
 3237PP      PP13341   6.898  15.683   2.480
 3238PP      PP13342   6.102   7.853  12.921
 3239PP      PP13343  12.491   5.282  10.628
 3240PP      PP13344   4.593   6.238   9.019
 3241PP      PP13345  12.070   5.350  13.246
 3242PP      PP13346  14.170   8.991   1.740
 3243PP      PP13347  10.080   6.103  10.079
 3244PP      PP13348   3.085   4.739  11.318
 3245PP      PP13349  12.104   2.200  12.968
 3246PP      PP13350   7.740   5.592   3.486
 3247PP      PP13351   7.053   4.429  11.610
 3248PP      PP13352   4.107   5.020  12.666
 3249PP      PP13353  11.034  12.023  10.132
 3250PP      PP13354  10.514  11.588  11.623
 3251PP      PP13355  10.527   5.149  11.823
 3252PP      PP13356  12.966   4.926   2.118
 3253PP      PP13357   7.570  13.252  12.374
 3254PP      PP13358  13.029   7.562   2.494
 3255PP      PP13359   7.352   5.290  10.321
 3256PP      PP13360   7.463   4.001   3.364
 3257PP      PP13361   0.155   2.319  11.525
 3258PP      PP13362   1.723  15.675  10.899
 3259PP      PP13363   8.020   6.554   9.073
 3260PP      PP13364  10.561  11.924   3.701
 3261PP      PP13365  11.161  11.054  11.535
 3262PP      PP13366  12.800  12.151   0.245
 3263PP      PP13367  10.144   1.204   1.684
 3264PP      PP13368  10.497   8.449  13.121
 3265PP      PP13369  12.106   7.586   2.440
 3266PP      PP13370  15.234   9.588   2.356
 3267PP      PP13371   0.785  12.882   0.733
 3268PP      PP13372   4.408   8.222  12.672
 3269PP      PP13373   1.018  10.715  12.893
 3270PP      PP13374   5.490   0.452   9.785
 3271PP      PP13375   6.011  14.646  12.281
 3272PP      PP13376   1.875   7.976   2.434
 3273PP      PP13377   8.885   6.380  12.822
 3274PP      PP13378  10.683   6.652   1.762
 3275PP      PP13379  10.897   6.351   9.087
 3276PP      PP13380  15.126   5.806   1.874
 3277PP      PP13381  10.797   3.507   2.162
 3278PP      PP13382  15.612   6.932  11.927
 3279PP      PP13383   4.277   4.875   9.957
 3280PP      PP13384   8.998   9.188  12.778
 3281PP      PP13385   7.609   0.956   2.735
 3282PP      PP13386   8.648  14.017  11.737
 3283PP      PP13387  13.744   7.705  10.528
 3284PP      PP13388   6.154  14.853  11.407
 3285PP      PP13389   4.555   8.323   9.554
 3286PP      PP13390   2.719  12.205   2.699
 3287PP      PP13391   7.772   0.972   9.947
 3288PP      PP13392   8.757  10.779   1.470
 3289PP      PP13393  12.548  10.290   0.007
 3290PP      PP13394   8.445   3.332  10.028
 3291PP      PP13395  12.385  10.110   1.611
 3292PP      PP13396  10.642   7.944   3.315
 3293PP      PP13397   9.436   4.717   3.067
 3294PP      PP13398   8.280  12.986  11.177
 3295PP      PP13399   5.662   9.463   9.034
 3296PP      PP13400  13.440   2.665  10.483
 3297PP      PP13401   2.313   2.585  10.476
 3298PP      PP13402   4.497  13.519   2.809
 3299PP      PP13403   2.767   1.182  10.594
 3300PP      PP13404   2.757   2.602   0.044
 3301PP      PP13405   7.765   0.187   4.131
 3302PP      PP13406   1.925   7.766  12.624
 3303PP      PP13407   6.772  13.289   1.464
 3304PP      PP13408   3.249   1.700  11.207
 3305PP      PP13409   7.714   1.934  10.445
 3306PP      PP13410   5.786  10.353  11.271
 3307PP      PP13411  10.156  15.126   0.655
 3308PP      PP13412   7.316   8.220  13.340
 3309PP      PP13413   1.159   9.450   2.421
 3310PP      PP13414   5.346  15.075   4.412
 3311PP      PP13415   5.347   0.600  11.304
 3312PP      PP13416  14.106   7.434   8.801
 3313PP      PP13417   4.264   5.100   3.686
 3314PP      PP13418   5.816   9.616   1.755
 3315PP      PP13419   4.438   6.734   9.104
 3316PP      PP13420  10.411   8.613  11.213
 3317PP      PP13421   8.362   9.332   9.306
 3318PP      PP13422   1.926   6.191   1.973
 3319PP      PP13423   6.106   9.868   9.196
 3320PP      PP13424  12.136  10.559   4.269
 3321PP      PP13425   9.979   4.866  11.546
 3322PP      PP13426  13.928   6.580   1.937
 3323PP      PP13427   5.133  12.192   0.776
 3324PP      PP13428   9.454   2.318  13.479
 3325PP      PP13429  12.039  13.495   1.809
 3326PP      PP13430  11.269  14.147   1.613
 3327PP      PP13431  10.088   8.578  10.218
 3328PP      PP13432  12.466   0.236  12.161
 3329PP      PP13433  10.288   9.883   1.144
 3330PP      PP13434   5.181  12.504   3.773
 3331PP      PP13435  15.563  15.498  11.370
 3332PP      PP13436   5.436   2.655   0.279
 3333PP      PP13437  14.916   6.099  12.409
 3334PP      PP13438  13.855   5.144   4.351
 3335PP      PP13439  10.048  14.173   1.516
 3336PP      PP13440   2.426   1.358  10.185
 3337PP      PP13441   5.030   6.102   8.772
 3338PP      PP13442   5.966  10.038   1.485
 3339PP      PP13443   9.647  10.907   2.090
 3340PP      PP13444   7.690  15.747  10.938
 3341PP      PP13445  10.659   1.484   3.497
 3342PP      PP13446   4.036   7.630   3.109
 3343PP      PP13447   0.046  14.663  11.102
 3344PP      PP13448  15.298   3.485  10.228
 3345PP      PP13449   4.197  13.189   1.463
 3346PP      PP13450   0.053   2.364   1.419
 3347PP      PP13451  13.201   8.894  12.747
 3348PP      PP13452   0.428  11.422   1.836
 3349PP      PP13453   1.026  15.293   3.805
 3350PP      PP13454   2.800   3.579   9.157
 3351PP      PP13455  13.408   0.110   0.244
 3352PP      PP13456  15.693  12.109   3.062
 3353PP      PP13457   0.964   1.600  11.499
 3354PP      PP13458   4.194  11.110  12.751
 3355PP      PP13459  10.406  13.664   3.500
 3356PP      PP13460  14.407   2.626   0.183
 3357PP      PP13461   0.459   0.641   2.290
 3358PP      PP13462  10.648   8.015   1.137
 3359PP      PP13463   3.390   0.015   0.883
 3360PP      PP13464   9.686  12.134  12.840
 3361PP      PP13465  12.000  15.128   4.993
 3362PP      PP13466   3.780  12.153   0.953
 3363PP      PP13467   7.488   6.176  13.200
 3364PP      PP13468  13.186   5.935   0.145
 3365PP      PP13469   0.794   8.254   1.316
 3366PP      PP13470   4.454  12.720  12.543
 3367PP      PP13471  13.730   8.710   1.809
 3368PP      PP13472   5.626  10.047   0.532
 3369PP      PP13473   6.409   0.094   2.274
 3370PP      PP13474  12.696  15.020   1.216
 3371PP      PP13475  12.984   1.004  11.160
 3372PP      PP13476   1.261   3.786  12.651
 3373PP      PP13477   9.725   7.938  13.213
 3374PP      PP13478  12.745  11.444   1.214
 3375PP      PP13479   6.316   3.812   3.503
 3376PP      PP13480   8.069   3.200  11.922
 3377PP      PP13481  14.865  14.152   1.605
 3378PP      PP13482   8.837  13.330   3.431
 3379PP      PP13483   2.464   7.632   8.651
 3380PP      PP13484   1.224  10.387   1.223
 3381PP      PP13485  14.421   4.505   4.207
 3382PP      PP13486   0.827   8.768   9.079
 3383PP      PP13487  15.596  13.251   2.805
 3384PP      PP13488   2.926   2.832  10.743
 3385PP      PP13489  11.719   7.495  13.114
 3386PP      PP13490  15.150   9.274  11.820
 3387PP      PP13491   5.091   9.234   1.272
 3388PP      PP13492   7.781   8.776   9.613
 3389PP      PP13493   2.817   7.683   1.701
 3390PP      PP13494   4.323   8.060  12.185
 3391PP      PP13495  14.624   2.756   0.852
 3392PP      PP13496   7.453   8.225  12.837
 3393PP      PP13497   8.353   1.053   4.812
 3394PP      PP13498   8.056   9.847  10.122
 3395PP      PP13499   8.989   3.063  11.667
 3396PP      PP13500   0.229  11.569   0.800
 3397PP      PP13501  11.660   2.446   1.628
 3398PP      PP13502   4.714   4.371   8.579
 3399PP      PP13503   1.827   7.456  13.061
 3400PP      PP13504   1.801  13.113  11.363
 3401PP      PP13505   1.289   8.787  13.335
 3402PP      PP13506   8.534   4.842  13.007
 3403PP      PP13507  10.548   7.978   2.648
 3404PP      PP13508   0.453  12.292   9.841
 3405PP      PP13509  14.085  11.850   0.042
 3406PP      PP13510   2.345  13.193  13.589
 3407PP      PP13511   9.312   9.076   1.950
 3408PP      PP13512   8.625   6.851  10.649
 3409PP      PP13513   3.619   4.700   0.858
 3410PP      PP13514  11.877  13.380   2.652
 3411PP      PP13515  11.739   1.977   3.841
 3412PP      PP13516   3.158   9.971  12.483
 3413PP      PP13517  14.412   2.502   9.459
 3414PP      PP13518   4.289   4.022   0.287
 3415PP      PP13519   3.814   6.075  13.343
 3416PP      PP13520   6.629   6.218   4.094
 3417PP      PP13521  13.674   3.567   1.977
 3418PP      PP13522  15.390  11.871  13.234
 3419PP      PP13523   1.894  12.065  12.178
 3420PP      PP13524  14.150   0.048   2.962
 3421PP      PP13525  11.405   6.807   2.404
 3422PP      PP13526   6.566   4.040   4.242
 3423PP      PP13527   0.030   6.888  10.880
 3424PP      PP13528  11.254  12.956   3.985
 3425PP      PP13529   1.992   8.128   9.357
 3426PP      PP13530   7.186  10.900  11.224
 3427PP      PP13531  12.055   1.665  12.852
 3428PP      PP13532   0.606  10.605  12.237
 3429PP      PP13533   3.519  11.264  13.412
 3430PP      PP13534   4.628  14.194  11.566
 3431PP      PP13535   4.727   5.376   9.084
 3432PP      PP13536   6.570  12.775  13.017
 3433PP      PP13537   1.184   4.373  10.354
 3434PP      PP13538   7.515   5.114   1.361
 3435PP      PP13539   8.924   3.018   0.630
 3436PP      PP13540  10.658   1.227   1.598
 3437PP      PP13541  15.083  11.631   3.351
 3438PP      PP13542   0.184  14.128  13.042
 3439PP      PP13543   3.538   6.416  10.046
 3440PP      PP13544  15.592   6.749  10.433
 3441PP      PP13545  11.545   2.382   0.092
 3442PP      PP13546  14.119   0.381  12.729
 3443PP      PP13547   9.902  12.521   3.886
 3444PP      PP13548   6.110   7.158   9.427
 3445PP      PP13549  14.092   1.531   0.190
 3446PP      PP13550   7.294  10.084  12.138
 3447PP      PP13551  15.676   8.629   8.854
 3448PP      PP13552   9.355  15.415   1.552
 3449PP      PP13553  12.685   7.920  12.893
 3450PP      PP13554   0.749   2.228   3.715
 3451PP      PP13555   1.748   9.816   1.746
 3452PP      PP13556   3.888  14.028   9.885
 3453PP      PP13557  12.113   4.802   2.784
 3454PP      PP13558   4.100   0.430   9.985
 3455PP      PP13559   3.780   1.052  10.604
 3456PP      PP13560   2.659   8.636  12.652
 3457PP      PP13561   8.842  15.140   2.010
 3458PP      PP13562   4.814   1.994   0.676
 3459PP      PP13563   6.082   9.038  12.562
 3460PP      PP13564   3.431   7.205  10.159
 3461PP      PP13565  11.714   8.997  13.079
 3462PP      PP13566  12.679   7.386   3.023
 3463PP      PP13567  14.527   8.524   9.738
 3464PP      PP13568  14.949   9.564   9.410
 3465PP      PP13569  15.191   4.823   0.326
 3466PP      PP13570  11.022   0.128  10.086
 3467PP      PP13571   5.578   7.260  12.507
 3468PP      PP13572   7.462  14.429  11.305
 3469PP      PP13573  13.176  15.542   4.198
 3470PP      PP13574   7.332  15.101   0.969
 3471PP      PP13575  13.700  14.866  11.378
 3472PP      PP13576   6.483   8.493  12.037
 3473PP      PP13577  15.328   5.494   1.458
 3474PP      PP13578  14.535   0.545   1.445
 3475PP      PP13579  10.113   5.181   8.642
 3476PP      PP13580   6.067   1.999   1.362
 3477PP      PP13581   9.933   2.928  10.806
 3478PP      PP13582   5.843   1.454   4.840
 3479PP      PP13583  14.891  14.881   2.275
 3480PP      PP13584  15.534   9.550   1.927
 3481PP      PP13585   0.325   6.825   0.910
 3482PP      PP13586   2.989   0.565  10.121
 3483PP      PP13587   9.440   8.678   9.101
 3484PP      PP13588   8.349   6.949   5.090
 3485PP      PP13589   1.250   5.825  12.888
 3486PP      PP13590  10.803   5.671  10.235
 3487PP      PP13591   5.094  13.949   4.123
 3488PP      PP13592   9.793  14.590  12.196
 3489PP      PP13593   4.695   0.426  11.015
 3490PP      PP13594   8.702   1.369  11.231
 3491PP      PP13595   9.822  14.046  10.407
 3492PP      PP13596   5.377   2.622   4.255
 3493PP      PP13597  13.164   2.709  10.048
 3494PP      PP13598   0.419  12.603   3.793
 3495PP      PP13599   2.971   9.491   8.662
 3496PP      PP13600   3.185   5.672   2.082
 3497PP      PP13601   6.631   1.112   2.327
 3498PP      PP13602  12.876   8.310  11.125
 3499PP      PP13603   5.741  10.036   3.858
 3500PP      PP13604   6.562   4.289   9.054
 3501PP      PP13605  10.583  11.197   9.779
 3502PP      PP13606   8.721  11.003  11.260
 3503PP      PP13607  15.818   3.181  11.609
 3504PP      PP13608   5.200  10.908   0.084
 3505PP      PP13609   4.556   7.228   1.873
 3506PP      PP13610   3.733   6.436   1.574
 3507PP      PP13611   1.296   1.030  12.182
 3508PP      PP13612   1.308   3.044  12.599
 3509PP      PP13613   7.780   3.544   3.261
 3510PP      PP13614   0.655  11.083   9.128
 3511PP      PP13615   0.844  11.971  13.487
 3512PP      PP13616   5.655  12.970   0.509
 3513PP      PP13617  15.439   7.896   0.266
 3514PP      PP13618  15.677  14.405  12.308
 3515PP      PP13619  14.390  15.424   2.815
 3516PP      PP13620   3.526   9.971  10.735
 3517PP      PP13621   0.821  13.250   2.137
 3518PP      PP13622  15.312   5.716   0.371
 3519PP      PP13623  10.404  11.531  10.724
 3520PP      PP13624   9.094   4.135   4.437
 3521PP      PP13625   8.709  11.519   2.180
 3522PP      PP13626   8.139  14.234   2.260
 3523PP      PP13627   2.862   0.264   2.132
 3524PP      PP13628   4.850   8.634   0.326
 3525PP      PP13629   5.451   9.057   9.287
 3526PP      PP13630  10.204   2.077   9.763
 3527PP      PP13631   0.716   5.561   4.688
 3528PP      PP13632  14.772  12.945   1.659
 3529PP      PP13633  14.699   6.707   3.052
 3530PP      PP13634   0.702   4.128   1.718
 3531PP      PP13635  13.418  10.256  11.930
 3532PP      PP13636   1.194   0.753   1.936
 3533PP      PP13637   4.965   4.980  11.338
 3534PP      PP13638   5.082   9.558   2.336
 3535PP      PP13639   1.782   0.797  13.142
 3536PP      PP13640   3.163  13.598   3.060
 3537PP      PP13641   5.630   4.054  10.064
 3538PP      PP13642  14.530  11.680  10.038
 3539PP      PP13643  11.117  14.668   3.625
 3540PP      PP13644   5.443   5.925   1.710
 3541PP      PP13645   9.109  12.199   4.637
 3542PP      PP13646   6.519   8.912  10.074
 3543PP      PP13647   1.939   0.025   9.549
 3544PP      PP13648   8.225   5.981  10.204
 3545PP      PP13649   4.381   5.366   8.530
 3546PP      PP13650  12.772  15.118   9.243
 3547PP      PP13651   8.194   6.700   2.456
 3548PP      PP13652   5.122   6.109  11.478
 3549PP      PP13653   0.390   2.255   3.363
 3550PP      PP13654   2.923  10.383   0.200
 3551PP      PP13655  10.040   7.306   1.804
 3552PP      PP13656   1.418  12.744  12.776
 3553PP      PP13657   9.332   4.146  12.078
 3554PP      PP13658   8.159   3.572  12.453
 3555PP      PP13659  11.441   7.934   8.810
 3556PP      PP13660   9.795  10.324  10.687
 3557PP      PP13661   4.775   2.629  11.058
 3558PP      PP13662   0.566   4.550   9.156
 3559PP      PP13663   6.322   7.407  12.768
 3560PP      PP13664   9.729  14.331   3.921
 3561PP      PP13665  12.969   2.651   9.565
 3562PP      PP13666   7.809   4.718   0.335
 3563PP      PP13667  14.879   2.252   0.922
 3564PP      PP13668   5.795   3.029  10.218
 3565PP      PP13669   7.161   1.710   9.504
 3566PP      PP13670   0.096   7.836   8.139
 3567PP      PP13671   7.523   5.508   3.024
 3568PP      PP13672  13.948  13.998  11.798
 3569PP      PP13673   8.900  13.042   9.709
 3570PP      PP13674   8.381  14.569  10.713
 3571PP      PP13675   4.945   1.272  12.309
 3572PP      PP13676  14.568  14.548  12.515
 3573PP      PP13677  10.280  12.998  12.924
 3574PP      PP13678   8.900   3.860  12.430
 3575PP      PP13679   5.122  13.190   1.445
 3576PP      PP13680  13.058  14.854   4.361
 3577PP      PP13681  15.713   9.116  12.064
 3578PP      PP13682  13.550   8.436   9.230
 3579PP      PP13683  12.854   0.735   0.053
 3580PP      PP13684   0.503  14.488   4.236
 3581PP      PP13685   9.193   5.334   8.126
 3582PP      PP13686  13.848  14.062   4.707
 3583PP      PP13687   4.507  12.597  13.569
 3584PP      PP13688   2.895  15.553   3.091
 3585PP      PP13689   1.322  10.930  11.941
 3586PP      PP13690   2.231  14.438  11.301
 3587PP      PP13691   7.032  14.602  12.356
 3588PP      PP13692  10.899   1.289   8.205
 3589PP      PP13693   4.776   0.489   0.360
 3590PP      PP13694   2.381   8.378   9.576
 3591PP      PP13695   5.204  10.277   2.880
 3592PP      PP13696   5.649   8.182   9.188
 3593PP      PP13697   7.442   4.134   2.276
 3594PP      PP13698   0.916   8.027  12.977
 3595PP      PP13699   4.109  11.690  12.108
 3596PP      PP13700  14.114   5.051   3.902
 3597PP      PP13701   5.477  14.057   3.793
 3598PP      PP13702   6.901   7.385   9.125
 3599PP      PP13703   5.768  10.122   2.203
 3600PP      PP13704   6.332  11.058   9.664
 3601PP      PP13705  13.888  14.680   3.107
 3602PP      PP13706  14.281  15.015   0.347
 3603PP      PP13707  13.954   6.921   8.727
 3604PP      PP13708   2.284  14.361   0.757
 3605PP      PP13709   6.874  14.083   1.068
 3606PP      PP13710  10.684   5.714   1.278
 3607PP      PP13711  15.738   0.745   4.396
 3608PP      PP13712  14.888   3.027  11.437
 3609PP      PP13713  12.377   4.216   3.430
 3610PP      PP13714   9.023   1.948   9.518
 3611PP      PP13715   2.199   0.093  10.565
 3612PP      PP13716   0.817   9.970  11.419
 3613PP      PP13717   0.171  15.470  11.007
 3614PP      PP13718  11.910   7.424   0.532
 3615PP      PP13719  14.003   5.292   1.728
 3616PP      PP13720   4.590   3.599  11.338
 3617PP      PP13721   8.459   6.267   9.027
 3618PP      PP13722   3.947   8.137   2.399
 3619PP      PP13723   7.769   7.347   0.648
 3620PP      PP13724  11.963  11.427   0.918
 3621PP      PP13725   1.488   0.228  11.666
 3622PP      PP13726   5.097   3.304   4.094
 3623PP      PP13727  10.229  15.599   0.442
 3624PP      PP13728   6.470   8.679   2.286
 3625PP      PP13729  13.137   3.569  12.997
 3626PP      PP13730  14.248   0.403  12.216
 3627PP      PP13731  13.542   2.749   0.234
 3628PP      PP13732   3.499   9.914   1.972
 3629PP      PP13733   4.221  10.691  13.595
 3630PP      PP13734  10.245   8.104  10.091
 3631PP      PP13735   0.325  11.461   9.316
 3632PP      PP13736   6.150  13.966   1.067
 3633PP      PP13737  12.210  13.243   1.345
 3634PP      PP13738   7.324  15.780  10.031
 3635PP      PP13739  12.451   3.152   1.335
 3636PP      PP13740   5.797   2.892   3.536
 3637PP      PP13741   7.125  11.409   4.874
 3638PP      PP13742   2.328  10.895   1.031
 3639PP      PP13743   1.719   3.092  10.242
 3640PP      PP13744   1.909   4.068  11.613
 3641PP      PP13745   0.829  15.102   4.465
 3642PP      PP13746  14.811   7.879  10.210
 3643PP      PP13747   4.956  12.091  12.444
 3644PP      PP13748   1.005  15.202  11.124
 3645PP      PP13749   1.136  10.855   2.912
 3646PP      PP13750   0.751   7.633   4.556
 3647PP      PP13751   2.235   5.756  12.920
 3648PP      PP13752  12.909   0.183  10.727
 3649PP      PP13753  15.159   0.880  10.876
 3650PP      PP13754  11.838  13.206   0.901
 3651PP      PP13755   0.453   3.077  10.991
 3652PP      PP13756   6.290   4.679   3.735
 3653PP      PP13757  13.461  13.329   0.541
 3654PP      PP13758   5.519   8.408   1.369
 3655PP      PP13759   8.036  12.022   3.066
 3656PP      PP13760   9.990  11.279   2.223
 3657PP      PP13761   2.813   0.809   4.406
 3658PP      PP13762  10.943   4.133   0.157
 3659PP      PP13763   6.836   8.156  11.294
 3660PP      PP13764  11.283   2.087  13.366
 3661PP      PP13765  10.810  15.058   1.981
 3662PP      PP13766  11.442   3.057   3.500
 3663PP      PP13767  11.824   6.179   8.971
 3664PP      PP13768   7.924   2.656   1.656
 3665PP      PP13769  15.686  10.180  11.784
 3666PP      PP13770   0.176  11.353   9.826
 3667PP      PP13771   2.750  11.890  11.581
 3668PP      PP13772   9.140   5.323  13.313
 3669PP      PP13773   4.490   6.527   9.706
 3670PP      PP13774   0.296  13.457  10.225
 3671PP      PP13775   7.347   0.079  13.424
 3672PP      PP13776   1.479   5.452   2.101
 3673PP      PP13777   8.757  15.505   2.876
 3674PP      PP13778   7.668  11.178   4.255
 3675PP      PP13779  10.662  14.572  11.109
 3676PP      PP13780   9.628   5.227   2.094
 3677PP      PP13781  14.827   5.434  10.380
 3678PP      PP13782   1.066   6.152  11.884
 3679PP      PP13783   4.898  13.846   2.931
 3680PP      PP13784   6.406   4.046   0.415
 3681PP      PP13785   7.287   9.509   0.606
 3682PP      PP13786   2.137  14.437  10.800
 3683PP      PP13787   1.433  11.448   8.832
 3684PP      PP13788  14.083   2.774  10.365
 3685PP      PP13789  14.265  10.259   3.931
 3686PP      PP13790   3.480  10.297   8.045
 3687PP      PP13791  12.114   5.614   9.172
 3688PP      PP13792   8.556   1.617  13.035
 3689PP      PP13793   7.857  12.845   5.459
 3690PP      PP13794   1.024   5.228   1.936
 3691PP      PP13795  13.272   6.897  11.364
 3692PP      PP13796  11.785   1.098  12.917
 3693PP      PP13797   5.618  14.105   9.852
 3694PP      PP13798   0.514  12.319  13.245
 3695PP      PP13799   7.261  12.672   4.193
 3696PP      PP13800  13.584   5.599   0.975
 3697PP      PP13801  13.296  12.730   2.985
 3698PP      PP13802  11.965   7.314  12.665
 3699PP      PP13803  14.647  12.782   2.932
 3700PP      PP13804   6.137  10.903  13.438
 3701PP      PP13805   5.118   0.179   4.013
 3702PP      PP13806   1.384   2.254  10.713
 3703PP      PP13807  11.425  12.945  12.663
 3704PP      PP13808   2.913   2.764  11.680
 3705PP      PP13809   2.111   6.885   8.953
 3706PP      PP13810   0.270   2.967   2.591
 3707PP      PP13811  15.504   6.817   2.668
 3708PP      PP13812  11.950   6.897   3.091
 3709PP      PP13813   6.998  11.056  12.546
 3710PP      PP13814  13.472   4.747   9.601
 3711PP      PP13815   1.014   8.606  12.912
 3712PP      PP13816   3.190  15.193  13.296
 3713PP      PP13817  15.241   0.921  10.351
 3714PP      PP13818   7.238  11.388   3.105
 3715PP      PP13819  10.230  14.811  10.678
 3716PP      PP13820  12.326  10.929   2.196
 3717PP      PP13821  14.077  14.620   4.561
 3718PP      PP13822   6.700   6.620   7.972
 3719PP      PP13823  11.104  14.667   4.663
 3720PP      PP13824   6.185   9.726   2.758
 3721PP      PP13825  10.726   8.906   3.244
 3722PP      PP13826   4.542   9.110  13.137
 3723PP      PP13827   2.348   8.535   0.394
 3724PP      PP13828   1.693   6.010   8.931
 3725PP      PP13829  13.520   6.423   0.228
 3726PP      PP13830   2.134  14.906  10.539
 3727PP      PP13831   9.867   9.362   1.233
 3728PP      PP13832   2.558   3.938  11.117
 3729PP      PP13833  14.683   9.522   8.358
 3730PP      PP13834  14.762   8.984   2.755
 3731PP      PP13835  10.541   0.129   2.341
 3732PP      PP13836  12.602   8.323  13.234
 3733PP      PP13837  11.029   3.837   1.225
 3734PP      PP13838   3.789  10.393   2.758
 3735PP      PP13839   2.915   6.286   3.517
 3736PP      PP13840   1.723   0.778   2.123
 3737PP      PP13841  10.690  11.622   0.435
 3738PP      PP13842   7.348   7.614  11.928
 3739PP      PP13843   6.437  15.273   0.556
 3740PP      PP13844   5.296   8.490   0.022
 3741PP      PP13845  11.289  10.207  11.503
 3742PP      PP13846  11.766   0.168  10.653
 3743PP      PP13847   9.742  12.622   0.708
 3744PP      PP13848  15.152   6.776   3.546
 3745PP      PP13849  15.025   8.653   0.445
 3746PP      PP13850   0.664   5.661   2.811
 3747PP      PP13851   5.057   9.296  12.386
 3748PP      PP13852   6.962   8.466   2.368
 3749PP      PP13853   1.480  14.957  13.448
 3750PP      PP13854   6.573   0.772  12.107
 3751PP      PP13855   2.021   1.368   9.772
 3752PP      PP13856  13.218   0.775   3.790
 3753PP      PP13857   0.800   8.578   2.806
 3754PP      PP13858   6.170   1.942  12.484
 3755PP      PP13859  13.745   2.088   4.134
 3756PP      PP13860   2.969  12.014   2.247
 3757PP      PP13861   5.133   7.021   1.096
 3758PP      PP13862   5.304   2.095  10.549
 3759PP      PP13863   7.112   3.152  13.458
 3760PP      PP13864   8.106  11.693   3.487
 3761PP      PP13865  10.703   2.076  11.766
 3762PP      PP13866  11.937  14.262   1.341
 3763PP      PP13867  15.452  12.163  11.984
 3764PP      PP13868   6.982  14.489   4.746
 3765PP      PP13869   5.234  14.964  10.922
 3766PP      PP13870  10.779   8.464   2.524
 3767PP      PP13871   5.195   5.281   2.185
 3768PP      PP13872   3.138   6.611   0.905
 3769PP      PP13873  15.221   5.755   8.268
 3770PP      PP13874  12.164  13.516   3.070
 3771PP      PP13875  10.387   2.210   1.373
 3772PP      PP13876  15.176   8.732   8.758
 3773PP      PP13877   3.154   6.735   0.075
 3774PP      PP13878   7.629  15.040   2.464
 3775PP      PP13879  14.313   7.236  10.803
 3776PP      PP13880   3.123   8.469  13.411
 3777PP      PP13881  13.437  13.624   0.118
 3778PP      PP13882   4.621   0.378  13.465
 3779PP      PP13883   0.570   0.766  10.002
 3780PP      PP13884  12.482   1.157   9.806
 3781PP      PP13885  11.740  13.224   3.167
 3782PP      PP13886   6.694   7.986   1.668
 3783PP      PP13887   4.921   3.922   4.180
 3784PP      PP13888  13.211   8.622  10.722
 3785PP      PP13889   0.413  13.597   2.104
 3786PP      PP13890  12.255  10.625   3.395
 3787PP      PP13891   2.897   4.591   9.367
 3788PP      PP13892   0.874   7.255  11.662
 3789PP      PP13893   7.411   6.066  10.978
 3790PP      PP13894   5.847   5.506   3.459
 3791PP      PP13895   8.954   3.616   4.542
 3792PP      PP13896   3.300   6.699   1.399
 3793PP      PP13897   9.296   5.122   1.724
 3794PP      PP13898   4.892   7.487   1.239
 3795PP      PP13899   9.416   7.411  10.256
 3796PP      PP13900   9.989   7.167   3.510
 3797PP      PP13901   2.264  15.074   0.188
 3798PP      PP13902   2.233   3.137  13.128
 3799PP      PP13903  15.795  12.207  12.494
 3800PP      PP13904  10.348   4.634   3.078
 3801PP      PP13905   1.275   0.941  13.216
 3802PP      PP13906  11.367  13.980   0.642
 3803PP      PP13907   4.216   5.362   2.240
 3804PP      PP13908  14.371  11.685  13.232
 3805PP      PP13909  12.892   9.301   0.189
 3806PP      PP13910  12.636   6.388  11.573
 3807PP      PP13911   2.605   8.455  13.170
 3808PP      PP13912  15.616   7.393  11.673
 3809PP      PP13913  15.758   1.553  12.526
 3810PP      PP13914  10.805   4.101  11.583
 3811PP      PP13915  15.671   4.744   0.610
 3812PP      PP13916  14.144   6.748   3.955
 3813PP      PP13917   6.730   0.698   1.991
 3814PP      PP13918   5.463  10.895   1.072
 3815PP      PP13919   5.436  11.339   0.816
 3816PP      PP13920  11.497  11.740   1.007
 3817PP      PP13921  14.058  15.502   8.633
 3818PP      PP13922   5.011  10.216   1.058
 3819PP      PP13923   9.229   1.789  11.497
 3820PP      PP13924   6.419   9.308   1.184
 3821PP      PP13925   0.731  12.739  12.381
 3822PP      PP13926   8.509  15.390   1.665
 3823PP      PP13927   3.702   9.589   9.941
 3824PP      PP13928  15.827  15.410   2.358
 3825PP      PP13929   2.858  10.893   0.997
 3826PP      PP13930   5.348  15.437   9.528
 3827PP      PP13931   1.502   0.418  12.915
 3828PP      PP13932  15.438   2.694  10.712
 3829PP      PP13933   5.771  13.117   3.943
 3830PP      PP13934  11.267  15.221   9.470
 3831PP      PP13935  15.087  14.566   4.047
 3832PP      PP13936   5.659  12.813   0.012
 3833PP      PP13937   4.135  12.620   9.064
 3834PP      PP13938   7.868   1.786   0.659
 3835PP      PP13939   6.197   9.992  10.538
 3836PP      PP13940   7.626  12.104   3.455
 3837PP      PP13941   7.753   3.957  11.255
 3838PP      PP13942   9.258   3.776  10.402
 3839PP      PP13943  11.698   9.349   9.957
 3840PP      PP13944  12.952   0.631  11.539
 3841PP      PP13945  11.352   1.943  10.827
 3842PP      PP13946  11.037  14.816   2.949
 3843PP      PP13947   1.857   9.846  13.281
 3844PP      PP13948   5.678   4.994  13.223
 3845PP      PP13949  12.029  14.684  12.682
 3846PP      PP13950  13.987  13.693  11.393
 3847PP      PP13951   8.549   5.453   3.428
 3848PP      PP13952  11.703  15.142   0.876
 3849PP      PP13953  12.073   4.138  10.632
 3850PP      PP13954   9.195   1.701   9.961
 3851PP      PP13955   9.165  12.045   8.858
 3852PP      PP13956   1.922   2.902  11.262
 3853PP      PP13957  15.696   7.798  13.423
 3854PP      PP13958   2.470   7.136   8.523
 3855PP      PP13959   2.749  13.104  12.086
 3856PP      PP13960  15.444   9.640   0.949
 3857PP      PP13961   1.349   8.264  13.102
 3858PP      PP13962  12.838   4.135   1.196
 3859PP      PP13963  10.997   1.672  11.901
 3860PP      PP13964   5.060   9.184   9.623
 3861PP      PP13965   1.180  14.838   0.287
 3862PP      PP13966  11.494   9.366  11.704
 3863PP      PP13967   6.222   6.526   7.724
 3864PP      PP13968   4.000   1.692   3.018
 3865PP      PP13969   5.048  12.692   1.316
 3866PP      PP13970  10.695   0.584   2.120
 3867PP      PP13971   0.307  13.738   3.793
 3868PP      PP13972   3.039   0.256  13.541
 3869PP      PP13973   4.433   8.923   2.552
 3870PP      PP13974   4.588  11.600  11.204
 3871PP      PP13975   7.064  13.948  13.372
 3872PP      PP13976  15.116   3.953  11.954
 3873PP      PP13977  13.654  12.293   9.950
 3874PP      PP13978   7.557   3.285   0.827
 3875PP      PP13979  13.097   3.312  13.446
 3876PP      PP13980  13.200   3.390  11.622
 3877PP      PP13981  11.694   7.715  11.283
 3878PP      PP13982  15.336   0.456   2.193
 3879PP      PP13983  11.487   4.713  11.721
 3880PP      PP13984  15.287  12.875  10.587
 3881PP      PP13985   3.853  12.980   9.681
 3882PP      PP13986   9.094   0.200   9.961
 3883PP      PP13987  15.147   2.336   8.849
 3884PP      PP13988   8.397  13.667   3.447
 3885PP      PP13989   2.656  13.041   4.326
 3886PP      PP13990  12.174   2.527  11.231
 3887PP      PP13991   8.538  12.240   2.389
 3888PP      PP13992  15.024  11.068   9.836
 3889PP      PP13993  11.678  15.739  12.351
 3890PP      PP13994   1.512   6.740   2.601
 3891PP      PP13995   5.389   7.355   3.574
 3892PP      PP13996  13.495  14.567   9.235
 3893PP      PP13997   5.103   0.109  11.093
 3894PP      PP13998   8.335   3.027   9.608
 3895PP      PP13999   3.048  15.749   4.298
 3896PP      PP14000  12.497   4.857   8.589
 3897PP      PP14001   2.081  14.704  13.463
 3898PP      PP14002   3.074  14.092   1.539
 3899PP      PP14003   4.364   0.305  10.635
 3900PP      PP14004  10.486   3.771  10.360
 3901PP      PP14005   8.053   3.508   9.725
 3902PP      PP14006   1.044   2.580   2.087
 3903PP      PP14007   7.995  13.557  12.362
 3904PP      PP14008  12.110   9.366   9.221
 3905PP      PP14009   0.405  13.523   0.226
 3906PP      PP14010  12.877   7.142  12.572
 3907PP      PP14011   2.753  10.557   4.141
 3908PP      PP14012  12.692  12.618   2.078
 3909PP      PP14013   4.798  13.402  11.848
 3910PP      PP14014   3.104   9.587   2.824
 3911PP      PP14015   1.147  11.645   0.211
 3912PP      PP14016  15.570  11.726  11.702
 3913PP      PP14017   3.546  10.312   2.283
 3914PP      PP14018   5.170   1.762  13.342
 3915PP      PP14019  14.479   4.347   1.431
 3916PP      PP14020   9.906  12.093   0.808
 3917PP      PP14021  12.761   8.555  10.489
 3918PP      PP14022  12.391   1.427  13.284
 3919PP      PP14023   0.414   1.250  11.016
 3920PP      PP14024  15.186   9.373   4.464
 3921PP      PP14025  14.357   1.453   9.423
 3922PP      PP14026   3.934  15.744   9.041
 3923PP      PP14027  14.583   6.464   1.055
 3924PP      PP14028   2.156   8.755  12.494
 3925PP      PP14029   7.256  11.009   4.540
 3926PP      PP14030  12.445  12.526   1.606
 3927PP      PP14031   3.450   2.693   2.250
 3928PP      PP14032  14.876   8.141   3.013
 3929PP      PP14033   4.441  15.674  12.756
 3930PP      PP14034   4.226   5.422   9.185
 3931PP      PP14035  10.432   9.556  12.073
 3932PP      PP14036   3.242   0.325  12.724
 3933PP      PP14037   8.903   9.131   0.072
 3934PP      PP14038  11.311  15.815   3.533
 3935PP      PP14039   1.033   9.724   2.886
 3936PP      PP14040  11.906   5.229  11.945
 3937PP      PP14041   6.521   4.472   2.271
 3938PP      PP14042   0.901  15.228   9.500
 3939PP      PP14043   0.666  11.404  12.544
 3940PP      PP14044  11.220  11.601   8.964
 3941PP      PP14045   6.277   3.124   9.997
 3942PP      PP14046   2.155  11.485   2.855
 3943PP      PP14047   3.549  11.434   2.872
 3944PP      PP14048  11.459   6.857   9.875
 3945PP      PP14049   5.697   2.663   2.204
 3946PP      PP14050   2.924   6.629   1.754
 3947PP      PP14051   3.799   1.067   1.272
 3948PP      PP14052  13.356   5.498  13.057
 3949PP      PP14053   2.970   1.016   5.413
 3950PP      PP14054   5.878   3.286   0.081
 3951PP      PP14055  11.547   8.582   2.788
 3952PP      PP14056  10.597   5.211   9.847
 3953PP      PP14057   4.448  15.728   4.003
 3954PP      PP14058  11.193  11.308   2.191
 3955PP      PP14059   9.992  13.919  11.470
 3956PP      PP14060  13.102   0.524   0.593
 3957PP      PP14061   0.164  11.366  12.014
 3958PP      PP14062   1.127  13.415  10.909
 3959PP      PP14063  10.048   1.996   2.353
 3960PP      PP14064   6.852   8.560  11.661
 3961PP      PP14065   2.124  11.758   2.035
 3962PP      PP14066   2.557  14.023   1.521
 3963PP      PP14067  11.667   6.275   0.063
 3964PP      PP14068   1.844   6.601  11.101
 3965PP      PP14069  12.938   4.499  10.632
 3966PP      PP14070   5.572   0.812   2.669
 3967PP      PP14071  15.819   8.921   0.257
 3968PP      PP14072   1.205  10.857  11.011
 3969PP      PP14073   4.421   7.521  10.093
 3970PP      PP14074   4.146  11.285   0.561
 3971PP      PP14075   2.587  14.225  12.141
 3972PP      PP14076  12.518  15.203   9.838
 3973PP      PP14077  14.995  10.946  10.342
 3974PP      PP14078   4.278   8.583  12.312
 3975PP      PP14079   7.240   0.474   1.920
 3976PP      PP14080   9.221   9.421   3.888
 3977PP      PP14081  13.321  15.674   3.724
 3978PP      PP14082   6.503  14.364   1.917
 3979PP      PP14083  12.327  12.440  10.478
 3980PP      PP14084  15.638   6.338   3.924
 3981PP      PP14085   6.091  12.890   2.608
 3982PP      PP14086   5.938   4.902   0.600
 3983PP      PP14087  11.242   0.324  11.495
 3984PP      PP14088   0.639   0.207  12.565
 3985PP      PP14089  13.457   9.946   3.897
 3986PP      PP14090   4.923   3.214   3.610
 3987PP      PP14091   2.472  12.666   0.178
 3988PP      PP14092   8.675  12.017   1.936
 3989PP      PP14093   0.197   8.462   3.878
 3990PP      PP14094  10.924   5.098   1.921
 3991PP      PP14095  15.183   2.832   9.511
 3992PP      PP14096  13.451  10.681   0.972
 3993PP      PP14097   0.917  11.845  12.559
 3994PP      PP14098  10.141  13.914   3.919
 3995PP      PP14099   5.744  12.468  10.031
 3996PP      PP14100  13.200  14.982   1.283
 3997PP      PP14101   0.183  12.297   0.843
 3998PP      PP14102   7.888   9.217  13.541
 3999PP      PP14103   5.507   5.222   0.640
 4000PP      PP14104   8.372  10.616  11.964
 4001PP      PP14105  12.114  11.816   4.831
 4002PP      PP14106   8.393  14.824   4.697
 4003PP      PP14107  10.183   5.600   9.063
 4004PP      PP14108   4.697   1.097  10.242
 4005PP      PP14109  10.326   4.201   8.597
 4006PP      PP14110   6.264   3.909   1.046
 4007PP      PP14111   8.687   8.732  12.789
 4008PP      PP14112   2.648  12.065  11.085
 4009PP      PP14113   7.023   3.251  11.278
 4010PP      PP14114   6.611   4.144  12.955
 4011PP      PP14115   1.993   9.360  13.056
 4012PP      PP14116  12.591   6.414  12.550
 4013PP      PP14117   1.941   5.576   4.046
 4014PP      PP14118   7.513  15.646   3.717
 4015PP      PP14119   4.051   1.481   1.121
 4016PP      PP14120   2.569   8.838  12.142
 4017PP      PP14121   5.607   4.504   0.833
 4018PP      PP14122   2.697   6.497  13.596
 4019PP      PP14123  15.432  11.148   2.631
 4020PP      PP14124   3.120  13.545  12.712
 4021PP      PP14125  12.270  12.108   2.626
 4022PP      PP14126   7.501   2.892   1.471
 4023PP      PP14127   9.784  12.351  10.015
 4024PP      PP14128   2.933   4.219  11.318
 4025PP      PP14129  11.339   2.779  13.440
 4026PP      PP14130  15.601  11.452   3.379
 4027PP      PP14131   3.655  11.016   2.031
 4028PP      PP14132  10.244   1.655   4.801
 4029PP      PP14133   9.726   0.438   2.049
 4030PP      PP14134   6.391   6.906   8.548
 4031PP      PP14135   0.331  14.445  12.089
 4032PP      PP14136   6.709   1.914   1.672
 4033PP      PP14137   2.844   7.335   2.365
 4034PP      PP14138   1.804  15.171   3.236
 4035PP      PP14139   1.854   7.569   8.666
 4036PP      PP14140  13.699   5.744   3.064
 4037PP      PP14141   2.250   3.389   2.996
 4038PP      PP14142   1.617   3.681  10.912
 4039PP      PP14143  14.571  12.319  10.588
 4040PP      PP14144  13.513  15.113  12.972
 4041PP      PP14145   9.937  10.075   3.593
 4042PP      PP14146   6.311   9.175  13.357
 4043PP      PP14147  13.103   6.210   0.971
 4044PP      PP14148   8.217   7.399   9.982
 4045PP      PP14149   3.066  11.197   4.098
 4046PP      PP14150   1.410   5.503   3.353
 4047PP      PP14151   0.132   7.698   0.952
 4048PP      PP14152   2.655   4.921   1.210
 4049PP      PP14153   5.834   7.691   3.577
 4050PP      PP14154  15.380   7.213   1.447
 4051PP      PP14155  13.199   7.948  11.383
 4052PP      PP14156   6.132   5.200  10.797
 4053PP      PP14157  11.740   4.945  11.327
 4054PP      PP14158  13.290  12.342   0.180
 4055PP      PP14159   5.528  12.372   1.093
 4056PP      PP14160   9.155   2.760  10.140
 4057PP      PP14161   9.658  13.231   5.020
 4058PP      PP14162   3.812   5.846   0.694
 4059PP      PP14163   5.921  12.664   0.848
 4060PP      PP14164   5.249   7.295   4.103
 4061PP      PP14165   8.237   1.445   0.545
 4062PP      PP14166   0.364  11.893  10.337
 4063PP      PP14167   1.058   7.322  10.408
 4064PP      PP14168  13.618  11.547  10.192
 4065PP      PP14169   5.833   0.436   2.377
 4066PP      PP14170   9.208  15.124   4.485
 4067PP      PP14171  11.071   2.797   2.767
 4068PP      PP14172  15.269   2.465   3.303
 4069PP      PP14173  14.747  10.629  12.759
 4070PP      PP14174  15.249   8.055   9.966
 4071PP      PP14175  11.586  12.252   1.134
 4072PP      PP14176   6.796   0.656  11.606
 4073PP      PP14177   8.204   8.170  11.742
 4074PP      PP14178  13.938   8.644   3.524
 4075PP      PP14179   1.810  15.433  12.415
 4076PP      PP14180   0.937   3.902  10.296
 4077PP      PP14181   9.507   1.926  10.533
 4078PP      PP14182   9.174   1.335   0.027
 4079PP      PP14183  14.235  13.824   0.376
 4080PP      PP14184  10.731   8.735   2.088
 4081PP      PP14185   2.235  11.986  13.434
 4082PP      PP14186   9.798   6.298   1.261
 4083PP      PP14187  10.194  15.348   2.975
 4084PP      PP14188   3.914  10.074   9.840
 4085PP      PP14189   4.330   3.426  12.426
 4086PP      PP14190   7.220   9.480   9.781
 4087PP      PP14191   7.568   1.573  12.231
 4088PP      PP14192  11.216   5.084  11.258
 4089PP      PP14193  13.661   1.534   4.138
 4090PP      PP14194   5.641   3.467   4.291
 4091PP      PP14195   4.557   6.261   2.766
 4092PP      PP14196   8.140  12.184   4.841
 4093PP      PP14197  10.434  12.115   2.287
 4094PP      PP14198   8.685   6.780  12.549
 4095PP      PP14199   9.941  13.012   4.116
 4096PP      PP14200   7.675  11.586   9.840
 4097PP      PP14201   8.776  12.149   9.741
 4098PP      PP14202  13.318   6.450  12.970
 4099PP      PP14203   4.268  10.254   8.346
 4100PP      PP14204   7.080  13.094   2.360
 4101PP      PP14205   5.689  11.640   9.543
 4102PP      PP14206   9.936   1.826  11.959
 4103PP      PP14207   9.696   4.408   8.931
 4104PP      PP14208  12.863   1.955  11.559
 4105PP      PP14209  15.781   1.589   3.325
 4106PP      PP14210   3.256  11.552   0.152
 4107PP      PP14211  14.808   8.610   8.363
 4108PP      PP14212   3.836   9.380   0.279
 4109PP      PP14213   2.834  14.260   3.733
 4110PP      PP14214  10.925  10.732  12.794
 4111PP      PP14215   8.558  14.308   2.631
 4112PP      PP14216  12.531   8.842   4.050
 4113PP      PP14217   6.197  11.242  11.442
 4114PP      PP14218  11.834   1.324   0.914
 4115PP      PP14219   7.710   7.335   0.116
 4116PP      PP14220  15.814   1.852  11.700
 4117PP      PP14221   9.799   6.076  12.400
 4118PP      PP14222  10.774   7.119   9.700
 4119PP      PP14223  12.949   3.359   3.908
 4120PP      PP14224  13.633  12.215   2.441
 4121PP      PP14225   7.893   4.445   3.516
 4122PP      PP14226   2.628   0.592  13.430
 4123PP      PP14227   5.987   5.870   0.127
 4124PP      PP14228  12.654   0.796   8.649
 4125PP      PP14229  10.651  10.675   2.083
 4126PP      PP14230   0.501   6.986   8.206
 4127PP      PP14231   5.849   5.785  13.117
 4128PP      PP14232   4.411   5.002   8.914
 4129PP      PP14233   4.557   4.440  10.873
 4130PP      PP14234   8.031  11.301   1.564
 4131PP      PP14235  12.172  15.123  12.465
 4132PP      PP14236   9.459   9.152   2.460
 4133PP      PP14237   7.536   8.186   0.696
 4134PP      PP14238  11.355  11.339   2.696
 4135PP      PP14239   9.877   6.299   3.335
 4136PP      PP14240   9.013   7.410  10.716
 4137PP      PP14241   6.210   0.157   9.555
 4138PP      PP14242  14.688  13.599   3.176
 4139PP      PP14243  14.182  14.813   2.708
 4140PP      PP14244   0.650   9.795   2.526
 4141PP      PP14245   0.957  12.532   4.510
 4142PP      PP14246  12.544   1.062  12.202
 4143PP      PP14247  15.125  10.781   4.876
 4144PP      PP14248   7.889   3.653   0.993
 4145PP      PP14249  10.617   5.194  10.371
 4146PP      PP14250   1.242   4.858   9.417
 4147PP      PP14251  12.595  12.222   3.320
 4148PP      PP14252  13.247   3.636   1.451
 4149PP      PP14253  14.577   3.774   1.046
 4150PP      PP14254  15.741   4.058  13.554
 4151PP      PP14255   7.013  12.924   4.550
 4152PP      PP14256  10.633   6.828   3.593
 4153PP      PP14257   4.490  13.552   1.733
 4154PP      PP14258   4.187   4.998   2.603
 4155PP      PP14259   4.231   1.814  11.746
 4156PP      PP14260   6.076   4.892   2.788
 4157PP      PP14261   1.924  15.746   9.056
 4158PP      PP14262  11.429  13.165   9.109
 4159PP      PP14263  10.308  14.643   0.695
 4160PP      PP14264   5.578  14.311   1.957
 4161PP      PP14265   7.250  10.092  11.608
 4162PP      PP14266   4.056   8.348  13.545
 4163PP      PP14267  13.990   5.333   2.934
 4164PP      PP14268   7.101   7.065   1.615
 4165PP      PP14269  10.736  10.226  12.999
 4166PP      PP14270   9.676  11.267   3.507
 4167PP      PP14271  10.604  15.605  10.156
 4168PP      PP14272   9.732  13.044   2.266
 4169PP      PP14273  12.617   0.370   0.565
 4170PP      PP14274   8.452   6.672   0.987
 4171PP      PP14275   8.981   8.001   9.981
 4172PP      PP14276  10.177   0.488   0.867
 4173PP      PP14277   7.054   3.608   1.536
 4174PP      PP14278   0.681   2.581   2.462
 4175PP      PP14279   6.241   8.298  10.610
 4176PP      PP14280   7.332   3.928  11.558
 4177PP      PP14281  13.816   3.075   1.095
 4178PP      PP14282   4.786   7.887  10.158
 4179PP      PP14283   0.526   2.438   4.161
 4180PP      PP14284   8.357  11.633  11.646
 4181PP      PP14285   8.503  13.265   9.976
 4182PP      PP14286   0.178   1.151   3.523
 4183PP      PP14287   4.190  10.708   1.347
 4184PP      PP14288  11.594  12.479  12.846
 4185PP      PP14289   8.381   9.942   0.302
 4186PP      PP14290  12.321  15.190   2.164
 4187PP      PP14291   6.842  11.260   4.241
 4188PP      PP14292  14.869   1.210   0.305
 4189PP      PP14293  11.463  15.485   4.634
 4190PP      PP14294   6.258   5.537   3.899
 4191PP      PP14295   1.494  11.835   0.592
 4192PP      PP14296   7.500  15.351  10.666
 4193PP      PP14297   2.416   2.966  10.857
 4194PP      PP14298   5.319   8.536  10.874
 4195PP      PP14299   2.136   7.914   8.926
 4196PP      PP14300  13.244   9.032  11.214
 4197PP      PP14301   3.570   7.430  13.380
 4198PP      PP14302  13.691  10.991  10.112
 4199PP      PP14303   1.910   7.382   1.433
 4200PP      PP14304  11.213  15.605   4.029
 4201PP      PP14305   8.513  13.422   3.011
 4202PP      PP14306   6.042   0.844   8.641
 4203PP      PP14307  10.747   5.344   0.088
 4204PP      PP14308  13.914  11.595   9.358
 4205PP      PP14309   3.373  14.962   3.863
 4206PP      PP14310   8.748   7.777  11.513
 4207PP      PP14311   2.936   0.312   1.589
 4208PP      PP14312   7.906   0.069  12.182
 4209PP      PP14313   7.113   3.269   1.140
 4210PP      PP14314   2.245  15.063   9.253
 4211PP      PP14315   6.815  15.173   2.611
 4212PP      PP14316   6.271   8.282   3.031
 4213PP      PP14317   0.383   0.512   1.750
 4214PP      PP14318   9.321  15.187   0.785
 4215PP      PP14319   1.387   9.003   1.502
 4216PP      PP14320   5.412   4.727   9.868
 4217PP      PP14321   1.629   3.182  11.693
 4218PP      PP14322  15.504   5.303   2.758
 4219PP      PP14323   0.923   9.284   3.347
 4220PP      PP14324   6.764   4.838   0.153
 4221PP      PP14325  10.344   5.878  11.251
 4222PP      PP14326  14.289   3.868   8.791
 4223PP      PP14327  14.826  14.598  12.075
 4224PP      PP14328   9.741   2.073   4.144
 4225PP      PP14329   0.112   2.734   0.237
 4226PP      PP14330   4.466   6.787   2.833
 4227PP      PP14331   4.568   1.839   9.847
 4228PP      PP14332  13.619   7.813   3.799
 4229PP      PP14333  10.219   2.125   1.843
 4230PP      PP14334   4.524   7.430   9.537
 4231PP      PP14335   9.367   7.310   8.569
 4232PP      PP14336   3.501  12.837   0.296
 4233PP      PP14337   3.275   8.726   2.366
 4234PP      PP14338   3.044  15.665  11.084
 4235PP      PP14339  13.370   3.957  10.059
 4236PP      PP14340   5.249  10.717  12.375
 4237PP      PP14341   0.328   2.550  12.852
 4238PP      PP14342  13.949   4.346   1.579
 4239PP      PP14343  11.336   2.905  10.852
 4240PP      PP14344   2.260   1.476  13.211
 4241PP      PP14345  14.441  14.107   0.005
 4242PP      PP14346  11.043   1.297  13.578
 4243PP      PP14347   7.207   7.264  13.289
 4244PP      PP14348   1.250   6.903   1.787
 4245PP      PP14349   6.389   5.817  10.043
 4246PP      PP14350   1.889   3.645  10.475
 4247PP      PP14351  12.316   1.592   8.906
 4248PP      PP14352   7.374   6.911  12.318
 4249PP      PP14353  14.416   8.467  13.386
 4250PP      PP14354  10.749   8.104   9.900
 4251PP      PP14355   1.895  11.913  10.086
 4252PP      PP14356   9.124   4.505   0.025
 4253PP      PP14357   6.597   2.580  13.464
 4254PP      PP14358   7.079  15.630  10.446
 4255PP      PP14359   0.951  13.558  13.356
 4256PP      PP14360  14.206   4.066   3.389
 4257PP      PP14361   8.253   9.333  13.082
 4258PP      PP14362   1.278  12.213  11.602
 4259PP      PP14363  12.214  11.885   3.108
 4260PP      PP14364   9.357   0.101  13.493
 4261PP      PP14365  10.891   7.640  12.109
 4262PP      PP14366  14.283  11.858  12.734
 4263PP      PP14367  12.612   7.857   2.230
 4264PP      PP14368   4.204   8.275  10.733
 4265PP      PP14369   6.773  10.591  13.259
 4266PP      PP14370   8.488   0.908  10.103
 4267PP      PP14371   8.313   0.649   0.590
 4268PP      PP14372  11.866   7.871  13.454
 4269PP      PP14373   7.942   2.948  13.205
 4270PP      PP14374   5.498   2.789  12.001
 4271PP      PP14375   7.677  12.942   4.975
 4272PP      PP14376  12.461   1.229   3.522
 4273PP      PP14377   9.524  13.351   2.831
 4274PP      PP14378  14.339  15.290   0.765
 4275PP      PP14379  12.002  10.292   1.272
 4276PP      PP14380   2.873   1.190   9.493
 4277PP      PP14381  10.695   5.482  11.209
 4278PP      PP14382   8.878  10.772   9.694
 4279PP      PP14383  12.881   7.585   0.685
 4280PP      PP14384  10.386   0.069   3.227
 4281PP      PP14385   6.521  12.888   3.218
 4282PP      PP14386  14.118   1.903  10.228
 4283PP      PP14387  11.074   8.825  12.271
 4284PP      PP14388  14.371  11.796   0.949
 4285PP      PP14389  15.289   9.200  12.975
 4286PP      PP14390   0.582  11.953   0.810
 4287PP      PP14391   3.116  13.063  12.480
 4288PP      PP14392   1.143   4.027   2.011
 4289PP      PP14393   0.993   0.570  12.839
 4290PP      PP14394   8.910   8.202   1.814
 4291PP      PP14395   2.819   5.556  12.042
 4292PP      PP14396   8.337  15.276   3.817
 4293PP      PP14397  12.752   5.488  12.389
 4294PP      PP14398   4.029  13.244  12.279
 4295PP      PP14399   7.919  10.016   9.594
 4296PP      PP14400  13.193   4.616   1.133
 4297PP      PP14401   6.064   5.464   4.383
 4298PP      PP14402   4.573  15.811   2.271
 4299PP      PP14403   4.024  10.279   9.377
 4300PP      PP14404   3.189  15.119   4.994
 4301PP      PP14405   9.579   9.129  10.212
 4302PP      PP14406   6.172  11.465  10.549
 4303PP      PP14407  10.897  14.214   4.873
 4304PP      PP14408   4.348   8.512   0.353
 4305PP      PP14409  11.538   8.769  11.352
 4306PP      PP14410  10.590  15.377  13.511
 4307PP      PP14411  15.309  14.777  12.130
 4308PP      PP14412  13.948   7.577   1.364
 4309PP      PP14413   8.282   3.041  12.741
 4310PP      PP14414  14.490   8.312  12.888
 4311PP      PP14415  11.721   7.396   1.065
 4312PP      PP14416   5.031   7.141   1.616
 4313PP      PP14417   2.088  12.222  12.958
 4314PP      PP14418  13.914  10.113  12.016
 4315PP      PP14419   7.496   7.594   3.525
 4316PP      PP14420   6.094   5.009   4.095
 4317PP      PP14421   2.405   0.219   9.529
 4318PP      PP14422  11.088  14.360  11.858
 4319PP      PP14423  10.447   5.337   0.953
 4320PP      PP14424   1.085  12.603  10.631
 4321PP      PP14425   7.615   1.799   1.928
 4322PP      PP14426   2.650   4.081   9.153
 4323PP      PP14427  13.124   6.910  10.844
 4324PP      PP14428   3.005  15.472   0.784
 4325PP      PP14429   0.977   4.722  11.368
 4326PP      PP14430  12.233   7.170  13.080
 4327PP      PP14431   2.770   9.169  12.500
 4328PP      PP14432   7.562   0.672   2.286
 4329PP      PP14433   9.048  13.678  13.519
 4330PP      PP14434   0.523   8.502   9.430
 4331PP      PP14435   8.333   2.845  11.271
 4332PP      PP14436   5.633  10.080  11.810
 4333PP      PP14437  14.014  15.059  12.707
 4334PP      PP14438   5.934   6.783   2.018
 4335PP      PP14439  13.807   7.730   9.130
 4336PP      PP14440   1.191   3.424   0.434
 4337PP      PP14441  11.866   8.547  12.859
 4338PP      PP14442   5.801   3.583  12.683
 4339PP      PP14443   5.130   0.822   5.127
 4340PP      PP14444  12.043  11.526   3.456
 4341PP      PP14445  13.892   6.024   0.957
 4342PP      PP14446   1.583  11.306   9.313
 4343PP      PP14447  11.199  13.634   1.445
 4344PP      PP14448  12.178  13.338   4.512
 4345PP      PP14449  11.123  15.705  11.002
 4346PP      PP14450   5.780  15.569   1.230
 4347PP      PP14451   3.994   6.040   1.342
 4348PP      PP14452  14.211   9.925   0.730
 4349PP      PP14453  15.037   5.298   0.215
 4350PP      PP14454   6.452   2.203   4.737
 4351PP      PP14455   9.733   3.760   2.791
 4352PP      PP14456   9.753   6.079   0.722
 4353PP      PP14457   1.960   3.734  12.486
 4354PP      PP14458   5.132   8.054   1.578
 4355PP      PP14459   3.987   9.705   8.475
 4356PP      PP14460   0.954  11.648   9.656
 4357PP      PP14461   3.838   1.359   9.997
 4358PP      PP14462   5.441   1.068  12.648
 4359PP      PP14463   7.992  13.955   0.400
 4360PP      PP14464   2.588   4.951  10.603
 4361PP      PP14465   4.983  11.235   7.672
 4362PP      PP14466   2.563   0.171   0.167
 4363PP      PP14467   4.820  13.979  11.087
 4364PP      PP14468   9.124  11.584  10.843
 4365PP      PP14469  12.407  15.375  10.326
 4366PP      PP14470   8.656  10.251   3.041
 4367PP      PP14471   4.421   1.735   0.870
 4368PP      PP14472   8.729   5.725   1.974
 4369PP      PP14473   6.074   3.921   9.742
 4370PP      PP14474   2.584   2.014  12.840
 4371PP      PP14475  15.018   3.784   9.068
 4372PP      PP14476  10.852   3.724  10.772
 4373PP      PP14477   1.245   4.120   3.452
 4374PP      PP14478  14.920  12.562  12.484
 4375PP      PP14479   3.679  15.281  11.436
 4376PP      PP14480  12.790   1.713   9.097
 4377PP      PP14481   2.705   8.419   2.145
 4378PP      PP14482   4.672   9.344   2.796
 4379PP      PP14483   1.063  14.379  10.724
 4380PP      PP14484   6.205  14.836   4.077
 4381PP      PP14485   6.745   7.270  12.398
 4382PP      PP14486   7.914   3.068   9.969
 4383PP      PP14487   7.040  15.104  10.509
 4384PP      PP14488   8.315   8.019   8.605
 4385PP      PP14489  10.808  13.322  11.887
 4386PP      PP14490  10.208   5.404   9.546
 4387PP      PP14491  14.914   3.592   4.481
 4388PP      PP14492  13.326  14.609   0.363
 4389PP      PP14493  15.657   7.716   3.523
 4390PP      PP14494  13.318  13.727   0.935
 4391PP      PP14495   5.170   0.646  12.802
 4392PP      PP14496   9.215   9.922   3.693
 4393PP      PP14497   2.539   9.835   1.967
 4394PP      PP14498   5.509   1.894   2.291
 4395PP      PP14499   2.978  11.308  10.069
 4396PP      PP14500   3.522   4.075  13.403
 4397PP      PP14501   1.100   4.402   0.773
 4398PP      PP14502   8.464   2.338   0.493
 4399PP      PP14503   3.793   0.263  12.268
 4400PP      PP14504   2.470   2.033   3.769
 4401PP      PP14505   4.119   8.397   9.878
 4402PP      PP14506   8.355  10.858   2.394
 4403PP      PP14507   3.749   3.515   9.344
 4404PP      PP14508   2.792  11.703  10.402
 4405PP      PP14509   5.971  15.769   2.517
 4406PP      PP14510   4.901  12.288  11.959
 4407PP      PP14511   0.198   7.006  10.323
 4408PP      PP14512   8.306   2.591   3.053
 4409PP      PP14513  11.127  12.217   0.912
 4410PP      PP14514  12.948  11.611   0.763
 4411PP      PP14515  11.573   8.627   9.597
 4412PP      PP14516   4.674  11.717   2.490
 4413PP      PP14517   1.412  11.821  10.355
 4414PP      PP14518  12.809   2.601  10.430
 4415PP      PP14519  15.486  14.032   1.688
 4416PP      PP14520  10.028   8.259  12.894
 4417PP      PP14521  11.419  10.017   0.495
 4418PP      PP14522  13.003   6.036   1.461
 4419PP      PP14523   0.619   4.868   2.310
 4420PP      PP14524   2.807   1.182   1.170
 4421PP      PP14525   4.330  11.812   9.226
 4422PP      PP14526  14.408  13.084   0.189
 4423PP      PP14527  10.524   6.309   0.163
 4424PP      PP14528   0.784   1.069   2.537
 4425PP      PP14529  14.676  11.517   3.673
 4426PP      PP14530   0.427   2.633   9.817
 4427PP      PP14531   4.211   1.005  12.580
 4428PP      PP14532   8.274   0.033   2.049
 4429PP      PP14533   0.113   1.699  13.294
 4430PP      PP14534   8.753  13.550  11.966
 4431PP      PP14535   2.840  15.108   1.601
 4432PP      PP14536  13.975   8.401  10.966
 4433PP      PP14537  14.487   3.320  11.964
 4434PP      PP14538  10.138  10.806  11.460
 4435PP      PP14539   1.704  11.406   1.382
 4436PP      PP14540   9.870  10.969   2.655
 4437PP      PP14541   0.739   2.034   0.809
 4438PP      PP14542  15.719   9.247   2.307
 4439PP      PP14543  11.965  15.315  10.051
 4440PP      PP14544  15.666  10.939   3.487
 4441PP      PP14545  15.754   1.860   4.218
 4442PP      PP14546   2.460  10.451   0.810
 4443PP      PP14547  11.118   6.963   3.214
 4444PP      PP14548  13.621  15.504  12.065
 4445PP      PP14549   1.474   4.367   9.138
 4446PP      PP14550   5.485   9.649  13.114
 4447PP      PP14551   4.856   7.025  13.069
 4448PP      PP14552   4.689   0.600   3.846
 4449PP      PP14553  13.562   3.536  13.294
 4450PP      PP14554  13.039  11.212   9.484
 4451PP      PP14555   8.365   6.288   1.343
 4452PP      PP14556   1.372  14.240   3.020
 4453PP      PP14557   6.891   3.054   1.840
 4454PP      PP14558   5.465  15.124   1.299
 4455PP      PP14559  15.424   2.198  11.613
 4456PP      PP14560   4.227  11.009  11.008
 4457PP      PP14561   6.625   3.288   4.204
 4458PP      PP14562   4.207   7.651   1.817
 4459PP      PP14563   8.062  14.433   3.291
 4460PP      PP14564  10.286  10.554   3.557
 4461PP      PP14565   8.983   8.956   3.764
 4462PP      PP14566  11.334  12.480  11.815
 4463PP      PP14567  13.383  15.310   2.550
 4464PP      PP14568  12.950  13.535  13.448
 4465PP      PP14569   8.199  10.071  11.003
 4466PP      PP14570   0.866   0.147  10.552
 4467PP      PP14571  13.418  11.335  12.865
 4468PP      PP14572  15.681   9.041   9.200
 4469PP      PP14573   2.047  14.890  11.459
 4470PP      PP14574  10.392   4.511   9.424
 4471PP      PP14575   3.317   5.252   3.011
 4472PP      PP14576  12.975  14.746  12.423
 4473PP      PP14577  10.353   6.803  11.568
 4474PP      PP14578  14.437   8.554   7.976
 4475PP      PP14579   2.232   2.630  13.581
 4476PP      PP14580   9.442   5.834  13.328
 4477PP      PP14581  13.328  11.561   4.496
 4478PP      PP14582   4.887  15.174   2.668
 4479PP      PP14583   1.395   4.807  11.017
 4480PP      PP14584   6.226  15.166   9.980
 4481PP      PP14585  13.863   2.256   1.755
 4482PP      PP14586   3.721   3.514  10.336
 4483PP      PP14587   5.125   5.674  13.434
 4484PP      PP14588   1.507  10.917   0.415
 4485PP      PP14589   6.162   4.311  12.606
 4486PP      PP14590   8.264   6.207   8.570
 4487PP      PP14591   0.755   1.217   0.821
 4488PP      PP14592   8.741  10.702   2.803
 4489PP      PP14593   7.373   6.807  10.375
 4490PP      PP14594   2.662   4.178  10.597
 4491PP      PP14595   9.007   3.531  11.318
 4492PP      PP14596   6.158   2.362   0.778
 4493PP      PP14597  14.214   9.785   8.357
 4494PP      PP14598  12.717   4.638   9.866
 4495PP      PP14599  14.961   7.150  11.465
 4496PP      PP14600   0.581  10.920  12.675
 4497PP      PP14601   9.811   0.569  11.466
 4498PP      PP14602   8.080   8.901   9.112
 4499PP      PP14603   7.962  11.009  11.056
 4500PP      PP14604   0.808   5.737   1.012
 4501PP      PP14605   4.601  13.686   9.665
 4502PP      PP14606   8.532   4.749   9.478
 4503PP      PP14607   3.788   6.548   2.122
 4504PP      PP14608  11.110   2.305   9.433
 4505PP      PP14609  12.890   6.563  11.157
 4506PP      PP14610  13.454  14.263  10.437
 4507PP      PP14611   1.490   9.097  11.823
 4508PP      PP14612  13.937   4.375   2.931
 4509PP      PP14613  11.073   7.062  10.129
 4510PP      PP14614  10.094  11.004   9.494
 4511PP      PP14615   9.909  14.844  11.113
 4512PP      PP14616   5.931   2.659   1.736
 4513PP      PP14617   4.390   6.362   1.192
 4514PP      PP14618   9.291  15.135   3.968
 4515PP      PP14619   8.927  10.823  10.226
 4516PP      PP14620   4.054  12.238   1.399
 4517PP      PP14621   8.639  11.079  11.784
 4518PP      PP14622   5.244   9.085   0.610
 4519PP      PP14623   5.298   9.760   2.809
 4520PP      PP14624   9.357   2.558   0.336
 4521PP      PP14625  13.912  10.631   0.739
 4522PP      PP14626   4.009   0.181   4.152
 4523PP      PP14627  12.031   9.920   9.254
 4524PP      PP14628   2.068   8.913   9.644
 4525PP      PP14629   2.405   3.381   1.812
 4526PP      PP14630   7.509   1.274  11.562
 4527PP      PP14631  10.271  15.321   9.860
 4528PP      PP14632  13.534   5.274   9.902
 4529PP      PP14633   8.257  14.003   1.360
 4530PP      PP14634  15.173   0.959   2.170
 4531PP      PP14635   0.422   3.604   1.410
 4532PP      PP14636  14.988  12.400   4.224
 4533PP      PP14637  12.333   3.337   3.825
 4534PP      PP14638   3.688  15.295   3.617
 4535PP      PP14639   1.042   5.180  11.812
 4536PP      PP14640   6.008   1.572  10.186
 4537PP      PP14641  14.298  14.176  11.484
 4538PP      PP14642  11.503  11.715   2.265
 4539PP      PP14643  13.527   0.513   1.539
 4540PP      PP14644  12.360   4.451   0.037
 4541PP      PP14645   9.088   5.012   0.125
 4542PP      PP14646   0.817  10.579  10.187
 4543PP      PP14647  15.611   0.008  10.967
 4544PP      PP14648   4.903   2.495   1.955
 4545PP      PP14649   6.791  11.285  11.596
 4546PP      PP14650   1.473   0.131   3.048
 4547PP      PP14651   2.295  10.855   2.826
 4548PP      PP14652   0.208  15.727  12.687
 4549PP      PP14653   6.805  11.009   9.291
 4550PP      PP14654   0.118  10.321   8.745
 4551PP      PP14655   3.793   3.707   2.614
 4552PP      PP14656   1.497   0.100   9.784
 4553PP      PP14657   1.704  15.799  12.748
 4554PP      PP14658  14.291  12.143   0.520
 4555PP      PP14659   0.906   9.779   3.827
 4556PP      PP14660   4.126   5.487  10.065
 4557PP      PP14661   3.647  12.562   9.399
 4558PP      PP14662  15.793  10.577   4.373
 4559PP      PP14663   2.682   5.118  13.509
 4560PP      PP14664   0.346   0.186   0.483
 4561PP      PP14665  11.336   9.563   3.210
 4562PP      PP14666  11.685  13.855   1.626
 4563PP      PP14667   9.199   7.144   4.065
 4564PP      PP14668   9.177  12.473  11.153
 4565PP      PP14669   9.890  12.034   1.327
 4566PP      PP14670  13.336   9.949  11.504
 4567PP      PP14671   7.227   9.068   3.340
 4568PP      PP14672  12.163   4.427   2.402
 4569PP      PP14673   3.641   4.024   9.892
 4570PP      PP14674   5.894  15.035  10.353
 4571PP      PP14675  14.348   8.069   0.128
 4572PP      PP14676   9.749   2.097   4.664
 4573PP      PP14677  10.815   2.086   1.814
 4574PP      PP14678  13.376   9.591  11.088
 4575PP      PP14679   4.332  12.929   1.024
 4576PP      PP14680  11.867   3.663   0.006
 4577PP      PP14681   0.812   1.765  13.029
 4578PP      PP14682   7.342  13.160   0.173
 4579PP      PP14683   2.885   0.861   9.092
 4580PP      PP14684  14.438  15.661   9.695
 4581PP      PP14685   2.312   8.398   3.740
 4582PP      PP14686  15.251   8.383   1.036
 4583PP      PP14687   2.380   5.915  12.007
 4584PP      PP14688   9.223   7.906   2.737
 4585PP      PP14689  12.416   9.822   0.836
 4586PP      PP14690   5.066   9.984  10.404
 4587PP      PP14691   7.126   6.321   3.864
 4588PP      PP14692   8.306   4.666   0.451
 4589PP      PP14693   5.420  11.385  12.277
 4590PP      PP14694  10.590   6.519  12.013
 4591PP      PP14695  15.263   9.058   3.670
 4592PP      PP14696  11.026  12.882  11.726
 4593PP      PP14697   2.479   7.893   9.343
 4594PP      PP14698   8.368   2.825  12.263
 4595PP      PP14699   8.334  10.936   3.732
 4596PP      PP14700   7.731   3.842   0.133
 4597PP      PP14701   9.285   7.109   2.421
 4598PP      PP14702  14.258   9.528   9.286
 4599PP      PP14703  12.274   6.834   8.559
 4600PP      PP14704  14.024   2.407  10.820
 4601PP      PP14705   6.840  13.957   2.056
 4602PP      PP14706  13.229  14.655  12.865
 4603PP      PP14707  12.813  15.622  12.343
 4604PP      PP14708  13.867   1.800  10.673
 4605PP      PP14709   4.063   4.359  13.578
 4606PP      PP14710   8.016  15.014   4.155
 4607PP      PP14711   6.570   6.107  11.135
 4608PP      PP14712  13.894   5.180  11.884
 4609PP      PP14713   7.453  13.773  10.140
 4610PP      PP14714  13.196   9.378   1.953
 4611PP      PP14715  11.912   8.443   3.164
 4612PP      PP14716  12.217   4.759  10.710
 4613PP      PP14717  11.341   1.826   7.669
 4614PP      PP14718   3.546  13.051   8.628
 4615PP      PP14719   7.550  13.562  10.954
 4616PP      PP14720   1.782   9.544  11.685
 4617PP      PP14721   4.765  13.860   9.049
 4618PP      PP14722   2.480   8.190  10.694
 4619PP      PP14723   9.277  11.103  13.517
 4620PP      PP14724   6.052   1.809  10.637
 4621PP      PP14725  11.433  13.593   3.365
 4622PP      PP14726  15.114   1.131  11.716
 4623PP      PP14727   5.891   8.470   8.345
 4624PP      PP14728  10.443  14.556  12.959
 4625PP      PP14729  11.373   8.850  11.833
 4626PP      PP14730  15.266  14.521  13.564
 4627PP      PP14731   2.444   9.396   8.650
 4628PP      PP14732  15.521  15.809   4.659
 4629PP      PP14733  12.976   6.645  10.329
 4630PP      PP14734   1.426  11.813  12.196
 4631PP      PP14735  11.260   8.366  11.539
 4632PP      PP14736  14.879  15.478   2.605
 4633PP      PP14737  12.472   5.113   2.500
 4634PP      PP14738   1.730  14.540  11.206
 4635PP      PP14739   8.854   7.784   3.528
 4636PP      PP14740  14.139   2.003  11.147
 4637PP      PP14741   4.327   5.858   0.993
 4638PP      PP14742   8.101  14.075  10.865
 4639PP      PP14743   7.081   0.822   2.365
 4640PP      PP14744   7.820  11.394   3.814
 4641PP      PP14745   9.749  14.817   2.063
 4642PP      PP14746   4.069   7.096   4.396
 4643PP      PP14747   8.000   1.708   1.579
 4644PP      PP14748   6.273   9.124   2.572
 4645PP      PP14749   6.672  15.701   0.798
 4646PP      PP14750   0.284   4.971  10.025
 4647PP      PP14751  11.579   8.776   1.761
 4648PP      PP14752   9.147   8.191   3.201
 4649PP      PP14753   9.010   0.896  10.523
 4650PP      PP14754   8.042   8.868   1.905
 4651PP      PP14755   8.699  10.379  13.214
 4652PP      PP14756  15.487  13.450   3.304
 4653PP      PP14757  13.395   5.893  10.707
 4654PP      PP14758   4.604   0.579   1.384
 4655PP      PP14759   7.316   2.640  10.575
 4656PP      PP14760  15.463   6.777   1.170
 4657PP      PP14761   1.234   5.228   9.814
 4658PP      PP14762   9.564  10.607   1.128
 4659PP      PP14763   3.565  11.410   0.735
 4660PP      PP14764  11.816  12.573   1.952
 4661PP      PP14765   6.464   5.147   3.004
 4662PP      PP14766  13.400   4.622  10.858
 4663PP      PP14767  11.743  11.676   0.054
 4664PP      PP14768  15.704   6.781   9.364
 4665PP      PP14769   0.440  12.084   0.217
 4666PP      PP14770  14.753   7.291   2.730
 4667PP      PP14771   0.201   7.137   3.337
 4668PP      PP14772   5.024  11.685  10.926
 4669PP      PP14773   9.166  12.170   3.347
 4670PP      PP14774   9.695  12.694  12.073
 4671PP      PP14775   5.121  11.583   2.739
 4672PP      PP14776   4.406   2.313   4.621
 4673PP      PP14777   6.826   3.505   2.734
 4674PP      PP14778   4.284  13.223   0.613
 4675PP      PP14779   3.902   2.624   8.931
 4676PP      PP14780  10.619   2.903  10.008
 4677PP      PP14781   4.947  13.062  11.463
 4678PP      PP14782  14.700   4.911   1.563
 4679PP      PP14783   6.670   1.091   0.653
 4680PP      PP14784   6.421  10.324   1.126
 4681PP      PP14785  11.301  10.270  10.539
 4682PP      PP14786   6.790   5.679   8.476
 4683PP      PP14787   3.850  11.646   8.986
 4684PP      PP14788  10.091  13.342   1.872
 4685PP      PP14789   3.007   8.533   9.989
 4686PP      PP14790   4.278  10.687  11.576
 4687PP      PP14791   4.178   2.752   9.352
 4688PP      PP14792   0.173   0.985   1.853
 4689PP      PP14793  15.172   7.584  10.713
 4690PP      PP14794   2.551   4.423   2.508
 4691PP      PP14795  14.003  10.024  13.131
 4692PP      PP14796   1.484   4.665  12.277
 4693PP      PP14797   9.977   7.902   1.892
 4694PP      PP14798   9.127  14.236   4.776
 4695PP      PP14799   3.948   2.858   2.054
 4696PP      PP14800   2.127   3.791  10.908
 4697PP      PP14801   1.305  12.590   1.334
 4698PP      PP14802   9.193  10.368  12.278
 4699PP      PP14803   1.254   2.110   0.853
 4700PP      PP14804  15.114  10.832   3.938
 4701PP      PP14805   1.939   0.483   9.766
 4702PP      PP14806  11.593  12.956   2.736
 4703PP      PP14807   7.571   9.135   0.345
 4704PP      PP14808  13.291   2.240  11.325
 4705PP      PP14809  13.501   6.427   9.437
 4706PP      PP14810   4.043  15.642  12.322
 4707PP      PP14811  11.751  12.330   9.295
 4708PP      PP14812   8.763   9.764   3.447
 4709PP      PP14813  15.471   7.620   1.131
 4710PP      PP14814   6.095   7.535   1.371
 4711PP      PP14815   2.899  12.707   1.073
 4712PP      PP14816   8.891   4.053  13.521
 4713PP      PP14817  15.612   0.647   1.783
 4714PP      PP14818   1.589   2.132   1.648
 4715PP      PP14819  14.031   7.064  11.824
 4716PP      PP14820  10.239   9.449  11.588
 4717PP      PP14821   2.657  10.352   8.482
 4718PP      PP14822  13.104   2.913  11.924
 4719PP      PP14823  13.313   3.530   9.783
 4720PP      PP14824  11.191   4.492  12.108
 4721PP      PP14825   1.856   6.998   8.516
 4722PP      PP14826   6.983   8.680   9.241
 4723PP      PP14827   5.309   2.893   3.795
 4724PP      PP14828  10.227   7.212   9.846
 4725PP      PP14829   8.794  12.535   4.896
 4726PP      PP14830  12.076   8.983  12.679
 4727PP      PP14831   7.760   8.800  12.410
 4728PP      PP14832   8.322  13.368  11.573
 4729PP      PP14833   4.840   3.295  12.450
 4730PP      PP14834  13.499   5.139   1.744
 4731PP      PP14835  13.063  13.823   4.304
 4732PP      PP14836   4.983  13.694  11.478
 4733PP      PP14837  14.793  14.124   4.864
 4734PP      PP14838   2.914   0.126   1.080
 4735PP      PP14839  10.306  13.363   3.924
 4736PP      PP14840  10.899  12.355  10.916
 4737PP      PP14841   0.779   3.448   4.374
 4738PP      PP14842  11.510   1.646   9.763
 4739PP      PP14843   0.326  15.635   3.259
 4740PP      PP14844   1.302   4.864  10.459
 4741PP      PP14845   6.236   1.221   3.885
 4742PP      PP14846   3.501   2.969   4.100
 4743PP      PP14847   3.417   1.902  12.478
 4744PP      PP14848  10.994  14.013   9.329
 4745PP      PP14849   2.699   5.794   3.468
 4746PP      PP14850   9.576   0.963  11.239
 4747PP      PP14851  10.805   4.586  12.655
 4748PP      PP14852   8.943   8.726   9.290
 4749PP      PP14853  12.791   4.455   8.821
 4750PP      PP14854   7.423   5.674   9.953
 4751PP      PP14855  11.836   2.775  13.519
 4752PP      PP14856   1.375   6.830  11.044
 4753PP      PP14857   0.450  12.550   4.317
 4754PP      PP14858  10.676   0.051  13.319
 4755PP      PP14859   7.592  12.733  13.592
 4756PP      PP14860   6.136  13.300  11.293
 4757PP      PP14861   9.244   1.323  10.330
 4758PP      PP14862  14.951  12.461  10.269
 4759PP      PP14863   7.979  10.353   1.751
 4760PP      PP14864   7.166  13.144  12.705
 4761PP      PP14865   8.145   5.187   8.494
 4762PP      PP14866   6.469  14.381  12.218
 4763PP      PP14867  11.747  15.643   1.296
 4764PP      PP14868   7.318  11.057   0.264
 4765PP      PP14869   4.545   9.932   0.516
 4766PP      PP14870  14.822  11.522   0.072
 4767PP      PP14871   3.402  14.609   8.723
 4768PP      PP14872   0.771  10.626  10.761
 4769PP      PP14873   5.932   9.529  12.597
 4770PP      PP14874  11.547   8.781   9.085
 4771PP      PP14875   0.350  11.837  12.552
 4772PP      PP14876   4.725   1.837  11.517
 4773PP      PP14877  15.066  14.775  11.661
 4774PP      PP14878   5.695   7.615   0.981
 4775PP      PP14879   8.334   3.179  13.459
 4776PP      PP14880   0.149  11.862   1.862
 4777PP      PP14881  11.408  13.957  11.146
 4778PP      PP14882   7.202   4.907  11.736
 4779PP      PP14883   4.539   1.411  12.608
 4780PP      PP14884   1.396   7.354  10.904
 4781PP      PP14885   3.285  14.047  10.453
 4782PP      PP14886   4.487  10.495  12.805
 4783PP      PP14887   8.636   6.016  13.088
 4784PP      PP14888   2.264   8.457   3.235
 4785PP      PP14889   7.808  12.917  12.763
 4786PP      PP14890  12.784   7.085   0.660
 4787PP      PP14891   0.787  11.060   2.011
 4788PP      PP14892   6.843   0.195  10.762
 4789PP      PP14893   7.272  15.008   0.006
 4790PP      PP14894  15.766  15.147   9.125
 4791PP      PP14895  11.301  10.647   9.635
 4792PP      PP14896  12.196   7.596  10.443
 4793PP      PP14897   0.627   7.990   9.371
 4794PP      PP14898   4.943   1.144  12.827
 4795PP      PP14899   9.511  13.670  13.286
 4796PP      PP14900  10.090  12.645   9.726
 4797PP      PP14901  11.301   5.181   2.906
 4798PP      PP14902  11.046   7.729   0.260
 4799PP      PP14903   4.776   1.072   4.838
 4800PP      PP14904  10.277   1.575   9.687
 4801PP      PP14905   5.429   6.953   1.984
 4802PP      PP14906   4.941   0.352  10.534
 4803PP      PP14907  10.005   5.114   0.573
 4804PP      PP14908  11.383   3.459  10.759
 4805PP      PP14909  10.595   9.638   3.026
 4806PP      PP14910   6.842   9.102  13.305
 4807PP      PP14911   6.370   6.246   8.715
 4808PP      PP14912  12.339   2.732  13.546
 4809PP      PP14913   1.666   9.457   2.319
 4810PP      PP14914   9.314  14.477  13.108
 4811PP      PP14915  14.293  10.643   2.824
 4812PP      PP14916   9.681   5.524   0.620
 4813PP      PP14917   4.449  13.435   9.013
 4814PP      PP14918  14.372  15.752  10.508
 4815PP      PP14919   3.239  15.102   0.505
 4816PP      PP14920   7.346   4.795   8.793
 4817PP      PP14921   8.289   8.858   3.714
 4818PP      PP14922  13.902  15.600   0.488
 4819PP      PP14923   8.518  13.768   2.112
 4820PP      PP14924  13.557   4.078   9.096
 4821PP      PP14925   9.126   8.897   0.516
 4822PP      PP14926   7.257   3.594   0.086
 4823PP      PP14927   8.041   0.245   0.292
 4824PP      PP14928   8.434   0.857   1.570
 4825PP      PP14929   2.987  12.712   0.301
 4826PP      PP14930  14.462   9.130   0.875
 4827PP      PP14931   4.168   1.971   1.258
 4828PP      PP14932   2.477   7.528   3.091
 4829PP      PP14933  11.120  11.126   9.728
 4830PP      PP14934   9.744   1.435  10.471
 4831PP      PP14935  12.966  10.706  11.072
 4832PP      PP14936   9.411   5.147  10.945
 4833PP      PP14937  15.379   9.542   9.040
 4834PP      PP14938  11.633   1.137  11.722
 4835PP      PP14939   3.156   5.680   3.248
 4836PP      PP14940   7.236   2.658   2.896
 4837PP      PP14941   8.642  13.983   4.856
 4838PP      PP14942   4.334   5.940   9.897
 4839PP      PP14943   6.229   2.546  10.850
 4840PP      PP14944   8.881   5.562   9.271
 4841PP      PP14945  12.443   8.161  10.565
 4842PP      PP14946   2.852  10.040  10.191
 4843PP      PP14947   2.236   0.141   2.643
 4844PP      PP14948  13.852  10.980   2.777
 4845PP      PP14949   8.897  13.899   2.838
 4846PP      PP14950  15.648   0.579  12.443
 4847PP      PP14951   6.705  15.723   4.440
 4848PP      PP14952   0.720   3.190   1.482
 4849PP      PP14953   5.130  13.300   3.369
 4850PP      PP14954   1.814  11.832   3.043
 4851PP      PP14955   6.251  10.769   0.923
 4852PP      PP14956   7.890  14.682   4.761
 4853PP      PP14957   7.281   9.123  11.766
 4854PP      PP14958  12.820   6.446   3.786
 4855PP      PP14959   0.056   9.289   1.655
 4856PP      PP14960   8.224  15.187   2.062
 4857PP      PP14961   6.157   5.784   2.260
 4858PP      PP14962   9.766   1.282   3.629
 4859PP      PP14963  12.997  14.852  11.918
 4860PP      PP14964   8.022  14.318   3.798
 4861PP      PP14965  10.883   5.168  10.827
 4862PP      PP14966  10.409   7.002   0.985
 4863PP      PP14967  12.972   1.841   8.587
 4864PP      PP14968  11.858   9.780  12.431
 4865PP      PP14969   9.005  15.448   0.002
 4866PP      PP14970   3.203  13.794   9.134
 4867PP      PP14971  13.565   3.533   1.045
 4868PP      PP14972  10.085   0.657  11.042
 4869PP      PP14973  14.175  11.537   3.426
 4870PP      PP14974   8.378   1.791   1.955
 4871PP      PP14975   7.565   4.578   1.336
 4872PP      PP14976   3.282   2.634  12.032
 4873PP      PP14977  14.644   3.869  11.793
 4874PP      PP14978   4.476  13.544   2.264
 4875PP      PP14979   3.344  11.019   1.184
 4876PP      PP14980   0.892   8.054   2.817
 4877PP      PP14981   8.068   6.651   4.780
 4878PP      PP14982   4.851   1.578   4.905
 4879PP      PP14983   7.021  15.784   0.271
 4880PP      PP14984   2.492   5.128   8.666
 4881PP      PP14985   8.122   9.889   1.587
 4882PP      PP14986   7.710   1.437   1.060
 4883PP      PP14987  14.649   1.832   1.264
 4884PP      PP14988  11.049   2.463  11.612
 4885PP      PP14989   3.043  14.433  10.701
 4886PP      PP14990   9.224   6.560  10.526
 4887PP      PP14991  14.136   2.367   2.607
 4888PP      PP14992  14.606  13.358   4.335
 4889PP      PP14993  14.905   1.366   1.080
 4890PP      PP14994  11.442   1.568  10.368
 4891PP      PP14995   5.092  10.025  11.611
 4892PP      PP14996   1.476   5.549   8.765
 4893PP      PP14997   7.784   2.955  10.577
 4894PP      PP14998   3.773   4.900  10.003
 4895PP      PP14999   7.196   4.430  13.320
 4896PP      PP15000  12.775   4.525   3.607
 4897PP      PP15001  15.805   9.530   9.821
 4898PP      PP15002   6.916   7.737  12.238
 4899PP      PP15003  13.018   4.088  12.998
 4900PP      PP15004   3.303  14.451   3.601
 4901PP      PP15005   4.427   8.447  11.798
 4902PP      PP15006  14.503  14.338   3.858
 4903PP      PP15007  11.275  15.828  10.516
 4904PP      PP15008   0.951   0.272  11.573
 4905PP      PP15009   6.752  14.261  12.629
 4906PP      PP15010   8.824  11.694  12.584
 4907PP      PP15011   1.171   5.932   8.961
 4908PP      PP15012  12.123  14.090  10.411
 4909PP      PP15013  15.142   6.853  13.240
 4910PP      PP15014   1.706  14.362  13.258
 4911PP      PP15015  14.126   4.698  12.828
 4912PP      PP15016   2.732  11.186   2.886
 4913PP      PP15017  10.210   0.302   2.761
 4914PP      PP15018   9.952  12.876   3.368
 4915PP      PP15019  14.903   0.401   3.183
 4916PP      PP15020  11.012   2.784   3.281
 4917PP      PP15021  14.487   1.945   2.810
 4918PP      PP15022   6.048  11.240   3.740
 4919PP      PP15023  12.731   2.081  10.819
 4920PP      PP15024  12.725  11.249   9.899
 4921PP      PP15025   4.709   8.873   1.266
 4922PP      PP15026   4.333   4.749   2.072
 4923PP      PP15027  12.365   5.921   8.808
 4924PP      PP15028  10.063   7.837  11.618
 4925PP      PP15029   2.664   2.301   3.381
 4926PP      PP15030  15.146  15.034   2.696
 4927PP      PP15031   8.306  15.101   3.293
 4928PP      PP15032   4.052   7.341   0.981
 4929PP      PP15033   2.088   4.778  10.452
 4930PP      PP15034   4.794  15.377  11.657
 4931PP      PP15035  14.957   5.501   9.860
 4932PP      PP15036  10.075  11.500  12.953
 4933PP      PP15037   0.928   2.802  13.098
 4934PP      PP15038  12.542   6.118   3.359
 4935PP      PP15039   4.115  15.537   2.292
 4936PP      PP15040  10.951   8.242   2.092
 4937PP      PP15041   2.798  12.730  12.866
 4938PP      PP15042   3.714  12.703   3.685
 4939PP      PP15043   0.635   8.525   2.155
 4940PP      PP15044   9.882   6.596   8.762
 4941PP      PP15045   7.825   2.890  11.093
 4942PP      PP15046  11.948  11.549  10.456
 4943PP      PP15047   4.475   5.907   9.373
 4944PP      PP15048  14.997   2.589   4.187
 4945PP      PP15049   9.486   5.101   3.443
 4946PP      PP15050   1.571   8.650   2.808
 4947PP      PP15051  14.833   7.844   9.181
 4948PP      PP15052  13.217  14.784   2.624
 4949PP      PP15053  10.138  10.936  10.001
 4950PP      PP15054   9.532   4.550  11.672
 4951PP      PP15055  15.620  12.905   1.689
 4952PP      PP15056  11.054   8.711   2.891
 4953PP      PP15057   7.733  12.547  10.816
 4954PP      PP15058   2.776  13.669   8.860
 4955PP      PP15059   0.190   9.339   7.998
 4956PP      PP15060  10.062   7.820   2.440
 4957PP      PP15061  10.278  13.617   1.449
 4958PP      PP15062   8.820   5.784  11.556
 4959PP      PP15063   8.542   3.577   2.448
 4960PP      PP15064   1.078   1.626   0.888
 4961PP      PP15065  11.836  11.482   2.932
 4962PP      PP15066   0.617  12.586   0.096
 4963PP      PP15067  11.578   7.206  11.297
 4964PP      PP15068  14.933  14.485   1.182
 4965PP      PP15069   4.403  10.378   1.714
 4966PP      PP15070   5.539   5.513   9.935
 4967PP      PP15071   6.567   8.321  12.885
 4968PP      PP15072   7.594   9.239   2.991
 4969PP      PP15073   1.905   2.240   0.309
 4970PP      PP15074  12.527  14.389   4.582
 4971PP      PP15075  10.545   2.985  12.236
 4972PP      PP15076   9.328  14.382  12.221
 4973PP      PP15077   2.098  11.384  10.892
 4974PP      PP15078  14.327  10.340  11.591
 4975PP      PP15079   2.456  12.898   3.471
 4976PP      PP15080   9.350   9.452   2.928
 4977PP      PP15081  15.466  11.949   3.495
 4978PP      PP15082   5.096   1.653   2.489
 4979PP      PP15083   2.924   7.346  12.994
 4980PP      PP15084   4.137   3.791   9.176
 4981PP      PP15085  10.647   4.204   9.085
 4982PP      PP15086   9.563   9.147   0.803
 4983PP      PP15087   4.466  11.674  10.201
 4984PP      PP15088   4.975   5.562   2.599
 4985PP      PP15089  15.091   2.055  11.177
 4986PP      PP15090   6.538   6.773   0.978
 4987PP      PP15091   1.131  12.160   1.894
 4988PP      PP15092  13.063   2.547   1.712
 4989PP      PP15093   8.885   5.229   3.759
 4990PP      PP15094   8.968   8.720   3.268
 4991PP      PP15095   6.424  12.494   2.566
 4992PP      PP15096   9.219  12.927  12.702
 4993PP      PP15097   5.926   2.051   3.486
 4994PP      PP15098   2.041   8.838   2.954
 4995PP      PP15099   6.765  11.335   9.699
 4996PP      PP15100  11.422  11.957  11.064
 4997PP      PP15101  13.088   2.497  10.869
 4998PP      PP15102   3.916  10.820   0.456
 4999PP      PP15103   8.347   1.944   0.806
 5000PP      PP15104   1.745  10.955  10.750
 5001PP      PP15105  15.006   0.795  12.857
 5002PP      PP15106   1.823  12.989   8.717
 5003PP      PP15107   0.145   3.813   9.313
 5004PP      PP15108   4.212  13.504  13.239
 5005PP      PP15109   5.475   5.793  11.256
 5006PP      PP15110   1.684   0.117   4.453
 5007PP      PP15111  10.192   5.549  10.366
 5008PP      PP15112   7.571   9.771   2.977
 5009PP      PP15113   9.324  12.841  13.401
 5010PP      PP15114   1.144   2.282   9.475
 5011PP      PP15115   6.313   3.613   9.038
 5012PP      PP15116   3.388   1.541   0.406
 5013PP      PP15117   3.458   9.370  10.887
 5014PP      PP15118   0.460  11.210   2.793
 5015PP      PP15119   7.797   8.653  10.679
 5016PP      PP15120  11.022   7.682   3.915
 5017PP      PP15121  13.758  15.030  12.243
 5018PP      PP15122   8.252   3.978   3.350
 5019PP      PP15123   5.467  10.726   8.736
 5020PP      PP15124   8.296  11.362   4.016
 5021PP      PP15125  14.896  13.864  11.411
 5022PP      PP15126   5.753   4.689   3.163
 5023PP      PP15127  11.757  12.288   3.609
 5024PP      PP15128   9.921  13.880   3.414
 5025PP      PP15129  10.762   1.700  11.408
 5026PP      PP15130   5.420  15.015   2.654
 5027PP      PP15131  15.257   3.998  10.923
 5028PP      PP15132   4.238  13.999   1.583
 5029PP      PP15133   5.775   3.572   1.341
 5030PP      PP15134  15.759  11.489  13.274
 5031PP      PP15135  11.108  13.736  12.906
 5032PP      PP15136  13.483  15.497  10.353
 5033PP      PP15137  14.119  13.474   1.457
 5034PP      PP15138   8.149   7.466  13.482
 5035PP      PP15139   4.699  11.206   8.534
 5036PP      PP15140   2.056  15.315   4.490
 5037PP      PP15141   0.435   4.069   8.968
 5038PP      PP15142   9.564   5.930   9.692
 5039PP      PP15143   5.781   8.311   0.421
 5040PP      PP15144   3.361  11.480  12.562
 5041PP      PP15145  13.500  14.162   4.294
 5042PP      PP15146   0.866   2.301   9.926
 5043PP      PP15147   5.215  15.597   0.613
 5044PP      PP15148   6.574  10.107   2.635
 5045PP      PP15149   2.143   6.781   3.841
 5046PP      PP15150   6.561  13.318  12.256
 5047PP      PP15151  10.974  11.627   4.453
 5048PP      PP15152  12.390   3.527   8.994
 5049PP      PP15153  14.209   4.154   9.965
 5050PP      PP15154   5.815  11.532  10.140
 5051PP      PP15155   8.975   6.868  12.995
 5052PP      PP15156   7.586  10.985   8.784
 5053PP      PP15157   8.540   0.678   3.172
 5054PP      PP15158  11.610  13.685   2.253
 5055PP      PP15159   2.298   7.226   9.681
 5056PP      PP15160   7.660   6.751   0.876
 5057PP      PP15161  11.406   8.439  12.165
 5058PP      PP15162   4.994   1.935   1.586
 5059PP      PP15163   8.105   9.134   9.856
 5060PP      PP15164  12.155  13.776   1.389
 5061PP      PP15165  11.085   0.711   0.741
 5062PP      PP15166  14.169  15.712   4.343
 5063PP      PP15167   5.486  10.840   2.885
 5064PP      PP15168   6.400   1.516  12.253
 5065PP      PP15169   1.019  13.677  12.724
 5066PP      PP15170  11.884   0.709  12.615
 5067PP      PP15171   3.366  10.529   3.038
 5068PP      PP15172   8.551   0.993  10.809
 5069PP      PP15173   9.620   4.364   0.123
 5070PP      PP15174   2.946   5.654   9.282
 5071PP      PP15175   9.613   4.031  12.937
 5072PP      PP15176   7.484  15.425   1.452
 5073PP      PP15177  14.297   9.150   3.504
 5074PP      PP15178  15.373   3.196  10.681
 5075PP      PP15179  14.591   6.871   3.677
 5076PP      PP15180   4.881  12.552  10.842
 5077PP      PP15181   3.534   8.332   1.600
 5078PP      PP15182   7.617  10.096  10.062
 5079PP      PP15183  14.174  11.925   3.063
 5080PP      PP15184   5.557   0.064  10.426
 5081PP      PP15185   5.432  12.965  11.350
 5082PP      PP15186  11.685   4.190   0.528
 5083PP      PP15187  11.680  15.355   0.290
 5084PP      PP15188  12.312   2.602   4.398
 5085PP      PP15189   4.742   5.530   2.056
 5086PP      PP15190  10.616   8.915   0.377
 5087PP      PP15191  10.794   0.143  10.686
 5088PP      PP15192  15.211  10.015   3.743
 5089PP      PP15193   2.676   1.774  13.304
 5090PP      PP15194  11.602  13.882   3.810
 5091PP      PP15195   1.621   8.228  11.141
 5092PP      PP15196   3.267  12.103  13.200
 5093PP      PP15197  14.950  14.045   3.842
 5094PP      PP15198   3.138  10.105   8.399
 5095PP      PP15199  11.659  11.259   1.323
 5096PP      PP15200   2.650   0.473   0.721
 5097PP      PP15201  15.214   2.914   3.849
 5098PP      PP15202   8.616   7.281   1.617
 5099PP      PP15203   1.356   5.732   0.745
 5100PP      PP15204   5.323  10.875   3.382
 5101PP      PP15205  13.735   6.870   0.720
 5102PP      PP15206   0.891   4.636   1.839
 5103PP      PP15207   1.689   2.931  13.493
 5104PP      PP15208   7.995  13.936  11.996
 5105PP      PP15209   1.653   4.622  10.105
 5106PP      PP15210   8.157   2.887   4.538
 5107PP      PP15211   9.916  11.564   2.651
 5108PP      PP15212  10.095   1.250  11.906
 5109PP      PP15213   2.264   6.061   3.667
 5110PP      PP15214  10.547   9.116  11.327
 5111PP      PP15215   6.467   9.687   4.039
 5112PP      PP15216   8.906  11.066   9.243
 5113PP      PP15217   4.389  14.791   0.094
 5114PP      PP15218   5.872   9.871   8.738
 5115PP      PP15219  10.207   2.301   0.463
 5116PP      PP15220   1.862  11.752   9.394
 5117PP      PP15221   7.261  10.756  12.955
 5118PP      PP15222   5.068   4.006   1.696
 5119PP      PP15223  13.883  13.479   3.982
 5120PP      PP15224  12.846  15.605   3.518
 5121PP      PP15225  13.181   2.306   3.741
 5122PP      PP15226   7.873  11.068   0.213
 5123PP      PP15227   6.510   8.226   2.583
 5124PP      PP15228  10.232   6.402   9.671
 5125PP      PP15229  15.392  13.502   1.619
 5126PP      PP15230   9.711   7.136   4.050
 5127PP      PP15231   9.158   8.477  11.527
 5128PP      PP15232   2.081   8.883   3.514
 5129PP      PP15233   2.529   4.329  13.168
 5130PP      PP15234  14.081  13.519  13.086
 5131PP      PP15235   8.225   7.175   8.655
 5132PP      PP15236   2.087   3.450   4.100
 5133PP      PP15237   9.908   1.110   2.212
 5134PP      PP15238  14.694   2.952   9.661
 5135PP      PP15239  12.166   4.270   3.911
 5136PP      PP15240   5.338  12.031   2.907
 5137PP      PP15241  13.742  11.340   3.199
 5138PP      PP15242  11.026   9.829   9.745
 5139PP      PP15243  11.703   5.244   9.295
 5140PP      PP15244  10.485   9.921   0.458
 5141PP      PP15245   4.262   1.775  12.930
 5142PP      PP15246   3.406   9.147   9.883
 5143PP      PP15247   6.378   7.280   2.706
 5144PP      PP15248   7.698   6.875  13.450
 5145PP      PP15249   6.352  14.226  10.606
 5146PP      PP15250  13.475   1.147   9.648
 5147PP      PP15251   2.388  15.129   3.697
 5148PP      PP15252   3.360   5.006  10.408
 5149PP      PP15253  15.266   5.794  12.100
 5150PP      PP15254  14.538   0.961  13.105
 5151PP      PP15255  11.948   1.554  11.554
 5152PP      PP15256   3.649   2.654   0.223
 5153PP      PP15257   8.470   7.864   0.063
 5154PP      PP15258  10.588  13.697   0.340
 5155PP      PP15259  10.340   0.963   0.708
 5156PP      PP15260  11.227  13.977   2.516
 5157PP      PP15261  11.200  14.852  12.034
 5158PP      PP15262   7.883   2.901   9.341
 5159PP      PP15263  13.359  14.112   3.397
 5160PP      PP15264  12.413   3.758   1.970
 5161PP      PP15265  13.345  10.173   1.130
 5162PP      PP15266   9.276  11.287  12.995
 5163PP      PP15267   3.516   9.494   8.629
 5164PP      PP15268   2.518   4.233   9.645
 5165PP      PP15269  10.648   9.939  11.794
 5166PP      PP15270   5.830  11.365   4.186
 5167PP      PP15271   8.941   0.736  11.992
 5168PP      PP15272  15.621   2.764   3.554
 5169PP      PP15273   1.835  13.446  12.102
 5170PP      PP15274  14.718   9.503  11.585
 5171PP      PP15275  15.827  10.401   0.295
 5172PP      PP15276   8.959  14.080  13.193
 5173PP      PP15277  14.939  11.960  10.264
 5174PP      PP15278   9.566  15.798   1.851
 5175PP      PP15279  11.030   3.191  13.475
 5176PP      PP15280  10.892  11.921  11.816
 5177PP      PP15281  11.541  13.767  12.633
 5178PP      PP15282  14.886   3.418   2.172
 5179PP      PP15283   5.495  14.825   0.319
 5180PP      PP15284   6.701  12.026   1.838
 5181PP      PP15285   7.017   8.068   0.714
 5182PP      PP15286   6.404  14.922   0.150
 5183PP      PP15287  12.565   0.341   9.105
 5184PP      PP15288  12.243   0.086   0.395
 5185PP      PP15289  10.856   2.936   2.302
 5186PP      PP15290   0.634   5.357  11.523
 5187PP      PP15291   8.797   1.084   3.403
 5188PP      PP15292  12.591   4.676   1.827
 5189PP      PP15293   6.225  10.245  10.998
 5190PP      PP15294  12.928  15.389  11.887
 5191PP      PP15295  15.236   7.918   8.631
 5192PP      PP15296   6.486   2.422   3.432
 5193PP      PP15297   9.963   7.410  12.486
 5194PP      PP15298   7.020   0.860   1.581
 5195PP      PP15299   0.249  13.224  11.534
 5196PP      PP15300   2.142   9.438  12.076
 5197PP      PP15301  15.529   8.589   0.582
 5198PP      PP15302   2.240   5.208  11.359
 5199PP      PP15303   2.725   6.307   2.536
 5200PP      PP15304   2.192   0.882   1.886
 5201PP      PP15305   5.220   5.636  11.705
 5202PP      PP15306   3.602  13.382  12.010
 5203PP      PP15307   2.201   2.521  11.019
 5204PP      PP15308   5.980   4.697  13.515
 5205PP      PP15309   4.589  11.853  11.953
 5206PP      PP15310   6.762   9.453   0.478
 5207PP      PP15311   0.174   6.799   8.880
 5208PP      PP15312   6.233  15.541   4.223
 5209PP      PP15313   4.367   2.502   1.876
 5210PP      PP15314  10.921   5.155   3.312
 5211PP      PP15315  14.676   5.281   3.080
 5212PP      PP15316   3.773  11.508  10.604
 5213PP      PP15317   4.102  10.138   8.853
 5214PP      PP15318  13.165   4.402  12.045
 5215PP      PP15319   6.927   2.844   4.120
 5216PP      PP15320  10.732  12.348   1.257
 5217PP      PP15321   3.752  13.339   0.490
 5218PP      PP15322  11.659  10.290   2.121
 5219PP      PP15323   7.966   8.254   3.948
 5220PP      PP15324  15.438   1.007   1.138
 5221PP      PP15325  10.601   9.570   1.497
 5222PP      PP15326   3.121  13.499  12.167
 5223PP      PP15327  12.033   1.820   4.276
 5224PP      PP15328   5.959   9.075  10.110
 5225PP      PP15329   3.266  13.116   2.909
 5226PP      PP15330   0.423   1.743   3.495
 5227PP      PP15331   1.761  13.875  13.517
 5228PP      PP15332  12.368  11.877   4.337
 5229PP      PP15333  13.480  11.190  10.542
 5230PP      PP15334   5.716   9.104   2.515
 5231PP      PP15335  13.680   7.524   9.605
 5232PP      PP15336  14.437   5.885   3.597
 5233PP      PP15337   0.772   0.740  11.819
 5234PP      PP15338  11.775   5.751  10.185
 5235PP      PP15339   9.388   4.195  11.315
 5236PP      PP15340   0.402   8.856  10.616
 5237PP      PP15341   2.617   0.284  10.342
 5238PP      PP15342  12.699  11.916   2.876
 5239PP      PP15343  15.471   5.103   9.484
 5240PP      PP15344  14.492   7.416  13.090
 5241PP      PP15345  10.599   8.047   0.117
 5242PP      PP15346  12.245   8.190  11.440
 5243PP      PP15347  10.852   4.184   3.231
 5244PP      PP15348  10.008   2.340  13.426
 5245PP      PP15349  13.009   0.082   0.837
 5246PP      PP15350   7.599   7.224   3.142
 5247PP      PP15351  11.572  10.026  12.789
 5248PP      PP15352   1.253   3.801   0.773
 5249PP      PP15353   9.887   3.490   3.551
 5250PP      PP15354  11.487   9.590   9.555
 5251PP      PP15355   4.797   2.542   2.977
 5252PP      PP15356  12.414   6.219   0.649
 5253PP      PP15357   4.301   0.165   1.395
 5254PP      PP15358   3.772  11.559   0.269
 5255PP      PP15359  12.315  12.222  11.305
 5256PP      PP15360  11.230   3.103   8.840
 5257PP      PP15361   5.190  11.839   2.285
 5258PP      PP15362  15.573   2.092   9.009
 5259PP      PP15363   8.468   8.475   9.239
 5260PP      PP15364  13.753  12.836  13.154
 5261PP      PP15365  13.693   4.356  12.742
 5262PP      PP15366  13.496   6.037   1.283
 5263PP      PP15367  12.965   4.469  11.148
 5264PP      PP15368   6.885   4.859   1.900
 5265PP      PP15369  13.411   3.159  10.135
 5266PP      PP15370   7.092  11.982   3.365
 5267PP      PP15371  13.097   6.499  12.031
 5268PP      PP15372   7.018   4.535  12.127
 5269PP      PP15373  14.786   8.728   0.900
 5270PP      PP15374   9.418   3.510   8.906
 5271PP      PP15375  10.517   0.923  12.454
 5272PP      PP15376   8.406   2.103   3.706
 5273PP      PP15377  12.307   1.946  10.434
 5274PP      PP15378   3.541  14.525  10.374
 5275PP      PP15379   5.010   8.113  11.033
 5276PP      PP15380   1.489  13.948  11.660
 5277PP      PP15381  12.816  12.948   2.847
 5278PP      PP15382   3.773  12.873   0.761
 5279PP      PP15383   5.025  14.322  13.273
 5280PP      PP15384   5.417  11.772   8.018
 5281PP      PP15385   9.246   9.538   9.588
 5282PP      PP15386   3.120   3.050   9.566
 5283PP      PP15387   3.957  11.138   0.051
 5284PP      PP15388  12.209   2.909  10.431
 5285PP      PP15389   4.243   1.650  10.202
 5286PP      PP15390  11.299   2.750   0.818
 5287PP      PP15391   9.639   1.493  11.667
 5288PP      PP15392   3.742   6.922   1.763
 5289PP      PP15393  10.401  15.584   1.982
 5290PP      PP15394  15.449   6.160   2.129
 5291PP      PP15395  10.528   8.362  10.544
 5292PP      PP15396  10.234  15.519   0.970
 5293PP      PP15397   8.611  10.660   0.575
 5294PP      PP15398  11.091   5.460   9.020
 5295PP      PP15399  13.042   7.349  11.628
 5296PP      PP15400   5.722  10.002  13.401
 5297PP      PP15401   7.504  11.676  10.636
 5298PP      PP15402  13.299   0.469   2.878
 5299PP      PP15403   8.205   6.468   9.906
 5300PP      PP15404   8.504   8.338  13.377
 5301PP      PP15405  13.831   2.512   3.203
 5302PP      PP15406   5.846  12.201   3.808
 5303PP      PP15407   1.923  11.861   1.563
 5304PP      PP15408   6.199   5.471   9.116
 5305PP      PP15409   2.185   4.053   2.423
 5306PP      PP15410   8.870  10.422  10.619
 5307PP      PP15411   4.845   7.405  12.693
 5308PP      PP15412   7.246  11.349  10.002
 5309PP      PP15413  14.962  14.351  10.160
 5310PP      PP15414   9.807   3.999   1.358
 5311PP      PP15415   1.861  15.640   4.083
 5312PP      PP15416  15.134   5.918  10.540
 5313PP      PP15417   9.478  13.801  12.338
 5314PP      PP15418  10.382   3.863   1.987
 5315PP      PP15419   4.031   8.934  13.084
 5316PP      PP15420  13.174   9.645  13.516
 5317PP      PP15421  15.627  14.931   1.058
 5318PP      PP15422   6.748   9.675   3.276
 5319PP      PP15423   1.756   5.235   0.601
 5320PP      PP15424  14.222  13.081  10.071
 5321PP      PP15425   5.413   5.673   9.444
 5322PP      PP15426   4.852   6.063   9.676
 5323PP      PP15427   7.842  11.376  12.352
 5324PP      PP15428   8.532   7.222  11.518
 5325PP      PP15429  13.801   9.480   1.347
 5326PP      PP15430  11.869  14.518  10.541
 5327PP      PP15431   1.197   8.417   8.837
 5328PP      PP15432   0.237   1.161   0.972
 5329PP      PP15433   3.732   5.293  11.715
 5330PP      PP15434   7.421   3.043  12.051
 5331PP      PP15435   8.495   0.236   9.304
 5332PP      PP15436   6.394  13.247  11.750
 5333PP      PP15437  11.528   3.531   1.049
 5334PP      PP15438   2.886   6.985   9.641
 5335PP      PP15439  15.455   8.201   9.070
 5336PP      PP15440   1.993   4.230  10.354
 5337PP      PP15441   4.035  12.336  13.588
 5338PP      PP15442   4.837   5.967   3.823
 5339PP      PP15443  12.462   5.902  12.514
 5340PP      PP15444  14.790  11.917   0.679
 5341PP      PP15445   9.897   2.972  11.350
 5342PP      PP15446   4.934  11.814  11.532
 5343PP      PP15447  12.230   9.468  13.569
 5344PP      PP15448   7.234  10.375  11.158
 5345PP      PP15449  10.230   8.918   9.017
 5346PP      PP15450  11.156  13.987   3.587
 5347PP      PP15451  12.154  10.073   2.084
 5348PP      PP15452  12.774  14.524  13.117
 5349PP      PP15453   5.870  11.892   9.134
 5350PP      PP15454   8.693   9.899  10.844
 5351PP      PP15455   5.041   2.415   0.509
 5352PP      PP15456   2.454   9.121  10.801
 5353PP      PP15457   8.684   3.241   1.028
 5354PP      PP15458   2.136  15.032   1.566
 5355PP      PP15459   9.049   6.899   8.763
 5356PP      PP15460  12.907   4.023   8.535
 5357PP      PP15461   2.673   9.037   0.841
 5358PP      PP15462   7.252   4.488   4.298
 5359PP      PP15463   2.424   2.477   9.492
 5360PP      PP15464   6.998   7.176  10.961
 5361PP      PP15465   6.725   9.135   3.161
 5362PP      PP15466  15.772   5.658   8.410
 5363PP      PP15467   7.196  14.388   2.718
 5364PP      PP15468   7.619   8.261   3.035
 5365PP      PP15469  15.284  11.804   9.865
 5366PP      PP15470  13.026   1.985   0.500
 5367PP      PP15471   4.364   1.337   9.794
 5368PP      PP15472  10.967  15.549  11.822
 5369PP      PP15473   0.114   6.365   9.604
 5370PP      PP15474   9.629   6.321  11.916
 5371PP      PP15475   4.568  11.592   0.458
 5372PP      PP15476   8.926   3.506  13.590
 5373PP      PP15477  10.825   3.036  11.817
 5374PP      PP15478   9.340   2.785   0.826
 5375PP      PP15479  13.128  10.027   8.320
 5376PP      PP15480  14.282   8.663  12.539
 5377PP      PP15481   4.446   1.217  13.090
 5378PP      PP15482  15.129   3.880   2.199
 5379PP      PP15483  10.554  14.355   5.246
 5380PP      PP15484  14.940  10.357   3.014
 5381PP      PP15485   2.847   1.899   1.945
 5382PP      PP15486   4.004  12.019   1.862
 5383PP      PP15487  10.365  14.407  12.263
 5384PP      PP15488  11.538   8.005   0.420
 5385PP      PP15489   7.961  13.942   3.459
 5386PP      PP15490   2.960  11.925   1.665
 5387PP      PP15491   7.749   4.975  11.003
 5388PP      PP15492   0.218   2.599  13.352
 5389PP      PP15493  14.116   3.324   9.356
 5390PP      PP15494  13.440   8.119  12.275
 5391PP      PP15495  13.609  11.424   0.271
 5392PP      PP15496   9.505   8.690  13.490
 5393PP      PP15497  12.950  14.648   3.878
 5394PP      PP15498   1.211  11.290  10.599
 5395PP      PP15499   5.242   8.562  11.435
 5396PP      PP15500   3.848   0.216  10.834
 5397PP      PP15501   3.615  15.309  10.380
 5398PP      PP15502  10.195   7.237  10.896
 5399PP      PP15503   4.154  14.397  10.149
 5400PP      PP15504   1.162  15.285  11.621
 5401PP      PP15505   2.449  14.203   9.443
 5402PP      PP15506  14.367   7.113   3.091
 5403PP      PP15507   2.658   4.323   3.022
 5404PP      PP15508   0.848   4.366  11.773
 5405PP      PP15509  15.147  15.368  10.969
 5406PP      PP15510   7.950  14.427  10.452
 5407PP      PP15511  10.917   7.432   3.038
 5408PP      PP15512   8.760  14.237   4.422
 5409PP      PP15513   5.189   1.801  12.000
 5410PP      PP15514   2.678   5.095  11.097
 5411PP      PP15515   6.406   1.104   1.852
 5412PP      PP15516  11.455   5.368  12.491
 5413PP      PP15517   1.802   0.939   3.239
 5414PP      PP15518   8.534  12.972  13.276
 5415PP      PP15519  15.377   9.766  12.748
 5416PP      PP15520  11.641  13.937  10.283
 5417PP      PP15521   5.563   5.164   3.182
 5418PP      PP15522   3.428  14.300   9.145
 5419PP      PP15523  12.192   4.194   2.869
 5420PP      PP15524   1.338  13.609  12.230
 5421PP      PP15525   2.380   9.816  10.070
 5422PP      PP15526  14.580  12.920   0.706
 5423PP      PP15527   7.340   6.305   0.860
 5424PP      PP15528   3.152   0.658   1.951
 5425PP      PP15529   9.331   7.909  10.407
 5426PP      PP15530   5.377   1.341   9.354
 5427PP      PP15531  11.105   7.741   2.655
 5428PP      PP15532   5.379   3.787   3.182
 5429PP      PP15533   3.588   2.289   1.396
 5430PP      PP15534   9.692  12.521   4.362
 5431PP      PP15535  13.774  11.923   3.393
 5432PP      PP15536   7.492   2.068   0.898
 5433PP      PP15537  14.303   9.781  10.801
 5434PP      PP15538   2.945  13.434   0.760
 5435PP      PP15539   9.120   8.409  10.480
 5436PP      PP15540  11.138   2.402  10.726
 5437PP      PP15541  11.237   8.030   3.490
 5438PP      PP15542  11.384  15.788   3.002
 5439PP      PP15543   4.248   9.292   8.738
 5440PP      PP15544   6.596   0.623  10.531
 5441PP      PP15545   6.330   3.337  11.366
 5442PP      PP15546  14.986  13.531   9.879
 5443PP      PP15547  14.382   9.724  12.963
 5444PP      PP15548   4.154   4.998   4.372
 5445PP      PP15549   9.544  12.377   2.792
 5446PP      PP15550   7.640  11.274   9.432
 5447PP      PP15551  14.146   0.440   2.613
 5448PP      PP15552   1.724  10.548  11.263
 5449PP      PP15553  13.498   0.975  12.879
 5450PP      PP15554  10.320   5.908   1.694
 5451PP      PP15555   5.644   1.042   5.086
 5452PP      PP15556   7.161   5.585   9.445
 5453PP      PP15557   3.594  14.457   3.158
 5454PP      PP15558   6.329  12.408   3.704
 5455PP      PP15559   0.855  14.881  11.526
 5456PP      PP15560   2.919   3.010   0.421
 5457PP      PP15561   8.319  14.371  11.980
 5458PP      PP15562   9.078  15.344   2.450
 5459PP      PP15563   6.766   1.681  13.185
 5460PP      PP15564  11.437   1.017   1.085
 5461PP      PP15565  12.703   7.712   1.191
 5462PP      PP15566  15.568   3.991   1.932
 5463PP      PP15567  12.446   9.479   0.442
 5464PP      PP15568   0.499   7.764   8.929
 5465PP      PP15569   6.809   4.902   9.933
 5466PP      PP15570   0.819   5.664  11.901
 5467PP      PP15571   0.073   9.273  10.773
 5468PP      PP15572   4.467  11.944   3.571
 5469PP      PP15573   2.089  11.491   9.854
 5470PP      PP15574   5.061   4.378   0.744
 5471PP      PP15575   4.976   5.992   0.709
 5472PP      PP15576   3.297  14.947   3.340
 5473PP      PP15577   5.582   4.820  11.616
 5474PP      PP15578   3.857   7.828   0.883
 5475PP      PP15579   6.893  11.280   2.647
 5476PP      PP15580   6.794   5.904   3.593
 5477PP      PP15581   4.053  11.172   8.737
 5478PP      PP15582   1.094  13.931   4.283
 5479PP      PP15583  13.690  14.096   9.052
 5480PP      PP15584   9.329  12.528   3.728
 5481PP      PP15585  12.740   4.137   9.724
 5482PP      PP15586   8.495  10.016   9.247
 5483PP      PP15587  11.516  10.769  13.496
 5484PP      PP15588  13.902   9.573   2.251
 5485PP      PP15589  13.130  12.349   2.055
 5486PP      PP15590  12.912   1.711  13.265
 5487PP      PP15591  11.061  10.047   9.013
 5488PP      PP15592   0.256   4.521   3.645
 5489PP      PP15593  10.881  10.984  11.045
 5490PP      PP15594   8.618  10.256   8.791
 5491PP      PP15595  15.381  14.621  10.349
 5492PP      PP15596   9.550  13.029   0.983
 5493PP      PP15597   8.469   2.539  12.701
 5494PP      PP15598   8.971   7.902  12.574
 5495PP      PP15599   2.858  15.668   1.852
 5496PP      PP15600   5.118   2.976   4.559
 5497PP      PP15601  10.763  12.151  12.791
 5498PP      PP15602   3.943   0.438  11.454
 5499PP      PP15603   8.464   1.295   3.066
 5500PP      PP15604  14.078   0.552   1.162
 5501PP      PP15605   9.223   3.419  10.827
 5502PP      PP15606  11.450   0.898  10.862
 5503PP      PP15607  15.607   3.055  12.635
 5504PP      PP15608   8.560   6.078   4.167
 5505PP      PP15609   4.483   0.114  12.317
 5506PP      PP15610  14.450   4.565  12.194
 5507PP      PP15611  13.945   9.160  13.161
 5508PP      PP15612  10.988   0.918  13.175
 5509PP      PP15613   1.318   8.621  11.638
 5510PP      PP15614  14.905   9.720  12.944
 5511PP      PP15615  13.094   8.065  13.192
 5512PP      PP15616  11.802  11.978   2.802
 5513PP      PP15617  15.378   8.418   4.229
 5514PP      PP15618   3.576   7.670  12.452
 5515PP      PP15619  10.488  15.230   4.885
 5516PP      PP15620   8.117  10.581   0.379
 5517PP      PP15621   8.122   8.583   1.433
 5518PP      PP15622   4.469   7.337  11.193
 5519PP      PP15623   2.497   6.401  12.128
 5520PP      PP15624   1.123   8.799  12.077
 5521PP      PP15625   3.528   9.195   1.451
 5522PP      PP15626  12.903   4.336   4.097
 5523PP      PP15627  10.624   0.537   0.509
 5524PP      PP15628   8.820   5.678  10.159
 5525PP      PP15629   5.588   3.781   9.618
 5526PP      PP15630   1.553   8.678  12.476
 5527PP      PP15631   5.132   0.635   2.895
 5528PP      PP15632   2.414   6.105  13.263
 5529PP      PP15633  12.847  15.116  10.453
 5530PP      PP15634  12.046  12.634  13.310
 5531PP      PP15635   5.110  10.951   8.320
 5532PP      PP15636  11.089   2.788   3.779
 5533PP      PP15637  14.474   8.083  11.194
 5534PP      PP15638   2.876  14.428  11.750
 5535PP      PP15639   4.765  10.460   8.307
 5536PP      PP15640   0.394  14.816   1.934
 5537PP      PP15641  12.513   8.210   9.684
 5538PP      PP15642   7.096  10.884  10.706
 5539PP      PP15643  10.075   1.059   2.720
 5540PP      PP15644   4.569   1.394   4.483
 5541PP      PP15645  15.801   3.544   1.788
 5542PP      PP15646   7.283   8.697  10.885
 5543PP      PP15647   7.544   0.347  11.860
 5544PP      PP15648   9.739   4.030  11.662
 5545PP      PP15649  11.261   4.452   0.410
 5546PP      PP15650   1.331   7.175   0.843
 5547PP      PP15651  12.460   1.120  11.321
 5548PP      PP15652   8.815  10.641   2.293
 5549PP      PP15653   4.352   3.414   1.263
 5550PP      PP15654  13.887  13.649  10.017
 5551PP      PP15655   2.267   7.327   1.067
 5552PP      PP15656  11.885  13.025  12.932
 5553PP      PP15657   6.126   9.331   3.906
 5554PP      PP15658   2.925  12.731  10.461
 5555PP      PP15659   9.671  10.571  12.377
 5556PP      PP15660   5.155   0.136   3.093
 5557PP      PP15661  11.187  10.192   0.920
 5558PP      PP15662   1.564  11.033  11.427
 5559PP      PP15663   0.483   5.114   3.026
 5560PP      PP15664  14.107  14.145   1.374
 5561PP      PP15665  15.039   1.734  12.647
 5562PP      PP15666  14.513   1.038   9.697
 5563PP      PP15667   7.112  14.467  13.415
 5564PP      PP15668  13.002  11.164   1.582
 5565PP      PP15669   6.521   8.403   1.389
 5566PP      PP15670   0.043   1.536   3.840
 5567PP      PP15671  14.408  12.488   1.436
 5568PP      PP15672   9.180   3.882  11.668
 5569PP      PP15673  10.254  13.070  11.230
 5570PP      PP15674   6.088   3.865   4.444
 5571PP      PP15675   3.088  15.053   2.053
 5572PP      PP15676  10.032  11.900   0.347
 5573PP      PP15677  15.802  11.805  10.009
 5574PP      PP15678   5.004   9.588  11.335
 5575PP      PP15679   3.656   8.471   2.111
 5576PP      PP15680   3.772  13.139  13.101
 5577PP      PP15681   7.216   5.218   9.813
 5578PP      PP15682   8.730  10.067   3.871
 5579PP      PP15683   0.032   8.586   9.345
 5580PP      PP15684  13.267   6.713   3.852
 5581PP      PP15685   8.193   2.679   3.600
 5582PP      PP15686  13.500  15.367   1.727
 5583PP      PP15687   2.997   4.640   3.791
 5584PP      PP15688   6.827   9.555  11.102
 5585PP      PP15689   3.124  11.389   3.194
 5586PP      PP15690   6.946   6.298  13.261
 5587PP      PP15691   4.875  13.839  12.666
 5588PP      PP15692   3.641  15.298  10.904
 5589PP      PP15693  10.368   8.250   8.381
 5590PP      PP15694   4.007   5.734   9.543
 5591PP      PP15695   4.740   0.173   4.423
 5592PP      PP15696   8.918  14.131   5.260
 5593PP      PP15697   9.853  14.020   2.501
 5594PP      PP15698   2.655   3.943  12.440
 5595PP      PP15699   2.063   9.438  13.581
 5596PP      PP15700   7.949  10.222   1.207
 5597PP      PP15701   2.001  10.341  12.102
 5598PP      PP15702  10.076   4.656   3.771
 5599PP      PP15703   1.760  11.052  13.550
 5600PP      PP15704   8.682   5.608   0.904
 5601PP      PP15705   1.882   6.622   2.971
 5602PP      PP15706  13.878  11.811   0.533
 5603PP      PP15707  13.667   4.867  12.602
 5604PP      PP15708   7.974   1.507   4.764
 5605PP      PP15709   8.550   0.624  13.191
 5606PP      PP15710   7.362  15.343   9.254
 5607PP      PP15711   2.823   0.007  12.766
 5608PP      PP15712   7.717  14.590  13.130
 5609PP      PP15713   5.161   3.696   3.688
 5610PP      PP15714  13.239   5.705   3.898
 5611PP      PP15715   1.579   4.884   9.006
 5612PP      PP15716   0.183   2.512   3.778
 5613PP      PP15717  13.475   7.856   2.555
 5614PP      PP15718   3.912   9.905   2.876
 5615PP      PP15719   2.902   3.657  10.389
 5616PP      PP15720  11.189   9.190   1.662
 5617PP      PP15721   0.210  11.062  13.388
 5618PP      PP15722   1.959   3.072   3.384
 5619PP      PP15723  12.852   6.937   2.633
 5620PP      PP15724   5.174  10.317   8.857
 5621PP      PP15725   0.622  12.529   3.316
 5622PP      PP15726   7.320   6.672  13.124
 5623PP      PP15727   6.920  12.706  11.445
 5624PP      PP15728   7.360   8.521   1.065
 5625PP      PP15729   4.793   4.043   3.515
 5626PP      PP15730   7.295  10.572   0.455
 5627PP      PP15731   1.968  13.157   9.248
 5628PP      PP15732   6.142   0.944   4.859
 5629PP      PP15733  15.407   5.984  12.566
 5630PP      PP15734  15.719   9.868   0.578
 5631PP      PP15735   9.081   9.000   8.875
 5632PP      PP15736  14.607  14.481   9.762
 5633PP      PP15737   0.198   2.548   2.276
 5634PP      PP15738   0.992   9.851  13.295
 5635PP      PP15739  14.053   0.266  10.746
 5636PP      PP15740   2.508   4.998  12.382
 5637PP      PP15741   1.990  12.674   3.680
 5638PP      PP15742  12.320   0.567   9.907
 5639PP      PP15743   3.824  15.483   1.862
 5640PP      PP15744   3.355   4.993   9.062
 5641PP      PP15745   2.727   4.350   1.794
 5642PP      PP15746   6.141   0.419   4.854
 5643PP      PP15747   0.492  14.333   0.547
 5644PP      PP15748   4.280   0.293   0.408
 5645PP      PP15749   6.013  12.119   1.127
 5646PP      PP15750   2.570  15.237  12.521
 5647PP      PP15751   7.689   5.095  12.027
 5648PP      PP15752  12.745  12.148   1.783
 5649PP      PP15753   6.253   7.534   8.582
 5650PP      PP15754   8.617   1.042  11.706
 5651PP      PP15755  15.419  12.551  12.361
 5652PP      PP15756   6.346  11.736   1.013
 5653PP      PP15757   2.351  12.079   3.270
 5654PP      PP15758   2.224   0.064  10.002
 5655PP      PP15759  11.238   4.409  10.091
 5656PP      PP15760   1.418  15.523   4.657
 5657PP      PP15761   1.408  13.747   3.204
 5658PP      PP15762  10.838  13.590  12.367
 5659PP      PP15763  15.105   6.257  12.879
 5660PP      PP15764   3.480  12.582   8.882
 5661PP      PP15765   1.173  15.310  13.201
 5662PP      PP15766   1.496   1.208   1.886
 5663PP      PP15767   1.455  11.050  10.147
 5664PP      PP15768  10.526   5.004   9.363
 5665PP      PP15769  11.448   2.909   2.433
 5666PP      PP15770   2.043   3.466  12.046
 5667PP      PP15771  13.490   2.232   0.607
 5668PP      PP15772   4.059   8.513   1.771
 5669PP      PP15773   5.799   4.774  10.204
 5670PP      PP15774   5.118   6.027  10.404
 5671PP      PP15775  10.791  15.567   3.275
 5672PP      PP15776   9.864   7.707  10.059
 5673PP      PP15777   3.200   9.658   2.319
 5674PP      PP15778   2.264  13.076  11.723
 5675PP      PP15779   3.114   9.501  12.265
 5676PP      PP15780   6.010   3.458  10.997
 5677PP      PP15781   2.577   3.044   4.041
 5678PP      PP15782   3.083   4.912  10.831
 5679PP      PP15783   7.144  14.005   4.822
 5680PP      PP15784  15.605   5.831   2.692
 5681PP      PP15785   1.654   2.636   1.593
 5682PP      PP15786  15.160   5.459  10.785
 5683PP      PP15787  14.685   0.678   3.912
 5684PP      PP15788   5.741   8.546  11.263
 5685PP      PP15789  12.627   5.568   1.368
 5686PP      PP15790   4.842   7.287   3.107
 5687PP      PP15791   3.873  14.383   2.238
 5688PP      PP15792  12.906   4.845  11.951
 5689PP      PP15793   1.436   4.346  13.439
 5690PP      PP15794  14.907  12.420   1.612
 5691PP      PP15795   8.804   1.624   3.337
 5692PP      PP15796   2.243   8.990  11.287
 5693PP      PP15797  10.685  13.764   4.009
 5694PP      PP15798  13.647   4.162   1.109
 5695PP      PP15799  11.741  11.802   3.803
 5696PP      PP15800   5.403  15.584   4.471
 5697PP      PP15801   9.718  14.842   0.723
 5698PP      PP15802   5.823   7.133   1.114
 5699PP      PP15803  11.356  11.976  12.094
 5700PP      PP15804   1.552  15.444   2.146
 5701PP      PP15805   5.358   5.987   3.943
 5702PP      PP15806  11.830   3.398  12.255
 5703PP      PP15807  12.062   8.849   9.092
 5704PP      PP15808   3.999   5.666   1.882
 5705PP      PP15809  14.331  14.378  12.015
 5706PP      PP15810   3.671   1.234   4.692
 5707PP      PP15811   3.495   5.072   1.185
 5708PP      PP15812   5.973   4.837  12.121
 5709PP      PP15813  10.837  12.774   3.545
 5710PP      PP15814   8.656   7.715  12.183
 5711PP      PP15815   2.879   5.740   0.511
 5712PP      PP15816   5.917  15.113  13.182
 5713PP      PP15817  13.900  13.845  13.508
 5714PP      PP15818   1.170   6.129   3.589
 5715PP      PP15819   3.900   4.324   0.671
 5716PP      PP15820   9.270   1.342   1.573
 5717PP      PP15821   4.963  10.731   1.040
 5718PP      PP15822  15.109  15.762  12.101
 5719PP      PP15823   5.091   3.888  10.184
 5720PP      PP15824  14.433   5.321   2.617
 5721PP      PP15825   0.892   1.714   3.751
 5722PP      PP15826   8.753   3.181   2.116
 5723PP      PP15827   0.640  12.415   0.601
 5724PP      PP15828   5.174   1.603   4.519
 5725PP      PP15829  14.606   6.986   9.367
 5726PP      PP15830   5.114  15.066  10.267
 5727PP      PP15831  13.932   4.732   1.952
 5728PP      PP15832  14.095  14.676   3.860
 5729PP      PP15833   6.016   4.230   0.705
 5730PP      PP15834   2.633  15.386   0.417
 5731PP      PP15835   8.661  14.543  11.615
 5732PP      PP15836   1.952   1.704  11.566
 5733PP      PP15837   8.504   0.145  11.450
 5734PP      PP15838   8.301  10.759   4.241
 5735PP      PP15839  12.518   3.300  10.192
 5736PP      PP15840  14.899   7.848   0.249
 5737PP      PP15841  13.512   2.651  11.711
 5738PP      PP15842   4.268   8.011  10.276
 5739PP      PP15843  10.955  11.957  11.272
 5740PP      PP15844   3.366   4.425  13.067
 5741PP      PP15845  10.144   2.437  11.097
 5742PP      PP15846  12.108   6.902   1.666
 5743PP      PP15847  14.163   1.265   4.074
 5744PP      PP15848   3.190  13.494   8.573
 5745PP      PP15849   2.937  14.265   9.651
 5746PP      PP15850   8.057  13.528   1.392
 5747PP      PP15851  13.041   8.168   1.311
 5748PP      PP15852   1.120   6.612   0.190
 5749PP      PP15853  14.872   3.245  10.057
 5750PP      PP15854  10.550  11.091  11.431
 5751PP      PP15855   5.016   9.797  13.351
 5752PP      PP15856   8.893   7.238   3.621
 5753PP      PP15857   3.222   9.064  11.372
 5754PP      PP15858   2.826   1.061   9.990
 5755PP      PP15859  11.438   0.365   0.602
 5756PP      PP15860  14.913  13.203  10.781
 5757PP      PP15861   8.999  10.425  11.145
 5758PP      PP15862   1.342  15.803   3.969
 5759PP      PP15863  14.541   3.530   9.129
 5760PP      PP15864   9.182   9.509   8.889
 5761PP      PP15865   5.548  15.245  12.763
 5762PP      PP15866   8.273  10.839  11.476
 5763PP      PP15867   1.506   7.904   4.214
 5764PP      PP15868   7.376  15.221   3.387
 5765PP      PP15869   4.974   9.085   3.173
 5766PP      PP15870   2.417  14.491   9.031
 5767PP      PP15871   9.758   2.155   0.252
 5768PP      PP15872   7.161  11.678   4.353
 5769PP      PP15873   9.187   5.025   2.307
 5770PP      PP15874   9.757  12.999   9.501
 5771PP      PP15875   9.876   3.384  12.194
 5772PP      PP15876   6.091   3.915   1.526
 5773PP      PP15877   0.255   2.066   1.032
 5774PP      PP15878   9.056   7.046   9.265
 5775PP      PP15879   8.829   0.523   4.046
 5776PP      PP15880  15.680   0.503  13.422
 5777PP      PP15881  15.490   6.392   3.428
 5778PP      PP15882   8.938  13.891  11.111
 5779PP      PP15883   9.187  13.010   2.622
 5780PP      PP15884  11.204  12.459  13.531
 5781PP      PP15885   9.180   8.680  12.884
 5782PP      PP15886  13.892  13.859   2.637
 5783PP      PP15887   5.741  11.931   0.199
 5784PP      PP15888   7.251   3.953  12.725
 5785PP      PP15889   0.016  15.458   9.851
 5786PP      PP15890  14.953   6.777   2.589
 5787PP      PP15891   3.163   2.542   0.359
 5788PP      PP15892   3.959   9.092   9.849
 5789PP      PP15893   3.008   4.806  12.582
 5790PP      PP15894  15.134  10.628  12.389
 5791PP      PP15895   1.460  13.501   9.953
 5792PP      PP15896   0.212   3.959  12.482
 5793PP      PP15897   1.607   2.575  11.027
 5794PP      PP15898   8.958   3.211   9.728
 5795PP      PP15899  14.523   2.362   3.945
 5796PP      PP15900  10.686   1.764  12.289
 5797PP      PP15901   4.736   7.982   1.195
 5798PP      PP15902  12.476   5.684  10.952
 5799PP      PP15903   8.117   7.223   2.334
 5800PP      PP15904   9.129   7.253   1.543
 5801PP      PP15905   3.832  11.993  11.360
 5802PP      PP15906  10.494   2.304   0.031
 5803PP      PP15907  12.689  13.840  12.806
 5804PP      PP15908   4.340   0.652   2.744
 5805PP      PP15909   0.499   8.139  10.031
 5806PP      PP15910   6.672   4.603   9.539
 5807PP      PP15911   9.340   0.433  11.272
 5808PP      PP15912   4.578   6.556  12.975
 5809PP      PP15913   6.282   0.295   2.763
 5810PP      PP15914   3.544   8.005  11.468
 5811PP      PP15915   3.290   3.974   3.665
 5812PP      PP15916   6.715   2.523  10.584
 5813PP      PP15917   6.553  13.690   0.844
 5814PP      PP15918   1.772  12.965  11.882
 5815PP      PP15919   0.095  10.254  10.574
 5816PP      PP15920   1.230   5.451   9.221
 5817PP      PP15921   6.479  10.944  13.027
 5818PP      PP15922   7.097  12.959   0.718
 5819PP      PP15923  12.134   6.301   8.562
 5820PP      PP15924   5.507   6.081  11.825
 5821PP      PP15925   8.468   8.905   2.327
 5822PP      PP15926   9.566  15.592  12.500
 5823PP      PP15927  14.581   3.528   0.580
 5824PP      PP15928   7.885  13.373   4.761
 5825PP      PP15929   9.640   7.497  11.452
 5826PP      PP15930  10.995  14.452   2.427
 5827PP      PP15931  13.029   2.603  12.904
 5828PP      PP15932   5.293   7.325  12.967
 5829PP      PP15933   5.356   4.421  10.356
 5830PP      PP15934  10.942   9.308  12.468
 5831PP      PP15935   1.971   3.295  10.913
 5832PP      PP15936  15.193   7.668   3.728
 5833PP      PP15937   4.681   0.823  12.408
 5834PP      PP15938  10.529   1.850   2.203
 5835PP      PP15939   9.296  12.105   9.850
 5836PP      PP15940   5.897  15.536   9.743
 5837PP      PP15941   9.023   3.678   2.172
 5838PP      PP15942  13.033   0.329  13.363
 5839PP      PP15943   1.462   3.888   3.005
 5840PP      PP15944  13.619   1.778   0.328
 5841PP      PP15945   5.604  13.315   1.469
 5842PP      PP15946  10.605   0.976   9.621
 5843PP      PP15947   2.045   8.975  10.152
 5844PP      PP15948  14.531  15.251  11.693
 5845PP      PP15949   1.566  14.606   4.818
 5846PP      PP15950  10.051  13.378  11.622
 5847PP      PP15951  11.762   0.217  11.522
 5848PP      PP15952   2.118  13.481   2.615
 5849PP      PP15953  10.604  12.922  10.441
 5850PP      PP15954  15.435   7.151  10.744
 5851PP      PP15955   5.171   4.355   0.243
 5852PP      PP15956   0.564   1.783  10.896
 5853PP      PP15957   1.805  15.732  11.438
 5854PP      PP15958  12.812   6.105   8.552
 5855PP      PP15959  10.007  11.303   3.099
 5856PP      PP15960   1.401  12.743  11.012
 5857PP      PP15961   3.799   7.874  13.531
 5858PP      PP15962   0.231   1.856   1.539
 5859PP      PP15963  14.462   6.140   0.648
 5860PP      PP15964  11.364   4.480  13.513
 5861PP      PP15965   5.016  12.203   3.382
 5862PP      PP15966   0.435   1.264   2.202
 5863PP      PP15967   7.850  15.648   2.231
 5864PP      PP15968   6.524   2.197   1.190
 5865PP      PP15969  12.882  14.698   0.633
 5866PP      PP15970  14.248   7.013  11.277
 5867PP      PP15971  14.120  15.480  13.231
 5868PP      PP15972   2.441   0.547   9.913
 5869PP      PP15973   7.711  14.731   0.867
 5870PP      PP15974   9.968   2.664  12.838
 5871PP      PP15975   9.361  10.871   3.929
 5872PP      PP15976   2.230   5.260  10.849
 5873PP      PP15977  12.864   9.770   0.457
 5874PP      PP15978   2.536   9.554   9.169
 5875PP      PP15979  15.166  13.619   2.915
 5876PP      PP15980  12.350   5.121   1.106
 5877PP      PP15981   3.099   1.553   0.864
 5878PP      PP15982   7.034  12.198  11.364
 5879PP      PP15983   5.740   6.046  12.286
 5880PP      PP15984   9.997   2.445  11.859
 5881PP      PP15985  13.130   1.002   0.760
 5882PP      PP15986   8.917   9.686   1.055
 5883PP      PP15987   8.646   1.722   2.848
 5884PP      PP15988  11.937  11.849  12.191
 5885PP      PP15989  10.877   0.710  11.672
 5886PP      PP15990   8.952  13.137   0.014
 5887PP      PP15991  11.817   2.399   3.356
 5888PP      PP15992   8.580   1.150   9.493
 5889PP      PP15993  12.304   7.669   8.789
 5890PP      PP15994   0.215  12.633   0.422
 5891PP      PP15995  14.057   6.353   9.490
 5892PP      PP15996   3.833   4.414   4.765
 5893PP      PP15997  12.387   7.407   0.841
 5894PP      PP15998  14.781   9.564   9.948
 5895PP      PP15999  14.071   7.156   2.149
 5896PP      PP16000   7.635   2.577  12.018
 5897PP      PP16001   3.584   9.731   0.641
 5898PP      PP16002   7.602  13.029  10.972
 5899PP      PP16003  11.519   2.341   0.599
 5900PP      PP16004   2.546  11.043  10.995
 5901PP      PP16005  15.736  13.916   4.808
 5902PP      PP16006  15.339   4.773  11.923
 5903PP      PP16007  10.250  13.293   0.356
 5904PP      PP16008   9.759   6.554   2.253
 5905PP      PP16009  14.062   1.560  12.127
 5906PP      PP16010   8.585   6.587   2.852
 5907PP      PP16011   0.917  13.520  11.939
 5908PP      PP16012  13.527   5.581  11.922
 5909PP      PP16013   3.020  14.160   0.677
 5910PP      PP16014  12.486   6.178  11.122
 5911PP      PP16015   6.543   3.327   3.608
 5912PP      PP16016   3.118   5.361  11.108
 5913PP      PP16017  11.478   3.467  10.060
 5914PP      PP16018  15.374   7.673   2.187
 5915PP      PP16019  10.055   5.676   3.291
 5916PP      PP16020  12.151  15.734   4.184
 5917PP      PP16021   0.264   0.143  12.198
 5918PP      PP16022   5.518   2.187  11.266
 5919PP      PP16023   7.381  14.699  11.959
 5920PP      PP16024   6.055   1.994   4.482
 5921PP      PP16025  12.922   2.958   2.042
 5922PP      PP16026   1.254   0.674  10.780
 5923PP      PP16027   9.437   9.184   9.214
 5924PP      PP16028  11.168  10.517   2.075
 5925PP      PP16029  12.651  15.124  12.240
 5926PP      PP16030  12.445  14.581  11.783
 5927PP      PP16031   1.226   6.347  10.336
 5928PP      PP16032   7.449   5.289  11.348
 5929PP      PP16033   2.791   7.586  13.495
 5930PP      PP16034  11.345   1.992   1.557
 5931PP      PP16035   6.191  12.193  12.366
 5932PP      PP16036   3.793   4.187  12.306
 5933PP      PP16037   3.399   7.760   8.675
 5934PP      PP16038  11.219  12.170  13.055
 5935PP      PP16039  11.625   5.449  11.258
 5936PP      PP16040   2.515   1.548  12.344
 5937PP      PP16041   4.132   4.837  11.864
 5938PP      PP16042  15.345   4.411  11.287
 5939PP      PP16043  10.468  15.006   0.253
 5940PP      PP16044  11.591  12.829  10.601
 5941PP      PP16045   2.387  14.842   3.215
 5942PP      PP16046  12.582  12.769   3.300
 5943PP      PP16047   7.696   6.551  12.086
 5944PP      PP16048   9.931  11.593   1.658
 5945PP      PP16049  10.457   5.990  10.447
 5946PP      PP16050  11.347  12.651   9.356
 5947PP      PP16051   3.812   5.244   3.167
 5948PP      PP16052  14.960  12.100   3.604
 5949PP      PP16053   6.171   6.673   2.517
 5950PP      PP16054   9.909   4.589   2.805
 5951PP      PP16055  14.973  15.828  11.174
 5952PP      PP16056  11.057   2.172   0.775
 5953PP      PP16057  11.823   5.192   0.166
 5954PP      PP16058  10.956   9.127   9.055
 5955PP      PP16059  10.116  11.329  12.367
 5956PP      PP16060   7.028  12.876   3.779
 5957PP      PP16061   8.211   0.420  12.471
 5958PP      PP16062   1.111  11.585   1.267
 5959PP      PP16063   2.268   7.923   9.837
 5960PP      PP16064   2.667   2.895   9.785
 5961PP      PP16065   5.739   9.655  12.108
 5962PP      PP16066   8.500   1.109   1.117
 5963PP      PP16067   0.351   1.886   9.873
 5964PP      PP16068   4.238   9.033   0.407
 5965PP      PP16069   2.999  12.397   9.725
 5966PP      PP16070   5.425  11.226   9.410
 5967PP      PP16071   0.037   1.550   9.615
 5968PP      PP16072  15.180   8.904   4.156
 5969PP      PP16073   0.522   7.798   1.278
 5970PP      PP16074   8.847  10.531   9.170
 5971PP      PP16075  14.332  12.302   1.897
 5972PP      PP16076   0.660   7.566  13.081
 5973PP      PP16077  13.043   4.441   9.378
 5974PP      PP16078   0.715  10.474   1.805
 5975PP      PP16079   1.477  13.946   9.237
 5976PP      PP16080   0.590   8.859  10.082
 5977PP      PP16081  10.199   0.560   4.611
 5978PP      PP16082   6.024  15.022   9.490
 5979PP      PP16083   7.004  12.690   1.166
 5980PP      PP16084  12.671   2.676   3.042
 5981PP      PP16085   2.782   7.014  13.383
 5982PP      PP16086  10.315   9.978   1.683
 5983PP      PP16087   3.784  11.043  11.554
 5984PP      PP16088   5.111   9.442   1.809
 5985PP      PP16089   9.102  13.622  11.546
 5986PP      PP16090   4.008   4.602   1.680
 5987PP      PP16091   9.366   5.338   1.053
 5988PP      PP16092   8.389   7.938   1.028
 5989PP      PP16093  15.236  13.919   3.357
 5990PP      PP16094   9.435   8.704  12.319
 5991PP      PP16095  12.970   5.850   0.615
 5992PP      PP16096  13.097  11.375   8.945
 5993PP      PP16097   5.325  11.461   4.038
 5994PP      PP16098   6.136   6.019  11.808
 5995PP      PP16099   5.094  14.996  12.902
 5996PP      PP16100  12.597   0.629  11.127
 5997PP      PP16101   1.800   9.999   9.385
 5998PP      PP16102  14.088  14.571  11.213
 5999PP      PP16103   3.029  12.307   4.025
 6000PP      PP16104   5.240   5.498  10.354
 6001PP      PP16105   5.824  11.158   9.741
 6002PP      PP16106  13.192  10.862   2.432
 6003PP      PP16107   7.148   7.064  12.801
 6004PP      PP16108   8.170  11.286   2.075
 6005PP      PP16109   4.845   8.247  11.555
 6006PP      PP16110  10.387   5.238   3.206
 6007PP      PP16111   0.731   5.679   5.196
 6008PP      PP16112   2.758   4.068  10.089
 6009PP      PP16113   4.911   1.372  11.264
 6010PP      PP16114   7.990  13.381  10.092
 6011PP      PP16115   1.633  12.693  10.540
 6012PP      PP16116   1.172   1.062  11.668
 6013PP      PP16117   0.364   1.494  12.250
 6014PP      PP16118   1.209   7.130   0.323
 6015PP      PP16119   3.034   2.000  10.489
 6016PP      PP16120   0.741  14.745  10.940
 6017PP      PP16121   3.377  10.056   2.717
 6018PP      PP16122   3.260   5.295   0.768
 6019PP      PP16123  14.199   7.720  12.144
 6020PP      PP16124   8.233  10.569   2.904
 6021PP      PP16125   1.164   2.846   9.602
 6022PP      PP16126   5.460   8.602  10.046
 6023PP      PP16127   7.731  10.372  12.213
 6024PP      PP16128   5.648   3.121   1.946
 6025PP      PP16129   6.149  14.660   9.872
 6026PP      PP16130   3.706   0.092   5.346
 6027PP      PP16131   8.005  13.211   0.949
 6028PP      PP16132   1.715   8.918   3.919
 6029PP      PP16133  14.143   6.799   9.227
 6030PP      PP16134   3.985   6.452  10.800
 6031PP      PP16135   3.413   4.502  12.553
 6032PP      PP16136   5.885  10.556  10.763
 6033PP      PP16137   5.754  13.632   9.610
 6034PP      PP16138  10.263  12.382   1.553
 6035PP      PP16139  14.569  11.121  12.189
 6036PP      PP16140  12.776   1.034   4.117
 6037PP      PP16141   7.206  12.583  10.593
 6038PP      PP16142  13.292   5.024   0.337
 6039PP      PP16143   5.064   2.092  12.953
 6040PP      PP16144   2.634  13.303   1.711
 6041PP      PP16145   2.308   5.758   1.792
 6042PP      PP16146   4.127   4.024   9.664
 6043PP      PP16147   7.134   8.201   2.793
 6044PP      PP16148   6.740   4.188  12.441
 6045PP      PP16149  13.440   6.110  11.989
 6046PP      PP16150  13.567  11.724   2.278
 6047PP      PP16151   8.422   4.465   9.033
 6048PP      PP16152   1.458  15.524   0.005
 6049PP      PP16153   0.640   4.735   0.084
 6050PP      PP16154   3.158   7.648  10.707
 6051PP      PP16155   9.185   7.037   9.785
 6052PP      PP16156   8.431  10.276   3.507
 6053PP      PP16157  13.133   7.511   9.430
 6054PP      PP16158   1.247   4.038   2.524
 6055PP      PP16159   6.312   0.818  11.639
 6056PP      PP16160  10.518   2.059   3.306
 6057PP      PP16161   8.665   5.109  10.476
 6058PP      PP16162   8.597   4.446   0.083
 6059PP      PP16163   6.248  13.311   3.958
 6060PP      PP16164   8.773   6.724   4.198
 6061PP      PP16165   8.167   0.569   4.837
 6062PP      PP16166   2.635   0.578  11.529
 6063PP      PP16167  11.373  10.901  13.019
 6064PP      PP16168   9.625   2.074   3.170
 6065PP      PP16169  15.785  11.657  11.243
 6066PP      PP16170   3.969  15.044   2.254
 6067PP      PP16171   8.033  15.769   4.620
 6068PP      PP16172   7.928   7.862   3.619
 6069PP      PP16173   7.459  13.790   3.360
 6070PP      PP16174  12.706   4.336   0.727
 6071PP      PP16175   6.269   9.415   3.185
 6072PP      PP16176  14.349  13.708  12.695
 6073PP      PP16177   4.814  14.145   9.467
 6074PP      PP16178   4.101   4.351   3.707
 6075PP      PP16179  12.972  13.069  12.590
 6076PP      PP16180   8.969  14.618   2.812
 6077PP      PP16181  14.275   2.661   2.062
 6078PP      PP16182   8.158   6.156   9.463
 6079PP      PP16183  14.930   6.443   9.862
 6080PP      PP16184   9.373   6.697   4.257
 6081PP      PP16185   3.134  10.929  13.493
 6082PP      PP16186   1.250   9.245  11.229
 6083PP      PP16187   6.511   8.684  13.439
 6084PP      PP16188   0.152   0.501   2.666
 6085PP      PP16189  13.230   3.978   9.536
 6086PP      PP16190   6.830  14.907  12.862
 6087PP      PP16191   0.605   4.886  11.877
 6088PP      PP16192   1.581   6.612   2.087
 6089PP      PP16193   3.355  12.831   9.777
 6090PP      PP16194  14.298   5.748   3.026
 6091PP      PP16195   4.286   9.504  10.703
 6092PP      PP16196   4.594   2.932   2.060
 6093PP      PP16197   1.075  15.694   0.330
 6094PP      PP16198  11.190  13.871   4.141
 6095PP      PP16199   6.567   6.941  12.014
 6096PP      PP16200  10.047   9.041   9.999
 6097PP      PP16201   0.856  14.791   9.066
 6098PP      PP16202   8.791   0.971  13.504
 6099PP      PP16203   1.664  10.875   9.693
 6100PP      PP16204  10.272  14.268  10.674
 6101PP      PP16205   9.769   3.913   3.286
 6102PP      PP16206  13.747  10.511   1.943
 6103PP      PP16207   6.134  15.644  11.985
 6104PP      PP16208   9.021   5.252   3.270
 6105PP      PP16209   9.980  10.653  11.932
 6106PP      PP16210  15.249   0.196   9.281
 6107PP      PP16211   3.583  13.294  12.637
 6108PP      PP16212  13.560   5.561   4.277
 6109PP      PP16213  10.228  14.031   0.481
 6110PP      PP16214   8.157  14.910   1.074
 6111PP      PP16215  14.480   5.569   9.062
 6112PP      PP16216   5.721   9.359   9.629
 6113PP      PP16217   9.038  11.700   9.599
 6114PP      PP16218  11.738  10.742   0.359
 6115PP      PP16219   2.015   3.253   1.083
 6116PP      PP16220   9.796   9.461  12.925
 6117PP      PP16221   5.688   8.191   0.923
 6118PP      PP16222   7.224   8.884   2.196
 6119PP      PP16223   3.896  11.140   9.744
 6120PP      PP16224  12.815   1.278  12.978
 6121PP      PP16225   2.836   2.018   9.982
 6122PP      PP16226  12.979   4.841   4.249
 6123PP      PP16227  15.315   6.985   0.355
 6124PP      PP16228  13.828   4.458  10.577
 6125PP      PP16229   3.566   6.044   2.119
 6126PP      PP16230  12.359   7.909   9.273
 6127PP      PP16231   1.841   3.574   9.975
 6128PP      PP16232   6.770   5.412   3.320
 6129PP      PP16233   3.482   2.481   0.777
 6130PP      PP16234   8.982  15.749   1.374
 6131PP      PP16235   7.972   9.446   1.809
 6132PP      PP16236   2.436  12.026  10.166
 6133PP      PP16237  15.534   7.881  11.459
 6134PP      PP16238   0.435   8.906   4.100
 6135PP      PP16239  15.569   1.055   3.809
 6136PP      PP16240   3.597   1.844   1.927
 6137PP      PP16241   0.276  15.480  11.515
 6138PP      PP16242   3.232   7.912   9.416
 6139PP      PP16243  10.495   3.775   3.112
 6140PP      PP16244   4.745   1.096   0.469
 6141PP      PP16245   4.843   1.672   3.571
 6142PP      PP16246   0.003  14.441   9.742
 6143PP      PP16247  14.044   1.485   0.707
 6144PP      PP16248  13.576   3.707   3.210
 6145PP      PP16249   5.659   6.416   1.760
 6146PP      PP16250   3.686   7.225  11.249
 6147PP      PP16251   2.630  15.311  11.111
 6148PP      PP16252  13.980  15.581   9.950
 6149PP      PP16253   4.646   9.023   0.035
 6150PP      PP16254  13.125   3.490   1.968
 6151PP      PP16255  15.740   1.441  12.016
 6152PP      PP16256  15.374   7.995  10.966
 6153PP      PP16257   4.201   1.489   8.855
 6154PP      PP16258  12.687   3.405   2.239
 6155PP      PP16259  10.758  13.942   2.269
 6156PP      PP16260  10.884   8.764  12.751
 6157PP      PP16261   0.522   6.854  10.707
 6158PP      PP16262  12.855   4.278  11.641
 6159PP      PP16263  15.333  14.106   2.772
 6160PP      PP16264  10.872  15.435  12.763
 6161PP      PP16265   9.621  10.517   2.752
 6162PP      PP16266   5.553  14.981   9.285
 6163PP      PP16267   2.456  10.095  10.545
 6164PP      PP16268   2.935  10.302   9.750
 6165PP      PP16269  11.647  15.706  11.054
 6166PP      PP16270  15.316   4.682   4.125
 6167PP      PP16271   8.492  12.060  10.681
 6168PP      PP16272   6.374  10.474  10.574
 6169PP      PP16273  15.803   3.294  11.114
 6170PP      PP16274  14.301   2.458   1.571
 6171PP      PP16275   6.700   8.937   9.587
 6172PP      PP16276   6.543  13.987  13.388
 6173PP      PP16277   0.810   2.879  10.033
 6174PP      PP16278   6.921   5.898   1.662
 6175PP      PP16279  10.007   9.143   2.734
 6176PP      PP16280   7.277  15.294  12.759
 6177PP      PP16281  11.343   4.228  11.587
 6178PP      PP16282  14.101   0.459   9.593
 6179PP      PP16283   2.040   2.553   1.941
 6180PP      PP16284  13.012   1.462   0.585
 6181PP      PP16285   7.303  12.345  13.408
 6182PP      PP16286   9.484   1.198   0.417
 6183PP      PP16287   0.769  14.162   4.623
 6184PP      PP16288   8.864   7.651   0.437
 6185PP      PP16289   5.908   4.723   1.507
 6186PP      PP16290  13.670   4.814   3.090
 6187PP      PP16291   3.091   7.717  12.640
 6188PP      PP16292  10.945  10.795  12.257
 6189PP      PP16293  10.950   9.059   2.459
 6190PP      PP16294   2.295  13.880   4.347
 6191PP      PP16295   1.554   5.868   9.410
 6192PP      PP16296   2.615  11.569  10.898
 6193PP      PP16297   3.769  13.140  11.035
 6194PP      PP16298   0.434   8.606  12.125
 6195PP      PP16299   4.508  12.113   2.161
 6196PP      PP16300   4.731   0.222   9.245
 6197PP      PP16301   9.438   1.171  10.802
 6198PP      PP16302   9.428   2.664  13.116
 6199PP      PP16303   0.451   1.942   2.945
 6200PP      PP16304   2.884   3.545   2.717
 6201PP      PP16305   8.411  12.813   9.707
 6202PP      PP16306   1.712  12.762   0.336
 6203PP      PP16307   4.885   7.098   3.807
 6204PP      PP16308   0.307   5.553   8.801
 6205PP      PP16309  14.255  15.130   3.647
 6206PP      PP16310   8.022  12.835  13.272
 6207PP      PP16311  15.095   5.324  11.275
 6208PP      PP16312   8.941   5.742   4.029
 6209PP      PP16313   8.567  13.661   0.313
 6210PP      PP16314   9.665   3.792   0.869
 6211PP      PP16315  14.997   8.159   2.497
 6212PP      PP16316  12.429   7.941  13.554
 6213PP      PP16317   6.569   1.415   3.500
 6214PP      PP16318   7.417   0.350  12.365
 6215PP      PP16319  14.281   0.707  10.015
 6216PP      PP16320  14.075   5.612  12.141
 6217PP      PP16321   4.706   3.387   4.447
 6218PP      PP16322  10.772   2.869   9.511
 6219PP      PP16323  15.123  14.941   3.370
 6220PP      PP16324   7.329   3.383  12.702
 6221PP      PP16325  15.551   3.667  10.645
 6222PP      PP16326   4.860   0.093   1.314
 6223PP      PP16327   4.192  14.696   1.953
 6224PP      PP16328   6.290   1.851   0.873
 6225PP      PP16329   8.616  10.444   1.046
 6226PP      PP16330   0.513   1.762   2.058
 6227PP      PP16331   0.621   7.249  12.138
 6228PP      PP16332   2.306   7.395  10.758
 6229PP      PP16333   3.891  11.734   9.505
 6230PP      PP16334   6.045   3.059   1.418
 6231PP      PP16335  12.863  13.407   0.820
 6232PP      PP16336   6.267   5.039   0.168
 6233PP      PP16337   3.892   4.801   0.246
 6234PP      PP16338   8.512  11.540  12.985
 6235PP      PP16339  14.015  15.374  10.438
 6236PP      PP16340  14.480   1.738  11.852
 6237PP      PP16341   7.473  13.576   2.246
 6238PP      PP16342   1.801   9.778   9.865
 6239PP      PP16343   9.794   4.235   8.435
 6240PP      PP16344  12.963  12.747   4.308
 6241PP      PP16345  10.282   6.560   3.073
 6242PP      PP16346  11.632   8.101   0.950
 6243PP      PP16347   2.284   8.954   1.692
 6244PP      PP16348   5.327   9.935   0.129
 6245PP      PP16349   4.262  13.152  10.765
 6246PP      PP16350   2.104  12.558  12.099
 6247PP      PP16351  11.464   4.903   0.353
 6248PP      PP16352   4.078  13.543  12.720
 6249PP      PP16353   3.695   5.766   3.038
 6250PP      PP16354   8.089   9.286   2.293
 6251PP      PP16355   7.247   1.747   4.299
 6252PP      PP16356   8.166   2.712   0.235
 6253PP      PP16357  10.507  12.363   9.955
 6254PP      PP16358  14.184   5.860   9.382
 6255PP      PP16359  15.767   1.283  12.978
 6256PP      PP16360   0.331   0.378   3.135
 6257PP      PP16361  13.490  12.857   2.008
 6258PP      PP16362   9.388   8.484  10.937
 6259PP      PP16363   5.256  10.083  10.878
 6260PP      PP16364   5.030  14.875   2.282
 6261PP      PP16365   5.958   4.544  13.028
 6262PP      PP16366   6.787   9.998  11.393
 6263PP      PP16367  13.286   0.172   4.432
 6264PP      PP16368   5.926   9.555   1.251
 6265PP      PP16369  14.792  15.006  11.292
 6266PP      PP16370   5.896  12.870  10.467
 6267PP      PP16371   3.726   8.992   2.270
 6268PP      PP16372   6.411   7.229   8.975
 6269PP      PP16373  11.418   1.639   1.981
 6270PP      PP16374  13.852   3.787  12.483
 6271PP      PP16375   5.371  12.477  11.035
 6272PP      PP16376   7.188   6.671  10.824
 6273PP      PP16377   5.599  10.493   3.610
 6274PP      PP16378   9.812   0.226  11.836
 6275PP      PP16379   8.489  11.005  12.298
 6276PP      PP16380  12.316   6.651  13.080
 6277PP      PP16381  15.651   5.417  11.180
 6278PP      PP16382   2.932   8.214  12.455
 6279PP      PP16383   8.462   5.272   9.346
 6280PP      PP16384   8.709   2.817  10.919
 6281PP      PP16385  10.789   6.516   3.184
 6282PP      PP16386   3.863   2.727  10.921
 6283PP      PP16387   5.868  13.522  12.861
 6284PP      PP16388  15.646   9.526   3.768
 6285PP      PP16389   9.105  10.199  11.701
 6286PP      PP16390  12.862  11.203  12.814
 6287PP      PP16391  13.244  12.047  11.549
 6288PP      PP16392   0.797   5.017   9.198
 6289PP      PP16393   2.184   2.970  10.002
 6290PP      PP16394   4.837   5.948   0.176
 6291PP      PP16395   6.977   2.875  10.892
 6292PP      PP16396   9.514   3.686  11.307
 6293PP      PP16397  15.823   7.493  11.216
 6294PP      PP16398   1.543  13.758   5.039
 6295PP      PP16399   2.243  13.901   8.367
 6296PP      PP16400   1.191  10.280  11.165
 6297PP      PP16401   6.919   1.070  12.472
 6298PP      PP16402  12.015   1.377   3.293
 6299PP      PP16403  11.866   9.307   2.407
 6300PP      PP16404   5.607   6.217   0.821
 6301PP      PP16405   9.562   3.413   3.159
 6302PP      PP16406   2.223   7.006   3.101
 6303PP      PP16407   6.493   1.732  10.365
 6304PP      PP16408  13.219  12.464   9.136
 6305PP      PP16409  10.512   6.760   9.989
 6306PP      PP16410   0.943  12.275   9.609
 6307PP      PP16411   5.329   6.475   0.129
 6308PP      PP16412   9.712  11.858  10.088
 6309PP      PP16413   8.107  10.740  13.449
 6310PP      PP16414   7.094   1.498   3.457
 6311PP      PP16415  15.000  14.943  13.366
 6312PP      PP16416   5.040   7.578   0.328
 6313PP      PP16417   9.352  11.780   4.785
 6314PP      PP16418   2.067  14.290   8.674
 6315PP      PP16419  14.095   5.120   9.795
 6316PP      PP16420   7.774   5.934   0.744
 6317PP      PP16421  11.428  10.832  10.135
 6318PP      PP16422  12.368   7.844  10.013
 6319PP      PP16423   8.595  11.488   0.939
 6320PP      PP16424   9.820  14.018  13.071
 6321PP      PP16425   1.991   6.175  11.777
 6322PP      PP16426   6.856  10.553  12.077
 6323PP      PP16427  15.738  10.770   0.689
 6324PP      PP16428  12.954   1.745   2.027
 6325PP      PP16429   3.547   7.454   3.629
 6326PP      PP16430  11.838   1.819  10.631
 6327PP      PP16431   5.700  14.874   3.931
 6328PP      PP16432  12.389   6.202   4.026
 6329PP      PP16433   2.900  14.579   8.822
 6330PP      PP16434  12.817   9.336   3.193
 6331PP      PP16435  11.652   4.831   0.832
 6332PP      PP16436   4.501   4.690   1.590
 6333PP      PP16437   7.838  15.260   0.851
 6334PP      PP16438  15.341   8.950   2.524
 6335PP      PP16439   9.698  13.515  11.292
 6336PP      PP16440   6.948  12.436   1.622
 6337PP      PP16441   9.376   3.342   0.719
 6338PP      PP16442   1.539  14.492   3.463
 6339PP      PP16443  12.228   4.007  12.961
 6340PP      PP16444   0.025   1.820   2.328
 6341PP      PP16445  14.740  10.006   9.657
 6342PP      PP16446   6.947  12.593   2.480
 6343PP      PP16447  11.792   5.051   3.115
 6344PP      PP16448  13.331  10.505   0.471
 6345PP      PP16449  11.473   3.550  11.708
 6346PP      PP16450   7.737   2.442  10.802
 6347PP      PP16451   2.544   2.351   1.125
 6348PP      PP16452   2.870   0.275  12.306
 6349PP      PP16453   2.969   3.962   0.767
 6350PP      PP16454  12.154   1.471   9.551
 6351PP      PP16455  15.571  13.046  12.272
 6352PP      PP16456  11.287   1.718   9.267
 6353PP      PP16457   5.862   2.572  10.451
 6354PP      PP16458   2.360  14.516  11.789
 6355PP      PP16459   2.998   4.714   8.815
 6356PP      PP16460   1.777   7.478   0.924
 6357PP      PP16461   5.407   8.957  13.243
 6358PP      PP16462   2.261   0.874   2.404
 6359PP      PP16463  13.569  12.501  11.693
 6360PP      PP16464   7.103   7.435  10.505
 6361PP      PP16465  11.894   6.098   0.512
 6362PP      PP16466   9.933   3.025  10.132
 6363PP      PP16467   6.179  12.566  11.949
 6364PP      PP16468   0.285   2.742   9.344
 6365PP      PP16469  10.665   1.761   3.952
 6366PP      PP16470  11.841   8.954   1.299
 6367PP      PP16471   8.138  12.830   0.589
 6368PP      PP16472   7.523   8.921   1.662
 6369PP      PP16473  13.866  14.456   1.783
 6370PP      PP16474   5.221  14.598   9.347
 6371PP      PP16475   8.942   2.503   0.653
 6372PP      PP16476  15.543  14.268   4.480
 6373PP      PP16477   6.203   4.736  10.523
 6374PP      PP16478   3.314  14.565  11.984
 6375PP      PP16479   6.356  14.183   3.683
 6376PP      PP16480  14.018  15.780  12.381
 6377PP      PP16481   8.695   5.469   2.922
 6378PP      PP16482   1.572   4.852   2.486
 6379PP      PP16483   9.416  14.560   1.072
 6380PP      PP16484   0.748   7.752  11.806
 6381PP      PP16485   0.439   9.916   0.961
 6382PP      PP16486   6.622  12.845  11.953
 6383PP      PP16487   2.804   9.009  13.004
 6384PP      PP16488  11.266  12.037   3.569
 6385PP      PP16489   6.518   1.999   4.173
 6386PP      PP16490   3.838  15.628  11.803
 6387PP      PP16491   3.140   5.805  10.836
 6388PP      PP16492  15.168  15.522   3.429
 6389PP      PP16493   2.409  14.964   0.676
 6390PP      PP16494   2.225  11.406   1.137
 6391PP      PP16495   1.622   3.526   9.519
 6392PP      PP16496  15.825  14.874  12.117
 6393PP      PP16497   6.237   1.588  13.308
 6394PP      PP16498  12.778  10.715   8.534
 6395PP      PP16499   0.331   5.577  11.051
 6396PP      PP16500   7.816   5.812  12.004
 6397PP      PP16501   0.571  11.633   2.497
 6398PP      PP16502   7.298   3.730   1.029
 6399PP      PP16503   5.990   9.981   0.965
 6400PP      PP16504   4.761  10.446   0.620
 6401PP      PP16505   9.304   9.889   0.677
 6402PP      PP16506   6.019   3.038   2.432
 6403PP      PP16507   3.170  11.073  11.613
 6404PP      PP16508   2.233  13.656  13.375
 6405PP      PP16509   2.401  10.272   9.849
 6406PP      PP16510  13.966  13.840   1.810
 6407PP      PP16511   1.441  13.567   0.917
 6408PP      PP16512   7.063   2.248   4.213
 6409PP      PP16513   9.742  15.383   0.510
 6410PP      PP16514   5.706   5.053   0.164
 6411PP      PP16515   0.390   1.955   3.967
 6412PP      PP16516  11.369  10.254  10.006
 6413PP      PP16517  14.578   8.900   0.425
 6414PP      PP16518  11.431   3.189   4.000
 6415PP      PP16519   7.181  11.933   4.817
 6416PP      PP16520   3.666   7.118   1.289
 6417PP      PP16521   9.911   2.131  10.226
 6418PP      PP16522  11.883   7.383   1.656
 6419PP      PP16523   2.944  13.483  10.664
 6420PP      PP16524  12.127   2.710   1.887
 6421PP      PP16525  15.192  15.336   4.359
 6422PP      PP16526  12.909  14.382   3.439
 6423PP      PP16527  15.481   7.288  13.333
 6424PP      PP16528   4.532   5.033   9.483
 6425PP      PP16529   3.373   7.523   3.154
 6426PP      PP16530   2.026   7.624   9.496
 6427PP      PP16531   1.710  11.395  10.444
 6428PP      PP16532   2.434   6.045   0.882
 6429PP      PP16533   9.561  13.307   1.839
 6430PP      PP16534   7.565  11.001  13.373
 6431PP      PP16535   9.402   7.403   3.648
 6432PP      PP16536  12.481  13.389   2.655
 6433PP      PP16537   9.102   3.046  13.378
 6434PP      PP16538   2.890   1.927  11.528
 6435PP      PP16539  11.088  10.134  12.612
 6436PP      PP16540   3.472   0.319  10.267
 6437PP      PP16541   3.869   6.701   9.777
 6438PP      PP16542   4.394  13.307   8.425
 6439PP      PP16543   8.179  13.376   4.261
 6440PP      PP16544   0.920   0.422   4.160
 6441PP      PP16545   0.414   0.983  10.548
 6442PP      PP16546   9.084  13.748   4.013
 6443PP      PP16547   2.888  15.337   4.004
 6444PP      PP16548   6.185   7.422  13.298
 6445PP      PP16549  13.420   9.161  13.475
 6446PP      PP16550   9.599   8.212   0.050
 6447PP      PP16551   3.552  14.372  13.115
 6448PP      PP16552   2.447   6.679  13.148
 6449PP      PP16553   6.483  10.608   9.451
 6450PP      PP16554   2.245   4.130  12.741
 6451PP      PP16555   1.710   3.483   1.744
 6452PP      PP16556  10.391   1.234  12.911
 6453PP      PP16557   6.854  14.962   0.429
 6454PP      PP16558   0.664   5.759  12.374
 6455PP      PP16559   8.419  14.440   4.103
 6456PP      PP16560   6.929  11.068   3.721
 6457PP      PP16561  11.620   1.546   4.151
 6458PP      PP16562  15.560   0.522   3.956
 6459PP      PP16563   6.022   8.634   1.345
 6460PP      PP16564   4.032  12.060  13.059
 6461PP      PP16565   9.058   3.460  11.994
 6462PP      PP16566   1.019   7.624   8.273
 6463PP      PP16567  12.928   1.456  11.398
 6464PP      PP16568   2.056   8.181  11.891
 6465PP      PP16569  13.037   0.428   8.948
 6466PP      PP16570   7.583   5.888   1.228
 6467PP      PP16571   3.629   2.450  12.749
 6468PP      PP16572   0.447   7.674   9.755
 6469PP      PP16573   8.678   8.769   4.173
 6470PP      PP16574  13.941  11.077  10.969
 6471PP      PP16575  10.693   3.742  12.659
 6472PP      PP16576   8.128  10.049   0.737
 6473PP      PP16577   6.780   3.778   9.245
 6474PP      PP16578  14.466  12.765  11.266
 6475PP      PP16579   0.565   2.199   9.516
 6476PP      PP16580  15.301  12.329   9.900
 6477PP      PP16581  15.825   7.503  10.692
 6478PP      PP16582   3.853   1.079  12.969
 6479PP      PP16583   6.587  15.821  12.234
 6480PP      PP16584  13.293   2.375   9.247
 6481PP      PP16585   9.590   8.624  10.400
 6482PP      PP16586   5.325   8.541   0.552
 6483PP      PP16587   1.172   1.733  13.446
 6484PP      PP16588   0.558   5.049   1.822
 6485PP      PP16589   0.341   4.442  11.793
 6486PP      PP16590  10.132   1.354  13.414
 6487PP      PP16591   1.464  14.853   0.757
 6488PP      PP16592  13.721   7.454   0.906
 6489PP      PP16593  11.665  15.499  10.452
 6490PP      PP16594   1.798   9.850  12.142
 6491PP      PP16595   0.343   7.701   0.059
 6492PP      PP16596  14.265  10.859  12.531
 6493PP      PP16597  15.360   4.000  13.185
 6494PP      PP16598   4.439  14.884  10.339
 6495PP      PP16599   7.275  13.282   1.524
 6496PP      PP16600   0.658   6.490  11.909
 6497PP      PP16601   7.526   6.038   4.131
 6498PP      PP16602  12.139  15.590   0.012
 6499PP      PP16603   6.964   9.684   4.175
 6500PP      PP16604   4.034   7.035   3.873
 6501PP      PP16605   7.207  15.322   2.256
 6502PP      PP16606  12.983  12.631   1.627
 6503PP      PP16607   3.776   6.273  11.444
 6504PP      PP16608   4.853   5.102   8.671
 6505PP      PP16609  11.237   7.452   8.767
 6506PP      PP16610  13.616   9.712   0.914
 6507PP      PP16611   9.870  10.502   0.347
 6508PP      PP16612  13.797  11.930   3.911
 6509PP      PP16613  10.834   8.741  10.346
 6510PP      PP16614   2.010   6.278  12.416
 6511PP      PP16615   0.643   1.090  12.374
 6512PP      PP16616  11.415   7.798   9.748
 6513PP      PP16617  12.850  14.264   9.664
 6514PP      PP16618  11.471  14.829   2.180
 6515PP      PP16619   3.322  15.260  11.889
 6516PP      PP16620   7.263   5.491  12.366
 6517PP      PP16621   4.164  11.296   8.228
 6518PP      PP16622  11.548  11.445  12.814
 6519PP      PP16623   2.516   1.003   5.164
 6520PP      PP16624   1.628   0.295  13.462
 6521PP      PP16625  11.158   3.313   2.513
 6522PP      PP16626   4.031   8.123   2.918
 6523PP      PP16627  13.600  12.845   9.056
 6524PP      PP16628   0.967   2.788   3.053
 6525PP      PP16629   6.842   5.297  10.253
 6526PP      PP16630  10.770  14.635   0.445
 6527PP      PP16631   5.569   6.957  10.390
 6528PP      PP16632  10.769  11.164  11.884
 6529PP      PP16633   6.913   3.978   0.759
 6530PP      PP16634   4.862   4.429   9.481
 6531PP      PP16635  14.813   5.613   1.465
 6532PP      PP16636  10.495   3.979   0.421
 6533PP      PP16637  12.173   5.570   0.664
 6534PP      PP16638   8.809   0.264   4.662
 6535PP      PP16639   2.739   9.167  11.221
 6536PP      PP16640  14.993  12.647   3.729
 6537PP      PP16641  12.021  10.992  13.567
 6538PP      PP16642  11.536  14.986   4.770
 6539PP      PP16643   9.787   8.153  10.325
 6540PP      PP16644   9.632  14.358   4.764
 6541PP      PP16645   8.112  13.481  11.033
 6542PP      PP16646   1.770   0.049  10.286
 6543PP      PP16647   5.297   5.198   8.961
 6544PP      PP16648  13.795   3.336   2.910
 6545PP      PP16649   9.501  14.157   1.617
 6546PP      PP16650   0.287   5.230   8.387
 6547PP      PP16651  10.628  15.720  12.324
 6548PP      PP16652   1.073   6.942   9.975
 6549PP      PP16653  12.281   3.657   9.818
 6550PP      PP16654   8.925   8.071  11.907
 6551PP      PP16655  10.520   0.282  10.222
 6552PP      PP16656  10.889   4.312   1.437
 6553PP      PP16657   5.693  11.288  11.597
 6554PP      PP16658   7.857  14.537  10.948
 6555PP      PP16659   1.477   6.289  13.581
 6556PP      PP16660  10.222  12.510   0.832
 6557PP      PP16661   4.451   3.070  12.809
 6558PP      PP16662   8.892   7.602  13.538
 6559PP      PP16663   9.006   4.435  11.003
 6560PP      PP16664  14.647  10.597  10.132
 6561PP      PP16665   7.705   5.878  10.342
 6562PP      PP16666  10.749  11.320   3.603
 6563PP      PP16667   8.446   8.266   4.133
 6564PP      PP16668  14.704   8.960  12.622
 6565PP      PP16669  13.071  14.310   4.569
 6566PP      PP16670   8.538   4.183  10.914
 6567PP      PP16671  10.230  15.756  13.548
 6568PP      PP16672   7.491  12.965   1.098
 6569PP      PP16673  14.223   1.405   9.948
 6570PP      PP16674  11.065   0.398  13.265
 6571PP      PP16675  13.510   5.030  10.549
 6572PP      PP16676   1.484   8.606   0.703
 6573PP      PP16677   2.590   3.061  13.508
 6574PP      PP16678   0.314   6.252   3.988
 6575PP      PP16679   4.448   8.328   2.570
 6576PP      PP16680   6.165   4.693   1.023
 6577PP      PP16681   3.764   0.723   4.831
 6578PP      PP16682   4.736  15.753  10.743
 6579PP      PP16683  10.692  13.281   0.058
 6580PP      PP16684   6.563   9.348   3.641
 6581PP      PP16685   9.377  14.670   3.756
 6582PP      PP16686  15.034   7.317   9.354
 6583PP      PP16687  13.359   4.145   3.351
 6584PP      PP16688  11.285  13.467   3.853
 6585PP      PP16689  10.531  13.724  11.550
 6586PP      PP16690   6.601   9.900   0.271
 6587PP      PP16691  11.838  14.640   4.987
 6588PP      PP16692   4.711   6.535   8.636
 6589PP      PP16693  14.943   9.289   7.978
 6590PP      PP16694  10.715   7.300   8.725
 6591PP      PP16695  10.441   7.674   9.883
 6592PP      PP16696   7.850   8.041   8.879
 6593PP      PP16697   1.321   5.677  12.004
 6594PP      PP16698   7.395   8.360  10.497
 6595PP      PP16699   9.822  12.547   9.255
 6596PP      PP16700   2.021  14.337   3.564
 6597PP      PP16701   1.804   6.994   1.054
 6598PP      PP16702  13.822   1.118  11.221
 6599PP      PP16703   1.350   4.377   1.663
 6600PP      PP16704  13.999   8.953   3.121
 6601PP      PP16705   7.166   0.385   9.790
 6602PP      PP16706   2.068   6.423  13.472
 6603PP      PP16707   7.063   0.483  13.559
 6604PP      PP16708   6.350   7.924  11.782
 6605PP      PP16709   1.815  10.028  11.194
 6606PP      PP16710   8.906   6.837  11.525
 6607PP      PP16711  10.131   6.076   2.498
 6608PP      PP16712   7.619   1.959   9.377
 6609PP      PP16713   2.806  10.725   9.039
 6610PP      PP16714  13.252  15.793  11.114
 6611PP      PP16715   6.370   9.353  12.876
 6612PP      PP16716   6.129   9.347   9.232
 6613PP      PP16717   6.601   3.895   1.626
 6614PP      PP16718   5.599   5.431   1.840
 6615PP      PP16719  14.595   2.243  13.466
 6616PP      PP16720  10.238   9.403   8.699
 6617PP      PP16721   6.249  10.171   3.941
 6618PP      PP16722   8.300   7.612   0.589
 6619PP      PP16723  11.070   5.465  12.118
 6620PP      PP16724   2.437   5.403   2.904
 6621PP      PP16725  14.151   7.029  12.964
 6622PP      PP16726   2.670   2.372  10.796
 6623PP      PP16727   1.295  14.763  12.973
 6624PP      PP16728   0.619   6.315   9.536
 6625PP      PP16729   2.349   4.635   1.585
 6626PP      PP16730  13.273   9.473   2.477
 6627PP      PP16731   0.121  12.544   3.194
 6628PP      PP16732   0.988   5.194   0.077
 6629PP      PP16733   5.066  12.838   8.857
 6630PP      PP16734  13.385   9.425  11.582
 6631PP      PP16735  11.976   8.077  10.372
 6632PP      PP16736   2.114   3.175   0.048
 6633PP      PP16737   3.807   4.131   8.863
 6634PP      PP16738   9.221   3.976   9.515
 6635PP      PP16739   6.176  12.430  10.753
 6636PP      PP16740  13.154   0.631   9.449
 6637PP      PP16741  12.629   9.361   0.968
 6638PP      PP16742  11.513  13.508   4.366
 6639PP      PP16743  10.335  14.473   0.213
 6640PP      PP16744   2.863  13.025   2.089
 6641PP      PP16745   9.248   7.626   2.304
 6642PP      PP16746   7.357   6.520   4.334
 6643PP      PP16747  13.243   5.815   9.286
 6644PP      PP16748   6.740   8.025   3.097
 6645PP      PP16749  13.244   6.661   2.887
 6646PP      PP16750   8.823   8.792   0.934
 6647PP      PP16751  11.113   4.851   0.768
 6648PP      PP16752   2.133  14.607   9.459
 6649PP      PP16753   5.523  13.934   1.406
 6650PP      PP16754  11.777  14.161  12.401
 6651PP      PP16755   7.064   6.323  12.212
 6652PP      PP16756   0.371  13.663  12.799
 6653PP      PP16757   4.359   2.746   4.944
 6654PP      PP16758   6.346  13.646   4.790
 6655PP      PP16759   8.989   9.564   1.963
 6656PP      PP16760  15.731  11.685   9.514
 6657PP      PP16761   6.687   9.408   9.768
 6658PP      PP16762   3.329  11.707  10.359
 6659PP      PP16763  12.676   0.879   0.513
 6660PP      PP16764  15.798  14.510   0.825
 6661PP      PP16765  13.561   2.156  11.774
 6662PP      PP16766   6.334   3.567   0.155
 6663PP      PP16767   0.059  10.556  13.412
 6664PP      PP16768   0.424  10.419   9.153
 6665PP      PP16769  13.581  11.003   9.282
 6666PP      PP16770   8.512   0.799  12.685
 6667PP      PP16771   3.810   0.659   0.328
 6668PP      PP16772  12.453   6.344  12.055
 6669PP      PP16773   8.218   7.088   8.149
 6670PP      PP16774   9.122  13.435  12.566
 6671PP      PP16775   5.292   0.422   0.565
 6672PP      PP16776   2.786   9.092   0.310
 6673PP      PP16777  11.173   5.613  11.074
 6674PP      PP16778   1.140  12.265  11.072
 6675PP      PP16779   6.406  12.408  13.376
 6676PP      PP16780  11.144  15.013   0.513
 6677PP      PP16781  11.035   6.430  11.624
 6678PP      PP16782   3.775  14.561   9.817
 6679PP      PP16783   4.251  13.064   9.362
 6680PP      PP16784  10.834   1.915  10.710
 6681PP      PP16785   5.313   0.524   9.149
 6682PP      PP16786   1.837   2.789   2.984
 6683PP      PP16787  12.905  10.668   0.178
 6684PP      PP16788  11.963   1.242   0.172
 6685PP      PP16789   3.574  12.582  11.920
 6686PP      PP16790  10.853  12.482  12.053
 6687PP      PP16791   4.139   7.222   1.521
 6688PP      PP16792   7.132  14.729   3.323
 6689PP      PP16793   8.938   8.722   2.032
 6690PP      PP16794  14.273   1.462   1.984
 6691PP      PP16795   6.736  13.914   0.334
 6692PP      PP16796   6.971   4.368   9.935
 6693PP      PP16797   7.417  12.516   3.722
 6694PP      PP16798   7.830   3.528  10.860
 6695PP      PP16799   4.802  14.723   9.967
 6696PP      PP16800  14.265   6.727   9.829
 6697PP      PP16801   5.190  10.832   9.152
 6698PP      PP16802  13.839  14.135   3.105
 6699PP      PP16803   6.167  13.098  12.892
 6700PP      PP16804   5.053   8.210   3.748
 6701PP      PP16805  10.138   4.187   9.084
 6702PP      PP16806   1.728   3.913  13.463
 6703PP      PP16807   3.127  12.612  12.212
 6704PP      PP16808   4.189   8.314   9.184
 6705PP      PP16809   0.208   9.907  12.066
 6706PP      PP16810   8.330   1.142   4.056
 6707PP      PP16811   5.178   3.516   1.848
 6708PP      PP16812  11.071  12.628   0.418
 6709PP      PP16813  11.139  12.978  10.358
 6710PP      PP16814   8.648   6.317   0.168
 6711PP      PP16815   1.523   2.396   2.082
 6712PP      PP16816   8.892   9.989  12.503
 6713PP      PP16817   3.190   1.985   1.555
 6714PP      PP16818  10.991   1.395   9.574
 6715PP      PP16819   2.336   4.482  11.843
 6716PP      PP16820   8.791   5.123   1.850
 6717PP      PP16821  10.562  10.354   8.452
 6718PP      PP16822   7.855   5.388  10.421
 6719PP      PP16823   9.916   3.701   1.771
 6720PP      PP16824  11.333   8.737  10.578
 6721PP      PP16825   6.319  13.490   1.293
 6722PP      PP16826   5.904  13.024   3.072
 6723PP      PP16827  14.011  11.773   8.871
 6724PP      PP16828  13.461  11.569   3.622
 6725PP      PP16829   3.934   6.811  10.357
 6726PP      PP16830  11.875  10.976  11.199
 6727PP      PP16831   6.713  11.583   1.370
 6728PP      PP16832   1.202   8.627  10.266
 6729PP      PP16833  11.042   3.807   2.569
 6730PP      PP16834   4.429   9.233   9.643
 6731PP      PP16835   7.806   5.632  11.521
 6732PP      PP16836   3.597  11.747  12.192
 6733PP      PP16837   3.040   3.804  10.959
 6734PP      PP16838  11.593   8.403  10.298
 6735PP      PP16839   1.392   5.884  10.498
 6736PP      PP16840  10.914   0.238   3.295
 6737PP      PP16841  15.089   2.644  12.648
 6738PP      PP16842  13.909   2.303   9.419
 6739PP      PP16843   0.890   8.847   3.815
 6740PP      PP16844  15.758   7.061   8.498
 6741PP      PP16845   7.854   9.913   4.107
 6742PP      PP16846   5.039   0.868  10.553
 6743PP      PP16847  10.718   1.921   9.648
 6744PP      PP16848  10.433   7.978  12.536
 6745PP      PP16849   6.492  14.207   0.730
 6746PP      PP16850   6.691  11.105   1.614
 6747PP      PP16851   4.171   7.313   9.002
 6748PP      PP16852   1.819   2.289  13.411
 6749PP      PP16853   1.699   8.111   1.946
 6750PP      PP16854  15.678   4.232   3.828
 6751PP      PP16855  13.804   8.484  12.409
 6752PP      PP16856   6.119   3.383  10.439
 6753PP      PP16857   6.377   1.977   2.091
 6754PP      PP16858   4.698   0.013  11.404
 6755PP      PP16859  14.459  13.744  11.195
 6756PP      PP16860   9.556  12.881   0.289
 6757PP      PP16861  15.726   3.654   0.506
 6758PP      PP16862  15.780  11.802  12.179
 6759PP      PP16863  11.270  15.415   1.327
 6760PP      PP16864   7.044   2.542   9.108
 6761PP      PP16865   0.871   2.295   3.176
 6762PP      PP16866  11.664  10.961   2.886
 6763PP      PP16867   4.533  15.526   1.453
 6764PP      PP16868   3.363  15.549  12.957
 6765PP      PP16869   5.119   5.176   9.958
 6766PP      PP16870   8.361   5.322   2.064
 6767PP      PP16871   8.944   0.117  11.184
 6768PP      PP16872   1.327  10.553   9.977
 6769PP      PP16873   4.432  14.341   9.146
 6770PP      PP16874   4.455   5.534  10.883
 6771PP      PP16875  14.085   5.701   8.380
 6772PP      PP16876  14.336   4.351   9.492
 6773PP      PP16877   4.155  15.178   1.045
 6774PP      PP16878  14.385   7.969   2.063
 6775PP      PP16879  13.409   4.131  10.564
 6776PP      PP16880  14.598   9.409   1.946
 6777PP      PP16881  10.636   8.819   9.329
 6778PP      PP16882   9.278   4.515   8.643
 6779PP      PP16883   5.551   3.907   3.998
 6780PP      PP16884   3.939  15.291   2.721
 6781PP      PP16885  13.095   1.630   0.123
 6782PP      PP16886   2.599  14.207   8.633
 6783PP      PP16887   9.692  11.438  12.104
 6784PP      PP16888  15.496   6.203   8.077
 6785PP      PP16889   1.292   4.113   1.168
 6786PP      PP16890   0.214  10.072  11.039
 6787PP      PP16891  12.283  14.743   2.873
 6788PP      PP16892  15.048   3.887  11.420
 6789PP      PP16893   2.048   8.488   2.557
 6790PP      PP16894  13.658   9.208   0.702
 6791PP      PP16895   9.622   4.720   1.914
 6792PP      PP16896   5.070  11.352   0.387
 6793PP      PP16897   0.139  14.467   2.246
 6794PP      PP16898   9.450   5.469   0.114
 6795PP      PP16899  10.594   9.401   0.576
 6796PP      PP16900  12.547   7.265   3.948
 6797PP      PP16901   8.679   9.792  13.509
 6798PP      PP16902   5.647   8.210   3.683
 6799PP      PP16903   1.060   2.192   1.713
 6800PP      PP16904   0.649   2.729   3.607
 6801PP      PP16905   0.761   5.901   3.326
 6802PP      PP16906  10.379  12.236   4.094
 6803PP      PP16907  10.701   4.957  11.294
 6804PP      PP16908   8.921   2.025   1.215
 6805PP      PP16909   2.407   5.584   0.662
 6806PP      PP16910   6.558   5.787   8.921
 6807PP      PP16911   9.371  15.626  12.997
 6808PP      PP16912  13.352   4.588  10.330
 6809PP      PP16913   2.392  15.062   2.392
 6810PP      PP16914   6.812  14.175  10.823
 6811PP      PP16915   2.026  13.541  11.614
 6812PP      PP16916   3.948   0.576   1.326
 6813PP      PP16917  10.857   3.520  12.208
 6814PP      PP16918  10.193   8.400  11.655
 6815PP      PP16919   4.159   8.641  10.368
 6816PP      PP16920   9.953   3.495  12.696
 6817PP      PP16921   4.046   4.296  10.706
 6818PP      PP16922   8.903  12.248   0.422
 6819PP      PP16923   0.171   3.889  10.733
 6820PP      PP16924   0.056   3.541   3.923
 6821PP      PP16925   2.569  12.669  11.836
 6822PP      PP16926  13.147   3.969   0.394
 6823PP      PP16927  12.202   3.440   0.991
 6824PP      PP16928   8.013   5.982   0.291
 6825PP      PP16929   3.594   7.196   2.212
 6826PP      PP16930  13.679  13.354  11.120
 6827PP      PP16931   8.135   1.952  11.459
 6828PP      PP16932  11.367   4.163   2.355
 6829PP      PP16933   0.139   9.922   2.497
 6830PP      PP16934   5.857   8.744   3.886
 6831PP      PP16935  14.000   3.019   8.899
 6832PP      PP16936  13.553  11.192   4.803
 6833PP      PP16937   9.036   4.402  11.646
 6834PP      PP16938  13.472   3.011   2.587
 6835PP      PP16939   0.686   8.741  12.541
 6836PP      PP16940   5.190   6.503   0.689
 6837PP      PP16941  12.559   6.465   8.816
 6838PP      PP16942   8.432  11.091   0.077
 6839PP      PP16943  10.314   2.892   4.248
 6840PP      PP16944   4.284   1.264  10.552
 6841PP      PP16945  10.308   0.024   4.600
 6842PP      PP16946   6.586   7.588   3.359
 6843PP      PP16947  15.169  15.786  10.625
 6844PP      PP16948   3.410   5.529   4.091
 6845PP      PP16949   3.834   5.733   0.164
 6846PP      PP16950  10.201   3.941  12.607
 6847PP      PP16951  15.253   0.090   1.016
 6848PP      PP16952   6.946   3.029  11.850
 6849PP      PP16953   9.252   6.296   9.497
 6850PP      PP16954  12.233   3.445  10.596
 6851PP      PP16955  14.432  13.556   9.907
 6852PP      PP16956  11.389   5.045   1.243
 6853PP      PP16957  10.811   2.651   0.696
 6854PP      PP16958   0.085   4.461  12.265
 6855PP      PP16959  11.857  10.248   0.363
 6856PP      PP16960   6.297   2.980  13.599
 6857PP      PP16961  14.785   4.865   4.235
 6858PP      PP16962   3.672   4.417  11.124
 6859PP      PP16963  11.501   3.986  10.221
 6860PP      PP16964  11.876   2.088   1.321
 6861PP      PP16965  10.095   4.734   9.012
 6862PP      PP16966  11.943   0.770  13.342
 6863PP      PP16967  10.056   8.914  11.496
 6864PP      PP16968  14.267   2.114   2.051
 6865PP      PP16969  13.482   4.854  12.015
 6866PP      PP16970   2.284  12.673  12.743
 6867PP      PP16971   4.046  10.934   3.825
 6868PP      PP16972   3.393   7.380   2.649
 6869PP      PP16973   0.044   3.887  10.184
 6870PP      PP16974   8.125   4.704  13.506
 6871PP      PP16975   2.913   4.705  13.102
 6872PP      PP16976   0.784  12.097   2.631
 6873PP      PP16977  13.976   9.618  12.195
 6874PP      PP16978   0.687   9.279  12.634
 6875PP      PP16979  15.649  13.650   2.046
 6876PP      PP16980   9.543   6.762   2.689
 6877PP      PP16981  11.801   8.441  10.779
 6878PP      PP16982  10.464  12.690  10.878
 6879PP      PP16983   3.734  10.946   2.942
 6880PP      PP16984   0.341  11.141  11.579
 6881PP      PP16985   2.709   5.844  10.503
 6882PP      PP16986   6.242   1.537  11.051
 6883PP      PP16987   9.880   5.262   1.048
 6884PP      PP16988  10.597   5.693  11.664
 6885PP      PP16989  11.837   4.391  11.503
 6886PP      PP16990   2.709   1.104   3.644
 6887PP      PP16991  10.277   6.044   1.199
 6888PP      PP16992  10.921   2.274   8.948
 6889PP      PP16993   3.436  14.923  10.035
 6890PP      PP16994  11.609  15.007  11.273
 6891PP      PP16995   4.315  14.051  11.170
 6892PP      PP16996  13.718   2.374   4.582
 6893PP      PP16997   8.921   7.538  10.218
 6894PP      PP16998   4.434  12.610   1.410
 6895PP      PP16999   3.642   6.040   3.935
 6896PP      PP17000   8.827  14.592   3.578
 6897PP      PP17001   0.680   6.024   8.743
 6898PP      PP17002   2.735   2.843   1.134
 6899PP      PP17003  10.616   6.228   9.999
 6900PP      PP17004   5.022   8.405   1.188
 6901PP      PP17005   6.256   4.754   3.246
 6902PP      PP17006  10.677  10.323   0.870
 6903PP      PP17007  11.203  14.691   1.773
 6904PP      PP17008   9.676   2.997   3.655
 6905PP      PP17009   8.851   1.289   4.832
 6906PP      PP17010  11.179  10.039  13.180
 6907PP      PP17011   2.411   8.100   2.891
 6908PP      PP17012  11.184  14.555  11.141
 6909PP      PP17013   1.561   7.299   1.817
 6910PP      PP17014  12.819  15.630   2.476
 6911PP      PP17015   5.665  14.651   3.456
 6912PP      PP17016   8.866  12.621  13.035
 6913PP      PP17017   4.453  15.436  12.073
 6914PP      PP17018  12.877   5.107   1.170
 6915PP      PP17019  15.225   8.290  11.647
 6916PP      PP17020  11.861   7.711  10.030
 6917PP      PP17021   6.571   2.070  12.849
 6918PP      PP17022   1.186   6.959  11.959
 6919PP      PP17023   2.440  13.068  13.077
 6920PP      PP17024   1.754   7.331   3.160
 6921PP      PP17025   8.441  13.931  13.201
 6922PP      PP17026  12.813   1.230  13.507
 6923PP      PP17027   7.503   5.981   9.460
 6924PP      PP17028   0.410  13.403   5.123
 6925PP      PP17029  15.752  13.411   4.803
 6926PP      PP17030   1.926   1.746   5.119
 6927PP      PP17031   1.245  14.035   1.885
 6928PP      PP17032  11.669   1.252   9.457
 6929PP      PP17033   5.455   4.282   3.594
 6930PP      PP17034  13.440   1.300  10.464
 6931PP      PP17035   7.946  14.210  11.342
 6932PP      PP17036  14.577  10.016  10.165
 6933PP      PP17037   4.581  11.808  10.691
 6934PP      PP17038   8.110   2.292   8.879
 6935PP      PP17039   0.740   3.844  12.553
 6936PP      PP17040   6.532   0.481   0.081
 6937PP      PP17041   8.606   6.811   0.390
 6938PP      PP17042   5.749  15.342   4.165
 6939PP      PP17043   2.123   5.167   9.457
 6940PP      PP17044   2.602   5.947   1.378
 6941PP      PP17045   5.562   5.573   0.118
 6942PP      PP17046   3.761   5.560   1.122
 6943PP      PP17047  15.184  13.927  12.467
 6944PP      PP17048   6.955   3.412  10.724
 6945PP      PP17049   8.284   7.639   1.446
 6946PP      PP17050   9.118  11.770  11.796
 6947PP      PP17051  10.469   4.874   4.044
 6948PP      PP17052   5.075   9.471  12.879
 6949PP      PP17053   5.068   6.626   3.949
 6950PP      PP17054  12.382   2.483  10.734
 6951PP      PP17055  12.585   8.519   9.271
 6952PP      PP17056  10.821  12.855   1.418
 6953PP      PP17057  13.512  10.970  13.228
 6954PP      PP17058  11.777   5.783   0.937
 6955PP      PP17059   9.064   5.394  11.249
 6956PP      PP17060  11.512   7.346  10.101
 6957PP      PP17061   8.175   8.607  11.405
 6958PP      PP17062   5.283   9.632   8.667
 6959PP      PP17063  13.676   6.960   8.175
 6960PP      PP17064   8.439   1.864   0.280
 6961PP      PP17065   4.977   8.265   2.941
 6962PP      PP17066  12.708   7.008  13.207
 6963PP      PP17067   9.676   6.794   0.173
 6964PP      PP17068  13.506   0.065   1.805
 6965PP      PP17069   8.369  11.383  11.130
 6966PP      PP17070   1.964  10.085   3.851
 6967PP      PP17071   6.774   3.168   3.146
 6968PP      PP17072  12.222  12.075   9.917
 6969PP      PP17073   4.265   0.099  11.130
 6970PP      PP17074  13.247  11.053  12.389
 6971PP      PP17075  10.433  10.660  12.965
 6972PP      PP17076   6.063   2.008  13.016
 6973PP      PP17077  14.746   4.585   9.311
 6974PP      PP17078   2.969   3.426   0.982
 6975PP      PP17079   3.610  10.173   0.938
 6976PP      PP17080  12.682   0.064   4.411
 6977PP      PP17081   4.739   0.729  13.087
 6978PP      PP17082   7.259   9.839  11.143
 6979PP      PP17083   5.562  12.507  11.549
 6980PP      PP17084   5.560   1.599   3.320
 6981PP      PP17085  14.603   0.139   2.700
 6982PP      PP17086  14.632  12.783   4.212
 6983PP      PP17087   7.611  11.361   1.838
 6984PP      PP17088   6.715  13.897   9.850
 6985PP      PP17089  14.332   6.283  10.755
 6986PP      PP17090   8.901  14.586  10.904
 6987PP      PP17091   9.480   3.516  12.898
 6988PP      PP17092   0.629  12.002   2.123
 6989PP      PP17093  13.849  14.200  12.250
 6990PP      PP17094   6.946   1.876   3.836
 6991PP      PP17095   5.336   4.726   2.854
 6992PP      PP17096  11.787   0.153  12.987
 6993PP      PP17097   8.450   4.506   3.268
 6994PP      PP17098   1.103   5.749   1.842
 6995PP      PP17099   8.362   4.979   8.917
 6996PP      PP17100   4.779   8.396  12.247
 6997PP      PP17101   7.621   8.027   4.251
 6998PP      PP17102   0.686   5.215   0.851
 6999PP      PP17103   3.583  12.820   3.196
 7000PP      PP17104   9.437   0.839   1.266
 7001PP      PP17105   2.548  11.034   3.349
 7002PP      PP17106  14.439  14.934  12.130
 7003PP      PP17107   2.938   5.006  12.040
 7004PP      PP17108   4.087   7.493  13.219
 7005PP      PP17109   9.936   2.277   6.660
 7006PP      PP17110   4.181   9.207  13.511
 7007PP      PP17111   4.872   7.748  11.382
 7008PP      PP17112   0.972   1.307   2.072
 7009PP      PP17113   4.839   0.223   0.803
 7010PP      PP17114   2.372   4.700   9.506
 7011PP      PP17115   2.524  14.470   9.861
 7012PP      PP17116   0.025   6.533   8.408
 7013PP      PP17117   4.910  15.233   9.783
 7014PP      PP17118   8.783   9.413  13.188
 7015PP      PP17119  10.075   1.834   0.611
 7016PP      PP17120   6.937   6.489  10.317
 7017PP      PP17121  10.549   2.784   0.271
 7018PP      PP17122  12.012  12.138  12.985
 7019PP      PP17123   1.872   8.224   2.953
 7020PP      PP17124   2.459   9.106  13.436
 7021PP      PP17125  10.297   6.040   2.988
 7022PP      PP17126   7.094  10.258   1.816
 7023PP      PP17127   1.843  14.946  12.123
 7024PP      PP17128   9.716   1.596   2.320
 7025PP      PP17129   8.761  12.244   1.441
 7026PP      PP17130  11.517   1.582   8.800
 7027PP      PP17131   3.518  12.118   9.641
 7028PP      PP17132   4.726   1.330   0.919
 7029PP      PP17133   5.133  14.289   1.470
 7030PP      PP17134  15.651   9.548   2.734
 7031PP      PP17135   3.063   1.459  11.645
 7032PP      PP17136   7.116   2.081   0.492
 7033PP      PP17137   0.112   0.622   0.298
 7034PP      PP17138  11.208  14.582   0.163
 7035PP      PP17139   9.079   3.279   4.916
 7036PP      PP17140   2.387   3.343   8.904
 7037PP      PP17141   5.634  13.249  10.968
 7038PP      PP17142  12.837   5.118   4.728
 7039PP      PP17143   1.244   0.570  11.937
 7040PP      PP17144   6.923   2.184  13.243
 7041PP      PP17145  15.057   8.249   9.439
 7042PP      PP17146   5.572   2.445   3.724
 7043PP      PP17147   2.672  13.550   4.459
 7044PP      PP17148   4.530  15.154   9.346
 7045PP      PP17149   4.201  11.396   4.027
 7046PP      PP17150   6.576   8.625   3.273
 7047PP      PP17151   5.390   1.371  13.068
 7048PP      PP17152  14.930   8.364  11.101
 7049PP      PP17153   9.552   3.035   4.155
 7050PP      PP17154  11.223  10.713   9.128
 7051PP      PP17155   2.415   5.540   8.987
 7052PP      PP17156   3.831   2.566   2.646
 7053PP      PP17157  12.871  14.040  13.289
 7054PP      PP17158   0.839  14.541   9.564
 7055PP      PP17159   7.406   6.629   3.524
 7056PP      PP17160   9.108  10.720   1.879
 7057PP      PP17161   3.770  10.215  10.325
 7058PP      PP17162   3.145  13.868   3.513
 7059PP      PP17163  13.565   6.011  11.497
 7060PP      PP17164   9.205   4.871  11.909
 7061PP      PP17165   6.145   7.986   1.689
 7062PP      PP17166   3.050   3.254  13.590
 7063PP      PP17167   0.644  11.858  13.004
 7064PP      PP17168  14.593  11.998   1.432
 7065PP      PP17169  14.238   1.071   0.354
 7066PP      PP17170   2.009   0.827   4.053
 7067PP      PP17171   6.748  13.517  13.583
 7068PP      PP17172   8.686  13.017  11.770
 7069PP      PP17173   0.172   5.101  11.531
 7070PP      PP17174  15.436   0.473   3.175
 7071PP      PP17175  15.828   0.024  11.762
 7072PP      PP17176  14.132  10.682   1.605
 7073PP      PP17177   0.883   3.629   1.778
 7074PP      PP17178  10.992   7.606  10.050
 7075PP      PP17179   4.127   7.013   9.423
 7076PP      PP17180   6.225   5.013  13.193
 7077PP      PP17181   4.499  11.140  11.424
 7078PP      PP17182   3.809  14.807  10.809
 7079PP      PP17183  14.536   2.519  12.717
 7080PP      PP17184  14.316   8.039  10.069
 7081PP      PP17185  13.696  13.483  10.609
 7082PP      PP17186   4.101   6.725   1.419
 7083PP      PP17187  13.066   1.386  10.103
 7084PP      PP17188   7.888  12.445   0.837
 7085PP      PP17189  13.779   3.584   4.042
 7086PP      PP17190   9.978  13.163   9.932
 7087PP      PP17191   3.673  11.433   1.278
 7088PP      PP17192  10.402   7.697   1.596
 7089PP      PP17193  10.696  12.386  13.516
 7090PP      PP17194   7.133   1.265   2.642
 7091PP      PP17195   2.209   4.007   4.236
 7092PP      PP17196  11.036   0.041   2.120
 7093PP      PP17197   1.759  10.821   9.172
 7094PP      PP17198   9.355   5.684  10.107
 7095PP      PP17199  11.977  15.584  11.453
 7096PP      PP17200   3.013   0.925  11.657
 7097PP      PP17201  12.898   8.895  11.799
 7098PP      PP17202  12.190   4.713  11.227
 7099PP      PP17203   7.371   9.454  10.799
 7100PP      PP17204   0.526   6.435   2.231
 7101PP      PP17205   3.803   0.727  11.996
 7102PP      PP17206   0.991  14.564   0.722
 7103PP      PP17207   0.619  10.778   3.867
 7104PP      PP17208   7.972   1.385   2.008
 7105PP      PP17209  11.379   2.360   2.530
 7106PP      PP17210  12.919   2.002   4.202
 7107PP      PP17211   1.129  10.719   3.747
 7108PP      PP17212  13.371   3.776   8.713
 7109PP      PP17213   8.948   1.324  13.182
 7110PP      PP17214  15.397  10.852   9.518
 7111PP      PP17215   8.060  10.861  10.152
 7112PP      PP17216  13.575   8.823   3.997
 7113PP      PP17217   3.149   3.466   4.002
 7114PP      PP17218   9.732   7.530   2.167
 7115PP      PP17219   1.219   3.424   3.094
 7116PP      PP17220   6.465   8.245   0.813
 7117PP      PP17221   2.457  11.692  12.385
 7118PP      PP17222  13.405   9.549   2.983
 7119PP      PP17223   2.069  11.496   4.213
 7120PP      PP17224  15.211   5.014   0.844
 7121PP      PP17225  12.428  13.773  13.255
 7122PP      PP17226   7.297  15.791   9.513
 7123PP      PP17227  10.549   2.445  11.432
 7124PP      PP17228   2.652   5.594  10.957
 7125PP      PP17229  15.004  13.829   0.496
 7126PP      PP17230   1.946   1.181  11.494
 7127PP      PP17231  11.540   3.237   0.048
 7128PP      PP17232  12.708   2.338   0.733
 7129PP      PP17233   1.350   8.332   9.753
 7130PP      PP17234   9.151  14.101   1.212
 7131PP      PP17235  14.714  13.236  13.333
 7132PP      PP17236   6.884   6.369   2.001
 7133PP      PP17237   7.139   3.529   4.717
 7134PP      PP17238  15.363   6.596   8.598
 7135PP      PP17239   4.198  14.799   9.128
 7136PP      PP17240   0.600  14.341   9.110
 7137PP      PP17241   5.944   3.461   4.759
 7138PP      PP17242   0.579   2.490   0.100
 7139PP      PP17243   4.757   6.951   9.571
 7140PP      PP17244  13.304  15.216   4.677
 7141PP      PP17245   8.050   2.334  10.375
 7142PP      PP17246   7.057   6.848   3.883
 7143PP      PP17247   5.322   7.061   9.900
 7144PP      PP17248   4.957   3.764  12.118
 7145PP      PP17249   1.210   8.100   8.236
 7146PP      PP17250   0.145   5.078   2.519
 7147PP      PP17251  13.982  10.932   1.150
 7148PP      PP17252  12.632  12.793   3.868
 7149PP      PP17253  15.562  12.105   0.071
 7150PP      PP17254   1.676  13.903   9.708
 7151PP      PP17255   1.770   1.397   3.466
 7152PP      PP17256   0.186   2.047  12.688
 7153PP      PP17257  11.405  10.529   1.235
 7154PP      PP17258   1.070   4.646   8.958
 7155PP      PP17259  10.052  10.780   3.977
 7156PP      PP17260   7.684   8.309  11.635
 7157PP      PP17261  12.748  14.659  10.863
 7158PP      PP17262   9.767   9.233   3.179
 7159PP      PP17263  12.181  11.568   3.961
 7160PP      PP17264  10.459   4.107  11.188
 7161PP      PP17265   1.472   3.497  12.288
 7162PP      PP17266  12.100   6.586   0.457
 7163PP      PP17267   9.596   0.902  10.408
 7164PP      PP17268   2.816  14.924  13.025
 7165PP      PP17269   8.712   8.463   0.238
 7166PP      PP17270   5.482  10.288   9.891
 7167PP      PP17271   4.213   6.105  10.448
 7168PP      PP17272   7.376  10.543  11.843
 7169PP      PP17273   6.235   6.490  11.562
 7170PP      PP17274   2.973   6.309   1.308
 7171PP      PP17275   2.602   8.071   1.139
 7172PP      PP17276   8.967   9.125  11.007
 7173PP      PP17277  10.000   0.062   2.289
 7174PP      PP17278   6.284   8.006   3.500
 7175PP      PP17279   2.638  13.250   3.843
 7176PP      PP17280   2.151   0.370  13.496
 7177PP      PP17281   0.012   8.264  11.645
 7178PP      PP17282  15.555   2.222   2.361
 7179PP      PP17283   7.790   7.770   3.129
 7180PP      PP17284   2.009   7.059   1.847
 7181PP      PP17285   6.574  15.193   4.015
 7182PP      PP17286   4.298  10.215   2.713
 7183PP      PP17287   1.952  14.716   0.546
 7184PP      PP17288   1.671  11.762   3.919
 7185PP      PP17289  15.534   5.082   9.996
 7186PP      PP17290   6.490   0.237   3.561
 7187PP      PP17291  10.157  10.894   4.461
 7188PP      PP17292   0.994   0.622   2.389
 7189PP      PP17293   1.351  13.097   4.279
 7190PP      PP17294  10.792  12.644   4.418
 7191PP      PP17295   4.274  11.653   2.135
 7192PP      PP17296   8.580   6.662  11.145
 7193PP      PP17297   2.729  14.085   2.744
 7194PP      PP17298   6.447   5.584  11.024
 7195PP      PP17299   9.496   9.537  10.519
 7196PP      PP17300   8.065   8.821  13.246
 7197PP      PP17301  12.770   8.169  10.137
 7198PP      PP17302  10.151  12.055  13.060
 7199PP      PP17303  15.744   7.686   2.622
 7200PP      PP17304   6.320   5.178  12.302
 7201PP      PP17305   0.341  12.464  11.625
 7202PP      PP17306   1.204  13.614   2.224
 7203PP      PP17307   4.429   8.512   8.554
 7204PP      PP17308   9.592   6.115   2.459
 7205PP      PP17309   2.025   7.664  13.528
 7206PP      PP17310  10.665  10.777  10.610
 7207PP      PP17311   3.080   2.959   1.474
 7208PP      PP17312   4.912  13.296   2.055
 7209PP      PP17313   2.794  12.220  12.012
 7210PP      PP17314   0.544   9.901   9.857
 7211PP      PP17315  14.097  13.591  10.884
 7212PP      PP17316   8.699  14.013  12.723
 7213PP      PP17317  13.343   1.107   4.170
 7214PP      PP17318   3.533   4.888   1.704
 7215PP      PP17319   8.037   2.250  12.525
 7216PP      PP17320  12.713  12.526  11.458
 7217PP      PP17321   0.116   1.306   1.451
 7218PP      PP17322   2.026   4.410   9.783
 7219PP      PP17323  10.085   6.362  11.106
 7220PP      PP17324   8.410   4.925   0.899
 7221PP      PP17325  12.043  13.680  11.707
 7222PP      PP17326   3.534   3.246  12.050
 7223PP      PP17327   4.616   9.488   2.081
 7224PP      PP17328   6.287   1.601   1.663
 7225PP      PP17329   5.713   1.722  13.302
 7226PP      PP17330   7.209   5.144   9.166
 7227PP      PP17331   2.063  12.583   2.629
 7228PP      PP17332   9.313  12.444   0.147
 7229PP      PP17333   8.909   5.776  13.457
 7230PP      PP17334   3.032   9.159   2.174
 7231PP      PP17335   7.265  14.591   1.166
 7232PP      PP17336  12.402  13.640   3.535
 7233PP      PP17337   6.618  10.672  12.589
 7234PP      PP17338  12.877   3.598   8.838
 7235PP      PP17339   2.821  13.413  13.547
 7236PP      PP17340   3.560   7.333  10.635
 7237PP      PP17341   4.337   1.139   1.525
 7238PP      PP17342  14.504  13.821   1.406
 7239PP      PP17343   6.024  12.931   9.013
 7240PP      PP17344   5.463  13.201   9.685
 7241PP      PP17345   0.267   9.947   3.951
 7242PP      PP17346   4.014  13.690   8.404
 7243PP      PP17347   4.728   7.054  10.782
 7244PP      PP17348   5.825  11.419  12.633
 7245PP      PP17349  12.959   4.042   3.654
 7246PP      PP17350  12.475  10.537   1.901
 7247PP      PP17351   9.722   3.089  13.044
 7248PP      PP17352  10.933   1.072  10.018
 7249PP      PP17353   4.093  13.700   0.660
 7250PP      PP17354  15.403  10.256   3.248
 7251PP      PP17355  13.307   2.340   4.266
 7252PP      PP17356   6.614   6.353   3.381
 7253PP      PP17357   9.823  12.371   0.257
 7254PP      PP17358  10.595  15.568  10.993
 7255PP      PP17359   9.815   5.998  11.347
 7256PP      PP17360   9.534   9.922   4.125
 7257PP      PP17361  15.640  12.904  12.765
 7258PP      PP17362   7.318   7.922  11.491
 7259PP      PP17363  10.805   8.211   1.596
 7260PP      PP17364   5.620  13.020  13.118
 7261PP      PP17365  13.823  13.070  11.614
 7262PP      PP17366   7.778  10.134  11.505
 7263PP      PP17367   0.999   7.852   0.411
 7264PP      PP17368   4.697   1.438   2.734
 7265PP      PP17369   6.268   2.044  11.973
 7266PP      PP17370  12.394  12.018  10.813
 7267PP      PP17371   7.722   3.443   3.924
 7268PP      PP17372   1.699  15.137   0.342
 7269PP      PP17373  12.417   6.746  11.240
 7270PP      PP17374   6.523   5.757  12.089
 7271PP      PP17375   5.421   6.310  12.655
 7272PP      PP17376  14.149   9.853   1.242
 7273PP      PP17377   2.070  12.666  11.465
 7274PP      PP17378  10.411   2.874  11.035
 7275PP      PP17379  13.445   5.648   1.613
 7276PP      PP17380  12.488   9.458  10.492
 7277PP      PP17381   2.115   3.706   0.197
 7278PP      PP17382  13.994   6.129   3.290
 7279PP      PP17383   2.017   8.347   1.622
 7280PP      PP17384  15.475   0.567   0.830
 7281PP      PP17385   1.963   8.264  10.743
 7282PP      PP17386  12.154  15.723   0.936
 7283PP      PP17387   2.695   7.566   3.866
 7284PP      PP17388  12.342   8.819   1.142
 7285PP      PP17389   4.332  12.506   0.453
 7286PP      PP17390  10.395   0.745  10.058
 7287PP      PP17391   8.728   9.557   3.947
 7288PP      PP17392  12.082   9.375  10.872
 7289PP      PP17393   0.595  15.153   1.576
 7290PP      PP17394   2.961  12.470  10.905
 7291PP      PP17395  14.445  14.387  10.264
 7292PP      PP17396  12.719   0.941   3.080
 7293PP      PP17397   4.141   5.624   3.317
 7294PP      PP17398   3.067   0.051   3.803
 7295PP      PP17399  13.230   2.588   2.327
 7296PP      PP17400   2.964   9.320   9.628
 7297PP      PP17401   8.726   4.155   4.058
 7298PP      PP17402   6.992   8.005  12.886
 7299PP      PP17403   8.303   3.857  10.003
 7300PP      PP17404   2.980   3.570   4.509
 7301PP      PP17405  14.393  14.340   1.776
 7302PP      PP17406   3.471   3.823   3.173
 7303PP      PP17407   0.520   6.430   1.226
 7304PP      PP17408  11.219   8.956   3.461
 7305PP      PP17409   9.950   1.857   1.472
 7306PP      PP17410   5.939   5.686  10.294
 7307PP      PP17411   7.081   3.462   0.615
 7308PP      PP17412  10.481   1.730   1.595
 7309PP      PP17413   3.112  12.503  11.666
 7310PP      PP17414   0.289  14.751   3.634
 7311PP      PP17415   6.469   1.530   9.812
 7312PP      PP17416   4.311  10.610   9.108
 7313PP      PP17417   3.358   4.343   8.725
 7314PP      PP17418   4.408   0.643   9.337
 7315PP      PP17419   0.455  15.062  11.857
 7316PP      PP17420   4.870   5.666   4.271
 7317PP      PP17421   3.050  11.739   4.004
 7318PP      PP17422   8.775   4.317   2.916
 7319PP      PP17423  12.570  10.943  12.403
 7320PP      PP17424   3.659  11.430   2.352
 7321PP      PP17425   2.206   5.159   0.838
 7322PP      PP17426   6.674   7.660   9.524
 7323PP      PP17427  11.367   0.202  12.672
 7324PP      PP17428  15.336  10.824   4.416
 7325PP      PP17429  10.038   6.231  10.606
 7326PP      PP17430   0.641  12.927   2.524
 7327PP      PP17431   9.779   6.813  11.713
 7328PP      PP17432   6.107   8.711  10.928
 7329PP      PP17433   1.407   0.923  12.719
 7330PP      PP17434  11.490  10.453   2.789
 7331PP      PP17435   6.315   6.468   0.047
 7332PP      PP17436  10.174  13.749  10.628
 7333PP      PP17437   1.222   4.539   2.683
 7334PP      PP17438  13.407  15.021   3.059
 7335PP      PP17439   7.064   9.092   0.234
 7336PP      PP17440  13.428   2.788   1.377
 7337PP      PP17441   2.641   6.185   4.430
 7338PP      PP17442  12.620   5.612   2.725
 7339PP      PP17443   6.300  14.081  12.891
 7340PP      PP17444   4.216   2.249  11.462
 7341PP      PP17445  15.175   6.600  12.444
 7342PP      PP17446   9.706   8.092  10.831
 7343PP      PP17447  12.683   1.649   2.472
 7344PP      PP17448   1.333   8.903   3.568
 7345PP      PP17449  13.316  15.548  11.589
 7346PP      PP17450  14.458  10.342  12.421
 7347PP      PP17451  13.818   7.091   2.589
 7348PP      PP17452   2.705   0.091  11.799
 7349PP      PP17453  13.759   7.125  11.388
 7350PP      PP17454   1.243  11.853   2.784
 7351PP      PP17455   7.202  11.706  11.280
 7352PP      PP17456  10.358  12.901  13.440
 7353PP      PP17457   4.324   8.968  11.948
 7354PP      PP17458  13.874  12.239   4.804
 7355PP      PP17459   7.653  10.819   3.113
 7356PP      PP17460   5.076   8.392  10.377
 7357PP      PP17461   7.009  11.717   2.148
 7358PP      PP17462   4.601   8.125   8.912
 7359PP      PP17463   3.194  12.615   3.617
 7360PP      PP17464   2.857   6.034   1.810
 7361PP      PP17465   9.687   5.351  13.249
 7362PP      PP17466   8.774   0.172   3.640
 7363PP      PP17467  11.083   2.890   0.300
 7364PP      PP17468   7.085  11.010  11.950
 7365PP      PP17469  13.450   8.311  11.110
 7366PP      PP17470   9.144  12.629   3.031
 7367PP      PP17471   3.001   9.743  13.045
 7368PP      PP17472   2.533  12.066   1.956
 7369PP      PP17473   0.310  10.940   4.253
 7370PP      PP17474   0.618  10.146  10.410
 7371PP      PP17475   6.850   7.284   2.479
 7372PP      PP17476  12.135   2.616   2.906
 7373PP      PP17477  11.523   7.010  12.544
 7374PP      PP17478   6.320  11.972  11.264
 7375PP      PP17479   4.473   5.776   8.841
 7376PP      PP17480   5.623   7.443   2.058
 7377PP      PP17481  14.694   8.356  11.619
 7378PP      PP17482  15.417   3.493  11.448
 7379PP      PP17483  10.196  14.913  12.178
 7380PP      PP17484   5.488   1.415  11.793
 7381PP      PP17485  14.183   8.147  12.482
 7382PP      PP17486   7.087  14.717  11.500
 7383PP      PP17487   7.986   4.933   1.267
 7384PP      PP17488   0.845  12.481   2.205
 7385PP      PP17489   7.166  15.642  10.957
 7386PP      PP17490  12.991   5.079  10.607
 7387PP      PP17491  13.932  11.976  11.201
 7388PP      PP17492  13.612   0.591   0.603
 7389PP      PP17493  13.810   2.312  10.341
 7390PP      PP17494   4.997   6.959   8.620
 7391PP      PP17495   0.499  10.762   8.769
 7392PP      PP17496  10.836   0.571   9.869
 7393PP      PP17497   2.517   7.921   3.486
 7394PP      PP17498   2.604  10.868   1.765
 7395PP      PP17499   2.424   0.264   3.603
 7396PP      PP17500   8.989   0.760  12.932
 7397PP      PP17501  15.457  13.213   0.735
 7398PP      PP17502  13.006  15.278   9.958
 7399PP      PP17503  12.871  11.429   3.025
 7400PP      PP17504   5.342  10.430   4.056
 7401PP      PP17505  10.006  12.420   3.039
 7402PP      PP17506  15.715  11.394   1.799
 7403PP      PP17507   6.111  13.027  12.219
 7404PP      PP17508   3.514  15.601   4.559
 7405PP      PP17509  15.412  11.606   2.369
 7406PP      PP17510   3.754  13.996   0.365
 7407PP      PP17511  13.830   8.802   8.996
 7408PP      PP17512   4.831  15.045  12.059
 7409PP      PP17513   5.432  10.778   9.648
 7410PP      PP17514   2.430  15.783  12.242
 7411PP      PP17515   3.400   6.137   3.282
 7412PP      PP17516  13.805  10.180   0.487
 7413PP      PP17517   4.841   8.799  10.957
 7414PP      PP17518  12.493   7.293  11.653
 7415PP      PP17519  11.110   8.592   9.288
 7416PP      PP17520   3.955   3.626   3.119
 7417PP      PP17521   9.164  15.091   2.874
 7418PP      PP17522   2.594   9.313   1.951
 7419PP      PP17523  12.197   4.678   9.787
 7420PP      PP17524   8.399   0.219   4.337
 7421PP      PP17525   0.283   0.361   1.264
 7422PP      PP17526   9.578  10.310   0.711
 7423PP      PP17527   9.482  12.433   1.119
 7424PP      PP17528   9.413   3.188  11.379
 7425PP      PP17529   2.993   6.236   4.041
 7426PP      PP17530   2.665  13.544  13.053
 7427PP      PP17531   3.609  13.610  11.201
 7428PP      PP17532  13.838  11.043   1.835
 7429PP      PP17533   3.601   4.803  11.499
 7430PP      PP17534  14.364  11.038   1.923
 7431PP      PP17535   1.314   1.426  12.940
 7432PP      PP17536  15.391   4.166   9.918
 7433PP      PP17537  10.806   4.219   9.626
 7434PP      PP17538   3.519   9.315   3.040
 7435PP      PP17539   8.996   4.830  13.223
 7436PP      PP17540   8.517  12.944   0.907
 7437PP      PP17541  12.621  13.790   2.309
 7438PP      PP17542   3.932  14.881  10.200
 7439PP      PP17543  14.229  14.039   9.935
 7440PP      PP17544   3.854   7.646   2.212
 7441PP      PP17545  13.671  11.480   2.712
 7442PP      PP17546   1.628  10.958   1.668
 7443PP      PP17547   1.881   8.729  10.964
 7444PP      PP17548   1.802   8.610  12.928
 7445PP      PP17549   4.017  12.183   2.354
 7446PP      PP17550   6.926   5.358  11.376
 7447PP      PP17551   3.289   3.608   9.537
 7448PP      PP17552   6.535   6.937  12.834
 7449PP      PP17553  15.567  10.325   7.986
 7450PP      PP17554   1.998   9.634   9.083
 7451PP      PP17555   3.761  14.784   3.517
 7452PP      PP17556   7.634   8.236   0.183
 7453PP      PP17557  10.900   2.201  11.148
 7454PP      PP17558   8.815  12.487   0.921
 7455PP      PP17559   0.845   5.047  10.810
 7456PP      PP17560   5.425   6.878  13.254
 7457PP      PP17561   1.024  15.760   9.543
 7458PP      PP17562  13.665  11.375  12.355
 7459PP      PP17563   6.086   4.047   9.236
 7460PP      PP17564  15.410  10.964   1.651
 7461PP      PP17565  11.445   1.021   3.051
 7462PP      PP17566   9.757   3.557   4.066
 7463PP      PP17567   3.009  13.848   0.212
 7464PP      PP17568  15.209   5.001   1.402
 7465PP      PP17569   2.516   8.523   0.873
 7466PP      PP17570   3.103  15.497   9.731
 7467PP      PP17571   1.509  10.481  10.807
 7468PP      PP17572  11.916   9.223  12.228
 7469PP      PP17573   2.900   0.919   3.180
 7470PP      PP17574   2.161  15.234  13.052
 7471PP      PP17575   3.573   3.698  12.383
 7472PP      PP17576   3.582   6.671  11.734
 7473PP      PP17577   1.120   7.447  12.185
 7474PP      PP17578  11.781   5.798  11.648
 7475PP      PP17579   6.735   5.333  13.395
 7476PP      PP17580  11.966   1.606   2.084
 7477PP      PP17581   8.053  15.557   0.461
 7478PP      PP17582   2.830   0.757  12.125
 7479PP      PP17583   5.802   8.326  13.503
 7480PP      PP17584   8.112  12.279   2.084
 7481PP      PP17585  12.630   6.748   1.614
 7482PP      PP17586   8.913   1.681   0.305
 7483PP      PP17587   0.107  13.995   0.386
 7484PP      PP17588   1.666  14.428   9.544
 7485PP      PP17589   6.483   0.403   9.090
 7486PP      PP17590  14.653   5.512  10.910
 7487PP      PP17591   7.574  11.497   4.649
 7488PP      PP17592   7.103   7.684  11.033
 7489PP      PP17593   3.972   5.625   8.766
 7490PP      PP17594  12.543   7.357  10.116
 7491PP      PP17595   2.371  14.739   8.595
 7492PP      PP17596  12.189  12.574   3.696
 7493PP      PP17597  13.405   3.138  12.413
 7494PP      PP17598   8.499   2.351  11.603
 7495PP      PP17599   5.838  13.538   3.666
 7496PP      PP17600   0.837  13.802   3.826
 7497PP      PP17601  15.790   2.442   3.197
 7498PP      PP17602  15.250   4.668   9.285
 7499PP      PP17603   8.119   0.153  10.707
 7500PP      PP17604   5.971  10.878  11.782
 7501PP      PP17605   9.046   7.619   3.986
 7502PP      PP17606   8.431  10.841   9.258
 7503PP      PP17607   3.055  15.761  10.255
 7504PP      PP17608   8.515  11.262   1.424
 7505PP      PP17609  10.357   0.363   1.369
 7506PP      PP17610   2.999   6.722   3.909
 7507PP      PP17611   7.274   3.684   3.744
 7508PP      PP17612  13.595   6.026  12.860
 7509PP      PP17613   0.542   7.618   0.582
 7510PP      PP17614   2.396   3.748  10.450
 7511PP      PP17615  13.558  14.787  13.406
 7512PP      PP17616  10.215  11.758   9.392
 7513PP      PP17617   2.210   5.738   3.249
 7514PP      PP17618   5.455   9.599  10.870
 7515PP      PP17619  13.008  14.175   2.975
 7516PP      PP17620   7.838   2.329   2.675
 7517PP      PP17621   1.722   9.104   9.304
 7518PP      PP17622   2.647   0.193   4.099
 7519PP      PP17623   1.554   0.499  10.179
 7520PP      PP17624   9.934  13.572  12.277
 7521PP      PP17625  13.153   0.110   9.358
 7522PP      PP17626  12.229  15.609   1.432
 7523PP      PP17627   6.513   4.312   0.842
 7524PP      PP17628   6.624   8.679  11.157
 7525PP      PP17629   4.935  11.791   7.785
 7526PP      PP17630   5.307   8.198  12.573
 7527PP      PP17631   8.963   0.527   0.632
 7528PP      PP17632   4.520   7.143   1.088
 7529PP      PP17633   6.678   5.577   1.298
 7530PP      PP17634  10.047   0.613  12.671
 7531PP      PP17635   1.990  11.064  12.403
 7532PP      PP17636  12.276  14.192   2.342
 7533PP      PP17637  12.833  13.315  12.016
 7534PP      PP17638   1.269  11.081   1.296
 7535PP      PP17639   2.129   8.306   1.128
 7536PP      PP17640   1.171   0.174  12.544
 7537PP      PP17641   2.137   0.124  11.080
 7538PP      PP17642  11.841  14.270  12.906
 7539PP      PP17643   6.680  12.101   1.282
 7540PP      PP17644  13.984   1.763  13.333
 7541PP      PP17645   7.406   0.903   0.307
 7542PP      PP17646   9.166   0.335   1.645
 7543PP      PP17647   4.092  11.941  10.483
 7544PP      PP17648   6.014   4.272   2.291
 7545PP      PP17649   2.340   3.712   9.507
 7546PP      PP17650  10.728   1.967   2.690
 7547PP      PP17651  14.900   6.683  11.174
 7548PP      PP17652   6.155  15.622   3.161
 7549PP      PP17653   8.522   3.701   0.817
 7550PP      PP17654  12.868   6.887   1.150
 7551PP      PP17655   2.918   1.539  10.227
 7552PP      PP17656  11.194   8.416  10.970
 7553PP      PP17657   5.185   5.779   1.234
 7554PP      PP17658   1.314   9.877  12.385
 7555PP      PP17659   2.699   5.319  11.588
 7556PP      PP17660   3.666  15.736   2.719
 7557PP      PP17661  10.596   5.300   8.944
 7558PP      PP17662   7.903   4.267   2.521
 7559PP      PP17663  14.815   2.579   2.766
 7560PP      PP17664   9.377   4.434   9.340
 7561PP      PP17665   4.095   4.448   1.175
 7562PP      PP17666  10.508   1.003  10.500
 7563PP      PP17667   0.112  13.100   0.602
 7564PP      PP17668   6.554   7.867  12.641
 7565PP      PP17669   6.486  10.391   9.982
 7566PP      PP17670   0.800  11.063  10.372
 7567PP      PP17671  14.163   3.759  11.691
 7568PP      PP17672  11.992   3.260  10.029
 7569PP      PP17673   3.521   1.755  11.641
 7570PP      PP17674   8.899  11.107   0.677
 7571PP      PP17675   8.170  15.182  12.526
 7572PP      PP17676   3.529   1.477  10.424
 7573PP      PP17677   9.122   9.617  10.871
 7574PP      PP17678  12.527   7.769   2.736
 7575PP      PP17679  14.126   3.654   2.685
 7576PP      PP17680   1.208   5.364  10.336
 7577PP      PP17681   7.147  11.627  11.802
 7578PP      PP17682  13.535   7.579   0.133
 7579PP      PP17683  13.331  12.935   9.853
 7580PP      PP17684  13.680   1.379  13.547
 7581PP      PP17685   9.055  12.674   1.727
 7582PP      PP17686   4.366   6.903  13.299
 7583PP      PP17687  15.705   3.188   0.281
 7584PP      PP17688  10.411  12.040   3.201
 7585PP      PP17689   3.067   6.971   2.712
 7586PP      PP17690  15.468   2.723   8.725
 7587PP      PP17691  15.213  12.870   1.389
 7588PP      PP17692   8.367  14.126  10.401
 7589PP      PP17693   2.011   6.556   4.315
 7590PP      PP17694   5.970   2.511   3.188
 7591PP      PP17695   2.558   4.597  12.727
 7592PP      PP17696   6.108   0.346   0.695
 7593PP      PP17697  11.688   9.971  13.314
 7594PP      PP17698  11.629  11.390   1.858
 7595PP      PP17699   6.884   6.964  10.505
 7596PP      PP17700   7.030  14.624   9.937
 7597PP      PP17701   1.964   7.654   1.885
 7598PP      PP17702  15.531   0.243   2.686
 7599PP      PP17703   1.849  15.371   9.428
 7600PP      PP17704   5.646   2.760  13.051
 7601PP      PP17705   6.822   2.399   1.558
 7602PP      PP17706   2.534   5.575   0.166
 7603PP      PP17707   4.768   4.481  13.072
 7604PP      PP17708  13.519   1.952   9.435
 7605PP      PP17709   7.442   8.561   2.606
 7606PP      PP17710   5.985   8.426  11.884
 7607PP      PP17711   7.022   5.905   4.175
 7608PP      PP17712  13.594  13.656   4.383
 7609PP      PP17713   0.991   1.967  11.873
 7610PP      PP17714  10.679   6.379   3.908
 7611PP      PP17715  14.738  14.119  12.257
 7612PP      PP17716   9.940   1.934  10.890
 7613PP      PP17717  15.799   4.673  11.253
 7614PP      PP17718   5.885   9.827   3.213
 7615PP      PP17719   8.101   9.090   0.426
 7616PP      PP17720   4.748  14.790  13.236
 7617PP      PP17721   9.380  15.638   4.171
 7618PP      PP17722  11.862   9.561   8.813
 7619PP      PP17723   4.472   8.305   3.118
 7620PP      PP17724  10.647  14.664   1.092
 7621PP      PP17725  11.362  13.412   2.847
 7622PP      PP17726  14.527   5.995   8.697
 7623PP      PP17727   7.316   8.173  11.013
 7624PP      PP17728   0.052  10.401   2.301
 7625PP      PP17729   9.602   6.204  10.912
 7626PP      PP17730  10.857  11.183   2.606
 7627PP      PP17731  11.200   1.323   2.337
 7628PP      PP17732  14.908  12.437  11.314
 7629PP      PP17733   1.720   5.084  10.656
 7630PP      PP17734  10.866   9.790   3.470
 7631PP      PP17735  13.974   4.599   1.064
 7632PP      PP17736  15.795   3.363  10.159
 7633PP      PP17737   8.410   8.872   9.538
 7634PP      PP17738  12.721  14.856   2.663
 7635PP      PP17739   4.374  10.646   7.979
 7636PP      PP17740   4.395   4.787  13.593
 7637PP      PP17741  10.036  10.329  11.217
 7638PP      PP17742  12.230   1.201  11.806
 7639PP      PP17743   3.312   1.554  12.102
 7640PP      PP17744  15.231  13.850  12.993
 7641PP      PP17745   7.218   1.335   1.263
 7642PP      PP17746   7.597   4.625   2.246
 7643PP      PP17747   2.030   0.238   3.230
 7644PP      PP17748   2.062  14.413  12.233
 7645PP      PP17749   3.559   0.170   9.282
 7646PP      PP17750  12.447   0.713  11.708
 7647PP      PP17751  12.394   6.492   9.884
 7648PP      PP17752   3.715   3.516   0.394
 7649PP      PP17753  10.468  12.244  10.552
 7650PP      PP17754  12.363  10.862  11.365
 7651PP      PP17755   4.410  10.876   0.887
 7652PP      PP17756   7.466   0.982  12.410
 7653PP      PP17757   5.328   6.174   9.256
 7654PP      PP17758   8.261   8.088   2.495
 7655PP      PP17759  13.343   4.880   2.678
 7656PP      PP17760   0.583   2.320  11.844
 7657PP      PP17761   6.193   1.478   2.182
 7658PP      PP17762   1.649   1.855   0.059
 7659PP      PP17763   1.529   2.254   9.842
 7660PP      PP17764  12.960   2.119  13.587
 7661PP      PP17765  10.309  12.841   2.993
 7662PP      PP17766  13.321   2.315   9.761
 7663PP      PP17767   4.989  14.901  11.580
 7664PP      PP17768  11.175   4.133   0.809
 7665PP      PP17769   9.442   2.574  12.613
 7666PP      PP17770  12.306   0.211  11.615
 7667PP      PP17771   8.329   5.827  11.776
 7668PP      PP17772   6.976   7.023  11.453
 7669PP      PP17773  10.205   9.527  10.122
 7670PP      PP17774  15.641  13.693  10.381
 7671PP      PP17775   8.715   7.846   8.920
 7672PP      PP17776  10.949   2.318   3.017
 7673PP      PP17777  15.592  14.657  11.625
 7674PP      PP17778   0.871  13.705   4.854
 7675PP      PP17779   6.731   1.992   9.662
 7676PP      PP17780   3.375  12.248  11.174
 7677PP      PP17781   1.298   3.499   2.073
 7678PP      PP17782   0.500   7.990  10.539
 7679PP      PP17783  14.576   2.899   1.710
 7680PP      PP17784   2.874   4.528  11.759
 7681PP      PP17785   9.703   0.364  12.329
 7682PP      PP17786  15.742   1.309   2.887
 7683PP      PP17787   7.039   2.427   2.472
 7684PP      PP17788   4.987  10.073  12.927
 7685PP      PP17789   4.186  10.712   2.830
 7686PP      PP17790   5.209  14.810   8.881
 7687PP      PP17791   4.248   3.278  13.440
 7688PP      PP17792  12.509   0.099  12.669
 7689PP      PP17793  10.908   4.754  10.260
 7690PP      PP17794   9.179  11.529   0.889
 7691PP      PP17795   7.096  11.411  13.545
 7692PP      PP17796   1.430  13.724   1.420
 7693PP      PP17797   5.003   8.314   9.843
 7694PP      PP17798  13.586   0.103   9.835
 7695PP      PP17799   3.613   6.232   0.192
 7696PP      PP17800  12.111   0.392   3.548
 7697PP      PP17801   5.753   6.269  11.401
 7698PP      PP17802   1.780  10.947   2.162
 7699PP      PP17803   7.038   1.178   1.987
 7700PP      PP17804   2.797  15.133   3.394
 7701PP      PP17805  14.815   4.005   0.363
 7702PP      PP17806   0.987  13.224  12.393
 7703PP      PP17807   6.474   0.679   0.907
 7704PP      PP17808  10.752   3.100   1.792
 7705PP      PP17809   3.948   8.586  11.906
 7706PP      PP17810  10.792   4.432   0.583
 7707PP      PP17811   7.230   1.218   4.156
 7708PP      PP17812   5.177   2.852   2.820
 7709PP      PP17813  14.218  13.809   3.246
 7710PP      PP17814   8.210   8.582   0.537
 7711PP      PP17815   1.172   0.171   4.524
 7712PP      PP17816   5.164   8.775   1.541
 7713PP      PP17817   6.159   8.087  12.241
 7714PP      PP17818   1.668   6.397   9.451
 7715PP      PP17819   0.405   4.251  10.452
 7716PP      PP17820   4.480   7.638   8.750
 7717PP      PP17821  14.144   8.379  11.481
 7718PP      PP17822   4.957  13.326   2.883
 7719PP      PP17823  11.465  15.650   1.743
 7720PP      PP17824  15.746  14.777   0.002
 7721PP      PP17825   0.272  11.223   3.830
 7722PP      PP17826  14.324   5.441  10.513
 7723PP      PP17827  14.273   7.522   1.810
 7724PP      PP17828  10.402  14.212   1.910
 7725PP      PP17829   0.290  12.855   1.529
 7726PP      PP17830  10.876  11.880  12.347
 7727PP      PP17831   0.091  15.219   1.382
 7728PP      PP17832   4.293  11.204   3.042
 7729PP      PP17833  14.824   2.243   4.530
 7730PP      PP17834   8.977   6.360  13.346
 7731PP      PP17835   4.324   4.500   2.538
 7732PP      PP17836  11.261   0.467   2.980
 7733PP      PP17837   8.805   2.164   1.934
 7734PP      PP17838   9.824   5.180   9.053
 7735PP      PP17839   3.206   8.734   0.293
 7736PP      PP17840   0.386   5.323  12.947
 7737PP      PP17841   7.626  14.336   2.999
 7738PP      PP17842  14.337  10.716  11.199
 7739PP      PP17843   8.790   8.184   2.731
 7740PP      PP17844  12.176   4.516   4.368
 7741PP      PP17845  12.549   5.113   1.586
 7742PP      PP17846   3.248   7.346   9.393
 7743PP      PP17847   6.074   9.156   1.660
 7744PP      PP17848  15.242  14.286  11.556
 7745PP      PP17849   0.880  14.335  10.226
 7746PP      PP17850   0.402   5.944  12.780
 7747PP      PP17851  11.336  12.039   2.618
 7748PP      PP17852  10.670  15.059   0.757
 7749PP      PP17853   0.122   3.543   2.302
 7750PP      PP17854   5.968   5.939   1.759
 7751PP      PP17855   5.029  15.751  10.222
 7752PP      PP17856  14.868   2.294  13.031
 7753PP      PP17857  10.515  15.034   2.650
 7754PP      PP17858  11.204  11.504  10.101
 7755PP      PP17859  14.128  12.827   2.821
 7756PP      PP17860   3.170  12.377  12.741
 7757PP      PP17861   4.247   6.909  10.952
 7758PP      PP17862  11.821  14.478   3.806
 7759PP      PP17863   5.413  10.446   0.792
 7760PP      PP17864  14.531   8.996  10.595
 7761PP      PP17865   2.693   7.839  12.106
 7762PP      PP17866   2.722  13.857   3.211
 7763PP      PP17867   1.410  12.912   2.895
 7764PP      PP17868  12.369  15.785  11.160
 7765PP      PP17869  14.963   9.763   0.767
 7766PP      PP17870  11.588   9.424   1.370
 7767PP      PP17871  14.092  15.543   3.351
 7768PP      PP17872   0.451   0.486  12.963
 7769PP      PP17873   2.562   5.059   9.176
 7770PP      PP17874  10.110   5.161  10.024
 7771PP      PP17875  10.894  12.147   4.373
 7772PP      PP17876  15.581   7.509   0.638
 7773PP      PP17877   9.966  14.859   0.245
 7774PP      PP17878   1.491  13.289   9.463
 7775PP      PP17879   9.209   9.875  12.108
 7776PP      PP17880   4.314   1.962  12.247
 7777PP      PP17881   7.785   6.452   3.185
 7778PP      PP17882   0.811  15.476   3.343
 7779PP      PP17883   6.403  13.664   1.873
 7780PP      PP17884   8.831   1.655   4.296
 7781PP      PP17885  11.215   0.541   4.575
 7782PP      PP17886   5.343   3.277  12.688
 7783PP      PP17887  14.467  15.375  10.148
 7784PP      PP17888   6.250   5.050   9.450
 7785PP      PP17889  13.556  10.472   2.429
 7786PP      PP17890   9.153   5.552  12.427
 7787PP      PP17891  14.557   5.914   2.573
 7788PP      PP17892   5.899   9.545   0.691
 7789PP      PP17893  11.538   9.832   9.108
 7790PP      PP17894   3.799   2.102   4.639
 7791PP      PP17895  12.494  11.254   0.693
 7792PP      PP17896   9.116   9.909  11.274
 7793PP      PP17897  10.403   4.970  12.829
 7794PP      PP17898   7.926   5.958  11.148
 7795PP      PP17899   7.883  13.460   3.285
 7796PP      PP17900   5.739   1.447   3.866
 7797PP      PP17901  10.161  11.644   3.482
 7798PP      PP17902   4.847   2.193   9.174
 7799PP      PP17903  14.536  11.133   9.652
 7800PP      PP17904   3.330   8.469   9.440
 7801PP      PP17905   8.725  13.086  12.785
 7802PP      PP17906  12.618  13.146   4.288
 7803PP      PP17907   1.287   0.941   9.330
 7804PP      PP17908   6.424   8.166   2.087
 7805PP      PP17909   1.636  15.213   2.627
 7806PP      PP17910  14.885   3.269  13.393
 7807PP      PP17911   7.208   0.535   1.196
 7808PP      PP17912  15.708   2.498  12.550
 7809PP      PP17913  13.073   9.910   2.286
 7810PP      PP17914   5.423   4.044  11.379
 7811PP      PP17915   2.251  10.505   3.976
 7812PP      PP17916   4.958   0.374  12.349
 7813PP      PP17917  12.442   1.735   3.338
 7814PP      PP17918   8.127  13.635  10.522
 7815PP      PP17919  12.422   9.056  12.302
 7816PP      PP17920   6.723  15.346   0.099
 7817PP      PP17921   3.572  12.298   3.405
 7818PP      PP17922  13.846   4.950   2.605
 7819PP      PP17923   0.971  15.256   0.087
 7820PP      PP17924   9.607   4.977   0.234
 7821PP      PP17925   0.173  14.330  13.582
 7822PP      PP17926  10.904   4.600   9.289
 7823PP      PP17927   6.506   9.306   4.373
 7824PP      PP17928   9.291   3.821  13.300
 7825PP      PP17929  13.916  13.419   0.240
 7826PP      PP17930  13.720  15.804   8.921
 7827PP      PP17931  12.178  12.305   4.577
 7828PP      PP17932   8.638   7.219  12.810
 7829PP      PP17933  15.062  10.494  13.159
 7830PP      PP17934   6.791   2.137  11.584
 7831PP      PP17935   1.386   2.992   2.843
 7832PP      PP17936   2.255  14.158  13.575
 7833PP      PP17937  11.497   8.035  10.745
 7834PP      PP17938   5.158  13.241  13.183
 7835PP      PP17939  12.423   5.007   4.433
 7836PP      PP17940   9.359   6.914   0.558
 7837PP      PP17941   6.327   5.601  12.596
 7838PP      PP17942  11.743   5.282  10.437
 7839PP      PP17943   5.888   0.553   4.420
 7840PP      PP17944  14.139  15.062   1.201
 7841PP      PP17945   6.974   2.986  12.811
 7842PP      PP17946   1.619   2.028  10.304
 7843PP      PP17947  11.969  12.760  11.899
 7844PP      PP17948   5.017   5.041   2.638
 7845PP      PP17949  15.074  14.419   3.503
 7846PP      PP17950   6.766  14.478   0.239
 7847PP      PP17951  14.756   3.887   1.543
 7848PP      PP17952  14.718   4.249   9.997
 7849PP      PP17953   0.839   3.801   9.661
 7850PP      PP17954   7.207   4.246  11.135
 7851PP      PP17955   0.826  10.070   9.145
 7852PP      PP17956   1.848   1.849   9.862
 7853PP      PP17957   9.749   7.524   3.214
 7854PP      PP17958   0.116   3.298   2.985
 7855PP      PP17959   7.076  14.618  10.968
 7856PP      PP17960  13.512   3.616  12.057
 7857PP      PP17961  14.979   2.079   2.577
 7858PP      PP17962   2.865   7.928   3.104
 7859PP      PP17963  15.358   4.045   8.641
 7860PP      PP17964   7.612   2.624   1.025
 7861PP      PP17965   1.329   4.274   4.758
 7862PP      PP17966   9.569  12.073   3.810
 7863PP      PP17967   9.506  10.004   2.808
 7864PP      PP17968   1.392  10.110   9.665
 7865PP      PP17969  14.318   3.143  13.022
 7866PP      PP17970   1.879   4.367   1.550
 7867PP      PP17971  12.904  14.564   1.510
 7868PP      PP17972  13.538  12.367  13.044
 7869PP      PP17973   9.737   1.910  11.367
 7870PP      PP17974  12.279  13.415  10.701
 7871PP      PP17975   6.743   2.539   2.046
 7872PP      PP17976  11.927   2.535  12.530
 7873PP      PP17977   3.626   6.598  13.395
 7874PP      PP17978   6.994   0.357   9.313
 7875PP      PP17979  12.992   8.993   1.062
 7876PP      PP17980  13.415  12.549   4.505
 7877PP      PP17981   4.132  12.904  10.156
 7878PP      PP17982  14.760  10.991   3.575
 7879PP      PP17983   7.585  11.270   1.234
 7880PP      PP17984   2.333   1.412   1.080
 7881PP      PP17985  11.279  15.710   0.410
 7882PP      PP17986  11.097   1.188  11.703
 7883PP      PP17987   5.871   5.786   8.073
 7884PP      PP17988  10.850   8.165   3.834
 7885PP      PP17989   6.752   3.514  11.657
 7886PP      PP17990   2.252  12.954   4.019
 7887PP      PP17991   1.880  10.781   3.701
 7888PP      PP17992  15.016   9.001  10.822
 7889PP      PP17993   3.197   6.282  13.395
 7890PP      PP17994   8.988  12.237  11.558
 7891PP      PP17995   7.469   6.651   1.708
 7892PP      PP17996   4.708  13.489  13.041
 7893PP      PP17997   5.806   1.797  11.107
 7894PP      PP17998   8.982  11.651   3.150
 7895PP      PP17999   0.454   3.383  12.493
 7896PP      PP18000   5.890  11.042   8.712
 7897PP      PP18001   7.098   4.887  10.611
 7898PP      PP18002   7.303  12.465  10.038
 7899PP      PP18003   8.685  15.054  10.040
 7900PP      PP18004   5.865  11.518   0.545
 7901PP      PP18005  14.020   8.186   9.251
 7902PP      PP18006   9.776   5.917   1.613
 7903PP      PP18007  15.318  10.799  12.834
 7904PP      PP18008  10.088  12.800   0.347
 7905PP      PP18009  12.252   9.470  12.584
 7906PP      PP18010  11.444   8.497   1.323
 7907PP      PP18011   9.731   3.435   0.308
 7908PP      PP18012  13.360   6.659   9.945
 7909PP      PP18013  10.008  13.386  13.162
 7910PP      PP18014  13.978  11.187  10.466
 7911PP      PP18015   3.595  14.094   8.613
 7912PP      PP18016   3.188  10.504   1.281
 7913PP      PP18017   4.772   1.282  10.754
 7914PP      PP18018   4.476  10.780   2.321
 7915PP      PP18019  13.913  11.463  11.332
 7916PP      PP18020   1.420   4.980   0.261
 7917PP      PP18021  14.981   7.511   1.311
 7918PP      PP18022  10.945  14.141   0.385
 7919PP      PP18023  15.489  15.374   1.781
 7920PP      PP18024  15.688   9.795  10.734
 7921PP      PP18025  10.475  12.935   9.944
 7922PP      PP18026   8.802   2.677   1.939
 7923PP      PP18027  14.099   7.724   0.435
 7924PP      PP18028   6.651  13.081   4.202
 7925PP      PP18029  10.618   7.268  10.189
 7926PP      PP18030   8.096   1.273   5.269
 7927PP      PP18031   7.604  13.471   1.176
 7928PP      PP18032  14.747   0.792   1.864
 7929PP      PP18033  11.807   7.664   8.555
 7930PP      PP18034  10.965   3.716   0.569
 7931PP      PP18035   2.572  11.548   4.057
 7932PP      PP18036  11.167   4.772   3.601
 7933PP      PP18037   3.659   5.374   1.589
 7934PP      PP18038   0.890  12.840   2.991
 7935PP      PP18039   1.272   9.409   3.732
 7936PP      PP18040   7.391  12.314   1.315
 7937PP      PP18041   7.611   0.244   4.691
 7938PP      PP18042   4.805   1.776  12.355
 7939PP      PP18043   0.792   4.658   9.608
 7940PP      PP18044  10.222   3.186   0.357
 7941PP      PP18045  11.165  14.351   3.196
 7942PP      PP18046  10.087   2.982  11.961
 7943PP      PP18047  10.905   1.234  11.209
 7944PP      PP18048   8.455  14.118   0.576
 7945PP      PP18049   4.667  10.345  11.618
 7946PP      PP18050   8.883   4.805   2.722
 7947PP      PP18051  13.929   0.102  13.136
 7948PP      PP18052   7.682   9.864  13.286
 7949PP      PP18053  12.997   9.375   1.430
 7950PP      PP18054   1.507  11.375  11.014
 7951PP      PP18055  12.000  14.982   2.523
 7952PP      PP18056  10.775  14.300   3.780
 7953PP      PP18057   7.030   0.603   2.894
 7954PP      PP18058  15.051   3.685   0.737
 7955PP      PP18059  11.309  14.216  12.767
 7956PP      PP18060  11.484   6.540   1.953
 7957PP      PP18061   0.626   8.102  11.316
 7958PP      PP18062   6.410  10.385  13.594
 7959PP      PP18063   3.302  13.092  10.736
 7960PP      PP18064  15.325   4.165   4.182
 7961PP      PP18065  15.435  10.330   9.630
 7962PP      PP18066   8.835  13.117  12.270
 7963PP      PP18067  12.397  15.523  11.799
 7964PP      PP18068  11.652  14.839   0.151
 7965PP      PP18069  13.926   3.240  10.174
 7966PP      PP18070  12.932   6.775   8.934
 7967PP      PP18071  12.543   5.867  10.478
 7968PP      PP18072   5.819  15.368   2.825
 7969PP      PP18073   4.420  13.717  11.602
 7970PP      PP18074   8.025   6.218  11.595
 7971PP      PP18075  15.344   9.374  10.633
 7972PP      PP18076   3.425  15.704  13.508
 7973PP      PP18077  10.205   2.070  11.574
 7974PP      PP18078  15.416   9.352   9.523
 7975PP      PP18079   0.381  10.660  11.768
 7976PP      PP18080  12.319   7.025   9.675
 7977PP      PP18081   6.887   7.275   4.152
 7978PP      PP18082  14.749  10.940  10.814
 7979PP      PP18083   0.359   8.564   8.380
 7980PP      PP18084  10.577   4.836   0.864
 7981PP      PP18085   1.039   7.587   1.947
 7982PP      PP18086   0.417   0.592   4.364
 7983PP      PP18087   7.964   7.800   0.213
 7984PP      PP18088   7.350  10.044   0.634
 7985PP      PP18089  10.367  14.963  11.620
 7986PP      PP18090   1.640   4.264   0.772
 7987PP      PP18091   2.503   2.452  10.000
 7988PP      PP18092  15.510   9.905  10.229
 7989PP      PP18093   0.928  14.181   5.116
 7990PP      PP18094   5.947   0.074   1.632
 7991PP      PP18095   7.670   7.029  12.760
 7992PP      PP18096   6.674  15.340   2.115
 7993PP      PP18097   2.421   0.914   0.903
 7994PP      PP18098  12.407  14.358   0.545
 7995PP      PP18099   4.741   3.582   2.387
 7996PP      PP18100  12.434   3.160  12.848
 7997PP      PP18101   3.569  11.245  10.192
 7998PP      PP18102  10.125  15.070   3.625
 7999PP      PP18103  11.603   5.499   1.413
 8000PP      PP18104  15.770   8.330   8.217
 8001PP      PP18105   2.157   4.557   3.345
 8002PP      PP18106   0.799   6.877   1.098
 8003PP      PP18107   0.553   3.943  11.668
 8004PP      PP18108  11.593   7.962  12.114
 8005PP      PP18109  11.986  10.425   3.806
 8006PP      PP18110   7.258   7.481   1.311
 8007PP      PP18111  13.769  12.786  10.116
 8008PP      PP18112   1.263  10.521   3.280
 8009PP      PP18113  11.055   9.205   0.357
 8010PP      PP18114   4.788   6.900  12.575
 8011PP      PP18115   5.354   6.017   0.344
 8012PP      PP18116   3.342   5.434  12.050
 8013PP      PP18117   0.794   6.028   2.432
 8014PP      PP18118  15.635  13.408   9.942
 8015PP      PP18119  14.473   4.749   1.110
 8016PP      PP18120  15.397  10.287   4.586
 8017PP      PP18121  14.488   6.284   8.235
 8018PP      PP18122   3.735   8.482  11.457
 8019PP      PP18123   8.482   3.566   1.908
 8020PP      PP18124   5.128  11.537   8.638
 8021PP      PP18125   4.304  12.658   9.700
 8022PP      PP18126   6.745  12.129   2.359
 8023PP      PP18127   6.649   3.071  13.217
 8024PP      PP18128   0.628   8.762  11.683
 8025PP      PP18129   8.484  10.291   2.542
 8026PP      PP18130   1.713   9.197   0.541
 8027PP      PP18131  15.449  10.662   2.395
 8028PP      PP18132  12.427  15.143   3.694
 8029PP      PP18133  13.177   3.863   0.924
 8030PP      PP18134  11.828  13.254  10.452
 8031PP      PP18135  13.898   7.049   1.176
 8032PP      PP18136  10.547   0.702  12.960
 8033PP      PP18137  14.326   0.079   1.236
 8034PP      PP18138  11.879   2.921   3.269
 8035PP      PP18139  14.909  10.332   0.037
 8036PP      PP18140  13.614   9.324  12.412
 8037PP      PP18141  15.066   0.346   0.576
 8038PP      PP18142  11.655   6.082   9.452
 8039PP      PP18143  11.174  13.780   1.992
 8040PP      PP18144   4.548  12.580   2.420
 8041PP      PP18145   5.456   7.875   0.601
 8042PP      PP18146  11.589   2.679   2.901
 8043PP      PP18147   9.317  13.012  11.217
 8044PP      PP18148   4.952   9.553   0.226
 8045PP      PP18149   3.369   4.594  10.064
 8046PP      PP18150   5.908  14.828   1.378
 8047PP      PP18151  11.999  10.893  10.177
 8048PP      PP18152  15.038   1.802  10.659
 8049PP      PP18153  12.210   8.239  11.965
 8050PP      PP18154   9.705   5.904   3.616
 8051PP      PP18155  13.394   7.326  10.640
 8052PP      PP18156   0.602  11.112  12.115
 8053PP      PP18157  13.565   0.459  12.038
 8054PP      PP18158   5.804   2.878   4.068
 8055PP      PP18159  10.728   6.864   9.069
 8056PP      PP18160  12.328   5.225  11.298
 8057PP      PP18161   8.361  15.649   5.217
 8058PP      PP18162  14.879  15.806   0.179
 8059PP      PP18163  15.635  15.697   3.216
 8060PP      PP18164   4.962  12.599  12.404
 8061PP      PP18165   3.180  14.039  12.010
 8062PP      PP18166  13.101   7.208   4.108
 8063PP      PP18167   9.361   2.035   0.559
 8064PP      PP18168  13.980  14.756   9.416
 8065PP      PP18169   7.553  11.032  12.604
 8066PP      PP18170   1.789  12.744   4.178
 8067PP      PP18171   6.013  14.626   2.102
 8068PP      PP18172  13.224   5.670  12.578
 8069PP      PP18173   6.845   6.399   8.984
 8070PP      PP18174  11.817   7.321   9.645
 8071PP      PP18175  10.896   6.116   3.488
 8072PP      PP18176   3.335  10.249   7.557
 8073PP      PP18177   9.431  11.167  10.860
 8074PP      PP18178   1.391  13.685  13.096
 8075PP      PP18179   0.016   7.550   2.011
 8076PP      PP18180   5.040  15.066   9.298
 8077PP      PP18181   6.131  10.018   0.443
 8078PP      PP18182  15.005  10.848   2.600
 8079PP      PP18183   8.967   0.984   3.866
 8080PP      PP18184   0.993  12.101   0.385
 8081PP      PP18185  12.168   5.351   2.891
 8082PP      PP18186  10.976  12.033   8.850
 8083PP      PP18187   3.911  14.789  12.736
 8084PP      PP18188  11.930   3.719  10.270
 8085PP      PP18189  14.805  10.608   0.983
 8086PP      PP18190  12.075   0.668   1.675
 8087PP      PP18191   7.458   7.774   0.315
 8088PP      PP18192   4.572   3.683  13.594
 8089PP      PP18193  14.630   1.848  10.342
 8090PP      PP18194   6.137   3.318   2.004
 8091PP      PP18195  11.040   1.664  10.023
 8092PP      PP18196   9.390   8.654   2.265
 8093PP      PP18197   7.034   3.934  13.210
 8094PP      PP18198  10.244   3.727   3.878
 8095PP      PP18199   5.971  15.553  12.702
 8096PP      PP18200   7.264   1.126  10.144
 8097PP      PP18201  11.208   4.751  10.694
 8098PP      PP18202   4.958   7.914   0.731
 8099PP      PP18203   1.102   3.384   9.550
 8100PP      PP18204  13.439  11.890  11.076
 8101PP      PP18205  15.437  13.729   0.739
 8102PP      PP18206   9.673   3.106   1.062
 8103PP      PP18207   6.375   2.442  12.476
 8104PP      PP18208  10.033   9.664   3.022
 8105PP      PP18209  13.387  10.531  13.544
 8106PP      PP18210   5.963   6.714  10.144
 8107PP      PP18211   9.730   4.389  10.813
 8108PP      PP18212   2.852  11.335  11.307
 8109PP      PP18213  11.093   9.587   1.325
 8110PP      PP18214   2.123   5.289  12.602
 8111PP      PP18215   6.062  11.515   2.491
 8112PP      PP18216  13.521   7.246  11.816
 8113PP      PP18217   8.618   9.262   1.004
 8114PP      PP18218  14.405  13.960  10.613
 8115PP      PP18219  11.386  11.058  11.058
 8116PP      PP18220  11.401  14.267   2.118
 8117PP      PP18221   4.288  11.178  13.261
 8118PP      PP18222   7.631   4.903   9.803
 8119PP      PP18223   7.073   2.648   0.309
 8120PP      PP18224  14.608  15.460  11.180
 8121PP      PP18225  10.794   7.973   8.563
 8122PP      PP18226   1.010   8.875   2.427
 8123PP      PP18227   0.216  13.841  12.080
 8124PP      PP18228  13.239   8.097   3.506
 8125PP      PP18229   6.637   2.401  11.147
 8126PP      PP18230   8.129  14.706  12.738
 8127PP      PP18231   4.286  11.483   9.747
 8128PP      PP18232   9.800  11.533   1.138
 8129PP      PP18233   8.519  14.624   3.118
 8130PP      PP18234   1.020  12.313  13.101
 8131PP      PP18235   0.529   3.323  11.619
 8132PP      PP18236   6.228   3.467   2.903
 8133PP      PP18237  14.516  11.537   1.781
 8134PP      PP18238   7.549  14.512   1.676
 8135PP      PP18239  14.627   6.914  13.138
 8136PP      PP18240   8.754   5.897  12.578
 8137PP      PP18241   8.662  10.047   0.722
 8138PP      PP18242   0.104   4.960   0.172
 8139PP      PP18243  12.753   5.019   3.471
 8140PP      PP18244   0.909   0.032  12.966
 8141PP      PP18245  13.820   5.570  12.802
 8142PP      PP18246   3.113   7.058   3.538
 8143PP      PP18247   7.210   9.525  12.097
 8144PP      PP18248   2.619   6.537   0.932
 8145PP      PP18249   0.535   5.437   9.300
 8146PP      PP18250   0.368  10.384   9.995
 8147PP      PP18251  13.147   7.970   9.836
 8148PP      PP18252  11.601  14.471  13.357
 8149PP      PP18253  14.966   2.519   9.862
 8150PP      PP18254  10.959   8.904  13.550
 8151PP      PP18255  13.402   7.086   8.570
 8152PP      PP18256  11.338  10.062  11.006
 8153PP      PP18257   5.980  14.992   0.485
 8154PP      PP18258   7.890  10.867   1.795
 8155PP      PP18259   7.830   3.692  12.032
 8156PP      PP18260   3.519   3.425   3.558
 8157PP      PP18261  15.020   5.106  12.601
 8158PP      PP18262   4.833   2.326  10.626
 8159PP      PP18263  13.982   8.184  11.985
 8160PP      PP18264   5.697  10.291   9.020
 8161PP      PP18265   4.697  15.732  13.244
 8162PP      PP18266  12.838   9.856  12.679
 8163PP      PP18267   7.786   9.041   4.131
 8164PP      PP18268   8.350   2.312   2.223
 8165PP      PP18269   9.968  15.702   5.021
 8166PP      PP18270  12.501   4.224   1.581
 8167PP      PP18271   9.249  13.270   4.655
 8168PP      PP18272  12.527   4.028   8.975
 8169PP      PP18273   2.923  14.920  12.029
 8170PP      PP18274  15.593   9.607   3.259
 8171PP      PP18275   1.976  15.748  11.976
 8172PP      PP18276  10.289  13.258  10.711
 8173PP      PP18277   9.650  10.009   9.663
 8174PP      PP18278   0.769   4.022   0.818
 8175PP      PP18279   3.983  15.484   4.162
 8176PP      PP18280  15.479   5.903   3.612
 8177PP      PP18281   2.820  15.375   2.382
 8178PP      PP18282   4.080   6.853   0.137
 8179PP      PP18283   5.001   6.078   2.985
 8180PP      PP18284   5.381   9.901   9.105
 8181PP      PP18285  14.501  14.749  10.952
 8182PP      PP18286   1.007   2.785   0.017
 8183PP      PP18287  14.353   5.100   3.438
 8184PP      PP18288   5.021   2.240  12.450
 8185PP      PP18289  14.209  13.058  13.297
 8186PP      PP18290   8.882  11.319   0.214
 8187PP      PP18291   4.470   9.904   9.752
 8188PP      PP18292   9.585   1.551   3.223
 8189PP      PP18293  13.624   2.445  13.158
 8190PP      PP18294   1.529   6.656  12.211
 8191PP      PP18295   7.329  14.919  13.101
 8192PP      PP18296   1.177   0.383   1.148
 8193PP      PP18297   7.202  13.178  10.655
 8194PP      PP18298   0.337   6.775   9.850
 8195PP      PP18299  11.137  15.455   0.830
 8196PP      PP18300   1.652  15.331  12.997
 8197PP      PP18301  15.114   7.538  12.480
 8198PP      PP18302   0.355   8.709   8.861
 8199PP      PP18303  13.240   9.975  10.105
 8200PP      PP18304   5.507   7.415   3.047
 8201PP      PP18305  15.692   6.466  11.132
 8202PP      PP18306  14.370   9.396  13.363
 8203PP      PP18307   3.928  13.466  11.618
 8204PP      PP18308   5.767   8.250  10.804
 8205PP      PP18309   4.941  11.111  12.239
 8206PP      PP18310  10.735   3.246   0.483
 8207PP      PP18311   0.782  14.796   2.324
 8208PP      PP18312  15.753  10.044   1.088
 8209PP      PP18313   6.816  12.848  12.444
 8210PP      PP18314   2.578   7.022   3.938
 8211PP      PP18315   7.915   2.798  11.610
 8212PP      PP18316  14.282   7.555   2.429
 8213PP      PP18317  12.291  12.942   0.911
 8214PP      PP18318   3.745  11.577   8.441
 8215PP      PP18319   4.383   2.573   3.828
 8216PP      PP18320  10.197   9.383  13.281
 8217PP      PP18321   7.482   7.157  10.752
 8218PP      PP18322   2.180  13.495  12.860
 8219PP      PP18323  14.705   8.374   1.775
 8220PP      PP18324   0.110   7.139  12.297
 8221PP      PP18325   6.367  11.241   9.208
 8222PP      PP18326   3.010   2.835  13.059
 8223PP      PP18327   4.953  11.814  10.048
 8224PP      PP18328   8.967   1.785  12.774
 8225PP      PP18329   7.220  12.168   2.013
 8226PP      PP18330  14.672  15.330   4.142
 8227PP      PP18331   7.187   1.122   0.726
 8228PP      PP18332  14.645   9.204   9.157
 8229PP      PP18333   2.162   8.094   0.208
 8230PP      PP18334   7.375   7.679   0.823
 8231PP      PP18335  11.284  10.200   1.661
 8232PP      PP18336   6.630  15.728   3.923
 8233PP      PP18337  15.449   0.981   9.873
 8234PP      PP18338   7.663   6.022   2.914
 8235PP      PP18339   4.489  11.434   1.676
 8236PP      PP18340  11.688   7.602  10.514
 8237PP      PP18341   1.681   3.855   0.440
 8238PP      PP18342   7.406  10.476   8.799
 8239PP      PP18343   5.043  15.059   3.160
 8240PP      PP18344   0.034   4.968  12.028
 8241PP      PP18345   5.964   5.704  10.825
 8242PP      PP18346  11.015   2.684  12.565
 8243PP      PP18347   0.069  12.018  13.248
 8244PP      PP18348  12.800   3.533   0.425
 8245PP      PP18349   3.693   6.568   3.296
 8246PP      PP18350   0.572   6.584  12.889
 8247PP      PP18351   5.254   1.114   3.128
 8248PP      PP18352   4.774   7.960   8.453
 8249PP      PP18353   4.756   2.146  11.982
 8250PP      PP18354  14.086  12.306   2.723
 8251PP      PP18355  13.731   2.989  13.131
 8252PP      PP18356  10.437  13.958   4.839
 8253PP      PP18357   2.857   8.279   9.382
 8254PP      PP18358  12.953   9.599  11.377
 8255PP      PP18359   1.443  11.537  13.393
 8256PP      PP18360   0.093   2.765  11.224
 8257PP      PP18361  11.749  11.800   9.985
 8258PP      PP18362   9.216   1.449   3.603
 8259PP      PP18363   9.015   7.026  10.298
 8260PP      PP18364   7.028   2.939   2.332
 8261PP      PP18365  11.851   9.238   1.796
 8262PP      PP18366   7.551  10.588   2.586
 8263PP      PP18367   0.330   4.464  10.923
 8264PP      PP18368  12.189   7.731  13.073
 8265PP      PP18369  15.761  14.215  11.823
 8266PP      PP18370   5.528  13.595  13.231
 8267PP      PP18371  11.406  14.498  10.247
 8268PP      PP18372  11.119   0.189   1.620
 8269PP      PP18373   8.568   5.409  10.900
 8270PP      PP18374   3.316   5.513  10.223
 8271PP      PP18375   8.943   7.872   0.896
 8272PP      PP18376   3.303   8.820   1.088
 8273PP      PP18377  10.866  10.858   0.784
 8274PP      PP18378   5.337  12.451   0.171
 8275PP      PP18379   5.077  12.784   3.345
 8276PP      PP18380   0.462  14.464   2.637
 8277PP      PP18381   2.958   6.141   3.000
 8278PP      PP18382  14.981   3.232   1.711
 8279PP      PP18383   9.798  13.444   3.870
 8280PP      PP18384  14.357   3.234   2.889
 8281PP      PP18385   2.481   2.871   1.642
 8282PP      PP18386   7.684  12.196   1.742
 8283PP      PP18387  10.529   8.960  13.219
 8284PP      PP18388   9.211   5.293   0.547
 8285PP      PP18389  14.899   9.596   8.854
 8286PP      PP18390   9.398   7.007  11.407
 8287PP      PP18391   6.848   4.463   8.602
 8288PP      PP18392  14.558   7.499   9.523
 8289PP      PP18393   1.539   0.033  12.213
 8290PP      PP18394  13.788   2.350  11.309
 8291PP      PP18395  12.132  11.046   4.046
 8292PP      PP18396  13.010  12.642  10.693
 8293PP      PP18397   6.264   2.455   4.273
 8294PP      PP18398  11.929  14.678   0.999
 8295PP      PP18399  10.160   0.302   0.365
 8296PP      PP18400   7.387  13.396  11.743
 8297PP      PP18401   1.146   7.560   4.083
 8298PP      PP18402  11.584   2.602   3.815
 8299PP      PP18403   7.745  12.668   1.943
 8300PP      PP18404  11.402   3.860   0.155
 8301PP      PP18405   8.631   9.280   9.755
 8302PP      PP18406  12.333  12.082  12.507
 8303PP      PP18407  12.792  15.723   3.001
 8304PP      PP18408   8.849  14.658   9.752
 8305PP      PP18409  10.697   1.269  12.069
 8306PP      PP18410   0.256   5.481  12.480
 8307PP      PP18411  11.374   7.903  10.251
 8308PP      PP18412   0.532  14.412   1.617
 8309PP      PP18413   1.405   1.820   9.550
 8310PP      PP18414   0.358  10.683  10.433
 8311PP      PP18415  13.496  10.135   3.046
 8312PP      PP18416  12.066   6.814   3.579
 8313PP      PP18417   1.892   2.180  12.392
 8314PP      PP18418  12.259   4.718   3.582
 8315PP      PP18419  13.337   4.448   3.811
 8316PP      PP18420  14.883  10.129   1.527
 8317PP      PP18421  11.599  14.836   3.456
 8318PP      PP18422   4.797   3.610   9.542
 8319PP      PP18423   7.079   6.241  12.760
 8320PP      PP18424   1.595  13.417   2.670
 8321PP      PP18425   4.694  11.309   0.004
 8322PP      PP18426   5.969   8.117   9.730
 8323PP      PP18427  11.271   5.712   1.085
 8324PP      PP18428   4.568   4.814   4.012
 8325PP      PP18429   6.737   1.585  12.669
 8326PP      PP18430   7.305  10.660  12.345
 8327PP      PP18431  13.337  10.716  10.418
 8328PP      PP18432  15.683   6.843   0.704
 8329PP      PP18433  12.003  11.778   2.343
 8330PP      PP18434   0.505   2.038   0.350
 8331PP      PP18435  12.266   4.850  13.194
 8332PP      PP18436   5.956   6.935  12.766
 8333PP      PP18437  11.746   4.753   2.394
 8334PP      PP18438   3.438  15.524   4.026
 8335PP      PP18439   5.943  14.919  12.707
 8336PP      PP18440   5.631  13.446  11.450
 8337PP      PP18441   8.447   5.739   9.682
 8338PP      PP18442   3.371   2.123   2.359
 8339PP      PP18443   9.207  14.706   0.612
 8340PP      PP18444  14.690   9.408   3.740
 8341PP      PP18445   7.442   3.003  13.067
 8342PP      PP18446   4.355   2.599  11.883
 8343PP      PP18447   4.597   5.684  11.613
 8344PP      PP18448  12.272  14.414  10.877
 8345PP      PP18449   2.884   6.113  10.100
 8346PP      PP18450   8.950  11.143  12.522
 8347PP      PP18451  10.381   3.969   9.496
 8348PP      PP18452   1.725   3.375   2.875
 8349PP      PP18453   2.381  13.448   9.137
 8350PP      PP18454   2.486   7.936  12.582
 8351PP      PP18455  13.001  15.035   0.252
 8352PP      PP18456   5.614  15.803   2.115
 8353PP      PP18457  12.297   2.275   1.069
 8354PP      PP18458  11.214   9.597  10.734
 8355PP      PP18459  10.050   2.962   2.682
 8356PP      PP18460  11.475   1.053  13.378
 8357PP      PP18461   9.843   6.309  13.082
 8358PP      PP18462   8.900  14.269   3.191
 8359PP      PP18463   4.480   9.092   9.151
 8360PP      PP18464   5.074  12.167   9.672
 8361PP      PP18465  12.783   3.246   9.202
 8362PP      PP18466  11.239   1.850   3.688
 8363PP      PP18467   3.794   2.181  11.756
 8364PP      PP18468   8.420  13.010   2.709
 8365PP      PP18469   6.614  13.675   2.646
 8366PP      PP18470   1.070  14.515   2.676
 8367PP      PP18471   9.085   3.286  10.277
 8368PP      PP18472   1.648   4.998  12.639
 8369PP      PP18473   7.995  11.603  12.973
 8370PP      PP18474  14.935  13.974   2.459
 8371PP      PP18475   4.096  11.718   1.440
 8372PP      PP18476   6.421   4.069  11.049
 8373PP      PP18477  12.085   7.129  11.365
 8374PP      PP18478  13.749   9.174  11.327
 8375PP      PP18479  10.795   3.634   0.058
 8376PP      PP18480   2.080   3.050   2.612
 8377PP      PP18481   1.698   5.459  12.394
 8378PP      PP18482  11.004   5.593   3.594
 8379PP      PP18483  15.795   7.200   1.080
 8380PP      PP18484  15.076  14.882   0.282
 8381PP      PP18485   1.311  14.114   4.732
 8382PP      PP18486   5.928  13.594   2.165
 8383PP      PP18487  11.545  12.996  11.558
 8384PP      PP18488  14.685  13.529   2.340
 8385PP      PP18489   0.970   6.985  12.453
 8386PP      PP18490  12.142  10.532   8.893
 8387PP      PP18491  12.565  11.923  13.434
 8388PP      PP18492   6.468   6.050   1.896
 8389PP      PP18493   4.916   3.704  12.746
 8390PP      PP18494  12.946   0.872  12.678
 8391PP      PP18495  12.491   4.079   4.354
 8392PP      PP18496   4.779   4.772   3.062
 8393PP      PP18497   6.788  12.378   8.820
 8394PP      PP18498   9.341   8.904   2.911
 8395PP      PP18499   4.226   0.247   3.652
 8396PP      PP18500   2.038  10.976  11.222
 8397PP      PP18501  15.698  10.013   3.609
 8398PP      PP18502  13.970  11.370   4.510
 8399PP      PP18503  14.869  13.514   1.575
 8400PP      PP18504  14.760   2.852   2.187
 8401PP      PP18505   6.526  12.844   1.398
 8402PP      PP18506  11.846   4.395   1.041
 8403PP      PP18507  15.459   0.791   0.207
 8404PP      PP18508  11.550  10.669  11.465
 8405PP      PP18509   0.368   3.884   0.485
 8406PP      PP18510   4.477   4.136  10.466
 8407PP      PP18511  11.010   6.586   9.963
 8408PP      PP18512   0.173   1.964  12.178
 8409PP      PP18513   7.437   0.912  11.078
 8410PP      PP18514  13.903   2.786   1.586
 8411PP      PP18515   6.149   1.105   2.562
 8412PP      PP18516   0.690   6.311   0.168
 8413PP      PP18517  12.599   9.707   1.370
 8414PP      PP18518   9.991   1.068  10.759
 8415PP      PP18519   8.662  13.937   1.038
 8416PP      PP18520   7.731   7.327  13.186
 8417PP      PP18521   3.491   1.902  10.767
 8418PP      PP18522  14.875   2.339  10.366
 8419PP      PP18523   1.244  15.278   0.560
 8420PP      PP18524   1.327  14.875   4.428
 8421PP      PP18525  12.784   7.324  12.085
 8422PP      PP18526   3.190   4.048  12.392
 8423PP      PP18527   7.801   2.319  13.441
 8424PP      PP18528   0.944   0.675  12.346
 8425PP      PP18529   4.223   3.504   0.324
 8426PP      PP18530   4.201   5.982  10.956
 8427PP      PP18531   3.272   1.059  10.788
 8428PP      PP18532   1.678   2.087   3.371
 8429PP      PP18533   6.990  14.199  11.315
 8430PP      PP18534   0.033   7.181   1.628
 8431PP      PP18535   7.232  10.867  10.184
 8432PP      PP18536  12.691  14.920   5.230
 8433PP      PP18537   5.078  13.828  13.157
 8434PP      PP18538   6.676   3.974   2.273
 8435PP      PP18539  12.238  10.450   2.425
 8436PP      PP18540   9.098   7.308   0.768
 8437PP      PP18541  10.580  14.233   1.399
 8438PP      PP18542   3.220  12.933   0.724
 8439PP      PP18543  12.580  10.974   3.121
 8440PP      PP18544  14.318  13.944   5.267
 8441PP      PP18545   8.380   3.122   2.715
 8442PP      PP18546   0.662   2.944   4.085
 8443PP      PP18547   3.934   1.535  11.393
 8444PP      PP18548   6.518   8.818  10.618
 8445PP      PP18549  12.843   2.314  12.504
 8446PP      PP18550   6.018  11.746   1.993
 8447PP      PP18551   0.635   9.257  10.809
 8448PP      PP18552   3.044  11.965   8.030
 8449PP      PP18553   9.778  13.410  10.787
 8450PP      PP18554  14.451  11.222  11.191
 8451PP      PP18555  15.265  12.339  10.669
 8452PP      PP18556   5.135  15.186   0.237
 8453PP      PP18557  12.313   2.864  11.637
 8454PP      PP18558  10.332  15.730   9.543
 8455PP      PP18559  14.224  15.100  11.307
 8456PP      PP18560   3.903  14.434   8.877
 8457PP      PP18561   7.093   2.292  10.907
 8458PP      PP18562  15.425  13.378  10.743
 8459PP      PP18563  11.779  10.543   9.856
 8460PP      PP18564  10.044   0.948   9.726
 8461PP      PP18565  14.295  12.440   3.228
 8462PP      PP18566  13.169   8.495  11.999
 8463PP      PP18567   9.902   6.732  10.693
 8464PP      PP18568  12.381   5.174   3.928
 8465PP      PP18569  14.016   5.360   9.289
 8466PP      PP18570   2.976  10.812   0.478
 8467PP      PP18571  15.775   8.746   4.222
 8468PP      PP18572   9.589  14.447   2.452
 8469PP      PP18573   1.174   2.525   2.609
 8470PP      PP18574   7.729  15.261   9.703
 8471PP      PP18575   4.458   5.505   9.655
 8472PP      PP18576   0.893   7.237   7.948
 8473PP      PP18577   3.203  14.862   9.153
 8474PP      PP18578   4.970   5.108   0.546
 8475PP      PP18579  15.396  11.623   2.908
 8476PP      PP18580   9.986   9.495  12.423
 8477PP      PP18581   8.620  12.062   4.701
 8478PP      PP18582  15.638  10.900   3.991
 8479PP      PP18583   1.363  15.536  10.302
 8480PP      PP18584  13.389   1.244  11.463
 8481PP      PP18585   4.248  15.782   1.858
 8482PP      PP18586   6.792   6.102   2.908
 8483PP      PP18587   2.691   3.235   3.247
 8484PP      PP18588   9.002  10.879  10.816
 8485PP      PP18589   8.619   3.468  12.661
 8486PP      PP18590  15.597   8.931   1.912
 8487PP      PP18591   5.063  12.406   9.164
 8488PP      PP18592   7.052   7.765  13.354
 8489PP      PP18593   5.007   4.214   8.983
 8490PP      PP18594  15.309   6.007   3.105
 8491PP      PP18595   2.950   2.548  11.195
 8492PP      PP18596   6.275   4.504   4.212
 8493PP      PP18597   8.124   3.347   9.244
 8494PP      PP18598   5.421  12.029  13.392
 8495PP      PP18599   8.560  13.362   1.277
 8496PP      PP18600  15.721  12.913  13.293
 8497PP      PP18601   0.958  13.775   0.881
 8498PP      PP18602  11.269   1.332  12.196
 8499PP      PP18603  13.507   1.034   2.308
 8500PP      PP18604   2.299  12.214  12.467
 8501PP      PP18605  11.150   1.294   3.428
 8502PP      PP18606  13.399  14.156   9.534
 8503PP      PP18607   2.169   5.652  11.615
 8504PP      PP18608  13.340  13.334  11.828
 8505PP      PP18609   3.907  12.759   1.309
 8506PP      PP18610   3.989   5.089   1.859
 8507PP      PP18611   2.609   6.714   3.509
 8508PP      PP18612  13.981   8.545   1.347
 8509PP      PP18613   4.013  13.268   8.764
 8510PP      PP18614   6.629  14.674  11.247
 8511PP      PP18615   3.596   2.084   3.974
 8512PP      PP18616   7.787   2.058  12.116
 8513PP      PP18617   8.874  11.713   1.333
 8514PP      PP18618  15.279   1.205  11.245
 8515PP      PP18619   2.065  13.962   0.430
 8516PP      PP18620  10.900  10.612   1.266
 8517PP      PP18621   3.164   4.940  13.519
 8518PP      PP18622  15.605   5.985   9.489
 8519PP      PP18623  12.520   4.682   4.029
 8520PP      PP18624  15.102   8.769  11.394
 8521PP      PP18625  12.211   1.907   2.466
 8522PP      PP18626   1.549  12.316  13.043
 8523PP      PP18627   2.667  10.899  11.559
 8524PP      PP18628  11.300   0.698  10.055
 8525PP      PP18629   6.413   1.796   2.594
 8526PP      PP18630  13.554   4.871   0.799
 8527PP      PP18631   3.494  14.249  11.394
 8528PP      PP18632   1.654   4.483   0.289
 8529PP      PP18633   1.109   9.292   1.099
 8530PP      PP18634   5.504   0.618   4.831
 8531PP      PP18635   5.937  10.531   8.645
 8532PP      PP18636  13.419   1.063   1.545
 8533PP      PP18637   0.426  15.460  12.298
 8534PP      PP18638   3.291  12.262   8.406
 8535PP      PP18639   5.571  11.175   0.319
 8536PP      PP18640   0.127   0.104   0.009
 8537PP      PP18641   8.899   8.613  11.072
 8538PP      PP18642   0.548  14.505   3.259
 8539PP      PP18643   0.301   9.418   2.589
 8540PP      PP18644  10.021  13.143   2.691
 8541PP      PP18645   6.803  12.527   0.683
 8542PP      PP18646  11.528   6.573   3.041
 8543PP      PP18647   9.892  15.419   2.086
 8544PP      PP18648   5.559   6.689   1.009
 8545PP      PP18649  15.612  12.743   1.062
 8546PP      PP18650   4.619   9.295  11.116
 8547PP      PP18651  10.766   4.179  10.158
 8548PP      PP18652   4.956   3.792  13.273
 8549PP      PP18653   4.272   4.007   3.345
 8550PP      PP18654   9.269  15.563   0.418
 8551PP      PP18655   7.251  13.152  10.123
 8552PP      PP18656   2.550   1.111  13.512
 8553PP      PP18657  14.418   6.760   2.066
 8554PP      PP18658  10.425   8.542  12.626
 8555PP      PP18659   4.521   3.560   0.755
 8556PP      PP18660   3.286   1.030  12.091
 8557PP      PP18661   7.571  14.301   3.516
 8558PP      PP18662  13.615  13.593   1.355
 8559PP      PP18663   0.972   7.085   8.469
 8560PP      PP18664   3.541   5.170   3.599
 8561PP      PP18665   9.236  13.890  12.800
 8562PP      PP18666  13.202   0.846   8.691
 8563PP      PP18667   6.518   6.973  10.927
 8564PP      PP18668   4.930   8.690  13.310
 8565PP      PP18669   1.512   0.629   1.542
 8566PP      PP18670  12.795  15.332   4.450
 8567PP      PP18671   2.097   1.103   0.487
 8568PP      PP18672   0.146  14.135   1.432
 8569PP      PP18673   9.201   1.554   0.727
 8570PP      PP18674  15.199   9.750  10.940
 8571PP      PP18675   4.298   8.098   1.537
 8572PP      PP18676  12.821   0.192  11.279
 8573PP      PP18677   4.637   7.275  11.759
 8574PP      PP18678   4.719  10.055   1.481
 8575PP      PP18679  12.344   3.569  11.140
 8576PP      PP18680   1.409   2.957   0.336
 8577PP      PP18681  15.582  15.504   3.746
 8578PP      PP18682   6.740   4.357   1.796
 8579PP      PP18683   4.864   5.464  12.120
 8580PP      PP18684   4.976   4.677   4.321
 8581PP      PP18685  13.317   6.300   8.859
 8582PP      PP18686  13.633   1.948  12.971
 8583PP      PP18687  14.324   0.817   9.270
 8584PP      PP18688   6.143  14.535   9.365
 8585PP      PP18689  15.170  10.745   3.393
 8586PP      PP18690   9.381   7.704  10.964
 8587PP      PP18691   9.129   8.882  10.240
 8588PP      PP18692  11.361   4.707  13.044
 8589PP      PP18693   2.477   4.763   2.081
 8590PP      PP18694   1.671   7.129   2.277
 8591PP      PP18695   0.409  10.639  13.070
 8592PP      PP18696   1.653   5.167  10.137
 8593PP      PP18697  12.413   9.015   0.227
 8594PP      PP18698   8.030   1.158   1.392
 8595PP      PP18699   2.569  15.784  11.308
 8596PP      PP18700   5.920   5.379   0.927
 8597PP      PP18701   8.453   7.964  12.635
 8598PP      PP18702  15.728   1.031   8.867
 8599PP      PP18703   2.509   6.974   9.287
 8600PP      PP18704   0.281   3.137   9.824
 8601PP      PP18705   0.999   0.435   3.148
 8602PP      PP18706  14.091   6.280   0.138
 8603PP      PP18707   7.760  15.273   1.860
 8604PP      PP18708   1.750   1.983   0.723
 8605PP      PP18709  10.019  15.526  10.963
 8606PP      PP18710   4.002  14.656   0.982
 8607PP      PP18711   9.706   1.967   1.953
 8608PP      PP18712   7.113   3.457  10.026
 8609PP      PP18713   6.086   7.856   0.735
 8610PP      PP18714   6.867   7.539   0.824
 8611PP      PP18715   4.250  11.760  11.581
 8612PP      PP18716   5.100   7.556   2.483
 8613PP      PP18717   5.882   3.492   9.966
 8614PP      PP18718   9.207   4.402   2.596
 8615PP      PP18719   5.873   2.527   4.608
 8616PP      PP18720   6.825  10.086  13.429
 8617PP      PP18721  10.323   6.950   1.539
 8618PP      PP18722   0.430   2.312  10.861
 8619PP      PP18723  15.671  13.327  11.841
 8620PP      PP18724   2.013  12.564   0.725
 8621PP      PP18725   7.154  14.480  12.885
 8622PP      PP18726  10.604   6.294   8.659
 8623PP      PP18727   8.733  11.875  11.135
 8624PP      PP18728  11.215   1.785   2.734
 8625PP      PP18729   0.827   5.526   8.850
 8626PP      PP18730  13.136   7.954   0.397
 8627PP      PP18731   4.162   4.258   2.031
 8628PP      PP18732  15.666   6.868   9.880
 8629PP      PP18733   2.748  10.072   9.296
 8630PP      PP18734   7.917  13.712  11.514
 8631PP      PP18735  10.240   9.045   1.434
 8632PP      PP18736   4.695   8.943   8.642
 8633PP      PP18737  11.564  12.717   9.850
 8634PP      PP18738  15.067  11.789   4.414
 8635PP      PP18739   3.522   1.476  13.486
 8636PP      PP18740  12.396  14.691   2.314
 8637PP      PP18741   3.047  14.364  12.389
 8638PP      PP18742  11.822  12.906   9.384
 8639PP      PP18743   3.054   8.603  12.093
 8640PP      PP18744   3.781  15.774  11.290
 8641PP      PP18745   2.366  15.551  13.557
 8642PP      PP18746   3.466   8.079  10.663
 8643PP      PP18747  14.149   7.671   3.751
 8644PP      PP18748   7.035   7.784   8.787
 8645PP      PP18749  10.721   7.414  13.598
 8646PP      PP18750   3.299  10.383  13.379
 8647PP      PP18751   5.759   8.578   9.602
 8648PP      PP18752   2.059   6.545   1.657
 8649PP      PP18753  10.309  15.047   1.159
 8650PP      PP18754   2.069   0.906  13.573
 8651PP      PP18755  15.172  11.131   0.199
 8652PP      PP18756  15.332  11.135   2.131
 8653PP      PP18757   7.455   1.646   3.812
 8654PP      PP18758   5.640   5.281  10.927
 8655PP      PP18759  15.369   1.362  10.744
 8656PP      PP18760   8.606   2.441   1.514
 8657PP      PP18761   9.428  14.152  13.492
 8658PP      PP18762   8.056  12.864  10.108
 8659PP      PP18763   2.948   4.815   1.870
 8660PP      PP18764   1.465   2.295   3.864
 8661PP      PP18765   3.539  13.441   8.968
 8662PP      PP18766  13.143  14.865   9.606
 8663PP      PP18767  10.987   0.173   0.750
 8664PP      PP18768   3.063  13.539   3.937
 8665PP      PP18769   6.183  10.161   9.637
 8666PP      PP18770  12.490   6.865  10.228
 8667PP      PP18771  12.936   6.275  10.701
 8668PP      PP18772   5.131   9.221  10.954
 8669PP      PP18773  13.171   3.362   0.746
 8670PP      PP18774   7.086   5.727   8.917
 8671PP      PP18775   0.276  14.600  12.634
 8672PP      PP18776   7.634   7.800  13.410
 8673PP      PP18777  15.228   3.364   0.360
 8674PP      PP18778   3.242   0.190   2.829
 8675PP      PP18779   6.075  14.126  12.402
 8676PP      PP18780  12.009  12.216   4.076
 8677PP      PP18781   0.560   8.025  13.347
 8678PP      PP18782   9.968   5.370   2.882
 8679PP      PP18783  13.285   7.266  13.374
 8680PP      PP18784  14.143   0.928  12.196
 8681PP      PP18785   5.712  13.966   2.991
 8682PP      PP18786   4.289  15.149   0.525
 8683PP      PP18787   9.808   8.699   2.545
 8684PP      PP18788  15.218  12.523   0.214
 8685PP      PP18789   6.119  10.311  12.562
 8686PP      PP18790  11.221   7.955  11.197
 8687PP      PP18791   9.288   3.803   0.265
 8688PP      PP18792   1.546  10.051  11.629
 8689PP      PP18793   5.143   1.759   9.034
 8690PP      PP18794   9.412   9.337   1.516
 8691PP      PP18795  10.800   9.248   9.582
 8692PP      PP18796  15.689   2.322   0.423
 8693PP      PP18797   1.776   8.931   2.411
 8694PP      PP18798  11.242   2.351   3.483
 8695PP      PP18799   4.166  15.286   8.987
 8696PP      PP18800   4.837   6.441   0.322
 8697PP      PP18801  14.490   3.277   3.450
 8698PP      PP18802   6.672  11.547  10.584
 8699PP      PP18803   7.814   6.334   4.468
 8700PP      PP18804   2.144  15.460   0.518
 8701PP      PP18805  10.558   8.414   2.980
 8702PP      PP18806   5.053   8.304   8.173
 8703PP      PP18807   4.676   4.274   0.027
 8704PP      PP18808   4.676   8.750  10.445
 8705PP      PP18809  14.774   0.128   3.636
 8706PP      PP18810  14.524   2.890   3.856
 8707PP      PP18811   2.247   0.399   2.179
 8708PP      PP18812  12.490  14.195  10.041
 8709PP      PP18813   4.232   3.185   1.754
 8710PP      PP18814   4.035   5.648  10.559
 8711PP      PP18815   3.880   7.925   9.964
 8712PP      PP18816  10.351  13.902   5.347
 8713PP      PP18817   8.131   5.227  12.296
 8714PP      PP18818  11.747  10.485  10.390
 8715PP      PP18819  10.032   1.408   1.212
 8716PP      PP18820   1.818   2.009   4.119
 8717PP      PP18821   6.592   7.942   3.958
 8718PP      PP18822   0.779   2.612   9.312
 8719PP      PP18823   2.189   3.228  10.453
 8720PP      PP18824   3.733  10.185   8.489
 8721PP      PP18825   9.170  15.825  10.431
 8722PP      PP18826   5.549  14.591   2.937
 8723PP      PP18827   0.646  11.592   0.430
 8724PP      PP18828   4.040  10.704   1.857
 8725PP      PP18829  13.400   4.469   4.499
 8726PP      PP18830   7.991  10.142   3.271
 8727PP      PP18831   9.326   2.203  11.178
 8728PP      PP18832  14.526  10.886   1.326
 8729PP      PP18833   5.360   0.885   9.559
 8730PP      PP18834  11.329   9.697  13.560
 8731PP      PP18835   9.584  12.154  10.858
 8732PP      PP18836   3.281  13.150   3.489
 8733PP      PP18837  10.777  10.349   1.721
 8734PP      PP18838   8.524   0.175   0.492
 8735PP      PP18839  13.041   4.040   9.047
 8736PP      PP18840  11.379  12.996   4.535
 8737PP      PP18841   1.472   0.566   3.347
 8738PP      PP18842   7.881   4.218   0.505
 8739PP      PP18843   7.160  14.136   9.854
 8740PP      PP18844   2.442   8.337  12.243
 8741PP      PP18845   5.738   4.433  11.922
 8742PP      PP18846   6.339   8.812  12.957
 8743PP      PP18847   8.501   6.762   1.524
 8744PP      PP18848  13.316   1.911   2.381
 8745PP      PP18849   1.505   0.421   0.727
 8746PP      PP18850  11.745   0.813   0.679
 8747PP      PP18851   7.966  12.644   4.301
 8748PP      PP18852   1.134   3.353   1.036
 8749PP      PP18853   3.048  15.432   0.140
 8750PP      PP18854   3.042   0.220  10.700
 8751PP      PP18855   0.174  12.970   4.100
 8752PP      PP18856   1.025  12.235   0.900
 8753PP      PP18857  14.616   5.421  13.405
 8754PP      PP18858   1.513   7.677   2.181
 8755PP      PP18859  10.491  10.733  12.018
 8756PP      PP18860  11.485   1.001   3.712
 8757PP      PP18861   5.256  11.484  11.790
 8758PP      PP18862  13.140   5.105   3.096
 8759PP      PP18863  13.214   6.998  12.188
 8760PP      PP18864  14.461   8.747   2.098
 8761PP      PP18865   7.565   1.826   4.888
 8762PP      PP18866  10.126   9.980   9.867
 8763PP      PP18867   0.151  11.377  10.351
 8764PP      PP18868  11.765   7.898   1.863
 8765PP      PP18869   3.073   6.353   2.169
 8766PP      PP18870  12.990  13.725   2.670
 8767PP      PP18871  14.676  11.335   9.154
 8768PP      PP18872   2.921   1.790  12.531
 8769PP      PP18873   4.917   2.457   1.445
 8770PP      PP18874   0.028   4.395   1.728
 8771PP      PP18875  10.217   3.212   9.231
 8772PP      PP18876  11.552   7.251   4.044
 8773PP      PP18877   2.285   5.416  12.109
 8774PP      PP18878   0.927   7.169  11.095
 8775PP      PP18879   0.630  15.366   2.780
 8776PP      PP18880   3.945   5.514   8.238
 8777PP      PP18881  10.465   1.477   0.593
 8778PP      PP18882   1.849   6.344   3.851
 8779PP      PP18883   8.252   5.983  12.759
 8780PP      PP18884   2.647   0.726   2.036
 8781PP      PP18885   0.065   8.072  12.373
 8782PP      PP18886   7.394  10.155  13.595
 8783PP      PP18887  11.678  15.815   2.182
 8784PP      PP18888   2.199   9.202   0.713
 8785PP      PP18889   1.277   3.804   4.531
 8786PP      PP18890   6.290  12.158   4.147
 8787PP      PP18891   0.233   3.486  12.013
 8788PP      PP18892  11.303  12.503  11.269
 8789PP      PP18893   8.037   0.221   5.213
 8790PP      PP18894   9.852  15.670   2.737
 8791PP      PP18895  10.349   3.512  12.329
 8792PP      PP18896   6.201   1.826  11.494
 8793PP      PP18897   9.335   9.081   3.413
 8794PP      PP18898   2.538   9.465  13.028
 8795PP      PP18899   5.764   2.280   4.165
 8796PP      PP18900  11.698  10.347   0.851
 8797PP      PP18901   4.997   1.817   5.333
 8798PP      PP18902  11.417  14.213  10.677
 8799PP      PP18903   5.475   1.080   1.785
 8800PP      PP18904   0.685   9.561   1.250
 8801PP      PP18905  15.231  10.005  13.275
 8802PP      PP18906   8.858   9.888   4.334
 8803PP      PP18907  12.134   3.645   2.874
 8804PP      PP18908   1.460   6.212   9.895
 8805PP      PP18909   9.106   3.767   4.049
 8806PP      PP18910  12.454  10.993  11.873
 8807PP      PP18911   7.829   0.706   0.485
 8808PP      PP18912   2.292   2.447  12.027
 8809PP      PP18913   5.280   7.903   1.116
 8810PP      PP18914  12.939  15.041   3.470
 8811PP      PP18915   3.848  12.228  10.881
 8812PP      PP18916  13.603   4.381   0.238
 8813PP      PP18917   4.885  11.438  10.453
 8814PP      PP18918   7.110  12.460   4.837
 8815PP      PP18919   7.533  10.326   2.117
 8816PP      PP18920   6.289   5.837   8.411
 8817PP      PP18921   1.862  14.816   4.448
 8818PP      PP18922   5.430   1.444  12.297
 8819PP      PP18923  11.009   0.085   2.648
 8820PP      PP18924   1.923  13.384   9.726
 8821PP      PP18925   4.598  13.552  10.858
 8822PP      PP18926   3.267   1.168  11.277
 8823PP      PP18927   7.995   7.428   9.477
 8824PP      PP18928  13.354   6.435  10.968
 8825PP      PP18929   1.649   9.238   9.796
 8826PP      PP18930  12.820  12.761  12.210
 8827PP      PP18931  10.137  13.812   2.090
 8828PP      PP18932   0.485   4.138   1.236
 8829PP      PP18933   2.389  11.209  12.108
 8830PP      PP18934   7.776   5.515   8.365
 8831PP      PP18935   9.261   2.167   4.863
 8832PP      PP18936  13.704   8.665   0.787
 8833PP      PP18937  10.881  11.766   3.324
 8834PP      PP18938  13.472   6.183   3.236
 8835PP      PP18939   2.288   0.961  13.061
 8836PP      PP18940  13.114   9.309   9.439
 8837PP      PP18941   6.069   4.532   9.042
 8838PP      PP18942   8.480  10.153  10.443
 8839PP      PP18943   6.074  14.281  11.888
 8840PP      PP18944   2.020  10.702   0.211
 8841PP      PP18945   8.015   2.429  11.257
 8842PP      PP18946  14.124   3.673  11.160
 8843PP      PP18947   6.909  10.261   3.355
 8844PP      PP18948   7.759  11.475   0.782
 8845PP      PP18949   7.249  14.314   2.202
 8846PP      PP18950  15.090  14.061   4.339
 8847PP      PP18951  12.239   8.181  12.815
 8848PP      PP18952   1.863   1.609   1.489
 8849PP      PP18953   2.908   0.701  10.630
 8850PP      PP18954   2.490   6.823  11.804
 8851PP      PP18955   5.139  10.481  10.270
 8852PP      PP18956  15.534   3.539  11.960
 8853PP      PP18957   9.930   7.898   9.118
 8854PP      PP18958  11.900   7.852   9.537
 8855PP      PP18959   1.544  14.528  12.118
 8856PP      PP18960   1.547   0.815   0.030
 8857PP      PP18961  12.849   8.679   8.482
 8858PP      PP18962   6.655  14.575   3.903
 8859PP      PP18963   3.257   2.412  10.745
 8860PP      PP18964  11.292   6.925   8.950
 8861PP      PP18965   4.574   4.975  13.019
 8862PP      PP18966   0.675  12.085   3.597
 8863PP      PP18967  15.386   2.395   3.866
 8864PP      PP18968   4.742  13.052  10.912
 8865PP      PP18969  11.365   8.454  12.690
 8866PP      PP18970   4.435   7.439   3.391
 8867PP      PP18971   5.729   6.967   3.331
 8868PP      PP18972   6.377  11.627   0.460
 8869PP      PP18973  15.593  10.188   4.100
 8870PP      PP18974   4.179   6.409   8.757
 8871PP      PP18975   7.299   3.829   9.150
 8872PP      PP18976  13.327  15.629  12.511
 8873PP      PP18977  14.862   7.001  12.270
 8874PP      PP18978   4.603   4.772  10.388
 8875PP      PP18979  13.244  12.186   1.528
 8876PP      PP18980  12.923   8.851   1.543
 8877PP      PP18981  10.387  15.664   1.459
 8878PP      PP18982   1.546   9.074  12.865
 8879PP      PP18983   9.928  14.528  13.088
 8880PP      PP18984   1.758   5.290  11.144
 8881PP      PP18985   4.166   6.429  10.079
 8882PP      PP18986   4.438   1.353  11.540
 8883PP      PP18987   5.730   8.703  10.524
 8884PP      PP18988   2.348   5.495   1.248
 8885PP      PP18989  14.836   6.329  10.668
 8886PP      PP18990  14.950  14.526  11.199
 8887PP      PP18991   8.543  10.403   0.113
 8888PP      PP18992   0.700  14.225   1.014
 8889PP      PP18993   7.747   6.049  12.773
 8890PP      PP18994   8.160  14.806  11.773
 8891PP      PP18995   2.121  15.368  11.269
 8892PP      PP18996   8.121   1.829  10.132
 8893PP      PP18997  13.043  10.143   0.110
 8894PP      PP18998   4.660   3.439   1.876
 8895PP      PP18999  11.042   9.201  10.434
 8896PP      PP19000  13.762   4.433   3.435
 8897PP      PP19001   8.663   4.822   1.404
 8898PP      PP19002  15.009  13.275   2.009
 8899PP      PP19003  11.758   1.078   2.260
 8900PP      PP19004  11.729  11.426  10.925
 8901PP      PP19005   9.778  15.116  12.522
 8902PP      PP19006   4.480  14.988   1.426
 8903PP      PP19007   7.848   1.028   0.053
 8904PP      PP19008   3.129   4.745   1.390
 8905PP      PP19009   4.704   5.984  12.435
 8906PP      PP19010  12.401   6.932  12.590
 8907PP      PP19011  14.816   2.927  12.998
 8908PP      PP19012   8.761   0.113   0.951
 8909PP      PP19013  12.965   6.343   0.351
 8910PP      PP19014  12.014   2.217   9.088
 8911PP      PP19015   3.475   8.956   3.408
 8912PP      PP19016   3.283   7.906   2.814
 8913PP      PP19017  12.159   6.105   1.102
 8914PP      PP19018   5.424   5.714   0.772
 8915PP      PP19019   2.668  10.540   1.338
 8916PP      PP19020   3.044   3.052   4.331
 8917PP      PP19021  12.150  12.997   2.909
 8918PP      PP19022   4.969  15.676   4.775
 8919PP      PP19023  14.434   6.920  12.545
 8920PP      PP19024   2.735   7.255   8.931
 8921PP      PP19025  12.582   5.258  13.297
 8922PP      PP19026   2.448  14.608   3.667
 8923PP      PP19027  12.549   0.211   1.054
 8924PP      PP19028  10.330   8.739   2.548
 8925PP      PP19029   8.646  15.251   5.612
 8926PP      PP19030   8.958   5.316  11.762
 8927PP      PP19031  10.782  12.646   2.993
 8928PP      PP19032   1.461   7.225   3.758
 8929PP      PP19033   8.142  10.354  10.124
 8930PP      PP19034   4.963  11.850   0.215
 8931PP      PP19035   6.340   0.565  12.522
 8932PP      PP19036   3.526   6.798  12.819
 8933PP      PP19037  10.421   1.656  11.849
 8934PP      PP19038  11.594   2.835   0.382
 8935PP      PP19039  15.696   7.205   2.387
 8936PP      PP19040   2.560   8.181  11.730
 8937PP      PP19041  14.133  15.411  12.012
 8938PP      PP19042   6.998  14.061  10.327
 8939PP      PP19043  11.838   9.776   0.170
 8940PP      PP19044  12.205   2.878   9.739
 8941PP      PP19045  13.615   5.282   3.295
 8942PP      PP19046  15.687   2.882   9.641
 8943PP      PP19047   4.744   6.675   0.951
 8944PP      PP19048   3.343  11.566   8.936
 8945PP      PP19049   4.953   2.227   9.697
 8946PP      PP19050   1.469   1.912  11.649
 8947PP      PP19051   7.106   4.309  10.452
 8948PP      PP19052   8.535   8.877   1.343
 8949PP      PP19053  15.308  13.287  12.988
 8950PP      PP19054   8.510   8.612   1.785
 8951PP      PP19055  15.206   2.980   3.326
 8952PP      PP19056   9.397   8.534   3.515
 8953PP      PP19057   2.047  11.669   3.529
 8954PP      PP19058  13.999   3.024   3.815
 8955PP      PP19059   8.144   5.129   0.255
 8956PP      PP19060   6.402   0.699   4.477
 8957PP      PP19061   8.933   4.884  11.461
 8958PP      PP19062   4.967   7.013   0.577
 8959PP      PP19063  11.667  15.368   4.108
 8960PP      PP19064  11.493   7.589  11.772
 8961PP      PP19065  15.113   9.298  11.290
 8962PP      PP19066   8.872   1.841  13.389
 8963PP      PP19067   3.321   5.781   0.921
 8964PP      PP19068   7.732   2.964   3.586
 8965PP      PP19069   6.886  12.790  10.228
 8966PP      PP19070   9.569  13.421  10.245
 8967PP      PP19071   7.827   9.675  10.718
 8968PP      PP19072   8.332   0.579  10.480
 8969PP      PP19073  10.109   8.098   0.989
 8970PP      PP19074   1.704   8.563   3.317
 8971PP      PP19075   1.459   7.968   8.720
 8972PP      PP19076   3.003   6.373   8.932
 8973PP      PP19077   7.917   3.030   1.167
 8974PP      PP19078   9.361   2.919   3.214
 8975PP      PP19079   0.048   7.678   1.491
 8976PP      PP19080   5.202   3.506   9.843
 8977PP      PP19081  14.818   8.852  13.558
 8978PP      PP19082   2.998   5.126   9.439
 8979PP      PP19083   0.894  14.748   1.790
 8980PP      PP19084  11.706  12.482   2.891
 8981PP      PP19085  12.244   8.063   1.534
 8982PP      PP19086  10.307   4.363  12.331
 8983PP      PP19087  11.508   4.046   1.216
 8984PP      PP19088  15.786   0.251  12.959
 8985PP      PP19089   9.963   2.466   9.480
 8986PP      PP19090   4.694  10.229  10.112
 8987PP      PP19091   7.924  13.076   0.190
 8988PP      PP19092   2.920  12.855   3.212
 8989PP      PP19093  13.448   6.076   4.205
 8990PP      PP19094   1.226  14.494  13.444
 8991PP      PP19095   0.490   9.957  13.036
 8992PP      PP19096   7.715   3.761  12.636
 8993PP      PP19097   0.186  14.061   0.917
 8994PP      PP19098  13.055   5.963  10.291
 8995PP      PP19099  10.520   6.251   2.050
 8996PP      PP19100  13.059  15.654  13.534
 8997PP      PP19101   9.376  14.293   2.946
 8998PP      PP19102   5.900   8.938   9.076
 8999PP      PP19103   1.838   8.492   0.293
 9000PP      PP19104  12.299   4.038   9.447
 9001PP      PP19105   5.266   9.060  11.964
 9002PP      PP19106   9.065  14.339  11.346
 9003PP      PP19107   3.859  12.471   9.897
 9004PP      PP19108   9.367   5.921  11.618
 9005PP      PP19109  13.499   7.400   2.284
 9006PP      PP19110   8.741  14.748   2.356
 9007PP      PP19111  12.506   2.019   2.042
 9008PP      PP19112   3.256   0.028   3.320
 9009PP      PP19113   8.960   2.353   9.838
 9010PP      PP19114   6.313   6.088   3.717
 9011PP      PP19115  14.068  14.229   4.185
 9012PP      PP19116  15.187  11.176   3.109
 9013PP      PP19117   4.551  15.255  13.052
 9014PP      PP19118  12.903   9.790   1.808
 9015PP      PP19119   9.205  14.616  11.763
 9016PP      PP19120   6.799   2.970   9.323
 9017PP      PP19121  13.052   7.094   1.622
 9018PP      PP19122  10.715   6.904   0.229
 9019PP      PP19123   4.532  14.721   2.854
 9020PP      PP19124   6.061   4.359  10.019
 9021PP      PP19125   7.910   1.596  11.834
 9022PP      PP19126  12.903   7.855   3.124
 9023PP      PP19127   8.873   4.093   0.920
 9024PP      PP19128  13.421  10.442   3.474
 9025PP      PP19129  13.343  15.147   3.748
 9026PP      PP19130   9.083   6.299  11.814
 9027PP      PP19131   9.268  10.895   1.435
 9028PP      PP19132   9.048   5.831   9.715
 9029PP      PP19133  14.208  12.582  10.862
 9030PP      PP19134  15.478   6.975   8.937
 9031PP      PP19135   0.817   7.464   0.136
 9032PP      PP19136  11.785   0.990   4.191
 9033PP      PP19137   0.683   1.124  11.479
 9034PP      PP19138   0.243   8.164   1.562
 9035PP      PP19139   7.825   7.790  11.681
 9036PP      PP19140  15.185   5.015  10.531
 9037PP      PP19141  11.889   7.853   9.033
 9038PP      PP19142   4.256  10.730  12.393
 9039PP      PP19143   8.333  15.100   0.580
 9040PP      PP19144   3.786   9.106   8.835
 9041PP      PP19145   2.158   0.742  11.672
 9042PP      PP19146   9.611   5.521  11.396
 9043PP      PP19147   9.405   4.454   1.516
 9044PP      PP19148   8.245   6.939  10.277
 9045PP      PP19149  13.589   1.683  11.976
 9046PP      PP19150   8.799   6.079   9.348
 9047PP      PP19151  12.923   0.329   2.481
 9048PP      PP19152  10.467  11.912   0.029
 9049PP      PP19153  11.299   2.852   9.448
 9050PP      PP19154  14.409   7.236  12.132
 9051PP      PP19155  10.594  13.142   2.677
 9052PP      PP19156  15.238   7.181   2.908
 9053PP      PP19157   4.110   1.822   2.155
 9054PP      PP19158   5.428   9.699  12.575
 9055PP      PP19159   4.915   5.623   8.647
 9056PP      PP19160   1.883   1.066   1.525
 9057PP      PP19161  12.768  13.348  12.981
 9058PP      PP19162  12.168   7.041   2.536
 9059PP      PP19163   1.561   6.583  13.136
 9060PP      PP19164   3.270   2.491   2.698
 9061PP      PP19165   0.797   0.322   2.022
 9062PP      PP19166  15.257  13.147   9.661
 9063PP      PP19167   2.712   8.190  11.226
 9064PP      PP19168  12.634   4.100  12.065
 9065PP      PP19169  12.289  13.051   9.646
 9066PP      PP19170   6.015  11.162  10.951
 9067PP      PP19171   3.318  15.152   8.741
 9068PP      PP19172  13.334  12.237  10.708
 9069PP      PP19173   5.010  10.581  12.828
 9070PP      PP19174  15.041  10.335   2.490
 9071PP      PP19175   1.715  13.996  12.171
 9072PP      PP19176   3.410   5.437   9.336
 9073PP      PP19177   1.247  14.271   9.785
 9074PP      PP19178   5.684   5.242  10.423
 9075PP      PP19179   0.757  12.165  11.493
 9076PP      PP19180   7.778  15.678   0.027
 9077PP      PP19181  13.980   2.004   0.688
 9078PP      PP19182   9.965   2.672   1.141
 9079PP      PP19183   0.561   1.014   1.348
 9080PP      PP19184   4.598  11.946   9.660
 9081PP      PP19185   5.706   1.163  10.357
 9082PP      PP19186   6.550   2.285   2.484
 9083PP      PP19187   9.153  10.844   3.462
 9084PP      PP19188   2.069  12.431   9.912
 9085PP      PP19189   9.559   6.882   3.612
 9086PP      PP19190   1.460  11.023  12.653
 9087PP      PP19191  14.174   2.910   9.837
 9088PP      PP19192   3.574   2.809   1.204
 9089PP      PP19193   9.759   0.249   4.725
 9090PP      PP19194  13.308  12.050   9.532
 9091PP      PP19195  11.172   3.923   9.835
 9092PP      PP19196   8.807   4.639   0.624
 9093PP      PP19197  12.030  11.175   0.441
 9094PP      PP19198   7.978   0.303   9.164
 9095PP      PP19199   6.533  15.007   9.577
 9096PP      PP19200  15.494   1.445  13.414
 9097PP      PP19201  11.507  13.974   1.158
 9098PP      PP19202   7.964   9.628   3.298
 9099PP      PP19203   6.030  11.224   2.968
 9100PP      PP19204   9.644  14.264  11.792
 9101PP      PP19205   7.077   9.988   2.948
 9102PP      PP19206   3.295   3.079   3.219
 9103PP      PP19207  10.994   5.185   3.898
 9104PP      PP19208   7.968   2.738   2.187
 9105PP      PP19209   6.905   6.903   2.079
 9106PP      PP19210  14.514   0.756  11.829
 9107PP      PP19211  10.276  12.248  11.059
 9108PP      PP19212  11.155   6.171   2.994
 9109PP      PP19213   7.746  12.924   3.491
 9110PP      PP19214   0.571   8.961   3.093
 9111PP      PP19215  11.249   3.414   1.508
 9112PP      PP19216   5.971  12.089  13.351
 9113PP      PP19217  13.596   2.453   2.723
 9114PP      PP19218  12.352   4.348  11.567
 9115PP      PP19219  15.714  14.199  11.306
 9116PP      PP19220  10.658  13.920  10.593
 9117PP      PP19221   1.293   8.814   9.549
 9118PP      PP19222   7.407   8.289   9.017
 9119PP      PP19223   1.159   9.508  12.737
 9120PP      PP19224   7.355   0.355   0.378
 9121PP      PP19225   0.904   8.546   0.698
 9122PP      PP19226  12.725  12.108   0.757
 9123PP      PP19227  10.375  12.532   3.418
 9124PP      PP19228   4.638   9.883   3.608
 9125PP      PP19229  14.396  10.190   2.512
 9126PP      PP19230  11.427   1.290  11.251
 9127PP      PP19231  14.267   9.055   8.838
 9128PP      PP19232  10.726  14.976  10.707
 9129PP      PP19233  12.216  15.029  11.957
 9130PP      PP19234   6.970  12.265   3.877
 9131PP      PP19235   2.409   2.834   3.558
 9132PP      PP19236  14.522   2.258  10.922
 9133PP      PP19237  10.152   7.747   2.939
 9134PP      PP19238  13.886   3.735   9.930
 9135PP      PP19239   2.969   7.709   9.017
 9136PP      PP19240  10.267  10.587   9.222
 9137PP      PP19241   3.812  13.981  10.406
 9138PP      PP19242   2.781  12.114   8.450
 9139PP      PP19243   8.595  13.469  13.440
 9140PP      PP19244   9.820  10.406   2.186
 9141PP      PP19245  10.291   0.803   0.195
 9142PP      PP19246   2.625  13.477   2.228
 9143PP      PP19247  11.546   6.143  10.497
 9144PP      PP19248   9.937   6.859  11.218
 9145PP      PP19249  12.925   9.896   9.166
 9146PP      PP19250  12.396   2.053  12.552
 9147PP      PP19251   9.737   5.569   9.366
 9148PP      PP19252  13.777  12.495  10.575
 9149PP      PP19253   1.355   2.872  11.369
 9150PP      PP19254   4.720  13.622   3.360
 9151PP      PP19255  10.886  12.384  11.550
 9152PP      PP19256  14.468   2.269  11.933
 9153PP      PP19257  15.666  10.535  12.555
 9154PP      PP19258  10.540   8.012  11.938
 9155PP      PP19259   3.780  12.120   8.505
 9156PP      PP19260   2.883  12.850   1.575
 9157PP      PP19261   5.938   1.586   2.635
 9158PP      PP19262  10.095   5.381  11.252
 9159PP      PP19263   5.457  11.215   8.889
 9160PP      PP19264  13.275  14.262   2.538
 9161PP      PP19265   8.499  15.593  12.936
 9162PP      PP19266   3.843  13.524   9.720
 9163PP      PP19267   0.631   4.331   3.341
 9164PP      PP19268   5.517   9.892  11.315
 9165PP      PP19269   6.045  10.260   3.457
 9166PP      PP19270   4.196  10.324   3.202
 9167PP      PP19271   3.203  13.242   1.725
 9168PP      PP19272  11.555  10.008   1.257
 9169PP      PP19273  12.394   9.033  11.784
 9170PP      PP19274   6.190  14.617  10.940
 9171PP      PP19275   4.343   1.819   2.658
 9172PP      PP19276   5.581   9.185   1.471
 9173PP      PP19277   4.494   7.245  12.301
 9174PP      PP19278  10.378  11.071  10.941
 9175PP      PP19279   0.056   3.317   9.398
 9176PP      PP19280  10.211   8.966   0.025
 9177PP      PP19281   8.940   2.729   1.177
 9178PP      PP19282   8.559  14.262  11.101
 9179PP      PP19283   5.713  10.999  12.922
 9180PP      PP19284   2.580  13.417   9.894
 9181PP      PP19285  12.856  15.710   9.003
 9182PP      PP19286  11.900  11.397   9.399
 9183PP      PP19287  14.613  14.159   0.506
 9184PP      PP19288  12.438   6.927   2.954
 9185PP      PP19289   5.823  12.744  11.040
 9186PP      PP19290   7.826   5.153   2.822
 9187PP      PP19291   8.644  11.173   4.372
 9188PP      PP19292   8.899   4.324   1.421
 9189PP      PP19293   9.670  10.040  12.304
 9190PP      PP19294   1.230  12.755   2.421
 9191PP      PP19295  10.174  12.607  10.274
 9192PP      PP19296  10.803   6.962   1.331
 9193PP      PP19297   2.817   7.173   1.878
 9194PP      PP19298  11.760   4.836  13.386
 9195PP      PP19299  11.552   8.276  13.171
 9196PP      PP19300   3.837  10.781   9.303
 9197PP      PP19301   4.735   9.228  10.617
 9198PP      PP19302   2.635   0.389  11.011
 9199PP      PP19303  10.947   4.862   0.252
 9200PP      PP19304   9.179   0.806   0.240
 9201PP      PP19305   0.138   8.710   3.382
 9202PP      PP19306   9.653   7.325   0.425
 9203PP      PP19307   3.697  12.649   8.337
 9204PP      PP19308   4.846  15.482   4.288
 9205PP      PP19309   3.388  10.598   0.228
 9206PP      PP19310   0.557  13.340   0.749
 9207PP      PP19311  13.778   1.568   9.694
 9208PP      PP19312   1.206   4.890   1.514
 9209PP      PP19313   8.796   5.973   2.729
 9210PP      PP19314  12.963   1.107   9.611
 9211PP      PP19315   1.687   7.860  12.151
 9212PP      PP19316  10.200  13.580  11.132
 9213PP      PP19317  10.920  12.314   9.641
 9214PP      PP19318  12.631  14.748   9.566
 9215PP      PP19319   2.263   3.677  11.604
 9216PP      PP19320   9.160   2.681   4.793
 9217PP      PP19321   4.551  10.878   1.800
 9218PP      PP19322   8.345   1.043   0.226
 9219PP      PP19323  12.174  12.629   9.061
 9220PP      PP19324  10.853  12.136   0.346
 9221PP      PP19325   0.902   5.987   4.028
 9222PP      PP19326   9.270   0.315  13.027
 9223PP      PP19327   2.416   9.968   2.470
 9224PP      PP19328  10.126   4.043  13.114
 9225PP      PP19329   9.039   9.952   9.156
 9226PP      PP19330   0.735  10.486  11.381
 9227PP      PP19331  14.994   5.082   8.521
 9228PP      PP19332   2.486  11.677   1.552
 9229PP      PP19333  13.831   8.933  12.693
 9230PP      PP19334   2.725   3.959   2.341
 9231PP      PP19335  15.679   5.129   4.063
 9232PP      PP19336   8.820   5.491   1.480
 9233PP      PP19337  15.334   1.535   9.780
 9234PP      PP19338  12.303  12.570  12.269
 9235PP      PP19339   5.726   4.060  12.277
 9236PP      PP19340   4.066   1.533  12.459
 9237PP      PP19341   8.206  14.651  13.270
 9238PP      PP19342   9.169   2.050   3.411
 9239PP      PP19343   0.564  15.597   0.171
 9240PP      PP19344  15.716  13.120  10.386
 9241PP      PP19345  15.199   2.265  12.107
 9242PP      PP19346  14.115   4.478   0.082
 9243PP      PP19347   0.306   8.033   2.069
 9244PP      PP19348   5.769   6.854   9.663
 9245PP      PP19349  10.602   1.960   0.435
 9246PP      PP19350   1.419   7.860  10.683
 9247PP      PP19351  10.961   7.751   1.780
 9248PP      PP19352  13.753   7.509   2.873
 9249PP      PP19353   2.315   6.352  10.239
 9250PP      PP19354   6.758   1.342   1.547
 9251PP      PP19355   0.408  12.769  12.779
 9252PP      PP19356   5.288   4.750   2.309
 9253PP      PP19357   1.708   2.304   1.147
 9254PP      PP19358  10.227   6.218  12.696
 9255PP      PP19359   4.899   2.927  11.463
 9256PP      PP19360   8.456   8.442   0.968
 9257PP      PP19361   2.851  13.007  11.549
 9258PP      PP19362   8.148   8.685   4.176
 9259PP      PP19363  15.171  12.956   3.083
 9260PP      PP19364   3.079   1.913   2.860
 9261PP      PP19365  14.292   5.808  13.587
 9262PP      PP19366   2.073   9.434   9.546
 9263PP      PP19367  12.820   6.541  13.009
 9264PP      PP19368   0.126  12.903   2.369
 9265PP      PP19369   9.235  14.219   3.579
 9266PP      PP19370  11.939  12.892   4.703
 9267PP      PP19371  14.211  12.615  12.977
 9268PP      PP19372  12.380  14.619   3.787
 9269PP      PP19373   2.660   6.613   2.959
 9270PP      PP19374   4.657  11.039   1.327
 9271PP      PP19375   7.650  12.350   0.364
 9272PP      PP19376   4.642  11.248   2.150
 9273PP      PP19377  11.398   1.560   1.130
 9274PP      PP19378   1.812   6.851  13.587
 9275PP      PP19379   7.868  12.658   9.513
 9276PP      PP19380  14.667   1.873   1.810
 9277PP      PP19381   7.295  12.775   2.823
 9278PP      PP19382  15.541   6.235   0.396
 9279PP      PP19383   7.059  15.402   0.649
 9280PP      PP19384  12.145   1.497  11.050
 9281PP      PP19385   0.298   8.397   4.400
 9282PP      PP19386   2.190   5.435   9.880
 9283PP      PP19387   3.152   7.272   0.074
 9284PP      PP19388   8.893  14.721   4.558
 9285PP      PP19389   6.262   8.940   3.565
 9286PP      PP19390   4.736   1.894   4.512
 9287PP      PP19391   5.649   0.021   0.790
 9288PP      PP19392   9.121   3.395  12.507
 9289PP      PP19393   2.515   6.451   3.985
 9290PP      PP19394   6.564   7.789  13.158
 9291PP      PP19395   7.241   2.145   1.777
 9292PP      PP19396   8.412  11.744   1.575
 9293PP      PP19397   5.690   1.873  12.260
 9294PP      PP19398  10.252   8.519  12.150
 9295PP      PP19399   2.450   5.145   1.698
 9296PP      PP19400  14.634  13.236   1.186
 9297PP      PP19401  14.975   1.350  13.409
 9298PP      PP19402   4.465  12.071   0.157
 9299PP      PP19403  10.843   5.499   2.331
 9300PP      PP19404   7.757   9.690  11.231
 9301PP      PP19405   0.170  14.755   2.980
 9302PP      PP19406   2.513   8.286   8.988
 9303PP      PP19407  14.165   4.838   1.507
 9304PP      PP19408  15.207   6.639   3.040
 9305PP      PP19409  13.958   4.190  11.416
 9306PP      PP19410   3.372   0.864   0.010
 9307PP      PP19411   5.096  10.405  11.979
 9308PP      PP19412  13.073   2.984  11.078
 9309PP      PP19413   4.990   3.578  10.688
 9310PP      PP19414   4.499   0.090   4.900
 9311PP      PP19415   0.009   1.618   1.058
 9312PP      PP19416   0.381   6.090   0.837
 9313PP      PP19417   7.572   3.031   3.043
 9314PP      PP19418  14.027   6.690  13.338
 9315PP      PP19419   4.496   9.828   8.596
 9316PP      PP19420  12.972   0.282  12.480
 9317PP      PP19421   1.878   1.918   4.640
 9318PP      PP19422   2.844   5.097   2.839
 9319PP      PP19423  15.466   1.491   1.387
 9320PP      PP19424   1.136   1.649   1.710
 9321PP      PP19425   4.081   0.912   9.646
 9322PP      PP19426   8.402   5.772   9.153
 9323PP      PP19427  10.638   1.625   4.458
 9324PP      PP19428   8.318  12.022  10.175
 9325PP      PP19429  11.307   4.526   1.137
 9326PP      PP19430   6.925   8.899  12.665
 9327PP      PP19431   1.061   3.106   3.805
 9328PP      PP19432   0.028  15.079   3.929
 9329PP      PP19433   3.613   4.454   1.969
 9330PP      PP19434   3.434   9.795   3.172
 9331PP      PP19435  15.481   5.838  10.920
 9332PP      PP19436  11.702  14.992  13.259
 9333PP      PP19437   0.926   0.953  10.434
 9334PP      PP19438   2.530   6.540  11.093
 9335PP      PP19439   3.142  13.380  11.139
 9336PP      PP19440   3.953   1.253   3.301
 9337PP      PP19441  13.194   4.640  11.579
 9338PP      PP19442  11.710   4.852  10.768
 9339PP      PP19443  11.940   6.786  12.756
 9340PP      PP19444  11.686  10.792   8.846
 9341PP      PP19445  13.615  11.160   2.306
 9342PP      PP19446  10.883  13.272   9.993
 9343PP      PP19447  10.588   2.397  13.098
 9344PP      PP19448  11.329   8.986   1.163
 9345PP      PP19449   3.331   6.931   0.539
 9346PP      PP19450   2.783  12.900  13.439
 9347PP      PP19451   7.060  12.203   9.617
 9348PP      PP19452  15.519  11.024  12.409
 9349PP      PP19453  14.892   5.553  12.372
 9350PP      PP19454   7.018   6.188   0.454
 9351PP      PP19455   6.888  10.328   9.645
 9352PP      PP19456  14.332  15.819   0.721
 9353PP      PP19457   0.818   9.185   0.297
 9354PP      PP19458  15.766   5.803   0.662
 9355PP      PP19459   0.121   3.671  11.547
 9356PP      PP19460   3.235   3.359  13.103
 9357PP      PP19461   7.658   6.362   0.475
 9358PP      PP19462  14.351   7.143   8.437
 9359PP      PP19463   9.711  14.613   1.525
 9360PP      PP19464  11.148  12.826  10.869
 9361PP      PP19465   1.046   6.689   2.205
 9362PP      PP19466  12.208   4.224   0.559
 9363PP      PP19467   4.147   0.620  11.006
 9364PP      PP19468   6.652  12.562   2.046
 9365PP      PP19469  15.441   8.250  13.415
 9366PP      PP19470   1.156   5.130   8.819
 9367PP      PP19471  15.681   2.730  13.021
 9368PP      PP19472   6.899   1.299   8.859
 9369PP      PP19473   8.222  13.072   3.283
 9370PP      PP19474   6.765   6.208   9.811
 9371PP      PP19475   0.636  13.282   2.943
 9372PP      PP19476  12.006  11.027  12.183
 9373PP      PP19477   7.497   9.563  10.261
 9374PP      PP19478  11.846   1.708   9.193
 9375PP      PP19479  10.771  15.465   2.354
 9376PP      PP19480  10.067   6.497  12.193
 9377PP      PP19481   1.601   3.396   0.741
 9378PP      PP19482   8.386  14.704   1.968
 9379PP      PP19483   0.944  14.094   0.466
 9380PP      PP19484   0.594   8.212  12.456
 9381PP      PP19485   7.240  10.074   9.099
 9382PP      PP19486   9.520  12.019  11.602
 9383PP      PP19487   3.583  10.456   9.652
 9384PP      PP19488  10.300  10.311   0.160
 9385PP      PP19489  12.533   7.165   8.862
 9386PP      PP19490   4.937   3.908   0.307
 9387PP      PP19491  10.270   1.476  10.494
 9388PP      PP19492   7.221   5.710   2.629
 9389PP      PP19493  10.787   6.027  13.412
 9390PP      PP19494   1.175   4.088  13.066
 9391PP      PP19495  12.879   5.965   9.616
 9392PP      PP19496   6.118   3.251   4.314
 9393PP      PP19497  12.566  10.156   2.731
 9394PP      PP19498   3.488   1.025   2.130
 9395PP      PP19499   2.009   2.698  12.369
 9396PP      PP19500   1.500   9.627  10.474
 9397PP      PP19501   1.206   7.031   4.150
 9398PP      PP19502   2.410   7.775  10.390
 9399PP      PP19503   1.280   0.811   4.131
 9400PP      PP19504  10.435  15.518  11.492
 9401PP      PP19505  12.015   4.803  12.245
 9402PP      PP19506  15.669   0.914  10.662
 9403PP      PP19507   0.177   2.686   1.784
 9404PP      PP19508  14.988   9.119   9.727
 9405PP      PP19509  15.106  14.341   0.426
 9406PP      PP19510  12.212   1.814   1.650
 9407PP      PP19511   2.594  11.621   2.243
 9408PP      PP19512  14.428   1.151  10.902
 9409PP      PP19513   5.365   3.018   9.902
 9410PP      PP19514   2.057  12.526   8.894
 9411PP      PP19515  10.316   6.233  13.290
 9412PP      PP19516  13.867  11.084  13.582
 9413PP      PP19517   3.685   7.695   9.223
 9414PP      PP19518   3.436   2.673   1.702
 9415PP      PP19519  13.541  13.778  12.291
 9416PP      PP19520   5.669  11.458  10.677
 9417PP      PP19521   9.170   2.914  12.176
 9418PP      PP19522   5.943   0.899   2.092
 9419PP      PP19523   5.506   5.625  12.128
 9420PP      PP19524   4.998   9.270  13.340
 9421PP      PP19525   0.279   1.451  11.509
 9422PP      PP19526   4.476  14.944   2.378
 9423PP      PP19527   1.399   3.468  10.418
 9424PP      PP19528   3.952  13.097   3.446
 9425PP      PP19529   1.311   4.947   3.019
 9426PP      PP19530  11.327   6.735  12.095
 9427PP      PP19531   3.720   0.795   3.476
 9428PP      PP19532  10.464   1.267  10.044
 9429PP      PP19533   9.049  10.340   0.495
 9430PP      PP19534   5.115  12.666   1.835
 9431PP      PP19535   7.550  10.785   9.261
 9432PP      PP19536  12.418   2.958   2.267
 9433PP      PP19537  11.254   3.063  13.015
 9434PP      PP19538   2.545   7.066   2.690
 9435PP      PP19539  14.974  12.426   2.576
 9436PP      PP19540  15.441  14.804   4.408
 9437PP      PP19541   2.713   9.531   2.431
 9438PP      PP19542  12.272   4.652   0.876
 9439PP      PP19543   5.328  13.256   2.423
 9440PP      PP19544   2.313  10.090  11.069
 9441PP      PP19545   2.810  13.020  10.921
 9442PP      PP19546  10.942  11.025  10.214
 9443PP      PP19547   1.157   6.722   0.697
 9444PP      PP19548   7.684   2.316   2.044
 9445PP      PP19549   6.537  10.311   0.594
 9446PP      PP19550   1.837  11.074   1.007
 9447PP      PP19551   2.107  10.392   9.374
 9448PP      PP19552   9.931   7.641   0.779
 9449PP      PP19553   1.606  10.256   0.873
 9450PP      PP19554   6.240   3.174   0.490
 9451PP      PP19555   5.687  10.608   0.310
 9452PP      PP19556   0.468  12.226   1.671
 9453PP      PP19557   3.973   6.875   8.812
 9454PP      PP19558   0.487  10.692   2.918
 9455PP      PP19559   6.430   5.145  11.309
 9456PP      PP19560   2.985   2.862   1.970
 9457PP      PP19561   1.764   1.369  11.951
 9458PP      PP19562   4.545   0.343   9.733
 9459PP      PP19563  14.610   0.807   0.591
 9460PP      PP19564   4.351   2.235   0.815
 9461PP      PP19565  15.274   4.807  13.401
 9462PP      PP19566   2.757  14.666   9.367
 9463PP      PP19567  13.224  11.043   4.444
 9464PP      PP19568   8.977   2.537  13.407
 9465PP      PP19569   5.324   0.358   8.611
 9466PP      PP19570  10.664   5.835   8.926
 9467PP      PP19571  13.414   9.441   0.316
 9468PP      PP19572   8.838  11.267  13.299
 9469PP      PP19573  11.138   7.358   8.239
 9470PP      PP19574  15.440   5.250   3.599
 9471PP      PP19575   4.902   7.081   2.645
 9472PP      PP19576   3.065   8.064  11.661
 9473PP      PP19577   7.478  14.094  13.056
 9474PP      PP19578   0.239   5.988   2.944
 9475PP      PP19579   6.854   4.389   0.428
 9476PP      PP19580   2.067   0.509  10.281
 9477PP      PP19581  12.103   8.027   2.903
 9478PP      PP19582  13.519   4.049   4.139
 9479PP      PP19583   9.551  15.787  10.060
 9480PP      PP19584  13.947  12.378   3.632
 9481PP      PP19585   6.782  13.831  12.916
 9482PP      PP19586   4.092   3.890  10.175
 9483PP      PP19587   1.717   4.266   2.608
 9484PP      PP19588   2.234   5.070   3.255
 9485PP      PP19589   4.211   3.352  10.200
 9486PP      PP19590   0.670   3.510   3.790
 9487PP      PP19591  15.685   3.803  11.135
 9488PP      PP19592  10.881  13.156  12.682
 9489PP      PP19593  10.732   0.486   2.849
 9490PP      PP19594  14.766   3.937  10.982
 9491PP      PP19595  13.102  13.799  11.109
 9492PP      PP19596  12.583  15.289   3.202
 9493PP      PP19597  11.944  14.632  12.167
 9494PP      PP19598   2.220   3.957   9.976
 9495PP      PP19599   4.831   2.686   9.347
 9496PP      PP19600  12.217   8.852   1.662
 9497PP      PP19601   9.995   3.178  13.501
 9498PP      PP19602   8.106  11.335   9.967
 9499PP      PP19603   0.412   7.736  10.996
 9500PP      PP19604   8.531   6.234  11.452
 9501PP      PP19605   7.762   2.166   9.864
 9502PP      PP19606   3.677   2.172   0.025
 9503PP      PP19607  13.298  10.000   0.626
 9504PP      PP19608  13.755   9.321   1.838
 9505PP      PP19609  14.455   0.719   0.044
 9506PP      PP19610   0.585   1.694  13.537
 9507PP      PP19611   8.224   3.972   4.124
 9508PP      PP19612  15.703  13.749   2.895
 9509PP      PP19613  12.417   8.633   0.607
 9510PP      PP19614   4.623  10.776  13.216
 9511PP      PP19615   7.211  10.257  13.094
 9512PP      PP19616   2.721   2.705  12.234
 9513PP      PP19617  12.729  14.330   2.563
 9514PP      PP19618  14.331   1.427   1.154
 9515PP      PP19619  15.379   4.894  12.913
 9516PP      PP19620   6.149   3.391  12.350
 9517PP      PP19621   0.917  10.587   9.028
 9518PP      PP19622  10.802   5.777   1.860
 9519PP      PP19623   7.909  13.336   2.040
 9520PP      PP19624   7.258   8.442   1.914
 9521PP      PP19625  11.989   2.144   2.036
 9522PP      PP19626   9.266  13.701   1.655
 9523PP      PP19627  10.894   8.733  11.431
 9524PP      PP19628   0.959   5.293   8.366
 9525PP      PP19629   1.252   4.129   0.374
 9526PP      PP19630  11.258   3.229  12.029
 9527PP      PP19631   2.197  13.845   3.460
 9528PP      PP19632  11.130  10.572  11.179
 9529PP      PP19633   1.594  12.453  11.985
 9530PP      PP19634  12.830   1.481   3.821
 9531PP      PP19635  14.192   7.540  10.338
 9532PP      PP19636  15.813   9.043   2.787
 9533PP      PP19637  11.412  12.918   1.849
 9534PP      PP19638   3.690  14.498   3.948
 9535PP      PP19639   4.187   3.801   2.275
 9536PP      PP19640   5.141  13.746   9.681
 9537PP      PP19641  14.056   5.840   0.483
 9538PP      PP19642   6.577   5.751  11.544
 9539PP      PP19643  12.489   1.844   8.400
 9540PP      PP19644   8.478  10.555  11.056
 9541PP      PP19645  10.144   5.561   1.361
 9542PP      PP19646   2.646  12.225  12.872
 9543PP      PP19647   7.749   8.640   4.511
 9544PP      PP19648   3.201   4.194   9.646
 9545PP      PP19649   0.509   8.946   2.548
 9546PP      PP19650   0.446   5.914  10.459
 9547PP      PP19651   6.889   2.455   5.009
 9548PP      PP19652   2.982   8.207  10.762
 9549PP      PP19653  14.785   5.182   1.092
 9550PP      PP19654   6.821   9.086   2.498
 9551PP      PP19655  14.259  10.094   8.823
 9552PP      PP19656  15.687   0.412  11.466
 9553PP      PP19657   2.598  10.060  12.944
 9554PP      PP19658   5.653  10.527  12.662
 9555PP      PP19659   1.233   9.076   9.111
 9556PP      PP19660  14.050   1.769  12.728
 9557PP      PP19661   0.163   7.624   3.133
 9558PP      PP19662  14.166   0.996   0.863
 9559PP      PP19663   4.758   0.975   2.966
 9560PP      PP19664   6.887   3.984  10.803
 9561PP      PP19665   4.130   2.510   0.065
 9562PP      PP19666   5.115   5.334   0.992
 9563PP      PP19667   7.968   2.333   0.765
 9564PP      PP19668   4.412   7.674  12.562
 9565PP      PP19669  10.451  13.468   0.828
 9566PP      PP19670   0.687   0.899   1.933
 9567PP      PP19671  11.874   9.005  11.686
 9568PP      PP19672   2.411  12.741  10.739
 9569PP      PP19673  13.102  14.237  10.807
 9570PP      PP19674  14.343   3.770  12.224
 9571PP      PP19675   5.085   0.057   0.187
 9572PP      PP19676   5.516   6.769   8.665
 9573PP      PP19677   9.633   6.311  10.303
 9574PP      PP19678   4.822  13.527   8.656
 9575PP      PP19679  14.721   9.755  11.136
 9576PP      PP19680  10.507   0.560  10.748
 9577PP      PP19681   6.592  10.990  12.172
 9578PP      PP19682   0.949   7.246   1.537
 9579PP      PP19683  11.269  10.853   2.497
 9580PP      PP19684   7.575   1.698   2.789
 9581PP      PP19685   8.943   1.993  10.336
 9582PP      PP19686   3.590   1.382   0.880
 9583PP      PP19687  12.699   3.034   3.535
 9584PP      PP19688  14.816  14.426  10.653
 9585PP      PP19689  11.645  13.743  12.118
 9586PP      PP19690   5.924  15.296  11.194
 9587PP      PP19691   1.534   2.466   0.612
 9588PP      PP19692  14.557  14.227  11.046
 9589PP      PP19693  15.745   9.437  10.320
 9590PP      PP19694   4.908  10.844  11.632
 9591PP      PP19695   8.136  11.116  11.945
 9592PP      PP19696   2.444  14.290   3.257
 9593PP      PP19697  10.864  10.645  11.634
 9594PP      PP19698  13.864  11.597  10.801
 9595PP      PP19699   8.541  15.095  11.610
 9596PP      PP19700   5.723   0.290   2.873
 9597PP      PP19701  13.102   9.397   0.728
 9598PP      PP19702   3.248  13.932   2.687
 9599PP      PP19703   6.461   7.159   2.180
 9600PP      PP19704   7.364   3.279   1.811
 9601PP      PP19705  11.552   0.806   1.635
 9602PP      PP19706  10.079   8.396   9.216
 9603PP      PP19707  14.738   7.236   0.941
 9604PP      PP19708   8.971   6.380  12.312
 9605PP      PP19709  11.791  10.288   3.339
 9606PP      PP19710  10.819   0.152  12.817
 9607PP      PP19711   9.231   3.633   9.905
 9608PP      PP19712  13.972  12.007   2.096
 9609PP      PP19713   1.029  11.358   2.668
 9610PP      PP19714   5.400  12.308   2.465
 9611PP      PP19715   1.049   8.116  10.252
 9612PP      PP19716  12.663  12.470  12.639
 9613PP      PP19717  12.788   5.946   3.803
 9614PP      PP19718  13.481   5.847   2.177
 9615PP      PP19719  10.417   4.510   1.272
 9616PP      PP19720   3.124   6.118   9.348
 9617PP      PP19721   8.119  13.448   0.493
 9618PP      PP19722   0.573   5.879  11.456
 9619PP      PP19723  11.668   5.576   2.997
 9620PP      PP19724   3.904   1.325   2.230
 9621PP      PP19725   1.031   5.606   3.696
 9622PP      PP19726   5.874  11.339   9.168
 9623PP      PP19727   9.562   3.076   2.755
 9624PP      PP19728  12.488   2.377   9.616
 9625PP      PP19729  14.884  13.541  12.759
 9626PP      PP19730   5.749   5.372   3.957
 9627PP      PP19731  12.503  13.846   9.488
 9628PP      PP19732   7.087  13.803   2.504
 9629PP      PP19733   6.212  10.378   2.312
 9630PP      PP19734   7.600   4.389  10.328
 9631PP      PP19735   0.361   9.243  11.632
 9632PP      PP19736   8.465   1.993  12.692
 9633PP      PP19737   4.223   5.356   0.943
 9634PP      PP19738   9.111   8.063  11.229
 9635PP      PP19739   8.380  10.663   9.782
 9636PP      PP19740  12.848  10.779  11.581
 9637PP      PP19741   3.702  10.738  10.124
 9638PP      PP19742   2.385   3.457  10.012
 9639PP      PP19743   9.336   8.408   2.752
 9640PP      PP19744   2.256  11.847  10.638
 9641PP      PP19745  13.324  11.012   0.116
 9642PP      PP19746   3.472   6.189   1.210
 9643PP      PP19747  10.263   3.810  10.813
 9644PP      PP19748   7.550  13.042   3.947
 9645PP      PP19749   3.050   0.562   4.011
 9646PP      PP19750  14.182  11.434  12.366
 9647PP      PP19751  10.702  14.552   3.291
 9648PP      PP19752   8.945   6.524   1.323
 9649PP      PP19753   5.346   2.211   0.016
 9650PP      PP19754   3.293   1.409   9.252
 9651PP      PP19755   3.935   3.064  11.519
 9652PP      PP19756   5.063   6.190  13.395
 9653PP      PP19757  10.558   4.045  13.426
 9654PP      PP19758   5.128  10.798  11.129
 9655PP      PP19759  14.312  13.385   0.634
 9656PP      PP19760   4.640   6.049   2.080
 9657PP      PP19761   1.740  14.091  10.861
 9658PP      PP19762   0.310   9.065   8.427
 9659PP      PP19763   9.173   2.898   1.671
 9660PP      PP19764   4.071  11.960  12.543
 9661PP      PP19765  10.175   0.831   3.615
 9662PP      PP19766   5.894  14.373  11.375
 9663PP      PP19767   4.160   7.103   9.940
 9664PP      PP19768   8.157   9.059  10.687
 9665PP      PP19769   1.429  10.771   0.905
 9666PP      PP19770   8.551   3.293  11.473
 9667PP      PP19771  11.229   8.398   0.850
 9668PP      PP19772   3.059   4.664   2.959
 9669PP      PP19773   0.720   1.842  10.290
 9670PP      PP19774   7.007   5.677   4.638
 9671PP      PP19775   9.170   4.880   1.287
 9672PP      PP19776   7.664   2.645  10.172
 9673PP      PP19777   1.176   9.539   0.459
 9674PP      PP19778   2.170   4.299   9.234
 9675PP      PP19779  15.107   8.704  10.396
 9676PP      PP19780   1.003  10.970   9.898
 9677PP      PP19781   2.841   1.912   1.162
 9678PP      PP19782  14.136  12.656  12.444
 9679PP      PP19783  13.830  12.961  12.153
 9680PP      PP19784   0.886   9.600  12.254
 9681PP      PP19785   3.290   2.260   4.646
 9682PP      PP19786   6.287  12.427   0.545
 9683PP      PP19787   6.182   7.614   9.689
 9684PP      PP19788  11.317  12.569   3.619
 9685PP      PP19789   8.375   1.618   9.523
 9686PP      PP19790   4.733   9.152   0.525
 9687PP      PP19791   6.670  15.498  10.733
 9688PP      PP19792   6.191   0.788  12.987
 9689PP      PP19793   5.147   6.754  10.858
 9690PP      PP19794   0.311   4.544   9.736
 9691PP      PP19795  10.999   3.692   3.071
 9692PP      PP19796   6.775   8.336  10.734
 9693PP      PP19797  14.320  13.543  13.533
 9694PP      PP19798   0.941  15.552   1.741
 9695PP      PP19799   8.235  13.179  12.619
 9696PP      PP19800   9.470   2.473   4.413
 9697PP      PP19801  11.080   9.888   2.841
 9698PP      PP19802  13.064   2.810   9.070
 9699PP      PP19803   6.332   0.337  11.887
 9700PP      PP19804  15.475   4.912  12.399
 9701PP      PP19805  11.593   5.467  13.415
 9702PP      PP19806   6.434   9.172  11.078
 9703PP      PP19807  13.489   9.731  11.974
 9704PP      PP19808   5.303  13.252  11.827
 9705PP      PP19809  14.022   3.587   1.263
 9706PP      PP19810   5.035  11.345   9.117
 9707PP      PP19811   5.504   0.912  10.779
 9708PP      PP19812   1.616   3.689  11.833
 9709PP      PP19813   6.218   3.430  11.850
 9710PP      PP19814  14.969   1.875   3.063
 9711PP      PP19815   2.516   8.480   1.479
 9712PP      PP19816   5.506   9.355   0.980
 9713PP      PP19817  15.406  15.549   2.623
 9714PP      PP19818   0.920   6.567   3.298
 9715PP      PP19819  14.111  14.568  13.462
 9716PP      PP19820  14.799   8.069   8.356
 9717PP      PP19821   5.648  11.138  13.412
 9718PP      PP19822  15.510  10.637  12.042
 9719PP      PP19823   9.646   7.197   1.470
 9720PP      PP19824  10.063   9.433   0.701
 9721PP      PP19825  10.391   5.750   2.180
 9722PP      PP19826  15.807  12.453   4.107
 9723PP      PP19827  11.698   0.928  10.398
 9724PP      PP19828   7.148   8.886   2.873
 9725PP      PP19829  12.202   9.958  13.408
 9726PP      PP19830   8.844   6.759   3.320
 9727PP      PP19831   6.718  11.845   4.111
 9728PP      PP19832   1.018  10.118   2.361
 9729PP      PP19833   3.186  15.412   3.576
 9730PP      PP19834   5.447   9.776  10.068
 9731PP      PP19835   6.491  10.422  11.378
 9732PP      PP19836  11.854  13.174   9.909
 9733PP      PP19837   2.230   9.679   3.623
 9734PP      PP19838  13.925   2.792   0.626
 9735PP      PP19839   6.398   6.181   9.217
 9736PP      PP19840  11.030   3.232   9.825
 9737PP      PP19841   5.094   5.627  12.604
 9738PP      PP19842   2.516  12.534   9.635
 9739PP      PP19843   0.191   3.141   1.563
 9740PP      PP19844  15.724   2.966   4.019
 9741PP      PP19845   6.569   2.916  11.192
 9742PP      PP19846  12.565  15.326   0.188
 9743PP      PP19847   0.861   5.016   3.996
 9744PP      PP19848   6.682   4.694   1.120
 9745PP      PP19849   8.508  12.544  11.529
 9746PP      PP19850  11.020   2.980   1.339
 9747PP      PP19851  13.511   7.300   1.435
 9748PP      PP19852   9.322  12.344  11.946
 9749PP      PP19853   6.071  13.537  12.381
 9750PP      PP19854  10.396   1.933  13.247
 9751PP      PP19855   6.733   1.524   5.468
 9752PP      PP19856   3.813   3.034  10.139
 9753PP      PP19857  11.762  12.054   0.657
 9754PP      PP19858  13.950   2.830  11.398
 9755PP      PP19859  14.694   7.942  12.491
 9756PP      PP19860   5.661   6.640   0.485
 9757PP      PP19861   5.052   2.084   4.871
 9758PP      PP19862  12.773   8.220   8.735
 9759PP      PP19863   6.005   0.607  13.593
 9760PP      PP19864  11.585   1.371   2.671
 9761PP      PP19865   4.706   8.718   2.916
 9762PP      PP19866   1.651  10.689  12.315
 9763PP      PP19867   0.656   0.596  11.291
 9764PP      PP19868   8.144   6.981   0.131
 9765PP      PP19869   9.476   7.319  12.384
 9766PP      PP19870   5.279   5.219  12.331
 9767PP      PP19871   6.126   4.797   2.281
 9768PP      PP19872   4.920   5.878   1.664
 9769PP      PP19873   7.813   4.149   1.493
 9770PP      PP19874  14.418  10.875   9.152
 9771PP      PP19875   3.270   3.369  11.164
 9772PP      PP19876   7.112  11.930   1.546
 9773PP      PP19877   7.295   3.251   2.662
 9774PP      PP19878  13.142   3.318   4.408
 9775PP      PP19879  15.231   3.690   1.695
 9776PP      PP19880  14.812  13.140   3.396
 9777PP      PP19881  15.469   0.036   4.127
 9778PP      PP19882   0.642   8.952  11.207
 9779PP      PP19883  11.975   8.412   1.811
 9780PP      PP19884  11.391   4.711   9.220
 9781PP      PP19885   4.107   5.599  11.335
 9782PP      PP19886   5.154   4.264  13.354
 9783PP      PP19887  14.239  14.091  13.140
 9784PP      PP19888   6.514  13.855  12.414
 9785PP      PP19889   8.804  12.605   9.440
 9786PP      PP19890  11.781   8.841   3.477
 9787PP      PP19891   9.194   2.776   3.712
 9788PP      PP19892   4.741  12.110  11.104
 9789PP      PP19893   4.941   0.511   2.127
 9790PP      PP19894   3.528  11.888   1.538
 9791PP      PP19895  10.640   1.282   9.189
 9792PP      PP19896  11.104   5.546   4.288
 9793PP      PP19897  11.379   4.706   3.123
 9794PP      PP19898   6.487   9.564  10.693
 9795PP      PP19899   6.752   9.780  12.113
 9796PP      PP19900   4.422   0.991   4.164
 9797PP      PP19901  12.460   6.707   0.846
 9798PP      PP19902   9.821  13.468   4.407
 9799PP      PP19903   1.451   2.495   0.100
 9800PP      PP19904   3.144  14.163  13.360
 9801PP      PP19905   6.249   7.545   3.881
 9802PP      PP19906  14.228   8.240   8.321
 9803PP      PP19907   5.580  14.417   1.194
 9804PP      PP19908   7.603  12.875  10.410
 9805PP      PP19909   2.610   0.911  11.043
 9806PP      PP19910   5.037   7.803  12.956
 9807PP      PP19911  13.794  14.258   0.249
 9808PP      PP19912  13.403  11.540  11.479
 9809PP      PP19913   3.910   6.771  11.329
 9810PP      PP19914  11.157   4.121   9.171
 9811PP      PP19915   8.735  14.523   4.995
 9812PP      PP19916   8.673   2.853   4.781
 9813PP      PP19917   0.450   3.412   1.922
 9814PP      PP19918  12.644  13.621   4.535
 9815PP      PP19919   0.162   0.005   2.808
 9816PP      PP19920  13.397   7.799  10.905
 9817PP      PP19921  14.507   3.892  12.709
 9818PP      PP19922   1.065   8.112  11.007
 9819PP      PP19923  11.687  11.819   9.084
 9820PP      PP19924   7.304   6.376   0.050
 9821PP      PP19925  15.162   2.681   0.914
 9822PP      PP19926   2.756   9.797   9.728
 9823PP      PP19927   9.717   9.614  13.473
 9824PP      PP19928   7.195  11.659   1.096
 9825PP      PP19929   1.765   5.241   3.014
 9826PP      PP19930   3.145   0.577   5.028
 9827PP      PP19931  12.822   8.505   3.584
 9828PP      PP19932   4.946  13.114  12.707
 9829PP      PP19933  12.784   8.998   0.597
 9830PP      PP19934  15.150   3.887   3.145
 9831PP      PP19935  11.154  13.772  10.418
 9832PP      PP19936  11.110  13.668   9.735
 9833PP      PP19937   3.567   4.978  11.008
 9834PP      PP19938   8.794   0.263  12.824
 9835PP      PP19939   2.624  11.691   2.770
 9836PP      PP19940  12.650  15.543   1.158
 9837PP      PP19941  12.029  10.501   2.917
 9838PP      PP19942  13.505   4.902   2.199
 9839PP      PP19943   5.198  10.428   0.314
 9840PP      PP19944   7.722  10.403   0.722
 9841PP      PP19945   7.834   3.309  12.858
 9842PP      PP19946   0.243  13.437   9.069
 9843PP      PP19947   5.898   3.610   2.394
 9844PP      PP19948   4.097   4.444  11.422
 9845PP      PP19949   1.980   6.740  10.342
 9846PP      PP19950   1.956  10.970   4.170
 9847PP      PP19951   6.301   4.812   9.955
 9848PP      PP19952   8.794   4.123  12.007
 9849PP      PP19953   4.768   0.872  13.601
 9850PP      PP19954   1.344   5.820  11.041
 9851PP      PP19955   3.871   3.037   4.448
 9852PP      PP19956   9.224   2.182  13.010
 9853PP      PP19957   6.399  12.392   1.614
 9854PP      PP19958   7.378   7.636  12.929
 9855PP      PP19959   0.893   5.398   3.217
 9856PP      PP19960  10.865  10.054   1.302
 9857PP      PP19961  12.069   8.730  12.080
 9858PP      PP19962  15.097  14.463  12.531
 9859PP      PP19963   3.930   7.708   8.756
 9860PP      PP19964   0.386  12.992   3.421
 9861PP      PP19965   4.105  12.498  11.737
 9862PP      PP19966  10.033   5.371   2.367
 9863PP      PP19967  11.954  11.898   9.511
 9864PP      PP19968   2.022  13.772  10.085
 9865PP      PP19969   6.535   2.693   0.994
 9866PP      PP19970   4.087   0.394   5.069
 9867PP      PP19971   6.662   2.428   3.922
 9868PP      PP19972  14.782   6.617  12.753
 9869PP      PP19973   8.432   6.917   2.022
 9870PP      PP19974   2.808   2.280  13.233
 9871PP      PP19975  12.907  15.641  10.324
 9872PP      PP19976   3.468  15.192   1.425
 9873PP      PP19977   6.990  15.139  11.056
 9874PP      PP19978   9.563   2.142  11.800
 9875PP      PP19979   2.404   1.533   3.627
 9876PP      PP19980   3.029   6.625  10.902
 9877PP      PP19981   1.269   9.776  11.219
 9878PP      PP19982  10.967  13.522   2.499
 9879PP      PP19983  11.405  10.994  12.070
 9880PP      PP19984  12.087  11.682   0.492
 9881PP      PP19985  14.729   7.620   3.944
 9882PP      PP19986   9.332  15.586   2.871
 9883PP      PP19987   0.146   7.235   9.647
 9884PP      PP19988   6.959   2.703  11.441
 9885PP      PP19989   0.113   2.314   2.720
 9886PP      PP19990  12.695   6.812  12.160
 9887PP      PP19991  13.611  11.847   8.550
 9888PP      PP19992  15.248  15.737  12.830
 9889PP      PP19993   1.593   8.634   1.818
 9890PP      PP19994   0.367   5.575   3.274
 9891PP      PP19995   6.277  12.416  10.132
 9892PP      PP19996  14.932   4.010   2.661
 9893PP      PP19997  10.031   5.531   1.873
 9894PP      PP19998   2.990   5.307  12.478
 9895PP      PP19999  14.311  11.350   0.015
 9896PP      PP20000  13.897  10.524   3.217
 9897PP      PP20001   0.800   7.709   3.751
 9898PP      PP20002   2.370   5.463   3.760
 9899PP      PP20003   8.563   8.077   0.550
 9900PP      PP20004  13.926  15.201   2.991
 9901PP      PP20005   7.852   1.012   4.910
 9902PP      PP20006   4.963   8.977   9.144
 9903PP      PP20007   6.493   1.008   9.747
 9904PP      PP20008   7.013  15.357   3.792
 9905PP      PP20009   3.257  13.949   2.163
 9906PP      PP20010  10.741   7.075  11.349
 9907PP      PP20011   3.682  10.751  13.423
 9908PP      PP20012   9.384   2.388   1.999
 9909PP      PP20013  10.329  11.910  12.595
 9910PP      PP20014   6.481   4.783   0.608
 9911PP      PP20015  14.604   2.360   2.357
 9912PP      PP20016   8.356   1.593   2.431
 9913PP      PP20017   9.553   6.968   8.961
 9914PP      PP20018   3.318  14.602   9.588
 9915PP      PP20019   9.888   4.411  11.317
 9916PP      PP20020   2.071   0.369  12.974
 9917PP      PP20021   1.315  10.262  13.204
 9918PP      PP20022   3.210   7.750  13.150
 9919PP      PP20023   1.211  10.193   3.711
 9920PP      PP20024   6.579  15.218   4.543
 9921PP      PP20025  13.137   1.850  12.233
 9922PP      PP20026   4.182  14.526   1.459
 9923PP      PP20027  13.709   8.644  11.426
 9924PP      PP20028   6.520   4.309   3.269
 9925PP      PP20029   8.649   8.412   9.727
 9926PP      PP20030   5.795   3.959  11.744
 9927PP      PP20031  13.710   6.015   9.203
 9928PP      PP20032  14.612   0.367   9.724
 9929PP      PP20033   9.967   5.831  13.256
 9930PP      PP20034   7.223   1.242   9.273
 9931PP      PP20035   4.204  13.013  13.423
 9932PP      PP20036   8.681   6.169   9.879
 9933PP      PP20037   0.127   7.700   9.342
 9934PP      PP20038   1.371  13.430  10.453
 9935PP      PP20039   8.503   5.908   3.154
 9936PP      PP20040   0.011  10.034   9.803
 9937PP      PP20041   9.541   8.185   9.850
 9938PP      PP20042   8.081   1.391  13.358
 9939PP      PP20043   8.173  10.412   9.363
 9940PP      PP20044   4.142  12.953   2.409
 9941PP      PP20045   2.672   9.826   8.332
 9942PP      PP20046   1.397   7.795   1.031
 9943PP      PP20047  10.026  10.777   1.331
 9944PP      PP20048   2.248   9.300  12.589
 9945PP      PP20049  13.916   9.724   2.740
 9946PP      PP20050  13.691   0.541  13.065
 9947PP      PP20051  15.390  14.558  10.899
 9948PP      PP20052  15.649  13.390  11.300
 9949PP      PP20053   9.684   2.393  10.846
 9950PP      PP20054  12.697  11.623   1.707
 9951PP      PP20055   4.091   4.836   9.283
 9952PP      PP20056   8.640  13.434   0.767
 9953PP      PP20057   4.257  14.408  12.585
 9954PP      PP20058   7.369  12.511   0.824
 9955PP      PP20059  13.579   2.859   3.578
 9956PP      PP20060  12.771  11.454  13.490
 9957PP      PP20061  12.395   7.765   3.271
 9958PP      PP20062   5.027   4.651  10.743
 9959PP      PP20063   4.041  11.065   2.475
 9960PP      PP20064   5.743  10.001   2.740
 9961PP      PP20065   2.960   7.519   8.527
 9962PP      PP20066  14.035  12.502  11.937
 9963PP      PP20067  12.899  12.901  11.148
 9964PP      PP20068   2.752  14.132   2.027
 9965PP      PP20069   6.679   6.737   1.479
 9966PP      PP20070   3.250   8.889  10.805
 9967PP      PP20071  13.328   7.191   0.687
 9968PP      PP20072   6.179   4.499   9.541
 9969PP      PP20073   4.410   9.852   3.071
 9970PP      PP20074   1.667   9.069   3.219
 9971PP      PP20075   2.655   5.028   3.760
 9972PP      PP20076   9.482  15.600   3.479
 9973PP      PP20077   1.213  10.750  10.483
 9974PP      PP20078  10.386   5.387  10.815
 9975PP      PP20079   7.834   2.876   0.616
 9976PP      PP20080   4.752   5.166  13.462
 9977PP      PP20081  15.174  12.894  12.003
 9978PP      PP20082  12.715   8.211  11.677
 9979PP      PP20083  10.766   3.170  11.330
 9980PP      PP20084   1.626  12.776   9.178
 9981PP      PP20085   7.271   5.558   8.449
 9982PP      PP20086   0.942   3.796  11.228
 9983PP      PP20087   5.343   8.507  12.997
 9984PP      PP20088  13.400   9.052   1.591
 9985PP      PP20089   6.994   7.687   3.671
 9986PP      PP20090   3.923   7.660  11.406
 9987PP      PP20091  10.704   0.979   3.644
 9988PP      PP20092  14.446   0.628  10.920
 9989PP      PP20093  12.053   5.900  12.090
 9990PP      PP20094  12.057   7.886   0.330
 9991PP      PP20095   5.447   4.541  13.026
 9992PP      PP20096   0.932   2.140  10.962
 9993PP      PP20097   5.787   7.772  10.075
 9994PP      PP20098   2.582   8.819   3.676
 9995PP      PP20099   1.273  12.619   4.046
 9996PP      PP20100  10.829   6.946  11.872
 9997PP      PP20101  13.840   9.195   9.348
 9998PP      PP20102   7.465  13.908  11.342
 9999PP      PP20103   7.870   8.313  10.269
10000PP      PP20104  11.772   9.107   9.492
10001PP      PP20105   3.081   0.701  11.137
10002PP      PP20106   4.492   5.738   2.480
10003PP      PP20107  14.817  15.472  12.991
10004PP      PP20108   8.618   2.119   4.184
10005PP      PP20109  15.568   7.236  10.245
10006PP      PP20110   1.704   5.937   0.303
10007PP      PP20111  11.317  12.219   3.103
10008PP      PP20112   5.990   1.544   1.145
10009PP      PP20113   5.182   0.029   8.995
10010PP      PP20114   5.655   2.664   2.733
10011PP      PP20115   7.052  15.457   1.749
10012PP      PP20116   7.345  11.565   2.619
10013PP      PP20117   9.861   0.042   0.707
10014PP      PP20118   7.796  15.004  13.458
10015PP      PP20119   6.736   8.997   0.695
10016PP      PP20120   5.143   5.190  10.884
10017PP      PP20121   5.701  15.530  11.616
10018PP      PP20122   8.949   4.579   9.053
10019PP      PP20123   9.302  13.438   3.644
10020PP      PP20124   3.776   8.162   9.496
10021PP      PP20125   9.517  11.277   2.452
10022PP      PP20126  11.781   6.960   0.322
10023PP      PP20127   6.871  13.150   5.530
10024PP      PP20128   9.743   6.043   9.109
10025PP      PP20129   9.573  12.278   2.295
10026PP      PP20130   6.840  15.322  12.459
10027PP      PP20131   2.887  11.914   3.156
10028PP      PP20132   9.242   1.191  11.966
10029PP      PP20133   5.374  11.927  12.105
10030PP      PP20134   8.272  14.326   4.743
10031PP      PP20135  13.305  11.145   2.877
10032PP      PP20136   7.568   7.678  10.664
10033PP      PP20137   1.895   9.139   1.391
10034PP      PP20138   1.365   6.393   1.656
10035PP      PP20139   5.943   3.939  11.247
10036PP      PP20140   7.658   9.607   2.407
10037PP      PP20141  14.418   2.275   1.108
10038PP      PP20142   4.019  10.219   1.316
10039PP      PP20143  15.423   4.181   1.442
10040PP      PP20144  15.065  11.984   0.224
10041PP      PP20145   5.534  11.310   3.161
10042PP      PP20146   1.081   4.844   1.024
10043PP      PP20147   5.797  10.889   1.621
10044PP      PP20148   4.442   7.872  11.077
10045PP      PP20149   8.953   6.215   0.565
10046PP      PP20150  13.050  13.429  10.015
10047PP      PP20151  12.101  15.070   0.016
10048PP      PP20152  12.512  14.303   3.096
10049PP      PP20153   2.264   0.639  10.746
10050PP      PP20154   2.994   8.791   3.371
10051PP      PP20155   0.530   6.790   0.316
10052PP      PP20156  10.325   4.305   9.905
10053PP      PP20157  11.381  13.231   2.323
10054PP      PP20158  15.085  10.605   1.474
10055PP      PP20159   2.646   1.019   2.735
10056PP      PP20160   9.687   8.011   2.962
10057PP      PP20161  12.594  12.481  10.940
10058PP      PP20162   5.122   7.534  11.765
10059PP      PP20163  11.064   0.318   0.238
10060PP      PP20164   3.471   8.573  12.425
10061PP      PP20165   6.634   8.395   4.238
10062PP      PP20166   2.788  14.911   0.275
10063PP      PP20167  10.846   9.579   8.777
10064PP      PP20168  14.811   2.436  11.368
10065PP      PP20169   9.427  15.802  10.931
10066PP      PP20170   9.459   6.233   1.959
10067PP      PP20171   7.145   7.824   9.294
10068PP      PP20172   6.779   1.880   3.293
10069PP      PP20173  15.125  12.295   0.689
10070PP      PP20174  14.401   8.699  12.018
10071PP      PP20175   9.438   5.389  11.919
10072PP      PP20176   3.617   5.906   9.253
10073PP      PP20177   0.128  11.186  11.113
10074PP      PP20178   6.737   5.873  13.490
10075PP      PP20179  10.280  15.667   4.009
10076PP      PP20180   7.286  11.274  12.979
10077PP      PP20181   8.744  15.025   5.145
10078PP      PP20182   9.344   6.691   1.657
10079PP      PP20183   8.515   8.224  12.166
10080PP      PP20184   8.334  10.715  12.707
10081PP      PP20185   1.599   1.717   1.960
10082PP      PP20186   1.839  12.882   1.910
10083PP      PP20187   9.888  15.493  12.900
10084PP      PP20188  11.656  15.038  12.401
10085PP      PP20189   4.780  15.724   9.747
10086PP      PP20190  15.260   3.320   9.679
10087PP      PP20191  13.002  12.956  11.662
10088PP      PP20192   8.307  14.703  11.261
10089PP      PP20193  15.104   2.623  11.737
10090PP      PP20194   7.841  14.739   9.993
10091PP      PP20195  14.124  11.265   8.980
10092PP      PP20196   8.719  10.219  12.053
10093PP      PP20197  13.444  13.557   2.287
10094PP      PP20198   6.913   9.389   0.975
10095PP      PP20199   3.679   3.514   4.059
10096PP      PP20200   5.355   3.597   2.349
10097PP      PP20201   5.417   9.555   0.489
10098PP      PP20202  13.134  12.611   2.501
10099PP      PP20203   7.422   9.280  11.294
10100PP      PP20204   9.027  12.012   2.407
10101PP      PP20205   0.812   5.026  10.257
10102PP      PP20206   4.348   4.200   1.552
10103PP      PP20207  14.485   4.865  11.763
10104PP      PP20208   9.645   5.263  10.248
10105PP      PP20209  14.623   8.906  10.068
10106PP      PP20210  12.868  14.715   4.818
10107PP      PP20211  13.755   9.137   2.701
10108PP      PP20212  15.296   7.463  11.211
10109PP      PP20213   1.848   3.446  13.281
10110PP      PP20214  13.800  12.904   0.065
10111PP      PP20215   7.018   4.085   3.088
10112PP      PP20216  13.233  14.295   1.840
10113PP      PP20217   4.908   3.587   3.190
10114PP      PP20218   3.134   2.149  12.842
10115PP      PP20219  15.577   8.873   9.720
10116PP      PP20220  14.991   3.768  13.533
10117PP      PP20221   4.397  12.877   8.682
10118PP      PP20222   0.459  10.918   9.978
10119PP      PP20223   3.314   2.362  13.269
10120PP      PP20224  11.159  11.802   0.612
10121PP      PP20225  13.078   6.507   3.357
10122PP      PP20226   8.711  12.888   2.282
10123PP      PP20227  14.921   8.703   2.338
10124PP      PP20228   9.402   2.752  11.092
10125PP      PP20229   7.340   5.506   4.081
10126PP      PP20230   3.211   6.476   2.684
10127PP      PP20231   7.503   2.132   3.537
10128PP      PP20232   8.412   4.182   0.623
10129PP      PP20233  12.128   0.597   0.376
10130PP      PP20234   7.855   7.462   3.931
10131PP      PP20235  14.287  13.531   2.769
10132PP      PP20236   7.036   8.345   1.438
10133PP      PP20237   2.584   7.526   9.980
10134PP      PP20238   2.352  11.309  11.481
10135PP      PP20239   6.527  15.677   1.295
10136PP      PP20240   4.560   9.737  11.587
10137PP      PP20241   8.772   1.168  12.206
10138PP      PP20242   2.679  15.170  13.452
10139PP      PP20243   9.708  12.394   1.621
10140PP      PP20244   8.660   3.825   1.317
10141PP      PP20245   6.567   8.419  10.232
10142PP      PP20246   5.776   9.415   2.924
10143PP      PP20247   1.151   1.459  11.019
10144PP      PP20248  14.450   6.674   0.035
10145PP      PP20249  15.562  14.907   1.597
10146PP      PP20250   5.360   8.411   1.889
10147PP      PP20251  14.630   0.023   4.137
10148PP      PP20252   8.717  11.177   2.587
10149PP      PP20253   1.463  10.534   2.213
10150PP      PP20254   4.950   5.424   9.543
10151PP      PP20255  11.316  13.368  12.387
10152PP      PP20256  11.715   9.779  11.915
10153PP      PP20257  13.065   1.799  12.762
10154PP      PP20258   5.285   2.385   2.401
10155PP      PP20259   8.203   4.487  12.796
10156PP      PP20260  13.136   3.949   2.761
10157PP      PP20261  14.644   8.372   3.426
10158PP      PP20262   4.148  11.982   9.896
10159PP      PP20263   1.863   3.596   3.312
10160PP      PP20264  14.834   9.120   8.657
10161PP      PP20265   7.273  15.410   2.799
10162PP      PP20266   0.624  13.918   1.743
10163PP      PP20267   5.821   9.280  11.761
10164PP      PP20268   8.972  15.555  10.841
10165PP      PP20269   2.417   3.371  11.204
10166PP      PP20270  15.158  11.684   1.028
10167PP      PP20271  15.346   7.711   1.634
10168PP      PP20272   1.994   9.330   2.709
10169PP      PP20273   4.532   4.132  11.305
10170PP      PP20274   1.405   8.242   1.518
10171PP      PP20275  13.157  14.160  12.355
10172PP      PP20276   7.691   1.707  11.330
10173PP      PP20277   2.296   0.580   2.898
10174PP      PP20278  11.364  15.536   2.553
10175PP      PP20279   1.814   4.008   1.188
10176PP      PP20280  12.699  14.272   2.010
10177PP      PP20281  15.270   6.026   9.100
10178PP      PP20282   8.491   7.409  10.498
10179PP      PP20283  14.068   2.729  12.820
10180PP      PP20284  11.671  11.257  13.273
10181PP      PP20285   0.295   7.080   2.079
10182PP      PP20286  10.180   7.975  10.643
10183PP      PP20287   0.376   8.085  11.974
10184PP      PP20288   1.253   3.393  11.374
10185PP      PP20289   7.734   0.248   9.922
10186PP      PP20290   9.300   9.537  13.093
10187PP      PP20291  11.582  10.593  10.930
10188PP      PP20292  14.741   1.140   9.211
10189PP      PP20293   3.378  10.964  12.468
10190PP      PP20294   9.390   3.418   3.674
10191PP      PP20295  14.963   2.492  10.855
10192PP      PP20296   0.552   4.707   4.283
10193PP      PP20297   3.794   0.395   2.640
10194PP      PP20298   5.257   1.043  11.538
10195PP      PP20299   0.459   7.768   2.715
10196PP      PP20300  10.988   1.806   3.211
10197PP      PP20301  12.675  10.332   3.544
10198PP      PP20302   0.285   6.322  11.559
10199PP      PP20303   1.509  13.418  11.689
10200PP      PP20304  14.075   9.076   7.905
10201PP      PP20305   2.800   1.259  12.035
10202PP      PP20306  11.330   4.388  12.624
10203PP      PP20307  13.238   1.936   9.006
10204PP      PP20308   7.597   9.778  11.851
10205PP      PP20309   1.189  14.175  13.035
10206PP      PP20310   3.401  12.853   1.437
10207PP      PP20311   0.574   2.305   1.383
10208PP      PP20312   0.620  11.699  12.125
10209PP      PP20313   6.369   7.082   4.120
10210PP      PP20314   4.077   7.212   8.348
10211PP      PP20315   0.374   0.632  12.384
10212PP      PP20316   5.788  11.890  12.421
10213PP      PP20317  13.845  10.268   1.481
10214PP      PP20318   6.376   4.244  10.563
10215PP      PP20319  11.215  11.533  13.261
10216PP      PP20320   2.556   9.569  10.475
10217PP      PP20321   7.965  11.659   8.984
10218PP      PP20322   2.451   5.063   2.494
10219PP      PP20323  10.960   5.339  11.620
10220PP      PP20324   6.680   7.263  10.133
10221PP      PP20325  12.400   6.355   1.977
10222PP      PP20326  10.113   4.212   0.004
10223PP      PP20327   1.524  11.990   8.802
10224PP      PP20328  15.535   1.853   1.797
10225PP      PP20329  12.610   6.636   9.433
10226PP      PP20330   8.028  15.346   1.358
10227PP      PP20331   4.996   8.271   9.285
10228PP      PP20332   5.569   1.663  10.454
10229PP      PP20333   2.362  15.535  11.703
10230PP      PP20334   1.032   0.509  10.214
10231PP      PP20335  12.461   1.381   2.946
10232PP      PP20336  14.626   3.907   2.071
10233PP      PP20337   8.363   4.634   2.725
10234PP      PP20338   7.254  15.000   9.637
10235PP      PP20339   7.283   5.816   0.731
10236PP      PP20340   2.733  10.281  12.483
10237PP      PP20341  11.347  12.310   1.961
10238PP      PP20342   9.639  12.213   4.772
10239PP      PP20343   6.957  13.436   1.948
10240PP      PP20344   2.792   4.287   4.949
10241PP      PP20345   2.358  13.480  12.040
10242PP      PP20346   9.755   4.741   8.537
10243PP      PP20347   2.617   3.168   4.575
10244PP      PP20348  13.279   1.782  10.601
10245PP      PP20349  15.691  12.551   4.603
10246PP      PP20350  10.553   7.615  10.795
10247PP      PP20351   0.935   2.342  12.254
10248PP      PP20352  14.263  14.499   0.335
10249PP      PP20353   5.066  12.797  11.876
10250PP      PP20354  11.743   3.052   8.727
10251PP      PP20355   4.956  15.238   1.317
10252PP      PP20356   2.334   7.545  12.883
10253PP      PP20357  14.502  12.360  11.649
10254PP      PP20358  13.996   3.952  10.421
10255PP      PP20359  13.903   4.332  13.228
10256PP      PP20360  10.742   2.949  13.090
10257PP      PP20361   4.461   7.229   2.403
10258PP      PP20362  13.973   6.616   2.460
10259PP      PP20363  13.089   7.356   1.111
10260PP      PP20364   5.264   5.176  13.540
10261PP      PP20365   7.318   6.686   9.880
10262PP      PP20366   3.453   0.577  10.722
10263PP      PP20367   8.250  14.596   0.669
10264PP      PP20368   5.358   3.742  12.457
10265PP      PP20369  14.427   3.737  10.675
10266PP      PP20370   0.714  10.363   0.908
10267PP      PP20371   1.410  11.738   1.683
10268PP      PP20372   1.951   4.395  13.120
10269PP      PP20373  11.507   4.533   3.952
10270PP      PP20374   8.639   6.940   8.424
10271PP      PP20375   1.058  14.583   3.253
10272PP      PP20376   8.939  13.911   0.572
10273PP      PP20377  13.990  11.536   1.881
10274PP      PP20378  14.378   9.567   8.787
10275PP      PP20379  14.107  15.170   4.140
10276PP      PP20380   8.840  12.332   3.768
10277PP      PP20381   2.711   8.952   1.351
10278PP      PP20382   2.209   0.220  11.603
10279PP      PP20383   2.635  11.928   3.690
10280PP      PP20384   2.633  10.245  11.497
10281PP      PP20385   5.884   6.538   3.011
10282PP      PP20386   1.894   9.541   0.989
10283PP      PP20387  15.328   4.482   3.235
10284PP      PP20388  12.863   7.686  12.454
10285PP      PP20389   4.296   4.486   3.085
10286PP      PP20390   5.201   6.114   3.468
10287PP      PP20391   3.663  11.097   8.128
10288PP      PP20392   2.433  11.082  12.693
10289PP      PP20393  11.928   2.342  10.536
10290PP      PP20394   2.623   0.507   2.515
10291PP      PP20395   6.673  14.420  13.118
10292PP      PP20396   5.206   7.466   0.823
10293PP      PP20397  15.553   4.674   2.735
10294PP      PP20398   1.157   0.014   3.450
10295PP      PP20399   1.552  12.576   3.436
10296PP      PP20400   7.311  10.768   0.945
10297PP      PP20401  13.745   7.150  12.269
10298PP      PP20402   6.147   6.113   3.223
10299PP      PP20403   4.577   5.328   3.337
10300PP      PP20404  14.980   7.352  13.239
10301PP      PP20405  12.511   2.282   2.712
10302PP      PP20406   2.001  13.518  11.097
10303PP      PP20407   9.170  12.743  11.649
10304PP      PP20408   7.276   6.170   9.975
10305PP      PP20409  10.446   5.221   2.128
10306PP      PP20410   9.738   1.624   0.232
10307PP      PP20411  11.206   7.051   0.327
10308PP      PP20412   1.101   7.843   9.142
10309PP      PP20413  13.091   5.739   2.482
10310PP      PP20414  13.383  13.677  12.805
10311PP      PP20415   1.034   7.428   9.821
10312PP      PP20416  13.375  13.072   2.470
10313PP      PP20417  13.005  13.707   9.558
10314PP      PP20418  13.089  11.232  11.816
10315PP      PP20419  13.540  15.130   4.214
10316PP      PP20420  10.139   6.751   2.593
10317PP      PP20421   9.131   8.274   8.964
10318PP      PP20422  15.636   6.472  11.682
10319PP      PP20423   6.620   5.463   4.298
10320PP      PP20424   4.639   0.542   5.143
10321PP      PP20425  11.829  10.003   1.690
10322PP      PP20426   6.010   5.891   8.852
10323PP      PP20427   6.086  10.687   3.780
10324PP      PP20428   1.803  13.951   1.100
10325PP      PP20429  15.062  10.225  10.147
10326PP      PP20430  12.538  10.018  12.117
10327PP      PP20431  13.870  10.586  13.225
10328PP      PP20432   3.515  14.392  10.882
10329PP      PP20433   8.940   2.647  11.353
10330PP      PP20434   1.831  10.353   9.843
10331PP      PP20435   2.423  11.645   8.728
10332PP      PP20436   5.482  13.005   1.054
10333PP      PP20437  14.784   3.123   0.277
10334PP      PP20438   5.978   5.412   0.401
10335PP      PP20439   6.886   5.445   3.835
10336PP      PP20440   8.762   0.414   5.161
10337PP      PP20441   9.881   0.456   9.532
10338PP      PP20442  11.713  15.293   2.245
10339PP      PP20443  10.998   0.358  12.331
10340PP      PP20444   2.682   6.359  10.609
10341PP      PP20445  14.872  11.814  13.259
10342PP      PP20446  15.411   7.655  12.945
10343PP      PP20447   3.165   9.108   0.664
10344PP      PP20448  13.168  11.991   1.035
10345PP      PP20449  13.050   3.388  12.136
10346PP      PP20450   0.926  12.096   3.154
10347PP      PP20451   4.330   6.557   0.523
10348PP      PP20452   5.136   2.859  12.394
10349PP      PP20453   1.540  15.290  11.252
10350PP      PP20454  10.393   3.966   1.430
10351PP      PP20455   5.584   2.530   0.763
10352PP      PP20456   0.350   3.583  13.176
10353PP      PP20457   3.810   0.145   0.558
10354PP      PP20458   5.619  12.293   0.578
10355PP      PP20459   3.276   3.836  11.469
10356PP      PP20460   7.846   9.264   9.423
10357PP      PP20461  11.388  13.176   9.637
10358PP      PP20462   1.099  13.230   2.615
10359PP      PP20463  14.037  12.572   9.195
10360PP      PP20464   5.145  11.327   2.284
10361PP      PP20465   0.109   9.904   3.029
10362PP      PP20466   5.169  12.735  13.332
10363PP      PP20467  14.926  13.313   0.688
10364PP      PP20468  14.833   8.747   9.377
10365PP      PP20469   2.887   2.491  10.344
10366PP      PP20470   0.768   3.302  12.917
10367PP      PP20471  12.132  14.173  11.950
10368PP      PP20472   7.829  10.497   9.761
10369PP      PP20473   4.140   9.190  12.603
10370PP      PP20474  13.764  12.274   8.852
10371PP      PP20475   7.109   5.770   3.167
10372PP      PP20476   4.447  11.313  12.304
10373PP      PP20477  10.942  15.045   1.466
10374PP      PP20478  11.934  13.566   4.074
10375PP      PP20479  11.712   1.330  10.781
10376PP      PP20480   9.846   1.411   9.932
10377PP      PP20481   2.880   3.084  12.611
10378PP      PP20482  11.509   8.208   9.263
10379PP      PP20483   0.507   9.541   8.376
10380PP      PP20484   2.135   0.313   4.046
10381PP      PP20485  15.723  13.682  13.003
10382PP      PP20486  15.296  12.893   2.579
10383PP      PP20487  15.209   2.911   2.782
10384PP      PP20488   9.719   0.209  10.467
10385PP      PP20489   2.215   4.384  10.802
10386PP      PP20490  14.558  12.293   0.960
10387PP      PP20491   5.956  13.885  13.254
10388PP      PP20492   3.117   4.378   2.141
10389PP      PP20493   0.511   4.145   9.478
10390PP      PP20494   0.912   7.654  11.305
10391PP      PP20495   4.272   7.658  11.776
10392PP      PP20496   6.903   2.034   2.153
10393PP      PP20497   2.661  14.368   1.125
10394PP      PP20498   5.425  14.646  11.502
10395PP      PP20499  12.078  12.063  13.510
10396PP      PP20500  10.629   9.130   1.774
10397PP      PP20501  12.962   9.046   2.336
10398PP      PP20502   4.598   5.728   2.977
10399PP      PP20503  12.350  15.260   4.208
10400PP      PP20504  15.348   2.501   1.381
10401PP      PP20505   1.336   3.824   1.585
10402PP      PP20506  14.891   7.736  12.914
10403PP      PP20507   5.870   1.992   2.970
10404PP      PP20508   2.483   6.832  10.517
10405PP      PP20509   0.833  10.916  11.682
10406PP      PP20510   8.011   2.159   0.282
10407PP      PP20511   5.438   6.543   3.321
10408PP      PP20512   1.464  15.286   4.115
10409PP      PP20513   5.641   0.767  13.056
10410PP      PP20514  10.166   3.805   9.937
10411PP      PP20515   7.305  12.582  11.109
10412PP      PP20516   7.264   2.251   0.020
10413PP      PP20517   4.815   1.039   1.334
10414PP      PP20518   6.120   2.538   1.273
10415PP      PP20519   1.174  11.579   4.013
10416PP      PP20520   0.310   9.875   0.304
10417PP      PP20521   3.858  14.034  12.775
10418PP      PP20522  14.737   9.342   0.141
10419PP      PP20523   2.287   1.943   3.257
10420PP      PP20524  14.608  11.336   3.177
10421PP      PP20525   6.879   0.353  12.503
10422PP      PP20526   3.541   6.295  12.967
10423PP      PP20527   6.759  11.436   0.834
10424PP      PP20528  12.737  12.269   2.453
10425PP      PP20529  15.816   8.688  13.386
10426PP      PP20530  13.239   5.159  11.674
10427PP      PP20531  11.258   5.028  13.458
10428PP      PP20532  10.421   0.791   4.096
10429PP      PP20533   5.205  14.009   2.187
10430PP      PP20534   8.222   4.932  11.419
10431PP      PP20535   6.288  10.849  10.110
10432PP      PP20536   0.522   7.701  12.410
10433PP      PP20537  14.823   2.757  13.508
10434PP      PP20538  14.992  14.889  10.818
10435PP      PP20539   3.814  13.919   9.037
10436PP      PP20540  14.233   6.566   3.463
10437PP      PP20541   0.241   9.601   2.083
10438PP      PP20542  15.187  15.151  10.417
10439PP      PP20543   5.368  12.058  11.339
10440PP      PP20544   6.080   0.136  12.375
10441PP      PP20545   2.346   5.867  10.092
10442PP      PP20546   9.982   0.066   1.213
10443PP      PP20547  10.960   2.157  10.246
10444PP      PP20548   8.274   8.728   3.206
10445PP      PP20549   3.540   2.101   2.989
10446PP      PP20550   2.456   8.077   1.831
10447PP      PP20551   7.069  11.752   0.538
10448PP      PP20552  10.603   9.325   0.044
10449PP      PP20553   6.424  12.814  10.473
10450PP      PP20554  13.384   8.337   1.683
10451PP      PP20555   8.289   6.441  10.470
10452PP      PP20556   1.563   5.249  13.441
10453PP      PP20557  14.688  11.111   4.104
10454PP      PP20558  11.823  14.787  10.083
10455PP      PP20559   1.383  15.400   9.702
10456PP      PP20560   3.318  15.466   1.848
10457PP      PP20561   0.977  15.752  13.453
10458PP      PP20562   8.675  11.917   3.464
10459PP      PP20563  13.021   9.866   2.829
10460PP      PP20564   3.305   7.011  13.247
10461PP      PP20565   9.213   7.551   9.786
10462PP      PP20566   0.355  11.653   8.861
10463PP      PP20567   8.350   8.784   0.067
10464PP      PP20568   3.665   5.373   2.142
10465PP      PP20569   3.445   3.318   4.539
10466PP      PP20570  14.575  15.437   1.203
10467PP      PP20571   7.442  12.157  10.441
10468PP      PP20572  10.902   1.976  13.020
10469PP      PP20573   9.260  12.296   4.163
10470PP      PP20574   6.994   8.833  12.108
10471PP      PP20575  12.660  13.351   3.170
10472PP      PP20576  11.460  11.667   9.538
10473PP      PP20577  15.497  14.699   3.685
10474PP      PP20578   0.086   7.289   8.056
10475PP      PP20579   5.730   3.564  12.060
10476PP      PP20580   1.258  12.236  12.626
10477PP      PP20581   8.355   1.496  11.578
10478PP      PP20582  13.006  13.248   0.291
10479PP      PP20583   7.914   1.369   3.799
10480PP      PP20584   9.096   0.396  10.778
10481PP      PP20585   0.159   5.084   3.437
10482PP      PP20586   4.073   2.154   3.662
10483PP      PP20587   6.903   9.171   4.073
10484PP      PP20588   2.409  12.540  13.252
10485PP      PP20589   3.788   9.726   1.136
10486PP      PP20590   2.026   6.974   2.605
10487PP      PP20591   4.527  13.289  11.325
10488PP      PP20592   0.792  15.481   1.208
10489PP      PP20593   6.073  12.366  11.490
10490PP      PP20594  14.228  14.884  10.324
10491PP      PP20595  14.631   8.482   2.712
10492PP      PP20596   1.461   6.898   8.841
10493PP      PP20597   7.197   6.830   2.529
10494PP      PP20598   6.673   3.612  11.109
10495PP      PP20599   6.340  14.466   2.691
10496PP      PP20600   5.652  12.902  11.977
10497PP      PP20601  11.936   7.987   4.027
10498PP      PP20602   3.949   2.411   0.549
10499PP      PP20603  11.268   1.185  12.847
10500PP      PP20604   9.295  12.839   4.144
10501PP      PP20605  13.415  13.375   9.528
10502PP      PP20606   1.710   3.951  12.916
10503PP      PP20607   2.107   8.974   0.235
10504PP      PP20608   5.861   3.038   9.689
10505PP      PP20609   4.383  11.741   3.073
10506PP      PP20610   0.356  15.297   9.438
10507PP      PP20611   3.074  11.956  10.786
10508PP      PP20612   3.424  13.709   1.591
10509PP      PP20613  11.769   1.923  13.285
10510PP      PP20614  14.286  15.627   3.830
10511PP      PP20615  14.992   5.020  10.056
10512PP      PP20616  13.932   9.646   3.749
10513PP      PP20617   0.132  13.485   4.246
10514PP      PP20618  12.607   1.822   0.201
10515PP      PP20619   7.271  10.465   4.487
10516PP      PP20620   9.937   8.862  12.437
10517PP      PP20621   7.654  13.489   4.269
10518PP      PP20622   7.858   4.631   1.783
10519PP      PP20623  14.407   5.442   0.406
10520PP      PP20624   0.563  10.137   3.022
10521PP      PP20625  15.733   2.381  12.029
10522PP      PP20626  13.396  12.803   0.452
10523PP      PP20627   3.719   6.895  10.856
10524PP      PP20628   7.887  13.927   4.095
10525PP      PP20629   2.927   5.237  13.031
10526PP      PP20630   9.906   3.586  13.198
10527PP      PP20631  12.129   1.737   0.018
10528PP      PP20632  15.449  15.770   9.682
10529PP      PP20633  12.656  15.609   3.990
10530PP      PP20634   4.798  10.124  11.156
10531PP      PP20635   9.230   5.726   1.741
10532PP      PP20636   7.854  12.463  11.852
10533PP      PP20637  15.301  14.150   4.947
10534PP      PP20638   3.782   4.445  11.854
10535PP      PP20639  10.752  10.480   9.032
10536PP      PP20640  15.513   5.238  13.604
10537PP      PP20641   8.339   6.949   3.235
10538PP      PP20642   6.141  12.719   2.030
10539PP      PP20643   5.033   3.869   2.731
10540PP      PP20644  13.617   3.188   9.187
10541PP      PP20645   8.510   3.229   0.357
10542PP      PP20646   2.361  10.692  12.359
10543PP      PP20647  11.421  11.595   4.160
10544PP      PP20648   1.344   0.827   2.846
10545PP      PP20649  11.681   4.367   2.772
10546PP      PP20650  10.631  10.400  12.520
10547PP      PP20651  13.502   2.969   3.099
10548PP      PP20652  15.191   3.005   1.307
10549PP      PP20653   0.974   9.128  11.663
10550PP      PP20654  15.264  13.568   2.399
10551PP      PP20655   0.203  10.331   0.765
10552PP      PP20656   7.874  12.492   3.254
10553PP      PP20657   8.543  13.698   5.271
10554PP      PP20658  10.403   0.203  11.101
10555PP      PP20659   6.720   4.185  13.551
10556PP      PP20660  12.974   5.240   2.598
10557PP      PP20661  14.580   1.649   0.278
10558PP      PP20662  13.611  11.187  11.858
10559PP      PP20663   9.525  11.752  13.196
10560PP      PP20664   0.710   0.968   9.504
10561PP      PP20665  15.783   2.225  13.109
10562PP      PP20666   4.489   2.189   2.290
10563PP      PP20667  15.684   0.102  10.436
10564PP      PP20668  15.401   5.985  10.059
10565PP      PP20669   3.594   6.924   3.634
10566PP      PP20670  10.162   2.379   4.268
10567PP      PP20671   9.948  10.267   1.335
10568PP      PP20672   0.106  14.412   9.232
10569PP      PP20673   4.414   8.791   0.819
10570PP      PP20674   9.043   5.500  10.633
10571PP      PP20675  12.017   6.402  11.318
10572PP      PP20676  11.874  12.304  12.446
10573PP      PP20677   9.380   6.531  12.956
10574PP      PP20678   6.617  14.872  10.737
10575PP      PP20679   6.572   2.621  10.052
10576PP      PP20680   5.776   0.758  10.059
10577PP      PP20681   9.008   9.472  10.038
10578PP      PP20682   2.628  13.852   0.885
10579PP      PP20683   3.796   1.253   2.770
10580PP      PP20684   9.366  11.658   9.203
10581PP      PP20685   0.355  14.086   9.529
10582PP      PP20686   7.708  12.227  11.259
10583PP      PP20687  12.529   0.880  13.177
10584PP      PP20688   9.386   8.159   0.946
10585PP      PP20689  13.830  13.495  12.625
10586PP      PP20690  13.571  11.007   0.580
10587PP      PP20691  15.097   5.152   9.039
10588PP      PP20692  15.812  12.486   2.682
10589PP      PP20693   4.483   1.925  10.574
10590PP      PP20694   8.202   6.940  12.697
10591PP      PP20695   0.331   1.562   4.300
10592PP      PP20696  10.399   2.765   3.246
10593PP      PP20697   7.689  14.100   2.041
10594PP      PP20698  11.019   8.134   2.982
10595PP      PP20699  14.861  13.803  10.833
10596PP      PP20700  14.882   4.372   4.024
10597PP      PP20701  11.915   9.490   2.897
10598PP      PP20702   4.612   9.371  12.704
10599PP      PP20703  10.449   2.881  10.509
10600PP      PP20704  14.063   6.621   8.204
10601PP      PP20705   6.806  12.516   2.959
10602PP      PP20706   6.421   1.949   3.651
10603PP      PP20707   1.884   3.977   9.520
10604PP      PP20708  14.588  10.662  13.286
10605PP      PP20709   1.976   4.957  12.220
10606PP      PP20710  10.218   6.993   3.968
10607PP      PP20711   6.398   0.427  10.069
10608PP      PP20712  14.861   8.803   7.841
10609PP      PP20713  14.034   5.910  11.719
10610PP      PP20714   8.490  15.056   2.775
10611PP      PP20715  12.677   5.581   3.254
10612PP      PP20716  13.017   7.486   9.954
10613PP      PP20717  15.251   8.026   3.350
10614PP      PP20718   9.612   8.087   2.442
10615PP      PP20719   0.066  12.402   1.354
10616PP      PP20720  14.251  15.543   4.843
10617PP      PP20721   2.819   4.200   3.507
10618PP      PP20722   0.207  12.010   2.649
10619PP      PP20723   4.994   2.165  11.195
10620PP      PP20724   9.896  13.668   0.145
10621PP      PP20725   8.098   7.829   4.245
10622PP      PP20726  11.564   9.104   3.063
10623PP      PP20727   6.013   5.104   1.859
10624PP      PP20728  11.420   0.085  11.932
10625PP      PP20729  15.095  10.385   4.186
10626PP      PP20730   5.327   9.222   7.773
10627PP      PP20731  13.836  10.182   0.987
10628PP      PP20732   3.690   7.446   1.751
10629PP      PP20733  15.395   3.365   3.033
10630PP      PP20734  11.267   0.533   3.554
10631PP      PP20735  11.055  12.688  12.961
10632PP      PP20736   0.839  13.453   4.340
10633PP      PP20737   4.325  13.226  11.844
10634PP      PP20738   3.790   0.095   2.188
10635PP      PP20739   4.017  15.148   3.230
10636PP      PP20740   7.640  10.992   9.876
10637PP      PP20741   6.517   9.452  11.526
10638PP      PP20742   5.048   5.221   3.133
10639PP      PP20743   5.596  10.949   3.904
10640PP      PP20744  13.561  13.278  10.163
10641PP      PP20745   3.407   8.445   3.631
10642PP      PP20746   8.686   0.403   1.420
10643PP      PP20747  12.988  11.337   3.530
10644PP      PP20748  10.268   5.032   1.333
10645PP      PP20749  12.086   4.779  11.734
10646PP      PP20750  14.488  12.324  12.633
10647PP      PP20751   3.962  15.364   4.707
10648PP      PP20752  11.241   0.314   4.085
10649PP      PP20753  14.986   1.926   9.091
10650PP      PP20754  13.294  11.691  10.603
10651PP      PP20755   1.146   3.760  10.753
10652PP      PP20756  14.069   3.385  10.651
10653PP      PP20757  13.031  13.534   1.353
10654PP      PP20758  13.324   7.367   3.682
10655PP      PP20759   5.196   2.206  11.679
10656PP      PP20760   7.339   2.924   9.340
10657PP      PP20761   4.226   0.107   2.642
10658PP      PP20762   5.646   8.783  11.739
10659PP      PP20763   3.712  14.034   1.882
10660PP      PP20764   1.154   3.001   2.390
10661PP      PP20765   6.231  14.677   3.575
10662PP      PP20766   5.108   6.305   1.880
10663PP      PP20767   6.624  14.699   4.413
10664PP      PP20768   1.864  14.109   3.141
10665PP      PP20769   7.943   9.575   0.487
10666PP      PP20770  10.197  15.369  11.936
10667PP      PP20771  13.829   3.322   0.633
10668PP      PP20772   2.815  11.626   9.089
10669PP      PP20773  14.026  10.197  10.935
10670PP      PP20774  13.707   3.877   1.546
10671PP      PP20775   3.650   9.954  12.663
10672PP      PP20776  13.424   9.563   9.752
10673PP      PP20777   3.643   6.055  12.501
10674PP      PP20778   6.923  14.451   1.562
10675PP      PP20779   6.797   6.787   9.924
10676PP      PP20780   9.678   1.458  12.216
10677PP      PP20781   6.271   0.452   1.849
10678PP      PP20782  11.514  15.119   1.732
10679PP      PP20783   3.678   4.036   4.436
10680PP      PP20784   1.986  14.724   2.527
10681PP      PP20785  11.344   9.589  12.975
10682PP      PP20786  14.961  11.891   2.473
10683PP      PP20787   9.264  14.218   4.199
10684PP      PP20788   2.583  12.634  11.264
10685PP      PP20789  13.376  13.735   1.793
10686PP      PP20790   2.748   5.193   0.763
10687PP      PP20791   9.597  15.084  13.074
10688PP      PP20792  10.270   8.566   1.151
10689PP      PP20793   1.953  12.051   0.721
10690PP      PP20794   3.186   5.263   1.761
10691PP      PP20795   5.608   4.756   8.963
10692PP      PP20796  11.850   8.813   2.221
10693PP      PP20797   3.457  15.745  10.654
10694PP      PP20798   3.849   2.525  10.288
10695PP      PP20799   1.155  13.084  13.265
10696PP      PP20800   6.054   8.481   3.462
10697PP      PP20801  10.889  14.177  13.137
10698PP      PP20802   9.046  15.572   3.764
10699PP      PP20803  10.802  15.427   0.406
10700PP      PP20804   6.717  12.095   9.242
10701PP      PP20805  11.197   6.286   9.588
10702PP      PP20806  14.449  10.283  10.615
10703PP      PP20807   0.297   5.411   1.136
10704PP      PP20808  12.211   6.509  10.818
10705PP      PP20809   5.207   2.567  12.833
10706PP      PP20810   8.717   3.810   3.099
10707PP      PP20811  14.463  12.593   2.498
10708PP      PP20812   5.201   6.885  12.226
10709PP      PP20813   6.509   0.881   3.609
10710PP      PP20814   8.269   3.542   3.026
10711PP      PP20815  11.592   6.491  12.484
10712PP      PP20816   2.851  11.357   1.801
10713PP      PP20817   8.992   1.862   3.852
10714PP      PP20818  13.754   2.075   9.874
10715PP      PP20819   6.592  12.406  11.127
10716PP      PP20820  15.032   1.809   0.082
10717PP      PP20821   9.977  12.558  12.989
10718PP      PP20822   6.568   8.437   3.736
10719PP      PP20823   1.151   4.739   9.967
10720PP      PP20824   7.924   1.892   2.366
10721PP      PP20825  11.770  15.598   3.303
10722PP      PP20826   5.071   5.151   4.103
10723PP      PP20827   9.903   3.001   3.192
10724PP      PP20828   3.751   6.534   8.480
10725PP      PP20829  12.356   2.314   1.594
10726PP      PP20830  13.378  11.922   9.012
10727PP      PP20831   4.994   4.125  10.649
10728PP      PP20832  12.097  12.890  10.715
10729PP      PP20833   7.619  13.988   9.687
10730PP      PP20834   0.520   2.924   2.099
10731PP      PP20835   3.426  11.091  10.641
10732PP      PP20836  13.130   6.642   8.459
10733PP      PP20837   2.353   6.296   9.709
10734PP      PP20838   0.820   7.381   9.057
10735PP      PP20839  11.428  12.192   9.774
10736PP      PP20840   6.069  10.363  11.716
10737PP      PP20841   2.986  11.430  13.324
10738PP      PP20842   0.637  13.630  12.366
10739PP      PP20843  13.475   6.956   0.246
10740PP      PP20844   9.712   0.925   1.770
10741PP      PP20845  11.741   9.375  12.718
10742PP      PP20846  14.884   0.377  10.818
10743PP      PP20847   8.847   8.252  12.975
10744PP      PP20848   1.711   1.844  10.770
10745PP      PP20849   1.053   0.155   2.607
10746PP      PP20850  15.585  12.495   0.600
10747PP      PP20851   9.461   7.120   1.942
10748PP      PP20852   3.132   4.948   3.402
10749PP      PP20853   0.607  15.663  11.863
10750PP      PP20854   1.949   9.184  10.700
10751PP      PP20855   7.690   0.137  11.404
10752PP      PP20856  11.109   5.626  13.444
10753PP      PP20857   7.926   8.406   0.996
10754PP      PP20858   8.288  12.703   0.105
10755PP      PP20859   4.041  12.681  12.220
10756PP      PP20860  14.623   3.570  11.344
10757PP      PP20861   8.417   6.615   9.406
10758PP      PP20862   9.621   0.295   5.263
10759PP      PP20863   3.836   8.856   0.153
10760PP      PP20864   1.966   0.582   3.604
10761PP      PP20865   4.597   4.079   2.448
10762PP      PP20866   1.674   7.953   0.213
10763PP      PP20867   2.260   3.579  12.872
10764PP      PP20868   4.194  13.409   0.156
10765PP      PP20869   4.835  11.946   2.967
10766PP      PP20870   9.140  15.037  10.284
10767PP      PP20871  14.194   2.739   1.134
10768PP      PP20872   5.738   4.572   2.589
10769PP      PP20873   9.358   6.603   3.196
10770PP      PP20874   2.139  14.023  11.860
10771PP      PP20875   0.051   2.886   0.737
10772PP      PP20876   6.675   1.425   2.861
10773PP      PP20877   4.915   1.734   9.487
10774PP      PP20878   6.232   6.077  12.365
10775PP      PP20879   3.067   1.290  12.517
10776PP      PP20880  15.439   6.697   4.260
10777PP      PP20881   7.021   9.729   9.387
10778PP      PP20882   5.916   2.334  12.239
10779PP      PP20883   5.410   2.693   1.697
10780PP      PP20884  10.602   4.178  10.689
10781PP      PP20885   0.251  15.446   0.830
10782PP      PP20886  13.330  10.462   8.992
10783PP      PP20887   6.075  15.546   1.985
10784PP      PP20888   4.794  15.552   0.950
10785PP      PP20889   8.523   7.782   3.954
10786PP      PP20890   7.410   3.582  10.524
10787PP      PP20891   1.696   8.608   1.267
10788PP      PP20892   9.959  15.740  12.202
10789PP      PP20893  12.406  11.154   3.590
10790PP      PP20894   7.622  14.235   4.848
10791PP      PP20895   3.142   2.362   3.179
10792PP      PP20896   2.708  11.548   1.010
10793PP      PP20897  11.781   0.682   9.865
10794PP      PP20898  14.314  13.160   3.966
10795PP      PP20899   8.825   9.714  11.780
10796PP      PP20900   3.542  10.549   1.785
10797PP      PP20901   6.264  10.591  12.148
10798PP      PP20902   3.863   0.610  12.675
10799PP      PP20903  15.617  12.053  10.950
10800PP      PP20904  13.130   5.156  12.736
10801PP      PP20905   1.621   8.370   4.434
10802PP      PP20906   2.346  14.135   3.899
10803PP      PP20907   8.381   4.121  11.488
10804PP      PP20908  11.737   3.046  11.851
10805PP      PP20909  14.743   6.152   1.493
10806PP      PP20910   7.186   6.413   9.467
10807PP      PP20911   8.912   2.487   3.290
10808PP      PP20912   5.961   1.647   9.686
10809PP      PP20913   7.955  14.752   2.885
10810PP      PP20914   3.455  11.100   0.310
10811PP      PP20915  15.619   2.693  11.635
10812PP      PP20916   5.035   8.135   0.281
10813PP      PP20917   3.559  14.343   2.661
10814PP      PP20918   9.029  10.227   2.608
10815PP      PP20919  13.516   5.262  13.514
10816PP      PP20920  14.958   2.993  10.915
10817PP      PP20921   5.082  15.828   2.180
10818PP      PP20922  11.858  12.990   1.616
10819PP      PP20923  11.050   7.364  11.676
10820PP      PP20924  11.738   0.548   4.485
10821PP      PP20925   7.727   8.500  11.160
10822PP      PP20926   5.163  12.918   9.352
10823PP      PP20927   8.156   6.985  13.213
10824PP      PP20928  14.848  14.761  12.907
10825PP      PP20929   5.649   4.751  10.699
10826PP      PP20930   2.351   0.969  12.088
10827PP      PP20931  14.253  13.887  12.205
10828PP      PP20932   8.863   0.772   4.790
10829PP      PP20933   4.242  14.657   9.618
10830PP      PP20934   8.531  12.172  12.852
10831PP      PP20935  11.387  15.027  10.379
10832PP      PP20936  11.956   8.899   2.760
10833PP      PP20937   9.236  10.717  11.757
10834PP      PP20938   8.478   2.269  12.261
10835PP      PP20939  10.129   9.940  10.889
10836PP      PP20940   4.086   6.018   9.083
10837PP      PP20941  15.010   4.034  12.672
10838PP      PP20942   4.886   2.620   4.945
10839PP      PP20943   4.422  15.081   9.855
10840PP      PP20944   2.791   3.646  11.477
10841PP      PP20945   8.735   6.093  10.485
10842PP      PP20946   9.116  15.064  10.886
10843PP      PP20947   5.844   2.574   9.483
10844PP      PP20948   4.479   2.524   9.706
10845PP      PP20949   1.125   4.910  12.667
10846PP      PP20950  13.811   8.055   0.109
10847PP      PP20951  15.536  12.949   4.972
10848PP      PP20952   4.073   8.599   3.692
10849PP      PP20953   8.924   4.173   0.415
10850PP      PP20954  10.074   0.588  10.473
10851PP      PP20955   0.726  11.919   9.283
10852PP      PP20956   5.318   5.065   9.478
10853PP      PP20957   9.518   0.668  12.729
10854PP      PP20958   0.733   5.241  12.274
10855PP      PP20959  10.696  14.987   4.434
10856PP      PP20960  14.959   3.156   0.781
10857PP      PP20961  13.646   3.306   8.632
10858PP      PP20962   1.704  13.562  12.603
10859PP      PP20963   6.636   6.351  12.510
10860PP      PP20964   1.066  15.092   3.116
10861PP      PP20965   5.265   0.942  10.059
10862PP      PP20966   1.944  13.582   0.765
10863PP      PP20967  14.803   2.594   1.340
10864PP      PP20968  15.497   3.104   1.729
10865PP      PP20969  14.975  12.665   9.662
10866PP      PP20970  12.580   4.867  10.318
10867PP      PP20971  15.202   6.164  11.747
10868PP      PP20972   9.373   1.972  12.480
10869PP      PP20973   9.884  12.270  11.833
10870PP      PP20974   5.314  13.527  12.752
10871PP      PP20975  14.382  10.837   0.766
10872PP      PP20976  12.505  12.853  11.816
10873PP      PP20977  11.277  13.876   4.649
10874PP      PP20978   5.344   7.451  10.261
10875PP      PP20979  10.910  10.249   3.192
10876PP      PP20980   5.954   6.532   8.817
10877PP      PP20981   7.147  14.215   3.217
10878PP      PP20982  15.722   5.959  11.874
10879PP      PP20983  15.722  11.205   4.383
10880PP      PP20984   8.741   6.816  13.477
10881PP      PP20985  15.074   5.235   1.879
10882PP      PP20986   3.653   4.031   9.368
10883PP      PP20987   8.841  15.416   0.807
10884PP      PP20988   3.867   7.123   0.549
10885PP      PP20989   4.752  10.579  12.336
10886PP      PP20990   4.904   6.524  10.458
10887PP      PP20991  15.346   8.707  13.174
10888PP      PP20992  15.222  13.443  12.223
10889PP      PP20993   4.655   6.318  11.547
10890PP      PP20994  11.961   6.404  11.883
10891PP      PP20995  11.885  11.926  10.833
10892PP      PP20996   6.975  11.619   3.701
10893PP      PP20997   1.278  13.119  11.323
10894PP      PP20998  12.175   5.523   2.385
10895PP      PP20999  12.112   5.058  10.156
10896PP      PP21000   6.437  14.726   0.650
10897PP      PP21001   2.719   7.709  11.467
10898PP      PP21002  12.464   8.676   8.805
10899PP      PP21003  15.406  10.487  13.537
10900PP      PP21004   2.498   6.096   9.226
10901PP      PP21005   5.969   1.016   1.562
10902PP      PP21006   4.763  11.434   3.264
10903PP      PP21007   9.419   6.082   3.200
10904PP      PP21008  10.565   5.575  12.163
10905PP      PP21009  11.259  11.527   3.636
10906PP      PP21010   7.031  14.994   4.224
10907PP      PP21011   2.349  11.688  11.853
10908PP      PP21012   3.240  13.020  11.914
10909PP      PP21013   3.347   0.545  12.263
10910PP      PP21014  10.457   7.287   8.185
10911PP      PP21015   2.002   0.642   0.757
10912PP      PP21016   1.173   0.265   1.676
10913PP      PP21017   7.838   3.800   9.329
10914PP      PP21018   2.746   4.403   1.024
10915PP      PP21019   9.803   8.522   0.872
10916PP      PP21020  13.059   2.361  11.833
10917PP      PP21021   3.411  14.649   0.689
10918PP      PP21022   4.392  15.671   9.256
10919PP      PP21023   3.917   1.479   0.260
10920PP      PP21024  10.805  13.711   4.559
10921PP      PP21025  10.730  14.031   3.291
10922PP      PP21026   2.068   6.408  12.926
10923PP      PP21027  13.085   2.483   0.364
10924PP      PP21028   3.031   5.395   3.743
10925PP      PP21029  12.095   3.198   0.043
10926PP      PP21030  15.412   6.119   0.909
10927PP      PP21031  15.144   8.649   1.872
10928PP      PP21032  10.855   9.801  12.273
10929PP      PP21033   4.290   0.787   3.353
10930PP      PP21034  10.524  14.597   2.250
10931PP      PP21035   8.864   0.027   4.170
10932PP      PP21036   9.681   2.737  12.173
10933PP      PP21037   3.625   5.676   3.540
10934PP      PP21038   9.844  12.748  13.467
10935PP      PP21039   8.589   7.272  13.304
10936PP      PP21040   1.583   2.587   9.447
10937PP      PP21041   7.396   7.475   1.825
10938PP      PP21042   0.062   2.853   4.506
10939PP      PP21043   4.918   0.182  12.850
10940PP      PP21044   5.322  14.105   9.346
10941PP      PP21045   4.764   9.257  10.078
10942PP      PP21046   6.376   7.274   0.994
10943PP      PP21047  12.568   4.238   2.127
10944PP      PP21048   9.671  13.233  13.523
10945PP      PP21049  15.364  12.299   3.868
10946PP      PP21050  12.420  11.722   0.906
10947PP      PP21051   3.612  13.635  13.017
10948PP      PP21052  10.061   5.263   0.035
10949PP      PP21053  15.659  10.270   9.156
10950PP      PP21054   1.691  14.313   1.942
10951PP      PP21055  12.385  12.600   9.917
10952PP      PP21056  10.375  14.056  13.123
10953PP      PP21057  12.573  11.017   8.927
10954PP      PP21058   5.824   9.369   3.482
10955PP      PP21059  15.194   2.185   0.521
10956PP      PP21060   0.692   9.087  12.122
10957PP      PP21061   7.572   5.904   8.653
10958PP      PP21062   3.406  15.693   8.864
10959PP      PP21063   2.458   2.067  12.334
10960PP      PP21064  15.362   1.707   2.615
10961PP      PP21065   0.995  10.139   9.991
10962PP      PP21066   2.251  11.960   9.692
10963PP      PP21067   9.188   3.188   1.246
10964PP      PP21068   7.098   3.922   2.588
10965PP      PP21069   3.160   6.097  12.682
10966PP      PP21070   2.254   2.411  12.714
10967PP      PP21071   2.103  11.049   1.486
10968PP      PP21072   9.916   3.397   9.723
10969PP      PP21073   1.790  13.792   4.543
10970PP      PP21074   8.467   4.615  10.579
10971PP      PP21075   1.263  14.581   9.268
10972PP      PP21076   0.558  14.475  13.269
10973PP      PP21077   4.091   8.619  11.122
10974PP      PP21078   0.783  13.933  10.612
10975PP      PP21079   0.751   3.792   3.261
10976PP      PP21080  11.738   4.109   1.978
10977PP      PP21081  10.497   1.752  12.766
10978PP      PP21082  14.816   7.709   2.259
10979PP      PP21083  14.136   0.579   0.538
10980PP      PP21084   8.099   5.012   9.621
10981PP      PP21085   0.902   6.264  11.344
10982PP      PP21086   4.832   5.244  10.487
10983PP      PP21087   8.451   3.940   9.071
10984PP      PP21088   6.811   4.162   1.247
10985PP      PP21089  14.117  15.231   1.965
10986PP      PP21090   6.721  14.620  11.853
10987PP      PP21091  12.304   6.794  11.762
10988PP      PP21092   8.533  13.800  10.807
10989PP      PP21093   1.493   5.469  11.568
10990PP      PP21094   3.408  11.617  13.058
10991PP      PP21095  14.328   7.762  10.807
10992PP      PP21096   1.815  12.127  11.642
10993PP      PP21097  13.305   5.465  10.383
10994PP      PP21098   7.666  10.500  13.217
10995PP      PP21099   6.579   6.198   1.369
10996PP      PP21100  12.379   7.063   1.228
10997PP      PP21101  12.881   1.048   1.333
10998PP      PP21102  11.495   3.839   2.841
10999PP      PP21103   0.185  15.324   1.877
11000PP      PP21104  12.200   3.742   3.520
11001PP      PP21105   3.945   9.970   2.339
11002PP      PP21106   9.179  14.983  13.418
11003PP      PP21107   6.302  13.374   9.792
11004PP      PP21108   9.322   1.855   0.047
11005PP      PP21109   3.033  10.871   3.216
11006PP      PP21110  13.052  14.935  13.307
11007PP      PP21111   7.301   5.850   3.685
11008PP      PP21112  14.892   6.688   8.414
11009PP      PP21113  12.781   7.696   8.573
11010PP      PP21114  10.246   2.227  12.712
11011PP      PP21115  14.472   5.061  10.194
11012PP      PP21116  13.569   8.203  10.624
11013PP      PP21117   5.402  10.722  10.665
11014PP      PP21118   5.076   0.275   5.062
11015PP      PP21119   1.917   5.743   0.747
11016PP      PP21120   4.566  12.697  11.233
11017PP      PP21121   0.726   6.866   8.959
11018PP      PP21122   9.910   9.934  13.104
11019PP      PP21123   9.106   4.754  12.641
11020PP      PP21124  13.529   8.230  11.722
11021PP      PP21125   5.938   0.343   3.401
11022PP      PP21126   5.147   9.448   9.132
11023PP      PP21127  12.094  14.009   3.872
11024PP      PP21128   0.450  15.371   3.710
11025PP      PP21129   4.073  12.560   1.819
11026PP      PP21130   8.231   8.088   9.639
11027PP      PP21131   9.810   8.352  12.396
11028PP      PP21132  14.949   5.705   8.834
11029PP      PP21133   6.755  10.562  10.940
11030PP      PP21134   5.933  12.414   0.157
11031PP      PP21135  11.213   3.732   3.828
11032PP      PP21136  15.435  13.923   0.194
11033PP      PP21137   4.771   4.437   2.053
11034PP      PP21138   2.085   1.748  10.411
11035PP      PP21139   2.185  11.689  12.876
11036PP      PP21140  14.973   6.258   8.754
11037PP      PP21141   0.126  13.630   1.609
11038PP      PP21142   0.651   6.883   2.477
11039PP      PP21143  14.777  11.509   1.345
11040PP      PP21144  12.334  14.868  10.217
11041PP      PP21145   9.103   7.410  12.722
11042PP      PP21146   2.271   7.725  11.743
11043PP      PP21147   6.213   0.686   3.992
11044PP      PP21148   5.297  13.854  10.917
11045PP      PP21149  14.502   2.677   4.350
11046PP      PP21150   2.773   7.069   3.153
11047PP      PP21151   6.677   2.043  12.322
11048PP      PP21152   0.472   2.149  13.195
11049PP      PP21153  10.911  14.455  12.325
11050PP      PP21154   8.627   4.438   1.864
11051PP      PP21155   5.468   6.844   1.480
11052PP      PP21156  14.396   3.842   9.589
11053PP      PP21157   8.221  11.237  12.665
11054PP      PP21158  12.544   6.015   9.998
11055PP      PP21159   9.359   8.900  11.778
11056PP      PP21160   4.822  13.705   0.867
11057PP      PP21161  13.446   0.242   1.088
11058PP      PP21162  11.708   9.710  10.784
11059PP      PP21163  13.548   9.856  12.462
11060PP      PP21164   5.168   8.980   0.119
11061PP      PP21165  10.220   7.599  13.369
11062PP      PP21166   0.583  13.980   0.018
11063PP      PP21167  14.575   7.657   0.636
11064PP      PP21168   9.444  13.894   9.943
11065PP      PP21169  14.759   0.332  12.078
11066PP      PP21170  11.853   0.820   3.335
11067PP      PP21171  14.092   2.917  10.887
11068PP      PP21172  13.409   4.826   8.491
11069PP      PP21173  14.876   0.570   9.321
11070PP      PP21174   1.111   5.807  11.502
11071PP      PP21175   3.889   0.230   0.037
11072PP      PP21176   8.017  10.226  13.523
11073PP      PP21177   0.504   1.796  11.825
11074PP      PP21178  15.336  14.959  11.249
11075PP      PP21179  11.490   2.106   8.977
11076PP      PP21180   9.692  11.531  11.596
11077PP      PP21181   1.066  13.563  11.438
11078PP      PP21182  15.261   4.350   2.385
11079PP      PP21183   3.044   3.376   1.796
11080PP      PP21184   6.308   3.798  12.631
11081PP      PP21185  10.142   4.012   0.958
11082PP      PP21186   6.219   9.920  13.538
11083PP      PP21187  12.971  15.261   2.852
11084PP      PP21188   2.421   2.900   0.376
11085PP      PP21189  15.369  10.901   8.748
11086PP      PP21190   2.257  15.732  12.756
11087PP      PP21191   2.340   9.868  12.279
11088PP      PP21192   7.043  12.370  12.483
11089PP      PP21193  10.259  13.385   3.073
11090PP      PP21194  12.552   9.460   8.293
11091PP      PP21195  15.214   2.619  13.194
11092PP      PP21196   4.090   3.960  11.096
11093PP      PP21197  12.645  10.167   2.216
11094PP      PP21198  14.558   9.609   1.023
11095PP      PP21199   5.468  15.737   2.606
11096PP      PP21200  15.334   6.663   2.213
11097PP      PP21201   1.488   2.401   2.994
11098PP      PP21202  14.226  12.596   0.238
11099PP      PP21203  13.994   1.004   9.670
11100PP      PP21204   2.061  11.340   2.362
11101PP      PP21205  11.713  12.651   3.974
11102PP      PP21206   5.258   9.247   2.754
11103PP      PP21207   1.534   9.707   2.752
11104PP      PP21208   8.890   1.420   1.248
11105PP      PP21209  12.448   9.760  10.035
11106PP      PP21210  15.611   5.236   1.802
11107PP      PP21211   0.525   1.092   4.270
11108PP      PP21212  10.669   6.338   2.693
11109PP      PP21213   8.133   6.695   8.484
11110PP      PP21214   0.926   8.398  13.380
11111PP      PP21215   7.607   1.364   1.618
11112PP      PP21216   8.070  11.168  10.576
11113PP      PP21217   0.103   2.167   1.947
11114PP      PP21218   3.358  10.748  13.005
11115PP      PP21219   3.482   0.370  11.213
11116PP      PP21220   5.614  15.354   0.264
11117PP      PP21221  13.782  11.723  12.737
11118PP      PP21222  14.543   3.867   3.025
11119PP      PP21223   3.482   4.924  11.993
11120PP      PP21224   5.825   2.730  13.541
11121PP      PP21225   0.544   8.587   1.648
11122PP      PP21226  10.126  14.552   1.177
11123PP      PP21227   3.668  14.868  11.749
11124PP      PP21228   1.250  10.625   9.456
11125PP      PP21229  10.142   6.335   8.392
11126PP      PP21230   3.220   4.296  10.871
11127PP      PP21231  12.245   2.101   0.580
11128PP      PP21232  14.033   8.351   9.742
11129PP      PP21233   4.089   4.084   2.839
11130PP      PP21234  10.902   1.024   4.563
11131PP      PP21235  10.794   0.083   1.242
11132PP      PP21236  10.678   4.695  10.714
11133PP      PP21237   4.273  10.350   0.387
11134PP      PP21238  15.607   8.556   2.740
11135PP      PP21239   3.648   8.658   9.804
11136PP      PP21240  12.269   5.524  11.737
11137PP      PP21241   1.338   9.052   2.071
11138PP      PP21242   1.511   6.187   2.873
11139PP      PP21243   7.909  11.642   4.277
11140PP      PP21244   5.029   6.466  11.882
11141PP      PP21245   5.798   4.285   4.306
11142PP      PP21246   9.477   7.608   1.719
11143PP      PP21247  15.303   0.417  13.069
11144PP      PP21248   4.117   2.963  10.546
11145PP      PP21249  13.528   2.229  10.786
11146PP      PP21250   7.895   4.143   2.011
11147PP      PP21251   1.265  12.688   0.650
11148PP      PP21252  15.433  15.769   2.115
11149PP      PP21253   3.779   5.205   0.707
11150PP      PP21254   1.927  12.776  10.965
11151PP      PP21255   2.187  10.737   9.738
11152PP      PP21256   6.669   9.528   2.769
11153PP      PP21257  12.273  14.195  12.479
11154PP      PP21258   5.103  10.934  10.021
11155PP      PP21259   7.524   5.626   1.707
11156PP      PP21260   3.426  11.876   3.144
11157PP      PP21261  14.931   7.630   3.137
11158PP      PP21262  12.760   0.465  12.946
11159PP      PP21263   6.678  13.264  10.688
11160PP      PP21264  10.863   9.716  12.804
11161PP      PP21265   6.009   8.904   2.141
11162PP      PP21266  14.026  12.864   3.415
11163PP      PP21267  13.693   3.397  12.801
11164PP      PP21268   5.560   6.045  13.463
11165PP      PP21269  14.733   4.698   8.796
11166PP      PP21270   0.467   5.138  13.423
11167PP      PP21271  11.029   4.250   3.709
11168PP      PP21272  13.990  11.903   9.803
11169PP      PP21273   4.965  12.173   1.287
11170PP      PP21274   8.159   6.504   0.395
11171PP      PP21275   3.642   5.484   9.816
11172PP      PP21276   2.123  12.372   1.741
11173PP      PP21277   3.399   4.477   9.229
11174PP      PP21278   1.562   8.244  10.220
11175PP      PP21279  12.447   3.162   2.792
11176PP      PP21280  15.087   6.386   1.795
11177PP      PP21281   3.812   7.828   1.420
11178PP      PP21282   7.364   3.601  12.244
11179PP      PP21283   2.531   7.066  12.799
11180PP      PP21284   6.282   0.475  11.219
11181PP      PP21285   1.462   6.145   8.469
11182PP      PP21286   7.446   6.001  12.351
11183PP      PP21287  15.108   5.978   9.611
11184PP      PP21288  11.542  13.932  13.141
11185PP      PP21289   4.443   8.822   3.383
11186PP      PP21290   8.394   5.776  11.242
11187PP      PP21291  14.606   1.207   1.555
11188PP      PP21292   0.263  12.213  10.765
11189PP      PP21293   8.953  10.754   4.303
11190PP      PP21294   4.271  10.810   3.376
11191PP      PP21295   4.759  11.983   4.590
11192PP      PP21296  14.975   1.190   9.820
11193PP      PP21297   7.501   6.257  11.650
11194PP      PP21298   0.165  15.248   0.322
11195PP      PP21299   6.443   6.655   2.068
11196PP      PP21300   4.424  13.987   3.095
11197PP      PP21301  12.977   0.200   3.957
11198PP      PP21302   8.736  12.748   0.466
11199PP      PP21303   1.594  12.327  10.155
11200PP      PP21304   9.914   0.985   4.063
11201PP      PP21305  14.248   8.334   3.042
11202PP      PP21306  12.278   7.322  12.221
11203PP      PP21307   3.435   9.877  11.256
11204PP      PP21308  10.574  11.738  13.092
11205PP      PP21309   7.993  14.195   0.878
11206PP      PP21310  15.080   1.120   3.603
11207PP      PP21311   1.992   0.266  12.443
11208PP      PP21312  14.159   8.563   0.318
11209PP      PP21313  15.063  15.621   3.929
11210PP      PP21314   6.608  12.469   9.637
11211PP      PP21315   2.110   5.785  12.422
11212PP      PP21316   7.699   8.578   2.156
11213PP      PP21317  10.736   9.577  11.449
11214PP      PP21318   6.431  12.907   0.622
11215PP      PP21319   0.506   1.455   4.801
11216PP      PP21320   5.178  15.467  10.658
11217PP      PP21321  13.514   1.714   8.605
11218PP      PP21322   7.758  14.038   1.497
11219PP      PP21323   5.341   3.644  11.705
11220PP      PP21324  12.815   6.869  11.625
11221PP      PP21325   3.357  11.286   1.674
11222PP      PP21326   8.922   2.247  12.517
11223PP      PP21327   4.614   4.085   0.696
11224PP      PP21328  13.936  15.293   0.062
11225PP      PP21329   1.304  12.667   1.883
11226PP      PP21330   7.636   3.518  10.039
11227PP      PP21331   3.146   1.350   4.504
11228PP      PP21332  14.747  14.525   0.103
11229PP      PP21333   6.117   2.896  12.529
11230PP      PP21334   0.986   6.558  13.276
11231PP      PP21335   3.849   9.654  10.439
11232PP      PP21336   7.489   1.299   4.610
11233PP      PP21337  11.113   3.201  12.531
11234PP      PP21338   8.033  14.124   2.752
11235PP      PP21339  11.470  14.882   3.957
11236PP      PP21340   8.529   7.322   0.212
11237PP      PP21341  14.674  14.952   1.002
11238PP      PP21342   5.883   8.374   2.109
11239PP      PP21343  11.708   2.583   2.148
11240PP      PP21344   6.311   8.009   9.354
11241PP      PP21345  12.336   5.677   3.629
11242PP      PP21346   1.466   8.200   3.607
11243PP      PP21347   6.362   3.842  11.544
11244PP      PP21348   5.001   3.354   0.867
11245PP      PP21349   8.717  12.412   3.262
11246PP      PP21350   3.605   7.675  11.901
11247PP      PP21351  10.122   4.108   2.905
11248PP      PP21352   8.017   6.368   0.908
11249PP      PP21353   7.387  12.948  11.466
11250PP      PP21354  15.498  13.723   4.350
11251PP      PP21355  11.072  12.726   0.993
11252PP      PP21356   0.854   1.771   3.205
11253PP      PP21357   4.408   2.990   3.509
11254PP      PP21358   7.913   5.994   8.265
11255PP      PP21359  10.368  10.162   8.887
11256PP      PP21360   2.552   4.048   0.026
11257PP      PP21361   0.323  11.672   3.530
11258PP      PP21362  12.663  10.372  12.528
11259PP      PP21363   3.398   0.920   0.533
11260PP      PP21364   4.470  11.466   1.091
11261PP      PP21365  12.696   3.384   1.717
11262PP      PP21366  12.043  13.837   0.231
11263PP      PP21367   9.166   1.260   3.105
11264PP      PP21368   5.009   6.624   1.435
11265PP      PP21369  12.965   6.043  12.280
11266PP      PP21370   4.908   2.763   9.853
11267PP      PP21371   8.221   4.499   1.436
11268PP      PP21372   4.571   1.592   1.351
11269PP      PP21373   3.161   7.114   1.084
11270PP      PP21374   1.032  15.679   8.988
11271PP      PP21375  10.375   1.784   1.060
11272PP      PP21376   7.237  14.215   0.289
11273PP      PP21377   9.791  11.894   9.084
11274PP      PP21378   6.189   3.885  12.113
11275PP      PP21379   8.255   0.249   0.935
11276PP      PP21380   5.710   8.764   1.745
11277PP      PP21381   7.111   0.065   4.777
11278PP      PP21382   0.186   6.079   8.597
11279PP      PP21383   0.033   6.921  11.430
11280PP      PP21384  15.744   8.571   1.051
11281PP      PP21385   3.167   1.885  13.478
11282PP      PP21386  13.481   3.044  11.392
11283PP      PP21387  11.873   8.839  10.450
11284PP      PP21388  14.672  11.514  11.830
11285PP      PP21389  11.519   4.954  12.175
11286PP      PP21390   9.934   7.302   2.756
11287PP      PP21391  11.650  12.310  13.343
11288PP      PP21392   8.390  15.110  13.114
11289PP      PP21393   9.625  14.715  13.468
11290PP      PP21394   0.915   5.704  10.612
11291PP      PP21395  12.259   4.485   8.924
11292PP      PP21396   4.810  14.047   9.984
11293PP      PP21397  11.383  10.283   0.042
11294PP      PP21398   9.672  12.994   4.556
11295PP      PP21399  11.187   2.598   2.080
11296PP      PP21400  14.861   5.534   0.669
11297PP      PP21401   9.124  12.562   2.367
11298PP      PP21402   4.156   6.590  11.756
11299PP      PP21403   5.303  15.324  11.905
11300PP      PP21404  12.030  10.352  11.317
11301PP      PP21405   4.255   3.920   1.122
11302PP      PP21406   7.488   6.692   9.133
11303PP      PP21407   2.372   8.550  11.050
11304PP      PP21408  12.240   1.602  12.337
11305PP      PP21409   5.255  13.264   0.661
11306PP      PP21410   4.763  11.326   9.930
11307PP      PP21411   1.232  15.766   0.826
11308PP      PP21412   5.508   1.612   0.928
11309PP      PP21413  15.751   5.875  10.441
11310PP      PP21414  10.829   1.343  12.589
11311PP      PP21415  14.816   2.160  12.459
11312PP      PP21416  14.781  11.632  11.261
11313PP      PP21417   8.511   0.512  11.831
11314PP      PP21418   9.388  15.120  11.598
11315PP      PP21419   8.734   2.377   2.793
11316PP      PP21420  14.324   7.780   9.135
11317PP      PP21421   8.033   1.163   9.539
11318PP      PP21422   1.941  10.206   8.907
11319PP      PP21423   6.249   0.310   1.254
11320PP      PP21424  12.482   5.275   9.310
11321PP      PP21425  14.399   7.627   2.986
11322PP      PP21426  11.333   1.558  13.226
11323PP      PP21427  10.680   8.275  11.502
11324PP      PP21428  10.327   6.939  10.465
11325PP      PP21429   5.339   8.626   3.774
11326PP      PP21430   8.602   8.946   0.492
11327PP      PP21431   9.008  13.596   1.205
11328PP      PP21432  10.757   2.638   4.149
11329PP      PP21433   1.433  12.105   3.264
11330PP      PP21434  10.337   5.029   2.700
11331PP      PP21435   9.844  11.742  12.537
11332PP      PP21436  15.085  10.143  11.249
11333PP      PP21437   7.358  11.045   2.733
11334PP      PP21438   7.811   7.316  10.335
11335PP      PP21439  14.684   1.633   9.866
11336PP      PP21440  10.883  15.236  12.252
11337PP      PP21441   3.099   0.436  11.825
11338PP      PP21442   4.643  14.383  10.336
11339PP      PP21443  13.694   0.609   3.627
11340PP      PP21444   7.830   8.559  12.862
11341PP      PP21445   7.049  11.174   1.234
11342PP      PP21446  13.937   5.683   1.359
11343PP      PP21447  14.212   4.669   0.578
11344PP      PP21448  12.630  14.249  10.545
11345PP      PP21449  11.756   6.124   2.084
11346PP      PP21450  11.986  12.503   0.844
11347PP      PP21451   5.514  13.213  10.244
11348PP      PP21452  12.559   0.554   1.458
11349PP      PP21453  13.884   0.207   0.823
11350PP      PP21454  10.845   8.537   1.185
11351PP      PP21455   3.882  11.024   0.971
11352PP      PP21456   7.048   8.568   3.987
11353PP      PP21457   7.250  15.188  11.651
11354PP      PP21458   7.169  11.887  12.260
11355PP      PP21459   5.158   5.829   2.146
11356PP      PP21460  10.494   7.419  12.922
11357PP      PP21461  10.045   2.448   2.618
11358PP      PP21462   1.607   4.047  12.280
11359PP      PP21463   2.188   5.251  13.462
11360PP      PP21464   1.188  10.237   1.887
11361PP      PP21465   2.595   3.130   2.640
11362PP      PP21466   3.422  15.122   9.556
11363PP      PP21467  12.417   5.744  13.316
11364PP      PP21468  13.767  10.896   4.426
11365PP      PP21469   0.971  15.047   0.934
11366PP      PP21470  11.346  14.331   3.950
11367PP      PP21471  12.715   2.518   3.643
11368PP      PP21472  13.336  11.644   3.101
11369PP      PP21473   5.975   8.785  13.358
11370PP      PP21474   7.926  14.491   4.284
11371PP      PP21475   3.220  15.202  11.185
11372PP      PP21476   7.879  11.956   3.872
11373PP      PP21477  11.408  15.624  11.507
11374PP      PP21478   7.546   9.970   1.579
11375PP      PP21479   2.483   9.355   9.867
11376PP      PP21480  11.429   0.145   4.826
11377PP      PP21481  11.021   7.849  10.706
11378PP      PP21482   6.471   3.610  10.002
11379PP      PP21483   8.500   7.844  10.166
11380PP      PP21484  12.044   0.239  12.517
11381PP      PP21485  14.043   5.552   3.442
11382PP      PP21486   6.684  10.457   3.797
11383PP      PP21487  15.761  11.111   3.011
11384PP      PP21488   8.197  15.181   5.330
11385PP      PP21489   7.268   2.339   1.298
11386PP      PP21490  12.719   7.926   1.689
11387PP      PP21491  15.018   2.119   1.494
11388PP      PP21492   9.513  13.182  12.303
11389PP      PP21493  14.370   1.664   3.316
11390PP      PP21494   3.230   7.889   3.544
11391PP      PP21495   1.820   0.376  10.738
11392PP      PP21496  13.026   2.226   2.691
11393PP      PP21497   5.209  15.141   1.807
11394PP      PP21498  14.102   0.389   9.069
11395PP      PP21499  11.953   2.320   4.155
11396PP      PP21500   0.954   3.160  10.450
11397PP      PP21501  10.542   2.457   9.705
11398PP      PP21502   5.251   3.313  12.123
11399PP      PP21503   0.170   6.542   3.541
11400PP      PP21504  10.640   0.517  13.557
11401PP      PP21505  14.546   8.310   9.249
11402PP      PP21506   0.796   0.865   3.901
11403PP      PP21507   4.499  10.127  12.442
11404PP      PP21508   8.123   7.220   1.139
11405PP      PP21509  12.527  10.235   1.127
11406PP      PP21510   7.554  13.192   2.594
11407PP      PP21511   7.685   6.197   3.660
11408PP      PP21512   3.886  13.963  13.307
11409PP      PP21513   9.671  13.006  13.026
11410PP      PP21514   5.345  10.501   2.158
11411PP      PP21515   2.911   4.788   2.415
11412PP      PP21516  12.536  13.740  11.856
11413PP      PP21517   6.333   8.389  11.494
11414PP      PP21518  10.360   7.732   8.438
11415PP      PP21519   5.836  10.931   3.383
11416PP      PP21520   6.861   3.938   8.753
11417PP      PP21521   0.078   0.294   2.172
11418PP      PP21522  15.193  12.053  12.429
11419PP      PP21523  12.053  13.343   0.427
11420PP      PP21524   3.803   4.637  12.853
11421PP      PP21525   1.393   2.737  11.861
11422PP      PP21526  10.333  13.564   4.413
11423PP      PP21527   0.961   3.347  12.404
11424PP      PP21528   7.955   8.506   2.657
11425PP      PP21529  15.679  12.119  10.419
11426PP      PP21530   3.978   2.840  12.759
11427PP      PP21531   2.439   0.737   3.362
11428PP      PP21532   7.645   4.141   0.974
11429PP      PP21533   0.227  11.986   9.242
11430PP      PP21534   7.181  10.262   3.856
11431PP      PP21535   9.332   1.688  10.986
11432PP      PP21536  12.668   3.257   0.860
11433PP      PP21537   1.062   7.950   3.372
11434PP      PP21538   1.853   0.427  11.971
11435PP      PP21539  15.316   9.429  10.032
11436PP      PP21540   9.394   2.179  10.075
11437PP      PP21541   1.421  11.364   0.866
11438PP      PP21542  14.605  10.409   9.325
11439PP      PP21543  11.304  12.944   5.045
11440PP      PP21544  10.589  14.355  11.677
11441PP      PP21545   8.918  11.129   3.084
11442PP      PP21546   6.579   0.161   4.866
11443PP      PP21547   1.125   5.984  12.397
11444PP      PP21548  14.570   8.301   0.611
11445PP      PP21549   5.268  14.160   2.778
11446PP      PP21550  13.333  13.758  10.400
11447PP      PP21551   3.071  13.470  11.644
11448PP      PP21552   4.020   1.728  10.844
11449PP      PP21553  10.024   6.636  10.149
11450PP      PP21554   9.367  13.742   3.208
11451PP      PP21555  14.791  13.257   2.786
11452PP      PP21556  15.153  14.943   1.284
11453PP      PP21557   5.535   7.826   2.420
11454PP      PP21558  15.828   4.645  12.764
11455PP      PP21559  11.613   2.082   9.483
11456PP      PP21560  11.292   1.969  11.349
11457PP      PP21561   2.243   4.329  11.315
11458PP      PP21562  11.329  10.038   3.429
11459PP      PP21563   0.053   6.983  13.286
11460PP      PP21564   1.440   7.077  12.929
11461PP      PP21565  13.777  14.620  10.262
11462PP      PP21566   1.135   0.420  13.303
11463PP      PP21567  11.851  10.787   1.228
11464PP      PP21568  14.282  12.143  10.185
11465PP      PP21569   8.735   4.150   3.502
11466PP      PP21570   0.416   5.984  11.958
11467PP      PP21571  10.832   4.514   1.939
11468PP      PP21572   9.278   4.063   8.951
11469PP      PP21573   9.737   0.172  12.797
11470PP      PP21574   1.840   8.968  13.375
11471PP      PP21575   2.691  10.527   3.032
11472PP      PP21576   8.521  11.174  10.253
11473PP      PP21577  14.894   4.610   0.875
11474PP      PP21578   5.502   2.160  12.650
11475PP      PP21579  12.226   7.083  10.624
11476PP      PP21580   8.010   2.102   3.205
11477PP      PP21581  10.844   9.285  10.932
11478PP      PP21582   3.531  10.132   1.471
11479PP      PP21583   1.086   4.752   8.435
11480PP      PP21584  14.562   2.707  10.114
11481PP      PP21585   4.646  13.102   2.525
11482PP      PP21586   3.061   9.216   1.666
11483PP      PP21587  13.077  13.734   0.472
11484PP      PP21588  13.158   6.409  13.463
11485PP      PP21589  12.022  10.284  13.047
11486PP      PP21590   3.676   2.820  12.350
11487PP      PP21591   0.022   8.260   0.116
11488PP      PP21592  13.125   4.604  13.056
11489PP      PP21593  11.708  14.487   1.769
11490PP      PP21594   9.454  14.728  12.658
11491PP      PP21595  14.992  11.114  11.228
11492PP      PP21596   8.312   4.166   8.598
11493PP      PP21597  13.868   2.287  12.677
11494PP      PP21598   0.967   7.553   0.873
11495PP      PP21599   2.336  11.569   9.262
11496PP      PP21600  13.808   4.905   0.293
11497PP      PP21601   9.672   7.273   9.831
11498PP      PP21602  13.995   0.263   3.956
11499PP      PP21603   5.599   1.330   1.363
11500PP      PP21604  14.593   0.463  12.951
11501PP      PP21605   8.064  14.244  12.952
11502PP      PP21606   3.688  13.724  12.387
11503PP      PP21607  10.510  12.545  13.042
11504PP      PP21608   5.694   6.864   9.136
11505PP      PP21609  13.986   6.667  12.437
11506PP      PP21610  14.598   7.522  13.604
11507PP      PP21611   1.969  11.004  10.128
11508PP      PP21612   3.847   8.269  12.285
11509PP      PP21613  10.357  13.643  13.461
11510PP      PP21614  10.929  11.397   0.868
11511PP      PP21615  13.436   2.720   8.487
11512PP      PP21616   1.457  14.775   2.965
11513PP      PP21617   3.148  15.389   9.199
11514PP      PP21618   7.831  14.768   2.044
11515PP      PP21619   4.698  14.009   1.282
11516PP      PP21620   0.360   7.313  11.584
11517PP      PP21621   7.797   7.294  11.149
11518PP      PP21622  15.703   6.371   8.933
11519PP      PP21623  13.167   5.050   3.793
11520PP      PP21624  13.628   3.125  10.604
11521PP      PP21625   3.049  11.283   0.680
11522PP      PP21626   3.820   4.321   3.256
11523PP      PP21627  13.975   8.491  12.941
11524PP      PP21628  14.372   0.390   2.141
11525PP      PP21629  11.507  14.761  10.799
11526PP      PP21630   2.980  12.524   8.733
11527PP      PP21631   5.149   2.757  13.352
11528PP      PP21632   8.182   4.906   4.589
11529PP      PP21633   5.450  10.234  13.029
11530PP      PP21634   3.938  11.013  10.541
11531PP      PP21635   2.589  10.363   1.927
11532PP      PP21636  15.133  12.813   0.803
11533PP      PP21637  15.021   4.838  11.077
11534PP      PP21638   2.170   0.748  12.582
11535PP      PP21639  15.301   9.887   2.900
11536PP      PP21640  13.215  10.935   9.921
11537PP      PP21641  12.265   3.650   1.476
11538PP      PP21642   5.445  11.971  10.809
11539PP      PP21643   9.391   8.215  12.708
11540PP      PP21644  15.219  13.347  10.286
11541PP      PP21645   3.731  10.973   1.536
11542PP      PP21646   0.748  15.540  10.343
11543PP      PP21647   6.820   6.557   0.127
11544PP      PP21648   3.589  15.393   2.318
11545PP      PP21649  12.926   3.996  10.378
11546PP      PP21650  10.434   3.613  13.152
11547PP      PP21651   2.040   4.538   1.078
11548PP      PP21652  15.327   7.790   9.367
11549PP      PP21653  10.164  10.782   2.246
11550PP      PP21654   7.974   0.844  13.167
11551PP      PP21655   0.318   1.144   9.184
11552PP      PP21656   3.961   7.166   3.342
11553PP      PP21657   6.077   1.394   4.351
11554PP      PP21658   1.416   7.297   1.325
11555PP      PP21659  14.160   0.721   3.464
11556PP      PP21660   0.392   6.490  11.066
11557PP      PP21661   5.727  11.645  13.154
11558PP      PP21662   8.534   7.432   2.113
11559PP      PP21663   5.433   4.948   1.651
11560PP      PP21664   5.049  10.894   2.023
11561PP      PP21665   6.862   1.063   3.198
11562PP      PP21666  15.610   6.866   3.244
11563PP      PP21667  11.754   9.744   2.152
11564PP      PP21668  13.681   9.628  13.322
11565PP      PP21669   8.231  13.813  12.727
11566PP      PP21670   3.680  10.594   1.222
11567PP      PP21671   3.590  15.012   1.909
11568PP      PP21672  14.235   2.027   0.171
11569PP      PP21673   2.203  13.580   3.938
11570PP      PP21674   9.271   1.002   4.568
11571PP      PP21675   6.181   1.072  13.426
11572PP      PP21676   9.715   2.970   9.533
11573PP      PP21677  14.814  15.319   0.393
11574PP      PP21678  12.243  15.620  12.316
11575PP      PP21679  14.879  13.123   3.924
11576PP      PP21680   1.552   5.796   2.525
11577PP      PP21681  10.770  11.142   1.294
11578PP      PP21682   0.302   8.084   8.563
11579PP      PP21683   6.553   3.865   3.010
11580PP      PP21684   6.290   9.511   0.263
11581PP      PP21685  14.519   7.983   2.621
11582PP      PP21686   2.155  13.379   4.480
11583PP      PP21687   9.206   9.060  13.253
11584PP      PP21688   3.752  12.751  13.440
11585PP      PP21689   6.177   9.634   9.671
11586PP      PP21690   8.277   9.667  11.644
11587PP      PP21691   1.511   0.536  12.388
11588PP      PP21692   5.362   5.646   3.075
11589PP      PP21693   6.294   7.607  10.186
11590PP      PP21694   0.961   6.244   1.969
11591PP      PP21695  14.506   5.331   9.570
11592PP      PP21696   7.049   0.929   4.633
11593PP      PP21697  15.542  13.718   3.786
11594PP      PP21698  13.175  12.549  12.564
11595PP      PP21699   3.795   6.666  12.198
11596PP      PP21700   0.696  11.645   3.016
11597PP      PP21701  10.966  15.099   3.394
11598PP      PP21702   9.749  10.751   3.556
11599PP      PP21703   7.276  13.632  12.862
11600PP      PP21704  10.896   2.720  11.117
11601PP      PP21705  14.715   2.398   1.857
11602PP      PP21706   7.422   2.889  12.560
11603PP      PP21707   0.616  13.300   9.731
11604PP      PP21708   3.333  10.366  11.016
11605PP      PP21709   8.943   8.107  13.499
11606PP      PP21710   3.469  10.579  10.569
11607PP      PP21711   0.816   7.047   3.086
11608PP      PP21712   1.271  15.717  11.332
11609PP      PP21713   0.169   7.562  10.192
11610PP      PP21714   5.937   0.582  12.117
11611PP      PP21715  13.835   0.411   3.166
11612PP      PP21716  10.487   8.892  11.780
11613PP      PP21717   0.241   0.673   9.561
11614PP      PP21718   4.691  10.971  12.682
11615PP      PP21719   6.037   4.323   1.794
11616PP      PP21720  11.068   0.652  12.741
11617PP      PP21721   4.892  15.546   9.270
11618PP      PP21722   0.974  10.370   2.840
11619PP      PP21723  11.205  14.100  13.533
11620PP      PP21724   4.053  12.709  10.911
11621PP      PP21725   0.510   9.780  12.555
11622PP      PP21726   3.525   5.614   2.573
11623PP      PP21727  14.747  15.752  11.673
11624PP      PP21728   8.834   1.167   1.767
11625PP      PP21729   5.434   3.572   0.443
11626PP      PP21730  11.790   4.812   1.876
11627PP      PP21731   7.964  12.936  12.258
11628PP      PP21732   4.565  12.765  11.744
11629PP      PP21733  14.120   7.286   9.864
11630PP      PP21734   3.103  14.220   3.113
11631PP      PP21735   7.073   1.568  11.574
11632PP      PP21736   1.815   8.077  13.006
11633PP      PP21737  14.540   2.769  10.626
11634PP      PP21738   3.768   2.013  11.231
11635PP      PP21739  15.713   0.764  12.959
11636PP      PP21740   6.834   8.895   3.639
11637PP      PP21741   5.305   2.093   4.361
11638PP      PP21742   3.843   4.706  12.317
11639PP      PP21743  11.384  11.229  10.513
11640PP      PP21744  14.669  10.177  13.041
11641PP      PP21745  11.335   2.606   8.984
11642PP      PP21746   7.061   6.397   1.512
11643PP      PP21747  14.371   9.788   3.482
11644PP      PP21748  11.819  11.753  11.311
11645PP      PP21749  13.662   3.818  10.914
11646PP      PP21750   5.994   7.506  11.922
11647PP      PP21751  11.915   7.391  10.926
11648PP      PP21752   1.134   8.991  12.551
11649PP      PP21753   5.945   8.111   2.645
11650PP      PP21754  11.232   3.148   2.000
11651PP      PP21755   2.108  13.174  10.683
11652PP      PP21756   3.783  11.532   1.837
11653PP      PP21757   7.683  12.011   4.620
11654PP      PP21758  15.766  13.982   2.441
11655PP      PP21759   0.354   9.923   1.633
11656PP      PP21760   5.387  15.175  11.379
11657PP      PP21761   2.777   4.430  12.269
11658PP      PP21762   9.201   1.301  11.350
11659PP      PP21763   1.275   6.776   1.233
11660PP      PP21764   4.181  11.276  11.810
11661PP      PP21765  10.979  11.681   2.535
11662PP      PP21766   9.232   4.244  12.598
11663PP      PP21767  10.330   0.881   1.277
11664PP      PP21768  15.378   1.676  11.438
11665PP      PP21769   9.259   1.703   5.110
11666PP      PP21770  15.639   2.896   3.032
11667PP      PP21771   1.827  15.369  10.457
11668PP      PP21772   1.283   1.064   3.297
11669PP      PP21773   2.180  15.802   1.077
11670PP      PP21774   8.507   8.647  11.790
11671PP      PP21775   2.367  14.953   5.241
11672PP      PP21776   6.180   2.602   2.695
11673PP      PP21777   5.380  12.463  12.063
11674PP      PP21778  13.165   6.537   1.427
11675PP      PP21779   5.449   4.664  13.539
11676PP      PP21780   4.461   1.930   3.149
11677PP      PP21781   5.246   1.738  11.451
11678PP      PP21782  15.180   0.307  12.487
11679PP      PP21783   0.716   1.866  12.318
11680PP      PP21784   5.315  13.560   3.773
11681PP      PP21785   4.404   6.614  10.538
11682PP      PP21786  15.326   3.648  12.592
11683PP      PP21787   8.153   6.469   3.760
11684PP      PP21788   5.429   0.160   3.571
11685PP      PP21789   4.700   7.728  12.052
11686PP      PP21790   2.641  10.769   0.021
11687PP      PP21791   9.406   7.424   2.805
11688PP      PP21792  10.603  13.671  12.855
11689PP      PP21793  13.650  11.316   1.395
11690PP      PP21794   6.427   0.592   3.191
11691PP      PP21795   6.401  12.482   1.048
11692PP      PP21796  15.656   1.151  11.604
11693PP      PP21797  13.151   2.696   2.846
11694PP      PP21798   0.569  13.639  11.581
11695PP      PP21799  11.617  13.662  10.736
11696PP      PP21800   7.933   8.045  12.711
11697PP      PP21801   9.793   3.896  10.603
11698PP      PP21802  10.032   0.047  11.416
11699PP      PP21803   8.877  14.367   0.825
11700PP      PP21804   7.697   2.902   4.846
11701PP      PP21805   6.891   6.780  12.440
11702PP      PP21806   1.455  12.416   9.611
11703PP      PP21807   0.163   6.418  12.092
11704PP      PP21808   0.805  11.981  10.052
11705PP      PP21809   1.850   5.106   4.245
11706PP      PP21810  11.090  15.391  10.114
11707PP      PP21811  11.482   1.575   3.136
11708PP      PP21812  14.142   4.074   1.171
11709PP      PP21813  14.576   9.717   1.536
11710PP      PP21814   0.788  14.497   0.141
11711PP      PP21815   7.563   0.888  11.886
11712PP      PP21816  15.136   0.416   9.774
11713PP      PP21817  11.769   3.957  11.788
11714PP      PP21818   3.869  12.981  11.826
11715PP      PP21819  12.169   6.368  13.587
11716PP      PP21820   5.733  13.698   0.120
11717PP      PP21821   6.797   5.193   9.506
11718PP      PP21822  15.089   2.329   0.027
11719PP      PP21823   8.735   8.549   8.793
11720PP      PP21824  12.750   3.607   1.240
11721PP      PP21825  11.442  12.703   2.305
11722PP      PP21826   3.644   9.015  12.741
11723PP      PP21827   0.265   9.098   9.744
11724PP      PP21828   3.780   6.621   0.504
11725PP      PP21829   8.672   2.227  13.101
11726PP      PP21830  12.984   1.486   1.583
11727PP      PP21831  15.707  15.365  12.990
11728PP      PP21832   9.847  11.405   9.246
11729PP      PP21833   6.839   0.412   4.494
11730PP      PP21834   9.733   8.208  11.840
11731PP      PP21835   3.238  12.104  12.268
11732PP      PP21836   6.565  14.346  10.113
11733PP      PP21837   1.778   6.075  10.903
11734PP      PP21838   5.802   2.125   9.714
11735PP      PP21839   9.232  14.729   3.260
11736PP      PP21840  10.543   3.622   0.904
11737PP      PP21841   1.429   4.433   2.190
11738PP      PP21842  12.845   2.623  13.528
11739PP      PP21843  14.622   0.930   1.098
11740PP      PP21844   2.901  10.611  11.190
11741PP      PP21845   2.989   3.937   3.049
11742PP      PP21846  10.112   3.556   1.249
11743PP      PP21847   0.441   3.024  13.522
11744PP      PP21848   8.690   3.730  11.699
11745PP      PP21849  15.011   8.084  12.094
11746PP      PP21850  12.849  10.877   2.030
11747PP      PP21851  12.818  10.492   3.062
11748PP      PP21852  10.850   0.964   2.586
11749PP      PP21853   9.581   3.231  10.488
11750PP      PP21854  14.729   4.373   2.310
11751PP      PP21855   3.595  12.936  12.288
11752PP      PP21856   4.645  12.931   9.997
11753PP      PP21857   0.676   4.547  10.117
11754PP      PP21858   5.246   8.659   9.546
11755PP      PP21859  12.530   2.515  13.101
11756PP      PP21860  14.111  13.080  12.754
11757PP      PP21861  11.789   3.456   3.615
11758PP      PP21862   0.114   8.807   1.477
11759PP      PP21863   4.522   9.305   0.998
11760PP      PP21864   4.603   6.860  10.109
11761PP      PP21865   8.909   9.266   9.303
11762PP      PP21866   4.168  15.066  11.787
11763PP      PP21867   5.973  11.518  13.595
11764PP      PP21868   8.628  13.689  10.290
11765PP      PP21869  12.341  10.660   1.411
11766PP      PP21870   0.125  12.060   4.444
11767PP      PP21871   1.894  13.892   1.616
11768PP      PP21872   9.251   3.796   2.986
11769PP      PP21873   7.587  15.422  11.326
11770PP      PP21874  13.371   3.593   2.405
11771PP      PP21875  14.266   5.772  13.036
11772PP      PP21876   3.552   2.844   3.597
11773PP      PP21877   9.126  13.205   1.544
11774PP      PP21878   6.265   9.407  12.151
11775PP      PP21879  10.083  11.010   1.793
11776PP      PP21880  13.403  13.779   9.889
11777PP      PP21881   1.735   0.864  10.636
11778PP      PP21882   3.314   7.568   1.345
11779PP      PP21883  11.820   6.475   0.878
11780PP      PP21884  13.328   3.947   1.893
11781PP      PP21885   2.469   0.380   1.190
11782PP      PP21886  11.290  13.107   1.366
11783PP      PP21887   6.091   0.033  11.508
11784PP      PP21888   6.034  14.064   1.967
11785PP      PP21889   0.597  14.773  10.336
11786PP      PP21890  12.151  14.408   4.204
11787PP      PP21891  13.744   0.069   3.556
11788PP      PP21892   6.208  11.588   9.561
11789PP      PP21893  15.792   6.450   2.998
11790PP      PP21894   5.969  12.568   1.357
11791PP      PP21895   9.884  15.524  10.415
11792PP      PP21896   3.002  15.009  10.310
11793PP      PP21897   4.014  13.683   2.778
11794PP      PP21898   1.733  12.254   9.206
11795PP      PP21899  11.607  14.304  11.942
11796PP      PP21900  12.869  14.587  11.489
11797PP      PP21901   3.406   3.306   9.957
11798PP      PP21902  14.543   2.754  11.738
11799PP      PP21903  15.611   0.830  11.171
11800PP      PP21904   5.526   1.424   9.931
11801PP      PP21905  15.275  14.610   2.960
11802PP      PP21906   2.857   0.328   9.199
11803PP      PP21907  11.225  10.451   3.748
11804PP      PP21908  13.359   2.197  12.610
11805PP      PP21909   0.724   4.318   0.401
11806PP      PP21910  10.489   9.735   2.122
11807PP      PP21911   2.070   8.626   2.062
11808PP      PP21912  11.198  14.222   9.788
11809PP      PP21913  15.329   5.492  10.263
11810PP      PP21914   3.218   7.912  12.152
11811PP      PP21915   1.735  14.468   0.997
11812PP      PP21916  11.568   7.073  10.549
11813PP      PP21917  14.177  13.044   1.020
11814PP      PP21918   3.583  12.094   9.110
11815PP      PP21919  13.345   0.618   0.141
11816PP      PP21920   3.487   6.353  10.924
11817PP      PP21921   6.922   1.818  11.110
11818PP      PP21922   7.137   2.626  12.223
11819PP      PP21923  13.186  12.045   2.656
11820PP      PP21924   8.002   7.810  10.337
11821PP      PP21925   9.243  10.249  12.791
11822PP      PP21926  12.845   1.794   2.946
11823PP      PP21927  12.359   2.569   8.885
11824PP      PP21928  10.206   3.432   4.319
11825PP      PP21929  10.580   6.219  10.926
11826PP      PP21930   0.643  13.672   9.353
11827PP      PP21931   2.449   1.691  11.339
11828PP      PP21932   3.277   6.255  11.662
11829PP      PP21933   0.800  10.864   0.782
11830PP      PP21934  10.567  11.535   4.064
11831PP      PP21935   6.130  15.237  12.318
11832PP      PP21936  12.749  14.395   1.030
11833PP      PP21937  14.511  15.237   2.322
11834PP      PP21938   1.590   7.849   3.172
11835PP      PP21939   9.262   3.092   9.199
11836PP      PP21940   2.724   9.724   3.151
11837PP      PP21941   2.251  12.961   9.844
11838PP      PP21942   2.412  14.290  10.332
11839PP      PP21943   3.514   3.385   0.858
11840PP      PP21944   0.282   5.437   4.092
11841PP      PP21945   7.910  14.491   1.287
11842PP      PP21946  10.334   9.002  10.882
11843PP      PP21947   3.335   0.861   4.552
11844PP      PP21948   8.331   5.176   2.698
11845PP      PP21949  15.016  11.523   1.980
11846PP      PP21950   7.910   9.112   3.422
11847PP      PP21951  11.623   7.329   9.131
11848PP      PP21952   1.134   3.241  11.892
11849PP      PP21953  10.026   5.730  12.732
11850PP      PP21954   1.761  10.076   1.319
11851PP      PP21955   7.521  10.498   1.632
11852PP      PP21956  11.869  10.193  10.827
11853PP      PP21957   6.584   0.915  11.182
11854PP      PP21958   2.732   7.450   9.451
11855PP      PP21959  15.087  15.023   1.821
11856PP      PP21960   7.994  11.288  11.490
11857PP      PP21961   5.498   7.648   8.883
11858PP      PP21962  11.354   9.699   8.652
11859PP      PP21963   4.962   6.447  12.417
11860PP      PP21964   9.258   5.804   0.693
11861PP      PP21965   8.125   5.655  13.128
11862PP      PP21966  10.169  10.859  10.504
11863PP      PP21967  13.929   8.719  10.557
11864PP      PP21968   4.683  13.395   1.270
11865PP      PP21969   5.394   0.545  10.343
11866PP      PP21970  12.936   5.640  10.705
11867PP      PP21971  14.990  13.796  11.915
11868PP      PP21972   5.902   0.241  10.045
11869PP      PP21973   2.722  12.040   9.431
11870PP      PP21974   1.198  11.830  13.027
11871PP      PP21975   9.991   6.163   2.007
11872PP      PP21976  12.434  11.834  12.058
11873PP      PP21977   1.441  12.998  10.164
11874PP      PP21978  10.692   0.557   1.036
11875PP      PP21979   3.137  13.666  13.225
11876PP      PP21980   3.617   3.738  11.076
11877PP      PP21981  10.139  15.043  12.973
11878PP      PP21982   8.890  11.614   4.558
11879PP      PP21983  10.083   1.096   4.804
11880PP      PP21984  11.907  10.077   8.765
11881PP      PP21985  10.057   6.378  11.636
11882PP      PP21986   2.328   6.861   0.029
11883PP      PP21987   6.625   9.908   9.718
11884PP      PP21988   9.507  11.443   2.973
11885PP      PP21989   4.072  12.125   8.921
11886PP      PP21990   7.833   8.340  13.324
11887PP      PP21991   4.897   9.787  12.492
11888PP      PP21992   5.063  14.278  10.731
11889PP      PP21993  11.662   3.456   2.497
11890PP      PP21994   0.501  15.478   4.243
11891PP      PP21995   0.477   3.651  10.360
11892PP      PP21996  15.203  13.015  13.434
11893PP      PP21997   1.739  10.036  10.689
11894PP      PP21998  15.533   3.992  12.253
11895PP      PP21999   0.478   2.097   2.430
11896PP      PP22000   5.447   5.315   2.684
11897PP      PP22001  11.621   5.708  10.783
11898PP      PP22002   1.560   7.724   8.262
11899PP      PP22003  13.236   6.415  11.521
11900PP      PP22004  11.225   6.916  11.548
11901PP      PP22005   1.426  10.464   8.985
11902PP      PP22006  15.119  10.221  12.730
11903PP      PP22007   5.718  13.083  12.593
11904PP      PP22008  14.358   6.977   2.566
11905PP      PP22009   1.384   5.319   2.659
11906PP      PP22010   6.529  12.072   3.069
11907PP      PP22011   8.962   7.647   1.873
11908PP      PP22012   4.919   4.888   9.178
11909PP      PP22013  11.003  11.833   3.972
11910PP      PP22014  13.610   5.814  10.161
11911PP      PP22015   9.498  15.791  11.497
11912PP      PP22016   6.422  13.627  10.971
11913PP      PP22017   3.215   9.343  12.774
11914PP      PP22018   6.389   5.360   8.594
11915PP      PP22019   6.249  14.677  10.394
11916PP      PP22020   3.752   3.248  10.809
11917PP      PP22021  12.385  13.903  10.847
11918PP      PP22022   5.380  14.494   2.416
11919PP      PP22023   5.275   1.382  10.863
11920PP      PP22024   0.436  13.526  13.303
11921PP      PP22025  14.114   9.283   8.376
11922PP      PP22026  12.903   7.681  10.943
11923PP      PP22027   2.925   3.643   3.500
11924PP      PP22028   3.906   2.066   2.628
11925PP      PP22029  10.890  13.065   2.252
11926PP      PP22030   8.659  11.741   0.471
11927PP      PP22031   3.116   2.354   1.971
11928PP      PP22032   0.305   3.318   0.566
11929PP      PP22033  13.724  11.922  12.262
11930PP      PP22034  13.700   5.935   0.137
11931PP      PP22035  10.165   5.226  12.273
11932PP      PP22036   6.455   2.802   1.666
11933PP      PP22037   3.171   3.361  11.678
11934PP      PP22038  14.521   5.167   8.738
11935PP      PP22039  15.164   9.351   2.829
11936PP      PP22040  13.159   3.186   8.737
11937PP      PP22041  12.561   1.731  12.901
11938PP      PP22042   4.092  11.834   8.153
11939PP      PP22043  11.716  13.809   2.952
11940PP      PP22044   6.692  14.581   1.103
11941PP      PP22045   0.343   4.927  12.467
11942PP      PP22046   9.304   4.011   1.238
11943PP      PP22047  13.180   2.491   0.944
11944PP      PP22048  12.836   5.368  11.130
11945PP      PP22049   4.351   3.571   9.759
11946PP      PP22050   4.030   1.882   5.046
11947PP      PP22051   7.183   9.749  13.223
11948PP      PP22052   1.513   5.758  13.445
11949PP      PP22053  14.533   2.777  11.127
11950PP      PP22054   0.120   0.243   9.923
11951PP      PP22055   8.184   3.269   0.769
11952PP      PP22056   1.988   2.555   9.792
11953PP      PP22057   2.167  13.164   1.548
11954PP      PP22058  14.691   8.987  11.639
11955PP      PP22059  14.284  12.990   1.518
11956PP      PP22060   9.910  15.373  11.482
11957PP      PP22061   2.134  11.196  13.117
11958PP      PP22062   9.368   2.680  11.721
11959PP      PP22063   8.410  13.508   4.779
11960PP      PP22064   2.003   6.261   0.621
11961PP      PP22065  12.115  13.994   3.279
11962PP      PP22066   3.956  15.003   1.520
11963PP      PP22067  13.155   8.545  11.481
11964PP      PP22068   8.876   4.592  12.197
11965PP      PP22069  13.635   5.034   8.933
11966PP      PP22070  13.566   8.278  13.234
11967PP      PP22071  12.519   8.092  12.368
11968PP      PP22072  15.422   6.428   9.698
11969PP      PP22073   4.549   4.479  11.710
11970PP      PP22074   6.109   3.888  10.255
11971PP      PP22075  12.084   5.695  11.260
11972PP      PP22076  12.252   9.297   1.369
11973PP      PP22077   4.635  11.552   8.898
11974PP      PP22078  13.046   1.500   4.295
11975PP      PP22079  11.386   3.551   9.543
11976PP      PP22080   7.732   9.353   8.930
11977PP      PP22081  11.718   0.554   2.083
11978PP      PP22082  11.669   8.798  12.416
11979PP      PP22083  11.246   8.741  13.123
11980PP      PP22084   6.788  10.653   0.212
11981PP      PP22085   1.568  11.293  12.210
11982PP      PP22086   2.071   5.685   2.660
11983PP      PP22087  11.057  10.783   4.098
11984PP      PP22088   8.682   1.661  12.353
11985PP      PP22089   1.256  11.214   3.662
11986PP      PP22090   9.820  14.850   3.974
11987PP      PP22091  14.443   5.789  12.479
11988PP      PP22092   3.709  15.819   3.661
11989PP      PP22093   5.142  15.114   0.783
11990PP      PP22094  10.955  15.336   2.836
11991PP      PP22095   3.150  12.048   3.590
11992PP      PP22096   6.249   9.148   0.643
11993PP      PP22097   8.385   6.508  12.953
11994PP      PP22098  11.582  11.274   3.325
11995PP      PP22099   2.217  12.069   2.771
11996PP      PP22100  11.858   3.972   3.208
11997PP      PP22101   3.135   6.641   3.191
11998PP      PP22102  11.545  13.682  13.586
11999PP      PP22103  10.466   7.808   2.109
12000PP      PP22104   6.384   6.908  10.391
12001PP      PP22105   9.739   3.072   2.238
12002PP      PP22106   1.851  14.461  11.711
12003PP      PP22107  10.216  11.226   8.485
12004PP      PP22108   7.636   5.060   3.315
12005PP      PP22109  13.162   1.409   2.365
12006PP      PP22110   3.481   3.900   0.679
12007PP      PP22111  14.229   9.378  11.359
12008PP      PP22112   4.060   1.358   4.340
12009PP      PP22113   7.062  13.745   3.018
12010PP      PP22114   1.682   4.514  10.672
12011PP      PP22115   8.390  12.200   0.122
12012PP      PP22116   7.437   9.979  10.542
12013PP      PP22117   7.628  12.562  13.087
12014PP      PP22118   0.083   9.483   9.317
12015PP      PP22119   1.123  11.455  10.108
12016PP      PP22120  12.513   9.665  13.053
12017PP      PP22121   0.269   9.417   4.136
12018PP      PP22122   4.027   7.615   3.631
12019PP      PP22123  11.801  13.186  13.549
12020PP      PP22124   0.818   4.477  10.725
12021PP      PP22125   9.839   7.754   0.139
12022PP      PP22126  10.552  10.072   2.698
12023PP      PP22127   8.157  12.898  11.763
12024PP      PP22128  12.154   1.635   3.770
12025PP      PP22129   1.076   1.457  12.435
12026PP      PP22130   8.794   2.909   9.322
12027PP      PP22131   4.132   8.031  13.111
12028PP      PP22132   6.777   8.223  13.363
12029PP      PP22133   8.668   1.826   9.910
12030PP      PP22134  15.142  11.445  11.586
12031PP      PP22135   5.026   3.171   2.258
12032PP      PP22136   7.102   5.237   0.153
12033PP      PP22137  10.094   9.441   0.191
12034PP      PP22138  14.636   1.214  10.211
12035PP      PP22139   5.421   2.107   3.357
12036PP      PP22140   3.900   3.573   4.524
12037PP      PP22141  10.848   2.649  13.484
12038PP      PP22142   4.902   4.814  12.187
12039PP      PP22143  12.324   1.199  12.785
12040PP      PP22144   4.209  14.881  13.212
12041PP      PP22145   7.882   3.923  10.349
12042PP      PP22146  14.774  12.721   1.168
12043PP      PP22147  11.511  10.137  12.249
12044PP      PP22148   0.568   7.231  10.028
12045PP      PP22149   2.832   7.917   9.753
12046PP      PP22150   3.104   7.137  12.541
12047PP      PP22151   9.793  12.120   9.551
12048PP      PP22152   7.643  14.036  13.576
12049PP      PP22153   0.156   7.573   8.600
12050PP      PP22154  14.918   3.932  10.474
12051PP      PP22155   3.139   1.619  12.977
12052PP      PP22156   4.780  10.390   2.574
12053PP      PP22157  12.519   1.690   4.172
12054PP      PP22158   4.438   8.826   9.961
12055PP      PP22159   5.614  12.483  13.235
12056PP      PP22160   5.707   8.642  12.300
12057PP      PP22161  11.990   9.497  11.547
12058PP      PP22162  12.269  12.148   0.416
12059PP      PP22163   6.451  13.397   0.407
12060PP      PP22164  10.017  11.577   8.168
12061PP      PP22165  14.193  10.779   4.103
12062PP      PP22166  14.909  10.495  10.575
12063PP      PP22167   9.913   6.832   1.259
12064PP      PP22168   3.723   0.539   9.637
12065PP      PP22169   2.548  15.711   1.438
12066PP      PP22170  12.127   5.605   0.123
12067PP      PP22171  14.076   1.026   1.387
12068PP      PP22172  11.855   8.255   9.867
12069PP      PP22173   5.066  12.800   2.348
12070PP      PP22174   9.109  10.004   3.136
12071PP      PP22175   6.266   1.319  11.635
12072PP      PP22176   8.420   6.091   0.627
12073PP      PP22177  14.912   5.554   9.345
12074PP      PP22178   1.018  14.125   9.304
12075PP      PP22179  11.434   5.960   1.668
12076PP      PP22180   5.006   0.448   9.985
12077PP      PP22181   1.379   7.756  12.909
12078PP      PP22182  13.241   0.022  12.031
12079PP      PP22183  14.465  13.734  11.743
12080PP      PP22184  10.684  13.249  13.153
12081PP      PP22185   8.054   4.020  10.837
12082PP      PP22186   8.075  14.996  10.906
12083PP      PP22187   8.362   9.860   4.177
12084PP      PP22188  13.591  15.087   9.489
12085PP      PP22189   8.239   2.833  10.324
12086PP      PP22190  13.244  11.996   4.808
12087PP      PP22191   1.269   4.670  11.800
12088PP      PP22192   6.243   8.580   1.808
12089PP      PP22193  11.857  10.127   2.573
12090PP      PP22194   6.243  10.680   0.386
12091PP      PP22195   5.893   7.895   4.061
12092PP      PP22196   9.379   7.562   1.181
12093PP      PP22197   1.098   5.334   1.178
12094PP      PP22198   8.126  11.210   4.494
12095PP      PP22199  14.621  12.929   4.698
12096PP      PP22200  10.081  10.704  13.401
12097PP      PP22201  14.528   1.737  13.362
12098PP      PP22202  15.134  11.735  12.007
12099PP      PP22203  11.811   7.881  12.724
12100PP      PP22204   9.592   1.580  12.729
12101PP      PP22205   4.110   8.621   2.292
12102PP      PP22206   5.514   3.642  11.053
12103PP      PP22207   2.481  13.448  10.880
12104PP      PP22208   2.298   2.024   2.635
12105PP      PP22209  13.556  11.873   0.038
12106PP      PP22210   8.130   4.214   0.056
12107PP      PP22211   0.102   6.373   0.018
12108PP      PP22212  13.619   4.725   1.440
12109PP      PP22213   8.051   8.075   0.634
12110PP      PP22214  11.787   0.009   3.783
12111PP      PP22215   7.370  10.982   1.597
12112PP      PP22216  11.384   5.982   3.446
12113PP      PP22217   2.239   9.841  11.738
12114PP      PP22218   6.467   8.023   9.898
12115PP      PP22219   4.690   5.559   1.288
12116PP      PP22220   9.168  13.039   2.077
12117PP      PP22221  12.525   0.163   3.347
12118PP      PP22222   6.183   8.863   3.034
12119PP      PP22223  15.114   3.170  12.596
12120PP      PP22224  14.969   4.913  11.596
12121PP      PP22225   4.490   1.622  11.061
12122PP      PP22226  13.301   0.919  10.121
12123PP      PP22227  12.141  13.161  11.610
12124PP      PP22228  13.890   3.340  11.568
12125PP      PP22229  14.284  14.473   3.389
12126PP      PP22230   1.843   3.517  11.359
12127PP      PP22231  13.404   8.923  11.727
12128PP      PP22232  14.039  15.815   9.386
12129PP      PP22233   9.179   4.270   3.252
12130PP      PP22234  13.162   1.422   1.078
12131PP      PP22235   6.024   5.053   8.838
12132PP      PP22236   2.272   3.520   2.479
12133PP      PP22237  10.529   8.649   1.603
12134PP      PP22238  14.781   9.350   2.413
12135PP      PP22239  11.318  11.690   3.065
12136PP      PP22240   5.287   4.426   1.904
12137PP      PP22241   2.413   5.138  13.002
12138PP      PP22242   6.168  15.368  13.595
12139PP      PP22243   4.371   7.908   9.765
12140PP      PP22244   9.567  14.779   2.851
12141PP      PP22245  13.927   8.574   7.912
12142PP      PP22246  11.524  13.410   1.826
12143PP      PP22247  11.070   7.258   1.656
12144PP      PP22248   4.322   5.210  10.487
12145PP      PP22249   6.025   7.028  10.772
12146PP      PP22250   4.809   3.244  13.388
12147PP      PP22251   3.072   3.001   3.784
12148PP      PP22252   0.817   3.401   2.300
12149PP      PP22253   5.491   7.985   0.110
12150PP      PP22254   8.973   2.594   4.258
12151PP      PP22255   0.198   6.449  10.561
12152PP      PP22256   2.329   4.210   8.681
12153PP      PP22257   0.060  13.823  13.501
12154PP      PP22258   4.768  14.260  12.373
12155PP      PP22259   7.413   7.013   2.068
12156PP      PP22260  11.292  11.082  12.559
12157PP      PP22261   1.203   9.027   0.619
12158PP      PP22262  13.141   3.890  11.825
12159PP      PP22263   5.908  14.174  10.886
12160PP      PP22264   6.885   5.677   9.879
12161PP      PP22265  12.293   2.639   3.388
12162PP      PP22266  15.772   5.724  12.831
12163PP      PP22267  13.583   3.121  11.925
12164PP      PP22268   6.991   8.210   3.573
12165PP      PP22269   5.698  10.805   9.205
12166PP      PP22270   8.031  11.940   0.772
12167PP      PP22271   1.763  11.278   3.761
12168PP      PP22272  13.341   6.136   9.854
12169PP      PP22273  11.023  11.290   4.050
12170PP      PP22274   8.308   1.290  12.579
12171PP      PP22275   3.469   8.364   0.659
12172PP      PP22276   9.798  13.931  10.955
12173PP      PP22277   3.430   7.967   2.298
12174PP      PP22278   3.037   2.266  12.342
12175PP      PP22279   9.046  12.587   9.962
12176PP      PP22280  13.256   3.571   9.188
12177PP      PP22281  12.441   0.670  12.572
12178PP      PP22282   4.352   1.191   0.127
12179PP      PP22283   8.324  12.418  12.023
12180PP      PP22284  10.204  11.106   3.577
12181PP      PP22285   7.107   3.485   2.222
12182PP      PP22286  14.708  15.318  10.640
12183PP      PP22287   3.900  10.268  13.516
12184PP      PP22288   7.980   7.374   3.428
12185PP      PP22289  10.624  14.212   0.799
12186PP      PP22290  13.640  11.394   8.823
12187PP      PP22291   8.572  15.444   2.365
12188PP      PP22292   2.676   7.050   0.843
12189PP      PP22293   5.228  15.744  13.293
12190PP      PP22294   9.401  14.712  11.162
12191PP      PP22295   3.644  10.689   7.695
12192PP      PP22296  10.796  13.936  11.970
12193PP      PP22297   6.110   5.901  11.293
12194PP      PP22298   9.949   9.259   2.229
12195PP      PP22299  11.060   9.877  10.285
12196PP      PP22300   8.164   8.173   3.030
12197PP      PP22301  13.014   5.791   1.924
12198PP      PP22302   4.946   8.953  12.847
12199PP      PP22303  15.471   6.657  12.875
12200PP      PP22304   3.663   8.921  11.119
12201PP      PP22305  13.749   2.222   2.272
12202PP      PP22306  11.369   7.940  13.526
12203PP      PP22307  10.042   9.484  10.638
12204PP      PP22308   2.865   8.965   2.643
12205PP      PP22309  11.745  12.758  11.122
12206PP      PP22310   4.511   9.409   3.303
12207PP      PP22311   4.193  13.922   0.110
12208PP      PP22312   7.389   3.112   4.449
12209PP      PP22313  13.819  10.177  11.472
12210PP      PP22314   9.844  14.226   9.922
12211PP      PP22315   1.403   1.837   1.284
12212PP      PP22316  10.666  14.161  12.671
12213PP      PP22317   4.670  14.861   1.909
12214PP      PP22318   9.477   3.289   1.841
12215PP      PP22319   5.559  13.447  12.253
12216PP      PP22320   5.919  12.437   9.135
12217PP      PP22321  12.739   1.462  12.488
12218PP      PP22322  15.665   5.611   3.198
12219PP      PP22323   6.207   9.936   1.964
12220PP      PP22324   5.826   6.163   2.632
12221PP      PP22325  10.668  15.024  13.087
12222PP      PP22326   1.645   3.420  12.783
12223PP      PP22327   3.380  11.055   9.769
12224PP      PP22328  10.007   5.784  10.881
12225PP      PP22329   4.678   7.491   0.740
12226PP      PP22330   1.130  13.665   9.581
12227PP      PP22331   9.315   6.848  13.394
12228PP      PP22332   1.315   1.903   3.003
12229PP      PP22333   5.653  15.474   3.645
12230PP      PP22334   8.759   5.312   2.431
12231PP      PP22335  11.800   5.689   3.500
12232PP      PP22336  13.601  11.999   4.411
12233PP      PP22337  12.445  11.781   9.421
12234PP      PP22338   2.408   5.122   0.361
12235PP      PP22339   5.570  15.084   3.170
12236PP      PP22340  12.994   0.213   1.908
12237PP      PP22341  14.977   5.800   3.530
12238PP      PP22342   6.148   2.498  13.192
12239PP      PP22343   3.688   3.157  13.432
12240PP      PP22344   5.249  11.117  12.711
12241PP      PP22345   0.275   9.930  11.539
12242PP      PP22346  13.982   0.608  11.748
12243PP      PP22347  13.645   1.869  11.134
12244PP      PP22348   0.511   7.222   8.660
12245PP      PP22349  13.420   0.402  10.597
12246PP      PP22350   0.928   7.957   8.660
12247PP      PP22351   9.044   6.860   2.834
12248PP      PP22352   6.209   0.857  10.814
12249PP      PP22353   9.647  15.208   2.540
12250PP      PP22354  14.177   9.782   0.053
12251PP      PP22355   7.352   9.273  13.411
12252PP      PP22356  13.154   7.680   1.513
12253PP      PP22357   2.008  15.541   2.429
12254PP      PP22358   3.837   2.536   3.903
12255PP      PP22359   3.773  12.986   9.122
12256PP      PP22360   2.259  12.240   9.279
12257PP      PP22361  11.409   6.119   0.770
12258PP      PP22362   6.438   7.006  11.460
12259PP      PP22363  13.231  14.408  13.317
12260PP      PP22364   4.729  13.083  13.432
12261PP      PP22365  15.503  11.251  11.914
12262PP      PP22366  14.450  15.117  13.008
12263PP      PP22367  13.446   9.393  10.244
12264PP      PP22368   1.068   6.045  13.328
12265PP      PP22369   9.157   8.995   4.248
12266PP      PP22370   0.762   7.926   2.277
12267PP      PP22371   9.351  10.785  12.735
12268PP      PP22372   8.338   0.869  12.187
12269PP      PP22373   5.804   3.727  13.388
12270PP      PP22374   6.029   6.526   9.350
12271PP      PP22375   4.300   4.552   0.458
12272PP      PP22376  14.747   6.954   9.868
12273PP      PP22377   1.777   3.320   4.657
12274PP      PP22378   6.500   2.990   2.189
12275PP      PP22379   3.290   6.271   1.715
12276PP      PP22380   6.908   0.606   3.448
12277PP      PP22381   9.749   9.101  13.301
12278PP      PP22382  11.619   5.675   4.360
12279PP      PP22383   3.830   2.695  11.883
12280PP      PP22384  15.358   4.629  10.209
12281PP      PP22385   7.212   9.327  12.888
12282PP      PP22386  13.546   1.775   0.880
12283PP      PP22387   2.197   7.078  12.181
12284PP      PP22388   9.754   1.889  13.349
12285PP      PP22389   3.776   3.149   1.546
12286PP      PP22390  13.720   5.749  11.088
12287PP      PP22391   7.688   0.569   5.086
12288PP      PP22392   4.120   1.598   1.663
12289PP      PP22393  10.801   5.315   2.829
12290PP      PP22394  13.289   2.208  10.277
12291PP      PP22395   7.028  14.378   4.230
12292PP      PP22396   4.480  13.400  10.346
12293PP      PP22397   5.014   3.008   1.762
12294PP      PP22398   9.994   8.511   0.166
12295PP      PP22399   2.900  10.851   9.765
12296PP      PP22400   8.831   5.899  12.069
12297PP      PP22401   8.998   3.480  13.030
12298PP      PP22402  15.326   3.092  11.761
12299PP      PP22403   8.168   5.739  10.706
12300PP      PP22404   8.487   9.133   1.821
12301PP      PP22405  14.264   4.642   2.479
12302PP      PP22406  15.013   6.103   0.542
12303PP      PP22407  10.457   7.757  11.291
12304PP      PP22408   7.089  13.207  12.162
12305PP      PP22409   3.186  11.749  11.822
12306PP      PP22410   6.652   5.640   2.154
12307PP      PP22411  11.045   9.594   9.274
12308PP      PP22412   9.900   5.629   9.933
12309PP      PP22413  15.105   8.159   0.600
12310PP      PP22414   7.839   1.216  11.168
12311PP      PP22415  11.633  11.429  12.291
12312PP      PP22416   1.802   9.106  12.294
12313PP      PP22417   7.151  13.601   9.762
12314PP      PP22418   8.307   1.023  11.278
12315PP      PP22419   5.994   0.741   1.087
12316PP      PP22420  14.432  11.659   0.410
12317PP      PP22421  10.518  11.445  12.671
12318PP      PP22422   3.575  13.212  10.060
12319PP      PP22423   8.025   2.388   9.378
12320PP      PP22424   3.984  12.937  12.688
12321PP      PP22425   6.503  11.543   1.863
12322PP      PP22426   6.791  10.642  10.350
12323PP      PP22427   2.981  10.135   2.245
12324PP      PP22428   7.936   4.503   9.585
12325PP      PP22429   9.049  12.169  12.833
12326PP      PP22430   1.101   4.609   3.362
12327PP      PP22431  14.804  11.566  12.382
12328PP      PP22432  10.461   1.010  11.043
12329PP      PP22433   7.499   9.489   3.435
12330PP      PP22434   2.846   1.800  12.026
12331PP      PP22435  15.255  11.095  10.758
12332PP      PP22436   0.216   0.833   3.943
12333PP      PP22437   6.346  13.299  10.293
12334PP      PP22438  14.943  10.493   9.708
12335PP      PP22439  12.354  13.900   2.768
12336PP      PP22440   6.553  14.135  11.709
12337PP      PP22441   8.878  11.632   9.058
12338PP      PP22442   1.179   8.091   1.975
12339PP      PP22443   4.554   3.831  10.867
12340PP      PP22444   7.487  13.169   3.123
12341PP      PP22445   3.253  10.773   9.367
12342PP      PP22446   6.105  13.788   2.693
12343PP      PP22447   9.586   4.621  12.808
12344PP      PP22448   9.927   4.665   9.926
12345PP      PP22449   8.696  13.400   4.339
12346PP      PP22450   8.567   2.089   9.312
12347PP      PP22451  11.541  10.902   2.038
12348PP      PP22452   6.724  11.806  11.537
12349PP      PP22453   3.955  14.148  12.278
12350PP      PP22454   3.497  11.584   9.805
12351PP      PP22455   1.520  15.340   1.628
12352PP      PP22456  13.541   1.304   0.676
12353PP      PP22457   4.732  12.535   0.923
12354PP      PP22458   5.540   3.995   1.064
12355PP      PP22459   7.662   8.423   1.597
12356PP      PP22460   3.591   5.799  11.677
12357PP      PP22461   9.882   0.752   0.506
12358PP      PP22462   7.923   5.005   0.740
12359PP      PP22463   3.594   2.629   3.109
12360PP      PP22464  11.395  15.302   3.636
12361PP      PP22465   3.737  10.700   3.396
12362PP      PP22466  10.925  13.714   0.729
12363PP      PP22467  15.406  10.606  10.524
12364PP      PP22468   0.288   8.204   1.050
12365PP      PP22469   1.699   4.871   3.395
12366PP      PP22470   2.817   6.323  13.024
12367PP      PP22471  14.621   1.780   2.313
12368PP      PP22472   5.853  11.623  11.983
12369PP      PP22473  12.900   6.297   1.897
12370PP      PP22474   1.303   7.153   2.925
12371PP      PP22475   1.683   6.845   1.520
12372PP      PP22476   4.961   3.619   9.064
12373PP      PP22477  13.893   2.379   0.305
12374PP      PP22478  15.573   7.327   9.321
12375PP      PP22479  14.614  14.430  13.235
12376PP      PP22480   5.329  13.431   8.743
12377PP      PP22481   1.619   1.481   4.555
12378PP      PP22482   5.380   9.092   3.568
12379PP      PP22483   9.239   0.243   3.870
12380PP      PP22484  13.919   1.234   9.220
12381PP      PP22485   1.053  11.372  12.163
12382PP      PP22486  15.690  10.300   2.780
12383PP      PP22487   8.459   8.564   2.739
12384PP      PP22488   7.846   7.757   9.855
12385PP      PP22489  12.060   7.701   8.115
12386PP      PP22490   7.093   9.724   2.512
12387PP      PP22491   0.547  13.896   4.243
12388PP      PP22492   3.196   2.942   0.865
12389PP      PP22493   1.895  11.549   0.774
12390PP      PP22494  15.536   1.030   3.286
12391PP      PP22495  10.480  15.011   3.235
12392PP      PP22496   7.980   9.362  10.297
12393PP      PP22497   8.189   0.622  13.579
12394PP      PP22498  12.071  14.535   0.138
12395PP      PP22499  15.497  15.787  13.298
12396PP      PP22500  11.601  10.833   4.037
12397PP      PP22501   9.172  12.246   1.966
12398PP      PP22502  12.653   5.751  11.454
12399PP      PP22503   4.018   1.363  11.883
12400PP      PP22504   8.249   5.783  12.298
12401PP      PP22505  13.815   6.879  10.086
12402PP      PP22506  13.492   6.059   2.701
12403PP      PP22507   2.278   7.779   1.443
12404PP      PP22508   1.199   3.261  13.543
12405PP      PP22509   1.272  14.628   1.195
12406PP      PP22510  11.395   8.875  10.078
12407PP      PP22511   8.168  12.154  11.560
12408PP      PP22512   4.340   5.418   4.092
12409PP      PP22513  13.323  12.849  12.063
12410PP      PP22514   6.413   9.828   1.282
12411PP      PP22515  12.115   9.711   3.904
12412PP      PP22516   9.733   8.559   3.036
12413PP      PP22517   1.606  12.305   1.657
12414PP      PP22518  11.786   3.191  13.166
12415PP      PP22519  11.266   6.224  12.803
12416PP      PP22520   8.696   1.884  11.459
12417PP      PP22521   5.120   1.425   1.467
12418PP      PP22522   3.853   0.119   1.108
12419PP      PP22523   1.800   0.126   2.175
12420PP      PP22524   4.403  12.269  12.225
12421PP      PP22525   9.414   7.707   0.673
12422PP      PP22526   1.360   4.348   4.238
12423PP      PP22527   6.753   0.958   4.191
12424PP      PP22528   4.275   1.140   2.912
12425PP      PP22529   9.434   8.535   1.738
12426PP      PP22530  12.326   9.228   2.626
12427PP      PP22531  14.471   4.388   2.944
12428PP      PP22532  10.512   1.594   3.003
12429PP      PP22533  10.395   5.683  13.518
12430PP      PP22534   3.720   6.083   8.752
12431PP      PP22535   6.564   5.174   0.963
12432PP      PP22536  12.729  13.050   1.797
12433PP      PP22537   9.306  10.728   9.413
12434PP      PP22538  15.204   7.443   0.122
12435PP      PP22539  11.763  15.621   5.048
12436PP      PP22540  13.735   8.414   8.370
12437PP      PP22541  13.875  15.061   9.968
12438PP      PP22542  13.875   9.636   0.456
12439PP      PP22543  14.638  11.869   3.267
12440PP      PP22544   7.609  12.938   9.852
12441PP      PP22545   7.236  14.073  12.561
12442PP      PP22546   6.778   5.356  12.454
12443PP      PP22547  11.173   3.608   8.965
12444PP      PP22548   6.348   9.775  11.159
12445PP      PP22549   9.114  13.179   0.524
12446PP      PP22550   9.337   5.358   9.087
12447PP      PP22551   3.971   4.989   1.341
12448PP      PP22552   5.466   7.186   2.488
12449PP      PP22553   2.131   6.510   3.413
12450PP      PP22554   3.898   0.043  12.763
12451PP      PP22555   4.631   5.481   0.228
12452PP      PP22556   3.484  13.708   0.027
12453PP      PP22557   2.343   1.307   1.587
12454PP      PP22558   8.701  13.764   1.593
12455PP      PP22559   4.680   6.810  12.064
12456PP      PP22560  11.569   3.401  12.730
12457PP      PP22561   1.701   9.740   0.517
12458PP      PP22562  14.365  11.022   4.522
12459PP      PP22563   2.447   2.811  11.390
12460PP      PP22564   0.039   4.120   9.711
12461PP      PP22565  14.125   2.231  13.139
12462PP      PP22566   4.592   5.245   2.812
12463PP      PP22567  11.491   9.066   0.667
12464PP      PP22568   2.193   1.943  13.582
12465PP      PP22569  10.321   2.714   1.527
12466PP      PP22570   7.473   2.174   3.008
12467PP      PP22571  12.581   8.277   3.117
12468PP      PP22572   1.508   4.427   3.096
12469PP      PP22573   9.811   9.110   1.749
12470PP      PP22574  14.732   7.901   1.073
12471PP      PP22575  14.940   4.116   9.528
12472PP      PP22576   4.875  11.459  12.660
12473PP      PP22577  13.810   0.089  10.319
12474PP      PP22578  13.477  13.731  11.509
12475PP      PP22579   1.079   0.473   3.677
12476PP      PP22580  10.323  11.226   2.670
12477PP      PP22581  14.829   8.662  13.075
12478PP      PP22582  14.635  10.593   1.756
12479PP      PP22583   7.823   6.037   9.857
12480PP      PP22584   2.223  15.307  12.152
12481PP      PP22585  12.749  11.131   2.617
12482PP      PP22586  14.732   7.789   1.694
12483PP      PP22587   0.122  13.409  10.754
12484PP      PP22588  10.442  10.352   1.334
12485PP      PP22589   2.324  14.083  13.054
12486PP      PP22590   3.318   3.487  10.655
12487PP      PP22591   8.873   0.778   9.745
12488PP      PP22592  12.276   3.291   9.439
12489PP      PP22593  13.246   0.044   8.660
12490PP      PP22594   2.583  14.638  10.653
12491PP      PP22595   4.608  11.012   0.418
12492PP      PP22596   0.822   8.657   8.560
12493PP      PP22597   8.564   3.809   0.273
12494PP      PP22598  10.343  15.128  11.102
12495PP      PP22599   5.402   6.843   4.311
12496PP      PP22600   6.530   8.912   1.532
12497PP      PP22601   4.225   2.800  13.203
12498PP      PP22602   7.495  15.638   0.461
12499PP      PP22603   9.866   4.620   0.500
12500PP      PP22604  13.898  13.962  10.464
12501PP      PP22605   9.616  11.639   9.650
12502PP      PP22606   0.691  14.046  12.088
12503PP      PP22607  10.393   0.675  11.466
12504PP      PP22608  13.221   8.327   8.453
12505PP      PP22609   2.675  14.432  13.235
12506PP      PP22610   1.510   6.429  11.738
12507PP      PP22611   6.202   5.798   1.282
12508PP      PP22612   1.649   4.087   9.977
12509PP      PP22613   1.628   6.584   0.386
12510PP      PP22614   6.335   0.637   2.351
12511PP      PP22615   9.229   4.369  13.118
12512PP      PP22616   9.574  12.989   3.720
12513PP      PP22617   1.067  14.672   3.822
12514PP      PP22618   9.905   2.740   4.541
12515PP      PP22619   4.252  13.661   1.194
12516PP      PP22620   0.732   2.852  12.613
12517PP      PP22621  13.630   0.337  11.074
12518PP      PP22622  12.906   7.526   1.963
12519PP      PP22623   6.512   4.106   9.546
12520PP      PP22624   8.831  14.185   3.910
12521PP      PP22625   4.533   8.329   3.699
12522PP      PP22626   8.861   4.348   9.513
12523PP      PP22627   2.601  11.103   9.411
12524PP      PP22628  10.099   9.018  12.907
12525PP      PP22629  15.688  11.769  12.788
12526PP      PP22630  11.894   3.611   2.030
12527PP      PP22631  12.991  14.630   2.204
12528PP      PP22632   8.198  15.269  12.005
12529PP      PP22633   4.766   0.373   2.605
12530PP      PP22634  10.483  11.796  11.153
12531PP      PP22635   0.256   1.012   2.612
12532PP      PP22636  14.437   4.047  11.338
12533PP      PP22637   5.270  15.356   2.293
12534PP      PP22638   0.646  11.551   4.489
12535PP      PP22639   1.894  13.663   9.243
12536PP      PP22640   1.813   1.992   2.860
12537PP      PP22641  11.461   2.153   2.038
12538PP      PP22642   0.329  14.643  11.555
12539PP      PP22643   5.883  14.020   3.483
12540PP      PP22644  11.897   5.295  12.744
12541PP      PP22645   3.621   2.307  12.239
12542PP      PP22646  12.537   4.391  13.149
12543PP      PP22647   2.915   2.612   9.386
12544PP      PP22648  12.494  10.190   9.050
12545PP      PP22649   4.567   9.550  13.419
12546PP      PP22650   9.609   2.631   9.913
12547PP      PP22651  10.539  10.610  11.164
12548PP      PP22652   7.401   4.361   1.815
12549PP      PP22653   7.154  10.350  10.120
12550PP      PP22654  15.034   0.607  11.734
12551PP      PP22655   1.524  12.755  13.443
12552PP      PP22656   1.951  15.772   0.133
12553PP      PP22657   8.703   3.031  13.047
12554PP      PP22658  12.626   3.093  11.989
12555PP      PP22659   1.064   6.318   1.042
12556PP      PP22660  10.225   4.931  10.607
12557PP      PP22661   6.461  11.913  13.296
12558PP      PP22662  10.826   0.021  11.390
12559PP      PP22663   6.873   3.060   4.619
12560PP      PP22664  11.174  11.812   1.881
12561PP      PP22665   2.281   2.019  10.875
12562PP      PP22666   1.480   0.443   2.475
12563PP      PP22667  10.104  12.627   2.458
12564PP      PP22668  13.349   7.144   9.733
12565PP      PP22669   7.318   7.157   0.894
12566PP      PP22670   1.157   6.611  12.780
12567PP      PP22671   3.973  13.511  10.207
12568PP      PP22672   2.360   0.647   0.320
12569PP      PP22673  13.209   9.066   2.809
12570PP      PP22674   2.200  14.333   4.547
12571PP      PP22675  14.360   5.336   1.351
12572PP      PP22676   4.628   0.507  11.971
12573PP      PP22677   9.764  15.798   0.194
12574PP      PP22678   3.076   7.449   9.873
12575PP      PP22679  12.596   5.553   4.624
12576PP      PP22680   3.404   0.416   3.631
12577PP      PP22681   4.006   2.214   3.147
12578PP      PP22682   3.606   2.296   3.490
12579PP      PP22683   3.700  13.374   3.086
12580PP      PP22684   1.401  14.364  10.293
12581PP      PP22685   7.447   8.109   2.330
12582PP      PP22686  13.616  15.084   2.143
12583PP      PP22687   4.292   3.292   2.276
12584PP      PP22688  14.820   5.881   4.019
12585PP      PP22689   9.152   7.820  13.064
12586PP      PP22690  10.473   9.343  12.719
12587PP      PP22691   7.835   5.632   3.993
12588PP      PP22692   3.539   7.463   0.345
12589PP      PP22693   0.481  14.964  13.007
12590PP      PP22694   7.234  11.275   9.143
12591PP      PP22695  11.522   7.077   2.864
12592PP      PP22696   1.952  10.799  12.849
12593PP      PP22697   6.708   0.220  11.316
12594PP      PP22698  15.355  14.165   2.196
12595PP      PP22699  12.864  10.655   1.552
12596PP      PP22700   9.864   5.311  10.724
12597PP      PP22701   2.709  15.100   2.878
12598PP      PP22702  15.317  10.681   1.000
12599PP      PP22703   3.600   5.473  11.246
12600PP      PP22704   7.875   3.870   2.872
12601PP      PP22705  11.193  11.431   1.495
12602PP      PP22706  14.346   7.030  10.294
12603PP      PP22707  14.124   3.578   3.217
12604PP      PP22708  11.029   8.182   8.979
12605PP      PP22709   9.381  14.328   5.228
12606PP      PP22710   0.052   3.947   1.475
12607PP      PP22711   9.540  11.956   0.127
12608PP      PP22712   0.196   8.405   0.583
12609PP      PP22713   1.999  13.462   8.781
12610PP      PP22714  11.232  15.095   4.363
12611PP      PP22715   5.612  13.464   3.200
12612PP      PP22716   5.292   8.618   9.005
12613PP      PP22717  15.303  10.067   5.109
12614PP      PP22718  12.519   8.131   0.453
12615PP      PP22719   2.526  12.563  10.166
12616PP      PP22720  10.164  10.250   0.744
12617PP      PP22721  13.627   6.692  12.000
12618PP      PP22722   9.555  15.560   4.702
12619PP      PP22723  12.113   3.559  12.729
12620PP      PP22724   4.574   6.871   1.509
12621PP      PP22725  12.654   3.613  13.547
12622PP      PP22726   9.377  13.353   4.165
12623PP      PP22727  10.890   1.563   1.961
12624PP      PP22728  15.577   8.392  12.807
12625PP      PP22729   5.755   8.524   8.831
12626PP      PP22730  12.920  10.140   1.433
12627PP      PP22731   3.369  11.043   3.575
12628PP      PP22732   1.052   5.590   2.365
12629PP      PP22733  15.141   2.540   2.369
12630PP      PP22734   8.900   6.271   3.157
12631PP      PP22735   7.234   2.226   9.631
12632PP      PP22736   5.468  11.895   9.903
12633PP      PP22737  14.838   4.370  11.358
12634PP      PP22738   7.870   4.341   4.043
12635PP      PP22739   5.857   9.968  12.871
12636PP      PP22740  13.458  10.940   3.985
12637PP      PP22741  13.762  13.792   0.584
12638PP      PP22742  11.159  13.860   3.027
12639PP      PP22743   0.354   5.435  11.972
12640PP      PP22744   2.718   3.330  13.047
12641PP      PP22745   1.194  13.031   1.078
12642PP      PP22746   9.061  15.625   2.020
12643PP      PP22747   2.298   4.753  13.348
12644PP      PP22748   9.399   0.258   0.574
12645PP      PP22749  14.680   0.439  11.359
12646PP      PP22750   2.853   9.537   0.739
12647PP      PP22751   9.869   5.217  12.720
12648PP      PP22752  14.088  10.025  10.375
12649PP      PP22753  13.535   2.615   1.906
12650PP      PP22754   5.096   2.888   1.234
12651PP      PP22755   1.697  10.359   1.772
12652PP      PP22756  14.542  14.176   1.029
12653PP      PP22757   0.598  12.388   1.175
12654PP      PP22758   5.600   9.637   2.377
12655PP      PP22759  13.131  10.272  10.614
12656PP      PP22760  13.714   4.206   9.585
12657PP      PP22761   5.192   1.086   0.919
12658PP      PP22762   6.149   6.799   1.324
12659PP      PP22763   2.460   6.822   1.801
12660PP      PP22764   8.571  13.723   3.934
12661PP      PP22765   9.509  11.541   3.919
12662PP      PP22766   0.900   7.674  10.770
12663PP      PP22767  12.552   1.043  10.813
12664PP      PP22768   7.988   6.484  11.132
12665PP      PP22769  13.864   7.270   0.411
12666PP      PP22770  12.533  13.161   0.490
12667PP      PP22771   3.300   6.275   8.524
12668PP      PP22772   8.235  10.789   1.415
12669PP      PP22773   1.295   9.627   9.943
12670PP      PP22774   6.761  13.380   4.605
12671PP      PP22775   6.762   1.450   1.032
12672PP      PP22776  11.749   0.276   9.478
12673PP      PP22777   7.304  14.196  11.758
12674PP      PP22778   1.242   3.317   1.559
12675PP      PP22779   9.824   1.770   2.806
12676PP      PP22780   5.486   6.556   9.978
12677PP      PP22781  13.174   5.463   3.460
12678PP      PP22782   4.480   5.077   1.268
12679PP      PP22783   0.259  13.878  10.578
12680PP      PP22784  15.153   7.650   2.657
12681PP      PP22785   2.025   3.212  12.519
12682PP      PP22786   0.634  14.358   2.108
12683PP      PP22787  12.237  15.646   3.067
12684PP      PP22788  12.905  12.469  13.419
12685PP      PP22789   4.317  13.310   3.756
12686PP      PP22790  14.057   6.119  12.651
12687PP      PP22791   5.507   3.377   0.949
12688PP      PP22792   5.279   0.058  12.067
12689PP      PP22793   1.026  15.550   4.301
12690PP      PP22794  11.711  13.431   1.343
12691PP      PP22795  12.075  10.977   9.159
12692PP      PP22796   9.991   8.020   9.626
12693PP      PP22797   4.219   3.402   4.167
12694PP      PP22798   4.054   9.457   0.752
12695PP      PP22799   0.764  15.636  11.368
12696PP      PP22800  14.109  10.592   4.712
12697PP      PP22801   5.213   0.918   0.376
12698PP      PP22802   2.950  10.719  12.657
12699PP      PP22803  10.544   8.918   0.892
12700PP      PP22804  11.893  15.125   1.380
12701PP      PP22805  13.627   0.189  12.688
12702PP      PP22806  13.981   7.904   8.649
12703PP      PP22807  15.177   5.438   3.182
12704PP      PP22808   6.041   9.421   2.176
12705PP      PP22809  14.263   5.628   2.194
12706PP      PP22810   3.550  12.055   2.120
12707PP      PP22811   1.620   7.356   4.224
12708PP      PP22812   7.459  14.269   0.801
12709PP      PP22813  10.553  15.339   3.689
12710PP      PP22814  10.901  12.523  10.255
12711PP      PP22815   7.898  10.588  11.755
12712PP      PP22816  14.219   7.292   0.826
12713PP      PP22817  10.049   8.486  10.740
12714PP      PP22818   9.556  10.131   1.792
12715PP      PP22819   7.128   7.415   9.615
12716PP      PP22820   7.808   6.393  10.235
12717PP      PP22821  13.046   1.096  12.228
12718PP      PP22822   7.498   7.678   8.967
12719PP      PP22823   8.082   1.718  12.377
12720PP      PP22824  13.637   6.545   8.514
12721PP      PP22825  11.574   1.591   0.083
12722PP      PP22826   4.310   4.370  10.052
12723PP      PP22827  11.521  11.942  12.601
12724PP      PP22828  14.950   9.223   0.675
12725PP      PP22829  15.749   6.221   1.492
12726PP      PP22830   8.952  14.597   1.302
12727PP      PP22831   9.485  12.563   9.661
12728PP      PP22832   6.426   8.792   1.045
12729PP      PP22833  15.562   8.907  10.553
12730PP      PP22834   6.763   7.389   8.581
12731PP      PP22835   4.751   3.135   4.938
12732PP      PP22836   3.306  14.963  12.825
12733PP      PP22837  13.139   0.523  11.041
12734PP      PP22838   3.915  14.681  12.194
12735PP      PP22839  15.545  12.969   0.236
12736PP      PP22840   9.467   7.380   9.354
12737PP      PP22841   3.036   1.680   9.647
12738PP      PP22842   6.353   2.816   9.598
12739PP      PP22843   1.458  13.431  13.542
12740PP      PP22844   9.620   1.344  13.359
12741PP      PP22845   9.302  13.076   3.262
12742PP      PP22846   4.541  12.032   8.733
12743PP      PP22847  12.620   9.934   3.214
12744PP      PP22848   8.983  13.064  10.269
12745PP      PP22849   5.045   3.993   2.207
12746PP      PP22850  12.718   7.741  10.436
12747PP      PP22851   8.480   6.758   8.881
12748PP      PP22852  13.817   7.403  10.951
12749PP      PP22853  13.313   7.192   2.743
12750PP      PP22854  15.178  10.900  11.677
12751PP      PP22855  10.643  14.985   5.339
12752PP      PP22856   1.006  11.237  12.898
12753PP      PP22857   0.288   5.983   0.293
12754PP      PP22858  10.370   8.332   2.198
12755PP      PP22859   9.801  13.728   1.628
12756PP      PP22860   3.663  13.297   1.403
12757PP      PP22861  12.565   1.002   1.739
12758PP      PP22862   9.665   0.988  11.751
12759PP      PP22863   0.567   5.928   1.839
12760PP      PP22864   6.111  13.827   0.541
12761PP      PP22865   5.013  12.497  11.438
12762PP      PP22866  11.889   9.869   0.722
12763PP      PP22867  12.972  10.998  13.319
12764PP      PP22868  15.110  13.573  13.420
12765PP      PP22869  14.309   9.350  11.874
12766PP      PP22870  10.889   8.422   3.376
12767PP      PP22871   5.942   9.180   0.123
12768PP      PP22872   5.496   6.910   3.802
12769PP      PP22873  11.606   8.670  13.484
12770PP      PP22874  14.095   3.979   4.155
12771PP      PP22875   1.880   1.021   4.500
12772PP      PP22876  10.217   8.652   0.595
12773PP      PP22877   8.638   8.826  10.041
12774PP      PP22878   4.915   2.131   3.278
12775PP      PP22879   3.102   7.023  10.558
12776PP      PP22880  12.649   1.545  10.967
12777PP      PP22881   5.401  11.561   0.015
12778PP      PP22882  13.811   4.278   8.668
12779PP      PP22883   6.625   7.134   9.569
12780PP      PP22884   1.667  12.240   2.723
12781PP      PP22885  14.794  11.117   2.211
12782PP      PP22886   2.209  10.256  12.570
12783PP      PP22887  12.966   8.281   2.158
12784PP      PP22888   0.305   3.254   4.267
12785PP      PP22889   1.435   4.432   9.650
12786PP      PP22890   3.851   5.244   4.013
12787PP      PP22891  12.115   0.268   1.325
12788PP      PP22892   5.660   4.094  12.797
12789PP      PP22893  14.761  14.845  10.293
12790PP      PP22894   0.878   9.988   0.532
12791PP      PP22895   9.732   8.300   1.329
12792PP      PP22896   1.643   5.815   1.684
12793PP      PP22897   4.493   6.022   3.386
12794PP      PP22898  15.330   5.628   4.025
12795PP      PP22899   3.790   8.569   3.227
12796PP      PP22900   9.684   6.151   8.587
12797PP      PP22901   4.410   8.651  13.328
12798PP      PP22902   6.199   4.280  11.765
12799PP      PP22903  13.627   8.966   9.828
12800PP      PP22904  11.766   0.615   1.175
12801PP      PP22905   7.891   5.484   1.364
12802PP      PP22906   1.332  12.139  13.487
12803PP      PP22907   7.062   4.605   1.471
12804PP      PP22908   1.017   6.690   2.769
12805PP      PP22909   0.972   9.816   9.566
12806PP      PP22910   2.997   1.378   2.952
12807PP      PP22911   4.486  12.243  12.743
12808PP      PP22912   1.484   8.143  12.586
12809PP      PP22913  15.181   9.603   0.333
12810PP      PP22914   2.006   2.680  13.140
12811PP      PP22915  14.917  14.966  12.439
12812PP      PP22916  15.498   1.864   9.438
12813PP      PP22917  12.119   7.416  13.540
12814PP      PP22918   6.359  13.573  13.113
12815PP      PP22919   8.817  12.528  11.969
12816PP      PP22920  13.939   9.011   1.119
12817PP      PP22921  14.254   0.205   3.473
12818PP      PP22922   8.657   2.846   9.985
12819PP      PP22923  12.284   3.969  13.475
12820PP      PP22924   4.475   6.051   0.529
12821PP      PP22925   3.362   2.855  11.055
12822PP      PP22926  12.891   7.136   8.487
12823PP      PP22927   4.197   0.946  10.150
12824PP      PP22928  10.714  10.236   3.721
12825PP      PP22929   6.617   2.610  12.938
12826PP      PP22930  10.217  13.980   1.043
12827PP      PP22931   8.771   6.557  10.224
12828PP      PP22932   7.929   0.223  13.304
12829PP      PP22933   9.102   3.080   4.441
12830PP      PP22934  14.701  14.666   0.589
12831PP      PP22935   4.868   9.693  10.839
12832PP      PP22936   7.380   3.676   2.954
12833PP      PP22937  10.123   9.147  12.031
12834PP      PP22938  12.256   5.568  10.089
12835PP      PP22939  15.319   3.887   0.303
12836PP      PP22940  11.319  13.903  11.752
12837PP      PP22941  15.098   7.450  10.212
12838PP      PP22942   0.602  14.970   4.013
12839PP      PP22943   0.993   4.279   9.333
12840PP      PP22944  14.505   3.451   1.795
12841PP      PP22945   6.758  11.058   4.774
12842PP      PP22946   5.230   3.667   1.316
12843PP      PP22947   5.696   3.136  12.333
12844PP      PP22948   5.586   0.167  11.396
12845PP      PP22949   3.698   6.212  11.982
12846PP      PP22950   9.409  13.069  10.609
12847PP      PP22951  12.614   1.903   1.232
12848PP      PP22952  14.960  15.373   9.919
12849PP      PP22953  14.634   8.690   8.882
12850PP      PP22954   4.901  12.150  10.512
12851PP      PP22955  12.161  12.592  12.795
12852PP      PP22956  11.396   5.242  10.809
12853PP      PP22957   7.708   9.805   0.907
12854PP      PP22958  13.948   6.260  12.116
12855PP      PP22959   3.817   4.353  10.230
12856PP      PP22960  10.898  11.317  12.361
12857PP      PP22961  14.505   8.795   3.158
12858PP      PP22962  13.878   1.212  10.703
12859PP      PP22963  13.686   5.885   3.644
12860PP      PP22964  10.529   9.154   2.804
12861PP      PP22965   6.627   5.069   1.495
12862PP      PP22966  13.075  11.166  11.296
12863PP      PP22967   1.977   3.805   3.763
12864PP      PP22968   1.568   9.043   1.006
12865PP      PP22969   6.260  12.285  12.896
12866PP      PP22970   9.408   7.260  11.868
12867PP      PP22971   3.068   7.364   0.623
12868PP      PP22972  12.976   0.747  10.549
12869PP      PP22973   6.248   3.485  13.232
12870PP      PP22974  13.129  15.399   9.458
12871PP      PP22975   7.995   6.281   2.209
12872PP      PP22976  12.836  13.855   3.342
12873PP      PP22977  10.408   9.835  12.518
12874PP      PP22978   3.822   5.211  10.400
12875PP      PP22979  12.788   2.995  13.182
12876PP      PP22980   6.718   7.469  11.316
12877PP      PP22981  10.459  12.602   4.825
12878PP      PP22982   4.655  15.367  10.255
12879PP      PP22983   1.532   0.801   1.067
12880PP      PP22984   0.721   3.639  12.061
12881PP      PP22985  13.499   4.836   4.142
12882PP      PP22986  11.120   6.710  12.656
12883PP      PP22987   1.154   0.364   0.205
12884PP      PP22988  13.028   8.123  10.661
12885PP      PP22989   8.413   6.210   1.864
12886PP      PP22990  14.186  13.365  12.280
12887PP      PP22991  12.147   3.813  12.194
12888PP      PP22992   3.835   8.974  12.239
12889PP      PP22993   8.523   3.409  12.092
12890PP      PP22994   0.873   6.095   1.468
12891PP      PP22995   8.803   7.025   1.180
12892PP      PP22996   5.365   9.487   3.241
12893PP      PP22997   2.402  13.603  10.390
12894PP      PP22998   5.377   2.249   9.307
12895PP      PP22999   6.552  10.199  11.838
12896PP      PP23000   0.188   6.462   0.520
12897PP      PP23001   7.515  14.309   4.023
12898PP      PP23002   5.557   7.582  11.496
12899PP      PP23003   5.073  11.130   2.981
12900PP      PP23004   7.831   5.627   2.614
12901PP      PP23005   1.554   1.031  11.123
12902PP      PP23006   6.043   4.088   3.909
12903PP      PP23007  11.277   0.920   4.209
12904PP      PP23008   2.589   5.060   9.794
12905PP      PP23009   6.111   0.668   9.676
12906PP      PP23010   8.791   2.969  12.538
12907PP      PP23011  12.541  14.845  12.762
12908PP      PP23012  13.320   9.922   8.789
12909PP      PP23013  10.573   3.941  12.061
12910PP      PP23014  13.719  14.176   9.991
12911PP      PP23015   1.778   6.894   3.445
12912PP      PP23016   7.323   9.123  12.406
12913PP      PP23017  12.122   7.395   3.034
12914PP      PP23018  15.217  10.155   1.119
12915PP      PP23019  13.770  12.472   3.104
12916PP      PP23020   6.437   8.918   9.148
12917PP      PP23021   3.454   9.829  12.082
12918PP      PP23022  15.175  10.278  11.836
12919PP      PP23023   4.377   2.447   1.348
12920PP      PP23024  15.525  14.289  12.797
12921PP      PP23025   2.253   7.203   0.554
12922PP      PP23026  12.594   1.745   0.723
12923PP      PP23027  11.078   5.381   9.881
12924PP      PP23028  13.876   4.582  11.089
12925PP      PP23029   7.727   9.596   9.803
12926PP      PP23030   0.760   3.398   9.987
12927PP      PP23031   4.007   2.657   3.438
12928PP      PP23032   0.871   0.645   1.528
12929PP      PP23033  13.684   0.917   1.025
12930PP      PP23034  15.396   1.431   0.841
12931PP      PP23035   2.398   2.362   0.379
12932PP      PP23036   9.751   3.104   9.027
12933PP      PP23037  15.154   7.204   2.367
12934PP      PP23038  13.481  13.085   4.364
12935PP      PP23039  14.541   7.845  11.648
12936PP      PP23040   5.881   3.912   0.275
12937PP      PP23041   6.091   2.830  11.335
12938PP      PP23042   1.334   7.196  11.426
12939PP      PP23043   3.250   3.331   9.123
12940PP      PP23044  12.795   9.779   8.664
12941PP      PP23045   5.786  15.447   9.240
12942PP      PP23046  11.284   5.194   2.342
12943PP      PP23047  13.528  12.739   3.477
12944PP      PP23048   0.539   6.376   2.738
12945PP      PP23049   2.775   5.899   8.856
12946PP      PP23050  12.425  12.623   0.531
12947PP      PP23051   3.057   8.990  10.266
12948PP      PP23052   4.111   6.111  12.305
12949PP      PP23053  13.878   9.659  11.094
12950PP      PP23054   3.921  10.196   1.853
12951PP      PP23055  13.884   7.834   2.214
12952PP      PP23056   3.558  11.794  10.963
12953PP      PP23057   3.681   0.877  11.105
12954PP      PP23058  14.756   4.754   3.243
12955PP      PP23059  14.217  12.147   4.142
12956PP      PP23060   5.132   7.999  12.126
12957PP      PP23061   9.157   2.756   2.712
12958PP      PP23062  13.730  14.285  13.284
12959PP      PP23063   4.067  14.402  13.068
12960PP      PP23064   9.388   1.903   1.459
12961PP      PP23065  14.407   6.523  11.203
12962PP      PP23066   9.231   9.813   1.523
12963PP      PP23067  11.535  13.376   0.398
12964PP      PP23068   8.660  10.570   3.892
12965PP      PP23069   1.691   9.314   1.824
12966PP      PP23070   3.035   5.531  13.457
12967PP      PP23071  15.689   5.487  12.139
12968PP      PP23072  13.144   9.136   9.920
12969PP      PP23073  13.566   8.789  13.116
12970PP      PP23074   4.827   7.561  10.908
12971PP      PP23075   7.479  11.616   3.497
12972PP      PP23076   4.485   5.183   1.780
12973PP      PP23077  12.408   8.748   2.438
12974PP      PP23078   1.346   9.362  12.255
12975PP      PP23079   7.313   0.861   9.655
12976PP      PP23080   9.823   8.717  11.938
12977PP      PP23081   8.555   6.305   2.380
12978PP      PP23082   6.791   1.184   5.047
12979PP      PP23083   2.973   1.019   2.305
12980PP      PP23084   4.244   5.343  11.786
12981PP      PP23085  15.160   6.126   0.020
12982PP      PP23086   3.485  13.721  10.061
12983PP      PP23087   5.566  12.167   3.359
12984PP      PP23088   1.162  12.092   1.382
12985PP      PP23089   9.535   9.565   2.007
12986PP      PP23090   7.691   6.872   0.369
12987PP      PP23091  13.394  14.151   0.613
12988PP      PP23092   7.318   3.101  10.351
12989PP      PP23093   8.508   5.460   0.034
12990PP      PP23094  13.655   4.887   3.646
12991PP      PP23095   9.625   2.713  10.427
12992PP      PP23096   7.300   1.426  11.098
12993PP      PP23097  11.732  10.270  11.744
12994PP      PP23098   8.553  14.481  12.510
12995PP      PP23099   5.954   6.454  12.014
12996PP      PP23100   4.601   1.592   0.398
12997PP      PP23101  10.322   0.256   3.701
12998PP      PP23102  13.769  13.084   1.384
12999PP      PP23103   0.427  15.133   3.211
13000PP      PP23104  11.165   6.648   1.547
13001PP      PP23105   0.532   1.358   3.845
13002PP      PP23106   7.960  13.735   2.381
13003PP      PP23107   2.345  15.356   3.220
13004PP      PP23108   5.847  10.503   4.218
13005PP      PP23109   9.614   8.881   1.319
13006PP      PP23110  12.672  13.318   9.398
13007PP      PP23111  12.341   2.408  10.187
13008PP      PP23112   3.120   9.539   9.165
13009PP      PP23113   1.440  10.486   0.130
13010PP      PP23114   9.257   6.015  10.555
13011PP      PP23115   1.620  13.220  10.873
13012PP      PP23116   5.501   1.828   1.456
13013PP      PP23117   1.272  14.751  11.050
13014PP      PP23118  14.504  11.093   2.647
13015PP      PP23119   0.431  11.124  10.716
13016PP      PP23120   4.282  13.871   9.293
13017PP      PP23121   9.419   7.042  10.613
13018PP      PP23122   6.862   7.143   1.158
13019PP      PP23123   0.972  14.078   2.373
13020PP      PP23124  13.242   0.718   1.167
13021PP      PP23125   2.508  15.394   0.976
13022PP      PP23126   3.203   3.884  13.026
13023PP      PP23127  14.071   9.457   0.900
13024PP      PP23128  15.557  14.182  13.306
13025PP      PP23129  12.853  12.099  10.603
13026PP      PP23130   5.474  11.561  11.186
13027PP      PP23131   3.119  10.836   1.666
13028PP      PP23132   9.212  10.923   2.685
13029PP      PP23133   4.301  12.371  10.200
13030PP      PP23134  13.116   9.565   3.625
13031PP      PP23135   0.568   5.678   8.377
13032PP      PP23136   7.923  12.455  12.443
13033PP      PP23137  14.391  10.231  13.493
13034PP      PP23138   3.300   5.896   9.786
13035PP      PP23139   6.670   1.629   0.565
13036PP      PP23140  14.337   7.820  12.837
13037PP      PP23141   9.344   1.154  12.885
13038PP      PP23142   0.882   6.618   1.568
13039PP      PP23143   3.470   6.245   0.700
13040PP      PP23144  15.709  12.653  11.907
13041PP      PP23145   1.626   1.531   0.949
13042PP      PP23146   1.888  13.072  12.698
13043PP      PP23147  10.840   4.044   2.173
13044PP      PP23148   7.167   2.982   8.864
13045PP      PP23149   9.157  10.373   3.974
13046PP      PP23150   3.897  10.602   8.167
13047PP      PP23151   1.245   2.623  10.082
13048PP      PP23152   6.275   3.101   9.173
13049PP      PP23153   4.271   7.742   2.534
13050PP      PP23154  12.142   3.093  11.192
13051PP      PP23155   2.269   8.884  12.995
13052PP      PP23156   7.818   0.315   2.023
13053PP      PP23157   7.436  14.566   4.493
13054PP      PP23158   9.658  10.929  13.158
13055PP      PP23159   9.689  10.395   3.937
13056PP      PP23160   8.716   1.794  10.898
13057PP      PP23161  13.997   2.480  11.808
13058PP      PP23162   0.238   9.314   8.863
13059PP      PP23163  10.891   7.827  11.585
13060PP      PP23164  14.890   1.523   3.944
13061PP      PP23165   7.111   0.675  10.530
13062PP      PP23166  11.634  14.188   3.375
13063PP      PP23167   0.699  14.843   2.867
13064PP      PP23168   6.370   7.102   1.673
13065PP      PP23169  15.763   3.066  12.101
13066PP      PP23170  15.628   6.828   3.764
13067PP      PP23171   7.092  15.014   1.422
13068PP      PP23172   5.660  12.776   9.446
13069PP      PP23173  11.520   7.017   1.749
13070PP      PP23174   9.463   6.452  11.444
13071PP      PP23175   6.185   8.882   9.623
13072PP      PP23176   9.864   4.165  10.142
13073PP      PP23177  13.141   5.608   2.973
13074PP      PP23178   4.554   0.565  10.223
13075PP      PP23179  13.436  14.565   1.454
13076PP      PP23180   5.586   4.073   1.592
13077PP      PP23181   1.155   8.854   3.083
13078PP      PP23182   5.621   5.680  12.640
13079PP      PP23183   1.202  15.569  10.806
13080PP      PP23184   6.856  12.821  10.902
13081PP      PP23185   6.755  11.143  10.227
13082PP      PP23186   3.368   8.407  11.057
13083PP      PP23187   4.509  12.742  10.501
13084PP      PP23188   4.641   8.117  13.121
13085PP      PP23189  10.301  12.264   9.439
13086PP      PP23190  15.285   8.898   0.945
13087PP      PP23191   7.261   4.757  10.141
13088PP      PP23192   5.973  10.646   9.681
13089PP      PP23193  14.716   9.806  13.428
13090PP      PP23194  12.626  15.563  10.762
13091PP      PP23195  12.590   7.508  13.292
13092PP      PP23196   0.121   4.860   2.035
13093PP      PP23197   0.102   8.790  11.712
13094PP      PP23198   5.803  14.413  12.729
13095PP      PP23199  10.539   2.237   0.869
13096PP      PP23200  10.855  12.287   3.352
13097PP      PP23201  13.374   3.601  10.436
13098PP      PP23202   2.839  10.056   2.756
13099PP      PP23203  10.216  14.855   4.601
13100PP      PP23204   0.111   5.499  13.352
13101PP      PP23205  10.893   7.876  13.343
13102PP      PP23206  10.848  11.291  10.640
13103PP      PP23207   4.008  11.451  11.249
13104PP      PP23208   7.205  14.703   3.834
13105PP      PP23209   9.441  14.698   4.304
13106PP      PP23210   0.424   0.415  10.347
13107PP      PP23211   0.585   2.382   1.948
13108PP      PP23212  15.486  11.307   9.770
13109PP      PP23213   9.875  15.725   4.323
13110PP      PP23214  15.467  12.935  11.511
13111PP      PP23215  10.260   8.190   1.509
13112PP      PP23216   3.008   9.816  10.644
13113PP      PP23217   4.092   3.122   9.726
13114PP      PP23218   8.844   2.390   5.120
13115PP      PP23219  12.868  11.605  11.505
13116PP      PP23220  13.868  10.171   9.776
13117PP      PP23221  12.972   5.069   8.636
13118PP      PP23222   6.684   7.305  13.286
13119PP      PP23223   8.153  10.623   0.902
13120PP      PP23224   3.696  11.996  10.125
13121PP      PP23225   2.674   2.040   4.262
13122PP      PP23226  15.216  10.113   1.944
13123PP      PP23227   9.474   6.369   3.751
13124PP      PP23228  10.958  12.689   1.907
13125PP      PP23229  12.201  12.728   4.208
13126PP      PP23230   3.484   5.415  10.729
13127PP      PP23231   4.983   8.800  10.018
13128PP      PP23232   9.054  10.721   0.989
13129PP      PP23233  13.012   7.700  13.536
13130PP      PP23234   5.644  15.307   0.796
13131PP      PP23235  13.805   0.067  11.745
13132PP      PP23236   1.543  11.901  11.249
13133PP      PP23237   6.744   3.214   0.243
13134PP      PP23238   5.341  11.705  10.371
13135PP      PP23239   9.651  10.904  10.473
13136PP      PP23240   3.458  12.816  12.799
13137PP      PP23241   7.913   2.759  12.503
13138PP      PP23242   4.284   2.740   2.447
13139PP      PP23243   3.133  12.341   9.230
13140PP      PP23244  10.395  15.524  13.042
13141PP      PP23245   0.873   2.747  11.752
13142PP      PP23246  11.375   3.528  13.242
13143PP      PP23247   5.075   2.243   3.816
13144PP      PP23248  11.086   0.786   0.051
13145PP      PP23249  11.070   7.174   2.604
13146PP      PP23250   2.260  13.022  12.299
13147PP      PP23251  13.191   4.402   9.874
13148PP      PP23252   8.464  13.959  12.252
13149PP      PP23253   0.725  12.232  10.522
13150PP      PP23254  14.284   8.939  13.580
13151PP      PP23255   2.262   5.358   2.126
13152PP      PP23256   3.025  10.547  11.699
13153PP      PP23257  13.608   7.849   0.588
13154PP      PP23258   6.139   4.378   2.900
13155PP      PP23259   2.986   0.057   0.465
13156PP      PP23260  12.116   5.755  12.884
13157PP      PP23261   7.893  12.126   1.246
13158PP      PP23262   1.820  11.644  11.878
13159PP      PP23263   2.515   8.072   0.606
13160PP      PP23264  11.811  12.022   1.916
13161PP      PP23265  14.051  14.964  11.778
13162PP      PP23266  12.999   6.448   2.444
13163PP      PP23267   7.031   9.853  10.070
13164PP      PP23268   6.248   1.312  10.565
13165PP      PP23269   8.086   0.664   1.213
13166PP      PP23270   2.611  11.041  10.402
13167PP      PP23271   5.921  12.906  11.548
13168PP      PP23272   1.612  11.415   0.299
13169PP      PP23273   5.914  12.401   2.393
13170PP      PP23274   6.431  11.919  10.238
13171PP      PP23275   2.752   2.582   0.688
13172PP      PP23276   8.532  15.530  13.440
13173PP      PP23277  10.740   6.507   1.078
13174PP      PP23278  15.182   1.145   4.524
13175PP      PP23279   1.322   7.305   9.210
13176PP      PP23280   6.808   8.620   0.359
13177PP      PP23281   0.240   2.894  12.469
13178PP      PP23282   1.960  15.733  13.214
13179PP      PP23283  10.143  11.582   0.758
13180PP      PP23284   1.173   5.915   0.209
13181PP      PP23285   5.944   9.957  10.052
13182PP      PP23286  10.699   1.246   4.105
13183PP      PP23287   7.854  11.809   2.612
13184PP      PP23288   6.932  14.559  10.457
13185PP      PP23289  10.599   4.709   8.897
13186PP      PP23290   8.720  11.704  10.047
13187PP      PP23291  15.564   9.134  13.442
13188PP      PP23292  12.509  13.755  11.329
13189PP      PP23293   5.440   4.514   1.331
13190PP      PP23294  13.290  13.163   1.620
13191PP      PP23295   2.789   6.793   2.263
13192PP      PP23296  14.957   6.711   4.030
13193PP      PP23297   3.089  13.191   1.214
13194PP      PP23298   8.239  12.976   1.356
13195PP      PP23299   4.999   2.623  11.937
13196PP      PP23300   7.481  11.196  10.883
13197PP      PP23301   0.742  11.235   3.624
13198PP      PP23302   8.276   6.122   4.658
13199PP      PP23303   3.141  13.083   8.949
13200PP      PP23304   0.126  11.620   3.023
13201PP      PP23305   5.722   3.282  13.130
13202PP      PP23306   9.198   9.939   9.928
13203PP      PP23307  15.771   3.104  13.375
13204PP      PP23308   9.725   2.452  11.404
13205PP      PP23309   6.080   4.868  12.650
13206PP      PP23310  13.202   8.742   1.979
13207PP      PP23311   6.536   8.962  12.326
13208PP      PP23312  12.006  13.718  11.185
13209PP      PP23313   3.425   3.100   0.328
13210PP      PP23314   5.570   9.233   2.008
13211PP      PP23315  15.278   1.448   3.110
13212PP      PP23316  13.336  10.589   9.516
13213PP      PP23317  11.657  11.015   9.665
13214PP      PP23318  11.809   2.004   0.318
13215PP      PP23319  14.090  13.035   4.922
13216PP      PP23320   4.963   2.880   0.248
13217PP      PP23321   7.696   2.550  12.946
13218PP      PP23322   2.315  15.468   9.627
13219PP      PP23323   8.705   2.728   0.227
13220PP      PP23324   4.861   1.042   3.485
13221PP      PP23325  11.201   3.443  11.254
13222PP      PP23326   0.735   9.186   8.757
13223PP      PP23327   4.740  15.391   0.474
13224PP      PP23328   4.134   3.425  11.142
13225PP      PP23329  13.755  15.640   2.699
13226PP      PP23330  10.947  14.585  12.822
13227PP      PP23331  14.825   7.949  10.811
13228PP      PP23332   1.841   1.310  12.936
13229PP      PP23333  13.751  15.595   2.160
13230PP      PP23334   5.479   0.618   0.038
13231PP      PP23335   3.101  15.281   4.499
13232PP      PP23336  14.115  14.206   0.731
13233PP      PP23337   1.701   7.343  12.038
13234PP      PP23338   3.959  13.292   0.992
13235PP      PP23339   2.502   2.975   2.157
13236PP      PP23340   7.530  10.304   3.051
13237PP      PP23341  14.799   5.744   0.190
13238PP      PP23342  11.410   2.328   1.149
13239PP      PP23343   1.903   7.894  10.379
13240PP      PP23344   1.537  13.939   0.561
13241PP      PP23345   8.579   8.943  13.239
13242PP      PP23346   9.741   5.806  10.435
13243PP      PP23347  11.893  14.072   2.022
13244PP      PP23348  15.457  11.261  10.307
13245PP      PP23349   5.809   2.094  10.243
13246PP      PP23350   8.810  12.594  13.570
13247PP      PP23351  14.252   8.821   2.689
13248PP      PP23352  15.350  15.184   2.252
13249PP      PP23353   1.569  13.876  10.297
13250PP      PP23354  11.549  12.368  10.806
13251PP      PP23355  10.168  12.556   5.324
13252PP      PP23356   6.960   5.753  11.029
13253PP      PP23357   7.361   2.548   3.885
13254PP      PP23358   4.645   3.092   2.632
13255PP      PP23359   9.974   4.902  13.125
13256PP      PP23360  10.755   4.715   9.764
13257PP      PP23361   1.012   4.640   4.984
13258PP      PP23362   8.873  14.544  13.460
13259PP      PP23363   4.879   9.892   8.967
13260PP      PP23364  11.893   6.125   4.348
13261PP      PP23365   0.373  15.083  10.714
13262PP      PP23366  10.852   1.916  13.581
13263PP      PP23367   3.087  13.512   2.430
13264PP      PP23368  11.618   5.269   9.917
13265PP      PP23369   0.105  12.572  11.166
13266PP      PP23370   9.451  10.635  10.933
13267PP      PP23371   1.990  11.123   0.500
13268PP      PP23372  12.688   6.410   1.224
13269PP      PP23373   5.951   9.071   1.087
13270PP      PP23374   2.498   3.282   1.299
13271PP      PP23375  13.592   2.737  10.983
13272PP      PP23376  15.562   9.120  11.541
13273PP      PP23377   1.793   6.302   2.465
13274PP      PP23378   1.214   2.422   1.273
13275PP      PP23379   9.088  15.553  11.746
13276PP      PP23380   3.343   4.482   0.077
13277PP      PP23381   8.508  11.173   9.646
13278PP      PP23382  15.746   2.319  10.984
13279PP      PP23383  13.287   5.966  13.246
13280PP      PP23384  12.911  11.679  12.030
13281PP      PP23385   7.040  12.214  11.884
13282PP      PP23386  15.567   9.846   9.409
13283PP      PP23387  10.711   5.523   9.418
13284PP      PP23388   8.503  11.008  10.779
13285PP      PP23389   9.958   3.914  11.200
13286PP      PP23390   4.889   2.680   4.049
13287PP      PP23391  11.461  12.219   8.844
13288PP      PP23392   8.103   7.136  10.746
13289PP      PP23393  13.921   4.247   0.675
13290PP      PP23394   7.630  14.938   1.360
13291PP      PP23395   1.050  11.810  11.840
13292PP      PP23396  11.662  11.020   0.789
13293PP      PP23397  13.679  12.694   2.619
13294PP      PP23398   9.109   5.507   8.652
13295PP      PP23399   4.619  11.125   8.037
13296PP      PP23400  12.016   6.041  10.888
13297PP      PP23401  10.166  11.984   9.888
13298PP      PP23402   8.075  15.206  11.415
13299PP      PP23403   8.036   0.785  10.877
13300PP      PP23404   0.896   3.356  10.937
13301PP      PP23405   0.428  11.791   9.709
13302PP      PP23406   2.420   3.541  13.416
13303PP      PP23407  15.808  14.566   4.087
13304PP      PP23408   4.871  14.361   2.413
13305PP      PP23409  12.440   0.127   2.695
13306PP      PP23410  15.165   6.711  10.721
13307PP      PP23411  10.897  12.860  13.446
13308PP      PP23412   7.806  14.439   0.444
13309PP      PP23413   6.325  12.674  12.539
13310PP      PP23414   2.194   6.055   4.181
13311PP      PP23415  12.450   0.700  10.431
13312PP      PP23416  11.114  13.129  11.284
13313PP      PP23417  10.633   0.189   4.214
13314PP      PP23418  10.400  13.477   9.892
13315PP      PP23419   4.268   3.247   4.725
13316PP      PP23420  13.138  14.126  12.878
13317PP      PP23421   0.033  15.375  11.965
13318PP      PP23422   3.743   8.581  10.727
13319PP      PP23423   2.121   4.926   3.756
13320PP      PP23424   3.784   4.031  11.509
13321PP      PP23425   4.183  14.192   0.564
13322PP      PP23426  14.111   8.878  11.100
13323PP      PP23427   7.563  10.659  10.832
13324PP      PP23428  14.075   6.139   2.228
13325PP      PP23429  13.472  11.853  13.120
13326PP      PP23430   9.669   7.704  11.940
13327PP      PP23431   9.279  10.156  10.771
13328PP      PP23432  14.677   9.949   0.338
13329PP      PP23433  15.610   4.734   3.649
13330PP      PP23434  14.461  13.339   1.888
13331PP      PP23435   9.965   3.990   2.343
13332PP      PP23436  10.896   5.993  11.957
13333PP      PP23437   1.197   5.406  12.428
13334PP      PP23438   0.442   8.505  13.497
13335PP      PP23439  12.154  15.399   0.519
13336PP      PP23440   0.072   8.728   2.370
13337PP      PP23441  11.284   5.855  10.104
13338PP      PP23442  10.410   2.360   2.262
13339PP      PP23443   8.348   9.824   2.978
13340PP      PP23444   3.409   8.179   9.010
13341PP      PP23445   8.063   0.290  11.706
13342PP      PP23446   7.335   6.194   9.013
13343PP      PP23447   9.684   0.544  13.216
13344PP      PP23448  14.581  10.495   8.809
13345PP      PP23449   1.514  11.617   3.443
13346PP      PP23450  14.148   1.203   3.300
13347PP      PP23451   6.557  10.549   3.111
13348PP      PP23452   8.067  12.393   9.895
13349PP      PP23453  11.327   3.682   2.040
13350PP      PP23454   3.556   1.673   9.634
13351PP      PP23455  11.095  13.632   0.244
13352PP      PP23456  12.193   8.605   9.626
13353PP      PP23457  11.415  14.470   2.733
13354PP      PP23458   4.676   6.184  10.162
13355PP      PP23459   6.433  11.569   2.875
13356PP      PP23460   4.362  14.170   9.710
13357PP      PP23461  11.251   6.818   4.313
13358PP      PP23462  13.358   7.884   2.027
13359PP      PP23463   6.686  11.891  12.056
13360PP      PP23464  13.597  14.053   2.160
13361PP      PP23465   0.847   3.223   2.790
13362PP      PP23466   6.018  13.854  11.548
13363PP      PP23467  12.537  14.789   4.255
13364PP      PP23468  15.184   1.598   2.130
13365PP      PP23469   2.799   0.152   9.851
13366PP      PP23470  12.746   3.736   9.375
13367PP      PP23471   2.105  10.057   0.790
13368PP      PP23472   9.803   0.927   0.002
13369PP      PP23473   8.493  15.703  10.948
13370PP      PP23474   1.843   8.575  11.479
13371PP      PP23475   0.804   1.299   3.409
13372PP      PP23476  10.083   1.249   0.317
13373PP      PP23477  15.745  14.913   2.097
13374PP      PP23478   3.286   1.320   9.905
13375PP      PP23479  10.928   9.425   2.066
13376PP      PP23480  11.472   2.123   3.052
13377PP      PP23481   9.095  11.873   3.776
13378PP      PP23482   3.368   6.495  12.429
13379PP      PP23483  15.404  14.734  13.106
13380PP      PP23484  15.736  13.505   0.346
13381PP      PP23485   7.765   8.875  11.593
13382PP      PP23486   2.506   3.407  12.432
13383PP      PP23487  10.700  11.970   9.273
13384PP      PP23488   2.919  11.402   8.640
13385PP      PP23489  15.829   3.061   2.125
13386PP      PP23490   8.435   7.075   2.721
13387PP      PP23491   2.833  13.096   2.625
13388PP      PP23492   6.941   6.149  11.619
13389PP      PP23493   5.284  12.677   9.833
13390PP      PP23494   6.960  11.324  11.011
13391PP      PP23495   3.250   1.915   3.429
13392PP      PP23496   1.064   8.342   2.420
13393PP      PP23497   3.758  10.325   0.447
13394PP      PP23498   8.583  11.393   3.556
13395PP      PP23499   7.108   2.666  10.005
13396PP      PP23500  12.393   0.778   3.814
13397PP      PP23501  13.575  11.026  11.380
13398PP      PP23502  13.567   6.347   2.264
13399PP      PP23503  14.314   1.186   8.904
13400PP      PP23504   4.051  15.656   3.081
13401PP      PP23505   7.776  15.496   4.212
13402PP      PP23506   1.610   8.062  11.654
13403PP      PP23507   5.795  13.183   8.599
13404PP      PP23508  10.112   3.048  12.514
13405PP      PP23509  15.797   4.212   3.326
13406PP      PP23510   6.292  12.183   2.116
13407PP      PP23511  13.441  14.461   2.991
13408PP      PP23512   0.322  11.651  10.810
13409PP      PP23513   6.942   6.202  10.766
13410PP      PP23514   3.297   0.819   9.778
13411PP      PP23515  15.105   5.909   2.510
13412PP      PP23516   2.077  12.687   9.415
13413PP      PP23517   5.598  12.629   2.041
13414PP      PP23518   7.750  11.333   2.385
13415PP      PP23519  14.303   5.126   0.824
13416PP      PP23520   9.213  11.516  12.264
13417PP      PP23521   0.193  11.169   8.853
13418PP      PP23522   1.233  12.045   4.275
13419PP      PP23523   1.662  14.906   9.300
13420PP      PP23524   0.691   3.899   2.230
13421PP      PP23525  11.193  11.474  11.929
13422PP      PP23526   6.837  10.725   4.361
13423PP      PP23527   1.871  10.586   2.560
13424PP      PP23528  11.485   1.164   9.964
13425PP      PP23529   9.077   6.089   2.292
13426PP      PP23530  11.134   3.952  11.966
13427PP      PP23531   2.514   7.664   2.595
13428PP      PP23532   2.583   2.447   2.002
13429PP      PP23533   7.714   1.453   9.238
13430PP      PP23534   3.698   9.511  12.946
13431PP      PP23535   4.125  12.028   0.573
13432PP      PP23536   1.435   7.578   0.526
13433PP      PP23537   1.854   5.276   2.445
13434PP      PP23538   7.559   8.852   9.103
13435PP      PP23539  13.451  14.586  12.204
13436PP      PP23540   8.257  13.020   4.638
13437PP      PP23541   7.477   8.672  11.971
13438PP      PP23542  14.734   3.748   3.506
13439PP      PP23543   6.808   9.678  12.881
13440PP      PP23544  12.628  14.819   1.874
13441PP      PP23545  12.198   2.129   3.086
13442PP      PP23546   4.869   6.181   1.208
13443PP      PP23547   3.673   0.558   1.975
13444PP      PP23548   3.087  13.191  10.250
13445PP      PP23549  14.495   3.604   4.155
13446PP      PP23550   7.379   9.956   4.411
13447PP      PP23551  14.641   5.560   8.429
13448PP      PP23552   0.653   0.277   0.052
13449PP      PP23553  12.628   2.587  12.085
13450PP      PP23554  10.531   1.216  11.565
13451PP      PP23555   2.886   4.809   0.409
13452PP      PP23556   4.075   7.197   2.052
13453PP      PP23557  10.136  10.502   2.679
13454PP      PP23558   0.941  11.508   9.030
13455PP      PP23559   1.852   7.157   9.330
13456PP      PP23560  13.050   0.840   2.568
13457PP      PP23561   5.322   4.556   9.351
13458PP      PP23562   2.038  11.200   3.281
13459PP      PP23563  11.404  12.121   0.269
13460PP      PP23564   8.301  12.699  12.828
13461PP      PP23565  11.501  13.381  12.999
13462PP      PP23566   1.632   0.027   1.670
13463PP      PP23567   0.769  15.484   0.678
13464PP      PP23568  13.388  12.068  12.641
13465PP      PP23569   4.762   9.572   9.450
13466PP      PP23570   9.607  14.489   0.338
13467PP      PP23571  13.312   1.156   9.085
13468PP      PP23572  14.894   1.731  12.143
13469PP      PP23573   1.710   8.249   8.324
13470PP      PP23574   9.087   0.864  11.043
13471PP      PP23575  15.327   2.519  11.220
13472PP      PP23576   1.910  15.128   0.849
13473PP      PP23577  11.815   4.201  13.585
13474PP      PP23578   4.091   3.208   2.759
13475PP      PP23579  14.706  12.476   0.435
13476PP      PP23580   5.409   7.427   1.378
13477PP      PP23581   2.638  11.061  13.183
13478PP      PP23582   8.583   3.161   4.396
13479PP      PP23583  12.427   2.671  12.587
13480PP      PP23584   7.247   8.974   0.755
13481PP      PP23585   1.440   4.925   1.983
13482PP      PP23586  12.466  10.396  11.677
13483PP      PP23587   4.374   2.394   9.017
13484PP      PP23588  11.753   2.777  11.400
13485PP      PP23589   0.348  10.870   1.540
13486PP      PP23590   4.980  14.049   0.144
13487PP      PP23591  10.217   4.373   2.048
13488PP      PP23592   1.284   4.244  10.891
13489PP      PP23593   2.493   3.861   0.540
13490PP      PP23594  11.012   8.237   0.393
13491PP      PP23595   0.567   7.923   3.221
13492PP      PP23596  11.286   8.299   9.905
13493PP      PP23597   3.547   9.308   0.954
13494PP      PP23598  12.777  15.524  11.407
13495PP      PP23599   9.719   4.939  11.983
13496PP      PP23600  14.837  10.534  11.502
13497PP      PP23601   7.486   8.021   1.214
13498PP      PP23602   8.336   4.345   3.751
13499PP      PP23603  15.015   1.955   9.619
13500PP      PP23604  12.472  11.250   9.395
13501PP      PP23605  10.248  12.592  11.439
13502PP      PP23606  12.254   3.716   0.358
13503PP      PP23607   7.617  12.709   2.434
13504PP      PP23608   1.479   9.482  13.178
13505PP      PP23609  10.103   3.392   8.766
13506PP      PP23610   0.839  12.343   4.019
13507PP      PP23611   4.098   9.223  11.153
13508PP      PP23612   9.028   3.324   3.244
13509PP      PP23613   3.908   8.985  11.585
13510PP      PP23614  14.081   4.910  12.292
13511PP      PP23615   1.968   3.833   2.853
13512PP      PP23616   1.595   0.929   0.556
13513PP      PP23617   5.830  10.942   0.684
13514PP      PP23618  15.152   4.294  13.588
13515PP      PP23619   8.533  15.677   4.727
13516PP      PP23620  12.140   4.333  12.548
13517PP      PP23621  12.774   2.382   9.155
13518PP      PP23622  10.164   1.806   3.808
13519PP      PP23623   4.587   0.865   9.790
13520PP      PP23624  15.115  11.950   1.493
13521PP      PP23625   3.871   1.075  13.529
13522PP      PP23626  12.174  10.895   9.676
13523PP      PP23627  15.066  10.698   2.028
13524PP      PP23628  11.171  12.065   1.421
13525PP      PP23629   8.939   8.694   2.562
13526PP      PP23630  14.991   1.654   0.592
13527PP      PP23631  15.485   4.140  10.442
13528PP      PP23632   2.150   8.638   9.152
13529PP      PP23633   6.832  11.428  12.178
13530PP      PP23634   5.813   3.506  11.500
13531PP      PP23635  10.765  10.810   9.457
13532PP      PP23636   1.521  11.445   2.426
13533PP      PP23637   5.034   1.732   1.069
13534PP      PP23638   5.515   3.313   9.416
13535PP      PP23639  15.404   0.446  10.735
13536PP      PP23640   8.802   7.801   1.402
13537PP      PP23641   0.791  11.224   1.501
13538PP      PP23642   1.010  15.247  10.018
13539PP      PP23643   5.067   7.266  13.477
13540PP      PP23644   8.414   9.913   1.150
13541PP      PP23645  13.029  14.574  10.427
13542PP      PP23646  13.303  12.250   8.627
13543PP      PP23647   8.690  12.432  11.001
13544PP      PP23648   2.681  14.575   2.871
13545PP      PP23649   5.992  13.171   9.459
13546PP      PP23650  14.879   9.667  12.059
13547PP      PP23651   3.431  10.677  11.423
13548PP      PP23652   0.377   7.193   0.037
13549PP      PP23653   1.853  14.168   4.932
13550PP      PP23654  10.551   9.876  10.532
13551PP      PP23655   6.462   8.858   4.041
13552PP      PP23656   2.282  13.856   2.943
13553PP      PP23657   7.355   7.940   9.752
13554PP      PP23658  11.549   9.224  10.594
13555PP      PP23659  13.970   4.083  12.047
13556PP      PP23660   7.434   6.127   1.752
13557PP      PP23661  14.807   6.441  13.280
13558PP      PP23662   3.071   2.068   3.950
13559PP      PP23663   4.146  11.184   1.969
13560PP      PP23664   1.285   8.603   8.284
13561PP      PP23665  13.179   5.643   9.905
13562PP      PP23666   8.941  12.812   3.555
13563PP      PP23667   9.785   2.246  12.308
13564PP      PP23668  10.152   8.137  13.442
13565PP      PP23669   2.574  14.088   0.407
13566PP      PP23670   8.854   1.265   9.957
13567PP      PP23671   9.283   1.740  12.008
13568PP      PP23672   9.204  12.769  12.209
13569PP      PP23673   1.722  10.349  12.756
13570PP      PP23674  15.225   9.493   8.451
13571PP      PP23675  15.002  10.258   0.632
13572PP      PP23676   5.914  10.523   1.248
13573PP      PP23677   6.387  15.681  11.137
13574PP      PP23678  14.119   6.418   4.386
13575PP      PP23679  13.618  12.352   1.948
13576PP      PP23680   8.452   1.564   5.023
13577PP      PP23681   6.328   2.297   1.692
13578PP      PP23682  13.402   9.090   9.061
13579PP      PP23683  10.812   0.118   9.603
13580PP      PP23684  13.696   1.440  13.007
13581PP      PP23685  13.968   6.782   0.243
13582PP      PP23686  10.097   1.304   3.210
13583PP      PP23687   3.790   1.798  12.105
13584PP      PP23688   5.809  13.859  12.046
13585PP      PP23689  12.627  15.056  11.608
13586PP      PP23690   5.763   7.621   8.435
13587PP      PP23691   9.078  14.324   2.405
13588PP      PP23692  11.297   7.850   2.177
13589PP      PP23693   8.428   2.176  11.098
13590PP      PP23694  14.508   3.263  10.921
13591PP      PP23695  12.731  12.999  13.513
13592PP      PP23696   6.976   5.246   2.287
13593PP      PP23697   4.935  15.677  12.407
13594PP      PP23698   1.678   7.936   9.720
13595PP      PP23699   7.368   3.959  10.150
13596PP      PP23700  11.243   8.693   2.211
13597PP      PP23701   7.629   4.359   0.033
13598PP      PP23702  11.117   2.491   1.567
13599PP      PP23703  10.586  12.686   9.513
13600PP      PP23704   2.917   6.182  11.200
13601PP      PP23705  14.272   2.663  12.272
13602PP      PP23706   1.844   7.396  10.510
13603PP      PP23707  12.205   6.872   9.156
13604PP      PP23708   9.161   1.771   2.966
13605PP      PP23709   3.968   6.821   2.942
13606PP      PP23710   1.154  14.878  11.987
13607PP      PP23711  13.820   9.615  10.570
13608PP      PP23712  10.931   4.127  12.409
13609PP      PP23713   4.834  11.232  13.113
13610PP      PP23714  14.318   3.077   0.474
13611PP      PP23715   2.681  10.047   1.497
13612PP      PP23716  15.732  12.133   2.214
13613PP      PP23717   6.353  11.935  10.745
13614PP      PP23718   6.660  15.575   2.927
13615PP      PP23719   3.934  10.645   8.709
13616PP      PP23720   8.107  14.337   1.745
13617PP      PP23721   5.319   5.934  13.001
13618PP      PP23722  13.489   8.373   9.748
13619PP      PP23723  12.904   3.139   3.063
13620PP      PP23724   5.377   2.467   4.757
13621PP      PP23725   1.836  12.330  13.490
13622PP      PP23726   1.192   1.989  12.552
13623PP      PP23727   5.291  13.587   1.089
13624PP      PP23728   7.836   5.481   0.503
13625PP      PP23729   2.480   4.731   0.738
13626PP      PP23730  10.343  13.597   2.552
13627PP      PP23731   1.655  14.521  12.636
13628PP      PP23732   1.559   9.421   8.916
13629PP      PP23733  14.054  12.442  11.406
13630PP      PP23734  11.229   9.698  11.368
13631PP      PP23735   6.188  11.172   0.299
13632PP      PP23736   9.680  13.984   1.130
13633PP      PP23737  14.354  10.651   3.588
13634PP      PP23738   1.498  13.055   1.523
13635PP      PP23739   7.572   5.111  12.551
13636PP      PP23740   7.973   3.633   1.912
13637PP      PP23741   4.489   4.747  11.292
13638PP      PP23742   0.932   4.183  13.518
13639PP      PP23743  12.249  15.226   1.020
13640PP      PP23744  14.016   0.319   8.574
13641PP      PP23745  11.649   2.951   1.741
13642PP      PP23746   4.805  10.441   2.057
13643PP      PP23747  12.035   7.177  10.130
13644PP      PP23748   6.169  15.064   0.981
13645PP      PP23749   7.357  14.840   0.499
13646PP      PP23750   8.131   5.886   1.107
13647PP      PP23751   3.041   3.089  12.109
13648PP      PP23752   1.562  14.371   4.348
13649PP      PP23753   3.429  12.796  10.332
13650PP      PP23754   4.337   2.823  10.097
13651PP      PP23755   7.785   6.716  10.677
13652PP      PP23756  13.432  10.096  13.287
13653PP      PP23757   6.694  10.110  10.367
13654PP      PP23758  15.598   9.992  11.304
13655PP      PP23759  11.808   4.780   8.955
13656PP      PP23760  15.131  10.634  11.027
13657PP      PP23761   8.432  11.608   3.088
13658PP      PP23762   2.449  14.774  12.253
13659PP      PP23763  12.695   2.496   2.247
13660PP      PP23764   9.459   6.392   0.454
13661PP      PP23765  12.488  14.204   1.451
13662PP      PP23766  11.276   4.743   2.620
13663PP      PP23767   8.466   2.600   9.069
13664PP      PP23768  11.939   3.876   0.969
13665PP      PP23769   7.331   8.619   0.369
13666PP      PP23770   0.757   8.654   8.033
13667PP      PP23771   8.509   4.251  13.182
13668PP      PP23772  12.397   8.174   1.039
13669PP      PP23773  10.209   6.510   1.008
13670PP      PP23774   2.287   2.245  13.195
13671PP      PP23775   4.908   9.446  11.867
13672PP      PP23776   2.158   1.080   3.629
13673PP      PP23777   3.475   9.393   1.948
13674PP      PP23778   5.924   7.124   8.535
13675PP      PP23779   0.697   0.027   2.963
13676PP      PP23780  11.026   4.964  11.980
13677PP      PP23781  13.364  14.583  11.670
13678PP      PP23782   8.704  14.081   0.056
13679PP      PP23783   9.862   6.789   1.784
13680PP      PP23784  13.835   2.076  12.207
13681PP      PP23785  13.359  11.959   0.538
13682PP      PP23786  15.206  11.223   9.144
13683PP      PP23787   1.485   1.437  11.455
13684PP      PP23788   3.100  12.010   8.849
13685PP      PP23789  10.529  12.975  12.157
13686PP      PP23790  14.641  13.702   0.868
13687PP      PP23791   7.549   4.580  11.970
13688PP      PP23792  15.116   8.214  12.997
13689PP      PP23793  10.592  14.861  12.544
13690PP      PP23794  13.806  15.411   3.795
13691PP      PP23795   3.339   4.978   2.180
13692PP      PP23796   1.720  10.634  11.775
13693PP      PP23797   9.637   1.821   0.993
13694PP      PP23798   8.351  13.287   2.281
13695PP      PP23799  12.183   3.054   8.979
13696PP      PP23800   3.494  10.022   0.103
13697PP      PP23801   1.395   8.107   0.603
13698PP      PP23802  11.448  10.369   4.220
13699PP      PP23803   5.881  12.644  12.831
13700PP      PP23804   0.196   0.874   3.094
13701PP      PP23805  14.594   5.155  11.301
13702PP      PP23806  15.224   9.015  12.257
13703PP      PP23807   2.276   8.041  13.263
13704PP      PP23808   5.710   4.282   9.583
13705PP      PP23809   0.634  13.261  10.618
13706PP      PP23810   5.793   0.998  11.673
13707PP      PP23811  11.718   7.306   3.391
13708PP      PP23812  13.945  11.236  12.800
13709PP      PP23813   8.564   5.456  12.084
13710PP      PP23814   0.022   7.554  12.567
13711PP      PP23815   7.395  15.690  11.743
13712PP      PP23816  10.466   5.006  13.392
13713PP      PP23817  11.402   0.510  10.507
13714PP      PP23818   0.660   8.292   8.939
13715PP      PP23819  12.694   5.158   8.225
13716PP      PP23820   2.881  10.614  13.177
13717PP      PP23821   6.488  10.806  11.715
13718PP      PP23822   1.480  12.994   3.756
13719PP      PP23823   7.266  11.272   2.214
13720PP      PP23824   9.439   4.674  11.157
13721PP      PP23825   0.449  10.106   2.105
13722PP      PP23826  10.339   0.092  11.868
13723PP      PP23827   7.422   4.556   3.809
13724PP      PP23828   7.285  12.439   3.228
13725PP      PP23829  12.506  14.741   9.000
13726PP      PP23830   5.432  14.043  13.503
13727PP      PP23831   8.710  14.955  10.565
13728PP      PP23832   3.685  11.896   2.649
13729PP      PP23833   7.431   7.772   2.760
13730PP      PP23834  13.115   2.849   3.853
13731PP      PP23835   2.826   1.908  10.980
13732PP      PP23836  15.649   4.703   1.352
13733PP      PP23837   8.827   7.249  12.324
13734PP      PP23838   2.804   9.484  13.558
13735PP      PP23839   0.669   6.303   3.648
13736PP      PP23840  10.914   3.456  13.030
13737PP      PP23841  15.407  12.519   3.410
13738PP      PP23842   7.196   5.619  13.373
13739PP      PP23843   9.788   2.604   3.992
13740PP      PP23844   7.215   1.616   2.240
13741PP      PP23845  14.780   8.455  12.465
13742PP      PP23846   0.150   9.461   0.784
13743PP      PP23847  11.894  12.848  12.425
13744PP      PP23848  14.624   2.980  12.504
13745PP      PP23849   8.109   6.234  12.104
13746PP      PP23850   1.707  11.885   0.113
13747PP      PP23851  10.067   2.352   3.200
13748PP      PP23852   7.867  15.218   3.576
13749PP      PP23853   2.115  12.224   2.261
13750PP      PP23854  14.359   1.361   2.491
13751PP      PP23855  12.614   7.559   9.612
13752PP      PP23856   0.865   3.764   2.741
13753PP      PP23857  15.488  13.273   4.038
13754PP      PP23858   6.108  11.188  12.216
13755PP      PP23859  12.538   4.738   0.432
13756PP      PP23860  13.789   5.709  13.294
13757PP      PP23861   1.051   2.639  11.011
13758PP      PP23862   4.531   5.690  10.372
13759PP      PP23863   4.099  10.037  13.082
13760PP      PP23864  13.337   3.694   3.726
13761PP      PP23865  12.161   9.283  13.079
13762PP      PP23866  10.725   6.900  12.941
13763PP      PP23867   2.621  15.420  12.994
13764PP      PP23868   0.138   4.356   0.886
13765PP      PP23869   8.848  12.497  12.497
13766PP      PP23870  13.494   5.388   2.647
13767PP      PP23871  11.924  15.054  10.517
13768PP      PP23872  10.528   0.574   3.335
13769PP      PP23873   5.149  15.538   3.448
13770PP      PP23874   5.259  15.441   2.938
13771PP      PP23875   0.711  14.982   4.947
13772PP      PP23876  13.708   2.379   3.705
13773PP      PP23877   3.390   9.941   8.843
13774PP      PP23878   8.291   6.543  13.475
13775PP      PP23879   9.189   4.209   2.034
13776PP      PP23880   8.311  10.130   2.080
13777PP      PP23881  11.085  11.718  12.794
13778PP      PP23882   7.790  12.017  10.108
13779PP      PP23883  13.553  11.296   9.732
13780PP      PP23884   2.432   7.240   3.514
13781PP      PP23885  14.548   8.672  11.242
13782PP      PP23886   7.455   1.150   3.636
13783PP      PP23887  15.660  15.064  10.819
13784PP      PP23888   5.763   3.844   3.533
13785PP      PP23889   1.374  10.959   2.482
13786PP      PP23890  15.552   2.006   1.293
13787PP      PP23891  15.230   1.345  12.956
13788PP      PP23892   0.313   6.886  11.886
13789PP      PP23893  10.701  13.619   2.944
13790PP      PP23894   9.443   3.977   2.414
13791PP      PP23895   7.402   3.137   0.321
13792PP      PP23896   6.754   8.499   1.861
13793PP      PP23897   6.802  10.807   9.834
13794PP      PP23898   8.715   4.421  12.682
13795PP      PP23899   4.505  10.407   9.618
13796PP      PP23900   9.615   8.714   9.870
13797PP      PP23901  15.492   3.637   9.225
13798PP      PP23902  11.957   2.448   9.601
13799PP      PP23903  14.625  10.119   0.990
13800PP      PP23904   9.690   0.462   1.536
13801PP      PP23905   1.996   4.750   4.585
13802PP      PP23906   5.550   7.463   0.308
13803PP      PP23907   4.727  12.492   8.659
13804PP      PP23908   4.101   2.447  12.361
13805PP      PP23909   5.052  13.428   9.185
13806PP      PP23910   9.652   5.319   4.407
13807PP      PP23911   7.608   6.518   2.686
13808PP      PP23912  10.550   1.304   1.072
13809PP      PP23913  12.649   8.798   1.974
13810PP      PP23914   0.929   9.956   3.341
13811PP      PP23915   1.561  14.378   2.536
13812PP      PP23916   0.459   4.592   1.519
13813PP      PP23917   8.364  12.327   9.455
13814PP      PP23918   6.782  12.489   3.465
13815PP      PP23919   9.176  11.257   4.249
13816PP      PP23920   5.127  13.491  10.562
13817PP      PP23921  10.906  14.296   1.936
13818PP      PP23922  13.272   0.329   3.513
13819PP      PP23923   9.309   1.686  13.149
13820PP      PP23924   0.637  15.448  12.781
13821PP      PP23925  13.157   4.966  11.173
13822PP      PP23926   9.788   4.732  10.424
13823PP      PP23927  10.202  10.258   3.996
13824PP      PP23928  13.410   7.961   9.384
13825PP      PP23929   3.880   0.979   0.740
13826PP      PP23930  13.895   8.594  13.474
13827PP      PP23931   5.172   6.726   2.377
13828PP      PP23932   4.048   9.270   2.551
13829PP      PP23933   6.422  12.581   9.169
13830PP      PP23934   7.305   5.775  12.818
13831PP      PP23935   6.098   8.902  12.053
13832PP      PP23936   5.463   1.723   0.178
13833PP      PP23937   0.725  12.904   1.258
13834PP      PP23938   6.550   9.612   9.276
13835PP      PP23939   4.908  11.721   0.887
13836PP      PP23940   3.920  10.662  11.226
13837PP      PP23941  12.912   9.702   9.780
13838PP      PP23942   2.388   9.810  13.393
13839PP      PP23943   6.737  14.163   2.875
13840PP      PP23944   2.587   5.845  11.414
13841PP      PP23945   6.887   3.849   9.776
13842PP      PP23946   1.526   7.732  13.389
13843PP      PP23947   9.240  10.556  13.219
13844PP      PP23948  14.624   9.902   9.155
13845PP      PP23949   8.357   5.249   1.451
13846PP      PP23950  10.007   4.926   9.485
13847PP      PP23951   3.152  10.420   8.808
13848PP      PP23952   8.864   4.035  11.293
13849PP      PP23953   5.960   5.383  13.452
13850PP      PP23954  12.656   3.111   0.119
13851PP      PP23955   6.301   2.844  10.427
13852PP      PP23956   4.518   5.265  11.323
13853PP      PP23957  15.007   6.219   8.239
13854PP      PP23958  11.973   8.413   2.561
13855PP      PP23959  13.248  15.785   2.764
13856PP      PP23960  15.614   3.249   2.579
13857PP      PP23961   1.140   9.050   9.985
13858PP      PP23962   2.598  15.156  10.611
13859PP      PP23963  13.833   1.560  11.514
13860PP      PP23964  11.484  11.783  10.496
13861PP      PP23965  15.824  14.974   9.630
13862PP      PP23966   9.788   1.443  11.079
13863PP      PP23967   5.893   7.044   2.846
13864PP      PP23968  13.348  10.858   1.910
13865PP      PP23969   7.266   9.719   1.179
13866PP      PP23970   1.725   2.837  12.770
13867PP      PP23971   9.752   0.579  10.026
13868PP      PP23972  10.513  10.808   1.585
13869PP      PP23973   0.746   2.445   4.635
13870PP      PP23974   5.903   6.171   8.431
13871PP      PP23975   0.280   9.539  11.183
13872PP      PP23976   3.936  13.979  11.497
13873PP      PP23977   7.051   9.675   0.117
13874PP      PP23978   4.970  14.340   8.995
13875PP      PP23979   7.398   0.186   2.377
13876PP      PP23980  10.786   0.678   1.601
13877PP      PP23981   2.593   7.564   0.745
13878PP      PP23982   4.396   7.082   0.580
13879PP      PP23983   7.505  14.936  11.006
13880PP      PP23984  15.784   8.978  12.954
13881PP      PP23985  13.983   3.442  12.087
13882PP      PP23986  13.223   3.261   3.456
13883PP      PP23987  11.404   6.924   8.417
13884PP      PP23988   0.987   6.198   2.945
13885PP      PP23989  11.774  11.257   2.388
13886PP      PP23990   7.884  11.523  10.962
13887PP      PP23991  14.308  12.200   9.477
13888PP      PP23992   8.586   6.345  11.953
13889PP      PP23993   9.268   7.128   3.230
13890PP      PP23994   0.677   3.956  10.790
13891PP      PP23995  14.130  11.855   4.546
13892PP      PP23996  10.893   0.610  10.383
13893PP      PP23997   7.651   1.891  12.647
13894PP      PP23998   8.564   8.717  12.292
13895PP      PP23999   9.197   5.231   2.790
13896PP      PP24000   0.631  11.838   1.316
13897PP      PP24001  14.223  12.644  10.350
13898PP      PP24002   1.388   8.710  11.137
13899PP      PP24003   9.261  13.494  11.041
13900PP      PP24004   4.055  10.475   2.320
13901PP      PP24005   9.727   0.739   4.515
13902PP      PP24006  13.968   8.214   0.656
13903PP      PP24007   9.182  10.524   3.043
13904PP      PP24008   9.196   9.371  11.926
13905PP      PP24009   7.102   0.172   3.814
13906PP      PP24010  13.589   2.736   4.079
13907PP      PP24011   4.819  10.487   9.211
13908PP      PP24012  13.815  13.317   2.618
13909PP      PP24013   5.405   9.863   0.951
13910PP      PP24014   7.064   9.407   2.094
13911PP      PP24015  13.748   3.938  13.584
13912PP      PP24016   7.458  13.073  13.152
13913PP      PP24017   3.290   9.036  12.337
13914PP      PP24018   7.175   7.165  10.065
13915PP      PP24019  13.143   6.688   0.718
13916PP      PP24020  12.247   9.249   4.186
13917PP      PP24021   6.471   3.722  10.627
13918PP      PP24022   7.298   0.022   4.297
13919PP      PP24023   6.940   0.074   2.024
13920PP      PP24024   6.233   6.164   9.699
13921PP      PP24025   0.911  11.469  13.363
13922PP      PP24026  10.879   8.601   9.752
13923PP      PP24027   6.151   0.103  13.593
13924PP      PP24028   3.014  12.812   9.380
13925PP      PP24029   8.294   0.247  12.946
13926PP      PP24030  10.205   4.401  10.447
13927PP      PP24031   6.049   6.952  11.830
13928PP      PP24032  13.851  10.171   3.642
13929PP      PP24033   2.385   7.971   3.989
13930PP      PP24034   8.939   7.113   2.021
13931PP      PP24035   0.014   4.426  10.146
13932PP      PP24036  10.227   4.775  12.007
13933PP      PP24037   7.661  10.560  10.302
13934PP      PP24038  12.526   6.381  10.397
13935PP      PP24039   5.759   2.073   0.952
13936PP      PP24040   2.824  12.947   9.848
13937PP      PP24041   6.348   2.454  11.608
13938PP      PP24042   4.681  10.773   2.907
13939PP      PP24043   4.513   7.826   3.734
13940PP      PP24044  14.764   8.383  10.187
13941PP      PP24045   8.278   8.628  10.415
13942PP      PP24046   2.554   8.534   2.623
13943PP      PP24047   1.517  14.236   1.455
13944PP      PP24048  10.474   4.308   3.906
13945PP      PP24049  10.404  14.637   4.163
13946PP      PP24050   2.997   6.857   9.150
13947PP      PP24051  14.872   1.529   2.697
13948PP      PP24052   0.464   0.359   3.904
13949PP      PP24053  12.001   1.126   3.750
13950PP      PP24054   1.894  15.429   1.278
13951PP      PP24055  10.603  12.793   0.288
13952PP      PP24056  14.639   5.391   3.916
13953PP      PP24057   5.278  12.996  12.316
13954PP      PP24058  11.934   4.651   0.266
13955PP      PP24059   8.781  12.993   4.653
13956PP      PP24060  15.631   5.203   1.115
13957PP      PP24061   6.047  14.693   3.082
13958PP      PP24062   2.061   8.383  10.047
13959PP      PP24063   4.185  13.029   4.316
13960PP      PP24064  14.696   0.139  12.565
13961PP      PP24065  11.185   9.345   9.923
13962PP      PP24066   4.046   3.457   3.659
13963PP      PP24067   8.956  15.048  11.910
13964PP      PP24068   7.697  15.111   4.947
13965PP      PP24069   6.266   6.051  13.336
13966PP      PP24070   1.559  10.977   3.301
13967PP      PP24071  10.185   2.584  12.316
13968PP      PP24072  15.417  12.515  11.144
13969PP      PP24073  14.759  10.640  12.028
13970PP      PP24074  12.678   9.306   1.824
13971PP      PP24075  12.207  10.316   0.742
13972PP      PP24076   2.113   2.628   4.652
13973PP      PP24077   9.637  12.023   8.609
13974PP      PP24078  12.994   9.410  13.098
13975PP      PP24079   5.436   9.087  12.708
13976PP      PP24080   4.493  12.002   1.644
13977PP      PP24081  12.001   6.144   9.868
13978PP      PP24082  13.634  13.251   3.523
13979PP      PP24083  15.211  12.232   2.137
13980PP      PP24084   8.328   7.650  11.789
13981PP      PP24085   5.486  13.269   0.026
13982PP      PP24086   8.109  10.379   3.900
13983PP      PP24087  10.035  11.228  13.425
13984PP      PP24088  14.167   4.162  10.903
13985PP      PP24089   2.233  11.405  10.353
13986PP      PP24090   5.476   3.867  10.543
13987PP      PP24091   4.139   2.052  13.392
13988PP      PP24092  11.553   6.144  12.098
13989PP      PP24093   8.371  15.792   3.882
13990PP      PP24094  13.562  15.222  11.018
13991PP      PP24095  14.878   3.398  10.565
13992PP      PP24096  12.489   4.382  10.962
13993PP      PP24097  12.966   9.429  10.805
13994PP      PP24098  10.799   1.470  13.147
13995PP      PP24099   4.728  13.016  12.196
13996PP      PP24100   3.707   5.857  10.891
13997PP      PP24101   8.075  15.304   2.557
13998PP      PP24102   2.493   6.335  11.603
13999PP      PP24103   6.939   1.616  12.192
14000PP      PP24104  10.684  14.300   9.668
14001PP      PP24105  15.676  12.970   3.238
14002PP      PP24106   6.496   6.490   0.536
14003PP      PP24107   7.984   9.491   2.790
14004PP      PP24108   4.979   6.730  13.469
14005PP      PP24109   0.310   7.901   4.600
14006PP      PP24110   0.068   5.952  12.358
14007PP      PP24111  12.970   8.057   2.638
14008PP      PP24112   2.046   1.566  11.033
14009PP      PP24113  12.269   3.226   0.526
14010PP      PP24114   9.396  13.840   2.673
14011PP      PP24115  10.538  14.564  10.315
14012PP      PP24116   8.060  11.925   9.667
14013PP      PP24117  12.991  10.288   3.943
14014PP      PP24118   7.282   2.688   1.928
14015PP      PP24119   0.840   3.817   0.282
14016PP      PP24120  13.690  13.331  13.365
14017PP      PP24121   5.908  13.368  11.873
14018PP      PP24122   6.080  13.639   3.202
14019PP      PP24123  15.039   3.511   1.234
14020PP      PP24124   2.646   1.470  12.856
14021PP      PP24125   6.367   4.723   1.801
14022PP      PP24126   0.693   0.551   0.986
14023PP      PP24127   1.798   6.495   8.652
14024PP      PP24128   8.202   8.883  12.742
14025PP      PP24129  10.906   9.853   1.786
14026PP      PP24130  10.638   6.629  13.381
14027PP      PP24131   9.051   3.624   1.011
14028PP      PP24132   3.274   9.872   9.737
14029PP      PP24133   5.057   6.993  10.349
14030PP      PP24134  10.719   2.585   1.209
14031PP      PP24135   3.451   0.932  12.623
14032PP      PP24136  14.046  11.395   9.912
14033PP      PP24137   1.776  13.802   2.155
14034PP      PP24138  12.908   4.275  13.490
14035PP      PP24139  14.412  15.063   4.542
14036PP      PP24140   6.024   0.727   2.903
14037PP      PP24141   4.149   8.617   2.855
14038PP      PP24142  13.356   7.327  12.634
14039PP      PP24143   7.226   3.715  11.073
14040PP      PP24144  11.097  14.462   0.799
14041PP      PP24145   8.830  14.378  12.091
14042PP      PP24146   7.634   5.426  13.101
14043PP      PP24147  14.094  10.797   2.327
14044PP      PP24148   0.089   0.167   3.541
14045PP      PP24149   8.331   4.861   1.809
14046PP      PP24150   9.562  15.034   1.235
14047PP      PP24151  11.646   6.174   1.250
14048PP      PP24152   0.354   9.162   1.177
14049PP      PP24153  15.116   0.434   1.689
14050PP      PP24154   0.574   4.203  12.189
14051PP      PP24155  10.861   0.224  11.864
14052PP      PP24156  14.196   3.633   3.728
14053PP      PP24157   8.070  10.641  10.686
14054PP      PP24158  11.084  11.072  13.444
14055PP      PP24159  10.281   3.869  11.617
14056PP      PP24160  14.913   2.065  11.717
14057PP      PP24161   6.165   5.196  10.272
14058PP      PP24162  10.136  11.080   8.976
14059PP      PP24163  12.002   9.765  12.953
14060PP      PP24164  11.778  14.764   2.975
14061PP      PP24165  15.758  10.956  10.672
14062PP      PP24166   0.932   6.735   9.469
14063PP      PP24167  11.221  11.529  10.892
14064PP      PP24168   9.976   7.238  13.029
14065PP      PP24169   6.664  13.280  12.783
14066PP      PP24170   9.572  11.681  10.566
14067PP      PP24171   9.612   0.324   4.217
14068PP      PP24172  12.797  12.055  11.174
14069PP      PP24173   3.249  13.960  10.992
14070PP      PP24174  12.231   2.155   3.608
14071PP      PP24175   9.187   1.441  12.428
14072PP      PP24176   9.879   9.012   0.421
14073PP      PP24177  10.380   6.860   9.483
14074PP      PP24178   8.834   1.142   4.333
14075PP      PP24179   9.185   7.674  12.159
14076PP      PP24180   5.203  10.065   2.395
14077PP      PP24181   0.670  11.686   3.945
14078PP      PP24182   4.144  11.210   1.392
14079PP      PP24183   3.467   3.116   1.948
14080PP      PP24184  11.955  12.480   1.421
14081PP      PP24185  11.983   4.811   3.997
14082PP      PP24186  13.976  15.566   1.010
14083PP      PP24187  12.359  11.419   2.956
14084PP      PP24188  12.410   8.937  10.407
14085PP      PP24189  14.468  12.202  11.128
14086PP      PP24190   9.738   2.970   0.545
14087PP      PP24191  11.581   4.175  12.211
14088PP      PP24192  14.018  12.517   2.255
14089PP      PP24193  14.087   9.979  12.578
14090PP      PP24194  11.498  12.903  12.083
14091PP      PP24195   1.011   8.358   9.350
14092PP      PP24196  12.200   8.173   3.552
14093PP      PP24197  12.217   7.220   2.052
14094PP      PP24198   2.160  14.616   4.081
14095PP      PP24199   2.477  10.589  12.868
14096PP      PP24200   8.666   8.337  10.252
14097PP      PP24201   3.762   3.239   2.360
14098PP      PP24202  12.086   1.604   0.536
14099PP      PP24203  11.414   7.607   3.068
14100PP      PP24204   5.362  13.642   2.777
14101PP      PP24205  10.945  13.170   0.492
14102PP      PP24206  11.719  11.895   3.296
14103PP      PP24207  10.982  15.137   3.920
14104PP      PP24208   2.651  13.753   3.704
14105PP      PP24209   6.285   5.962   2.749
14106PP      PP24210   2.997   1.375  13.418
14107PP      PP24211  11.860   9.392   0.935
14108PP      PP24212   4.456   1.699   4.052
14109PP      PP24213  14.858   9.915   3.286
14110PP      PP24214  10.688   2.595   1.893
14111PP      PP24215   8.539   4.509  11.776
14112PP      PP24216   5.298  12.736  10.367
14113PP      PP24217   5.395  11.712   9.067
14114PP      PP24218   4.978   5.532  11.251
14115PP      PP24219   7.272   1.449  10.563
14116PP      PP24220   2.450  11.365   0.587
14117PP      PP24221  12.693   9.518  12.277
14118PP      PP24222  14.336   9.551  10.313
14119PP      PP24223  12.722  12.124   9.701
14120PP      PP24224  11.215  15.356   2.091
14121PP      PP24225   8.370   2.661  13.196
14122PP      PP24226   9.478   2.706   1.317
14123PP      PP24227  10.253   4.511  10.955
14124PP      PP24228   5.255   2.496  10.892
14125PP      PP24229  15.739  12.594  10.658
14126PP      PP24230  12.576  12.363   4.245
14127PP      PP24231   3.374  12.381  10.058
14128PP      PP24232   8.626  11.774   2.641
14129PP      PP24233  15.547   2.607   2.014
14130PP      PP24234   1.297  11.189   2.013
14131PP      PP24235  10.928   0.880  10.826
14132PP      PP24236   8.739  12.080  13.371
14133PP      PP24237   4.794   9.882   2.688
14134PP      PP24238   1.760  10.449   3.046
14135PP      PP24239   4.175   2.655   4.301
14136PP      PP24240  11.139   3.958  11.177
14137PP      PP24241   2.977   0.751  12.623
14138PP      PP24242  13.229   6.678   1.941
14139PP      PP24243  12.290  10.569  12.177
14140PP      PP24244  11.139   6.815   9.457
14141PP      PP24245   5.365   6.985   0.190
14142PP      PP24246  10.035   2.712   0.210
14143PP      PP24247  11.714  14.084   4.284
14144PP      PP24248   9.884  14.326   0.761
14145PP      PP24249   3.695   3.095   9.040
14146PP      PP24250   8.109  12.122   4.324
14147PP      PP24251   9.193  15.264   4.976
14148PP      PP24252   4.261  15.692   9.755
14149PP      PP24253   2.492   0.838  10.324
14150PP      PP24254   7.711   4.164  12.278
14151PP      PP24255   6.550   1.200  13.084
14152PP      PP24256  13.758  12.950   3.935
14153PP      PP24257   9.239   6.000   0.188
14154PP      PP24258  14.945   6.881   1.967
14155PP      PP24259   5.898   7.032   0.222
14156PP      PP24260   2.693   8.659   0.036
14157PP      PP24261  15.202   6.851  10.089
14158PP      PP24262   4.974   2.005   2.122
14159PP      PP24263   0.547   9.546   3.043
14160PP      PP24264  12.210  10.950   2.715
14161PP      PP24265  14.933   2.396   9.342
14162PP      PP24266   3.694   5.338  12.937
14163PP      PP24267   9.192   6.270  10.027
14164PP      PP24268   9.051  15.356   3.296
14165PP      PP24269   3.405  11.212   8.563
14166PP      PP24270   3.481   9.928  13.184
14167PP      PP24271   6.316   6.971   0.548
14168PP      PP24272   8.383   7.192  12.026
14169PP      PP24273   1.028   7.873  12.509
14170PP      PP24274   5.675   4.538  12.531
14171PP      PP24275   2.429   2.840   3.035
14172PP      PP24276   7.475   4.381   9.821
14173PP      PP24277   3.961  10.532  10.724
14174PP      PP24278   1.119   7.650   2.521
14175PP      PP24279   8.657   5.144   8.403
14176PP      PP24280   2.662   9.549  12.026
14177PP      PP24281   6.449  11.041   3.474
14178PP      PP24282   2.813   4.229   4.049
14179PP      PP24283  14.404   6.642   8.598
14180PP      PP24284  15.198   0.483  11.236
14181PP      PP24285   9.014   0.015   2.574
14182PP      PP24286   9.565  15.257  11.088
14183PP      PP24287   0.325   8.536  11.325
14184PP      PP24288   9.292   8.027   1.452
14185PP      PP24289   9.849  14.945  11.787
14186PP      PP24290   2.855   9.977   8.809
14187PP      PP24291  11.295   5.659   2.079
14188PP      PP24292  14.704   3.410  12.764
14189PP      PP24293  11.395   9.687   1.771
14190PP      PP24294   1.835   9.768   8.604
14191PP      PP24295   9.135  11.375   3.581
14192PP      PP24296  11.696  13.136   3.731
14193PP      PP24297   1.623   0.436   4.014
14194PP      PP24298  15.220  12.387   1.190
14195PP      PP24299   6.331  12.879  10.979
14196PP      PP24300   0.316   9.959   9.387
14197PP      PP24301   7.906   7.714   1.009
14198PP      PP24302   7.431   1.290   3.105
14199PP      PP24303   7.695  13.557   0.218
14200PP      PP24304  11.186   4.716   1.614
14201PP      PP24305  15.063   3.481  11.062
14202PP      PP24306   8.511   2.181  10.583
14203PP      PP24307   5.883  11.926  10.501
14204PP      PP24308   7.878  13.354  11.910
14205PP      PP24309   6.100   7.204  12.334
14206PP      PP24310   1.020   7.746   1.382
14207PP      PP24311   6.092  12.562   9.637
14208PP      PP24312   5.572   1.028   3.567
14209PP      PP24313   1.376   8.402  10.705
14210PP      PP24314   4.656   6.134  10.688
14211PP      PP24315   8.091   1.860   9.184
14212PP      PP24316  11.938   6.707   9.896
14213PP      PP24317  13.148  13.022  10.345
14214PP      PP24318  14.848  15.282   3.086
14215PP      PP24319  13.801   6.534  12.901
14216PP      PP24320  10.441   4.968   0.339
14217PP      PP24321  14.882   6.286   2.810
14218PP      PP24322   6.512   1.184   4.595
14219PP      PP24323   2.230  14.220   1.862
14220PP      PP24324  10.994   2.372   0.289
14221PP      PP24325   2.197  10.348   1.235
14222PP      PP24326   6.048   2.694   0.397
14223PP      PP24327   0.411   3.067  10.314
14224PP      PP24328   3.942   9.995  12.159
14225PP      PP24329   6.963   7.891   1.205
14226PP      PP24330  14.883   0.606  13.340
14227PP      PP24331  15.772  15.126   3.406
14228PP      PP24332  15.015  15.409   1.478
14229PP      PP24333  10.241  11.406   4.461
14230PP      PP24334  14.309  11.989   3.649
14231PP      PP24335   4.642   6.690   2.371
14232PP      PP24336   6.872   0.945   1.106
14233PP      PP24337   5.771   4.791   9.457
14234PP      PP24338   5.531  14.883   2.133
14235PP      PP24339  15.595   1.051   4.819
14236PP      PP24340   6.397   6.698   9.031
14237PP      PP24341   1.495  15.035  12.551
14238PP      PP24342   8.468  14.210   3.552
14239PP      PP24343  11.638  14.206   0.201
14240PP      PP24344  10.785   9.575   2.540
14241PP      PP24345   1.879   8.202   3.994
14242PP      PP24346  12.412   0.842   2.655
14243PP      PP24347   6.838   6.819  13.269
14244PP      PP24348   2.633  15.528   4.579
14245PP      PP24349   8.142   3.175   4.952
14246PP      PP24350  12.787   5.657  12.940
14247PP      PP24351   0.027  10.925  12.865
14248PP      PP24352   5.749   7.368   3.982
14249PP      PP24353   7.490   1.343   9.709
14250PP      PP24354   6.000   7.872   2.204
14251PP      PP24355  14.444  14.502   2.394
14252PP      PP24356  11.227  15.143  11.597
14253PP      PP24357  15.719  10.958   1.218
14254PP      PP24358   8.901   7.383  11.827
14255PP      PP24359   8.957   1.386   2.609
14256PP      PP24360  13.838   1.394   1.655
14257PP      PP24361   5.597   0.250   1.280
14258PP      PP24362   0.133   9.621   1.277
14259PP      PP24363   4.232  14.171   1.075
14260PP      PP24364   4.680   5.957  11.171
14261PP      PP24365   8.690   9.010   2.907
14262PP      PP24366   5.471   0.575  11.828
14263PP      PP24367   2.401   7.310   1.610
14264PP      PP24368   7.596   3.414   1.360
14265PP      PP24369   1.170  10.409   0.632
14266PP      PP24370   3.084  11.557   2.539
14267PP      PP24371  12.164   9.964  11.652
14268PP      PP24372   3.700  10.216   3.232
14269PP      PP24373   9.815   0.025  13.274
14270PP      PP24374  11.221   5.836  12.459
14271PP      PP24375   2.277  11.232   3.762
14272PP      PP24376  15.481   4.740   1.830
14273PP      PP24377   9.084  11.131   2.204
14274PP      PP24378   4.506   3.354  10.628
14275PP      PP24379  10.618   3.058   0.982
14276PP      PP24380  13.008   6.028  11.152
14277PP      PP24381   7.758   3.264  12.358
14278PP      PP24382   4.440   5.429  12.746
14279PP      PP24383   2.484  15.012   4.190
14280PP      PP24384  13.028   5.345   1.618
14281PP      PP24385  10.012   9.167   3.852
14282PP      PP24386  12.263  12.337   9.481
14283PP      PP24387  14.809   6.714   8.933
14284PP      PP24388   7.990  11.142   9.062
14285PP      PP24389  15.021   8.698   1.371
14286PP      PP24390   0.183  13.210  12.973
14287PP      PP24391  15.674   3.269   3.482
14288PP      PP24392   4.795   6.457   3.334
14289PP      PP24393  10.819  10.718   3.499
14290PP      PP24394  11.881   3.944   2.486
14291PP      PP24395  10.571   8.977   9.957
14292PP      PP24396  10.879  10.308   9.549
14293PP      PP24397  12.253   0.913   2.151
14294PP      PP24398  15.468  10.046   2.396
14295PP      PP24399  14.296   4.334   1.998
14296PP      PP24400  11.291  12.758   3.128
14297PP      PP24401  14.965   3.468  11.733
14298PP      PP24402   2.307  10.755   8.633
14299PP      PP24403   8.596   3.629   4.187
14300PP      PP24404  15.711   7.479   3.985
14301PP      PP24405   0.521   4.064   9.992
14302PP      PP24406   7.163   4.742   9.590
14303PP      PP24407   4.358   2.330   2.782
14304PP      PP24408   3.614   1.415  10.968
14305PP      PP24409  15.003   2.852  10.417
14306PP      PP24410   3.896  11.655   3.220
14307PP      PP24411   8.801   0.525  10.232
14308PP      PP24412   6.141   8.321   3.968
14309PP      PP24413   1.028   0.838   0.084
14310PP      PP24414   4.958  14.041   3.629
14311PP      PP24415  13.660  15.720  10.786
14312PP      PP24416  13.303   3.416  10.906
14313PP      PP24417   6.920  15.537  11.406
14314PP      PP24418  11.721  14.293   9.892
14315PP      PP24419  11.497   6.995   0.763
14316PP      PP24420   8.816  13.366   2.481
14317PP      PP24421   2.798   5.983  13.604
14318PP      PP24422   2.633  15.744  10.790
14319PP      PP24423  14.080   6.744  10.834
14320PP      PP24424  11.466   3.967  10.756
14321PP      PP24425  14.128  12.083  10.725
14322PP      PP24426   4.630   2.090  13.237
14323PP      PP24427  14.500   1.860   0.760
14324PP      PP24428   6.931  13.419   0.558
14325PP      PP24429   7.922  12.324  13.486
14326PP      PP24430   4.116  13.076   2.928
14327PP      PP24431   8.731   4.359   2.389
14328PP      PP24432   5.679  15.583  12.259
14329PP      PP24433   5.798   1.358  10.828
14330PP      PP24434  13.816  13.926  12.917
14331PP      PP24435   8.397  10.607   1.916
14332PP      PP24436  14.705  11.887   4.024
14333PP      PP24437   0.985   7.948   9.750
14334PP      PP24438  11.025  14.564  10.607
14335PP      PP24439   4.166   5.465   1.442
14336PP      PP24440  14.241   8.666   0.831
14337PP      PP24441   2.502  15.586  10.326
14338PP      PP24442  12.173  10.345   9.574
14339PP      PP24443  10.301  13.068   2.256
14340PP      PP24444   7.546  15.425  13.208
14341PP      PP24445   3.517  12.116  11.738
14342PP      PP24446  10.505  11.171   2.182
14343PP      PP24447   8.707  14.624   0.385
14344PP      PP24448  13.528  14.667   4.493
14345PP      PP24449  12.517  10.041  10.826
14346PP      PP24450   4.580   2.892   1.499
14347PP      PP24451   4.498  12.290   3.185
14348PP      PP24452  13.745   9.157   3.596
14349PP      PP24453  14.591  12.700  13.415
14350PP      PP24454  14.225  13.876   3.808
14351PP      PP24455   8.180   8.563   9.897
14352PP      PP24456  13.000   7.497  12.974
14353PP      PP24457  14.154   5.115   2.224
14354PP      PP24458  10.461   5.463  12.657
14355PP      PP24459   6.930   5.690   0.336
14356PP      PP24460   3.811   1.939  10.301
14357PP      PP24461  14.063   5.596   4.499
14358PP      PP24462   2.744  12.261   0.450
14359PP      PP24463   5.911   4.291   1.221
14360PP      PP24464   3.791  12.427   0.475
14361PP      PP24465   0.185   8.131   9.601
14362PP      PP24466   1.988   0.355   4.797
14363PP      PP24467   2.256   9.763   2.929
14364PP      PP24468   6.687   3.152   0.776
14365PP      PP24469  11.363  10.178   9.438
14366PP      PP24470  14.671  14.782   3.584
14367PP      PP24471  10.547  11.789  10.273
14368PP      PP24472  11.900   5.675   9.666
14369PP      PP24473   3.139   0.382   4.510
14370PP      PP24474   0.163   5.493   2.809
14371PP      PP24475   7.251   1.449  12.617
14372PP      PP24476   4.818  12.634  12.930
14373PP      PP24477  11.766   3.920  12.615
14374PP      PP24478  15.088   7.651   0.765
14375PP      PP24479  11.162  11.523   0.178
14376PP      PP24480  12.766  13.345  10.447
14377PP      PP24481   7.442   4.813  12.979
14378PP      PP24482   9.954   9.312   9.190
14379PP      PP24483   4.593   3.952   1.937
14380PP      PP24484   4.504  10.367   1.099
14381PP      PP24485   5.383  13.109   1.911
14382PP      PP24486   6.010   5.622   9.649
14383PP      PP24487  15.143  13.425   9.178
14384PP      PP24488   8.973   6.675   0.811
14385PP      PP24489   4.994   7.192   2.149
14386PP      PP24490  10.643   8.401   0.729
14387PP      PP24491   3.733   4.087   1.099
14388PP      PP24492   0.316   9.335   0.297
14389PP      PP24493  12.383   1.914   9.357
14390PP      PP24494   2.526   1.295   3.181
14391PP      PP24495   6.977  10.394   0.842
14392PP      PP24496  14.969  12.304  13.400
14393PP      PP24497   4.885  11.712   3.743
14394PP      PP24498  15.294   1.989   4.400
14395PP      PP24499   9.155   8.540   3.991
14396PP      PP24500   3.110   3.100   2.428
14397PP      PP24501   8.841  10.772  12.889
14398PP      PP24502   0.394   9.723  10.704
14399PP      PP24503  13.408   4.241  13.322
14400PP      PP24504   2.587   9.648  10.979
14401PP      PP24505   3.305  12.762   1.926
14402PP      PP24506  12.491  15.643   1.998
14403PP      PP24507  12.520   3.948  12.548
14404PP      PP24508  12.432   7.154   3.426
14405PP      PP24509  10.598  13.705   9.434
14406PP      PP24510   8.241  14.723   0.170
14407PP      PP24511   2.961  11.672  12.279
14408PP      PP24512   5.781   2.237   0.345
14409PP      PP24513  11.793   2.773   9.194
14410PP      PP24514   2.847   0.655   9.615
14411PP      PP24515   2.113  15.114   2.828
14412PP      PP24516  10.582   4.189  12.905
14413PP      PP24517  12.196   6.579   1.277
14414PP      PP24518   2.151   6.409  10.729
14415PP      PP24519   0.398  14.274  11.149
14416PP      PP24520   9.456   6.763   9.433
14417PP      PP24521  13.652   3.277   1.545
14418PP      PP24522  15.199   9.107   0.222
14419PP      PP24523   1.424   7.757  11.229
14420PP      PP24524  11.892  15.470  11.955
14421PP      PP24525  11.370   6.250   2.426
14422PP      PP24526   5.834   7.801  13.367
14423PP      PP24527  13.616   6.925  10.948
14424PP      PP24528   8.714   9.829   2.379
14425PP      PP24529  12.564   8.470   1.475
14426PP      PP24530   6.817   5.686  12.995
14427PP      PP24531   5.824  12.568  12.330
14428PP      PP24532   4.073  10.026  10.715
14429PP      PP24533   3.013  15.486   1.305
14430PP      PP24534  11.903   8.868   9.945
14431PP      PP24535   2.545   4.737  11.428
14432PP      PP24536  13.772   8.391  10.185
14433PP      PP24537  10.616   0.191   1.785
14434PP      PP24538   2.338  12.566   1.164
14435PP      PP24539   8.985   0.478  13.438
14436PP      PP24540   4.697  15.233  12.546
14437PP      PP24541   9.784  14.363  11.285
14438PP      PP24542  12.128   7.511   3.664
14439PP      PP24543  14.669  13.782  13.208
14440PP      PP24544  14.909  15.488  12.491
14441PP      PP24545  12.458   2.751   0.463
14442PP      PP24546  12.882  13.129   2.325
14443PP      PP24547  12.561   9.625   2.823
14444PP      PP24548   4.770   0.890  11.627
14445PP      PP24549   5.733   0.750   0.512
14446PP      PP24550  11.036  13.515   9.154
14447PP      PP24551  13.406   4.124   2.355
14448PP      PP24552   1.899   8.652  12.053
14449PP      PP24553  12.605   8.565  12.067
14450PP      PP24554   9.298   5.846   9.251
14451PP      PP24555  11.336   0.083   1.134
14452PP      PP24556   8.613   5.369  13.152
14453PP      PP24557  15.035   0.589   1.173
14454PP      PP24558  11.861   5.278   1.017
14455PP      PP24559   2.052   6.137   2.926
14456PP      PP24560  10.107   2.555   9.984
14457PP      PP24561   5.170  14.353   9.781
14458PP      PP24562   2.552   8.857   3.094
14459PP      PP24563  14.470  11.356  12.818
14460PP      PP24564   6.506  15.774   0.318
14461PP      PP24565   4.157   2.355  12.912
14462PP      PP24566  15.138   0.580   2.729
14463PP      PP24567   5.757   2.201  10.782
14464PP      PP24568   2.955   6.135   0.825
14465PP      PP24569   4.100  14.634   3.137
14466PP      PP24570  11.066   5.902   9.269
14467PP      PP24571   1.335   2.770  10.578
14468PP      PP24572   9.367   0.961   3.511
14469PP      PP24573  10.723  12.614   2.447
14470PP      PP24574  10.823   6.954   8.339
14471PP      PP24575  14.699   2.162   0.373
14472PP      PP24576  12.248  10.374  10.507
14473PP      PP24577   1.707  10.559  10.333
14474PP      PP24578   0.254   9.038  12.487
14475PP      PP24579   0.764  13.607   2.538
14476PP      PP24580   5.708   1.946  11.698
14477PP      PP24581   2.212   2.215   4.375
14478PP      PP24582   5.874   7.691  12.463
14479PP      PP24583  10.007  11.794   2.185
14480PP      PP24584  11.943   6.685  10.415
14481PP      PP24585   1.571  14.761   3.967
14482PP      PP24586  12.657   9.194  12.768
14483PP      PP24587  15.504   7.742  10.326
14484PP      PP24588   7.340   4.842   5.195
14485PP      PP24589   3.943   2.458   1.068
14486PP      PP24590   3.577  11.251   9.304
14487PP      PP24591  15.466  10.488   3.711
14488PP      PP24592  14.395  10.287   3.218
14489PP      PP24593   0.800  14.034   9.743
14490PP      PP24594   6.632  14.498   9.612
14491PP      PP24595   1.708   3.357   3.748
14492PP      PP24596  10.778   5.749  10.772
14493PP      PP24597   4.540  11.798  12.464
14494PP      PP24598  14.078   6.243   8.567
14495PP      PP24599   1.531   0.078   0.360
14496PP      PP24600  10.305  13.975   2.979
14497PP      PP24601   3.727   2.543  11.383
14498PP      PP24602   7.969   0.413   2.525
14499PP      PP24603   7.929   6.322   1.670
14500PP      PP24604   9.772   4.232  12.482
14501PP      PP24605  13.180   2.159  13.123
14502PP      PP24606   1.266   7.479   3.358
14503PP      PP24607   0.445  13.166  12.452
14504PP      PP24608   5.634   8.150  12.152
14505PP      PP24609  12.768   1.670  10.467
14506PP      PP24610   9.319  10.521  10.378
14507PP      PP24611  13.488   9.954   2.570
14508PP      PP24612  11.701   8.239  11.249
14509PP      PP24613  11.994   5.259  10.911
14510PP      PP24614   2.082   1.222  10.526
14511PP      PP24615   0.603   2.555  11.321
14512PP      PP24616   8.908   9.203   2.383
14513PP      PP24617  13.521   8.741   3.073
14514PP      PP24618   0.401   6.756   9.345
14515PP      PP24619   8.371  13.873   4.402
14516PP      PP24620   8.675  13.403  11.153
14517PP      PP24621   5.359   9.302   8.288
14518PP      PP24622   7.091  13.472   1.057
14519PP      PP24623   4.389  14.279  12.027
14520PP      PP24624   6.867   7.475   1.972
14521PP      PP24625   8.042   2.352   4.039
14522PP      PP24626   4.073  12.544   2.725
14523PP      PP24627   3.272   8.787   2.921
14524PP      PP24628  11.684  12.443   4.597
14525PP      PP24629  13.878   5.799   1.867
14526PP      PP24630   3.129  12.368   3.158
14527PP      PP24631  14.360  13.171   3.130
14528PP      PP24632   5.296  12.252  10.206
14529PP      PP24633   8.244   1.741  10.617
14530PP      PP24634   5.082   0.831  12.049
14531PP      PP24635  15.274  12.031  11.355
14532PP      PP24636   7.715   1.431  10.202
14533PP      PP24637   6.246   1.553  12.802
14534PP      PP24638  14.341   6.563   1.569
14535PP      PP24639   1.758  11.419   1.923
14536PP      PP24640   3.720   2.074  13.087
14537PP      PP24641  12.098   5.637  10.579
14538PP      PP24642   0.915   2.068   2.712
14539PP      PP24643   1.568  11.325   4.242
14540PP      PP24644   3.678   2.155   9.831
14541PP      PP24645   4.365   5.675  12.172
14542PP      PP24646   0.536   0.043   0.945
14543PP      PP24647  15.050  13.593   4.081
14544PP      PP24648  11.671   0.306   3.283
14545PP      PP24649  12.703  10.549  10.643
14546PP      PP24650   9.919   4.774  12.431
14547PP      PP24651   7.335  10.571   9.694
14548PP      PP24652  10.220  14.522   3.550
14549PP      PP24653   1.216  11.142   0.038
14550PP      PP24654  10.730   9.503  10.104
14551PP      PP24655  15.539   9.236   0.601
14552PP      PP24656   9.928  14.503   4.368
14553PP      PP24657  14.544   4.735   9.793
14554PP      PP24658   3.967  13.467   9.238
14555PP      PP24659  12.075  14.521   3.344
14556PP      PP24660   2.253  10.307   2.886
14557PP      PP24661  14.931   8.331  13.505
14558PP      PP24662   4.483   1.471  12.081
14559PP      PP24663   3.912   2.633   9.785
14560PP      PP24664  12.864  12.011   8.875
14561PP      PP24665  11.695   6.697   1.356
14562PP      PP24666   7.873  12.876   2.891
14563PP      PP24667   8.041   4.971  10.152
14564PP      PP24668   9.452  13.972  11.373
14565PP      PP24669  11.394  15.349  12.057
14566PP      PP24670   4.694   4.811   0.882
14567PP      PP24671  15.707  14.449   2.686
14568PP      PP24672   6.448   8.913  11.653
14569PP      PP24673  12.491   4.580  12.184
14570PP      PP24674   9.059   6.281   4.126
14571PP      PP24675  14.619   7.234   2.186
14572PP      PP24676   7.527  12.001  11.799
14573PP      PP24677  11.176   1.383   3.942
14574PP      PP24678   6.983   8.690  10.373
14575PP      PP24679   0.165  15.118  12.597
14576PP      PP24680  11.229   7.245  12.173
14577PP      PP24681  15.529   7.543  12.166
14578PP      PP24682  10.587   6.560  12.535
14579PP      PP24683   6.877   8.544   0.897
14580PP      PP24684  15.031  13.901   1.162
14581PP      PP24685  15.021   7.394   1.877
14582PP      PP24686   8.382   7.537   4.767
14583PP      PP24687   5.651   1.694   4.329
14584PP      PP24688  13.872  12.762   4.535
14585PP      PP24689  13.063  12.463  11.829
14586PP      PP24690   4.673   2.557  12.937
14587PP      PP24691  13.665   7.762  11.970
14588PP      PP24692   5.120   0.422  13.303
14589PP      PP24693  12.207   7.658  11.343
14590PP      PP24694  14.539   5.819  11.489
14591PP      PP24695  15.801   1.010  13.430
14592PP      PP24696  11.552   2.851   1.252
14593PP      PP24697  14.739   7.628  12.085
14594PP      PP24698   4.381   2.107   9.445
14595PP      PP24699   6.347   5.526   1.729
14596PP      PP24700   3.474   7.326  12.852
14597PP      PP24701  13.851   1.791   1.981
14598PP      PP24702  10.043  10.772   3.124
14599PP      PP24703   9.424  10.429   9.866
14600PP      PP24704   9.721   9.593   2.553
14601PP      PP24705  11.012   1.339   2.931
14602PP      PP24706   9.718   1.866   9.702
14603PP      PP24707   7.225   6.603   8.688
14604PP      PP24708   0.612  10.262   8.698
14605PP      PP24709   8.665   0.608   0.224
14606PP      PP24710  11.856   2.521   0.944
14607PP      PP24711   2.982   9.133   3.805
14608PP      PP24712  14.590   1.613   8.965
14609PP      PP24713   6.579   7.862  10.938
14610PP      PP24714   2.281   6.665   8.485
14611PP      PP24715  13.819   6.252  10.816
14612PP      PP24716   4.534   4.706  12.566
14613PP      PP24717   9.306  11.241   9.531
14614PP      PP24718   9.468  10.001   0.195
14615PP      PP24719  10.104   5.704   0.853
14616PP      PP24720   9.978  10.427  10.101
14617PP      PP24721   5.868   0.581  10.543
14618PP      PP24722  12.165   5.812   3.143
14619PP      PP24723   5.375  11.772   0.539
14620PP      PP24724  15.378   4.495   0.987
14621PP      PP24725   8.167   1.897  13.425
14622PP      PP24726   9.252  14.743   4.931
14623PP      PP24727  11.854  12.445   0.216
14624PP      PP24728  13.663  15.735   4.162
14625PP      PP24729   9.404   7.845   9.036
14626PP      PP24730  15.588   8.061   0.793
14627PP      PP24731   1.676   6.923  11.731
14628PP      PP24732   7.561  15.070   4.443
14629PP      PP24733  15.218   5.268  12.065
14630PP      PP24734   7.235   5.323  10.870
14631PP      PP24735  12.559  13.512   1.621
14632PP      PP24736   9.891   6.514   9.277
14633PP      PP24737   5.899   0.849  12.562
14634PP      PP24738   4.703  10.277   3.079
14635PP      PP24739  10.215  12.658   4.361
14636PP      PP24740   5.490   1.914   3.863
14637PP      PP24741  15.349  15.810   1.532
14638PP      PP24742  12.736   4.770  13.473
14639PP      PP24743   3.886   9.068   1.789
14640PP      PP24744   1.164  14.615  12.458
14641PP      PP24745   8.037  13.374   2.774
14642PP      PP24746   9.330   6.179   1.471
14643PP      PP24747  12.527  14.780   3.319
14644PP      PP24748  11.261   7.304   9.660
14645PP      PP24749   3.371   7.885   1.769
14646PP      PP24750  13.451  10.640   2.925
14647PP      PP24751   6.620  10.953  11.243
14648PP      PP24752  10.453   3.346  10.843
14649PP      PP24753   7.813   7.531  12.618
14650PP      PP24754   6.718   3.646   1.135
14651PP      PP24755   5.978   9.568  13.273
14652PP      PP24756   2.679   4.728   3.335
14653PP      PP24757  10.801   1.434  10.431
14654PP      PP24758   9.636   8.019  11.346
14655PP      PP24759   6.120   8.147   1.188
14656PP      PP24760  12.606   6.705   0.352
14657PP      PP24761   6.145   2.731  12.025
14658PP      PP24762  11.175   8.040   1.255
14659PP      PP24763  14.558  11.807  10.572
14660PP      PP24764   3.606   8.421   2.683
14661PP      PP24765  15.458   7.113   1.950
14662PP      PP24766   2.554  10.298  13.412
14663PP      PP24767  12.767  13.876   1.050
14664PP      PP24768   9.599   2.847  13.564
14665PP      PP24769   0.115  12.693  12.372
14666PP      PP24770   7.517  11.981   0.749
14667PP      PP24771  11.265   2.980  11.523
14668PP      PP24772  12.233  13.173   3.926
14669PP      PP24773   9.255  15.717   0.914
14670PP      PP24774   3.271   4.331   3.286
14671PP      PP24775  13.865   4.561   9.204
14672PP      PP24776   9.963   9.875   2.080
14673PP      PP24777  11.782  12.755   3.379
14674PP      PP24778   9.944  12.146  10.464
14675PP      PP24779   1.807   1.160   2.509
14676PP      PP24780   8.621   5.422   8.833
14677PP      PP24781  13.989   4.625   9.726
14678PP      PP24782  14.798  12.144   9.796
14679PP      PP24783   0.019   6.645   2.142
14680PP      PP24784  13.182  11.174   1.063
14681PP      PP24785   2.280   3.563   4.555
14682PP      PP24786  15.401   8.092   2.824
14683PP      PP24787  14.149   8.755   8.406
14684PP      PP24788   6.830   4.831  11.305
14685PP      PP24789   6.852   7.036   0.639
14686PP      PP24790   0.946   2.100   4.181
14687PP      PP24791   4.187  12.593  13.122
14688PP      PP24792   9.260   7.786  11.646
14689PP      PP24793  11.252  14.053  12.267
14690PP      PP24794   3.973   9.504   2.099
14691PP      PP24795   6.891   9.082  11.414
14692PP      PP24796   6.940   1.627  10.108
14693PP      PP24797   4.035  14.199   2.811
14694PP      PP24798   2.305   2.839   0.868
14695PP      PP24799   4.885   7.340   9.928
14696PP      PP24800  14.266   9.901  11.331
14697PP      PP24801   8.583  15.108  11.044
14698PP      PP24802   2.038  12.800  13.543
14699PP      PP24803   9.632   0.943  12.286
14700PP      PP24804   8.351   4.181   9.531
14701PP      PP24805   0.132   6.141   2.010
14702PP      PP24806  14.086   1.824   2.452
14703PP      PP24807  13.640   0.308   9.369
14704PP      PP24808  14.481   1.670  12.443
14705PP      PP24809   6.308   6.148   0.895
14706PP      PP24810  12.748   1.595   9.689
14707PP      PP24811   7.585  14.231  12.203
14708PP      PP24812   9.424  14.940  12.142
14709PP      PP24813   5.996  13.176   1.760
14710PP      PP24814   8.810  12.878  11.279
14711PP      PP24815   2.331   4.632   0.256
14712PP      PP24816   2.222  10.552  10.259
14713PP      PP24817  10.611   8.303   9.299
14714PP      PP24818   1.382  13.144   2.073
14715PP      PP24819   0.220  11.601   4.193
14716PP      PP24820  12.353  12.829  11.239
14717PP      PP24821  14.722   9.935   3.841
14718PP      PP24822   1.897  15.277  13.484
14719PP      PP24823  12.599  11.684   0.381
14720PP      PP24824   0.769   0.824  13.234
14721PP      PP24825   7.777   6.868  10.063
14722PP      PP24826   2.750   3.445   2.223
14723PP      PP24827   4.142   4.850   0.866
14724PP      PP24828  11.537  13.205  10.990
14725PP      PP24829   8.497  13.302  10.674
14726PP      PP24830   1.996  10.083  10.258
14727PP      PP24831   7.051  12.897   3.258
14728PP      PP24832   8.748  10.585  11.592
14729PP      PP24833  14.853   3.606  12.293
14730PP      PP24834  11.233   7.930  12.463
14731PP      PP24835   5.895   7.560   2.695
14732PP      PP24836   0.478   5.811   3.789
14733PP      PP24837  10.618  14.824   3.728
14734PP      PP24838  10.229   8.136   0.467
14735PP      PP24839   6.577  10.211  12.360
14736PP      PP24840  12.098   6.382   3.120
14737PP      PP24841   8.455   2.697   4.105
14738PP      PP24842  10.844  13.005   4.778
14739PP      PP24843  13.014   4.015  10.892
14740PP      PP24844  13.193   0.817   3.266
14741PP      PP24845   8.588   9.357  10.782
14742PP      PP24846   2.154   4.266   0.591
14743PP      PP24847   3.418   3.604  13.586
14744PP      PP24848   4.245   1.676   3.550
14745PP      PP24849   2.794  11.922  13.286
14746PP      PP24850   4.259   7.795   9.218
14747PP      PP24851  10.725   3.193   3.177
14748PP      PP24852  14.410   1.174  12.611
14749PP      PP24853   6.010   6.914  13.296
14750PP      PP24854   1.062   8.611   1.618
14751PP      PP24855  11.089   4.255  10.563
14752PP      PP24856  15.190   9.892   4.274
14753PP      PP24857   9.217   2.895   2.188
14754PP      PP24858   3.159   3.999   0.232
14755PP      PP24859  14.388   9.841   2.950
14756PP      PP24860   7.740  10.929   0.696
14757PP      PP24861  14.590  10.980  11.653
14758PP      PP24862   0.478  14.422   9.925
14759PP      PP24863  11.213   1.083  10.438
14760PP      PP24864  10.353  12.328   0.353
14761PP      PP24865   3.811  15.246   0.348
14762PP      PP24866   8.226   1.532   1.086
14763PP      PP24867   0.902   3.780   1.270
14764PP      PP24868   4.639   9.673  10.356
14765PP      PP24869   2.202  15.827   4.469
14766PP      PP24870   6.431  13.139  13.412
14767PP      PP24871   2.615   9.980   0.967
14768PP      PP24872   1.834   5.717  11.977
14769PP      PP24873  12.564   8.649  11.442
14770PP      PP24874  14.753   9.574   4.263
14771PP      PP24875   0.236  12.945   2.882
14772PP      PP24876   9.544  13.873   3.788
14773PP      PP24877  13.363   8.615   2.543
14774PP      PP24878   5.851   9.160  13.016
14775PP      PP24879   9.241   5.647   4.468
14776PP      PP24880  13.061   1.098   1.957
14777PP      PP24881  11.987   4.422  13.131
14778PP      PP24882  11.377  12.025  11.573
14779PP      PP24883  13.369  14.937  10.086
14780PP      PP24884   6.181  15.288  10.716
14781PP      PP24885   2.876   6.807   8.659
14782PP      PP24886   8.340   2.903   1.848
14783PP      PP24887  12.845  11.667   4.367
14784PP      PP24888   0.352  12.921  10.152
14785PP      PP24889  14.864   4.443  11.867
14786PP      PP24890   7.741  11.369   2.935
14787PP      PP24891  14.715   3.109   8.771
14788PP      PP24892  11.267   1.210   9.116
14789PP      PP24893   5.453  10.554  11.617
14790PP      PP24894   3.212  13.853   1.076
14791PP      PP24895  11.603   6.087   3.907
14792PP      PP24896   8.619   0.633   0.987
14793PP      PP24897   9.335  13.448   2.331
14794PP      PP24898   4.158   5.998  11.721
14795PP      PP24899   7.334  11.375  12.268
14796PP      PP24900   3.452   6.650  10.494
14797PP      PP24901   8.009  15.726   3.456
14798PP      PP24902   5.435  15.769  12.700
14799PP      PP24903   0.312  11.896  11.740
14800PP      PP24904   7.404  10.256   4.951
14801PP      PP24905   1.450   4.611  12.974
14802PP      PP24906  10.368   8.055   8.878
14803PP      PP24907  14.733  13.493   0.220
14804PP      PP24908  15.789  12.224   9.675
14805PP      PP24909  12.210   7.584   1.311
14806PP      PP24910  10.036   1.629  12.987
14807PP      PP24911  15.089   3.592  13.046
14808PP      PP24912   5.013  15.499  12.885
14809PP      PP24913   1.664   6.829   4.025
14810PP      PP24914  15.306  10.687  10.020
14811PP      PP24915  13.528   3.903  12.916
14812PP      PP24916   5.370   1.257   4.189
14813PP      PP24917   4.871   4.524   2.590
14814PP      PP24918   2.246   8.685  10.545
14815PP      PP24919   8.586   4.957  13.543
14816PP      PP24920  15.737   1.516   9.113
14817PP      PP24921   8.580   8.984   9.013
14818PP      PP24922   0.161  14.039   1.956
14819PP      PP24923  10.141   6.965   9.053
14820PP      PP24924  10.916  14.211  10.226
14821PP      PP24925   5.209  10.890   0.604
14822PP      PP24926   7.746   9.196  13.020
14823PP      PP24927   0.656   9.542   0.656
14824PP      PP24928   7.462  12.347  12.167
14825PP      PP24929   1.102  13.885  10.126
14826PP      PP24930   6.800   5.991  10.304
14827PP      PP24931  12.153  13.720  12.230
14828PP      PP24932   4.588  15.243  10.770
14829PP      PP24933   9.479   3.790  12.460
14830PP      PP24934  13.285   8.815   9.475
14831PP      PP24935   2.265   7.215  10.247
14832PP      PP24936  10.730   6.508   9.544
14833PP      PP24937   9.168  11.780   0.447
14834PP      PP24938   2.973  14.493  10.167
14835PP      PP24939   0.805  11.210   4.128
14836PP      PP24940   6.817  14.846   1.917
14837PP      PP24941   8.137   6.962   0.665
14838PP      PP24942   8.760   6.117   1.039
14839PP      PP24943   3.491   7.018   3.073
14840PP      PP24944  15.265   7.167   0.888
14841PP      PP24945   1.302   5.728   9.987
14842PP      PP24946   0.705   5.157   9.727
14843PP      PP24947   4.647   5.075   2.300
14844PP      PP24948   6.394   2.202   2.975
14845PP      PP24949  13.280   4.204   1.454
14846PP      PP24950   9.081   2.255  11.640
14847PP      PP24951   8.014  12.255  12.925
14848PP      PP24952  11.170  14.993  12.610
14849PP      PP24953  13.188   5.231  12.222
14850PP      PP24954   4.079   4.747  10.428
14851PP      PP24955  13.375   1.902   2.901
14852PP      PP24956   1.914   2.754  11.833
14853PP      PP24957   3.366   9.860  10.253
14854PP      PP24958  10.564  15.696   2.795
14855PP      PP24959  14.335   4.969   0.168
14856PP      PP24960   4.158   5.276   0.082
14857PP      PP24961   0.640   4.574   0.959
14858PP      PP24962  13.599   4.338  11.769
14859PP      PP24963   0.563   1.392   1.705
14860PP      PP24964  15.795  10.905  10.144
14861PP      PP24965   7.070  15.656   3.372
14862PP      PP24966   8.820   9.556   2.968
14863PP      PP24967  13.907   1.281  12.560
14864PP      PP24968  14.290  14.323   2.882
14865PP      PP24969   0.854   3.665  13.359
14866PP      PP24970  10.393   6.221   3.472
14867PP      PP24971   1.560   6.983  10.578
14868PP      PP24972   1.963  10.626   0.755
14869PP      PP24973   5.194  14.302  12.684
14870PP      PP24974  14.122  11.086  11.936
14871PP      PP24975   6.093  12.086   3.358
14872PP      PP24976   3.799  14.951   8.797
14873PP      PP24977  14.484  14.827   1.969
14874PP      PP24978   8.122  10.157   8.902
14875PP      PP24979   1.510   6.711  10.127
14876PP      PP24980   9.213   3.049  12.869
14877PP      PP24981   8.165   3.243   2.235
14878PP      PP24982  13.085  13.943   2.181
14879PP      PP24983  11.906   0.297   0.766
14880PP      PP24984   9.982   3.693   9.290
14881PP      PP24985   2.046   5.742  13.413
14882PP      PP24986  11.243  15.231  13.111
14883PP      PP24987   6.609  12.035   0.673
14884PP      PP24988   3.466  15.717   1.400
14885PP      PP24989   2.522   6.566   8.951
14886PP      PP24990   1.875   7.014   9.873
14887PP      PP24991   3.586   7.169  12.302
14888PP      PP24992   9.869   8.809   3.470
14889PP      PP24993   7.051  12.131   0.930
14890PP      PP24994   0.788   9.465  11.281
14891PP      PP24995  13.166  11.662   1.476
14892PP      PP24996  12.626   3.227  11.471
14893PP      PP24997   1.321  13.255  12.795
14894PP      PP24998   4.898   3.397   0.332
14895PP      PP24999   5.796  13.362   2.681
14896PP      PP25000   0.661  12.068   4.434
14897PP      PP25001   3.800  13.094  10.519
14898PP      PP25002   7.699   7.963   1.866
14899PP      PP25003  14.685   7.503  10.555
14900PP      PP25004   9.413   0.789   0.736
14901PP      PP25005   0.330  13.266   1.207
14902PP      PP25006  15.472   5.018  11.469
14903PP      PP25007   8.005   6.462  12.562
14904PP      PP25008  15.650   5.874   0.019
14905PP      PP25009  11.878   2.002  12.464
14906PP      PP25010   5.903  13.691  11.053
14907PP      PP25011   5.505  12.228   8.929
14908PP      PP25012   2.775  12.043   1.163
14909PP      PP25013  13.809  15.370  11.556
14910PP      PP25014   8.825   6.052   1.560
14911PP      PP25015   7.365   8.572   3.440
14912PP      PP25016  11.327   8.169   1.737
14913PP      PP25017   8.074  14.879   1.604
14914PP      PP25018  13.559  14.275  12.648
14915PP      PP25019   1.547   4.970  11.501
14916PP      PP25020   3.787  11.233  12.178
14917PP      PP25021  11.826  13.704   0.735
14918PP      PP25022  12.549  13.457  12.445
14919PP      PP25023   9.644  13.722  11.819
14920PP      PP25024   0.112  14.255   3.666
14921PP      PP25025   5.467  14.705   1.633
14922PP      PP25026   5.039  10.840   2.534
14923PP      PP25027  14.641   1.998   3.602
14924PP      PP25028   5.963  14.418  13.209
14925PP      PP25029  15.156   2.160   2.011
14926PP      PP25030   5.434  12.276  12.523
14927PP      PP25031   8.130   2.405   1.252
14928PP      PP25032   2.629  12.632  12.359
14929PP      PP25033  14.752   2.316   3.201
14930PP      PP25034  10.142  14.922   5.106
14931PP      PP25035  15.683   9.710   4.248
14932PP      PP25036  12.575   5.160   9.843
14933PP      PP25037   8.163   5.055  10.676
14934PP      PP25038   1.445  15.320  12.066
14935PP      PP25039   8.984   8.586  11.996
14936PP      PP25040   1.509   4.564   1.199
14937PP      PP25041   3.425   6.716   8.878
14938PP      PP25042   9.722  12.252  13.346
14939PP      PP25043   7.906  15.748   1.692
14940PP      PP25044  13.353   0.098   2.290
14941PP      PP25045  14.015  15.256   2.470
14942PP      PP25046  13.670   3.905   2.740
14943PP      PP25047   9.319   8.676   0.953
14944PP      PP25048   4.619   2.840  10.609
14945PP      PP25049   7.305   8.699  11.435
14946PP      PP25050  12.665   4.742  11.476
14947PP      PP25051   6.972   0.314  13.062
14948PP      PP25052   2.482  12.542   8.607
14949PP      PP25053   5.668  15.067  12.236
14950PP      PP25054   7.138  14.974   4.737
14951PP      PP25055  14.878   5.967  10.091
14952PP      PP25056  10.804  13.229   3.827
14953PP      PP25057   6.656  14.919  10.160
14954PP      PP25058   3.359   4.344  11.566
14955PP      PP25059   3.064   8.294   2.542
14956PP      PP25060   4.939  11.027   9.545
14957PP      PP25061  14.744  14.571   3.110
14958PP      PP25062   9.904  14.090  12.227
14959PP      PP25063   0.011   6.871   0.209
14960PP      PP25064   8.297  10.311  11.517
14961PP      PP25065   1.397   5.827   4.007
14962PP      PP25066  13.005   1.265  10.707
14963PP      PP25067   1.076   8.410  12.418
14964PP      PP25068   2.984   1.154   0.283
14965PP      PP25069   3.671  11.155  12.934
14966PP      PP25070  14.482   8.371  10.746
14967PP      PP25071   3.925  11.552  13.149
14968PP      PP25072  11.550  14.720   1.344
14969PP      PP25073   6.515   4.216   3.769
14970PP      PP25074  15.444   3.991   0.878
14971PP      PP25075   8.503   0.753   4.406
14972PP      PP25076   4.337   0.785   0.541
14973PP      PP25077   0.595   4.198   2.648
14974PP      PP25078  10.326   7.617   0.293
14975PP      PP25079   2.778  13.780  11.116
14976PP      PP25080   5.584  10.741  10.139
14977PP      PP25081   7.474  11.100   3.524
14978PP      PP25082   5.250   0.233   1.697
14979PP      PP25083  12.722  11.954   1.295
14980PP      PP25084   3.744   1.788   3.457
14981PP      PP25085  10.787  15.789   3.771
14982PP      PP25086  14.659  14.945   2.734
14983PP      PP25087  14.003   1.805   9.287
14984PP      PP25088   2.576   1.252   2.047
14985PP      PP25089   3.660   8.872  10.286
14986PP      PP25090  11.136   7.377   4.966
14987PP      PP25091   3.599   7.013   0.094
14988PP      PP25092  10.206  12.639  11.951
14989PP      PP25093   2.022  11.265   8.966
14990PP      PP25094   5.996  14.368   0.590
14991PP      PP25095   1.555   1.358  10.682
14992PP      PP25096   3.486   3.988   2.115
14993PP      PP25097  13.654   5.970   8.654
14994PP      PP25098  11.464   1.533   0.596
14995PP      PP25099  11.922  10.341  12.559
14996PP      PP25100  15.740   9.576  11.742
14997PP      PP25101  14.449   5.576  10.042
14998PP      PP25102   9.533   3.670  11.961
14999PP      PP25103  11.232   4.186   1.831
15000PP      PP25104   4.446  15.453   2.672
15001PP      PP25105   0.361   6.298   9.072
15002PP      PP25106  15.723  13.914  12.494
15003PP      PP25107   4.830  12.229   4.037
15004PP      PP25108   0.313  14.959   2.477
15005PP      PP25109  13.278  15.019   0.726
15006PP      PP25110   2.648  14.761  11.409
15007PP      PP25111  13.130   1.889   3.386
15008PP      PP25112   4.196   7.557   0.519
15009PP      PP25113  10.711   5.973  12.544
15010PP      PP25114  15.103   8.598   9.841
15011PP      PP25115  10.585   7.356   4.000
15012PP      PP25116   1.228   6.304   2.476
15013PP      PP25117  14.506   0.218  13.459
15014PP      PP25118   4.434  14.771  12.255
15015PP      PP25119  11.660   6.088   2.846
15016PP      PP25120   1.483   8.366  12.073
15017PP      PP25121   7.483  10.833   2.100
15018PP      PP25122  14.526   5.310   1.856
15019PP      PP25123   0.123   8.170   3.454
15020PP      PP25124   9.626   9.184  12.140
15021PP      PP25125   5.717   1.695  12.775
15022PP      PP25126  12.899  10.816   3.579
15023PP      PP25127   7.044   3.955   1.927
15024PP      PP25128  13.377  10.512  12.424
15025PP      PP25129  12.342   8.663   3.420
15026PP      PP25130   2.191   2.538   2.686
15027PP      PP25131   5.452   6.453  12.168
15028PP      PP25132   6.395  15.180  12.750
15029PP      PP25133   4.518   7.789   2.992
15030PP      PP25134   2.754   7.440   1.238
15031PP      PP25135  12.937  12.356   3.877
15032PP      PP25136   5.775   1.155   3.067
15033PP      PP25137  14.135   5.538  11.335
15034PP      PP25138  12.961  13.487   1.958
15035PP      PP25139  14.314  10.376   0.514
15036PP      PP25140   6.582   0.839   2.765
15037PP      PP25141  10.019  13.994   4.520
15038PP      PP25142   0.192   9.464  12.896
15039PP      PP25143   2.862  13.880  12.419
15040PP      PP25144   6.954  13.759   3.532
15041PP      PP25145   7.554   1.893   0.258
15042PP      PP25146  14.097   6.157   2.760
15043PP      PP25147  12.710  10.089  10.349
15044PP      PP25148  10.486   9.205   2.273
15045PP      PP25149   6.838   5.864  12.499
15046PP      PP25150   0.052   5.461   2.175
15047PP      PP25151   8.284  15.824   2.568
15048PP      PP25152  11.612   9.938   2.990
15049PP      PP25153  15.441   1.038  12.609
15050PP      PP25154   3.931   7.459  10.262
15051PP      PP25155  10.773   7.026  12.384
15052PP      PP25156  15.529   3.963  11.626
15053PP      PP25157  14.671   4.054   4.389
15054PP      PP25158   2.506  15.818   0.671
15055PP      PP25159   2.332  14.734  12.969
15056PP      PP25160   2.685  13.923  13.426
15057PP      PP25161   3.361   9.207   0.183
15058PP      PP25162   7.328   9.181   1.232
15059PP      PP25163   7.724  15.090  11.853
15060PP      PP25164   7.647  13.465   9.704
15061PP      PP25165  13.276   1.274   3.647
15062PP      PP25166  12.187  11.324   4.627
15063PP      PP25167  12.861  15.143   3.979
15064PP      PP25168   6.451  11.480  11.049
15065PP      PP25169   8.183   9.792   2.431
15066PP      PP25170   6.426  15.072   2.993
15067PP      PP25171   3.911   7.844  10.611
15068PP      PP25172   2.225  12.217   0.306
15069PP      PP25173  12.964  10.297  11.383
15070PP      PP25174  15.445  12.373   1.675
15071PP      PP25175   8.125   2.454  11.951
15072PP      PP25176   2.125  10.651   1.814
15073PP      PP25177  15.411  15.258   3.056
15074PP      PP25178   4.701   0.893   2.425
15075PP      PP25179   6.165  15.709   0.927
15076PP      PP25180  11.722   4.824   9.618
15077PP      PP25181  15.150   7.828  13.377
15078PP      PP25182  15.774   8.491  12.105
15079PP      PP25183   9.040   4.254  10.009
15080PP      PP25184  14.420   9.509   0.507
15081PP      PP25185   6.304   6.433   8.238
15082PP      PP25186   3.570  14.172   1.366
15083PP      PP25187   4.909  15.710   2.672
15084PP      PP25188   9.027  13.401   2.952
15085PP      PP25189   9.658   2.788   1.813
15086PP      PP25190  15.045  13.812   1.971
15087PP      PP25191  15.150   0.617   3.598
15088PP      PP25192   1.277   8.326   3.087
15089PP      PP25193  14.830   3.088   4.327
15090PP      PP25194   7.016   0.591  11.074
15091PP      PP25195  12.439   6.736   3.939
15092PP      PP25196   8.805   5.345   9.739
15093PP      PP25197   8.819   1.742   1.642
15094PP      PP25198  11.497  12.835  13.243
15095PP      PP25199  11.281  12.572   1.477
15096PP      PP25200   1.230   7.495   8.724
15097PP      PP25201   8.641  11.540  10.634
15098PP      PP25202  11.803   3.761  13.106
15099PP      PP25203   0.844  11.699  10.493
15100PP      PP25204   8.931   3.268   3.850
15101PP      PP25205   0.449  10.712   2.204
15102PP      PP25206  11.001   3.253   9.280
15103PP      PP25207  10.896   6.016   2.331
15104PP      PP25208   1.235   4.333  12.599
15105PP      PP25209   5.486   2.881  10.627
15106PP      PP25210   4.892   7.842   9.656
15107PP      PP25211   6.166  12.844   4.184
15108PP      PP25212  10.363   5.494   0.437
15109PP      PP25213   1.811  10.259   0.404
15110PP      PP25214   0.757   8.913  13.435
15111PP      PP25215   8.109  11.455   9.457
15112PP      PP25216   8.114   3.424   4.327
15113PP      PP25217   1.152   2.606   3.507
15114PP      PP25218   2.522   2.704  13.141
15115PP      PP25219   7.196   3.501   8.783
15116PP      PP25220   0.148  13.571   9.559
15117PP      PP25221   0.348   0.651  13.452
15118PP      PP25222  15.115  11.668  12.819
15119PP      PP25223   6.820  13.632  11.926
15120PP      PP25224  12.505   6.009   0.174
15121PP      PP25225   3.511   2.927  12.970
15122PP      PP25226   9.400  15.386  10.570
15123PP      PP25227   5.213  11.706   3.320
15124PP      PP25228   3.696   0.250   3.170
15125PP      PP25229   6.859   7.825   2.587
15126PP      PP25230   4.861   4.367  10.203
15127PP      PP25231  12.060   2.282  13.527
15128PP      PP25232   5.121   8.156  13.309
15129PP      PP25233  12.105  15.792  10.322
15130PP      PP25234   7.569   2.091   4.073
15131PP      PP25235   4.581   3.083   4.001
15132PP      PP25236   1.040   7.881  13.476
15133PP      PP25237  12.090   0.933   9.508
15134PP      PP25238   0.078  14.634  13.129
15135PP      PP25239   6.887   0.766  10.015
15136PP      PP25240   1.327   8.568   3.978
15137PP      PP25241   3.558   1.245  11.693
15138PP      PP25242   9.328   4.566   0.503
15139PP      PP25243   9.519   0.454   3.495
15140PP      PP25244   2.171  10.116   1.713
15141PP      PP25245   0.099   7.874   0.464
15142PP      PP25246   2.959  13.697  10.190
15143PP      PP25247   6.307  13.731  11.959
15144PP      PP25248  11.607   8.328   2.158
15145PP      PP25249  12.384  10.680  13.314
15146PP      PP25250   7.069  10.563   9.225
15147PP      PP25251   1.695  12.884   9.715
15148PP      PP25252  13.173   0.434   9.937
15149PP      PP25253   4.133  13.705  12.048
15150PP      PP25254  11.833  12.880   0.502
15151PP      PP25255   3.006   7.800   0.960
15152PP      PP25256   9.651  12.601  10.440
15153PP      PP25257   3.867   9.664  11.005
15154PP      PP25258   8.059  15.463  10.715
15155PP      PP25259  12.193   3.414   2.402
15156PP      PP25260   1.312   6.232   0.584
15157PP      PP25261   2.081  15.005  12.584
15158PP      PP25262   5.433   1.796   9.550
15159PP      PP25263   7.966   0.823   1.797
15160PP      PP25264   7.859   3.932   3.716
15161PP      PP25265   2.173   7.818   0.929
15162PP      PP25266   1.529   0.296  11.148
15163PP      PP25267  11.955  12.729  10.231
15164PP      PP25268  10.955   5.278   1.084
15165PP      PP25269  15.102  12.050   3.034
15166PP      PP25270   2.058  14.656  10.098
15167PP      PP25271   2.523   2.066  10.399
15168PP      PP25272  12.640   0.041   1.562
15169PP      PP25273  13.778  14.946   3.540
15170PP      PP25274  14.067   4.394   3.851
15171PP      PP25275   8.431   1.414   1.573
15172PP      PP25276   5.384   4.734  11.145
15173PP      PP25277  13.044  12.554   3.415
15174PP      PP25278  15.780   1.843   2.866
15175PP      PP25279   0.612  15.540   9.825
15176PP      PP25280   5.425   4.772  12.136
15177PP      PP25281  10.832   7.371   3.542
15178PP      PP25282   7.104   3.495   4.199
15179PP      PP25283   5.491   4.094   0.551
15180PP      PP25284  13.665  12.741  12.651
15181PP      PP25285  13.672   5.379   3.811
15182PP      PP25286   7.149   1.629   1.725
15183PP      PP25287   8.885   4.683  10.277
15184PP      PP25288  12.942   3.173   9.921
15185PP      PP25289   5.270   7.781   8.396
15186PP      PP25290   8.626   7.777  13.111
15187PP      PP25291   0.778  14.172   2.923
15188PP      PP25292   0.485  15.096  11.230
15189PP      PP25293  12.708  10.636   2.466
15190PP      PP25294  15.063  15.285   0.891
15191PP      PP25295   9.081   4.692   1.916
15192PP      PP25296   7.196   0.093   2.851
15193PP      PP25297   7.306  10.799   4.049
15194PP      PP25298  13.688   5.318  12.358
15195PP      PP25299   5.702   9.983   9.514
15196PP      PP25300   4.269   1.294   0.651
15197PP      PP25301   6.465   3.050   2.716
15198PP      PP25302   9.466   1.430   2.726
15199PP      PP25303   9.873  10.294   8.942
15200PP      PP25304   5.901   6.459  12.549
15201PP      PP25305  10.310  11.747   1.271
15202PP      PP25306   6.050   2.252  11.234
15203PP      PP25307  14.193   2.578   3.578
15204PP      PP25308  10.338   2.012  10.561
15205PP      PP25309  10.874   6.620  11.109
15206PP      PP25310   8.613   9.243   3.557
15207PP      PP25311  14.526   7.373   3.527
15208PP      PP25312   8.180   2.211   1.740
15209PP      PP25313   3.646   8.258  13.188
15210PP      PP25314   1.101  11.145   9.415
15211PP      PP25315  14.691   6.014  11.034
15212PP      PP25316   9.962  14.828   3.190
15213PP      PP25317  13.866   5.324   0.634
15214PP      PP25318  12.482   2.031  13.337
15215PP      PP25319   9.652  10.619   1.655
15216PP      PP25320  12.978   5.563  11.900
15217PP      PP25321   7.779   6.925   8.784
15218PP      PP25322  15.811  10.908   2.045
15219PP      PP25323  15.079  13.055  12.531
15220PP      PP25324  14.400  12.828   2.020
15221PP      PP25325  14.308   3.398   9.843
15222PP      PP25326   7.082  14.208   3.738
15223PP      PP25327  10.211   1.329   4.341
15224PP      PP25328  11.454   1.615  11.682
15225PP      PP25329  11.168  12.384   4.798
15226PP      PP25330  11.796   6.718   8.856
15227PP      PP25331  14.898   5.080   2.367
15228PP      PP25332   5.745   1.035   4.557
15229PP      PP25333  14.672  14.974   1.506
15230PP      PP25334  14.075   7.027   1.654
15231PP      PP25335   9.741   8.930   8.771
15232PP      PP25336   3.270   4.390   0.581
15233PP      PP25337  15.623   2.742   2.513
15234PP      PP25338   7.586  12.913  11.928
15235PP      PP25339   2.296   9.906   9.478
15236PP      PP25340   6.911   4.711   9.089
15237PP      PP25341  12.598   2.788   1.663
15238PP      PP25342   4.901   9.054   2.378
15239PP      PP25343   3.276   9.111   8.877
15240PP      PP25344   2.019   6.624  12.048
15241PP      PP25345   8.181   3.660  11.647
15242PP      PP25346   1.824   0.902  12.180
15243PP      PP25347   4.054   9.678   9.525
15244PP      PP25348  13.081  11.953  13.449
15245PP      PP25349   2.689   2.513   3.898
15246PP      PP25350   3.596   0.583   5.296
15247PP      PP25351  15.208  11.742   3.902
15248PP      PP25352   0.201  12.953   4.804
15249PP      PP25353   7.190   1.643   0.773
15250PP      PP25354   4.341   4.112   8.836
15251PP      PP25355   3.123   2.549   4.228
15252PP      PP25356  12.992   0.303   1.315
15253PP      PP25357   0.831   8.333  11.894
15254PP      PP25358   9.154   0.421   1.117
15255PP      PP25359  12.565   1.274   9.286
15256PP      PP25360  12.864   8.571   2.701
15257PP      PP25361   4.743   8.789   9.554
15258PP      PP25362   6.004   1.167   9.860
15259PP      PP25363   7.854  15.565   5.125
15260PP      PP25364   1.009   9.108  13.029
15261PP      PP25365  14.843   3.317   3.857
15262PP      PP25366  13.658  14.601  10.842
15263PP      PP25367   5.436   5.424  13.071
15264PP      PP25368   4.990  11.301   1.735
15265PP      PP25369   4.411  11.565  12.915
15266PP      PP25370   4.069   6.497  13.145
15267PP      PP25371   8.969  14.670   4.064
15268PP      PP25372   9.191  11.237  10.407
15269PP      PP25373   9.401  10.515   0.112
15270PP      PP25374  10.175   1.856   4.329
15271PP      PP25375  13.544   0.450   8.891
15272PP      PP25376   4.512   6.298  12.036
15273PP      PP25377   0.348  12.285  12.123
15274PP      PP25378   7.071  13.264   2.844
15275PP      PP25379  10.939   2.708  10.373
15276PP      PP25380   1.517   3.999  10.478
15277PP      PP25381   3.714   6.307   2.858
15278PP      PP25382  13.574  15.622   9.397
15279PP      PP25383   9.396   5.786   8.317
15280PP      PP25384   0.076  10.858   2.577
15281PP      PP25385  14.366  15.541   0.291
15282PP      PP25386   8.779   9.763   9.606
15283PP      PP25387   1.107   2.344  11.490
15284PP      PP25388   1.600   1.440   2.936
15285PP      PP25389   2.695   6.311   8.493
15286PP      PP25390  10.336   3.334  10.030
15287PP      PP25391   9.115  14.318   0.282
15288PP      PP25392   4.776  14.880   0.435
15289PP      PP25393   6.314  15.372   2.559
15290PP      PP25394   6.452   5.327   9.867
15291PP      PP25395   9.219   6.018   8.762
15292PP      PP25396   9.358  11.536   1.415
15293PP      PP25397  15.481   5.560   9.760
15294PP      PP25398  11.109   7.006   3.790
15295PP      PP25399  11.292   0.374  10.983
15296PP      PP25400   4.641   3.601   3.868
15297PP      PP25401  12.250  11.484   0.045
15298PP      PP25402   0.135   2.138  13.601
15299PP      PP25403  13.299  10.764  11.934
15300PP      PP25404   5.120   5.555   0.372
15301PP      PP25405   5.369   6.908   2.918
15302PP      PP25406  15.506   9.924   8.299
15303PP      PP25407   3.657   5.088   2.644
15304PP      PP25408  10.890   2.097   1.279
15305PP      PP25409  11.759  10.843  12.612
15306PP      PP25410   1.082   6.798  10.545
15307PP      PP25411   0.359   0.985  12.810
15308PP      PP25412  12.306   9.973   0.340
15309PP      PP25413  12.518  14.140   3.638
15310PP      PP25414   5.566  14.235  11.776
15311PP      PP25415  15.350   1.794  11.935
15312PP      PP25416  10.689   8.129  10.995
15313PP      PP25417   0.906   4.540  13.076
15314PP      PP25418   8.095   3.736   0.507
15315PP      PP25419   2.834   4.493   4.485
15316PP      PP25420   9.895  15.478   1.550
15317PP      PP25421   5.696  10.091  12.363
15318PP      PP25422   5.247  12.698   0.683
15319PP      PP25423   6.820   0.001   9.753
15320PP      PP25424   0.898   1.914   1.292
15321PP      PP25425  11.652  15.654   0.773
15322PP      PP25426   5.108  11.627   9.570
15323PP      PP25427  12.867   7.969   9.387
15324PP      PP25428   2.889   8.780   9.544
15325PP      PP25429   9.560  13.442   9.711
15326PP      PP25430   5.854   3.728   0.758
15327PP      PP25431   5.555  13.947  11.349
15328PP      PP25432  11.193   9.889  11.895
15329PP      PP25433   5.790   4.408  11.401
15330PP      PP25434   6.083   6.543   3.532
15331PP      PP25435  12.801   1.087  11.738
15332PP      PP25436  13.692   3.688   9.448
15333PP      PP25437   2.195  13.219   2.111
15334PP      PP25438   4.791  13.895  10.498
15335PP      PP25439   4.173   4.324  12.656
15336PP      PP25440  10.058  14.688  12.617
15337PP      PP25441   9.471  13.941   2.135
15338PP      PP25442  14.065   2.556   4.090
15339PP      PP25443  13.487   0.745  11.361
15340PP      PP25444   5.406   4.038   8.618
15341PP      PP25445  10.066  14.120  13.543
15342PP      PP25446  14.417  13.964   2.508
15343PP      PP25447   8.419   3.200   3.916
15344PP      PP25448   7.712   2.210   1.529
15345PP      PP25449   4.494  12.184  13.253
15346PP      PP25450   8.584   4.995   3.123
15347PP      PP25451  15.520   9.149   8.724
15348PP      PP25452   2.060  11.160   9.470
15349PP      PP25453  15.062   4.575   9.769
15350PP      PP25454  11.749   3.107   9.593
15351PP      PP25455   1.493   5.140  12.046
15352PP      PP25456   2.860  12.497   1.988
15353PP      PP25457   9.457  10.264   9.247
15354PP      PP25458   0.718   0.590  10.758
15355PP      PP25459   1.915  10.032   2.628
15356PP      PP25460  14.843  14.350   2.098
15357PP      PP25461   9.119   8.495   9.920
15358PP      PP25462  11.414   6.457   9.142
15359PP      PP25463  11.144  13.423   4.869
15360PP      PP25464   4.758   9.414   8.809
15361PP      PP25465   0.088   8.946  10.201
15362PP      PP25466   8.915  15.818  13.244
15363PP      PP25467   7.055   9.579  11.589
15364PP      PP25468  15.593   0.251   0.423
15365PP      PP25469  11.589   7.329   0.022
15366PP      PP25470   7.473  15.199  10.164
15367PP      PP25471  12.391  11.195  13.222
15368PP      PP25472  13.600   5.557   8.997
15369PP      PP25473   3.080  14.481  12.894
15370PP      PP25474   3.577  12.448  12.432
15371PP      PP25475   5.348   3.240   3.269
15372PP      PP25476   2.132   1.477   4.548
15373PP      PP25477   9.655  10.648  11.437
15374PP      PP25478   2.917   0.918   0.735
15375PP      PP25479   9.603   1.834   3.663
15376PP      PP25480  11.678  13.322   4.830
15377PP      PP25481  13.889   6.380   0.596
15378PP      PP25482   6.474  13.659   4.263
15379PP      PP25483   1.036  11.715   0.764
15380PP      PP25484   3.646  15.063   0.914
15381PP      PP25485   3.285  11.307  12.069
15382PP      PP25486  13.802  14.827   0.262
15383PP      PP25487   0.814  11.435  10.938
15384PP      PP25488   5.293  10.461   8.339
15385PP      PP25489   5.162   1.351  10.353
15386PP      PP25490  13.206  12.087  12.156
15387PP      PP25491   8.067   3.301  11.295
15388PP      PP25492   8.961   1.347  10.786
15389PP      PP25493  13.818  13.131   9.724
15390PP      PP25494   4.141   7.181  11.553
15391PP      PP25495   6.023  13.059   1.242
15392PP      PP25496  12.185   9.730   2.485
15393PP      PP25497   2.468   0.013   3.112
15394PP      PP25498   1.976  15.125   4.022
15395PP      PP25499  13.265  12.919  13.562
15396PP      PP25500  13.933  10.774   8.964
15397PP      PP25501  14.767   9.217  13.075
15398PP      PP25502  12.737  13.422  10.988
15399PP      PP25503   2.102   2.636   1.298
15400PP      PP25504   5.118  12.959   0.218
15401PP      PP25505   1.295   1.723  10.049
15402PP      PP25506   7.374   0.254  10.711
15403PP      PP25507  11.609  11.781   1.504
15404PP      PP25508   8.712   8.000   9.425
15405PP      PP25509   8.046   1.096  11.726
15406PP      PP25510   8.832  10.320  10.078
15407PP      PP25511   8.154   9.493   0.958
15408PP      PP25512  12.661  12.902   1.292
15409PP      PP25513   3.031  10.144   3.242
15410PP      PP25514   6.998  10.773   1.879
15411PP      PP25515   8.537  14.935   4.196
15412PP      PP25516  11.601  14.607   4.382
15413PP      PP25517   8.389   9.480   1.438
15414PP      PP25518   0.577   1.483   9.490
15415PP      PP25519  13.410   8.675   1.231
15416PP      PP25520   3.323  14.023  12.760
15417PP      PP25521  10.396   7.435   3.273
15418PP      PP25522   6.322   3.471   1.547
15419PP      PP25523   2.632   2.474   8.990
15420PP      PP25524   8.104   5.079  12.813
15421PP      PP25525   3.595   4.070  12.760
15422PP      PP25526  12.389   7.360   8.386
15423PP      PP25527   2.030   5.511   0.278
15424PP      PP25528   7.924  12.477   3.791
15425PP      PP25529   4.338  13.883  10.145
15426PP      PP25530   4.946  13.633   2.456
15427PP      PP25531   9.616  11.607  11.088
15428PP      PP25532  11.956  15.315   4.528
15429PP      PP25533   6.346  14.110  11.181
15430PP      PP25534  14.045   3.837  12.989
15431PP      PP25535  12.314   8.570  12.497
15432PP      PP25536   6.267   0.775   0.433
15433PP      PP25537   9.848  11.186   0.563
15434PP      PP25538   5.915   3.393   3.326
15435PP      PP25539  12.225   1.353   2.468
15436PP      PP25540  15.357  12.771   4.089
15437PP      PP25541  11.761   8.468  11.740
15438PP      PP25542  10.053   1.079  11.385
15439PP      PP25543  10.636   5.072   8.490
15440PP      PP25544  14.232   3.905   1.676
15441PP      PP25545   7.476  11.298  11.439
15442PP      PP25546  12.479   4.622   3.127
15443PP      PP25547   6.134   1.064  12.084
15444PP      PP25548  12.607  11.553   8.943
15445PP      PP25549   2.828   1.539   1.557
15446PP      PP25550   8.527   4.973   9.973
15447PP      PP25551  12.053   2.732  13.033
15448PP      PP25552  14.078  12.665   9.715
15449PP      PP25553  12.167   2.510   2.385
15450PP      PP25554   3.056   9.293   1.155
15451PP      PP25555   2.816   2.108   2.431
15452PP      PP25556  12.488   6.052   1.538
15453PP      PP25557  14.356   6.727  12.067
15454PP      PP25558   3.163   5.989   2.513
15455PP      PP25559   2.701  11.122   2.355
15456PP      PP25560  11.330   9.055  12.712
15457PP      PP25561   6.120  15.823   9.051
15458PP      PP25562  10.733  13.828   1.720
15459PP      PP25563   5.360   7.617   9.765
15460PP      PP25564   4.859  11.894   9.222
15461PP      PP25565  10.823   7.371   0.566
15462PP      PP25566  10.626   6.488  10.465
15463PP      PP25567   4.582  13.828   0.416
15464PP      PP25568   8.237   9.339   8.798
15465PP      PP25569   4.681  13.024   1.659
15466PP      PP25570   7.215  10.645  13.506
15467PP      PP25571  13.505   9.818   1.988
15468PP      PP25572   5.417   7.257   8.553
15469PP      PP25573   6.473   0.112  12.747
15470PP      PP25574   8.590   7.097   9.511
15471PP      PP25575  10.031  12.818   1.771
15472PP      PP25576   7.922  13.474   3.807
15473PP      PP25577  11.243  11.018   1.089
15474PP      PP25578   5.364   2.172   5.292
15475PP      PP25579   2.330  13.023   2.646
15476PP      PP25580  13.704  11.713   4.839
15477PP      PP25581   7.913  10.956  12.983
15478PP      PP25582   5.038   3.153   9.494
15479PP      PP25583   4.440   3.829   4.337
15480PP      PP25584   9.302   0.891  13.343
15481PP      PP25585  12.773   2.422   1.268
15482PP      PP25586   9.897   9.665  11.925
15483PP      PP25587   5.891   1.227  12.989
15484PP      PP25588  12.321   8.465  10.138
15485PP      PP25589   3.592   9.460   3.566
15486PP      PP25590  13.909   9.303   0.060
15487PP      PP25591  12.417  15.289   2.697
15488PP      PP25592   2.997  11.804   0.625
15489PP      PP25593   0.850  12.562   1.642
15490PP      PP25594   4.614   1.668   2.268
15491PP      PP25595   8.531   3.216   3.393
15492PP      PP25596   0.210   8.529  12.607
15493PP      PP25597   6.752   0.291   1.104
15494PP      PP25598   3.045  13.995  11.501
15495PP      PP25599   8.756   2.892   3.008
15496PP      PP25600   4.258   6.330   2.331
15497PP      PP25601  11.294  10.512  11.921
15498PP      PP25602  10.829   9.683  13.342
15499PP      PP25603  11.015   7.273   9.212
15500PP      PP25604   4.810   4.272  12.093
15501PP      PP25605   2.743   2.075   0.132
15502PP      PP25606   2.259  13.931  10.899
15503PP      PP25607  14.708  13.354  11.454
15504PP      PP25608   1.086  11.235  11.340
15505PP      PP25609  11.216   5.162  10.328
15506PP      PP25610  14.624   5.389  12.840
15507PP      PP25611   3.155  15.753  12.036
15508PP      PP25612   7.731  13.923  12.629
15509PP      PP25613   6.948   5.107   8.599
15510PP      PP25614  14.243   6.751   0.714
15511PP      PP25615   1.562   1.803  12.206
15512PP      PP25616  10.050  15.353   4.647
15513PP      PP25617  14.674   0.824   3.408
15514PP      PP25618   1.610   6.537   0.905
15515PP      PP25619  15.010   3.275   9.206
15516PP      PP25620  13.461   5.537   0.370
15517PP      PP25621   7.704  14.508   2.482
15518PP      PP25622   8.902  13.465   4.978
15519PP      PP25623   7.324   9.855   2.064
15520PP      PP25624  15.531   6.287  10.659
15521PP      PP25625   5.603   8.094   8.626
15522PP      PP25626   7.343  14.893   2.881
15523PP      PP25627   8.197  15.235   0.078
15524PP      PP25628  14.589   6.781  10.763
15525PP      PP25629  14.961  13.840  10.297
15526PP      PP25630  10.719  15.480   4.237
15527PP      PP25631  10.850   9.809   0.828
15528PP      PP25632  10.092   8.273   2.730
15529PP      PP25633   2.446   0.672   9.296
15530PP      PP25634  10.140   3.197   3.879
15531PP      PP25635   9.133   2.378   1.544
15532PP      PP25636  13.464  14.139  11.905
15533PP      PP25637   6.350   7.789   2.837
15534PP      PP25638   4.048   5.042  11.384
15535PP      PP25639   9.507   3.925   3.746
15536PP      PP25640  11.126  13.454  10.835
15537PP      PP25641   4.475   4.054  13.206
15538PP      PP25642   1.653  12.273   3.993
15539PP      PP25643  12.268   3.268   3.298
15540PP      PP25644  14.862  11.087   1.700
15541PP      PP25645  10.397   3.419   3.488
15542PP      PP25646   0.220  14.736   0.411
15543PP      PP25647   3.455  13.356   0.907
15544PP      PP25648   5.101  10.409   3.385
15545PP      PP25649   2.903   4.992  10.192
15546PP      PP25650   1.321   9.690   1.996
15547PP      PP25651   4.015   3.341  12.940
15548PP      PP25652   6.767   9.912   2.127
15549PP      PP25653   3.133   5.815   1.406
15550PP      PP25654  13.002  11.677  12.995
15551PP      PP25655   0.306   7.747   3.671
15552PP      PP25656   3.465  10.663   0.746
15553PP      PP25657   0.285   4.425  13.290
15554PP      PP25658  12.997   6.092   2.857
15555PP      PP25659   0.705   9.984   4.270
15556PP      PP25660   7.739   1.648   3.329
15557PP      PP25661   6.507   3.252  12.711
15558PP      PP25662   0.510   7.514   1.841
15559PP      PP25663  13.413  12.851  11.344
15560PP      PP25664  12.225  10.054   3.530
15561PP      PP25665  13.189  13.306  11.276
15562PP      PP25666  14.610   5.857   9.656
15563PP      PP25667   0.877   5.177   2.678
15564PP      PP25668  12.750   9.028   3.614
15565PP      PP25669   2.107   9.233   2.140
15566PP      PP25670   5.048  14.665   2.810
15567PP      PP25671  13.111  15.536   2.030
15568PP      PP25672   6.541   6.664   3.807
15569PP      PP25673   1.528  15.737   2.578
15570PP      PP25674  11.390   5.635   9.568
15571PP      PP25675   8.740  14.877   0.857
15572PP      PP25676  10.601  13.480   2.099
15573PP      PP25677   3.139   7.906  11.159
15574PP      PP25678   3.283  12.023   1.028
15575PP      PP25679  15.036   4.519   1.441
15576PP      PP25680  12.480   2.317  11.641
15577PP      PP25681   1.111  13.357   3.879
15578PP      PP25682   7.894   1.661   9.699
15579PP      PP25683  10.249  15.457   2.465
15580PP      PP25684  15.534   0.517  10.120
15581PP      PP25685  14.363   4.309  11.760
15582PP      PP25686   3.445   2.593   9.520
15583PP      PP25687   7.871   0.007   1.189
15584PP      PP25688  15.305   1.434  12.305
15585PP      PP25689   2.991   3.593  12.650
15586PP      PP25690   6.236  11.988  11.856
15587PP      PP25691   4.648   4.999  11.764
15588PP      PP25692   1.720   1.446  10.193
15589PP      PP25693   1.576  11.838   1.120
15590PP      PP25694   5.495  15.588   1.653
15591PP      PP25695   6.782  11.193   2.120
15592PP      PP25696   3.064  11.160   9.074
15593PP      PP25697   7.094   6.115   8.552
15594PP      PP25698  12.653   5.943   1.025
15595PP      PP25699   1.797   2.824   0.865
15596PP      PP25700   4.812  13.913  11.967
15597PP      PP25701   0.389  14.103  12.522
15598PP      PP25702  12.902   5.355   4.247
15599PP      PP25703  14.612  10.637   2.309
15600PP      PP25704  15.581   6.025  11.388
15601PP      PP25705   5.385   9.580  11.715
15602PP      PP25706   8.809  12.138   9.219
15603PP      PP25707  12.143   4.670   1.405
15604PP      PP25708   0.869   6.380   9.075
15605PP      PP25709   0.918  13.704   3.051
15606PP      PP25710   1.777   0.539   2.900
15607PP      PP25711   1.254   3.169  10.004
15608PP      PP25712  14.708  13.468   9.464
15609PP      PP25713   9.187   2.040   4.328
15610PP      PP25714  11.582  13.528  11.446
15611PP      PP25715   8.900   4.740   3.981
15612PP      PP25716   6.340   9.867  13.038
15613PP      PP25717   2.618   2.980  10.318
15614PP      PP25718   3.945   3.720  13.526
15615PP      PP25719  11.421  12.900   0.166
15616PP      PP25720   1.415  15.313   1.062
15617PP      PP25721   3.429   0.872   1.576
15618PP      PP25722  10.953  11.544   9.441
15619PP      PP25723  14.187   7.567  11.271
15620PP      PP25724   5.049   7.737   2.968
15621PP      PP25725  13.702   2.729  10.011
15622PP      PP25726   0.164   5.193   0.673
15623PP      PP25727  11.518   6.333  10.007
15624PP      PP25728   7.164   2.953   0.739
15625PP      PP25729   8.047   1.058   0.857
15626PP      PP25730  10.192   0.552   2.267
15627PP      PP25731   4.975   6.247   2.439
15628PP      PP25732  10.996   8.282  13.024
15629PP      PP25733   9.603  15.282  10.039
15630PP      PP25734  11.461  12.167   4.014
15631PP      PP25735  11.284   1.389   4.516
15632PP      PP25736   3.209  12.080   2.718
15633PP      PP25737   9.170   5.564   2.254
15634PP      PP25738   1.787  12.434  12.559
15635PP      PP25739  14.053   5.885   9.879
15636PP      PP25740   3.870   8.283   8.783
15637PP      PP25741   0.434  14.141  11.652
15638PP      PP25742   6.699  14.084   4.510
15639PP      PP25743   5.244  10.877  13.176
15640PP      PP25744  12.735   7.129   9.340
15641PP      PP25745   2.483   8.903   2.271
15642PP      PP25746   4.703  13.963   2.022
15643PP      PP25747   0.898   9.223   2.799
15644PP      PP25748   3.457  15.743  12.474
15645PP      PP25749   2.862   5.397   8.412
15646PP      PP25750   5.353   1.961  10.027
15647PP      PP25751   5.506   7.091  11.254
15648PP      PP25752   9.152   2.914  10.644
15649PP      PP25753  12.463  10.669  10.136
15650PP      PP25754   4.335   9.976  13.601
15651PP      PP25755   3.341   0.159   1.881
15652PP      PP25756   1.830  15.512   9.931
15653PP      PP25757  11.181   2.296   4.031
15654PP      PP25758  10.546   6.212  11.598
15655PP      PP25759   9.319  12.177   9.336
15656PP      PP25760  14.894  11.463  10.769
15657PP      PP25761   0.856  10.137  12.306
15658PP      PP25762   5.612  14.485   9.047
15659PP      PP25763  15.597   9.216   4.198
15660PP      PP25764   2.334  13.870  12.454
15661PP      PP25765  14.338   2.628   3.052
15662PP      PP25766   5.721   1.137   0.900
15663PP      PP25767   6.246   0.898  10.246
15664PP      PP25768   0.172   5.437   9.680
15665PP      PP25769  12.015   8.313   9.260
15666PP      PP25770   7.307   0.639  11.510
15667PP      PP25771   2.126   9.327   3.224
15668PP      PP25772   8.579   3.500   9.449
15669PP      PP25773  10.297   4.415   0.676
15670PP      PP25774   5.403   3.695  13.023
15671PP      PP25775  10.389   0.434   9.640
15672PP      PP25776   1.760   6.107  13.182
15673PP      PP25777   5.810   6.508  13.566
15674PP      PP25778  14.208   1.374  13.063
15675PP      PP25779   6.066   3.252   3.797
15676PP      PP25780  15.074  11.116  12.137
15677PP      PP25781   4.356   0.966  11.962
15678PP      PP25782  13.264  12.032  10.198
15679PP      PP25783  11.869  13.155   2.165
15680PP      PP25784   0.717   8.475  10.402
15681PP      PP25785  13.708   6.547   3.542
15682PP      PP25786   7.568   8.576   4.006
15683PP      PP25787  13.283   0.599   2.141
15684PP      PP25788   6.510   0.739   1.452
15685PP      PP25789   9.314   0.493  10.316
15686PP      PP25790  10.714   5.418  13.156
15687PP      PP25791   0.424  10.186  13.507
15688PP      PP25792  11.049   1.954   2.275
15689PP      PP25793   2.610   1.688   2.837
15690PP      PP25794  14.606   7.425  10.039
15691PP      PP25795   3.562   9.452   9.460
15692PP      PP25796  13.470  10.205  11.038
15693PP      PP25797   8.666  15.027  13.557
15694PP      PP25798  12.647   3.720  13.035
15695PP      PP25799   5.689   0.100   9.442
15696PP      PP25800   4.628   8.267   0.000
15697PP      PP25801   6.137   1.851   4.995
15698PP      PP25802  11.891   2.665  10.093
15699PP      PP25803   5.562  12.267   9.503
15700PP      PP25804  14.383  13.100  10.741
15701PP      PP25805   0.179   8.567   9.863
15702PP      PP25806  15.587   9.592  13.201
15703PP      PP25807   3.756   0.629  13.320
15704PP      PP25808   8.077   1.705  12.906
15705PP      PP25809   5.930   5.318  12.893
15706PP      PP25810   4.918  10.469  10.764
15707PP      PP25811   9.325  13.653   0.800
15708PP      PP25812   8.220  15.529   3.001
15709PP      PP25813   4.665   3.018  12.050
15710PP      PP25814   2.814   1.390  11.113
15711PP      PP25815   7.943   4.745  12.413
15712PP      PP25816   6.085   9.798  11.647
15713PP      PP25817   9.671   9.629  10.027
15714PP      PP25818   3.066  14.360   2.447
15715PP      PP25819   6.506  12.890   3.748
15716PP      PP25820  13.421  11.513   9.303
15717PP      PP25821   1.506  13.082  12.331
15718PP      PP25822  15.123   8.565   3.405
15719PP      PP25823   6.421   6.466   2.915
15720PP      PP25824   1.507  13.675  11.181
15721PP      PP25825  11.299   9.221  13.324
15722PP      PP25826  15.251   5.992   1.396
15723PP      PP25827  12.902  10.827   4.114
15724PP      PP25828   4.062   0.718   3.869
15725PP      PP25829   8.141   3.500   3.612
15726PP      PP25830   2.144   1.893   1.049
15727PP      PP25831  10.545   5.362   1.641
15728PP      PP25832   9.682  12.717  12.586
15729PP      PP25833   6.673   7.497   1.476
15730PP      PP25834   1.828   6.744  12.611
15731PP      PP25835   9.883  13.185   1.416
15732PP      PP25836   2.128  11.684   0.326
15733PP      PP25837   5.746   9.039   0.615
15734PP      PP25838   4.887   2.720   8.839
15735PP      PP25839   0.515   7.242  12.668
15736PP      PP25840   1.465   4.740   0.698
15737PP      PP25841   6.414  15.511   9.648
15738PP      PP25842  13.906   7.428   8.321
15739PP      PP25843  14.355   3.147  11.437
15740PP      PP25844  10.978  13.001   9.337
15741PP      PP25845   2.022   7.227  12.636
15742PP      PP25846   5.215  11.588  13.101
15743PP      PP25847   5.565   4.050   2.130
15744PP      PP25848   4.199   9.491  13.047
15745PP      PP25849   4.499  10.073   2.272
15746PP      PP25850   2.831   3.823   9.624
15747PP      PP25851  15.744  12.770   3.705
15748PP      PP25852   0.464   6.694  13.411
15749PP      PP25853   3.103  13.790   9.703
15750PP      PP25854   3.750   8.924   2.792
15751PP      PP25855   8.562   4.570  11.254
15752PP      PP25856   6.011   8.603   0.800
15753PP      PP25857   5.674   3.049   0.547
15754PP      PP25858  15.490   4.988   2.298
15755PP      PP25859   0.887   6.004  10.183
15756PP      PP25860   8.244   8.482  10.909
15757PP      PP25861   3.984   7.941  12.625
15758PP      PP25862   8.225   4.506   2.187
15759PP      PP25863  14.618   2.489   8.908
15760PP      PP25864   7.295   0.289   3.331
15761PP      PP25865  11.239   5.749   2.628
15762PP      PP25866  10.698   2.471   3.601
15763PP      PP25867   9.271   5.578   3.614
15764PP      PP25868   7.863  12.614   1.429
15765PP      PP25869   7.770  10.535  12.708
15766PP      PP25870  15.629  13.799   1.224
15767PP      PP25871   7.536   0.980  12.931
15768PP      PP25872   8.062  11.133   1.065
15769PP      PP25873  14.134   5.586   3.967
15770PP      PP25874   0.648   6.036  10.943
15771PP      PP25875   8.084  10.083  11.940
15772PP      PP25876  13.522  14.576   2.199
15773PP      PP25877   0.908  12.928  10.256
15774PP      PP25878   5.840   2.237   2.497
15775PP      PP25879  13.266  14.555  11.170
15776PP      PP25880  13.009   1.299   2.832
15777PP      PP25881   0.119   4.005  11.954
15778PP      PP25882   9.681  15.269   3.066
15779PP      PP25883   6.050  10.188   8.287
15780PP      PP25884  11.790   2.797   4.261
15781PP      PP25885   9.615   0.473   0.148
15782PP      PP25886  11.374  12.006   4.481
15783PP      PP25887   0.451   3.972  13.548
15784PP      PP25888   7.913   5.171   1.779
15785PP      PP25889   1.995   0.615   1.275
15786PP      PP25890   4.891   4.999   3.607
15787PP      PP25891   6.977  13.632  12.436
15788PP      PP25892   0.316   9.024   2.024
15789PP      PP25893  11.493   2.680  10.423
15790PP      PP25894  11.603   4.822  10.216
15791PP      PP25895  10.299  10.257  13.264
15792PP      PP25896  10.475  11.313   9.290
15793PP      PP25897   7.702   1.291   0.515
15794PP      PP25898   9.089  13.525  10.050
15795PP      PP25899   1.664   0.083   1.109
15796PP      PP25900  10.123   0.339   4.163
15797PP      PP25901   9.984   8.630   1.620
15798PP      PP25902   8.715   1.967   2.403
15799PP      PP25903   8.027   0.796   3.766
15800PP      PP25904   9.730   7.465   8.911
15801PP      PP25905   1.499  15.466   3.577
15802PP      PP25906   3.092  10.275   1.747
15803PP      PP25907  12.503  11.095   1.714
15804PP      PP25908   3.587   4.592  10.626
15805PP      PP25909   6.272   3.959   2.597
15806PP      PP25910   4.571  14.339   0.258
15807PP      PP25911   9.701   4.446   2.357
15808PP      PP25912   3.880  11.504  12.614
15809PP      PP25913  14.631  14.065   3.438
15810PP      PP25914  10.457  11.243  10.287
15811PP      PP25915   1.866  13.290  10.235
15812PP      PP25916  10.870   7.519   2.253
15813PP      PP25917  13.105  13.791  12.003
15814PP      PP25918   5.466   1.493   2.810
15815PP      PP25919   8.559   9.643  12.740
15816PP      PP25920   2.228  13.773   9.600
15817PP      PP25921   5.831   7.159   1.647
15818PP      PP25922   2.705   2.398   2.869
15819PP      PP25923   8.901   3.265   2.675
15820PP      PP25924   0.129   6.024   3.465
15821PP      PP25925  11.735  10.800   3.525
15822PP      PP25926  15.640   7.674   9.783
15823PP      PP25927  13.551   1.216  12.198
15824PP      PP25928   1.074   8.103   3.935
15825PP      PP25929   1.061   9.561   9.078
15826PP      PP25930   0.437  12.849  13.278
15827PP      PP25931   6.272   2.858   4.614
15828PP      PP25932  11.086   5.477   1.547
15829PP      PP25933   0.950   2.301  10.446
15830PP      PP25934   4.245   0.190  13.144
15831PP      PP25935  13.752   9.778  10.082
15832PP      PP25936   0.618   7.422   3.375
15833PP      PP25937   3.460  13.561  10.565
15834PP      PP25938   4.120  15.388  10.146
15835PP      PP25939  10.532   4.488   0.138
15836PP      PP25940  15.388  15.573  10.168
15837PP      PP25941   8.513   9.471   0.518
15838PP      PP25942   8.031   6.009   3.326
15839PP      PP25943   5.786  12.195  11.924
15840PP      PP25944  13.816   1.100  11.758
15841PP      PP25945  14.781   4.839  12.991
15842PP      PP25946  11.996   2.516   0.382
15843PP      PP25947   9.544  11.932  12.152
15844PP      PP25948   7.453   2.205   4.568
15845PP      PP25949  15.325   7.257   9.783
15846PP      PP25950   0.961   6.435   9.904
15847PP      PP25951   1.577   8.443   2.324
15848PP      PP25952   0.411   1.616   0.685
15849PP      PP25953   1.109   0.443   9.693
15850PP      PP25954   4.322   5.861   0.055
15851PP      PP25955  12.202   3.100   4.272
15852PP      PP25956  15.760   4.378   2.235
15853PP      PP25957  10.431  14.085  11.175
15854PP      PP25958   5.671   6.706   2.498
15855PP      PP25959   9.333  10.554   2.320
15856PP      PP25960  12.069  11.616  13.191
15857PP      PP25961  12.699  15.178   0.698
15858PP      PP25962  11.249   4.868   9.840
15859PP      PP25963  10.952   1.576   0.403
15860PP      PP25964   6.542   9.059   0.201
15861PP      PP25965   7.575  14.282  10.131
15862PP      PP25966   3.277  15.507   8.376
15863PP      PP25967  12.243  13.170  12.141
15864PP      PP25968  15.108   0.960   0.717
15865PP      PP25969   2.750   5.293   3.312
15866PP      PP25970   9.856   6.652  12.678
15867PP      PP25971   0.205   9.861  10.246
15868PP      PP25972  11.793  13.290  11.949
15869PP      PP25973  13.292  13.332   2.907
15870PP      PP25974   0.071   1.065  12.366
15871PP      PP25975   4.119   6.819   0.919
15872PP      PP25976   7.274  11.259   0.761
15873PP      PP25977   5.651   6.408   3.811
15874PP      PP25978   1.067  13.310   0.668
15875PP      PP25979  11.414  15.455  12.683
15876PP      PP25980   0.554  13.917  10.159
15877PP      PP25981   2.783  13.955   4.157
15878PP      PP25982   4.195  12.347  11.248
15879PP      PP25983   1.464   0.237   4.931
15880PP      PP25984   5.056   3.035  10.876
15881PP      PP25985   7.048   4.468   2.204
15882PP      PP25986   4.587   3.129  11.087
15883PP      PP25987   4.212  12.433   0.947
15884PP      PP25988   0.960  15.053  12.691
15885PP      PP25989   9.801   0.097   3.783
15886PP      PP25990   3.588  12.397   2.887
15887PP      PP25991   8.449   2.316  13.581
15888PP      PP25992  15.821   0.160   1.667
15889PP      PP25993   6.645  11.995  12.579
15890PP      PP25994   1.926   1.107   0.991
15891PP      PP25995   3.330  10.753   4.008
15892PP      PP25996   3.289   4.446  12.066
15893PP      PP25997   5.217  10.223  12.498
15894PP      PP25998   3.503  13.185  11.496
15895PP      PP25999   4.993   1.784   4.061
15896PP      PP26000   8.301   9.698  10.552
15897PP      PP26001  15.547   8.527  10.161
15898PP      PP26002   2.889   0.500   3.526
15899PP      PP26003  13.727   7.653  12.469
15900PP      PP26004  14.002  15.456   1.517
15901PP      PP26005   9.530   3.150  11.885
15902PP      PP26006   8.488   0.425  10.971
15903PP      PP26007  14.378  13.122   2.462
15904PP      PP26008  13.750   7.465   3.401
15905PP      PP26009   6.460   2.970  11.698
15906PP      PP26010   3.286   1.368   1.330
15907PP      PP26011  10.362  13.495  12.006
15908PP      PP26012   0.112   1.916  10.678
15909PP      PP26013   3.076  15.373  10.669
15910PP      PP26014  12.393  11.712  11.227
15911PP      PP26015  14.602   6.124  12.842
15912PP      PP26016   1.226   8.285   1.041
15913PP      PP26017   9.007   2.424   9.275
15914PP      PP26018   6.585  11.957   3.598
15915PP      PP26019  12.296   5.025   0.072
15916PP      PP26020   2.061   6.353   9.087
15917PP      PP26021  11.053   3.951  13.268
15918PP      PP26022  14.124   3.754   0.763
15919PP      PP26023   6.749   9.009   1.984
15920PP      PP26024   9.732   3.860  13.600
15921PP      PP26025  11.381   2.221  12.535
15922PP      PP26026  12.745   6.521   2.944
15923PP      PP26027   5.782  13.693  10.130
15924PP      PP26028  12.868   8.072   0.834
15925PP      PP26029   5.499   8.348   2.449
15926PP      PP26030   2.381   4.991  11.853
15927PP      PP26031   9.587   9.821   3.288
15928PP      PP26032   2.886  14.883  10.969
15929PP      PP26033   1.130   6.235  10.825
15930PP      PP26034  14.614   0.705  12.466
15931PP      PP26035  10.742   1.484   2.506
15932PP      PP26036   5.328   6.021   9.901
15933PP      PP26037  10.283   3.383  11.329
15934PP      PP26038   2.291  11.153   0.054
15935PP      PP26039   8.562  15.574   3.406
15936PP      PP26040  15.193   6.265  11.062
15937PP      PP26041   7.690   6.618   3.954
15938PP      PP26042  11.906   2.111  10.063
15939PP      PP26043   8.278   8.020   9.131
15940PP      PP26044   7.782   1.491  10.731
15941PP      PP26045  15.341   5.494   2.280
15942PP      PP26046   1.957   8.114   3.475
15943PP      PP26047   2.260  11.918   1.142
15944PP      PP26048   8.136   8.441  12.435
15945PP      PP26049   1.312   1.028   2.365
15946PP      PP26050   4.826   7.437  10.422
15947PP      PP26051  10.408   0.737   9.206
15948PP      PP26052  15.802   5.871   4.038
15949PP      PP26053  10.954  15.353   4.708
15950PP      PP26054   2.547   1.543   9.724
15951PP      PP26055  15.349   8.527  10.851
15952PP      PP26056  12.279   9.103   9.639
15953PP      PP26057  15.512   4.459   8.899
15954PP      PP26058   4.059   1.772   9.715
15955PP      PP26059  14.558  14.620   4.794
15956PP      PP26060  10.739  14.572  13.485
15957PP      PP26061   1.532   7.431  12.533
15958PP      PP26062   0.112  11.356  12.552
15959PP      PP26063   3.584  10.783   2.477
15960PP      PP26064  13.068   0.843  13.196
15961PP      PP26065   5.291   9.661   9.572
15962PP      PP26066  14.940   0.088  13.232
15963PP      PP26067   8.318   5.694   8.486
15964PP      PP26068   4.325   1.138   9.236
15965PP      PP26069   0.521   7.370  10.555
15966PP      PP26070  14.729   9.151  12.133
15967PP      PP26071   2.494   9.089   9.424
15968PP      PP26072   3.718   4.681  13.361
15969PP      PP26073   7.549   3.661   2.438
15970PP      PP26074   9.683  15.203   4.325
15971PP      PP26075  15.447  12.244  12.868
15972PP      PP26076   1.770   3.761   4.367
15973PP      PP26077   1.296  14.444  11.652
15974PP      PP26078  11.399   9.679   0.905
15975PP      PP26079   6.536  15.310  13.221
15976PP      PP26080   8.321   1.905  11.935
15977PP      PP26081   5.814  12.234   2.878
15978PP      PP26082   2.680   7.733  10.925
15979PP      PP26083   6.891   8.116   9.622
15980PP      PP26084   5.567  11.367   1.461
15981PP      PP26085   7.091  11.427   1.717
15982PP      PP26086  13.666   1.965   3.382
15983PP      PP26087   6.374  10.855   2.007
15984PP      PP26088   8.998   3.466   1.697
15985PP      PP26089   8.099  15.701  11.265
15986PP      PP26090   0.811  14.489  11.862
15987PP      PP26091  15.589  10.382  10.959
15988PP      PP26092   0.480   6.773  12.385
15989PP      PP26093  10.600  10.722  13.506
15990PP      PP26094   4.768   1.514   1.817
15991PP      PP26095  12.939   8.276   0.037
15992PP      PP26096  11.806  10.975  10.654
15993PP      PP26097  12.947  11.726   9.308
15994PP      PP26098   6.597   4.647  13.298
15995PP      PP26099   7.067   8.169   0.197
15996PP      PP26100   9.599  13.509  12.788
15997PP      PP26101   1.799   4.154  11.064
15998PP      PP26102   2.443  10.857   0.493
15999PP      PP26103   0.257   7.816  11.533
16000PP      PP26104   7.618  10.997  11.993
16001PP      PP26105   7.832  13.216  11.410
16002PP      PP26106   7.340   8.436   9.521
16003PP      PP26107   2.434  15.499   2.717
16004PP      PP26108  14.810   7.044   0.008
16005PP      PP26109  11.404  15.252   3.112
16006PP      PP26110  13.866   3.291   2.397
16007PP      PP26111   4.003   9.207   9.302
16008PP      PP26112   8.202  15.105   9.868
16009PP      PP26113   3.286   7.809   0.052
16010PP      PP26114  12.552  11.820   2.274
16011PP      PP26115  11.075  11.236   3.196
16012PP      PP26116   0.466   4.267   4.059
16013PP      PP26117   2.169   9.143   9.019
16014PP      PP26118  15.551   7.174  12.839
16015PP      PP26119   9.871  13.704   2.917
16016PP      PP26120   3.648   2.515   4.363
16017PP      PP26121   6.290  13.794  10.094
16018PP      PP26122   2.113  13.020   1.005
16019PP      PP26123  14.120  13.562   2.246
16020PP      PP26124   6.487   6.360  12.014
16021PP      PP26125   3.620   1.684   2.452
16022PP      PP26126   0.059   0.905  10.175
16023PP      PP26127   4.642  11.016   9.092
16024PP      PP26128  15.669   5.401  10.660
16025PP      PP26129   3.607  12.410   1.636
16026PP      PP26130  10.391  10.451   9.724
16027PP      PP26131   3.566  14.429  12.519
16028PP      PP26132   4.256   2.755   0.776
16029PP      PP26133  11.293  15.233  10.871
16030PP      PP26134  15.166   3.532   2.596
16031PP      PP26135   5.534  13.691   9.141
16032PP      PP26136   3.543   9.331  11.918
16033PP      PP26137  11.170   7.055  11.011
16034PP      PP26138   4.162   1.393   4.861
16035PP      PP26139  14.658  10.581   4.015
16036PP      PP26140  14.631   9.188  11.120
16037PP      PP26141   0.777  14.709   1.282
16038PP      PP26142   1.454   9.178   2.757
16039PP      PP26143   7.390   3.519  13.186
16040PP      PP26144   2.190  12.319  10.972
16041PP      PP26145   8.561  12.535   1.921
16042PP      PP26146  12.219  12.070   9.040
16043PP      PP26147   9.599  15.079   3.535
16044PP      PP26148   5.086   4.610  11.727
16045PP      PP26149  13.380   6.942   3.388
16046PP      PP26150   5.318  11.988   3.781
16047PP      PP26151   4.941   6.603   2.847
16048PP      PP26152   0.137  10.501   3.850
16049PP      PP26153   8.503  12.030  12.346
16050PP      PP26154   6.247  14.154   9.705
16051PP      PP26155   2.577  13.147   1.209
16052PP      PP26156   7.224   7.930   1.663
16053PP      PP26157   0.165   3.275   1.066
16054PP      PP26158   6.689   6.571   9.441
16055PP      PP26159  15.366   2.428  10.183
16056PP      PP26160  10.111   4.475  12.805
16057PP      PP26161   0.833   8.966   1.929
16058PP      PP26162  14.175   8.403   1.820
16059PP      PP26163   3.821   5.969   9.983
16060PP      PP26164  12.277  10.673  12.774
16061PP      PP26165  12.727  13.274   3.700
16062PP      PP26166  11.993  14.118  13.385
16063PP      PP26167  13.370   4.338   0.713
16064PP      PP26168   3.634   1.147   9.551
16065PP      PP26169   1.891   2.124  11.878
16066PP      PP26170   8.341   4.514   4.226
16067PP      PP26171   7.043  10.246   2.427
16068PP      PP26172  10.584   7.280   1.856
16069PP      PP26173   9.937   4.080   0.458
16070PP      PP26174   5.664  12.412  10.592
16071PP      PP26175   8.980   7.564   9.276
16072PP      PP26176   2.508  11.561   3.289
16073PP      PP26177   4.606  13.127   3.229
16074PP      PP26178  13.085  13.331   4.096
16075PP      PP26179   8.026   7.378   2.877
16076PP      PP26180   5.811   7.412  12.947
16077PP      PP26181   0.021   4.612   4.117
16078PP      PP26182   9.495  10.028   2.297
16079PP      PP26183   7.615   7.288   9.811
16080PP      PP26184  12.636   1.175  10.314
16081PP      PP26185  15.243  13.402   0.283
16082PP      PP26186   7.195   4.991   4.063
16083PP      PP26187   5.789   8.454   3.004
16084PP      PP26188  10.249   7.344   2.282
16085PP      PP26189   4.383   4.533   9.581
16086PP      PP26190   0.159   6.380  12.632
16087PP      PP26191   6.224   5.212  11.794
16088PP      PP26192   5.429   1.752   4.967
16089PP      PP26193   7.663  11.511  11.883
16090PP      PP26194   4.497   5.564  13.270
16091PP      PP26195  14.573  12.049   0.055
16092PP      PP26196   3.755  13.025   1.839
16093PP      PP26197  13.585  12.590   9.517
16094PP      PP26198  15.380   6.320   2.655
16095PP      PP26199   5.891   2.003   1.857
16096PP      PP26200  11.252   8.244   2.531
16097PP      PP26201   7.502   2.659   2.430
16098PP      PP26202  14.060   0.068   0.069
16099PP      PP26203  14.103   7.075   3.543
16100PP      PP26204   3.455  12.551   1.034
16101PP      PP26205  11.684   8.404   4.244
16102PP      PP26206   7.480  13.722  12.176
16103PP      PP26207  11.064  10.701   0.202
16104PP      PP26208  15.599   4.555   0.112
16105PP      PP26209   0.596   5.489   2.105
16106PP      PP26210  13.975   2.677  13.482
16107PP      PP26211   3.689  15.011  13.169
16108PP      PP26212  13.652  10.235  12.818
16109PP      PP26213  13.830   8.014   1.707
16110PP      PP26214   2.614  12.583   9.114
16111PP      PP26215   8.499  11.396   4.829
16112PP      PP26216  12.614   9.441   9.457
16113PP      PP26217  15.247   4.512  10.732
16114PP      PP26218   9.569   7.577  12.843
16115PP      PP26219   2.157   4.306   2.888
16116PP      PP26220  11.283   5.986   0.257
16117PP      PP26221   8.017   6.720   1.315
16118PP      PP26222   3.896   2.234  10.742
16119PP      PP26223  12.117  13.696   2.319
16120PP      PP26224  14.208  11.605   4.007
16121PP      PP26225   3.100   4.805   0.881
16122PP      PP26226  10.005  15.573   3.421
16123PP      PP26227   9.464   3.159   9.946
16124PP      PP26228  11.379   3.661  12.310
16125PP      PP26229  10.196   1.592  11.370
16126PP      PP26230  11.719   0.560   3.853
16127PP      PP26231  12.539  13.789   0.587
16128PP      PP26232   4.987  10.699   3.793
16129PP      PP26233   8.390   8.890   8.541
16130PP      PP26234   3.704   0.811  10.089
16131PP      PP26235   8.716   0.458  12.352
16132PP      PP26236  15.642  12.665  10.125
16133PP      PP26237   6.164   4.750  11.564
16134PP      PP26238  14.158  11.006   3.244
16135PP      PP26239   5.266  14.867   9.773
16136PP      PP26240   9.238  10.958  11.303
16137PP      PP26241  10.576  10.749   2.586
16138PP      PP26242  10.109   2.492  10.563
16139PP      PP26243   5.926  11.733   2.978
16140PP      PP26244   1.805   7.137  11.234
16141PP      PP26245   9.265  12.058   1.498
16142PP      PP26246   0.770  14.938   3.514
16143PP      PP26247   4.940  12.276  13.494
16144PP      PP26248   4.998   7.343  12.212
16145PP      PP26249  12.196   1.363  10.548
16146PP      PP26250  15.159  15.818   2.995
16147PP      PP26251  14.240  10.440  12.884
16148PP      PP26252   9.331  14.208  10.906
16149PP      PP26253  12.575   7.798   4.027
16150PP      PP26254   3.248  11.731   8.442
16151PP      PP26255   1.247  12.430   9.107
16152PP      PP26256   2.088   4.624   2.451
16153PP      PP26257  14.690  13.400  10.345
16154PP      PP26258   9.031  15.127   1.232
16155PP      PP26259   4.813  12.615   9.587
16156PP      PP26260   5.892   7.359  10.389
16157PP      PP26261   3.527   4.229   2.849
16158PP      PP26262  11.071  15.816   4.478
16159PP      PP26263   2.832  10.124  11.022
16160PP      PP26264  14.316  13.189  11.798
16161PP      PP26265   3.401   4.911   0.421
16162PP      PP26266  12.786   3.492  12.577
16163PP      PP26267   1.483   8.190   9.235
16164PP      PP26268   6.944  12.647   9.271
16165PP      PP26269   3.978   2.345   2.193
16166PP      PP26270   5.438  14.753  12.562
16167PP      PP26271   6.317   6.033  10.578
16168PP      PP26272  10.727  11.104   0.276
16169PP      PP26273  14.784   6.283  11.480
16170PP      PP26274   8.296   2.396   4.505
16171PP      PP26275   3.523   0.789   3.985
16172PP      PP26276   2.592   9.283   3.446
16173PP      PP26277   4.293  13.950   8.778
16174PP      PP26278  12.417  14.701  11.275
16175PP      PP26279   5.491  15.593  11.092
16176PP      PP26280   4.119   5.488   2.798
16177PP      PP26281  15.373   1.547   3.652
16178PP      PP26282  15.635   3.666   9.747
16179PP      PP26283   5.685   5.106   2.273
16180PP      PP26284   1.511   0.778   9.757
16181PP      PP26285  11.862   8.328   0.157
16182PP      PP26286   9.347  11.778  12.680
16183PP      PP26287  13.744  10.864  12.233
16184PP      PP26288   6.660   5.253   0.447
16185PP      PP26289   1.034  10.870  12.380
16186PP      PP26290  15.671   4.446  11.716
16187PP      PP26291   4.247   4.565  13.126
16188PP      PP26292   8.499  12.895  10.366
16189PP      PP26293   4.880   5.963  11.925
16190PP      PP26294   9.572   4.223   2.915
16191PP      PP26295   3.807  10.415  11.688
16192PP      PP26296   4.460   0.487  11.473
16193PP      PP26297  12.001   6.965   0.877
16194PP      PP26298  11.063   8.672   1.663
16195PP      PP26299  13.080   7.325   0.268
16196PP      PP26300  12.632  15.337  13.259
16197PP      PP26301   7.411   5.085   8.324
16198PP      PP26302  15.610   9.316  12.574
16199PP      PP26303   1.782  13.406   1.803
16200PP      PP26304   3.794   5.715  12.130
16201PP      PP26305  12.312  11.380   2.440
16202PP      PP26306   5.289   3.440  13.527
16203PP      PP26307  10.013  14.529  10.294
16204PP      PP26308  15.305   8.447  12.301
16205PP      PP26309  13.817  14.381   2.610
16206PP      PP26310   1.153   4.250  11.389
16207PP      PP26311  14.392   8.571   3.819
16208PP      PP26312   0.303   9.837   8.890
16209PP      PP26313   3.739  13.759   1.074
16210PP      PP26314  15.202   1.451   9.095
16211PP      PP26315   7.248   7.283   2.784
16212PP      PP26316   0.213   4.851   1.039
16213PP      PP26317   3.304   0.589   3.156
16214PP      PP26318   7.649   4.901  10.484
16215PP      PP26319   7.853   0.619  12.188
16216PP      PP26320   3.026   9.742   1.840
16217PP      PP26321   7.339  10.047   9.638
16218PP      PP26322   8.523  15.541   9.893
16219PP      PP26323   5.150   9.476  10.446
16220PP      PP26324   8.026   4.337   3.024
16221PP      PP26325   0.544   8.389  12.973
16222PP      PP26326   5.962   1.562  11.963
16223PP      PP26327   3.382   0.400   1.277
16224PP      PP26328   9.404  15.233   2.051
16225PP      PP26329   5.122  14.520   0.573
16226PP      PP26330   4.301   9.075   2.091
16227PP      PP26331   0.325   4.966   3.909
16228PP      PP26332   7.289   5.785  11.448
16229PP      PP26333   9.649  11.038  11.775
16230PP      PP26334   0.016  13.839   3.375
16231PP      PP26335   6.317   1.139   3.103
16232PP      PP26336  12.475  10.667   9.297
16233PP      PP26337   4.573  11.636   8.171
16234PP      PP26338  14.169  15.797   1.887
16235PP      PP26339   1.932   7.533  10.000
16236PP      PP26340  14.628  13.553   3.728
16237PP      PP26341   5.450   8.146   9.662
16238PP      PP26342   2.685   7.207   0.272
16239PP      PP26343  12.751   9.130  11.366
16240PP      PP26344   3.527   7.649   9.735
16241PP      PP26345   3.667  11.892  13.468
16242PP      PP26346   2.417  13.371   0.758
16243PP      PP26347   6.850  10.191   4.255
16244PP      PP26348  10.658   4.131   0.986
16245PP      PP26349  10.723  11.465  13.506
16246PP      PP26350   2.592  10.552   9.460
16247PP      PP26351   9.414   8.048   1.966
16248PP      PP26352   2.788   5.265   2.122
16249PP      PP26353   2.102   2.364   0.806
16250PP      PP26354   4.521  12.733   2.910
16251PP      PP26355  14.191   4.854   2.982
16252PP      PP26356  12.499   5.682   4.127
16253PP      PP26357   8.375   5.771   1.553
16254PP      PP26358   2.854  14.400   0.123
16255PP      PP26359  10.348   4.518  13.252
16256PP      PP26360   8.878   6.624   9.658
16257PP      PP26361   6.469  15.173  11.137
16258PP      PP26362   4.018   3.004   3.907
16259PP      PP26363   0.066   5.912   9.925
16260PP      PP26364  10.311   9.253   3.305
16261PP      PP26365  13.851   9.789   8.800
16262PP      PP26366   7.183   0.649   4.197
16263PP      PP26367   7.315   1.620   8.927
16264PP      PP26368   3.682   7.158   9.157
16265PP      PP26369   2.539  14.838  10.199
16266PP      PP26370   8.854   2.002   0.700
16267PP      PP26371   4.611   0.818   1.864
16268PP      PP26372   9.166   9.381  11.416
16269PP      PP26373   4.248  15.642  10.621
16270PP      PP26374  12.415  14.764   0.865
16271PP      PP26375  10.948   3.541  11.699
16272PP      PP26376   8.416   1.425   4.488
16273PP      PP26377   1.831  15.709   4.933
16274PP      PP26378   7.414   8.846  12.834
16275PP      PP26379  11.056  10.556  13.291
16276PP      PP26380   6.525  11.427   3.832
16277PP      PP26381   4.255   0.138  11.839
16278PP      PP26382   8.398  12.419   4.026
16279PP      PP26383  13.290   6.213   3.738
16280PP      PP26384   9.667   8.280   8.873
16281PP      PP26385   1.121  14.802  10.254
16282PP      PP26386   5.283   7.675  12.513
16283PP      PP26387   8.915   3.657   9.035
16284PP      PP26388  15.459   6.731   8.098
16285PP      PP26389   6.018   3.901   3.082
16286PP      PP26390  14.708   4.120  12.253
16287PP      PP26391   2.690  15.299   9.960
16288PP      PP26392   7.782   7.893   9.362
16289PP      PP26393   2.736  10.562  10.178
16290PP      PP26394   6.235  12.113   9.413
16291PP      PP26395  13.312   5.160   4.497
16292PP      PP26396   1.961   7.620   0.466
16293PP      PP26397   4.466  10.732  10.653
16294PP      PP26398   5.523  14.466   4.206
16295PP      PP26399  12.966   2.035   1.580
16296PP      PP26400   4.963   4.423  11.240
16297PP      PP26401   8.097   7.658  10.812
16298PP      PP26402   8.837   6.545   1.876
16299PP      PP26403   7.902  15.598  11.739
16300PP      PP26404   2.101   1.264  12.441
16301PP      PP26405   3.027   9.152  11.871
16302PP      PP26406  12.090   5.210   9.662
16303PP      PP26407  11.774   6.991  13.226
16304PP      PP26408  10.655   4.111   2.755
16305PP      PP26409   9.455   5.051  11.501
16306PP      PP26410  15.722   5.762   1.215
16307PP      PP26411   7.853   3.360   2.742
16308PP      PP26412   6.770   9.269  11.937
16309PP      PP26413   4.600   3.698  10.233
16310PP      PP26414   3.281   4.160  10.326
16311PP      PP26415   2.873   7.905   2.201
16312PP      PP26416  13.597  12.432  12.239
16313PP      PP26417   6.653  12.968   2.712
16314PP      PP26418   9.091   5.207  10.154
16315PP      PP26419   7.290  15.656  12.391
16316PP      PP26420  14.219   4.126   2.496
16317PP      PP26421   3.393   6.747  11.259
16318PP      PP26422  12.649   3.979  11.286
16319PP      PP26423   1.354   1.138   4.856
16320PP      PP26424  13.795  10.657   0.244
16321PP      PP26425   6.474   1.693   4.586
16322PP      PP26426  11.260   6.071   8.831
16323PP      PP26427   2.223   7.596  12.245
16324PP      PP26428  12.375   0.940   0.068
16325PP      PP26429  12.677   4.464  12.659
16326PP      PP26430  12.892   2.928  12.460
16327PP      PP26431   0.178  10.887  12.330
16328PP      PP26432   9.654   5.780   1.123
16329PP      PP26433  15.079   5.838  11.354
16330PP      PP26434   9.547  10.167  11.354
16331PP      PP26435   6.293   2.297   9.576
16332PP      PP26436   1.945   0.603  11.215
16333PP      PP26437   4.866   6.755   1.922
16334PP      PP26438  14.127   2.063   3.757
16335PP      PP26439  10.033  11.579   4.003
16336PP      PP26440  10.704   3.419   2.723
16337PP      PP26441   0.158   4.664   3.116
16338PP      PP26442   9.394  14.309  10.260
16339PP      PP26443   3.864   4.476   9.704
16340PP      PP26444   4.466   2.067   0.201
16341PP      PP26445   2.026   2.324   3.708
16342PP      PP26446  10.019  13.101  12.077
16343PP      PP26447  10.747   8.677   3.790
16344PP      PP26448  11.892  10.798  13.111
16345PP      PP26449   2.557   4.082  11.644
16346PP      PP26450   4.811   2.041   2.729
16347PP      PP26451   2.958   8.158   1.526
16348PP      PP26452  10.995  11.946  13.489
16349PP      PP26453   0.723  10.353   9.589
16350PP      PP26454   2.303   7.257  13.307
16351PP      PP26455  13.408  13.746   3.903
16352PP      PP26456   1.962   5.835   4.805
16353PP      PP26457   1.440   6.902   9.589
16354PP      PP26458   0.425   0.364  11.737
16355PP      PP26459   5.580  12.042   2.040
16356PP      PP26460   8.911   0.871   1.340
16357PP      PP26461   1.430   6.577   3.634
16358PP      PP26462   6.050   2.881   0.888
16359PP      PP26463  13.515   4.987  13.066
16360PP      PP26464  15.403  14.995   9.959
16361PP      PP26465   6.874   9.883   0.762
16362PP      PP26466   1.947  15.625   2.946
16363PP      PP26467   7.294   4.091   1.398
16364PP      PP26468   9.981  10.741   0.798
16365PP      PP26469  15.000   7.657   9.748
16366PP      PP26470   3.661   4.223   3.948
16367PP      PP26471   0.247   9.667  13.410
16368PP      PP26472   0.811   7.127   2.038
16369PP      PP26473   0.063   8.122  11.136
16370PP      PP26474   0.139  10.400  12.159
16371PP      PP26475   9.689   7.188   0.929
16372PP      PP26476   8.910   8.106   3.944
16373PP      PP26477   0.344  11.151   3.309
16374PP      PP26478  13.896   5.163   1.167
16375PP      PP26479   4.540  14.717  11.749
16376PP      PP26480   5.260  13.021   3.866
16377PP      PP26481  12.057   8.594   3.876
16378PP      PP26482  11.428   9.299   2.126
16379PP      PP26483   7.936  10.949   2.686
16380PP      PP26484  14.961   1.563  11.114
16381PP      PP26485   5.322  11.763  12.624
16382PP      PP26486   6.962   1.882  10.583
16383PP      PP26487   9.724   4.194   1.884
16384PP      PP26488   2.111   6.719   9.479
16385PP      PP26489   0.386   4.738   0.550
16386PP      PP26490   2.106  10.298   2.200
16387PP      PP26491   0.759   5.527   1.521
16388PP      PP26492  13.873  10.220  13.583
16389PP      PP26493  14.779  11.982   1.938
16390PP      PP26494  12.410  12.550   2.841
16391PP      PP26495   2.245   7.512  11.263
16392PP      PP26496   0.307   0.122  11.301
16393PP      PP26497  14.582   4.752   3.767
16394PP      PP26498   2.514  14.048  11.494
16395PP      PP26499   5.971   0.500   9.205
16396PP      PP26500   0.417  13.761   2.902
16397PP      PP26501  10.389   6.780   8.610
16398PP      PP26502   6.738  11.264   0.312
16399PP      PP26503   1.219  11.790  10.842
16400PP      PP26504  13.037  13.583  12.458
16401PP      PP26505   3.148  11.579   1.297
16402PP      PP26506   6.463   7.665   2.305
16403PP      PP26507   5.288  10.910   1.565
16404PP      PP26508  14.598  12.221   2.868
16405PP      PP26509   6.920   7.699  10.014
16406PP      PP26510   0.333   2.734   1.170
16407PP      PP26511  14.981   5.453   2.699
16408PP      PP26512   4.376   1.256   2.037
16409PP      PP26513   5.431  14.611  13.070
16410PP      PP26514   3.710  14.758   9.284
16411PP      PP26515  13.540   3.684   4.534
16412PP      PP26516   5.190  15.707  11.562
16413PP      PP26517  14.173   4.253  12.523
16414PP      PP26518   3.993   8.454   0.714
16415PP      PP26519  13.454   8.845  10.306
16416PP      PP26520   4.175   3.248   9.198
16417PP      PP26521   6.348   1.818   9.357
16418PP      PP26522   4.955   4.497   1.534
16419PP      PP26523   3.180   3.981   9.108
16420PP      PP26524   8.507   0.209  13.538
16421PP      PP26525  14.726  15.335   3.612
16422PP      PP26526  10.662   7.881   0.617
16423PP      PP26527   2.542   4.568   8.992
16424PP      PP26528   9.278   4.711  10.649
16425PP      PP26529   6.393  14.042   2.335
16426PP      PP26530   3.636   1.352   1.720
16427PP      PP26531   7.099  11.770  13.155
16428PP      PP26532   4.628   2.558  12.347
16429PP      PP26533  10.853   7.634   9.556
16430PP      PP26534   5.236   7.113   9.031
16431PP      PP26535  12.848  15.142   2.259
16432PP      PP26536   7.006  15.494   1.197
16433PP      PP26537   7.969   1.114   4.421
16434PP      PP26538  11.563   7.707   3.764
16435PP      PP26539   1.186   5.728   2.905
16436PP      PP26540   4.557  12.219  11.582
16437PP      PP26541   6.336   5.210   3.514
16438PP      PP26542   2.311   3.018  12.105
16439PP      PP26543   6.773  14.399   2.395
16440PP      PP26544   4.579  10.096  10.651
16441PP      PP26545   0.857   5.590  11.106
16442PP      PP26546  10.457   1.289   2.109
16443PP      PP26547  13.820  15.111   0.747
16444PP      PP26548   3.562  13.908   9.500
16445PP      PP26549   0.063   5.432  10.188
16446PP      PP26550   6.223   7.143   9.949
16447PP      PP26551   6.334   0.910   9.200
16448PP      PP26552   8.433   5.944   3.677
16449PP      PP26553  15.767   2.831  10.205
16450PP      PP26554   5.364   4.772   0.444
16451PP      PP26555   6.698   4.621  10.351
16452PP      PP26556  13.718  12.356   0.592
16453PP      PP26557   8.604   8.374   2.241
16454PP      PP26558   8.403   7.598   2.606
16455PP      PP26559   9.481   6.366  13.494
16456PP      PP26560  13.014  12.218  12.980
16457PP      PP26561  10.779  14.118   2.773
16458PP      PP26562   3.957   0.967   1.836
16459PP      PP26563   4.971   4.511   3.787
16460PP      PP26564   8.550   5.001  11.861
16461PP      PP26565   1.382   9.959   9.084
16462PP      PP26566  10.025  15.262  13.455
16463PP      PP26567  13.284  11.382   1.964
16464PP      PP26568   4.045  15.389  12.994
16465PP      PP26569   1.962  14.710   8.946
16466PP      PP26570  13.793  12.105   9.340
16467PP      PP26571   8.766   6.798   2.400
16468PP      PP26572   3.236   8.545  11.529
16469PP      PP26573   0.259   5.520   1.673
16470PP      PP26574   1.764  10.626   1.287
16471PP      PP26575   7.198  13.681   0.200
16472PP      PP26576   3.622   4.539   1.352
16473PP      PP26577  12.133   0.641  12.153
16474PP      PP26578  13.727   6.496   2.923
16475PP      PP26579   8.876   1.809   4.798
16476PP      PP26580  11.686   6.450   3.522
16477PP      PP26581   5.784  10.010  10.874
16478PP      PP26582  14.942  15.259  12.005
16479PP      PP26583   5.106  13.389  11.079
16480PP      PP26584   2.787   7.065  10.129
16481PP      PP26585   5.813   4.601   3.895
16482PP      PP26586   9.385   3.816   1.747
16483PP      PP26587   0.595   5.331   3.667
16484PP      PP26588  15.722  12.217  11.543
16485PP      PP26589   3.070  11.874   9.892
16486PP      PP26590   4.225   8.558   1.245
16487PP      PP26591  12.010   5.184   1.566
16488PP      PP26592   7.818  11.760  11.442
16489PP      PP26593  12.592   0.756   9.500
16490PP      PP26594   3.031   8.222  12.963
16491PP      PP26595   2.764   1.292   7.730
16492PP      PP26596   5.181   6.452   8.434
16493PP      PP26597  11.767   4.701  12.710
16494PP      PP26598  15.187   6.387  10.296
16495PP      PP26599   2.490   4.524   3.760
16496PP      PP26600   0.350   1.056   0.492
16497PP      PP26601  13.319  12.173   3.194
16498PP      PP26602  12.489   7.981  11.042
16499PP      PP26603   1.013   0.241  11.041
16500PP      PP26604   6.022   7.927  11.166
16501PP      PP26605   0.886   6.655  11.009
16502PP      PP26606   1.372   7.739  10.096
16503PP      PP26607  15.280  11.587  11.089
16504PP      PP26608  15.022   4.300   8.956
16505PP      PP26609  10.190  15.363   5.362
16506PP      PP26610   5.290   7.245  10.750
16507PP      PP26611   3.959   0.581  10.480
16508PP      PP26612   0.138  13.199   1.929
16509PP      PP26613   3.622  13.934   3.053
16510PP      PP26614   5.569  10.195  10.422
16511PP      PP26615   1.078   9.994  11.871
16512PP      PP26616   6.740  15.809  13.414
16513PP      PP26617   4.028   7.547  12.219
16514PP      PP26618   2.610   2.667   4.418
16515PP      PP26619   9.674   4.918   1.380
16516PP      PP26620   8.052   7.575   1.928
16517PP      PP26621   9.832  14.541   5.227
16518PP      PP26622   1.416   3.069   3.420
16519PP      PP26623   7.857  14.737  12.241
16520PP      PP26624   4.136  13.567  11.166
16521PP      PP26625  14.170  15.777   2.432
16522PP      PP26626   4.846   2.404   0.013
16523PP      PP26627  12.131  10.988   8.637
16524PP      PP26628  14.967   8.493   3.893
16525PP      PP26629   0.125   6.053  10.915
16526PP      PP26630  11.390   7.531  10.923
16527PP      PP26631   9.545   4.621   3.672
16528PP      PP26632  10.726   6.867   4.128
16529PP      PP26633   7.925   8.396   9.278
16530PP      PP26634   2.701  11.503  12.837
16531PP      PP26635   8.190  12.919   1.859
16532PP      PP26636  10.422   5.743   9.876
16533PP      PP26637   9.378   5.110  12.903
16534PP      PP26638   2.752  15.697   9.413
16535PP      PP26639   2.166   4.341   1.989
16536PP      PP26640  12.108  15.079  11.458
16537PP      PP26641   8.942  10.780   0.184
16538PP      PP26642   3.166   0.468   0.764
16539PP      PP26643   8.138   7.863  12.226
16540PP      PP26644  12.983  14.711   3.070
16541PP      PP26645   3.581   0.257  11.781
16542PP      PP26646  15.598   0.811   2.799
16543PP      PP26647   4.524   6.727   3.794
16544PP      PP26648  12.171   3.350  11.823
16545PP      PP26649  14.651   8.021   9.678
16546PP      PP26650   0.774   9.134   8.204
16547PP      PP26651   7.940   1.990  10.958
16548PP      PP26652   9.587   2.145   2.536
16549PP      PP26653   1.235  12.029   3.756
16550PP      PP26654  14.290   4.387   8.916
16551PP      PP26655   7.134   9.462   3.008
16552PP      PP26656   4.912   7.541   3.552
16553PP      PP26657  15.649  12.984  10.979
16554PP      PP26658  15.549   7.540   8.361
16555PP      PP26659  12.057  12.414  10.907
16556PP      PP26660  10.531  11.437   3.119
16557PP      PP26661   7.604  12.323   2.836
16558PP      PP26662   4.457  13.037  12.963
16559PP      PP26663   8.983  11.309   1.695
16560PP      PP26664  14.753   8.883   3.620
16561PP      PP26665   8.296   9.762   3.676
16562PP      PP26666   7.277   7.149   8.847
16563PP      PP26667   4.583   6.388  13.472
16564PP      PP26668   4.980   7.166  11.238
16565PP      PP26669  13.925  10.265   2.764
16566PP      PP26670  12.699   2.195   3.238
16567PP      PP26671  11.845   6.646   2.636
16568PP      PP26672  13.088  11.646   9.801
16569PP      PP26673   5.772   7.454  10.960
16570PP      PP26674  12.653   4.635   1.259
16571PP      PP26675   2.862   3.070  11.237
16572PP      PP26676   7.673   2.796   0.035
16573PP      PP26677   8.982  13.832   2.333
16574PP      PP26678   8.916   3.919   2.612
16575PP      PP26679  13.679   5.851  12.374
16576PP      PP26680   1.733   9.097  11.312
16577PP      PP26681   6.549   5.524   2.657
16578PP      PP26682   0.665  13.419  11.119
16579PP      PP26683   6.403   4.525  12.190
16580PP      PP26684   2.471  15.745   2.230
16581PP      PP26685   0.551   8.665   1.110
16582PP      PP26686   3.044   2.140   0.682
16583PP      PP26687   5.994  10.440  10.227
16584PP      PP26688   5.317   0.257   4.496
16585PP      PP26689   8.681   1.515   0.787
16586PP      PP26690   1.505   2.583  12.376
16587PP      PP26691  14.131   7.349  12.555
16588PP      PP26692   2.390   1.015   9.698
16589PP      PP26693  14.856   1.319  10.673
16590PP      PP26694   8.245   9.627   9.699
16591PP      PP26695   3.323   9.000   9.375
16592PP      PP26696  10.217   8.786   3.081
16593PP      PP26697  15.237   6.574   0.697
16594PP      PP26698  14.937  11.996  10.906
16595PP      PP26699   7.000   2.322   3.524
16596PP      PP26700  12.593  12.972  10.746
16597PP      PP26701  12.238   9.120  11.294
16598PP      PP26702  10.817   0.503  11.177
16599PP      PP26703   3.937  14.285   9.392
16600PP      PP26704   8.328   5.752   2.680
16601PP      PP26705   4.398   0.481   2.250
16602PP      PP26706  14.134   5.123   4.797
16603PP      PP26707  15.340   2.205  10.652
16604PP      PP26708   0.990   1.986   2.184
16605PP      PP26709   4.422  14.559  11.282
16606PP      PP26710   0.960  14.018  11.648
16607PP      PP26711   9.240   6.649   2.199
16608PP      PP26712   3.295   0.277   9.759
16609PP      PP26713   3.537   7.403   0.867
16610PP      PP26714   6.992  10.194   0.313
16611PP      PP26715   0.662   0.518   2.760
16612PP      PP26716  15.678   9.558   0.149
16613PP      PP26717   2.235   6.895   1.329
16614PP      PP26718  12.466  10.684   3.879
16615PP      PP26719   4.524   7.345  13.537
16616PP      PP26720  15.245  14.511   1.794
16617PP      PP26721   4.794   3.049   3.139
16618PP      PP26722   8.924   3.524   0.518
16619PP      PP26723   2.870  14.838   2.461
16620PP      PP26724  15.030  11.355   8.667
16621PP      PP26725   7.226   5.772  10.542
16622PP      PP26726  10.652   4.652   3.515
16623PP      PP26727  14.812   0.747  10.038
16624PP      PP26728  13.602  10.202  10.411
16625PP      PP26729   3.936   4.785   3.458
16626PP      PP26730  15.616  14.408   0.346
16627PP      PP26731   3.913   2.017  12.590
16628PP      PP26732  12.708  14.215  11.142
16629PP      PP26733   8.668   7.236   8.946
16630PP      PP26734   3.113   1.544  10.724
16631PP      PP26735   8.331  14.687  10.186
16632PP      PP26736  10.842   9.826  10.994
16633PP      PP26737   7.288   8.535  12.438
16634PP      PP26738  12.557   3.866   3.085
16635PP      PP26739   6.735   2.556   4.504
16636PP      PP26740   6.244  15.347  11.585
16637PP      PP26741   0.655   0.650   0.434
16638PP      PP26742   3.384   6.439   3.698
16639PP      PP26743   3.733   4.052   0.264
16640PP      PP26744   4.208   3.714   1.657
16641PP      PP26745  15.572  11.682   4.399
16642PP      PP26746   7.414   2.070   2.436
16643PP      PP26747   3.268   2.105  11.911
16644PP      PP26748  13.230   4.664   3.349
16645PP      PP26749  11.465   9.517   0.425
16646PP      PP26750  13.684   9.914   8.310
16647PP      PP26751   0.789   3.212   3.349
16648PP      PP26752  12.808   5.454   0.309
16649PP      PP26753  13.394   5.361   8.562
16650PP      PP26754   4.916   5.411  13.031
16651PP      PP26755   1.756  10.170   8.134
16652PP      PP26756   7.679  10.594   0.120
16653PP      PP26757  14.596   4.061   9.152
16654PP      PP26758   6.177   8.677   0.284
16655PP      PP26759  15.224  11.303   4.206
16656PP      PP26760  12.143  10.668  10.903
16657PP      PP26761   7.616  10.364   4.116
16658PP      PP26762   8.336   5.588   0.495
16659PP      PP26763   3.648   9.455  12.423
16660PP      PP26764  12.640   4.050   0.282
16661PP      PP26765   0.653   7.187   9.516
16662PP      PP26766  12.217  12.007   3.633
16663PP      PP26767   2.770   1.762   3.326
16664PP      PP26768  12.515  15.407  12.735
16665PP      PP26769   5.190   0.939  13.280
16666PP      PP26770  12.871  10.343   9.412
16667PP      PP26771  13.732   4.850  10.104
16668PP      PP26772   3.533  11.935   0.532
16669PP      PP26773   5.503   4.987  12.738
16670PP      PP26774  14.193  14.201  12.636
16671PP      PP26775  10.920  13.268   1.028
16672PP      PP26776   4.157  15.529   3.586
16673PP      PP26777   3.641  10.361   9.019
16674PP      PP26778   6.811   0.386   2.453
16675PP      PP26779   9.256  12.696   4.633
16676PP      PP26780  14.240  10.386   2.035
16677PP      PP26781   8.417   9.310  13.603
16678PP      PP26782  13.324   9.779  10.599
16679PP      PP26783   0.005   6.407   0.999
16680PP      PP26784  12.435   3.831  10.282
16681PP      PP26785   0.032   5.351   9.188
16682PP      PP26786  15.382   8.453   2.285
16683PP      PP26787   2.101   6.652   2.171
16684PP      PP26788   3.454   1.767   4.389
16685PP      PP26789  13.286   3.417   2.877
16686PP      PP26790   3.389   7.858   0.627
16687PP      PP26791  12.359  13.910   1.876
16688PP      PP26792   4.527   9.504  12.220
16689PP      PP26793   8.081   4.849   3.166
16690PP      PP26794  10.954  12.150   2.282
16691PP      PP26795  14.844  14.067   2.965
16692PP      PP26796   5.960   3.013   2.967
16693PP      PP26797   1.284  13.833   2.699
16694PP      PP26798   4.473  15.298   0.011
16695PP      PP26799  12.840  15.758  13.034
16696PP      PP26800  12.336   4.191   1.087
16697PP      PP26801   9.686   9.294  11.583
16698PP      PP26802   4.431  11.980   1.105
16699PP      PP26803   2.064   1.704   9.394
16700PP      PP26804   9.839   8.406   2.089
16701PP      PP26805   4.399   7.648  10.613
16702PP      PP26806   2.934   7.468   2.861
16703PP      PP26807   8.573   1.445  13.558
16704PP      PP26808   0.326  11.111   0.563
16705PP      PP26809   5.852   6.027   9.323
16706PP      PP26810  10.218   8.841   2.023
16707PP      PP26811  15.424  11.831   1.900
16708PP      PP26812   2.551   1.990   0.714
16709PP      PP26813   1.516   9.582   9.428
16710PP      PP26814   9.971   3.445   2.485
16711PP      PP26815  10.562   8.957  12.306
16712PP      PP26816   2.912   3.712  13.427
16713PP      PP26817   3.755   1.165  12.279
16714PP      PP26818   5.871   6.673   8.310
16715PP      PP26819  12.528  10.223  13.028
16716PP      PP26820  13.249   1.807   9.856
16717PP      PP26821  15.513  10.950  13.293
16718PP      PP26822  13.662   1.029   3.321
16719PP      PP26823   9.977  12.117   2.593
16720PP      PP26824  10.623   0.065   0.259
16721PP      PP26825  12.265  15.643   3.628
16722PP      PP26826  14.133   6.542  10.345
16723PP      PP26827  14.212   3.448  12.617
16724PP      PP26828   5.274   1.124   4.718
16725PP      PP26829  14.405   0.506   3.060
16726PP      PP26830   8.060  12.962   3.907
16727PP      PP26831   7.858   5.553  13.593
16728PP      PP26832  14.144   9.287  10.802
16729PP      PP26833  11.345  10.564  12.502
16730PP      PP26834   8.922   8.316   1.198
16731PP      PP26835  15.050   1.813  13.158
16732PP      PP26836   0.654   9.460  13.146
16733PP      PP26837   9.801   4.423  13.242
16734PP      PP26838  10.281   9.130   9.544
16735PP      PP26839   6.233   6.508  12.975
16736PP      PP26840   2.584  12.099   8.916
16737PP      PP26841   7.706   3.874   4.246
16738PP      PP26842  10.671  14.666   1.665
16739PP      PP26843   6.992   0.232  11.845
16740PP      PP26844  13.893   9.456   3.190
16741PP      PP26845  10.315   6.575   4.244
16742PP      PP26846  12.424   5.319  12.796
16743PP      PP26847  12.706  11.828   3.899
16744PP      PP26848  13.748   0.732  12.482
16745PP      PP26849  13.773  13.786   3.536
16746PP      PP26850  15.160   0.851   4.083
16747PP      PP26851  15.338   2.219  12.831
16748PP      PP26852  13.500   6.341  12.454
16749PP      PP26853   8.072   9.097   1.441
16750PP      PP26854   8.803   7.711   2.950
16751PP      PP26855  14.100   7.334   9.336
16752PP      PP26856   0.849   6.996  13.543
16753PP      PP26857   2.755   3.037   9.135
16754PP      PP26858   8.651   9.400  11.359
16755PP      PP26859   8.099   5.217   3.573
16756PP      PP26860  14.159  11.406   2.895
16757PP      PP26861  12.816  10.529  12.049
16758PP      PP26862  13.700   2.540   1.015
16759PP      PP26863   0.755   8.050   0.833
16760PP      PP26864   2.904   8.672  11.138
16761PP      PP26865  14.140  13.735   4.375
16762PP      PP26866   4.676   8.113  10.619
16763PP      PP26867   0.052   4.453   9.292
16764PP      PP26868   2.431  12.810   1.846
16765PP      PP26869  13.809  13.378   0.913
16766PP      PP26870   8.917   9.815   0.354
16767PP      PP26871   7.748   8.193  12.142
16768PP      PP26872   1.415   1.712   3.881
16769PP      PP26873  10.769  11.747   1.545
16770PP      PP26874   0.645  11.239   9.631
16771PP      PP26875  15.039   9.643   1.814
16772PP      PP26876   0.869   6.159  12.842
16773PP      PP26877   6.167   8.543   4.430
16774PP      PP26878  15.533   8.031  11.991
16775PP      PP26879  12.251  10.629   0.317
16776PP      PP26880  14.441   8.833   1.303
16777PP      PP26881   4.663  11.229   2.665
16778PP      PP26882   0.771   7.122   0.628
16779PP      PP26883  14.498   4.059   3.859
16780PP      PP26884  10.188  10.232  12.764
16781PP      PP26885   6.141  11.788  12.841
16782PP      PP26886   7.136   2.922   5.197
16783PP      PP26887  15.503   1.825  10.957
16784PP      PP26888  12.131   0.999  10.143
16785PP      PP26889   7.618  11.219  10.344
16786PP      PP26890  10.494   0.395  12.487
16787PP      PP26891  12.749   4.962  12.433
16788PP      PP26892   7.760   8.270   9.764
16789PP      PP26893   7.558   9.133   9.944
16790PP      PP26894   1.650   7.336   0.102
16791PP      PP26895   2.234   9.823   1.288
16792PP      PP26896   8.300   1.145   3.524
16793PP      PP26897   5.922  12.296   1.780
16794PP      PP26898   4.098   0.240   9.430
16795PP      PP26899   9.997  11.925  11.396
16796PP      PP26900   1.167   2.493  12.747
16797PP      PP26901   8.350  13.256  12.108
16798PP      PP26902   3.286   3.862   2.589
16799PP      PP26903   9.648   5.428   1.513
16800PP      PP26904  14.377   4.735  13.293
16801PP      PP26905  10.031   8.638  13.270
16802PP      PP26906   3.478   1.588   3.038
16803PP      PP26907  12.457  15.060   4.708
16804PP      PP26908   2.086   7.627   3.424
16805PP      PP26909   1.817  13.251   4.083
16806PP      PP26910   4.694   5.535   0.744
16807PP      PP26911   8.837   1.513  11.809
16808PP      PP26912  12.261   5.214   3.396
16809PP      PP26913   0.890  12.960   3.593
16810PP      PP26914   5.000  10.502   9.746
16811PP      PP26915   2.951   9.300  10.683
16812PP      PP26916   5.346   7.859   3.376
16813PP      PP26917  11.462   9.022   2.560
16814PP      PP26918   1.385   5.326  12.930
16815PP      PP26919  15.519   8.938   3.224
16816PP      PP26920   6.412  12.783  11.480
16817PP      PP26921  11.242   1.229   1.671
16818PP      PP26922  15.685   8.818   8.358
16819PP      PP26923   3.811  15.216  12.124
16820PP      PP26924   5.360   9.232  10.038
16821PP      PP26925   3.556   8.742  13.351
16822PP      PP26926   4.076   5.061  13.208
16823PP      PP26927   3.702   8.004   3.780
16824PP      PP26928   4.296  10.372  12.005
16825PP      PP26929   4.260   4.402  12.143
16826PP      PP26930   4.968  12.163   1.851
16827PP      PP26931   2.769   5.543   1.658
16828PP      PP26932   1.940   5.371   1.630
16829PP      PP26933   1.529  12.307   0.888
16830PP      PP26934   8.373   5.946  13.527
16831PP      PP26935   5.272   7.817   9.300
16832PP      PP26936   8.011   7.244  11.648
16833PP      PP26937   7.097  10.579   1.381
16834PP      PP26938   2.242   8.342  12.815
16835PP      PP26939   5.671  13.985   2.432
16836PP      PP26940   3.762   8.727   9.272
16837PP      PP26941  11.857   1.867   3.352
16838PP      PP26942   9.456  15.025   0.269
16839PP      PP26943   0.601   6.266  12.396
16840PP      PP26944  15.531  14.819  12.602
16841PP      PP26945  13.501   4.415   8.191
16842PP      PP26946   0.592   3.064  12.097
16843PP      PP26947   0.783  10.106   1.376
16844PP      PP26948  15.709  11.937   3.977
16845PP      PP26949   2.900   1.018   1.663
16846PP      PP26950  14.316  10.806   0.143
16847PP      PP26951  14.519   1.247   3.677
16848PP      PP26952   8.411   7.626   3.290
16849PP      PP26953   9.515   9.333  11.043
16850PP      PP26954  11.619  12.779   1.123
16851PP      PP26955  13.961  12.626   1.247
16852PP      PP26956  14.799   4.933  13.533
16853PP      PP26957   2.037   2.969   3.900
16854PP      PP26958   7.309   4.942   2.574
16855PP      PP26959  14.310  11.148   3.747
16856PP      PP26960  12.689   9.839   3.734
16857PP      PP26961  10.396   6.752  10.956
16858PP      PP26962  14.953   6.939   1.317
16859PP      PP26963   9.043   8.777   1.459
16860PP      PP26964   8.047   6.169  13.190
16861PP      PP26965   3.657  12.412  13.059
16862PP      PP26966   1.345  14.364   0.332
16863PP      PP26967   5.687  10.968  12.399
16864PP      PP26968   6.043  15.583  10.253
16865PP      PP26969   9.212  13.275  13.100
16866PP      PP26970   1.251   1.317   4.259
16867PP      PP26971   4.639  12.100   0.639
16868PP      PP26972   4.103   4.324   4.283
16869PP      PP26973  12.432  13.332   2.122
16870PP      PP26974   0.042  12.261   3.608
16871PP      PP26975   4.981   9.055  11.448
16872PP      PP26976   7.134  11.353  10.503
16873PP      PP26977   1.723   2.566  10.258
16874PP      PP26978   5.131   3.360   2.769
16875PP      PP26979   0.423  11.650  13.439
16876PP      PP26980   7.495  10.070   2.566
16877PP      PP26981   2.374   5.051   4.209
16878PP      PP26982   5.130   2.415  10.184
16879PP      PP26983  13.556  13.929  10.881
16880PP      PP26984   7.873   6.195  10.706
16881PP      PP26985   3.948  13.569   1.774
16882PP      PP26986  13.702  13.027   3.046
16883PP      PP26987  11.663   9.873  10.263
16884PP      PP26988   8.760   0.607  11.374
16885PP      PP26989  14.290   9.765   9.786
16886PP      PP26990   5.696  11.881   2.518
16887PP      PP26991  11.702   7.950   2.497
16888PP      PP26992  15.305  13.043   3.602
16889PP      PP26993  15.728   3.768   3.064
16890PP      PP26994   9.128  11.681  13.554
16891PP      PP26995   5.625  15.703   3.179
16892PP      PP26996   9.916   4.950   3.167
16893PP      PP26997   5.847   5.892   3.819
16894PP      PP26998  14.034   3.172   1.925
16895PP      PP26999   1.445   6.060   2.089
16896PP      PP27000   3.108   3.127  10.338
16897PP      PP27001   5.000   0.895  11.071
16898PP      PP27002   4.594  10.314   8.768
16899PP      PP27003  15.805   0.660   3.516
16900PP      PP27004   8.943  11.251   9.919
16901PP      PP27005   0.446  13.998   2.430
16902PP      PP27006  15.220   9.866   9.785
16903PP      PP27007  11.867   3.088   2.173
16904PP      PP27008  13.765   4.505  12.253
16905PP      PP27009  14.138  13.385   3.537
16906PP      PP27010   7.666  10.137  10.978
16907PP      PP27011   7.108   7.940  10.587
16908PP      PP27012  12.288   8.619  10.830
16909PP      PP27013   2.534  12.700   0.690
16910PP      PP27014   4.433   3.923  12.292
16911PP      PP27015   9.352  14.489   1.992
16912PP      PP27016  12.606  10.254   9.867
16913PP      PP27017   0.092  10.432  11.390
16914PP      PP27018  13.189   4.785   9.017
16915PP      PP27019  14.836   9.750   2.736
16916PP      PP27020   5.067   9.992   0.581
16917PP      PP27021   9.694  14.394   3.384
16918PP      PP27022  10.059   0.145   9.964
16919PP      PP27023   6.608  11.907   9.725
16920PP      PP27024   1.790   7.569  11.561
16921PP      PP27025   8.004  11.174   3.370
16922PP      PP27026  15.233  14.255  12.062
16923PP      PP27027   2.808   5.814  12.918
16924PP      PP27028   1.224   1.309   0.178
16925PP      PP27029   2.525   5.908   2.798
16926PP      PP27030   7.777   0.378   3.535
16927PP      PP27031   0.693  14.017  13.005
16928PP      PP27032  12.792   0.780  10.004
16929PP      PP27033   7.645   0.445   1.541
16930PP      PP27034  14.054   3.623   0.267
16931PP      PP27035   4.223   9.100   3.004
16932PP      PP27036  11.856  11.801   4.354
16933PP      PP27037   5.989   2.397   5.516
16934PP      PP27038   6.894  15.390   9.460
16935PP      PP27039   2.795   3.338  10.783
16936PP      PP27040   9.208   6.354   2.740
16937PP      PP27041   8.316   3.922  12.079
16938PP      PP27042  13.162   6.948  12.970
16939PP      PP27043   4.690   7.200   9.052
16940PP      PP27044   1.136   2.946   4.328
16941PP      PP27045   6.534  15.324  12.029
16942PP      PP27046   3.375   2.312  10.231
16943PP      PP27047  10.868   7.803  12.795
16944PP      PP27048   7.097  15.766   9.038
16945PP      PP27049   4.938   4.705  13.513
16946PP      PP27050   8.189  12.737   2.335
16947PP      PP27051  13.694   8.325   2.191
16948PP      PP27052  13.511   6.831  12.593
16949PP      PP27053  11.027  12.945  12.242
16950PP      PP27054   1.911  13.050   2.945
16951PP      PP27055  15.443   3.482   2.138
16952PP      PP27056   6.461   9.537   1.723
16953PP      PP27057   6.750  11.431   3.275
16954PP      PP27058   6.527   3.398   9.516
16955PP      PP27059  15.593   9.489  11.171
16956PP      PP27060  11.340   7.853  12.990
16957PP      PP27061  14.111  11.778   1.412
16958PP      PP27062   8.596   9.444   4.445
16959PP      PP27063   8.300   6.712  12.201
16960PP      PP27064   6.668   4.778  11.804
16961PP      PP27065  13.959   9.364   9.832
16962PP      PP27066   1.400   5.366   1.593
16963PP      PP27067   4.965  14.773   1.519
16964PP      PP27068  15.661   2.448   0.944
16965PP      PP27069   6.893   6.015   9.320
16966PP      PP27070   4.794  11.707   1.981
16967PP      PP27071   1.908   5.371   3.512
16968PP      PP27072   9.466   6.472  12.378
16969PP      PP27073  14.302   2.406   0.629
16970PP      PP27074  13.625   8.797  10.953
16971PP      PP27075   9.833   6.837   3.126
16972PP      PP27076   1.663   8.858   8.849
16973PP      PP27077  13.107  12.957   9.383
16974PP      PP27078   9.848   6.380   2.830
16975PP      PP27079   2.998  10.887   8.583
16976PP      PP27080  15.592   3.899   2.459
16977PP      PP27081  10.654   2.514  12.036
16978PP      PP27082   1.736   3.035   9.676
16979PP      PP27083   7.925   1.904   3.743
16980PP      PP27084   2.621  13.173   4.829
16981PP      PP27085   6.007   8.995  11.361
16982PP      PP27086   1.847  15.050  10.933
16983PP      PP27087  14.689  12.888  10.368
16984PP      PP27088   3.373   5.794   0.399
16985PP      PP27089  15.025  11.064   1.212
16986PP      PP27090   3.365   1.977   1.046
16987PP      PP27091   8.004  10.460   2.335
16988PP      PP27092   3.337  14.283   0.278
16989PP      PP27093   4.013  12.433  12.674
16990PP      PP27094  15.409   9.605  12.185
16991PP      PP27095   4.097   3.676  10.655
16992PP      PP27096  10.393  12.790   3.888
16993PP      PP27097   7.440  15.745   1.932
16994PP      PP27098   9.023   9.006  12.288
16995PP      PP27099   8.384  13.831  11.311
16996PP      PP27100  10.767  10.182  13.543
16997PP      PP27101   2.621  12.372   1.547
16998PP      PP27102  11.780  12.271  11.335
16999PP      PP27103   8.432   5.473  12.671
17000PP      PP27104  15.573   3.782   3.587
17001PP      PP27105   3.827   4.104   1.617
17002PP      PP27106   2.547   5.572  13.273
17003PP      PP27107  12.740  11.563  10.557
17004PP      PP27108   8.765   3.881   9.770
17005PP      PP27109  11.534   9.090   0.147
17006PP      PP27110   0.589   6.853  11.416
17007PP      PP27111  11.054   8.106   9.489
17008PP      PP27112   6.891  15.652  12.871
17009PP      PP27113   9.713  15.479   1.029
17010PP      PP27114   3.061   6.601  11.999
17011PP      PP27115   2.841   2.513   1.556
17012PP      PP27116  15.463  10.143  12.281
17013PP      PP27117  14.545  12.590   9.948
17014PP      PP27118  14.945   5.039   9.536
17015PP      PP27119  12.264   8.191   8.818
17016PP      PP27120  10.915  13.554   3.431
17017PP      PP27121  15.649  11.898   1.446
17018PP      PP27122  12.226   3.235   1.835
17019PP      PP27123   4.328   9.871   1.840
17020PP      PP27124  12.624   5.127   2.990
17021PP      PP27125  15.114  15.082   3.894
17022PP      PP27126   0.777   1.368  11.948
17023PP      PP27127  12.438   5.666   9.621
17024PP      PP27128   5.968   2.991  10.788
17025PP      PP27129   6.584   4.948   2.538
17026PP      PP27130  10.421  11.390   1.686
17027PP      PP27131   3.207   7.492   2.038
17028PP      PP27132   5.890   7.340   8.995
17029PP      PP27133  12.921  10.272   8.751
17030PP      PP27134   7.562   9.621   0.137
17031PP      PP27135   1.869  11.808   2.503
17032PP      PP27136   6.457   6.029  12.858
17033PP      PP27137  15.365   7.096  12.370
17034PP      PP27138   4.223  13.481   3.242
17035PP      PP27139   8.559   5.325  11.432
17036PP      PP27140   8.608   9.938  11.348
17037PP      PP27141  14.275   0.877  11.357
17038PP      PP27142   7.153  13.261  11.160
17039PP      PP27143  11.267  10.889   1.592
17040PP      PP27144   2.857  11.374   3.650
17041PP      PP27145  13.880   2.034   2.904
17042PP      PP27146  11.029   7.274   4.233
17043PP      PP27147  10.147  12.224   4.616
17044PP      PP27148   8.333  10.548   8.452
17045PP      PP27149   7.004   4.854   0.634
17046PP      PP27150  14.613   0.394   0.917
17047PP      PP27151   5.265   4.943  10.389
17048PP      PP27152   3.997  11.657   0.924
17049PP      PP27153   8.166  10.366  13.041
17050PP      PP27154  11.513   4.196  13.083
17051PP      PP27155   1.207  14.137  12.100
17052PP      PP27156  12.031  15.401   5.436
17053PP      PP27157   3.150  11.766  11.279
17054PP      PP27158   7.352  11.918   3.898
17055PP      PP27159  10.259   9.568   2.562
17056PP      PP27160   5.013   0.386  11.642
17057PP      PP27161   7.321  12.084  10.932
17058PP      PP27162   4.930   5.695   3.367
17059PP      PP27163   7.219  10.652   3.521
17060PP      PP27164   8.012   5.572   8.865
17061PP      PP27165  14.399   3.239   2.288
17062PP      PP27166  12.491   9.927   9.497
17063PP      PP27167   9.499  13.880   4.551
17064PP      PP27168   0.143   9.243   3.246
17065PP      PP27169   4.815   8.000   3.355
17066PP      PP27170   7.035   9.040   9.972
17067PP      PP27171   5.825  11.628   1.059
17068PP      PP27172   8.226   3.132  10.822
17069PP      PP27173   9.711  10.934   0.116
17070PP      PP27174   9.649  15.390  11.979
17071PP      PP27175  11.730  14.935   5.390
17072PP      PP27176  15.316   5.602   0.914
17073PP      PP27177  14.225  10.591  12.035
17074PP      PP27178  10.313   3.366   1.831
17075PP      PP27179   8.401   4.122  10.421
17076PP      PP27180   9.719   2.321   1.572
17077PP      PP27181  11.278   6.505   3.866
17078PP      PP27182   1.511   3.018   1.934
17079PP      PP27183  15.303  11.772  10.582
17080PP      PP27184   1.128   7.394  13.264
17081PP      PP27185  12.425  10.177   4.036
17082PP      PP27186   7.563  11.517  13.338
17083PP      PP27187   6.532   6.261   2.403
17084PP      PP27188   4.233   8.751   9.477
17085PP      PP27189   5.670   7.296  13.437
17086PP      PP27190   1.667  10.346   3.540
17087PP      PP27191  15.156  12.882  10.087
17088PP      PP27192  14.350  10.185   1.573
17089PP      PP27193   1.759  11.792  10.785
17090PP      PP27194   1.958  10.001   3.280
17091PP      PP27195   7.275   4.733   0.149
17092PP      PP27196   9.351   3.489   2.540
17093PP      PP27197   9.773   3.896   8.857
17094PP      PP27198  10.588  10.615   0.441
17095PP      PP27199   9.547  10.067  10.290
17096PP      PP27200  11.010  14.987   2.446
17097PP      PP27201   9.805  15.415   3.884
17098PP      PP27202   2.260  10.744  11.851
17099PP      PP27203   2.494   0.093  13.209
17100PP      PP27204  11.736   1.612   1.557
17101PP      PP27205   8.781  12.051   4.213
17102PP      PP27206   5.154   7.607   1.868
17103PP      PP27207  13.779  14.393   3.555
17104PP      PP27208   5.706   6.496  13.045
17105PP      PP27209   6.411  11.140   2.461
17106PP      PP27210  14.172   7.812   0.952
17107PP      PP27211   8.823   4.188   8.718
17108PP      PP27212  10.085   7.483   3.897
17109PP      PP27213   1.365   1.541   2.401
17110PP      PP27214   7.207   4.299   8.939
17111PP      PP27215   8.679   9.607   9.001
17112PP      PP27216  12.779   8.926   9.567
17113PP      PP27217   1.472   3.871  11.370
17114PP      PP27218   8.364   4.417  12.271
17115PP      PP27219  12.827   3.682   9.960
17116PP      PP27220   8.895   3.988  12.938
17117PP      PP27221  14.521   6.243   1.962
17118PP      PP27222   7.132  10.368  10.643
17119PP      PP27223  12.727   5.228  11.615
17120PP      PP27224   0.992  10.432   4.154
17121PP      PP27225   2.371   7.112   2.211
17122PP      PP27226  14.589   9.820  12.490
17123PP      PP27227   1.664   3.040  12.191
17124PP      PP27228  13.744   2.097   8.922
17125PP      PP27229   5.918  14.783  13.596
17126PP      PP27230   5.079   6.999  11.739
17127PP      PP27231   4.294  13.290   9.840
17128PP      PP27232   0.949  15.400  12.262
17129PP      PP27233   3.467   8.124  12.696
17130PP      PP27234   7.904   1.375   2.553
17131PP      PP27235   9.397  12.153  10.364
17132PP      PP27236   4.285  11.399  10.656
17133PP      PP27237   2.159  14.749   1.098
17134PP      PP27238  14.064  11.802   2.560
17135PP      PP27239   0.037   0.245   4.370
17136PP      PP27240   0.163   8.163   9.067
17137PP      PP27241   7.655  10.384   3.596
17138PP      PP27242  13.840   0.108   1.401
17139PP      PP27243   6.990   4.318   3.564
17140PP      PP27244   7.466   7.117   3.685
17141PP      PP27245  12.239   5.059   2.033
17142PP      PP27246  13.100   2.746   3.360
17143PP      PP27247   1.896   5.388  13.052
17144PP      PP27248   6.790  13.329   3.288
17145PP      PP27249  11.939   3.028   2.675
17146PP      PP27250   4.789  13.096   0.830
17147PP      PP27251   8.514   9.277  10.270
17148PP      PP27252   2.744  15.410  12.055
17149PP      PP27253   7.115  12.716  11.990
17150PP      PP27254   1.299  13.072   0.273
17151PP      PP27255   4.295  15.522  11.546
17152PP      PP27256   7.380   6.283  10.494
17153PP      PP27257   0.622  12.489  11.080
17154PP      PP27258   5.477   5.710   8.894
17155PP      PP27259   8.953  14.811  12.955
17156PP      PP27260  11.983  15.796   9.827
17157PP      PP27261   8.345   8.154   3.597
17158PP      PP27262   1.560   6.283  12.691
17159PP      PP27263   4.576   4.043   9.306
17160PP      PP27264   9.044   4.764   3.471
17161PP      PP27265  13.946   8.784   2.275
17162PP      PP27266  12.249  12.863   1.964
17163PP      PP27267   0.506   7.001   1.527
17164PP      PP27268  12.738   1.980   3.714
17165PP      PP27269   8.911  15.314  13.109
17166PP      PP27270  13.777   9.237  11.877
17167PP      PP27271   2.405   2.908  12.670
17168PP      PP27272  13.011  10.468  10.110
17169PP      PP27273  14.615   6.773  11.620
17170PP      PP27274   5.967  14.257   1.492
17171PP      PP27275  10.485   9.647   9.671
17172PP      PP27276   3.958   0.816   2.365
17173PP      PP27277   0.606   9.485   9.316
17174PP      PP27278   6.790   6.589  11.145
17175PP      PP27279   4.361   9.514   0.292
17176PP      PP27280   2.489   6.205   3.222
17177PP      PP27281   6.498  13.117   1.872
17178PP      PP27282   8.892   5.113   0.919
17179PP      PP27283   9.337   8.893  11.260
17180PP      PP27284  14.330  11.017  10.130
17181PP      PP27285   0.082   1.514   1.915
17182PP      PP27286   8.843  14.549  10.279
17183PP      PP27287   9.190   0.833  11.564
17184PP      PP27288   1.445  10.254   2.667
17185PP      PP27289  15.169   4.134   3.630
17186PP      PP27290   3.043   8.986  13.456
17187PP      PP27291  11.722  15.535  13.273
17188PP      PP27292   7.933   1.950   1.137
17189PP      PP27293   5.881   5.136   9.829
17190PP      PP27294   9.503  13.482   1.259
17191PP      PP27295   4.856   3.323   1.385
17192PP      PP27296   2.598   0.515  12.901
17193PP      PP27297   7.093   8.054   4.110
17194PP      PP27298   8.480   8.207   1.464
17195PP      PP27299   1.882   2.092  11.203
17196PP      PP27300   9.815   7.050   2.314
17197PP      PP27301  13.477   6.025   0.621
17198PP      PP27302  13.863   9.587  12.820
17199PP      PP27303   2.443  15.031  11.788
17200PP      PP27304   1.274  11.937   9.320
17201PP      PP27305  15.406   8.738  11.843
17202PP      PP27306   7.675   4.786   4.220
17203PP      PP27307   6.790   3.062   9.840
17204PP      PP27308   4.373   9.599   9.118
17205PP      PP27309  13.473  11.510   0.776
17206PP      PP27310  11.047   6.238   1.868
17207PP      PP27311   7.560  15.556   4.701
17208PP      PP27312   3.490  13.768  11.680
17209PP      PP27313   7.218   6.889   0.040
17210PP      PP27314   2.399  10.354   0.309
17211PP      PP27315   4.921   0.636   9.480
17212PP      PP27316  15.103   8.079   1.981
17213PP      PP27317   5.927   9.464  11.087
17214PP      PP27318  15.646   8.038   1.880
17215PP      PP27319  15.822   0.129   0.898
17216PP      PP27320   3.008   5.880   8.405
17217PP      PP27321   1.420  11.042  13.163
17218PP      PP27322   6.791   3.027  10.389
17219PP      PP27323   5.024   1.116   2.057
17220PP      PP27324  10.793   7.719   9.036
17221PP      PP27325   6.999  14.510   0.700
17222PP      PP27326  14.199  12.116  12.252
17223PP      PP27327  10.683   6.201   1.505
17224PP      PP27328  11.944   9.307   0.361
17225PP      PP27329   6.365   4.501   0.185
17226PP      PP27330  15.450   0.957  12.083
17227PP      PP27331   1.461  10.279  12.085
17228PP      PP27332  14.638  12.111   4.471
17229PP      PP27333   3.413   8.877   1.879
17230PP      PP27334   9.581   2.639   2.442
17231PP      PP27335   5.046   1.643   3.082
17232PP      PP27336  14.821  10.381   3.549
17233PP      PP27337  10.449  12.585   2.012
17234PP      PP27338   3.053  12.648   2.741
17235PP      PP27339  12.682   4.895   9.059
17236PP      PP27340  12.891  12.430   1.155
17237PP      PP27341   4.986  11.950   8.284
17238PP      PP27342   1.241   4.842  13.383
17239PP      PP27343   5.698   0.569   1.739
17240PP      PP27344   5.459  15.787   9.910
17241PP      PP27345   5.610   4.986   8.497
17242PP      PP27346   9.134   5.784   1.201
17243PP      PP27347   5.278  13.833   3.285
17244PP      PP27348  11.531   7.466   2.517
17245PP      PP27349  12.199   2.295  12.161
17246PP      PP27350   4.605  12.548   1.896
17247PP      PP27351   2.546   2.221  11.289
17248PP      PP27352  14.611   7.957  13.288
17249PP      PP27353  15.785   8.170   2.422
17250PP      PP27354   5.415   5.006   3.747
17251PP      PP27355   8.453  11.989   1.093
17252PP      PP27356  11.265   0.367   9.669
17253PP      PP27357   2.115   2.574   9.095
17254PP      PP27358   6.394   5.552   0.107
17255PP      PP27359   7.824  14.176   9.246
17256PP      PP27360   5.801   0.050   4.299
17257PP      PP27361   7.977  10.838  12.344
17258PP      PP27362  12.793   3.563   2.724
17259PP      PP27363  10.868  11.148   1.814
17260PP      PP27364   5.858   3.056  11.740
17261PP      PP27365   1.058   6.588   8.637
17262PP      PP27366   0.863   2.684   1.593
17263PP      PP27367  10.266   0.034  10.607
17264PP      PP27368   6.796   4.529   4.051
17265PP      PP27369   6.461   3.219  10.798
17266PP      PP27370   9.309   6.921   1.168
17267PP      PP27371   9.861  10.500   9.566
17268PP      PP27372   3.305  10.357  10.108
17269PP      PP27373   9.635   2.518   4.945
17270PP      PP27374   5.675  10.398   3.099
17271PP      PP27375  13.242   3.077  12.904
17272PP      PP27376  13.802   9.280   8.799
17273PP      PP27377   2.453  13.607   0.276
17274PP      PP27378   9.361   2.278   3.869
17275PP      PP27379   7.688   4.665   2.807
17276PP      PP27380  10.753   8.511  11.977
17277PP      PP27381  15.732  10.051  13.503
17278PP      PP27382   1.013  10.507  11.950
17279PP      PP27383   1.023  13.580   1.717
17280PP      PP27384  11.385   5.306   0.765
17281PP      PP27385   4.009  12.120   3.031
17282PP      PP27386  15.829  13.412  12.516
17283PP      PP27387   5.436  15.060  13.416
17284PP      PP27388  10.725  15.401   1.155
17285PP      PP27389  12.835   7.261  10.593
17286PP      PP27390  13.615  14.091   1.526
17287PP      PP27391   3.563   1.444  12.688
17288PP      PP27392   6.109   7.075   3.670
17289PP      PP27393  12.755   0.678   2.111
17290PP      PP27394   5.439   5.728  10.751
17291PP      PP27395  14.072   1.529   2.889
17292PP      PP27396   0.053   0.808   1.329
17293PP      PP27397  12.255   3.860  11.657
17294PP      PP27398  12.079   8.313  13.291
17295PP      PP27399   5.564  13.167   9.118
17296PP      PP27400  10.712   3.820   3.600
17297PP      PP27401  10.195   5.383  13.111
17298PP      PP27402  10.015  12.300   2.030
17299PP      PP27403   3.930  15.076   9.669
17300PP      PP27404   9.373   8.972  10.708
17301PP      PP27405   1.594   3.541   1.234
17302PP      PP27406   7.131   4.447   0.971
17303PP      PP27407  14.558   0.320   0.380
17304PP      PP27408   6.412   3.490   2.413
17305PP      PP27409   8.429   8.043   4.618
17306PP      PP27410   0.864   8.466   9.859
17307PP      PP27411   7.494   6.505  12.620
17308PP      PP27412   1.930   0.445   1.769
17309PP      PP27413   8.051   3.887   4.637
17310PP      PP27414   6.650   8.689   2.775
17311PP      PP27415   5.329   3.357  10.334
17312PP      PP27416   6.617   3.577  12.185
17313PP      PP27417   5.546   7.276   9.403
17314PP      PP27418   2.943  14.880   9.804
17315PP      PP27419  12.278   7.079   0.453
17316PP      PP27420   9.046  15.614   4.593
17317PP      PP27421   9.347   2.282   1.037
17318PP      PP27422   2.949  14.599   1.555
17319PP      PP27423   8.186  14.216  13.590
17320PP      PP27424   6.224  13.720   9.413
17321PP      PP27425   4.187  15.173  12.505
17322PP      PP27426   9.511  11.392   1.930
17323PP      PP27427  13.866   0.557   0.060
17324PP      PP27428   6.100  13.283  10.747
17325PP      PP27429   5.815   9.689   0.190
17326PP      PP27430   7.865  13.858   4.600
17327PP      PP27431  13.776  14.948   1.590
17328PP      PP27432   6.324  12.067   0.173
17329PP      PP27433  11.886   3.693  10.878
17330PP      PP27434  14.138  13.766   1.008
17331PP      PP27435  11.891   5.282   3.799
17332PP      PP27436   4.616   4.999  10.874
17333PP      PP27437   2.039   4.302   3.798
17334PP      PP27438   2.347   9.882   8.798
17335PP      PP27439   7.542   0.754   4.594
17336PP      PP27440   2.709   7.842  13.053
17337PP      PP27441  15.253   7.420   8.781
17338PP      PP27442  14.465  12.092   2.371
17339PP      PP27443  14.641   4.855   2.749
17340PP      PP27444  14.580   5.893  10.507
17341PP      PP27445   7.940   4.171   8.969
17342PP      PP27446   5.644   5.645   2.309
17343PP      PP27447   6.350  12.751   0.141
17344PP      PP27448   5.890   4.990   3.565
17345PP      PP27449   9.200   8.049   0.354
17346PP      PP27450  13.195   4.661  12.503
17347PP      PP27451   8.821   1.176   0.389
17348PP      PP27452   5.894   4.877  11.144
17349PP      PP27453  12.765   7.154  11.163
17350PP      PP27454  11.730   1.920   0.837
17351PP      PP27455   8.929  13.022  10.801
17352PP      PP27456   4.131  12.954  11.384
17353PP      PP27457   6.282   7.428  11.035
17354PP      PP27458   4.256   6.408  11.248
17355PP      PP27459   0.309   3.124   3.744
17356PP      PP27460  15.696  10.386  10.137
17357PP      PP27461   5.094  11.246   3.643
17358PP      PP27462  15.795  14.245  10.787
17359PP      PP27463   4.041  10.288  12.618
17360PP      PP27464   6.985  13.661  10.877
17361PP      PP27465   8.729  11.541  12.070
17362PP      PP27466  15.175  12.719  12.944
17363PP      PP27467  12.429  12.457   0.021
17364PP      PP27468  14.402   6.938   1.200
17365PP      PP27469   5.246   9.888  12.107
17366PP      PP27470   3.388  14.220   9.949
17367PP      PP27471   1.729   8.691  10.466
17368PP      PP27472  13.575  10.092   9.249
17369PP      PP27473  15.252   3.026   2.250
17370PP      PP27474   0.306  15.677   1.360
17371PP      PP27475   1.477  13.467   8.990
17372PP      PP27476   8.630  12.027  11.850
17373PP      PP27477   8.043  11.288  13.384
17374PP      PP27478  11.371  11.511  11.391
17375PP      PP27479   9.334   8.291  13.209
17376PP      PP27480   8.376  15.797   1.367
17377PP      PP27481   2.788   0.030   2.641
17378PP      PP27482  13.324   8.667   3.564
17379PP      PP27483   9.000   0.601   3.485
17380PP      PP27484  14.297   2.159  12.423
17381PP      PP27485  13.441   1.805  13.410
17382PP      PP27486   9.942   7.277  11.913
17383PP      PP27487   8.534  11.746   9.498
17384PP      PP27488   3.820   0.161   1.646
17385PP      PP27489  12.142   2.859  12.154
17386PP      PP27490   7.849  12.705  11.374
17387PP      PP27491  10.405   8.240   4.071
17388PP      PP27492   3.978   3.777  12.036
17389PP      PP27493  13.507   2.741   9.531
17390PP      PP27494  13.844   8.492   2.724
17391PP      PP27495   4.614  11.105   3.829
17392PP      PP27496   6.676   1.476   4.115
17393PP      PP27497   4.612  10.762   9.992
17394PP      PP27498   3.659   3.966  10.609
17395PP      PP27499  12.464  14.635  12.290
17396PP      PP27500   9.641  11.671   0.625
17397PP      PP27501   4.758   0.756   0.878
17398PP      PP27502  15.136   1.826   1.065
17399PP      PP27503   0.250   2.883   3.301
17400PP      PP27504   7.640  11.997  13.182
17401PP      PP27505   4.696   7.748   1.659
17402PP      PP27506   1.815   8.333   8.858
17403PP      PP27507  14.453   7.491   1.290
17404PP      PP27508  11.730   7.409  12.214
17405PP      PP27509  11.656  13.685   9.832
17406PP      PP27510   7.572   3.443  11.331
17407PP      PP27511   7.559   4.401  11.483
17408PP      PP27512   3.685  12.894   2.688
17409PP      PP27513  12.497   2.069   8.865
17410PP      PP27514  12.846   2.261   9.977
17411PP      PP27515   0.415   9.581   3.593
17412PP      PP27516   5.853  10.680   2.105
17413PP      PP27517  10.941   6.919   0.807
17414PP      PP27518   9.430   9.585   1.063
17415PP      PP27519   3.006   8.215   8.682
17416PP      PP27520   2.775   2.104   9.395
17417PP      PP27521   2.160  11.954   3.961
17418PP      PP27522  13.622  14.632   9.741
17419PP      PP27523   7.842   8.718   0.147
17420PP      PP27524   3.890   0.864   4.353
17421PP      PP27525   3.920   0.034  10.290
17422PP      PP27526  11.568  11.192   0.163
17423PP      PP27527   9.608  11.943   1.887
17424PP      PP27528  14.209   5.204  10.943
17425PP      PP27529  11.202   4.910  12.579
17426PP      PP27530  12.475   8.247   2.554
17427PP      PP27531   9.344   3.974  10.865
17428PP      PP27532   3.492   4.624   3.652
17429PP      PP27533  12.806  15.145  11.050
17430PP      PP27534   9.799   1.550   4.066
17431PP      PP27535  14.976  14.070  13.561
17432PP      PP27536  14.370   0.924   2.204
17433PP      PP27537  14.155   8.919  11.610
17434PP      PP27538   2.512  10.300  12.007
17435PP      PP27539   6.317   0.217   4.362
17436PP      PP27540  14.951   6.313   3.345
17437PP      PP27541   2.972   2.873   2.876
17438PP      PP27542  11.907   1.487  10.101
17439PP      PP27543   8.606  13.527  12.495
17440PP      PP27544   2.030   4.769  11.522
17441PP      PP27545   8.450   3.550   4.718
17442PP      PP27546   6.611   5.023   3.935
17443PP      PP27547   6.745  11.751   0.121
17444PP      PP27548   1.474  11.404   2.964
17445PP      PP27549  13.654   3.815  11.604
17446PP      PP27550   5.713   0.261  13.297
17447PP      PP27551   7.287   5.403  11.839
17448PP      PP27552  15.395   8.666   0.084
17449PP      PP27553   0.250  13.386   2.577
17450PP      PP27554  14.518   0.418  10.413
17451PP      PP27555   6.021   1.871   3.973
17452PP      PP27556  13.711   6.566  11.315
17453PP      PP27557  14.272   9.188   2.317
17454PP      PP27558  10.716  12.638  12.546
17455PP      PP27559   2.254   6.074   2.367
17456PP      PP27560   9.635   0.111   3.120
17457PP      PP27561   0.418   6.715   3.101
17458PP      PP27562   1.041  14.455   4.291
17459PP      PP27563   8.809  15.091   3.709
17460PP      PP27564   5.541   6.682  11.698
17461PP      PP27565  15.086   4.674   3.657
17462PP      PP27566   7.698  10.279   9.205
17463PP      PP27567  10.064  11.620  10.357
17464PP      PP27568  13.219  12.837   1.145
17465PP      PP27569   1.112  15.093   1.442
17466PP      PP27570   6.584  15.551  10.181
17467PP      PP27571  11.521  14.689  12.872
17468PP      PP27572   2.073  14.220   9.827
17469PP      PP27573  12.765   0.681   0.984
17470PP      PP27574   9.313   5.390   9.624
17471PP      PP27575   3.399  12.466   7.937
17472PP      PP27576   6.146   5.289   2.437
17473PP      PP27577   8.455   6.968   4.573
17474PP      PP27578   6.341  14.577  12.707
17475PP      PP27579   9.628   5.753   2.096
17476PP      PP27580   7.961   3.260   0.252
17477PP      PP27581   0.103  11.358   2.306
17478PP      PP27582   3.517   8.659   8.825
17479PP      PP27583  15.742   7.407   0.166
17480PP      PP27584  12.860   3.521  11.126
17481PP      PP27585   5.994   7.318  11.445
17482PP      PP27586   3.118  10.009   1.128
17483PP      PP27587  11.364   8.635   0.366
17484PP      PP27588   2.749   7.401  10.503
17485PP      PP27589   0.554  13.285   3.909
17486PP      PP27590  12.688   3.557   3.511
17487PP      PP27591   9.697   9.452   8.765
17488PP      PP27592  14.740   5.024   0.560
17489PP      PP27593  13.678  12.848   0.891
17490PP      PP27594  11.854   3.050   0.853
17491PP      PP27595   0.759   1.400  10.617
17492PP      PP27596   7.627   0.388   2.943
17493PP      PP27597   1.019   8.455   3.520
17494PP      PP27598  10.001   7.463   9.415
17495PP      PP27599   4.624   8.602   9.074
17496PP      PP27600  11.816   4.411  10.991
17497PP      PP27601   1.386   3.086  13.100
17498PP      PP27602  10.985  10.395   2.614
17499PP      PP27603   4.609   8.605   2.133
17500PP      PP27604  14.700  12.020  12.142
17501PP      PP27605   9.507   5.524   3.130
17502PP      PP27606   0.777   8.923   9.597
17503PP      PP27607  13.840  15.363   4.564
17504PP      PP27608  15.443  14.202   3.948
17505PP      PP27609   3.864   7.029  13.141
17506PP      PP27610  13.430  13.876   2.914
17507PP      PP27611   1.896  12.164   3.549
17508PP      PP27612  15.508   1.201   1.841
17509PP      PP27613   0.321   2.440   0.669
17510PP      PP27614   0.921  13.614   0.280
17511PP      PP27615  12.101  14.628  13.216
17512PP      PP27616   5.209   4.257   9.828
17513PP      PP27617   3.103  11.174  12.891
17514PP      PP27618   7.609   9.203   2.084
17515PP      PP27619   3.496   3.966  11.938
17516PP      PP27620   7.624   3.155   2.260
17517PP      PP27621   9.767  12.398  11.304
17518PP      PP27622   9.213   2.766   9.612
17519PP      PP27623  13.823   6.357   9.957
17520PP      PP27624  14.058  15.309   9.521
17521PP      PP27625  12.997  11.611  11.013
17522PP      PP27626  14.908  11.114  12.614
17523PP      PP27627   0.528  10.325   2.550
17524PP      PP27628  11.133   8.407  13.522
17525PP      PP27629   0.031  13.295   3.666
17526PP      PP27630   5.125   8.018   8.845
17527PP      PP27631   8.478   2.874  11.766
17528PP      PP27632  12.985   6.104  12.794
17529PP      PP27633   4.609   4.368   1.139
17530PP      PP27634   9.997   1.817  12.497
17531PP      PP27635   5.107   5.393   1.654
17532PP      PP27636   7.553  15.687   3.187
17533PP      PP27637   4.552   4.526   9.075
17534PP      PP27638   5.510   8.090  11.209
17535PP      PP27639   7.171   1.883  12.896
17536PP      PP27640   5.465   0.544  12.368
17537PP      PP27641   8.905   9.511  12.330
17538PP      PP27642   3.670   7.184  11.770
17539PP      PP27643   7.230   6.675  11.852
17540PP      PP27644   9.491  12.843   1.479
17541PP      PP27645   0.878   5.088  13.108
17542PP      PP27646   2.394   0.444  12.052
17543PP      PP27647   1.563   9.153  10.287
17544PP      PP27648   1.264   3.494   2.593
17545PP      PP27649   3.357   3.351   1.350
17546PP      PP27650  15.014   7.092  12.778
17547PP      PP27651  11.875  14.094  10.873
17548PP      PP27652   9.127  11.738   1.949
17549PP      PP27653  14.277   8.534  10.231
17550PP      PP27654  15.490  12.656   9.519
17551PP      PP27655  10.088   0.880  13.163
17552PP      PP27656   3.493   0.743  11.579
17553PP      PP27657   6.016  11.990   9.888
17554PP      PP27658  11.666  11.656  11.801
17555PP      PP27659   0.908   4.398   2.296
17556PP      PP27660   8.056   1.043  10.393
17557PP      PP27661  12.680   2.062  12.070
17558PP      PP27662   6.865   7.805  11.717
17559PP      PP27663   0.752   5.517  10.114
17560PP      PP27664  14.327  11.700  11.028
17561PP      PP27665  10.275  14.006  11.892
17562PP      PP27666   7.962   4.523  10.684
17563PP      PP27667   0.327   2.795  11.714
17564PP      PP27668   8.697   8.520   3.708
17565PP      PP27669   9.688   8.673  12.880
17566PP      PP27670   1.910   5.342   9.012
17567PP      PP27671   0.490  13.768   1.228
17568PP      PP27672  12.852   6.958   9.841
17569PP      PP27673   1.163  15.093   2.058
17570PP      PP27674   2.035  15.512   3.611
17571PP      PP27675   7.622  11.540   0.275
17572PP      PP27676   2.168   1.715  12.716
17573PP      PP27677  11.764   5.279   2.125
17574PP      PP27678   8.444   2.812   0.699
17575PP      PP27679   4.818  12.439  10.076
17576PP      PP27680   0.750   7.693  10.186
17577PP      PP27681   8.197   9.050  12.135
17578PP      PP27682   3.063   1.129   4.036
17579PP      PP27683   8.344   1.391  12.065
17580PP      PP27684   6.595  15.469   3.439
17581PP      PP27685   4.262   4.994   3.122
17582PP      PP27686   4.603   6.368   1.672
17583PP      PP27687   8.897   0.012  12.158
17584PP      PP27688   5.596   9.209  10.508
17585PP      PP27689  15.567   1.726   8.663
17586PP      PP27690   2.302   1.430  11.850
17587PP      PP27691   7.272  13.321   3.588
17588PP      PP27692  12.216   9.077   3.704
17589PP      PP27693  13.653  11.460   4.106
17590PP      PP27694  11.214   0.569   1.271
17591PP      PP27695   4.934   8.761   0.827
17592PP      PP27696  10.447  10.772   1.048
17593PP      PP27697   4.938  10.922  10.514
17594PP      PP27698   1.016   8.705   0.220
17595PP      PP27699   8.311  12.615   3.031
17596PP      PP27700   2.774   2.303  11.889
17597PP      PP27701   5.632   0.456   3.969
17598PP      PP27702   1.823   4.269   4.507
17599PP      PP27703  13.363  10.250   1.683
17600PP      PP27704   9.228  12.163  13.321
17601PP      PP27705   2.655   3.209  11.735
17602PP      PP27706   9.033   0.534   2.583
17603PP      PP27707  14.894  12.474   3.248
17604PP      PP27708  13.835   2.752   2.316
17605PP      PP27709  13.120   9.394  12.573
17606PP      PP27710  11.426   5.275   3.426
17607PP      PP27711  10.000  10.021   2.598
17608PP      PP27712   7.322   4.789  11.230
17609PP      PP27713   9.580  12.511   3.301
17610PP      PP27714  14.097   1.514  11.056
17611PP      PP27715   5.787  15.296   2.319
17612PP      PP27716  12.778   5.441   3.761
17613PP      PP27717   2.168   9.787  12.808
17614PP      PP27718   1.695   6.251   3.338
17615PP      PP27719   6.687  14.449   3.366
17616PP      PP27720   9.279   2.379  12.153
17617PP      PP27721  15.483   9.905   1.522
17618PP      PP27722  13.397  13.886  13.278
17619PP      PP27723  12.563   5.841  12.009
17620PP      PP27724   2.498   3.316   0.770
17621PP      PP27725  12.223   0.484   3.025
17622PP      PP27726   3.789  13.602   3.537
17623PP      PP27727   0.530   8.399  10.878
17624PP      PP27728   3.001  10.353  10.585
17625PP      PP27729   0.339  10.791   1.000
17626PP      PP27730  13.628   5.716   9.625
17627PP      PP27731   5.371   2.687   3.296
17628PP      PP27732   6.819   3.775   0.288
17629PP      PP27733   0.714  12.313  12.672
17630PP      PP27734   2.300  13.076  11.189
17631PP      PP27735   6.184  13.198   3.464
17632PP      PP27736  12.918   5.455   9.513
17633PP      PP27737   4.375   1.190   3.675
17634PP      PP27738  13.386   6.918   1.125
17635PP      PP27739   0.439   4.437   2.065
17636PP      PP27740   3.421   4.607   2.523
17637PP      PP27741   8.732  12.776   1.343
17638PP      PP27742  12.926   9.955  13.203
17639PP      PP27743  11.954  14.590  11.626
17640PP      PP27744   3.909   9.701  13.446
17641PP      PP27745  13.491  15.417   9.856
17642PP      PP27746  12.411   3.870   2.484
17643PP      PP27747  15.118   1.949  10.122
17644PP      PP27748  15.354  12.501   2.913
17645PP      PP27749   8.078   9.339  12.559
17646PP      PP27750  15.512   5.264   0.521
17647PP      PP27751   2.940   1.037   4.873
17648PP      PP27752  11.419   5.154   1.772
17649PP      PP27753   8.878  14.645   1.839
17650PP      PP27754   7.100  12.209   4.374
17651PP      PP27755   3.571   3.672   8.888
17652PP      PP27756   5.127   0.514   1.170
17653PP      PP27757   0.098   6.732   1.378
17654PP      PP27758  11.051   6.330  12.318
17655PP      PP27759   8.990   9.904  10.408
17656PP      PP27760   7.434   4.546   3.283
17657PP      PP27761  13.798  13.539   3.086
17658PP      PP27762   2.157   3.813   9.022
17659PP      PP27763  14.694   3.110   1.245
17660PP      PP27764   3.856   4.779   2.270
17661PP      PP27765  10.051  15.040  10.224
17662PP      PP27766   7.462  13.331   0.673
17663PP      PP27767  15.138   4.428  12.326
17664PP      PP27768  15.663   9.194   1.158
17665PP      PP27769  14.738   2.949   3.116
17666PP      PP27770  14.843   5.947   1.022
17667PP      PP27771   9.875   9.754  11.366
17668PP      PP27772   0.442  14.930  13.564
17669PP      PP27773   9.808   9.755   1.555
17670PP      PP27774   5.236  11.219  10.856
17671PP      PP27775   6.736   5.345  11.861
17672PP      PP27776  13.957   5.427   0.127
17673PP      PP27777   9.150  11.237  11.821
17674PP      PP27778   7.455   6.459   2.186
17675PP      PP27779   0.492  14.368  10.646
17676PP      PP27780   3.987   7.372   0.093
17677PP      PP27781   5.906   6.334   1.257
17678PP      PP27782   1.943   4.976   8.629
17679PP      PP27783   6.911  10.102   1.266
17680PP      PP27784  15.808   1.213   4.241
17681PP      PP27785   1.186   0.669  11.318
17682PP      PP27786   6.028  13.171   0.213
17683PP      PP27787   6.175  10.796   9.052
17684PP      PP27788   7.291   2.055  11.364
17685PP      PP27789   3.270   5.949  12.142
17686PP      PP27790   6.419   6.377  10.177
17687PP      PP27791   0.424  14.786   9.374
17688PP      PP27792  15.635  11.428   3.910
17689PP      PP27793   7.838   4.009   9.827
17690PP      PP27794  13.049   4.505   0.327
17691PP      PP27795   9.529   8.889   3.867
17692PP      PP27796  10.224   3.663   0.054
17693PP      PP27797   1.541   3.021   1.262
17694PP      PP27798   9.360  13.834  10.516
17695PP      PP27799   5.120  11.280   1.234
17696PP      PP27800   4.401  10.972   9.559
17697PP      PP27801   3.936   8.060  11.825
17698PP      PP27802   4.037   6.546   3.688
17699PP      PP27803  14.471  11.287   0.984
17700PP      PP27804  14.931   6.341   2.290
17701PP      PP27805   3.869   8.046   1.888
17702PP      PP27806   0.708   8.465   4.093
17703PP      PP27807   7.835   6.605  13.029
17704PP      PP27808   3.343   9.191   2.573
17705PP      PP27809   9.436  12.196   0.601
17706PP      PP27810  11.599   4.405  10.513
17707PP      PP27811   6.983   9.710  10.583
17708PP      PP27812  11.630   6.372  10.958
17709PP      PP27813  14.297   8.823   9.333
17710PP      PP27814  10.996   0.857  12.173
17711PP      PP27815  11.304   6.581   1.009
17712PP      PP27816   8.067   4.793   3.874
17713PP      PP27817  13.191   8.324   3.040
17714PP      PP27818   4.937   9.743   9.940
17715PP      PP27819   7.279   2.765   3.409
17716PP      PP27820   2.741  13.788  11.892
17717PP      PP27821   8.789  11.554   4.039
17718PP      PP27822  13.877  10.409   4.275
17719PP      PP27823   4.970  11.630  12.199
17720PP      PP27824   9.881  12.052   4.214
17721PP      PP27825  10.870  15.544   1.688
17722PP      PP27826   1.774   5.850   3.641
17723PP      PP27827   4.384   3.651   2.773
17724PP      PP27828   1.857   1.366   4.062
17725PP      PP27829   0.003  15.060  11.428
17726PP      PP27830   0.738   9.676   0.114
17727PP      PP27831   0.242   5.861   9.347
17728PP      PP27832  14.761   8.985   1.706
17729PP      PP27833   4.927   1.379  11.790
17730PP      PP27834  11.720  11.289   3.823
17731PP      PP27835   9.099   8.238   2.321
17732PP      PP27836   1.098   9.319   9.549
17733PP      PP27837   5.149   1.123   2.593
17734PP      PP27838  10.049   9.964  10.379
17735PP      PP27839   6.823   4.497  10.864
17736PP      PP27840   3.070  15.763   4.812
17737PP      PP27841   1.620  10.045   2.208
17738PP      PP27842   5.529   6.229   8.773
17739PP      PP27843  14.220   3.162   1.447
17740PP      PP27844   1.734   4.868   1.567
17741PP      PP27845   8.200  13.719   0.917
17742PP      PP27846  15.747   1.397  11.134
17743PP      PP27847  11.731   3.369   3.037
17744PP      PP27848   1.700  11.818   4.432
17745PP      PP27849  14.318   6.242  13.285
17746PP      PP27850  11.651   0.040   4.327
17747PP      PP27851   1.002  13.059   1.676
17748PP      PP27852  14.495  12.808   3.622
17749PP      PP27853   7.348   9.029   3.837
17750PP      PP27854   8.117   2.223  13.030
17751PP      PP27855   7.941   6.868   2.902
17752PP      PP27856  12.057  11.072   3.206
17753PP      PP27857   9.779  14.450  10.757
17754PP      PP27858   3.431   1.086   3.132
17755PP      PP27859  10.855  14.196   4.359
17756PP      PP27860  14.306   7.985   1.453
17757PP      PP27861  14.793   0.975  11.279
17758PP      PP27862  14.925  14.891   9.704
17759PP      PP27863   1.078   4.059  12.186
17760PP      PP27864  14.112  14.548   9.878
17761PP      PP27865  14.945   7.147  10.933
17762PP      PP27866   5.271   8.489  11.976
17763PP      PP27867  10.116   5.859  11.747
17764PP      PP27868   4.645  12.821   9.146
17765PP      PP27869   4.416  12.135   2.692
17766PP      PP27870  10.468   9.179  10.425
17767PP      PP27871   9.646  12.862   2.921
17768PP      PP27872   5.791   2.496  11.646
17769PP      PP27873   3.826   4.246   2.419
17770PP      PP27874   5.750   5.286   9.290
17771PP      PP27875   7.684   7.792  11.156
17772PP      PP27876   6.935  11.766   2.888
17773PP      PP27877  12.431   7.485  10.891
17774PP      PP27878   7.537  11.649  12.744
17775PP      PP27879   8.418  12.704   3.588
17776PP      PP27880   3.318   1.292   2.568
17777PP      PP27881   9.582   5.487   2.557
17778PP      PP27882  12.098  13.952   9.797
17779PP      PP27883   8.895  13.839   3.504
17780PP      PP27884   1.111  10.695  13.406
17781PP      PP27885  13.014  15.254  12.821
17782PP      PP27886   8.479  13.152   0.271
17783PP      PP27887   7.223   8.194  11.956
17784PP      PP27888   5.106   1.535   0.579
17785PP      PP27889   5.220   6.011  12.291
17786PP      PP27890   9.487  15.661   2.347
17787PP      PP27891   6.940   0.392   8.809
17788PP      PP27892  12.856   3.875   1.692
17789PP      PP27893   8.189   0.371   1.638
17790PP      PP27894   4.121   2.954   1.218
17791PP      PP27895   1.964  11.516  13.474
17792PP      PP27896   7.840   9.382  11.625
17793PP      PP27897  10.872   2.420   2.469
17794PP      PP27898  14.104   5.008  11.413
17795PP      PP27899  11.233   3.221   3.042
17796PP      PP27900   4.594  12.961   0.317
17797PP      PP27901   8.388  11.878   3.910
17798PP      PP27902  12.129   9.842  11.111
17799PP      PP27903  10.290   2.721   0.733
17800PP      PP27904   2.523   0.697   3.928
17801PP      PP27905   0.366  12.113   4.000
17802PP      PP27906   0.244   0.692  10.961
17803PP      PP27907  14.853  12.670  10.828
17804PP      PP27908  15.447   4.167   9.367
17805PP      PP27909  11.251  10.998   3.655
17806PP      PP27910   1.117   8.777   1.108
17807PP      PP27911   3.988   6.299   0.874
17808PP      PP27912   1.025   4.222   9.876
17809PP      PP27913   8.992  11.725  13.073
17810PP      PP27914   5.537  15.402  10.248
17811PP      PP27915   0.287  11.337   1.303
17812PP      PP27916   4.512   3.543  13.058
17813PP      PP27917   2.048  12.305  10.452
17814PP      PP27918  11.033  12.801   9.814
17815PP      PP27919  10.889   9.259  11.934
17816PP      PP27920   7.453  13.114   1.994
17817PP      PP27921   9.678  11.460   0.130
17818PP      PP27922   0.195  14.203   3.020
17819PP      PP27923   2.588   1.067  12.534
17820PP      PP27924  14.952   0.705   0.228
17821PP      PP27925   3.820   8.148  11.046
17822PP      PP27926  11.761   8.360   8.797
17823PP      PP27927   6.127  10.837  12.646
17824PP      PP27928   4.564  15.218   8.644
17825PP      PP27929   7.934   2.014   4.478
17826PP      PP27930   4.483  14.356  13.357
17827PP      PP27931   9.548   4.882   0.856
17828PP      PP27932   6.022   6.277   0.445
17829PP      PP27933  13.410  10.980   3.394
17830PP      PP27934  14.504  13.868   1.973
17831PP      PP27935   6.784  12.268  13.024
17832PP      PP27936   0.941   4.446   1.348
17833PP      PP27937   8.380   3.638  10.664
17834PP      PP27938   8.794   6.436   8.619
17835PP      PP27939  15.482  11.292  12.869
17836PP      PP27940   2.648   8.119   0.026
17837PP      PP27941   8.202   3.556   1.434
17838PP      PP27942  12.016   8.988  13.509
17839PP      PP27943   5.133  14.202  11.488
17840PP      PP27944  15.509  15.092   0.472
17841PP      PP27945  11.703   3.959   3.768
17842PP      PP27946  14.022   5.022  10.493
17843PP      PP27947   4.093  12.641   3.236
17844PP      PP27948  14.237  15.651  11.487
17845PP      PP27949  14.360   0.257  11.734
17846PP      PP27950   9.261   7.687   3.228
17847PP      PP27951   3.289   8.669  12.918
17848PP      PP27952  13.141  14.137  11.495
17849PP      PP27953  13.007  11.145  10.773
17850PP      PP27954  13.467   9.226  10.725
17851PP      PP27955  13.259   1.325  13.248
17852PP      PP27956   2.341  13.333   3.099
17853PP      PP27957   0.425   4.793  10.521
17854PP      PP27958  12.376  12.302   1.121
17855PP      PP27959   1.210   9.003   8.605
17856PP      PP27960   8.226   7.576  11.292
17857PP      PP27961  12.547   3.812   0.793
17858PP      PP27962   6.284  11.672  12.346
17859PP      PP27963   4.022  12.892   0.286
17860PP      PP27964   9.467  10.320   3.455
17861PP      PP27965   7.047   7.170  11.964
17862PP      PP27966   1.476  10.081  10.198
17863PP      PP27967  11.274   2.762   4.247
17864PP      PP27968  10.418   9.540  11.023
17865PP      PP27969  10.216   6.043   0.471
17866PP      PP27970   3.199  15.737   2.322
17867PP      PP27971   4.445   2.423   3.325
17868PP      PP27972  14.911  14.475   2.617
17869PP      PP27973  14.949   2.075   4.025
17870PP      PP27974   9.407  12.535  12.993
17871PP      PP27975   2.332  14.895  11.020
17872PP      PP27976   1.503   3.962   3.906
17873PP      PP27977   0.608   5.713  13.192
17874PP      PP27978   2.319  12.990   8.872
17875PP      PP27979   4.823  10.113   0.126
17876PP      PP27980   4.320   9.695   2.581
17877PP      PP27981  13.891   4.861  13.388
17878PP      PP27982  13.697  14.886   2.633
17879PP      PP27983  14.850  11.980  11.639
17880PP      PP27984  15.187   5.643  13.441
17881PP      PP27985  10.092  13.687  12.760
17882PP      PP27986  14.847   0.088   1.358
17883PP      PP27987   7.745  10.729   1.221
17884PP      PP27988   2.405   1.749   2.173
17885PP      PP27989  13.496  15.289   0.340
17886PP      PP27990   4.835  11.204   0.829
17887PP      PP27991   4.674   8.478   1.617
17888PP      PP27992   3.383   3.431   2.836
17889PP      PP27993   6.734   1.163  11.797
17890PP      PP27994   1.278  13.887  10.737
17891PP      PP27995   8.234   9.555  11.088
17892PP      PP27996  15.488  14.731   9.317
17893PP      PP27997  14.484   6.226   3.146
17894PP      PP27998   8.919   4.215  10.525
17895PP      PP27999   6.116   7.406   3.178
17896PP      PP28000   6.681  10.880   0.655
17897PP      PP28001  13.496   9.582   9.144
17898PP      PP28002  13.288  13.593   3.358
17899PP      PP28003  14.991   7.918  11.347
17900PP      PP28004   9.751  13.287   0.555
17901PP      PP28005  14.473   4.286   0.837
17902PP      PP28006   0.288   1.140   9.769
17903PP      PP28007   7.041   5.050   1.164
17904PP      PP28008  14.883   7.128   3.269
17905PP      PP28009   6.996   1.071  10.845
17906PP      PP28010  13.655   7.909   9.988
17907PP      PP28011   6.468   0.394  13.188
17908PP      PP28012   8.369   7.351   3.748
17909PP      PP28013  15.231   8.170  10.476
17910PP      PP28014   0.824   9.802   1.932
17911PP      PP28015  14.216   1.779   1.571
17912PP      PP28016   5.558   3.357   3.756
17913PP      PP28017   9.836  12.879  11.575
17914PP      PP28018  13.685  11.973   2.884
17915PP      PP28019  12.275  12.266   2.093
17916PP      PP28020  14.054   6.512   1.130
17917PP      PP28021   1.108  13.155   9.797
17918PP      PP28022  14.713  13.090   9.868
17919PP      PP28023   2.089   5.724   9.369
17920PP      PP28024  13.107  15.415   0.999
17921PP      PP28025   2.457   3.914   1.806
17922PP      PP28026   3.996   2.128   1.717
17923PP      PP28027  15.125  13.228   4.452
17924PP      PP28028  14.420   6.249  11.854
17925PP      PP28029   1.671   2.864   4.461
17926PP      PP28030   1.668  12.509   2.242
17927PP      PP28031   8.597  14.422  13.023
17928PP      PP28032   5.983   5.387  11.290
17929PP      PP28033   2.907   7.792   0.403
17930PP      PP28034   8.045   4.515   0.911
17931PP      PP28035  12.290  13.476   0.894
17932PP      PP28036   7.134   2.432  12.798
17933PP      PP28037   3.085   8.247   0.276
17934PP      PP28038  12.448  12.901   2.457
17935PP      PP28039   7.496  14.508   9.662
17936PP      PP28040   1.183  12.424   2.855
17937PP      PP28041   7.973   0.867  12.637
17938PP      PP28042  10.904  14.744  11.553
17939PP      PP28043  10.508   0.608  12.008
17940PP      PP28044   7.323   2.235  10.205
17941PP      PP28045  15.495  15.602   0.183
17942PP      PP28046   5.363   2.013   0.596
17943PP      PP28047   6.707  15.088  11.591
17944PP      PP28048   8.216  11.890  11.118
17945PP      PP28049   1.988   7.670   4.083
17946PP      PP28050   0.402   5.899   1.325
17947PP      PP28051  15.701   4.191   0.476
17948PP      PP28052   0.718   9.047   0.805
17949PP      PP28053   4.197  14.581   4.056
17950PP      PP28054   8.702   0.064   1.783
17951PP      PP28055   1.498  12.447   4.499
17952PP      PP28056   2.403   1.333   9.276
17953PP      PP28057   5.631   6.080   3.153
17954PP      PP28058   2.836  12.382  13.528
17955PP      PP28059   5.140  14.673   1.062
17956PP      PP28060   7.853  15.673  12.722
17957PP      PP28061  14.118  15.515  10.960
17958PP      PP28062   2.190   4.002  12.066
17959PP      PP28063   7.631  13.402  10.463
17960PP      PP28064  14.357   2.321  10.411
17961PP      PP28065  14.064   0.358   7.684
17962PP      PP28066   8.436  14.449   1.128
17963PP      PP28067   5.452  14.368  11.058
17964PP      PP28068  11.032  13.321   4.306
17965PP      PP28069  11.988  10.969   1.726
17966PP      PP28070  12.942   2.918   1.182
17967PP      PP28071  10.318   2.107  12.169
17968PP      PP28072   5.340  12.733  12.783
17969PP      PP28073  14.742   6.023   9.184
17970PP      PP28074  10.438  12.121  11.596
17971PP      PP28075  11.909  13.564   3.540
17972PP      PP28076   3.913  11.346   4.455
17973PP      PP28077   8.078   4.742  11.907
17974PP      PP28078  11.863   1.422  13.292
17975PP      PP28079   3.210   0.901   3.589
17976PP      PP28080   4.932   8.467   8.660
17977PP      PP28081   4.222  11.607  13.592
17978PP      PP28082  15.647  13.238   1.241
17979PP      PP28083   9.280   3.121   0.265
17980PP      PP28084   9.411   0.631   4.914
17981PP      PP28085   1.289   1.568   3.392
17982PP      PP28086   7.724   2.230  11.629
17983PP      PP28087  10.670  14.784  12.016
17984PP      PP28088  12.290   4.827  12.673
17985PP      PP28089   8.416   4.020   2.166
17986PP      PP28090   2.902   7.507   3.397
17987PP      PP28091  12.688  13.893   0.124
17988PP      PP28092   5.578   1.287   0.427
17989PP      PP28093  11.818   8.937  10.952
17990PP      PP28094   1.317  12.977   8.816
17991PP      PP28095  14.536   3.570   0.077
17992PP      PP28096  15.171   7.686  11.783
17993PP      PP28097   4.551   3.067   9.563
17994PP      PP28098   5.841   0.368   8.713
17995PP      PP28099   6.045   6.290   2.167
17996PP      PP28100  15.509  15.570   0.714
17997PP      PP28101  10.178   1.880   0.104
17998PP      PP28102   1.626   2.418  11.527
17999PP      PP28103   4.955   3.017  12.910
18000PP      PP28104  15.167   9.491   3.954
18001PP      PP28105   6.810   9.809   8.865
18002PP      PP28106  14.532   4.821   2.065
18003PP      PP28107  11.323   4.367   9.589
18004PP      PP28108   8.473   9.401   2.621
18005PP      PP28109  15.306   6.105   4.276
18006PP      PP28110   2.099   4.794  12.751
18007PP      PP28111   1.399   2.250  12.018
18008PP      PP28112   1.254   9.904   1.507
18009PP      PP28113   9.736   2.457   0.689
18010PP      PP28114   1.786   5.689  10.185
18011PP      PP28115   6.980  15.546  11.983
18012PP      PP28116   8.958   8.619  13.385
18013PP      PP28117  10.830   6.946  10.620
18014PP      PP28118   3.103   9.426   3.374
18015PP      PP28119   7.345  13.922   1.204
18016PP      PP28120  11.088   1.908   4.398
18017PP      PP28121  10.878  13.696  13.374
18018PP      PP28122   0.303   4.959   9.427
18019PP      PP28123   0.904  14.878  13.313
18020PP      PP28124  11.378  13.024   0.729
18021PP      PP28125   8.850   7.342   2.539
18022PP      PP28126  15.264   0.068  11.603
18023PP      PP28127  12.459   6.147  12.977
18024PP      PP28128  14.272   9.263  12.713
18025PP      PP28129   1.729   9.531  12.602
18026PP      PP28130   8.008   0.597   4.334
18027PP      PP28131   1.830   4.899  13.182
18028PP      PP28132   6.666   2.670   3.015
18029PP      PP28133   6.957   1.436   4.586
18030PP      PP28134  10.963  14.141  10.920
18031PP      PP28135   4.633  10.705  11.177
18032PP      PP28136  11.661   6.873   9.381
18033PP      PP28137   3.002   4.214  13.362
18034PP      PP28138   7.697   9.171  12.064
18035PP      PP28139  10.442  15.176   1.643
18036PP      PP28140  14.704  10.007   8.550
18037PP      PP28141   4.609  13.854  13.426
18038PP      PP28142  10.210  10.646   8.712
18039PP      PP28143  12.319   9.985  12.595
18040PP      PP28144  11.401  13.372  10.142
18041PP      PP28145  13.509   6.269  10.368
18042PP      PP28146  11.593  11.518   0.550
18043PP      PP28147  11.470   2.154  10.370
18044PP      PP28148   6.946   1.824   2.633
18045PP      PP28149   2.692   9.533   1.494
18046PP      PP28150   7.200   0.158  11.346
18047PP      PP28151  12.467  14.313  13.495
18048PP      PP28152   0.848   5.498  12.785
18049PP      PP28153   8.127   5.310  11.776
18050PP      PP28154   4.450   2.226  10.994
18051PP      PP28155  10.382   6.469   9.110
18052PP      PP28156  10.805   4.978   2.424
18053PP      PP28157  11.162   7.499   1.075
18054PP      PP28158   7.516   1.194   2.257
18055PP      PP28159  13.808  12.331   0.057
18056PP      PP28160   5.415   9.578   3.780
18057PP      PP28161   8.114   0.213   3.022
18058PP      PP28162  13.177   5.799   8.768
18059PP      PP28163   1.821  13.912   2.672
18060PP      PP28164   5.688   9.166  12.259
18061PP      PP28165  14.088  14.190   2.184
18062PP      PP28166   6.715   0.744  12.857
18063PP      PP28167   7.555   4.235   9.332
18064PP      PP28168  10.424  12.278  12.256
18065PP      PP28169   9.305   1.320   4.109
18066PP      PP28170   2.271   1.720   4.123
18067PP      PP28171  14.563  11.706   2.780
18068PP      PP28172   0.884  11.713   1.752
18069PP      PP28173  14.077   5.834   8.891
18070PP      PP28174  12.721   4.899  12.949
18071PP      PP28175  10.423  12.343   2.765
18072PP      PP28176  10.358   4.202   3.396
18073PP      PP28177   6.690   4.165  11.892
18074PP      PP28178   2.303  13.692   1.876
18075PP      PP28179   0.876   7.000  13.006
18076PP      PP28180  10.088   3.411  10.481
18077PP      PP28181   4.347  13.953  12.986
18078PP      PP28182  14.510   3.753  10.161
18079PP      PP28183   9.373  12.330  12.468
18080PP      PP28184   7.226  12.067   2.551
18081PP      PP28185  14.927  12.969   0.290
18082PP      PP28186   0.895  15.125  10.608
18083PP      PP28187   9.021   6.959  11.007
18084PP      PP28188   0.078  15.334   2.890
18085PP      PP28189   8.327  15.535   0.907
18086PP      PP28190   3.985   6.961  12.581
18087PP      PP28191   7.774   7.488   1.464
18088PP      PP28192   3.428   3.765   1.650
18089PP      PP28193  14.118   4.850   8.817
18090PP      PP28194  12.229   3.492  13.239
18091PP      PP28195   5.829  12.195  11.070
18092PP      PP28196   0.179   6.800   2.639
18093PP      PP28197  13.251   8.339  10.230
18094PP      PP28198   5.981   3.898  10.744
18095PP      PP28199   0.032   8.605  10.884
18096PP      PP28200  11.832   7.862   3.339
18097PP      PP28201   8.039   3.378  10.376
18098PP      PP28202   6.339  14.822  13.172
18099PP      PP28203  11.038   5.103   9.427
18100PP      PP28204   5.967  11.690  11.009
18101PP      PP28205  12.733   0.297   9.668
18102PP      PP28206   7.017  11.578  12.645
18103PP      PP28207   7.981   8.060   1.404
18104PP      PP28208   7.148   5.297  12.934
18105PP      PP28209   2.769   8.690  10.630
18106PP      PP28210   1.457   7.753   1.648
18107PP      PP28211   3.203  11.827   9.365
18108PP      PP28212   1.985   8.729   0.730
18109PP      PP28213   4.373   8.102   2.081
18110PP      PP28214   2.225  10.721  13.317
18111PP      PP28215   3.762   2.601  13.295
18112PP      PP28216   2.831  14.022  12.928
18113PP      PP28217  12.091  15.132   3.182
18114PP      PP28218   8.950  11.989   0.888
18115PP      PP28219  14.959   8.294   7.919
18116PP      PP28220   9.934   7.228  13.595
18117PP      PP28221   7.839   6.722  11.592
18118PP      PP28222  10.589   2.972   3.706
18119PP      PP28223   0.125   5.630  11.548
18120PP      PP28224  12.839  12.846   0.783
18121PP      PP28225   8.005  10.914   9.522
18122PP      PP28226  11.758   9.447  13.367
18123PP      PP28227   5.939  14.171   0.091
18124PP      PP28228   3.962  11.553  10.127
18125PP      PP28229   6.274  11.887   1.534
18126PP      PP28230  14.700   4.275   3.430
18127PP      PP28231   7.391   9.380   4.235
18128PP      PP28232   9.545  10.936   3.099
18129PP      PP28233  10.170  14.660   1.759
18130PP      PP28234   0.526   6.519   8.604
18131PP      PP28235   4.610   3.056   0.990
18132PP      PP28236   7.457  15.615   0.974
18133PP      PP28237  11.572   0.221  10.088
18134PP      PP28238  12.479   7.455  12.721
18135PP      PP28239   9.909   6.853   9.670
18136PP      PP28240  12.029  13.211  11.116
18137PP      PP28241  15.424  12.085   2.616
18138PP      PP28242   0.165  10.079   4.432
18139PP      PP28243  14.304   9.319   1.357
18140PP      PP28244  11.389   1.071   0.355
18141PP      PP28245   3.533  12.643  10.840
18142PP      PP28246  15.536   8.628   3.729
18143PP      PP28247   3.239  15.390   2.724
18144PP      PP28248   2.472   3.940   3.799
18145PP      PP28249   0.516   0.718   3.493
18146PP      PP28250   4.303  15.699   0.972
18147PP      PP28251  10.603   2.423  10.772
18148PP      PP28252   9.924  11.294  10.756
18149PP      PP28253   2.340   6.661  12.551
18150PP      PP28254   1.894  14.988   9.748
18151PP      PP28255   7.979   5.838   1.892
18152PP      PP28256  10.579   5.734   3.323
18153PP      PP28257   7.560   0.989  10.569
18154PP      PP28258   6.915   8.568   9.846
18155PP      PP28259  12.522   3.896  10.779
18156PP      PP28260   6.298  13.314   2.873
18157PP      PP28261  10.214   6.428   1.579
18158PP      PP28262   9.012   9.293  10.506
18159PP      PP28263   1.675  11.920  12.673
18160PP      PP28264   0.315   5.833   2.429
18161PP      PP28265   0.262   7.264   9.110
18162PP      PP28266  11.748  10.590  12.148
18163PP      PP28267  13.098  10.021   3.360
18164PP      PP28268  15.346  14.654   2.362
18165PP      PP28269  14.409   0.924   8.486
18166PP      PP28270  14.170  12.583   0.770
18167PP      PP28271  15.041   2.801   9.023
18168PP      PP28272   6.480   5.991   0.384
18169PP      PP28273   2.954  13.680   1.850
18170PP      PP28274  15.433  12.174   4.365
18171PP      PP28275  12.089   9.599   9.684
18172PP      PP28276   3.480   8.301  11.916
18173PP      PP28277   3.414  11.572   3.604
18174PP      PP28278   3.027   2.472   9.849
18175PP      PP28279   8.406   2.835   1.217
18176PP      PP28280   8.620   4.845   2.260
18177PP      PP28281   7.119  12.678  12.964
18178PP      PP28282  13.924   4.617   4.375
18179PP      PP28283   6.850   9.379  12.455
18180PP      PP28284   8.151   5.191  13.336
18181PP      PP28285  15.406  13.811  11.491
18182PP      PP28286  15.802   2.365  10.461
18183PP      PP28287   5.944   1.502   0.113
18184PP      PP28288   2.811  11.241   0.192
18185PP      PP28289  11.644   3.206  11.135
18186PP      PP28290  11.157   2.719  12.062
18187PP      PP28291   5.693   5.864   1.218
18188PP      PP28292   9.323  14.668  10.625
18189PP      PP28293  10.840  13.139   3.134
18190PP      PP28294   3.017   8.638   9.009
18191PP      PP28295   7.771   1.365  12.674
18192PP      PP28296   0.530  13.826   0.617
18193PP      PP28297  10.510  11.577  12.139
18194PP      PP28298  13.455   3.099   2.072
18195PP      PP28299   9.871   7.872   8.594
18196PP      PP28300   0.583   6.220  13.275
18197PP      PP28301  14.001  12.149   1.011
18198PP      PP28302  14.767  15.307   9.421
18199PP      PP28303  15.350  10.091   0.259
18200PP      PP28304   4.148   6.155   4.020
18201PP      PP28305  11.853   5.686   1.826
18202PP      PP28306   9.163  14.072  11.818
18203PP      PP28307   5.557   7.184  11.867
18204PP      PP28308  13.034   5.956   3.360
18205PP      PP28309   5.399   3.928   0.053
18206PP      PP28310   4.200  11.877  11.017
18207PP      PP28311   5.970   6.832  11.282
18208PP      PP28312   0.681  15.535  10.868
18209PP      PP28313  11.164  12.326  12.477
18210PP      PP28314  11.915   3.244   1.386
18211PP      PP28315   5.324   4.267   2.556
18212PP      PP28316  12.206   6.889  13.545
18213PP      PP28317  14.945   3.098  12.104
18214PP      PP28318  11.642   1.842   2.430
18215PP      PP28319   4.486   0.039  10.191
18216PP      PP28320   1.898   2.838  10.686
18217PP      PP28321   5.386   2.185   1.857
18218PP      PP28322   4.506   4.651   3.522
18219PP      PP28323  15.197   4.346   0.524
18220PP      PP28324  11.913   5.924  13.344
18221PP      PP28325  15.455   6.077   8.587
18222PP      PP28326   0.150   1.891  11.204
18223PP      PP28327   0.866   1.648   0.401
18224PP      PP28328   1.384   6.407   9.011
18225PP      PP28329  15.005   9.027   3.202
18226PP      PP28330  10.043   1.058  10.244
18227PP      PP28331   3.591   6.820   2.571
18228PP      PP28332   9.676   0.437   1.006
18229PP      PP28333  14.006   4.669  11.829
18230PP      PP28334   0.792  10.700   1.309
18231PP      PP28335   7.273  14.065   1.731
18232PP      PP28336   1.989   4.817  11.008
18233PP      PP28337   5.683   8.950   3.172
18234PP      PP28338   1.808   6.195  10.315
18235PP      PP28339  12.618  11.276   4.048
18236PP      PP28340   5.610   2.236  13.165
18237PP      PP28341   3.274  14.423   1.953
18238PP      PP28342   6.195   1.313   0.735
18239PP      PP28343  14.745  10.656   0.439
18240PP      PP28344   6.641  15.214   1.568
18241PP      PP28345   7.387  13.953   4.366
18242PP      PP28346   0.111  12.486  13.539
18243PP      PP28347   3.117   1.394   3.456
18244PP      PP28348   8.844  11.054   3.880
18245PP      PP28349   5.146   6.578   8.955
18246PP      PP28350   1.001   4.201   2.997
18247PP      PP28351   3.316   1.622   3.896
18248PP      PP28352  11.352   2.512  11.184
18249PP      PP28353  15.087  11.524   0.522
18250PP      PP28354  15.132   6.257   3.817
18251PP      PP28355   6.121  10.753  11.261
18252PP      PP28356   6.496   5.152   2.064
18253PP      PP28357   1.021  12.636  11.413
18254PP      PP28358   2.177   9.497   1.688
18255PP      PP28359  10.104   5.256   4.107
18256PP      PP28360   1.637  11.999   2.077
18257PP      PP28361   7.487   5.394   2.287
18258PP      PP28362  11.529  10.419  13.121
18259PP      PP28363  11.055   3.706  10.300
18260PP      PP28364   7.439   0.632  10.139
18261PP      PP28365   3.269   7.142   1.645
18262PP      PP28366   3.389   5.621  12.575
18263PP      PP28367   0.357  12.930   9.175
18264PP      PP28368   2.769   8.827   1.849
18265PP      PP28369  12.734  12.060  11.689
18266PP      PP28370   0.786   5.498   4.157
18267PP      PP28371  11.990   5.769   3.985
18268PP      PP28372   8.268   1.717   4.087
18269PP      PP28373   8.323  12.496   1.144
18270PP      PP28374  12.198  13.881   4.402
18271PP      PP28375   5.748   3.642   1.867
18272PP      PP28376   5.118   3.840   0.790
18273PP      PP28377  13.658   8.884   0.292
18274PP      PP28378   8.458   7.555   9.291
18275PP      PP28379   7.083   4.076   4.051
18276PP      PP28380   5.527   7.666  12.048
18277PP      PP28381  14.806   2.604  12.183
18278PP      PP28382  13.825   8.689  11.934
18279PP      PP28383   1.368   1.926  11.147
18280PP      PP28384   7.755   1.580   4.252
18281PP      PP28385   8.456   9.809  12.249
18282PP      PP28386  13.960  12.691   1.768
18283PP      PP28387  10.384  13.859  12.370
18284PP      PP28388  12.871   0.895   9.103
18285PP      PP28389   5.400   9.877   1.934
18286PP      PP28390  12.272  11.994   1.604
18287PP      PP28391   5.056  14.665   0.058
18288PP      PP28392   4.219  10.503  10.254
18289PP      PP28393   4.606  10.254  13.259
18290PP      PP28394   0.703   5.723   0.090
18291PP      PP28395   7.097   5.908   2.146
18292PP      PP28396   4.791   2.603   2.456
18293PP      PP28397   2.144   2.442   3.217
18294PP      PP28398  14.629   8.366   1.252
18295PP      PP28399   7.611   2.507   9.095
18296PP      PP28400   3.228   5.181  11.589
18297PP      PP28401  13.049   6.629  12.542
18298PP      PP28402   0.196  14.714   1.376
18299PP      PP28403   8.956   8.414  12.479
18300PP      PP28404   0.916   6.689   8.125
18301PP      PP28405   4.937   4.912   1.882
18302PP      PP28406  15.056   0.326   4.021
18303PP      PP28407   8.818   2.553  11.992
18304PP      PP28408   3.854   1.124   8.969
18305PP      PP28409  15.278   1.184   2.644
18306PP      PP28410  14.105   9.081   0.496
18307PP      PP28411   3.740  14.539   1.739
18308PP      PP28412  13.378   2.100   1.898
18309PP      PP28413  12.931   9.852   0.985
18310PP      PP28414   2.720   5.930   9.659
18311PP      PP28415  14.329   6.038   1.220
18312PP      PP28416  14.580  15.521  13.439
18313PP      PP28417   9.435   5.103  12.387
18314PP      PP28418  13.313   0.892  11.835
18315PP      PP28419   9.201   9.638   2.457
18316PP      PP28420  12.825   8.779  13.591
18317PP      PP28421  13.963   7.524  13.015
18318PP      PP28422   8.411   1.100   2.048
18319PP      PP28423   1.351   3.952   9.493
18320PP      PP28424   6.171  14.501   1.066
18321PP      PP28425  15.168  12.761   1.935
18322PP      PP28426   3.079   5.686  11.550
18323PP      PP28427   1.563  11.516   9.820
18324PP      PP28428  14.279   4.663  10.751
18325PP      PP28429   2.292   3.394   3.620
18326PP      PP28430  12.961  14.594   9.196
18327PP      PP28431   6.084   8.358  13.061
18328PP      PP28432   9.402   0.018  12.051
18329PP      PP28433   2.715   4.553  10.964
18330PP      PP28434  11.504   0.619  13.051
18331PP      PP28435   7.067  10.514   2.880
18332PP      PP28436   2.287  13.619   1.261
18333PP      PP28437   5.219   4.830   0.936
18334PP      PP28438   0.757  11.422  11.705
18335PP      PP28439  11.453   0.146  13.517
18336PP      PP28440  15.636   7.726   8.940
18337PP      PP28441   2.711   7.067  10.928
18338PP      PP28442   4.387   9.810  11.096
18339PP      PP28443   1.921  14.015  11.350
18340PP      PP28444  13.788   7.177  13.494
18341PP      PP28445  12.507  13.487   9.879
18342PP      PP28446   3.275   5.836   8.877
18343PP      PP28447   7.424   1.879  10.881
18344PP      PP28448   7.720   6.404   8.684
18345PP      PP28449   1.397   6.628   3.108
18346PP      PP28450   5.650   9.184   4.025
18347PP      PP28451   1.169   1.792  10.598
18348PP      PP28452   3.506   2.847  10.533
18349PP      PP28453   0.696  10.252   3.789
18350PP      PP28454   9.026   6.396  10.991
18351PP      PP28455   2.676   3.870  12.982
18352PP      PP28456   0.890  12.946  10.983
18353PP      PP28457   8.142   7.938  13.227
18354PP      PP28458   7.012  13.546  10.329
18355PP      PP28459   3.586   1.261   3.662
18356PP      PP28460  10.531   2.761   2.691
18357PP      PP28461  11.027   9.317   0.873
18358PP      PP28462   7.034   5.819  12.013
18359PP      PP28463   6.801  11.896  10.997
18360PP      PP28464  14.417  15.807  12.975
18361PP      PP28465   9.088   2.331   2.408
18362PP      PP28466  10.242  11.434   0.251
18363PP      PP28467   9.931   7.099   8.609
18364PP      PP28468  13.994   7.968   2.716
18365PP      PP28469   7.836   8.131  10.767
18366PP      PP28470  10.305   6.865   2.075
18367PP      PP28471   5.878   6.231  10.364
18368PP      PP28472   5.427   6.864   8.164
18369PP      PP28473   0.999   2.510   0.469
18370PP      PP28474  15.516  13.803  12.004
18371PP      PP28475   0.075   6.491  13.123
18372PP      PP28476   3.839   9.710   1.642
18373PP      PP28477   6.762   2.145  10.167
18374PP      PP28478  12.810   0.632  12.097
18375PP      PP28479   2.749   9.729   3.658
18376PP      PP28480   5.752  15.015  11.715
18377PP      PP28481   8.003   9.586  12.106
18378PP      PP28482  12.247  14.207  11.402
18379PP      PP28483  12.703  12.081   4.684
18380PP      PP28484   4.115   6.338   0.083
18381PP      PP28485  10.938  11.235  12.927
18382PP      PP28486   6.645   7.166   3.676
18383PP      PP28487  10.783   8.940   8.400
18384PP      PP28488   5.658  11.864   4.155
18385PP      PP28489   6.683  10.437   2.116
18386PP      PP28490   0.151   4.179  11.369
18387PP      PP28491  10.176  13.100   4.636
18388PP      PP28492  12.502  13.762  10.330
18389PP      PP28493  10.079  11.857  12.084
18390PP      PP28494   7.768  13.431  12.837
18391PP      PP28495  10.412  11.142   0.689
18392PP      PP28496   4.929   9.803   3.181
18393PP      PP28497   5.769   4.466   0.313
18394PP      PP28498  12.536   3.885   3.885
18395PP      PP28499   0.775   2.553   0.941
18396PP      PP28500  10.289   7.015  12.618
18397PP      PP28501   4.299   2.804   3.007
18398PP      PP28502  13.484   0.971   2.835
18399PP      PP28503   3.148  14.862  11.573
18400PP      PP28504   7.375  12.770   1.574
18401PP      PP28505   7.236   9.525   8.919
18402PP      PP28506   7.053   9.456   3.665
18403PP      PP28507  13.086  13.072   3.328
18404PP      PP28508   6.649   5.204   9.019
18405PP      PP28509   8.957   0.114   0.220
18406PP      PP28510  14.684  14.409   4.329
18407PP      PP28511  15.531  11.243   0.611
18408PP      PP28512   9.433   2.285   9.558
18409PP      PP28513  14.293  13.184   9.549
18410PP      PP28514   8.478  15.810  12.473
18411PP      PP28515   0.871   0.228   0.614
18412PP      PP28516   3.574  14.696   1.272
18413PP      PP28517   9.948  14.051   5.042
18414PP      PP28518   8.538  11.622  13.556
18415PP      PP28519   5.170   0.876   3.878
18416PP      PP28520   0.997  14.215   1.447
18417PP      PP28521   7.877  15.100  12.963
18418PP      PP28522  14.258   0.916  10.482
18419PP      PP28523   7.905  12.233   9.247
18420PP      PP28524   9.953  13.516   1.002
18421PP      PP28525   1.929  14.633   3.113
18422PP      PP28526  10.003   9.296  11.150
18423PP      PP28527  15.671   1.779   0.264
18424PP      PP28528   3.298  13.028   2.376
18425PP      PP28529  12.604  14.124   4.157
18426PP      PP28530  14.559   7.870   3.448
18427PP      PP28531   4.873   2.648   3.522
18428PP      PP28532  14.628  15.374   1.830
18429PP      PP28533  14.619   3.624   2.562
18430PP      PP28534  13.724   8.269   3.203
18431PP      PP28535  14.759   5.876  11.965
18432PP      PP28536  11.563   2.946  12.335
18433PP      PP28537   4.472   8.850  11.399
18434PP      PP28538   7.616   3.359   9.472
18435PP      PP28539   8.635   8.327   3.206
18436PP      PP28540  13.567   7.561   8.700
18437PP      PP28541   1.417   1.011  10.242
18438PP      PP28542  12.991   8.380  12.471
18439PP      PP28543  10.686   4.509  11.998
18440PP      PP28544  12.389  11.244  10.300
18441PP      PP28545   3.642   6.660   1.022
18442PP      PP28546   2.415   4.489  10.134
18443PP      PP28547   4.954  15.278  13.366
18444PP      PP28548   3.047   0.697   2.715
18445PP      PP28549  14.048  14.085  11.015
18446PP      PP28550   6.080  11.390   1.575
18447PP      PP28551   4.433   5.090   0.507
18448PP      PP28552  11.082   6.661   2.772
18449PP      PP28553  15.571   8.412   3.221
18450PP      PP28554   8.937  13.182   3.930
18451PP      PP28555  10.119   1.643   1.974
18452PP      PP28556  12.660  10.757   0.639
18453PP      PP28557   5.789   8.695  12.816
18454PP      PP28558   2.465  11.881   0.672
18455PP      PP28559  12.174   4.861   9.299
18456PP      PP28560  14.996   4.488   2.826
18457PP      PP28561   6.009   4.390  10.939
18458PP      PP28562  10.095   3.459   3.015
18459PP      PP28563  11.229  13.119   3.483
18460PP      PP28564   5.308   4.138  11.884
18461PP      PP28565   6.628  12.388  12.180
18462PP      PP28566  15.390  11.523  12.399
18463PP      PP28567  12.205   1.081   0.629
18464PP      PP28568  14.961   3.817   3.995
18465PP      PP28569  12.010   7.461  11.782
18466PP      PP28570   3.930   8.492  12.756
18467PP      PP28571   8.993  13.769   4.542
18468PP      PP28572   3.892   2.290   9.367
18469PP      PP28573   9.719  10.424  12.985
18470PP      PP28574   9.352   9.729  12.613
18471PP      PP28575  12.964   8.821   9.027
18472PP      PP28576  13.046  15.671   4.745
18473PP      PP28577  13.740  10.295   8.725
18474PP      PP28578   2.534   6.368   2.035
18475PP      PP28579  13.159  12.878   3.824
18476PP      PP28580   8.743   2.623  10.449
18477PP      PP28581   3.179   8.342   1.983
18478PP      PP28582   2.297   8.631  11.724
18479PP      PP28583   6.801  14.883  13.410
18480PP      PP28584   9.757   7.624  10.593
18481PP      PP28585   0.498  12.493   2.811
18482PP      PP28586   3.817  10.180  11.136
18483PP      PP28587   6.784   0.206   3.139
18484PP      PP28588  11.761  14.066  11.512
18485PP      PP28589   1.253   9.554  11.693
18486PP      PP28590   7.643   5.155   3.834
18487PP      PP28591   1.434   9.947   0.086
18488PP      PP28592   3.761   8.311  10.282
18489PP      PP28593   9.723   8.111   0.548
18490PP      PP28594   1.223  12.642  12.286
18491PP      PP28595  13.273   1.788   3.890
18492PP      PP28596  15.540   8.337   9.658
18493PP      PP28597   4.942   1.800  10.829
18494PP      PP28598  11.619   3.332   9.141
18495PP      PP28599   4.901   3.928  11.622
18496PP      PP28600   9.250  11.641  10.081
18497PP      PP28601   1.659  10.859   4.574
18498PP      PP28602   8.174   6.962  11.239
18499PP      PP28603  12.987  10.806   9.168
18500PP      PP28604  13.297   9.156   3.338
18501PP      PP28605   8.301   2.098   2.708
18502PP      PP28606  11.040   4.957   8.924
18503PP      PP28607   5.257  13.808   0.594
18504PP      PP28608   2.019  14.250   2.325
18505PP      PP28609   1.712   5.464   9.695
18506PP      PP28610   3.485  14.771   2.374
18507PP      PP28611   1.511   8.864   0.196
18508PP      PP28612   7.573   0.924   1.296
18509PP      PP28613   6.574   2.875   5.032
18510PP      PP28614   6.359   1.174   1.224
18511PP      PP28615   0.049   2.263   9.419
18512PP      PP28616   4.190  10.111  11.507
18513PP      PP28617  13.335   5.402  10.930
18514PP      PP28618   4.745  13.181   9.545
18515PP      PP28619   9.455   0.156   9.602
18516PP      PP28620   2.832   2.649   2.423
18517PP      PP28621  10.790   0.481   3.794
18518PP      PP28622   9.947   3.100   1.507
18519PP      PP28623   9.902   2.433   2.101
18520PP      PP28624   5.427   5.266  11.392
18521PP      PP28625  15.122   9.493   3.426
18522PP      PP28626   5.586  14.332  12.275
18523PP      PP28627   7.541   4.000  13.278
18524PP      PP28628   2.674  11.651   8.267
18525PP      PP28629  10.902   8.332  12.447
18526PP      PP28630   0.549   5.866   9.777
18527PP      PP28631   4.623   4.101   2.965
18528PP      PP28632  10.057   7.735  12.871
18529PP      PP28633  12.404  15.055  10.734
18530PP      PP28634   0.087   7.962   4.110
18531PP      PP28635  14.070   7.622  13.521
18532PP      PP28636   9.361  10.974  12.224
18533PP      PP28637   7.744   3.423   4.712
18534PP      PP28638  12.958  10.519   1.042
18535PP      PP28639   5.345   2.024   2.815
18536PP      PP28640   5.054   6.631  11.370
18537PP      PP28641  13.631   7.385  10.122
18538PP      PP28642  10.776   5.852   2.843
18539PP      PP28643   3.469  10.848   8.914
18540PP      PP28644   7.888   6.998  12.287
18541PP      PP28645  11.210  13.281  13.449
18542PP      PP28646   7.602  12.281   4.172
18543PP      PP28647   0.371   1.543  12.803
18544PP      PP28648  15.592  15.822  12.393
18545PP      PP28649  14.907   5.153   3.540
18546PP      PP28650   3.757   2.912   0.707
18547PP      PP28651   7.935   2.840   2.720
18548PP      PP28652   6.939   2.233   2.957
18549PP      PP28653   8.420  10.310   1.487
18550PP      PP28654   7.293   9.105  10.413
18551PP      PP28655  15.394   7.971  12.509
18552PP      PP28656   6.756   3.749   3.830
18553PP      PP28657  13.374  10.944   8.795
18554PP      PP28658   5.767   7.323   9.860
18555PP      PP28659   3.521   0.829   2.651
18556PP      PP28660   1.368  14.971   3.515
18557PP      PP28661   1.433   4.181  11.815
18558PP      PP28662   5.283   1.595   1.931
18559PP      PP28663  10.497   2.714  12.698
18560PP      PP28664   2.218  14.336   2.792
18561PP      PP28665  15.552   1.765  12.951
18562PP      PP28666   2.647   1.504   4.449
18563PP      PP28667  15.466   7.632   3.063
18564PP      PP28668   9.349   5.949  12.148
18565PP      PP28669  10.660  11.861   9.770
18566PP      PP28670  11.757   1.985  11.935
18567PP      PP28671   4.715   9.535   1.469
18568PP      PP28672   2.856  14.179   9.124
18569PP      PP28673  11.055   1.224   0.761
18570PP      PP28674  13.734   0.998   0.296
18571PP      PP28675  12.269   9.155   2.108
18572PP      PP28676   9.077   7.419  11.301
18573PP      PP28677   6.669   2.566  12.000
18574PP      PP28678  14.771  13.991   9.825
18575PP      PP28679  13.187   7.407   3.190
18576PP      PP28680   6.742   6.620  11.657
18577PP      PP28681  12.988   4.352   1.851
18578PP      PP28682   3.556   1.264   4.192
18579PP      PP28683  15.622   9.300   4.724
18580PP      PP28684   1.170   7.137   2.422
18581PP      PP28685  13.144  12.435  11.171
18582PP      PP28686   0.515  12.432   9.327
18583PP      PP28687   5.708   7.912   1.401
18584PP      PP28688   3.332   1.821  10.075
18585PP      PP28689   2.122   5.694  11.102
18586PP      PP28690   3.828  15.525   0.805
18587PP      PP28691   0.216   7.214   0.573
18588PP      PP28692  11.640   7.084  11.816
18589PP      PP28693   7.369   7.941  12.410
18590PP      PP28694   8.957  14.897  11.368
18591PP      PP28695   3.175   2.491   3.691
18592PP      PP28696  11.673   5.622   0.438
18593PP      PP28697  10.408   9.797  13.035
18594PP      PP28698   5.845   5.500   8.523
18595PP      PP28699   9.905   3.463  11.663
18596PP      PP28700   1.657  14.611  10.687
18597PP      PP28701  10.213  15.807  12.630
18598PP      PP28702   9.106  15.490   9.995
18599PP      PP28703  15.240   7.092   8.383
18600PP      PP28704   0.777   9.795   8.717
18601PP      PP28705   4.391  10.776   8.497
18602PP      PP28706  11.513   2.699  12.777
18603PP      PP28707  12.977   6.044  11.747
18604PP      PP28708  14.264  14.634  12.933
18605PP      PP28709  10.734   2.237  12.519
18606PP      PP28710   0.470  10.433   4.229
18607PP      PP28711  13.427   8.430  12.755
18608PP      PP28712   7.604  12.851   0.530
18609PP      PP28713   7.304   9.262   2.550
18610PP      PP28714   0.253  10.661  10.952
18611PP      PP28715   7.193  12.676   2.046
18612PP      PP28716   9.008  11.136   8.741
18613PP      PP28717   0.183  12.721   9.672
18614PP      PP28718  10.134  11.270  11.810
18615PP      PP28719  15.675   1.010   0.645
18616PP      PP28720   2.060   9.762   2.152
18617PP      PP28721   0.382   9.007   9.263
18618PP      PP28722   2.763   2.509  12.720
18619PP      PP28723  12.708  12.261  12.161
18620PP      PP28724   5.798   5.245  12.398
18621PP      PP28725   1.070   9.350  13.480
18622PP      PP28726   5.162   0.156   9.518
18623PP      PP28727   8.544  10.951   1.012
18624PP      PP28728   9.215   4.619   4.747
18625PP      PP28729  11.941   4.510   3.210
18626PP      PP28730   7.513   3.821   1.807
18627PP      PP28731  15.272   8.377   8.347
18628PP      PP28732   2.641  11.770   0.179
18629PP      PP28733   5.751   0.239   0.308
18630PP      PP28734  10.869   4.472   2.457
18631PP      PP28735   6.374   1.249   0.264
18632PP      PP28736   1.126   5.204  11.298
18633PP      PP28737   3.729  12.593  11.367
18634PP      PP28738  15.148  13.357   1.156
18635PP      PP28739   3.187   7.030  11.671
18636PP      PP28740   1.423   3.163   9.226
18637PP      PP28741   0.982   2.321  13.344
18638PP      PP28742  10.650   7.452   1.200
18639PP      PP28743   2.022   3.164   2.087
18640PP      PP28744   4.778   5.453   3.809
18641PP      PP28745  14.253   3.971  13.465
18642PP      PP28746   6.757  15.085   0.957
18643PP      PP28747  15.595   8.591  11.342
18644PP      PP28748   9.084   6.730   3.783
18645PP      PP28749  13.616   3.831   0.609
18646PP      PP28750  10.478   3.682   9.066
18647PP      PP28751  15.704   7.628   4.516
18648PP      PP28752   7.913   5.448   9.899
18649PP      PP28753   0.156  15.756   3.981
18650PP      PP28754   1.815   4.615   4.123
18651PP      PP28755  12.886  13.927   1.671
18652PP      PP28756   8.565   7.244  10.999
18653PP      PP28757  13.256   7.772  10.342
18654PP      PP28758   4.677  12.542   3.629
18655PP      PP28759  15.642   1.914   9.943
18656PP      PP28760   7.420   1.790   9.956
18657PP      PP28761   1.966  14.182   9.208
18658PP      PP28762   3.121  12.036   0.172
18659PP      PP28763  15.510   1.770  10.429
18660PP      PP28764  11.114   6.575  13.168
18661PP      PP28765   0.810  15.771   3.890
18662PP      PP28766  14.255   3.137   4.229
18663PP      PP28767   0.165  13.386   3.156
18664PP      PP28768   5.512  14.229   0.391
18665PP      PP28769  14.519   3.629  13.175
18666PP      PP28770   4.916   8.116   2.055
18667PP      PP28771   0.197   0.630   0.813
18668PP      PP28772   7.584   3.869   8.674
18669PP      PP28773   5.921  12.983   9.938
18670PP      PP28774  13.306  11.438  13.393
18671PP      PP28775   0.542   5.219   0.325
18672PP      PP28776  11.742   5.217   2.626
18673PP      PP28777  12.047   4.550  10.277
18674PP      PP28778   0.900   4.878   0.534
18675PP      PP28779   1.490   2.824   3.930
18676PP      PP28780   5.665   8.769   0.189
18677PP      PP28781  12.656   9.752  13.591
18678PP      PP28782  12.001   6.208   1.631
18679PP      PP28783  13.419  11.649  11.970
18680PP      PP28784   2.150   3.176  11.627
18681PP      PP28785   4.036   5.203   9.636
18682PP      PP28786   4.651   2.259  10.138
18683PP      PP28787  13.783   3.294  11.068
18684PP      PP28788  10.850  10.311  12.067
18685PP      PP28789   9.695   6.411   9.787
18686PP      PP28790  15.629   8.805  12.485
18687PP      PP28791   0.232   3.121  12.935
18688PP      PP28792   3.058  11.873  12.761
18689PP      PP28793   9.405  10.028  13.261
18690PP      PP28794  12.595   5.411   8.794
18691PP      PP28795  14.531  14.838   4.071
18692PP      PP28796   4.917  14.740  12.484
18693PP      PP28797   6.567  15.743  11.710
18694PP      PP28798   2.550  11.166   8.898
18695PP      PP28799   0.563  13.340   1.660
18696PP      PP28800   2.367   6.785   9.956
18697PP      PP28801   1.430   8.049   2.677
18698PP      PP28802   3.668  14.220  11.877
18699PP      PP28803  14.360   5.789   1.683
18700PP      PP28804  12.912   4.689   2.861
18701PP      PP28805   2.214   4.486  12.340
18702PP      PP28806   7.229   2.395  11.755
18703PP      PP28807  15.577   3.468   1.325
18704PP      PP28808   4.315  10.336  11.053
18705PP      PP28809  14.082   9.059  12.252
18706PP      PP28810  11.478  15.028   2.653
18707PP      PP28811   8.961  11.200   1.190
18708PP      PP28812   0.982  12.184  12.181
18709PP      PP28813  10.488   0.091   0.790
18710PP      PP28814   0.447   5.627   0.634
18711PP      PP28815   5.517   0.826   1.311
18712PP      PP28816  15.202  11.386  13.316
18713PP      PP28817   9.355   7.966   3.706
18714PP      PP28818   3.280  13.053  13.478
18715PP      PP28819   4.747   2.555   0.943
18716PP      PP28820  14.367   4.571  11.273
18717PP      PP28821  14.120  11.321   2.353
18718PP      PP28822  12.340   5.806   1.972
18719PP      PP28823   0.418  11.346  12.997
18720PP      PP28824  12.643   4.901  10.979
18721PP      PP28825  14.073   6.215   3.838
18722PP      PP28826   3.626   3.066   9.557
18723PP      PP28827   3.423   9.351  10.371
18724PP      PP28828   7.896   5.552  12.648
18725PP      PP28829   3.471   0.232   4.114
18726PP      PP28830  11.448   6.755  13.578
18727PP      PP28831   6.230   3.846   2.031
18728PP      PP28832  11.294   7.712   9.252
18729PP      PP28833  13.967  11.456   0.955
18730PP      PP28834  12.009   7.228   8.782
18731PP      PP28835   0.939   5.521   0.498
18732PP      PP28836  12.003  14.843  10.986
18733PP      PP28837   0.426  15.825  13.184
18734PP      PP28838   1.547   0.615   4.574
18735PP      PP28839   4.883   3.386  11.738
18736PP      PP28840  10.849  10.323  10.832
18737PP      PP28841   0.811   4.019   3.728
18738PP      PP28842   0.459   8.258   2.554
18739PP      PP28843   5.270  11.746   1.727
18740PP      PP28844   7.953  10.514  11.189
18741PP      PP28845   6.784  13.351   3.802
18742PP      PP28846  13.173  12.750  13.059
18743PP      PP28847  14.671  13.605  12.297
18744PP      PP28848  15.168   8.747  12.699
18745PP      PP28849   7.063   8.655  13.512
18746PP      PP28850   9.429   0.566  11.945
18747PP      PP28851   4.230   1.809   4.550
18748PP      PP28852   4.897  12.194   2.501
18749PP      PP28853  14.106   6.588  11.633
18750PP      PP28854   7.259   7.574   2.318
18751PP      PP28855  13.984  15.000  13.223
18752PP      PP28856   0.393   0.144  10.794
18753PP      PP28857  12.534   9.521  11.080
18754PP      PP28858   8.256  12.209   3.507
18755PP      PP28859  12.467   2.766   0.986
18756PP      PP28860  13.737   4.321  10.089
18757PP      PP28861  14.044   3.018   3.288
18758PP      PP28862   2.791   1.598   3.955
18759PP      PP28863   7.149  13.271   4.172
18760PP      PP28864   6.418   9.698  10.154
18761PP      PP28865  12.270   9.249   8.722
18762PP      PP28866   8.699   3.322  10.964
18763PP      PP28867  15.361   5.462   8.673
18764PP      PP28868   3.837  13.990  10.952
18765PP      PP28869   0.623  10.371  12.694
18766PP      PP28870   3.829   3.602   1.265
18767PP      PP28871   1.303  14.140   0.990
18768PP      PP28872   4.133  15.396  11.072
18769PP      PP28873  11.961   0.166  12.002
18770PP      PP28874   0.857  13.924  11.128
18771PP      PP28875  14.067   3.464  13.372
18772PP      PP28876  12.729   7.586   9.083
18773PP      PP28877  11.732  14.108   2.506
18774PP      PP28878   6.504  13.665  11.475
18775PP      PP28879   5.720   2.625  11.061
18776PP      PP28880  11.640   0.291   1.581
18777PP      PP28881   6.565  13.761   3.152
18778PP      PP28882  13.779   3.961   3.674
18779PP      PP28883   8.075   9.702  13.581
18780PP      PP28884  14.846   6.490  12.041
18781PP      PP28885   4.692   3.168   9.071
18782PP      PP28886  10.952  10.234   0.435
18783PP      PP28887   7.387   0.027  12.897
18784PP      PP28888  14.764  12.474   2.103
18785PP      PP28889   2.025   9.487  10.267
18786PP      PP28890  13.340  12.550  10.293
18787PP      PP28891  13.899  10.089   2.284
18788PP      PP28892  10.319  10.257   2.234
18789PP      PP28893  10.331  11.920   1.793
18790PP      PP28894  12.705  12.747  10.289
18791PP      PP28895  13.454   4.283  11.257
18792PP      PP28896   5.412   0.754   2.167
18793PP      PP28897   4.130   8.094   3.443
18794PP      PP28898  12.080   0.440   2.458
18795PP      PP28899   1.215   2.721   9.089
18796PP      PP28900   5.613  14.779   0.827
18797PP      PP28901   2.185   3.946  13.231
18798PP      PP28902   9.579  14.791  10.189
18799PP      PP28903  13.450  13.165  12.877
18800PP      PP28904  10.029   9.786   8.979
18801PP      PP28905   7.483   1.795   1.364
18802PP      PP28906   8.074  13.820   1.858
18803PP      PP28907  14.176  12.661   4.021
18804PP      PP28908   3.749   8.745   1.400
18805PP      PP28909   1.622   0.764  11.618
18806PP      PP28910  13.560  11.844   1.776
18807PP      PP28911   5.845  14.094   9.347
18808PP      PP28912  12.529   6.642   3.402
18809PP      PP28913   0.051  12.493  13.014
18810PP      PP28914   5.198  12.266  12.983
18811PP      PP28915   1.412   2.058   2.506
18812PP      PP28916  14.496  14.691  11.595
18813PP      PP28917   9.670   4.977   2.569
18814PP      PP28918   6.576  13.009   9.439
18815PP      PP28919  11.804  13.086   4.240
18816PP      PP28920   3.461  10.809  11.949
18817PP      PP28921   0.213   5.054  10.948
18818PP      PP28922   0.254   4.384   0.200
18819PP      PP28923  10.049  13.569   4.858
18820PP      PP28924   3.187   5.890   3.724
18821PP      PP28925   6.654  13.190   0.974
18822PP      PP28926   7.278  11.910   9.992
18823PP      PP28927   0.923   7.215   3.754
18824PP      PP28928   1.907   5.724   2.153
18825PP      PP28929  13.879  14.576   1.188
18826PP      PP28930  12.046  13.506   9.510
18827PP      PP28931   6.734   9.202   8.769
18828PP      PP28932   0.199   8.444  10.382
18829PP      PP28933   7.599   2.607   9.656
18830PP      PP28934   8.058   6.079   4.096
18831PP      PP28935   9.651   1.047   3.061
18832PP      PP28936   9.701  11.151   1.487
18833PP      PP28937   5.138  11.877   4.257
18834PP      PP28938   7.000   2.838   1.390
18835PP      PP28939  10.962   5.373  12.654
18836PP      PP28940   6.351  14.450  13.544
18837PP      PP28941   5.754  13.727   8.659
18838PP      PP28942   4.527   2.850  13.601
18839PP      PP28943  11.228   9.196   8.609
18840PP      PP28944  12.322  13.131  10.254
18841PP      PP28945  15.063  15.388  11.497
18842PP      PP28946  12.136   4.054  11.180
18843PP      PP28947  13.157   3.088   0.295
18844PP      PP28948  12.345   0.974   1.247
18845PP      PP28949  13.042  14.120   3.863
18846PP      PP28950   9.463  11.920   1.046
18847PP      PP28951   9.921  14.378   2.884
18848PP      PP28952   9.749   0.685   2.529
18849PP      PP28953   7.308   2.117   9.004
18850PP      PP28954   3.644   5.173  13.538
18851PP      PP28955   4.261   9.397   1.669
18852PP      PP28956   8.272  13.424  13.059
18853PP      PP28957   4.833   8.768  11.870
18854PP      PP28958  14.186  10.088   9.361
18855PP      PP28959   1.395   9.509   3.224
18856PP      PP28960  10.525  13.196   9.472
18857PP      PP28961  14.856   9.180   1.210
18858PP      PP28962  14.109  10.529  10.231
18859PP      PP28963   5.552   0.659   3.202
18860PP      PP28964   0.084   5.491   0.260
18861PP      PP28965   7.868  13.320  13.356
18862PP      PP28966  10.303   1.409  12.402
18863PP      PP28967   6.883   3.825  10.310
18864PP      PP28968   9.728   6.900  12.222
18865PP      PP28969  12.968   5.589  13.427
18866PP      PP28970  12.216  13.129   3.418
18867PP      PP28971  10.948  14.095  11.425
18868PP      PP28972  13.288   4.344   8.681
18869PP      PP28973  12.446  12.746   4.671
18870PP      PP28974   6.382   7.619  12.243
18871PP      PP28975   1.141  15.729  11.881
18872PP      PP28976   6.561  11.638   2.379
18873PP      PP28977   7.409   2.977  11.526
18874PP      PP28978  13.459  11.365  11.008
18875PP      PP28979   9.966   9.942   0.343
18876PP      PP28980   3.961   4.118  13.117
18877PP      PP28981   4.606   2.223   4.146
18878PP      PP28982   0.909  12.784  12.897
18879PP      PP28983   4.389  15.587   4.515
18880PP      PP28984   9.147   7.309  13.224
18881PP      PP28985   2.051   7.480   2.400
18882PP      PP28986   9.269  14.851   2.395
18883PP      PP28987  15.114   4.447  13.005
18884PP      PP28988   5.218   9.101   8.731
18885PP      PP28989  14.076  11.176   0.470
18886PP      PP28990   1.078   3.815  11.722
18887PP      PP28991  12.829  14.802  10.025
18888PP      PP28992   8.759  15.454  10.379
18889PP      PP28993   6.051  15.140   3.381
18890PP      PP28994   2.643  14.907   1.160
18891PP      PP28995   0.613   7.961   4.177
18892PP      PP28996   3.126  11.435  10.863
18893PP      PP28997   4.363   7.925   0.838
18894PP      PP28998   8.920  13.471   1.965
18895PP      PP28999   7.219   2.079  12.189
18896PP      PP29000  14.394   3.083  13.533
18897PP      PP29001  13.096  10.335   2.633
18898PP      PP29002   5.413   2.301  12.135
18899PP      PP29003   1.808  13.007   2.424
18900PP      PP29004   6.901   9.154  10.784
18901PP      PP29005  15.783   2.032   3.667
18902PP      PP29006   2.809  10.751  12.115
18903PP      PP29007  15.382   1.319   0.318
18904PP      PP29008   5.171  14.462  10.273
18905PP      PP29009  14.500   8.175  12.069
18906PP      PP29010  13.061  11.832   2.059
18907PP      PP29011  14.960   8.279   8.895
18908PP      PP29012   3.916   5.702   4.285
18909PP      PP29013   1.605  14.856   2.202
18910PP      PP29014  12.204   4.165   9.948
18911PP      PP29015  14.766   3.487   9.605
18912PP      PP29016  12.881  13.803  10.657
18913PP      PP29017   4.792  10.910   3.377
18914PP      PP29018   8.619  10.737   3.322
18915PP      PP29019   5.721   4.665   2.004
18916PP      PP29020   2.134   7.194  11.677
18917PP      PP29021   2.876   4.554   9.892
18918PP      PP29022   5.360  13.759  11.819
18919PP      PP29023  14.379  14.968   3.172
18920PP      PP29024   1.016  13.268   9.246
18921PP      PP29025   2.732   4.322   0.457
18922PP      PP29026   2.186   5.779   8.073
18923PP      PP29027   4.417   6.513  12.488
18924PP      PP29028   2.472   9.499   0.370
18925PP      PP29029   1.202   6.975   3.412
18926PP      PP29030  10.710  12.450   0.727
18927PP      PP29031   3.324   5.832  13.111
18928PP      PP29032  10.535  13.404   4.896
18929PP      PP29033   2.291   0.621   4.453
18930PP      PP29034  13.758  12.013  11.702
18931PP      PP29035   3.665   0.535   0.855
18932PP      PP29036   7.196   4.107   0.122
18933PP      PP29037   3.740  12.629   2.228
18934PP      PP29038  14.094   2.522   8.963
18935PP      PP29039   3.295   3.810   1.149
18936PP      PP29040   3.727  11.578  11.707
18937PP      PP29041   8.370   4.048   2.712
18938PP      PP29042  11.312  10.624   0.655
18939PP      PP29043   0.642   0.252   9.851
18940PP      PP29044   7.783   2.582   3.205
18941PP      PP29045  10.520   0.220   9.173
18942PP      PP29046   6.552   4.417  11.415
18943PP      PP29047  15.330   0.451   4.437
18944PP      PP29048  10.194   9.451   1.801
18945PP      PP29049  14.252  10.465   1.130
18946PP      PP29050  10.071   5.932   9.515
18947PP      PP29051   8.856   2.368   3.796
18948PP      PP29052   3.317  15.676  11.540
18949PP      PP29053   8.300   4.034   1.661
18950PP      PP29054  10.712  13.658  11.060
18951PP      PP29055  14.840  12.921   2.351
18952PP      PP29056   9.714   3.613  10.161
18953PP      PP29057   6.214   2.523   2.158
18954PP      PP29058   7.845   9.917   2.032
18955PP      PP29059   3.521  15.669   9.997
18956PP      PP29060  13.551   9.772   3.425
18957PP      PP29061  15.707   1.048   9.422
18958PP      PP29062   7.422  10.248   1.127
18959PP      PP29063   0.742   9.317   3.936
18960PP      PP29064  12.259   7.691   1.878
18961PP      PP29065   8.787   6.825  12.032
18962PP      PP29066  13.337  14.676   3.461
18963PP      PP29067  12.347   1.880   9.892
18964PP      PP29068  14.830   9.915   2.243
18965PP      PP29069   7.339  14.975   1.878
18966PP      PP29070  13.792   5.473  10.659
18967PP      PP29071   1.968   4.757   0.617
18968PP      PP29072  15.090  14.329  13.089
18969PP      PP29073  14.912   2.640   0.432
18970PP      PP29074   7.865  12.044  10.760
18971PP      PP29075   2.178   5.880  10.594
18972PP      PP29076   3.127  12.380   1.420
18973PP      PP29077   8.707   2.772   2.447
18974PP      PP29078   2.494   8.747   9.916
18975PP      PP29079   5.702  10.539  12.099
18976PP      PP29080  10.886  15.459  10.583
18977PP      PP29081   5.419   3.212   1.482
18978PP      PP29082   1.139  12.572   0.151
18979PP      PP29083   4.700  14.223   0.753
18980PP      PP29084  15.576   2.496  13.541
18981PP      PP29085  13.261   7.350  11.138
18982PP      PP29086  14.624  11.169   0.415
18983PP      PP29087   2.083   2.207  10.167
18984PP      PP29088  15.371   0.144   3.614
18985PP      PP29089   9.258   1.526   4.589
18986PP      PP29090   0.467   4.702  11.370
18987PP      PP29091   6.506   7.406  11.793
18988PP      PP29092   1.874   4.747   2.908
18989PP      PP29093   9.346   0.754   2.204
18990PP      PP29094  10.625  10.054  10.006
18991PP      PP29095   8.176  12.412  11.075
18992PP      PP29096   4.473  10.082   9.223
18993PP      PP29097   7.304  11.347   3.960
18994PP      PP29098   2.953   4.281  12.784
18995PP      PP29099   8.595   8.234  11.269
18996PP      PP29100   5.226  13.955  12.282
18997PP      PP29101  14.289   4.876   9.339
18998PP      PP29102   1.200  14.513   2.150
18999PP      PP29103   8.151   7.314   4.330
19000PP      PP29104   6.855   8.240  12.408
19001PP      PP29105   6.357   5.583   0.713
19002PP      PP29106  10.806  10.190  11.351
19003PP      PP29107   4.738  11.364  11.815
19004PP      PP29108   5.190  15.200  12.402
19005PP      PP29109  12.042  10.131  12.117
19006PP      PP29110  12.248   1.860  11.875
19007PP      PP29111   9.917  10.232   3.093
19008PP      PP29112   8.858   0.968   2.305
19009PP      PP29113   6.532   8.461   9.494
19010PP      PP29114   7.561   9.709   9.308
19011PP      PP29115  13.556   0.913  13.391
19012PP      PP29116  12.143   9.864  10.519
19013PP      PP29117   6.407  13.668   3.634
19014PP      PP29118  12.405  13.439   0.053
19015PP      PP29119   0.734  10.113  10.927
19016PP      PP29120  13.169  15.026  11.404
19017PP      PP29121  11.945  13.591  13.247
19018PP      PP29122   1.550   7.429   9.660
19019PP      PP29123  15.782   5.161  12.734
19020PP      PP29124  12.486  13.624   4.043
19021PP      PP29125  13.849   3.790   8.464
19022PP      PP29126   1.778   2.289  12.884
19023PP      PP29127   5.621   7.779  10.578
19024PP      PP29128   9.879   4.396  12.011
19025PP      PP29129   1.777   4.785   9.504
19026PP      PP29130   6.044  11.989   0.627
19027PP      PP29131  13.395   8.758   8.670
19028PP      PP29132   5.068   4.647  12.666
19029PP      PP29133   8.673   0.142  10.552
19030PP      PP29134   1.148   2.083   0.218
19031PP      PP29135   1.661   3.400   0.181
19032PP      PP29136   8.407  11.690   4.405
19033PP      PP29137  12.060   7.812   0.852
19034PP      PP29138   3.893  13.192   8.265
19035PP      PP29139   9.192   0.503   4.440
19036PP      PP29140  10.076   4.845   2.255
19037PP      PP29141   4.532  15.178   3.107
19038PP      PP29142   6.167  15.539   3.710
19039PP      PP29143  14.163   3.678   2.156
19040PP      PP29144   6.419   9.744  12.532
19041PP      PP29145   3.361   8.137   9.884
19042PP      PP29146   8.992   1.062   0.868
19043PP      PP29147   0.605  11.467  10.093
19044PP      PP29148  15.460  15.400   1.220
19045PP      PP29149   6.031   0.863   3.435
19046PP      PP29150  10.725   1.070   0.339
19047PP      PP29151   8.447   3.718  11.178
19048PP      PP29152   3.752   7.756   2.701
19049PP      PP29153  13.189  10.794  12.860
19050PP      PP29154  14.418   2.659  13.208
19051PP      PP29155  14.111  11.675  10.352
19052PP      PP29156  11.204   7.474  13.315
19053PP      PP29157   8.653   5.138   0.443
19054PP      PP29158   1.520   3.287   4.216
19055PP      PP29159   9.514  12.679   1.985
19056PP      PP29160  14.532   4.938  12.549
19057PP      PP29161   8.340   5.438  10.230
19058PP      PP29162   0.661   4.842   3.518
19059PP      PP29163   5.399   6.397   2.809
19060PP      PP29164  10.318   6.967  12.086
19061PP      PP29165   1.954  14.837   3.601
19062PP      PP29166   0.957   5.619   9.617
19063PP      PP29167   6.123  11.310  13.068
19064PP      PP29168   8.184  15.290   4.818
19065PP      PP29169  13.751   7.507   1.841
19066PP      PP29170   7.482   8.123   3.729
19067PP      PP29171  10.401  10.060   3.305
19068PP      PP29172  13.403  10.528  11.469
19069PP      PP29173   2.532   5.473   9.497
19070PP      PP29174   9.062  10.198   1.010
19071PP      PP29175   1.665   2.697   2.495
19072PP      PP29176   6.094   9.176  10.668
19073PP      PP29177   2.893  14.828  12.532
19074PP      PP29178  12.266   0.625   0.884
19075PP      PP29179  12.764  11.364   2.144
19076PP      PP29180   6.128   6.386  11.032
19077PP      PP29181  14.826   0.568   2.324
19078PP      PP29182   2.783   9.124   9.001
19079PP      PP29183  11.705  14.465  11.181
19080PP      PP29184  12.505  15.732   9.958
19081PP      PP29185   3.446  15.615   0.425
19082PP      PP29186   1.969   7.262   3.773
19083PP      PP29187  14.646  12.948  12.864
19084PP      PP29188   3.228  12.816  11.225
19085PP      PP29189   9.862  14.279   2.005
19086PP      PP29190   5.490   4.259  10.894
19087PP      PP29191  14.553   1.991   9.379
19088PP      PP29192  10.722  13.143  10.941
19089PP      PP29193  15.224  14.088  11.084
19090PP      PP29194   5.218  14.363   3.279
19091PP      PP29195  13.208  13.381  10.755
19092PP      PP29196   0.688   6.504   0.717
19093PP      PP29197  15.385   3.383   3.968
19094PP      PP29198  10.275   6.653  12.992
19095PP      PP29199  11.691   3.698   1.556
19096PP      PP29200   0.543  13.970   3.368
19097PP      PP29201   4.295   2.724  11.279
19098PP      PP29202  10.387   5.583   2.667
19099PP      PP29203   7.872   3.151   1.767
19100PP      PP29204   6.030   5.610  12.121
19101PP      PP29205  15.451   3.714   4.374
19102PP      PP29206  15.612   8.085   1.313
19103PP      PP29207   8.477  10.663  10.379
19104PP      PP29208  15.197  13.374  11.659
19105PP      PP29209  15.649  14.974   2.634
19106PP      PP29210  10.400  13.334  12.508
19107PP      PP29211  14.706   1.459  12.950
19108PP      PP29212  13.104   1.820  11.077
19109PP      PP29213   8.069  10.648   3.398
19110PP      PP29214   0.120  14.304  10.283
19111PP      PP29215   3.684   7.163   9.674
19112PP      PP29216  11.157   7.898   0.757
19113PP      PP29217  12.647  12.820  13.024
19114PP      PP29218  12.581   9.964  11.356
19115PP      PP29219  11.246  15.139   0.020
19116PP      PP29220  11.232   8.505   3.756
19117PP      PP29221   1.077  11.713   2.258
19118PP      PP29222   1.056   2.839  12.221
19119PP      PP29223   1.581   6.489  10.675
19120PP      PP29224   7.593  13.015   4.463
19121PP      PP29225   3.903   7.260   2.656
19122PP      PP29226   3.265  12.441   2.331
19123PP      PP29227   7.411   8.608  10.018
19124PP      PP29228   9.849   8.835   9.397
19125PP      PP29229   9.221   1.796   2.437
19126PP      PP29230  12.132   4.430   1.873
19127PP      PP29231  11.397   9.227  12.205
19128PP      PP29232  10.171   2.876   1.996
19129PP      PP29233  15.452   6.021  13.162
19130PP      PP29234  14.546  15.690  12.151
19131PP      PP29235   1.249  15.159   9.102
19132PP      PP29236  12.081   2.736   1.368
19133PP      PP29237   1.288   3.702   9.949
19134PP      PP29238  15.143   9.105   9.127
19135PP      PP29239   3.036   5.279   1.260
19136PP      PP29240  11.856   2.227   2.702
19137PP      PP29241  13.714   5.065  11.025
19138PP      PP29242  10.516   1.020   3.039
19139PP      PP29243   6.555   9.448   2.241
19140PP      PP29244   4.670   7.646   2.162
19141PP      PP29245   8.169   8.997   2.773
19142PP      PP29246  11.469   4.277   3.404
19143PP      PP29247  14.392   2.811   2.565
19144PP      PP29248  14.468   0.100  11.014
19145PP      PP29249   2.450   6.157  12.680
19146PP      PP29250   1.279   8.278   0.127
19147PP      PP29251   4.895  10.739   8.734
19148PP      PP29252  15.602  13.388  13.451
19149PP      PP29253   6.400  10.029   3.140
19150PP      PP29254   8.255  11.055   0.585
19151PP      PP29255   1.911  13.235  13.264
19152PP      PP29256   8.745   3.705  10.285
19153PP      PP29257  15.804   9.518   8.455
19154PP      PP29258   0.095   7.486  13.076
19155PP      PP29259   6.024  15.599   0.447
19156PP      PP29260  13.904   9.686  11.650
19157PP      PP29261   1.156   1.236   3.772
19158PP      PP29262   0.890   1.004  11.008
19159PP      PP29263   4.524  13.464  12.325
19160PP      PP29264   6.646  13.209  11.227
19161PP      PP29265   4.425   3.479   3.308
19162PP      PP29266  14.625  15.749   3.184
19163PP      PP29267   1.031  11.205   4.630
19164PP      PP29268   6.383   1.093  12.579
19165PP      PP29269   1.831  14.357   0.177
19166PP      PP29270   6.031   8.625   2.580
19167PP      PP29271   4.482  14.820  12.778
19168PP      PP29272  10.219   1.545   2.540
19169PP      PP29273  12.007   6.646   2.135
19170PP      PP29274  11.494   2.396   9.893
19171PP      PP29275  12.699   1.149   2.336
19172PP      PP29276   9.127   9.405   0.618
19173PP      PP29277  13.230   3.122   8.218
19174PP      PP29278  15.112  12.916   9.228
19175PP      PP29279   6.889   0.262  10.227
19176PP      PP29280   7.567  14.570   0.021
19177PP      PP29281   5.303  14.795  12.014
19178PP      PP29282   9.067   6.068   3.625
19179PP      PP29283  15.365   1.498   4.185
19180PP      PP29284   2.960  10.412   0.830
19181PP      PP29285   0.608  14.944   9.839
19182PP      PP29286   2.741   9.968   0.449
19183PP      PP29287   4.994   7.501   8.744
19184PP      PP29288  11.094   2.184  12.096
19185PP      PP29289  15.083   6.433   1.194
19186PP      PP29290   9.628   9.829  10.927
19187PP      PP29291   7.336   9.979   3.418
19188PP      PP29292   6.219   8.543  12.502
19189PP      PP29293   4.781   7.720   9.167
19190PP      PP29294   4.727  14.663   9.446
19191PP      PP29295   7.432   4.594  12.476
19192PP      PP29296  12.341   3.311  12.349
19193PP      PP29297   8.466   8.957  11.108
19194PP      PP29298   4.596   1.620  13.481
19195PP      PP29299   7.742  14.738   3.809
19196PP      PP29300   1.649   1.789  12.717
19197PP      PP29301  12.850   2.512   4.128
19198PP      PP29302   5.248   1.394   3.691
19199PP      PP29303   1.881   7.736  10.925
19200PP      PP29304   0.657  11.138   0.144
19201PP      PP29305  14.557  13.005  12.344
19202PP      PP29306  15.199  14.745   0.788
19203PP      PP29307   2.467  11.531  13.326
19204PP      PP29308  13.610   7.244   9.156
19205PP      PP29309  11.021   9.271   2.932
19206PP      PP29310  13.949   5.434  10.168
19207PP      PP29311  13.272  14.538   0.949
19208PP      PP29312   7.855   8.832  10.205
19209PP      PP29313  14.065  14.643  12.393
19210PP      PP29314   1.463  15.659   9.266
19211PP      PP29315   7.865   6.045   9.052
19212PP      PP29316  13.743   2.619  12.222
19213PP      PP29317   9.834   1.405   0.732
19214PP      PP29318  12.801   6.076  13.349
19215PP      PP29319   0.505   1.571   1.195
19216PP      PP29320   2.086   7.365   8.253
19217PP      PP29321   5.563   7.867  12.912
19218PP      PP29322  11.027   2.606   9.870
19219PP      PP29323  15.172   3.471   3.489
19220PP      PP29324   8.582   4.024   4.541
19221PP      PP29325   0.399   2.413  12.341
19222PP      PP29326  13.293   3.659  12.518
19223PP      PP29327  13.148  15.434  10.752
19224PP      PP29328   4.846  11.688   1.413
19225PP      PP29329   1.540  15.088  10.110
19226PP      PP29330  13.154  12.414   0.699
19227PP      PP29331  11.622   9.371  11.185
19228PP      PP29332  10.652   8.496   8.779
19229PP      PP29333   6.775   5.837   0.817
19230PP      PP29334   7.051  10.777   2.401
19231PP      PP29335   8.277   6.539   4.299
19232PP      PP29336  11.733   3.177  10.480
19233PP      PP29337  13.439  13.262  12.358
19234PP      PP29338   7.594   6.412   1.279
19235PP      PP29339   8.885  12.160  10.260
19236PP      PP29340   9.451   4.597  12.275
19237PP      PP29341   0.800  10.784   3.338
19238PP      PP29342  11.969   8.408   1.260
19239PP      PP29343   1.517  13.681   4.106
19240PP      PP29344   0.055   6.277   2.516
19241PP      PP29345   2.226   8.814   1.179
19242PP      PP29346   0.686   9.349   2.242
19243PP      PP29347  10.565   6.041   9.400
19244PP      PP29348   4.527   0.809  10.684
19245PP      PP29349   7.816   6.386  13.594
19246PP      PP29350  10.730   6.302  12.961
19247PP      PP29351   5.336   7.677  13.347
19248PP      PP29352  10.627   9.949   9.280
19249PP      PP29353  10.406   3.196   2.345
19250PP      PP29354   7.044   1.069  11.384
19251PP      PP29355  12.902   6.427   9.848
19252PP      PP29356   3.360  13.744   0.579
19253PP      PP29357  13.451  12.891  10.810
19254PP      PP29358  11.168  14.744  13.259
19255PP      PP29359  12.111   8.061   2.211
19256PP      PP29360   6.976   9.777   1.671
19257PP      PP29361  13.131  10.268  12.844
19258PP      PP29362   6.459   5.549  10.497
19259PP      PP29363   4.027   7.540   9.624
19260PP      PP29364   4.976   6.555   9.896
19261PP      PP29365   7.597  12.209   9.669
19262PP      PP29366   2.386   1.961  11.789
19263PP      PP29367   5.925   0.132  10.993
19264PP      PP29368   4.226  12.765   3.748
19265PP      PP29369   1.998   9.057  11.756
19266PP      PP29370  11.007   7.009  13.408
19267PP      PP29371   4.350   8.928  10.810
19268PP      PP29372   4.558  13.972   2.561
19269PP      PP29373   2.947   7.838  10.262
19270PP      PP29374   3.991   5.848   2.381
19271PP      PP29375   8.809   1.236  12.711
19272PP      PP29376  14.384  14.989   9.818
19273PP      PP29377   5.564  13.021   3.461
19274PP      PP29378   6.133  10.363   2.830
19275PP      PP29379  11.200   0.825  11.307
19276PP      PP29380  14.821   5.820   3.032
19277PP      PP29381  13.409   1.494   1.916
19278PP      PP29382   9.512  10.080   1.196
19279PP      PP29383  15.148   5.145   4.008
19280PP      PP29384   1.185   2.062   3.505
19281PP      PP29385   8.876  10.737  12.114
19282PP      PP29386   6.819   6.351   0.913
19283PP      PP29387   6.732   6.523   8.509
19284PP      PP29388   3.894   0.764   2.999
19285PP      PP29389   3.301   5.094   9.880
19286PP      PP29390   3.482   8.824  11.883
19287PP      PP29391   3.806   3.543   1.939
19288PP      PP29392  13.202  15.682   1.438
19289PP      PP29393   8.556   4.435   9.945
19290PP      PP29394  12.437  12.967  12.573
19291PP      PP29395  11.854   6.865  10.958
19292PP      PP29396   0.786   9.026   1.418
19293PP      PP29397   4.378   3.509   8.787
19294PP      PP29398   8.754  15.492  11.349
19295PP      PP29399  12.041  11.220  12.820
19296PP      PP29400   8.433  13.753   2.619
19297PP      PP29401  12.486  12.324  13.112
19298PP      PP29402   8.583   2.372   1.000
19299PP      PP29403   0.599   8.176   3.687
19300PP      PP29404  15.073  10.217   8.225
19301PP      PP29405  12.787   0.431   2.983
19302PP      PP29406   8.186  14.783   2.431
19303PP      PP29407  13.497   4.450   1.896
19304PP      PP29408   3.872  12.536  10.442
19305PP      PP29409   5.917   0.508  11.587
19306PP      PP29410  13.340   8.629  13.555
19307PP      PP29411   8.219   1.566  11.095
19308PP      PP29412   6.906   3.642   3.337
19309PP      PP29413  14.351  14.159   4.607
19310PP      PP29414  15.765  10.021   1.966
19311PP      PP29415   9.234   2.288   2.920
19312PP      PP29416   6.228  12.004   2.615
19313PP      PP29417   5.642  10.362   1.752
19314PP      PP29418   3.317   7.520  11.478
19315PP      PP29419   5.362   8.516   3.269
19316PP      PP29420   4.348   7.636   1.282
19317PP      PP29421   3.978   0.054   4.678
19318PP      PP29422  15.118   8.599   2.878
19319PP      PP29423   6.385   4.725  11.014
19320PP      PP29424   9.794   8.841  11.021
19321PP      PP29425   0.864   1.802   9.778
19322PP      PP29426   0.366  13.699   4.685
19323PP      PP29427   4.579   2.104  12.692
19324PP      PP29428   8.223   1.329   9.079
19325PP      PP29429  10.612  14.084  13.596
19326PP      PP29430   1.213  13.014  11.873
19327PP      PP29431   1.673   4.035   1.927
19328PP      PP29432   2.537  10.590  10.692
19329PP      PP29433   2.457   0.839   1.426
19330PP      PP29434  15.371  15.280  12.323
19331PP      PP29435   0.056   8.495   1.916
19332PP      PP29436   8.860   3.789  10.815
19333PP      PP29437  11.765  10.020   9.712
19334PP      PP29438   2.846   6.054  11.841
19335PP      PP29439   6.703  10.789   1.159
19336PP      PP29440   4.836  14.762  10.652
19337PP      PP29441  14.209   6.638   2.940
19338PP      PP29442   3.209  12.880   8.269
19339PP      PP29443   2.695   6.937  12.276
19340PP      PP29444  13.253   3.799  11.291
19341PP      PP29445  11.391   8.495   3.267
19342PP      PP29446  13.265   7.518  12.173
19343PP      PP29447  13.708  11.986  10.457
19344PP      PP29448  10.387   7.084  13.328
19345PP      PP29449  12.995   8.415   9.582
19346PP      PP29450   8.550   4.455   1.048
19347PP      PP29451   2.066   1.736  12.183
19348PP      PP29452   7.250   6.270   3.192
19349PP      PP29453   4.644  15.038   0.920
19350PP      PP29454   6.812  14.706   2.876
19351PP      PP29455   4.615   2.858   4.496
19352PP      PP29456   5.097   4.303   3.050
19353PP      PP29457  14.287  10.793  10.655
19354PP      PP29458   4.792   7.960   2.558
19355PP      PP29459  13.803  10.625  10.646
19356PP      PP29460  12.323  12.360  11.803
19357PP      PP29461   9.176  10.369   1.492
19358PP      PP29462   6.308   6.684   9.756
19359PP      PP29463   2.418   4.756   2.892
19360PP      PP29464   9.914  11.874   3.064
19361PP      PP29465   5.807   2.265   5.041
19362PP      PP29466   2.858  10.239   3.739
19363PP      PP29467   8.498   4.888  12.479
19364PP      PP29468   6.391   9.686   0.765
19365PP      PP29469   8.516  14.865  12.153
19366PP      PP29470   4.672  13.675   3.888
19367PP      PP29471   8.434   9.629   1.974
19368PP      PP29472   1.615   4.471  11.417
19369PP      PP29473  13.326   0.264  11.543
19370PP      PP29474  14.894  11.532   9.659
19371PP      PP29475   7.003   3.222  12.334
19372PP      PP29476   3.379   4.937  13.016
19373PP      PP29477  15.574  14.312   3.268
19374PP      PP29478   4.875   6.474   9.372
19375PP      PP29479   1.280   0.068   2.132
19376PP      PP29480   4.929   1.011   4.345
19377PP      PP29481  13.235   1.335  12.647
19378PP      PP29482  14.731   4.446  10.857
19379PP      PP29483   4.448   3.114  11.593
19380PP      PP29484   5.321   8.042  11.669
19381PP      PP29485  10.155  10.479   1.779
19382PP      PP29486  11.794   2.536   8.726
19383PP      PP29487   5.605  14.134  10.461
19384PP      PP29488   1.526  12.687  11.517
19385PP      PP29489  11.745  10.580   9.331
19386PP      PP29490   2.541   9.083  10.302
19387PP      PP29491   0.682   1.215   0.136
19388PP      PP29492   1.718   1.325  13.563
19389PP      PP29493   8.714   8.863  10.598
19390PP      PP29494   7.659   0.540   0.009
19391PP      PP29495  13.179   1.545   9.401
19392PP      PP29496   5.253  13.865  10.200
19393PP      PP29497   6.609   0.497   9.611
19394PP      PP29498   7.472   4.202   2.860
19395PP      PP29499   9.019  10.184  13.584
19396PP      PP29500   9.020   4.989   8.735
19397PP      PP29501   0.978  10.749   0.301
19398PP      PP29502  11.348   3.240   0.616
19399PP      PP29503  13.860  11.514  13.263
19400PP      PP29504   8.065  11.639   1.192
19401PP      PP29505   9.977   6.533   0.529
19402PP      PP29506   9.955   8.978  10.537
19403PP      PP29507  11.443   2.930   9.967
19404PP      PP29508  12.888   6.748   4.207
19405PP      PP29509   4.016  15.542   1.396
19406PP      PP29510   2.148  15.772   1.810
19407PP      PP29511   4.927  10.052   9.490
19408PP      PP29512  15.812   4.958  13.237
19409PP      PP29513   3.935  14.437  11.185
19410PP      PP29514   2.035  10.462  10.784
19411PP      PP29515  13.088   4.818   1.602
19412PP      PP29516   5.738   6.857  12.249
19413PP      PP29517  10.991   6.415   0.609
19414PP      PP29518  10.129  13.038   5.146
19415PP      PP29519   2.565   1.140  11.519
19416PP      PP29520   3.989   5.596  13.280
19417PP      PP29521  12.530  10.437  11.147
19418PP      PP29522   0.161  15.416  13.436
19419PP      PP29523   0.913   1.099  12.816
19420PP      PP29524  12.065   1.207   1.746
19421PP      PP29525   5.912  11.119   1.160
19422PP      PP29526   5.383   0.746   4.338
19423PP      PP29527   1.108   6.723  11.493
19424PP      PP29528   2.143   3.663   1.423
19425PP      PP29529   1.619   8.733   9.957
19426PP      PP29530   1.523  12.294   0.366
19427PP      PP29531  13.597   2.694   8.986
19428PP      PP29532  14.750   6.767   0.619
19429PP      PP29533  14.014   5.347   8.756
19430PP      PP29534  11.508   6.413   8.544
19431PP      PP29535  11.312   6.106  13.315
19432PP      PP29536   6.294   3.651   4.021
19433PP      PP29537   2.715  12.412   3.474
19434PP      PP29538   7.444  14.469  10.618
19435PP      PP29539   6.377   4.373   1.403
19436PP      PP29540   3.059   9.565  11.137
19437PP      PP29541   4.187   8.180  11.406
19438PP      PP29542  10.107   0.445  13.481
19439PP      PP29543  12.368   0.235  10.694
19440PP      PP29544   8.069   6.971   3.948
19441PP      PP29545   3.383   5.973  11.253
19442PP      PP29546   2.970  12.198  10.313
19443PP      PP29547  14.765  15.432   4.657
19444PP      PP29548  13.972  12.041  13.150
19445PP      PP29549   8.247   2.081   9.710
19446PP      PP29550   0.897   1.135   4.608
19447PP      PP29551  15.555  10.364  13.037
19448PP      PP29552   6.620   7.926  10.416
19449PP      PP29553   8.859   8.932  11.503
19450PP      PP29554   5.797   0.359  12.754
19451PP      PP29555  15.257   6.537   9.132
19452PP      PP29556  11.998   4.108   1.468
19453PP      PP29557   1.595   1.341  12.462
19454PP      PP29558   6.993   1.883   1.233
19455PP      PP29559   5.368   5.560   4.252
19456PP      PP29560   3.867   9.648   8.994
19457PP      PP29561   3.973  13.457   2.298
19458PP      PP29562   6.865  12.632  13.463
19459PP      PP29563  12.761   8.547   0.994
19460PP      PP29564   1.987   3.072   1.576
19461PP      PP29565  13.821  15.533  12.805
19462PP      PP29566   9.232   0.259   2.160
19463PP      PP29567   6.063   2.561   9.972
19464PP      PP29568   2.198   8.564  13.491
19465PP      PP29569  13.734   1.092   3.833
19466PP      PP29570  13.641   4.832  11.497
19467PP      PP29571   9.824   9.859   0.852
19468PP      PP29572  14.493  12.196  13.151
19469PP      PP29573  14.446   6.345  12.391
19470PP      PP29574   5.780   9.685  10.469
19471PP      PP29575   9.375  14.180   0.722
19472PP      PP29576   1.823   4.512  11.920
19473PP      PP29577   7.253   0.070   1.465
19474PP      PP29578   7.471  15.157   3.929
19475PP      PP29579   9.482   1.322   1.098
19476PP      PP29580   6.447  12.874   9.935
19477PP      PP29581  11.685   8.279   3.665
19478PP      PP29582   5.909  11.005  10.455
19479PP      PP29583   3.888  12.183  12.109
19480PP      PP29584  10.073  13.019   0.847
19481PP      PP29585  14.553   1.324   0.695
19482PP      PP29586  13.838  13.507  11.910
19483PP      PP29587   9.512   6.806  10.127
19484PP      PP29588   9.034   0.279  11.703
19485PP      PP29589   5.999   4.321   3.443
19486PP      PP29590   5.618   2.659  12.519
19487PP      PP29591   7.267   8.877   4.345
19488PP      PP29592  12.625  13.247  11.466
19489PP      PP29593   2.266   6.517   2.639
19490PP      PP29594   9.090   3.787   3.482
19491PP      PP29595   2.947  15.656  13.288
19492PP      PP29596   9.232   2.395  10.533
19493PP      PP29597   1.661   7.713   9.145
19494PP      PP29598   2.761   6.925   1.363
19495PP      PP29599  10.285  15.049   2.138
19496PP      PP29600   2.919   0.606   0.297
19497PP      PP29601  14.761  10.023  11.641
19498PP      PP29602   4.010   3.823   0.684
19499PP      PP29603   1.131   6.158   9.474
19500PP      PP29604   0.909   7.563   2.983
19501PP      PP29605   3.002   4.565  10.464
19502PP      PP29606   9.485   5.673  10.905
19503PP      PP29607   3.309   2.205  11.390
19504PP      PP29608   0.247   3.955   1.978
19505PP      PP29609  13.542   2.701  12.701
19506PP      PP29610  12.778   9.149   8.636
19507PP      PP29611   5.655   6.689  10.897
19508PP      PP29612   3.284   8.521  10.444
19509PP      PP29613  15.750   4.930  10.443
19510PP      PP29614   3.269  10.150   0.537
19511PP      PP29615  15.491  15.176  13.450
19512PP      PP29616   1.443   9.076  10.778
19513PP      PP29617  13.409  12.937   4.867
19514PP      PP29618  14.805  13.262  11.961
19515PP      PP29619   1.299   5.350  10.839
19516PP      PP29620  12.079   4.309  12.015
19517PP      PP29621  14.750   5.916  13.293
19518PP      PP29622  13.391   1.462   3.170
19519PP      PP29623  13.905  13.013  10.567
19520PP      PP29624   2.242   2.957   9.451
19521PP      PP29625   3.343   0.911   1.051
19522PP      PP29626   7.468   0.918   1.823
19523PP      PP29627   4.499   1.975   1.785
19524PP      PP29628   2.908   0.662   1.198
19525PP      PP29629   1.970   4.927   2.041
19526PP      PP29630  13.435   2.915   0.748
19527PP      PP29631   9.906  13.046  10.421
19528PP      PP29632   5.634   2.813   1.213
19529PP      PP29633   7.341   3.299   3.412
19530PP      PP29634   4.295  15.244   1.864
19531PP      PP29635   9.693   3.882   9.719
19532PP      PP29636  11.776   3.558   0.542
19533PP      PP29637   0.804  10.339  13.186
19534PP      PP29638  11.874   7.953  11.693
19535PP      PP29639   3.883   9.155  10.671
19536PP      PP29640  11.277   9.019  10.990
19537PP      PP29641   7.186   0.553   4.978
19538PP      PP29642   9.062  10.190   2.024
19539PP      PP29643   8.979  13.904  12.302
19540PP      PP29644  14.077   8.069  13.240
19541PP      PP29645   4.390  14.647   0.654
19542PP      PP29646   9.485   0.250   2.634
19543PP      PP29647   7.519   4.038  10.744
19544PP      PP29648  12.030   8.300   0.658
19545PP      PP29649   0.751   0.933   3.052
19546PP      PP29650   6.758   1.169  10.355
19547PP      PP29651   1.906   8.177   0.680
19548PP      PP29652   8.098   2.594   9.858
19549PP      PP29653   0.487   8.920  12.981
19550PP      PP29654   5.715   3.019   4.573
19551PP      PP29655   2.549   3.767   1.057
19552PP      PP29656   6.093  13.785  10.570
19553PP      PP29657   3.919   6.462  12.651
19554PP      PP29658   2.801  11.382  11.839
19555PP      PP29659   7.519   7.258   9.286
19556PP      PP29660   3.398   0.338   0.306
19557PP      PP29661  12.973   4.839   0.724
19558PP      PP29662  13.876   7.135  10.522
19559PP      PP29663   8.293   1.360   9.959
19560PP      PP29664   1.265   5.817   1.293
19561PP      PP29665   9.486   4.874   9.614
19562PP      PP29666   8.083   6.939   9.658
19563PP      PP29667  15.634  11.479   1.113
19564PP      PP29668  15.340   8.657   9.284
19565PP      PP29669   5.990  13.461   9.039
19566PP      PP29670   5.078  14.485   1.950
19567PP      PP29671   8.437  14.044   3.070
19568PP      PP29672   3.870   1.641   3.943
19569PP      PP29673   7.576  12.524   4.637
19570PP      PP29674   9.248   0.175  12.532
19571PP      PP29675   8.793   5.618   8.270
19572PP      PP29676   6.290   2.263  10.407
19573PP      PP29677   0.657  14.316   3.754
19574PP      PP29678   6.259  11.571   3.378
19575PP      PP29679   4.830  11.903  12.922
19576PP      PP29680  15.509   5.388  13.105
19577PP      PP29681   9.374   4.766  10.126
19578PP      PP29682  13.451   2.261   0.053
19579PP      PP29683   6.381   8.221   8.867
19580PP      PP29684  12.705   9.520   2.313
19581PP      PP29685   1.997  15.193   2.053
19582PP      PP29686  13.109   4.973  10.039
19583PP      PP29687   5.182   8.706  12.443
19584PP      PP29688  13.934   2.850   2.810
19585PP      PP29689  13.677   5.393   4.782
19586PP      PP29690  10.498   6.599   0.594
19587PP      PP29691   2.551  13.465  11.489
19588PP      PP29692   3.147   1.402   1.955
19589PP      PP29693   1.903  11.131  11.831
19590PP      PP29694   5.518  10.954   2.382
19591PP      PP29695  14.101   6.111  11.249
19592PP      PP29696   2.626  14.433   4.243
19593PP      PP29697  15.785   3.501  12.443
19594PP      PP29698   1.424   3.185  10.899
19595PP      PP29699  15.726   5.821   8.947
19596PP      PP29700  11.943  10.463  13.518
19597PP      PP29701   1.901  13.653  10.610
19598PP      PP29702   9.833   6.640   4.004
19599PP      PP29703  13.699  14.093   1.023
19600PP      PP29704   8.487   6.314  12.464
19601PP      PP29705  12.449   2.204   4.067
19602PP      PP29706   4.693  14.345  12.875
19603PP      PP29707  13.926   4.694   8.360
19604PP      PP29708  15.053   1.709   8.607
19605PP      PP29709   4.039   9.452  12.017
19606PP      PP29710   6.523  11.053   2.954
19607PP      PP29711   9.506  11.786   2.402
19608PP      PP29712  11.393   7.474   0.580
19609PP      PP29713   1.643  12.805   0.995
19610PP      PP29714   4.964   1.904   0.192
19611PP      PP29715  10.128   6.670   3.574
19612PP      PP29716   6.937   5.384   1.770
19613PP      PP29717   6.705  14.962   3.551
19614PP      PP29718   5.755   0.141  11.905
19615PP      PP29719   5.636   3.115  11.203
19616PP      PP29720  13.557   6.455   0.991
19617PP      PP29721   2.993   6.607  10.237
19618PP      PP29722   1.550   9.386   0.086
19619PP      PP29723   3.059  14.465  11.235
19620PP      PP29724   7.060   6.929   9.324
19621PP      PP29725   6.971   8.003   2.114
19622PP      PP29726  15.350  14.229   0.873
19623PP      PP29727   0.918   8.530  11.294
19624PP      PP29728   3.959  15.010   3.940
19625PP      PP29729   2.156   3.058   4.406
19626PP      PP29730  14.498   5.269  12.135
19627PP      PP29731  11.891  14.541   2.264
19628PP      PP29732   5.838   7.965  11.693
19629PP      PP29733  10.884   3.747   9.408
19630PP      PP29734   5.048  11.428   8.146
19631PP      PP29735   3.481   5.091  12.494
19632PP      PP29736  10.317  10.400  10.729
19633PP      PP29737   4.685   0.224   1.784
19634PP      PP29738   4.327   7.150  10.462
19635PP      PP29739   8.505   0.603   2.600
19636PP      PP29740   2.231   6.025   0.194
19637PP      PP29741   3.110  15.324  12.446
19638PP      PP29742  10.484   7.802   3.789
19639PP      PP29743  15.824  10.741   9.055
19640PP      PP29744   2.614  11.618   9.829
19641PP      PP29745  13.619   1.722  10.214
19642PP      PP29746   5.081   0.547   3.461
19643PP      PP29747  12.003   2.495  11.754
19644PP      PP29748   2.093   1.052  11.014
19645PP      PP29749   1.395  15.782  13.151
19646PP      PP29750   2.740  15.188   9.429
19647PP      PP29751  12.072   0.141   1.851
19648PP      PP29752   7.130  14.806   2.392
19649PP      PP29753   1.287   3.757   0.041
19650PP      PP29754   4.440   8.733  12.794
19651PP      PP29755  12.958   4.941   9.506
19652PP      PP29756   8.070   5.383  11.124
19653PP      PP29757   0.086  12.519   1.879
19654PP      PP29758   8.112   7.123   1.659
19655PP      PP29759   9.079   1.435   9.528
19656PP      PP29760  13.846  14.508  11.838
19657PP      PP29761   0.925   1.316  13.298
19658PP      PP29762  10.632   7.870  10.351
19659PP      PP29763  13.135   6.796   9.415
19660PP      PP29764   2.150   6.193  11.251
19661PP      PP29765   2.972  10.863  10.713
19662PP      PP29766   4.713   2.431  11.537
19663PP      PP29767   9.007  13.103   1.030
19664PP      PP29768   6.257   1.985   9.971
19665PP      PP29769   9.929  13.167  12.598
19666PP      PP29770   6.822   1.759   9.111
19667PP      PP29771   2.064   4.265   0.028
19668PP      PP29772  10.935   3.205  10.844
19669PP      PP29773  12.097  12.367   3.221
19670PP      PP29774  11.467   0.317   2.515
19671PP      PP29775   2.542  13.944   9.968
19672PP      PP29776  12.946   3.069   2.546
19673PP      PP29777  10.345   4.487   2.557
19674PP      PP29778  10.114  14.499  11.799
19675PP      PP29779   0.670   6.759  10.228
19676PP      PP29780   9.728   5.633   8.776
19677PP      PP29781   3.204   3.782  10.000
19678PP      PP29782   0.394  12.077   3.143
19679PP      PP29783   0.969   9.997  12.796
19680PP      PP29784  11.704   8.648   0.879
19681PP      PP29785  12.174  10.847   0.827
19682PP      PP29786  11.106   2.504  13.050
19683PP      PP29787   5.658  14.590  10.113
19684PP      PP29788   9.942   3.755   4.609
19685PP      PP29789   3.214  13.305   0.321
19686PP      PP29790   8.605   0.316   9.803
19687PP      PP29791   2.105  10.322  11.563
19688PP      PP29792   8.807   3.956   1.794
19689PP      PP29793  14.061   8.402   8.786
19690PP      PP29794   6.329   9.565   8.777
19691PP      PP29795   6.628   5.087  10.716
19692PP      PP29796   6.608  11.580  12.952
19693PP      PP29797  15.503   8.536   1.525
19694PP      PP29798   1.374   4.883   4.043
19695PP      PP29799   7.255   7.928   3.228
19696PP      PP29800   1.817   4.117   3.357
19697PP      PP29801   7.662   5.632  10.835
19698PP      PP29802   3.665   7.249   8.650
19699PP      PP29803  12.892   4.262   3.171
19700PP      PP29804   6.871   7.498  12.847
19701PP      PP29805   9.026  11.459  11.355
19702PP      PP29806   3.630   9.953   9.357
19703PP      PP29807   2.029  11.630   4.814
19704PP      PP29808   2.025   2.016   1.936
19705PP      PP29809  13.080   5.361   9.034
19706PP      PP29810  11.986   0.490  10.312
19707PP      PP29811  15.064   0.399  10.326
19708PP      PP29812   5.655   2.325   1.410
19709PP      PP29813  10.528   1.793  10.124
19710PP      PP29814  10.562  13.090   4.294
19711PP      PP29815   5.694  15.573  13.152
19712PP      PP29816   0.455  15.798   1.848
19713PP      PP29817   9.878   0.945   0.990
19714PP      PP29818   2.650   9.596  11.503
19715PP      PP29819   7.672   5.193   8.770
19716PP      PP29820   0.147   6.889  12.781
19717PP      PP29821   8.968  14.100  10.031
19718PP      PP29822   1.263  14.879   9.699
19719PP      PP29823   8.538   2.527   9.582
19720PP      PP29824   4.977   0.610   4.676
19721PP      PP29825   6.326  11.692   8.991
19722PP      PP29826  14.481   8.103   8.766
19723PP      PP29827  14.873   4.885  12.143
19724PP      PP29828   0.458   4.396  12.672
19725PP      PP29829   4.153   8.761   8.922
19726PP      PP29830   1.844   0.496   0.293
19727PP      PP29831   8.254  12.242   1.596
19728PP      PP29832  12.119  15.630   2.405
19729PP      PP29833   4.397   7.160  12.840
19730PP      PP29834   3.175   6.209  10.521
19731PP      PP29835   6.100   0.189   3.896
19732PP      PP29836   9.238  11.943  11.199
19733PP      PP29837   6.096   4.027  13.050
19734PP      PP29838  10.982  14.661   4.142
19735PP      PP29839   5.007   3.898  11.113
19736PP      PP29840  14.177   0.547  13.243
19737PP      PP29841  12.885   2.552  11.373
19738PP      PP29842   5.459   9.387  13.576
19739PP      PP29843   5.115   7.843  10.587
19740PP      PP29844  12.500   4.341  10.415
19741PP      PP29845   7.614   4.312  12.866
19742PP      PP29846   0.339   3.648   9.755
19743PP      PP29847   8.507  12.925   4.177
19744PP      PP29848   6.968  11.959  10.490
19745PP      PP29849   1.978  12.455   3.124
19746PP      PP29850  15.804   8.080  10.075
19747PP      PP29851  10.196  12.371  13.471
19748PP      PP29852  15.495   4.244  12.706
19749PP      PP29853   8.257  12.682   5.033
19750PP      PP29854   4.036   0.970  11.508
19751PP      PP29855   0.692   3.055   9.548
19752PP      PP29856   6.097   2.464   3.773
19753PP      PP29857  15.387   5.463  12.571
19754PP      PP29858   0.229  15.068   4.428
19755PP      PP29859  14.577  11.582   2.287
19756PP      PP29860   6.159   9.982  12.134
19757PP      PP29861  10.471  11.860   4.458
19758PP      PP29862   0.167   1.386   0.125
19759PP      PP29863  15.685   6.704  12.394
19760PP      PP29864   5.816   0.647  11.098
19761PP      PP29865  10.694   3.721   9.896
19762PP      PP29866   0.288   3.545   3.404
19763PP      PP29867   7.560   7.083  11.859
19764PP      PP29868  13.743  13.353   1.848
19765PP      PP29869  14.084   2.974  11.895
19766PP      PP29870  15.685   1.386  10.127
19767PP      PP29871   7.907  13.807  13.163
19768PP      PP29872   2.882  15.340  11.566
19769PP      PP29873   8.724  12.938   3.113
19770PP      PP29874   1.247  10.645  11.510
19771PP      PP29875   1.363   2.055  13.083
19772PP      PP29876   5.082   6.912   3.372
19773PP      PP29877  13.681  14.229  11.390
19774PP      PP29878  11.330  10.576   3.267
19775PP      PP29879   6.600   3.144   1.281
19776CNL    PA129880  10.575  10.942   5.300
19776CNL    PA229881  10.735  11.139   5.473
19776CNL    PA329882  10.623  11.163   5.228
19776CNL    PA429883  10.510  11.208   5.408
19777CNL    PA129884   1.082   9.541  10.791
19777CNL    PA229885   0.838   9.610  10.607
19777CNL    PA329886   0.874   9.621  10.877
19777CNL    PA429887   0.922   9.785  10.745
19778CNL    PA129888   8.726   9.842   1.557
19778CNL    PA229889   8.637  10.029   1.787
19778CNL    PA329890   8.872   9.911   1.732
19778CNL    PA429891   8.823  10.105   1.650
19779CNL    PA129892  10.628   5.600   5.801
19779CNL    PA229893  10.517   5.565   5.515
19779CNL    PA329894  10.705   5.728   5.618
19779CNL    PA429895  10.755   5.531   5.544
19780CNL    PA129896   9.479   4.356   6.631
19780CNL    PA229897   9.208   4.392   6.483
19780CNL    PA329898   9.303   4.197   6.643
19780CNL    PA429899   9.198   4.366   6.719
19781CNL    PA129900   2.117   8.561   8.496
19781CNL    PA229901   2.183   8.694   8.222
19781CNL    PA329902   2.204   8.781   8.477
19781CNL    PA429903   2.362   8.677   8.379
19782CNL    PA129904   1.476   2.038   7.727
19782CNL    PA229905   1.697   1.842   7.628
19782CNL    PA329906   1.640   1.947   7.867
19782CNL    PA429907   1.556   1.760   7.801
19783CNL    PA129908  14.780   6.490   9.385
19783CNL    PA229909  14.577   6.321   9.551
19783CNL    PA329910  14.641   6.586   9.553
19783CNL    PA429911  14.488   6.507   9.423
19784CNL    PA129912  10.362  10.396   4.456
19784CNL    PA229913  10.575  10.619   4.485
19784CNL    PA329914  10.363  10.543   4.641
19784CNL    PA429915  10.558  10.456   4.662
19785CNL    PA129916  11.708  12.983   6.879
19785CNL    PA229917  11.693  13.285   6.954
19785CNL    PA329918  11.596  13.064   7.073
19785CNL    PA429919  11.797  13.135   7.114
19786CNL    PA129920   5.831   0.997   9.367
19786CNL    PA229921   5.844   0.959   9.058
19786CNL    PA329922   5.636   0.979   9.231
19786CNL    PA429923   5.725   1.154   9.140
19787CNL    PA129924  12.593   3.602  12.000
19787CNL    PA229925  12.800   3.552  11.774
19787CNL    PA329926  12.535   3.592  11.770
19787CNL    PA429927  12.675   3.759  11.762
19788CNL    PA129928  15.406   2.405   2.821
19788CNL    PA229929  15.324   2.115   2.899
19788CNL    PA329930  15.547   2.216   2.787
19788CNL    PA429931  15.524   2.200   3.001
19789CNL    PA129932   0.639   4.286   5.181
19789CNL    PA229933   0.552   3.987   5.182
19789CNL    PA329934   0.560   4.178   5.377
19789CNL    PA429935   0.384   4.148   5.254
19790CNL    PA129936   5.878  10.969   7.836
19790CNL    PA229937   5.905  11.107   7.559
19790CNL    PA329938   5.898  11.201   7.814
19790CNL    PA429939   6.078  11.146   7.711
19791CNL    PA129940   7.097  14.375   9.359
19791CNL    PA229941   7.270  14.122   9.411
19791CNL    PA329942   7.158  14.222   9.185
19791CNL    PA429943   7.357  14.275   9.252
19792CNL    PA129944   1.688   6.139   4.305
19792CNL    PA229945   1.803   5.862   4.380
19792CNL    PA329946   1.648   6.036   4.516
19792CNL    PA429947   1.562   5.883   4.390
19793CNL    PA129948  14.891  14.044   7.971
19793CNL    PA229949  14.604  14.167   7.949
19793CNL    PA329950  14.799  14.119   7.765
19793CNL    PA429951  14.650  13.971   7.819
19794CNL    PA129952  13.616   5.888   4.652
19794CNL    PA229953  13.836   6.014   4.469
19794CNL    PA329954  13.661   6.121   4.650
19794CNL    PA429955  13.854   6.045   4.709
19795CNL    PA129956  11.592   9.097   5.195
19795CNL    PA229957  11.413   9.279   5.015
19795CNL    PA329958  11.472   9.282   5.279
19795CNL    PA429959  11.595   9.388   5.136
19796CNL    PA129960  12.178   6.097   2.384
19796CNL    PA229961  12.070   6.236   2.641
19796CNL    PA329962  11.955   6.072   2.460
19796CNL    PA429963  12.058   5.992   2.633
19797CNL    PA129964   6.604  11.059  10.749
19797CNL    PA229965   6.437  10.928  10.526
19797CNL    PA329966   6.425  10.908  10.796
19797CNL    PA429967   6.317  11.061  10.685
19798CNL    PA129968  14.995   0.342   8.866
19798CNL    PA229969  14.761   0.156   8.786
19798CNL    PA329970  14.939   0.298   8.640
19798CNL    PA429971  14.978   0.095   8.705
19799CNL    PA129972   7.180   2.459   0.799
19799CNL    PA229973   6.988   2.587   1.005
19799CNL    PA329974   6.949   2.491   0.754
19799CNL    PA429975   6.936   2.363   0.930
19800CNL    PA129976  11.145   8.897   5.185
19800CNL    PA229977  11.045   8.681   5.380
19800CNL    PA329978  11.183   8.912   5.418
19800CNL    PA429979  10.967   8.906   5.417
19801CNL    PA129980  15.706   1.405   7.310
19801CNL    PA229981  15.510   1.223   7.470
19801CNL    PA329982  15.777   1.275   7.495
19801CNL    PA429983  15.627   1.394   7.592
19802CNL    PA129984  11.262  13.853   6.053
19802CNL    PA229985  11.153  13.699   5.810
19802CNL    PA329986  11.404  13.724   5.913
19802CNL    PA429987  11.269  13.568   5.982
19803CNL    PA129988   3.826   8.944   0.729
19803CNL    PA229989   3.615   8.792   0.557
19803CNL    PA329990   3.685   8.773   0.819
19803CNL    PA429991   3.534   8.911   0.750
19804CNL    PA129992   2.202   7.596   6.827
19804CNL    PA229993   2.233   7.875   6.691
19804CNL    PA329994   2.325   7.629   6.627
19804CNL    PA429995   2.131   7.705   6.560
19805CNL    PA129996   8.047  13.145   9.634
19805CNL    PA229997   7.910  13.152   9.355
19805CNL    PA329998   8.168  13.170   9.433
19805CNL    PA429999   8.077  12.983   9.388
19806CNL    PA130000  12.362  15.598   5.768
19806CNL    PA230001  12.501  15.628   5.491
19806CNL    PA330002  12.277  15.738   5.594
19806CNL    PA430003  12.473  15.828   5.614
19807CNL    PA130004   0.014  15.763   7.237
19807CNL    PA230005   0.078  15.596   6.989
19807CNL    PA330006  15.804  15.526   7.230
19807CNL    PA430007  15.680  15.591   7.064
19808CNL    PA130008  15.282  11.806   8.752
19808CNL    PA230009  15.332  12.100   8.835
19808CNL    PA330010  15.294  11.986   8.597
19808CNL    PA430011  15.130  12.058   8.713
19809CNL    PA130012   5.379   5.015   4.492
19809CNL    PA230013   5.615   5.216   4.475
19809CNL    PA330014   5.603   4.947   4.471
19809CNL    PA430015   5.588   5.062   4.289
19810CNL    PA130016   0.789  13.092  11.495
19810CNL    PA230017   0.572  12.874  11.558
19810CNL    PA330018   0.596  13.061  11.362
19810CNL    PA430019   0.678  12.863  11.341
19811CNL    PA130020   0.698   3.451   4.891
19811CNL    PA230021   0.486   3.366   5.106
19811CNL    PA330022   0.629   3.227   4.926
19811CNL    PA430023   0.702   3.266   5.125
19812CNL    PA130024   8.415  12.410   6.673
19812CNL    PA230025   8.321  12.115   6.666
19812CNL    PA330026   8.548  12.236   6.578
19812CNL    PA430027   8.529  12.157   6.778
19813CNL    PA130028  10.442  11.668   7.923
19813CNL    PA230029  10.388  11.961   8.003
19813CNL    PA330030  10.394  11.832   7.765
19813CNL    PA430031  10.212  11.845   7.882
19814CNL    PA130032   5.923  15.550   4.675
19814CNL    PA230033   6.115  15.794   4.702
19814CNL    PA330034   6.114  15.547   4.818
19814CNL    PA430035   6.214  15.585   4.631
19815CNL    PA130036   7.394   4.878   1.817
19815CNL    PA230037   7.434   5.187   1.816
19815CNL    PA330038   7.298   5.022   1.982
19815CNL    PA430039   7.508   5.066   2.014
19816CNL    PA130040  13.781   1.159   7.759
19816CNL    PA230041  13.998   1.380   7.739
19816CNL    PA330042  13.908   1.193   7.561
19816CNL    PA430043  13.815   1.388   7.578
19817CNL    PA130044   7.457   7.756   5.754
19817CNL    PA230045   7.349   8.045   5.774
19817CNL    PA330046   7.228   7.804   5.799
19817CNL    PA430047   7.318   7.902   5.969
19818CNL    PA130048   4.806  10.542   7.739
19818CNL    PA230049   4.885  10.741   7.966
19818CNL    PA330050   5.027  10.626   7.764
19818CNL    PA430051   4.921  10.814   7.741
19819CNL    PA130052   7.543   2.930   6.363
19819CNL    PA230053   7.419   3.017   6.632
19819CNL    PA330054   7.477   2.774   6.529
19819CNL    PA430055   7.622   2.885   6.640
19820CNL    PA130056   3.854  15.326   7.001
19820CNL    PA230057   3.690  15.123   6.826
19820CNL    PA330058   3.651  15.385   6.894
19820CNL    PA430059   3.764  15.324   6.725
19821CNL    PA130060   5.404  10.002   3.301
19821CNL    PA230061   5.214   9.954   3.545
19821CNL    PA330062   5.479   9.903   3.503
19821CNL    PA430063   5.410  10.093   3.581
19822CNL    PA130064   2.283  14.587   5.768
19822CNL    PA230065   2.545  14.755   5.774
19822CNL    PA330066   2.290  14.815   5.703
19822CNL    PA430067   2.359  14.836   5.908
19823CNL    PA130068   6.691   9.012   8.026
19823CNL    PA230069   6.597   9.049   8.321
19823CNL    PA330070   6.726   8.848   8.196
19823CNL    PA430071   6.828   9.016   8.288
19824CNL    PA130072   7.526   4.217   6.303
19824CNL    PA230073   7.244   4.130   6.209
19824CNL    PA330074   7.335   4.242   6.438
19824CNL    PA430075   7.270   4.361   6.270
19825CNL    PA130076   0.850  12.185   8.373
19825CNL    PA230077   0.560  12.116   8.280
19825CNL    PA330078   0.683  12.351   8.335
19825CNL    PA430079   0.686  12.259   8.140
19826CNL    PA130080   3.987  11.443   5.577
19826CNL    PA230081   3.984  11.176   5.733
19826CNL    PA330082   3.910  11.242   5.483
19826CNL    PA430083   4.112  11.178   5.528
19827CNL    PA130084  10.693   8.084   6.450
19827CNL    PA230085  10.551   8.218   6.688
19827CNL    PA330086  10.526   7.974   6.576
19827CNL    PA430087  10.670   8.011   6.734
19828CNL    PA130088   5.104   7.879   5.551
19828CNL    PA230089   5.183   7.693   5.785
19828CNL    PA330090   4.955   7.719   5.640
19828CNL    PA430091   5.115   7.586   5.577
19829CNL    PA130092   4.754   7.696   5.258
19829CNL    PA230093   4.672   7.396   5.256
19829CNL    PA330094   4.915   7.520   5.239
19829CNL    PA430095   4.826   7.466   5.428
19830CNL    PA130096   1.698   8.459  13.409
19830CNL    PA230097   1.875   8.206  13.452
19830CNL    PA330098   1.656   8.299  13.576
19830CNL    PA430099   1.639   8.169  13.406
19831CNL    PA130100   0.846  11.077   8.208
19831CNL    PA230101   1.016  10.825   8.131
19831CNL    PA330102   0.911  11.028   7.984
19831CNL    PA430103   1.104  11.042   8.073
19832CNL    PA130104   8.642   9.603   5.001
19832CNL    PA230105   8.598   9.903   4.933
19832CNL    PA330106   8.822   9.754   4.970
19832CNL    PA430107   8.729   9.773   4.775
19833CNL    PA130108   7.496  10.967   5.745
19833CNL    PA230109   7.190  10.989   5.707
19833CNL    PA330110   7.346  10.811   5.843
19833CNL    PA430111   7.276  10.995   5.936
19834CNL    PA130112  10.156  14.795   7.972
19834CNL    PA230113  10.061  14.605   8.202
19834CNL    PA330114  10.126  14.563   7.944
19834CNL    PA430115  10.272  14.557   8.101
19835CNL    PA130116   4.086   7.349   6.220
19835CNL    PA230117   3.795   7.233   6.229
19835CNL    PA330118   3.912   7.428   6.079
19835CNL    PA430119   3.912   7.221   6.018
19836CNL    PA130120   8.285   7.833   5.587
19836CNL    PA230121   8.358   8.098   5.730
19836CNL    PA330122   8.440   7.988   5.501
19836CNL    PA430123   8.266   8.119   5.509
19837CNL    PA130124  11.908  14.300   0.631
19837CNL    PA230125  11.686  14.289   0.850
19837CNL    PA330126  11.763  14.116   0.655
19837CNL    PA430127  11.852  14.113   0.852
19838CNL    PA130128   9.933   0.253   9.058
19838CNL    PA230129  10.140   0.063   8.918
19838CNL    PA330130  10.100   0.135   9.178
19838CNL    PA430131  10.002  15.795   9.086
19839CNL    PA130132   5.819  10.568  13.177
19839CNL    PA230133   5.814  10.458  13.469
19839CNL    PA330134   5.893  10.349  13.232
19839CNL    PA430135   6.028  10.462  13.358
19840CNL    PA130136   7.233   7.962   8.083
19840CNL    PA230137   7.441   8.096   7.900
19840CNL    PA330138   7.323   7.853   7.890
19840CNL    PA430139   7.235   8.028   7.796
19841CNL    PA130140  15.238   9.386   5.711
19841CNL    PA230141  15.022   9.605   5.748
19841CNL    PA330142  15.009   9.334   5.757
19841CNL    PA430143  15.054   9.451   5.934
19842CNL    PA130144  10.795  10.452   5.566
19842CNL    PA230145  10.721  10.334   5.294
19842CNL    PA330146  10.591  10.505   5.456
19842CNL    PA430147  10.731  10.570   5.304
19843CNL    PA130148  10.963   5.680   5.073
19843CNL    PA230149  11.256   5.629   4.998
19843CNL    PA330150  11.026   5.575   4.867
19843CNL    PA430151  11.124   5.765   4.843
19844CNL    PA130152   7.285   7.840   4.600
19844CNL    PA230153   7.300   7.550   4.485
19844CNL    PA330154   7.436   7.676   4.685
19844CNL    PA430155   7.249   7.571   4.717
19845CNL    PA130156   2.337  12.210  11.729
19845CNL    PA230157   2.232  12.229  11.436
19845CNL    PA330158   2.435  12.354  11.566
19845CNL    PA430159   2.461  12.165  11.465
19846CNL    PA130160  14.761  15.766   7.505
19846CNL    PA230161  14.975   0.076   7.678
19846CNL    PA330162  14.990  15.789   7.435
19846CNL    PA430163  14.945   0.167   7.460
19847CNL    PA130164  11.979   7.950   6.319
19847CNL    PA230165  11.904   8.097   6.058
19847CNL    PA330166  11.792   8.091   6.303
19847CNL    PA430167  11.945   8.236   6.253
19848CNL    PA130168   4.020   0.753   8.364
19848CNL    PA230169   4.011   0.445   8.376
19848CNL    PA330170   4.213   0.619   8.325
19848CNL    PA430171   4.163   0.556   8.527
19849CNL    PA130172   5.393   9.790   6.048
19849CNL    PA230173   5.610   9.855   6.255
19849CNL    PA330174   5.384   9.706   6.271
19849CNL    PA430175   5.573   9.619   6.208
19850CNL    PA130176   4.875  14.749   3.506
19850CNL    PA230177   4.763  14.510   3.339
19850CNL    PA330178   4.674  14.762   3.381
19850CNL    PA430179   4.809  14.714   3.219
19851CNL    PA130180   4.070   6.251   9.576
19851CNL    PA230181   4.240   6.368   9.341
19851CNL    PA330182   3.973   6.333   9.377
19851CNL    PA430183   4.072   6.514   9.439
19852CNL    PA130184   1.198   2.673   4.776
19852CNL    PA230185   1.313   2.906   4.945
19852CNL    PA330186   1.429   2.722   4.784
19852CNL    PA430187   1.353   2.912   4.709
19853CNL    PA130188   0.923  14.131   7.803
19853CNL    PA230189   1.112  13.927   7.941
19853CNL    PA330190   0.869  14.027   8.010
19853CNL    PA430191   0.890  13.852   7.888
19854CNL    PA130192   0.761  11.728   8.573
19854CNL    PA230193   1.048  11.616   8.533
19854CNL    PA330194   0.817  11.588   8.390
19854CNL    PA430195   0.954  11.752   8.353
19855CNL    PA130196  10.174   1.106   5.534
19855CNL    PA230197   9.945   1.199   5.344
19855CNL    PA330198  10.214   1.174   5.309
19855CNL    PA430199  10.077   1.009   5.272
19856OST    PA130200  11.509   4.640   8.546
19856OST    PA230201  11.559   4.302   8.436
19856OST    PA330202  11.266   4.313   8.392
19856OST    PA430203  11.564   4.108   8.484
19856OST    PA530204  11.857   4.112   8.600
19856OST    PA630205  11.895   4.340   8.558
19857OST    PA130206   6.751   4.703   2.994
19857OST    PA230207   6.989   4.483   2.842
19857OST    PA330208   7.208   4.663   2.929
19857OST    PA430209   7.077   4.428   2.672
19857OST    PA530210   6.831   4.256   2.571
19857OST    PA630211   6.693   4.294   2.759
19858OST    PA130212   4.246   2.928  12.330
19858OST    PA230213   4.015   3.119  12.136
19858OST    PA330214   4.163   3.001  11.909
19858OST    PA430215   3.995   3.299  12.055
19858OST    PA530216   3.887   3.431  12.320
19858OST    PA630217   3.891   3.236  12.453
19859OST    PA130218  13.584  15.402   3.345
19859OST    PA230219  13.333  15.612   3.207
19859OST    PA330220  13.126  15.403   3.243
19859OST    PA430221  13.212  15.767   3.244
19859OST    PA530222  13.434   0.150   3.156
19859OST    PA630223  13.602  15.821   3.105
19860OST    PA130224   4.288  13.862   3.584
19860OST    PA230225   4.035  14.049   3.414
19860OST    PA330226   4.022  13.850   3.197
19860OST    PA430227   3.998  14.206   3.297
19860OST    PA530228   4.004  14.420   3.532
19860OST    PA630229   4.046  14.261   3.703
19861OST    PA130230  13.844   0.324   2.154
19861OST    PA230231  13.733   0.578   2.383
19861OST    PA330232  13.918   0.738   2.216
19861OST    PA430233  13.753   0.694   2.546
19861OST    PA530234  13.707   0.464   2.756
19861OST    PA630235  13.674   0.293   2.597
19862OST    PA130236   8.067  11.981  12.029
19862OST    PA230237   8.155  11.688  12.212
19862OST    PA330238   8.082  11.541  11.968
19862OST    PA430239   8.299  11.562  12.271
19862OST    PA530240   8.282  11.665  12.572
19862OST    PA630241   8.110  11.829  12.536
19863OST    PA130242  10.731   1.811   9.122
19863OST    PA230243  10.420   1.899   9.278
19863OST    PA330244  10.354   1.613   9.283
19863OST    PA430245  10.231   1.964   9.278
19863OST    PA530246  10.317   2.269   9.280
19863OST    PA630247  10.553   2.230   9.283
19864OST    PA130248  11.249   5.792  11.583
19864OST    PA230249  11.218   6.008  11.299
19864OST    PA330250  11.493   5.961  11.200
19864OST    PA430251  11.203   6.194  11.234
19864OST    PA530252  10.885   6.192  11.242
19864OST    PA630253  10.864   5.966  11.320
19865OST    PA130254   0.955   1.380   1.305
19865OST    PA230255   1.155   1.190   1.528
19865OST    PA330256   0.898   1.125   1.653
19865OST    PA430257   1.229   1.006   1.538
19865OST    PA530258   1.493   1.094   1.387
19865OST    PA630259   1.436   1.322   1.354
19866OST    PA130260  13.574   8.164   8.795
19866OST    PA230261  13.235   8.065   8.846
19866OST    PA330262  13.216   7.837   8.659
19866OST    PA430263  13.115   7.988   8.985
19866OST    PA530264  13.035   8.278   9.096
19866OST    PA630265  13.172   8.401   8.943
19867OST    PA130266   8.303   0.346   3.491
19867OST    PA230267   8.363   0.457   3.826
19867OST    PA330268   8.103   0.321   3.871
19867OST    PA430269   8.360   0.560   3.997
19867OST    PA530270   8.526   0.807   3.888
19867OST    PA630271   8.556   0.718   3.671
19868OST    PA130272   2.200   1.452   0.115
19868OST    PA230273   2.175   1.684   0.385
19868OST    PA330274   2.425   1.827   0.319
19868OST    PA430275   2.196   1.699   0.584
19868OST    PA530276   1.908   1.580   0.641
19868OST    PA630277   1.844   1.550   0.415
19869OST    PA130278   0.703  13.052  11.991
19869OST    PA230279   0.347  13.039  11.966
19869OST    PA330280   0.376  12.744  11.982
19869OST    PA430281   0.177  13.048  12.069
19869OST    PA530282   0.180  13.364  12.104
19869OST    PA630283   0.385  13.396  11.990
19870OST    PA130284   7.029  10.102  12.561
19870OST    PA230285   7.374  10.042  12.629
19870OST    PA330286   7.388  10.336  12.656
19870OST    PA430287   7.502  10.001  12.779
19870OST    PA530288   7.444   9.688  12.751
19870OST    PA630289   7.284   9.701  12.574
19871OST    PA130290   7.074   1.156  13.151
19871OST    PA230291   6.889   1.134  13.458
19871OST    PA330292   6.970   1.417  13.466
19871OST    PA430293   6.720   1.159  13.562
19871OST    PA530294   6.597   0.878  13.482
19871OST    PA630295   6.780   0.812  13.344
19872OST    PA130296   5.957  11.192   2.052
19872OST    PA230297   5.602  11.220   2.005
19872OST    PA330298   5.524  10.940   1.950
19872OST    PA430299   5.448  11.303   1.909
19872OST    PA530300   5.459  11.576   2.070
19872OST    PA630301   5.640  11.514   2.206
19873OST    PA130302   0.435   7.265   2.834
19873OST    PA230303   0.604   7.338   2.526
19873OST    PA330304   0.844   7.256   2.679
19873OST    PA430305   0.699   7.463   2.403
19873OST    PA530306   0.430   7.578   2.277
19873OST    PA630307   0.285   7.440   2.406
19874OST    PA130308   4.296  14.803   3.577
19874OST    PA230309   4.504  14.546   3.713
19874OST    PA330310   4.595  14.769   3.885
19874OST    PA430311   4.651  14.418   3.767
19874OST    PA530312   4.572  14.211   3.537
19874OST    PA630313   4.390  14.336   3.450
19875OST    PA130314   5.322  12.344   4.266
19875OST    PA230315   5.369  12.624   4.486
19875OST    PA330316   5.309  12.765   4.233
19875OST    PA430317   5.281  12.762   4.607
19875OST    PA530318   5.261  12.568   4.857
19875OST    PA630319   5.358  12.380   4.748
19876OST    PA130320  15.034   9.750  10.376
19876OST    PA230321  14.909  10.004  10.595
19876OST    PA330322  14.645   9.877  10.559
19876OST    PA430323  14.875  10.066  10.784
19876OST    PA530324  15.166  10.191  10.818
19876OST    PA630325  15.244  10.131  10.602
19877OST    PA130326  10.656   6.023   0.773
19877OST    PA230327  10.841   5.759   0.616
19877OST    PA330328  10.887   5.653   0.885
19877OST    PA430329  11.018   5.697   0.539
19877OST    PA530330  10.917   5.750   0.240
19877OST    PA630331  10.697   5.826   0.297
19878OST    PA130332  10.609  14.729   4.896
19878OST    PA230333  10.480  14.447   4.716
19878OST    PA330334  10.680  14.551   4.523
19878OST    PA430335  10.356  14.372   4.576
19878OST    PA530336  10.095  14.378   4.757
19878OST    PA630337  10.207  14.464   4.945
19879OST    PA130338  11.541   1.766  12.806
19879OST    PA230339  11.278   1.655  12.591
19879OST    PA330340  11.122   1.603  12.838
19879OST    PA430341  11.121   1.721  12.484
19879OST    PA530342  11.291   1.804  12.229
19879OST    PA630343  11.500   1.740  12.322
19880OST    PA130344  12.716   8.683  12.786
19880OST    PA230345  12.942   8.581  13.043
19880OST    PA330346  12.925   8.322  12.900
19880OST    PA430347  13.126   8.552  13.117
19880OST    PA530348  13.148   8.854  13.220
19880OST    PA630349  12.935   8.923  13.143
19881OST    PA130350   6.814   7.065   2.985
19881OST    PA230351   6.970   7.316   3.191
19881OST    PA330352   7.015   7.184   3.451
19881OST    PA430353   7.125   7.446   3.209
19881OST    PA530354   7.013   7.651   2.993
19881OST    PA630355   6.818   7.526   2.942
19882OST    PA130356   6.258   5.592   3.141
19882OST    PA230357   5.978   5.412   3.011
19882OST    PA330358   6.030   5.164   3.166
19882OST    PA430359   5.906   5.320   2.850
19882OST    PA530360   5.794   5.585   2.716
19882OST    PA630361   5.862   5.729   2.892
19883OST    PA130362   2.655   1.361   0.688
19883OST    PA230363   2.618   1.489   0.356
19883OST    PA330364   2.496   1.219   0.329
19883OST    PA430365   2.677   1.502   0.164
19883OST    PA530366   2.922   1.695   0.217
19883OST    PA630367   2.886   1.709   0.452
19884OST    PA130368   1.335  14.232   3.893
19884OST    PA230369   1.685  14.172   3.858
19884OST    PA330370   1.807  14.400   3.994
19884OST    PA430371   1.838  14.043   3.894
19884OST    PA530372   1.792  13.894   3.617
19884OST    PA630373   1.608  14.024   3.545
19885OST    PA130374   3.483  11.347  11.259
19885OST    PA230375   3.539  11.028  11.105
19885OST    PA330376   3.821  11.100  11.090
19885OST    PA430377   3.559  10.849  11.009
19885OST    PA530378   3.249  10.797  11.015
19885OST    PA630379   3.186  10.996  11.130
19886OST    PA130380   7.411  12.868   9.370
19886OST    PA230381   7.215  13.084   9.578
19886OST    PA330382   7.341  13.298   9.416
19886OST    PA430383   7.035  13.168   9.586
19886OST    PA530384   6.895  12.926   9.736
19886OST    PA630385   7.091  12.792   9.743
19887OST    PA130386   7.592   1.396  13.212
19887OST    PA230387   7.469   1.292  13.531
19887OST    PA330388   7.608   1.481   0.105
19887OST    PA430389   7.298   1.286   0.031
19887OST    PA530390   7.238   0.986  13.541
19887OST    PA630391   7.431   0.960  13.405
19888OST    PA130392  10.104   7.832   3.452
19888OST    PA230393  10.053   8.141   3.281
19888OST    PA330394  10.293   8.106   3.114
19888OST    PA430395  10.062   8.340   3.286
19888OST    PA530396   9.774   8.364   3.418
19888OST    PA630397   9.726   8.133   3.426
19889OST    PA130398   0.729   9.382   9.917
19889OST    PA230399   0.900   9.391  10.231
19889OST    PA330400   0.834   9.122  10.332
19889OST    PA430401   1.083   9.400  10.318
19889OST    PA530402   1.086   9.720  10.317
19889OST    PA630403   0.872   9.744  10.211
19890OST    PA130404   2.960   8.962   8.504
19890OST    PA230405   2.722   8.697   8.520
19890OST    PA330406   2.887   8.555   8.322
19890OST    PA430407   2.650   8.532   8.608
19890OST    PA530408   2.433   8.692   8.776
19890OST    PA630409   2.493   8.908   8.694
19891OST    PA130410  14.557   1.760  11.348
19891OST    PA230411  14.646   1.433  11.466
19891OST    PA330412  14.429   1.323  11.299
19891OST    PA430413  14.609   1.315  11.625
19891OST    PA530414  14.843   1.447  11.794
19891OST    PA630415  14.917   1.598  11.628
19892OST    PA130416   9.555  12.679  10.926
19892OST    PA230417   9.877  12.820  10.974
19892OST    PA330418   9.763  13.032  11.149
19892OST    PA430419   9.987  12.941  10.867
19892OST    PA530420  10.098  12.711  10.680
19892OST    PA630421   9.983  12.533  10.786
19893OST    PA130422  11.210   0.533   1.984
19893OST    PA230423  11.232   0.776   2.244
19893OST    PA330424  11.367   0.945   2.041
19893OST    PA430425  11.330   0.852   2.402
19893OST    PA530426  11.183   0.657   2.605
19893OST    PA630427  11.046   0.545   2.445
19894OST    PA130428   6.538   7.417   0.424
19894OST    PA230429   6.488   7.717   0.232
19894OST    PA330430   6.473   7.513   0.017
19894OST    PA430431   6.568   7.860   0.117
19894OST    PA530432   6.690   8.016   0.364
19894OST    PA630433   6.609   7.870   0.531
19895OST    PA130434   8.735  12.567   2.728
19895OST    PA230435   8.825  12.228   2.801
19895OST    PA330436   9.101  12.306   2.728
19895OST    PA430437   8.880  12.093   2.940
19895OST    PA530438   8.583  12.028   3.033
19895OST    PA630439   8.480  12.180   2.883
19896OST    PA130440  10.179  10.614  12.422
19896OST    PA230441  10.184  10.925  12.597
19896OST    PA330442   9.905  10.848  12.666
19896OST    PA430443  10.217  11.030  12.765
19896OST    PA530444  10.534  11.032  12.728
19896OST    PA630445  10.536  10.908  12.527
19897OST    PA130446   9.220   4.468   0.998
19897OST    PA230447   9.519   4.297   0.904
19897OST    PA330448   9.659   4.484   1.088
19897OST    PA430449   9.662   4.294   0.767
19897OST    PA530450   9.501   4.110   0.562
19897OST    PA630451   9.309   4.089   0.703
19898OST    PA130452  13.620   7.626  11.373
19898OST    PA230453  13.853   7.832  11.548
19898OST    PA330454  13.736   8.053  11.388
19898OST    PA430455  14.032   7.917  11.572
19898OST    PA530456  14.159   7.656  11.704
19898OST    PA630457  13.963   7.523  11.695
19899OST    PA130458   2.933  10.003  11.867
19899OST    PA230459   3.086  10.070  11.550
19899OST    PA330460   2.915   9.899  11.385
19899OST    PA430461   3.128  10.202  11.405
19899OST    PA530462   3.405  10.280  11.539
19899OST    PA630463   3.387  10.137  11.725
19900OST    PA130464  12.215  11.272  10.804
19900OST    PA230465  12.502  11.061  10.815
19900OST    PA330466  12.438  10.898  10.575
19900OST    PA430467  12.566  10.909  10.926
19900OST    PA530468  12.682  11.097  11.153
19900OST    PA630469  12.623  11.303  11.050
19901OST    PA130470   3.566   2.020   0.545
19901OST    PA230471   3.857   1.849   0.665
19901OST    PA330472   3.766   1.833   0.946
19901OST    PA430473   3.989   1.700   0.680
19901OST    PA530474   4.160   1.789   0.427
19901OST    PA630475   4.022   1.976   0.375
19902OST    PA130476   9.221   7.968   9.502
19902OST    PA230477   9.284   8.310   9.423
19902OST    PA330478   8.994   8.341   9.466
19902OST    PA430479   9.336   8.485   9.505
19902OST    PA530480   9.646   8.431   9.446
19902OST    PA630481   9.617   8.216   9.345
19903OST    PA130482  13.057  10.093  12.258
19903OST    PA230483  12.978   9.837  12.019
19903OST    PA330484  13.114   9.671  12.222
19903OST    PA430485  13.007   9.709  11.864
19903OST    PA530486  12.924   9.928  11.648
19903OST    PA630487  12.878  10.101  11.802
19904OST    PA130488   3.961   5.598  12.590
19904OST    PA230489   3.975   5.855  12.839
19904OST    PA330490   3.688   5.790  12.871
19904OST    PA430491   3.954   6.051  12.870
19904OST    PA530492   4.238   6.133  12.754
19904OST    PA630493   4.303   5.908  12.705
19905OST    PA130494   8.020   0.700   3.197
19905OST    PA230495   7.831   0.995   3.263
19905OST    PA330496   7.714   0.831   3.481
19905OST    PA430497   7.837   1.165   3.367
19905OST    PA530498   7.983   1.324   3.136
19905OST    PA630499   7.998   1.143   2.983
19906OST    PA130500  11.693  12.967   7.801
19906OST    PA230501  11.662  12.802   8.116
19906OST    PA330502  11.810  12.563   8.029
19906OST    PA430503  11.728  12.798   8.304
19906OST    PA530504  11.530  13.022   8.409
19906OST    PA630505  11.428  13.056   8.195
19907OST    PA130506  11.472   7.500  12.643
19907OST    PA230507  11.169   7.346  12.750
19907OST    PA330508  11.058   7.494  12.516
19907OST    PA430509  11.035   7.199  12.744
19907OST    PA530510  11.182   7.012  12.956
19907OST    PA630511  11.364   7.162  12.989
19908OST    PA130512  14.991   0.733   8.539
19908OST    PA230513  14.674   0.568   8.557
19908OST    PA330514  14.644   0.560   8.264
19908OST    PA430515  14.526   0.438   8.596
19908OST    PA530516  14.493   0.538   8.897
19908OST    PA630517  14.666   0.701   8.890
19909OST    PA130518   7.868   7.775   4.718
19909OST    PA230519   7.776   7.458   4.586
19909OST    PA330520   7.686   7.597   4.342
19909OST    PA430521   7.640   7.316   4.581
19909OST    PA530522   7.805   7.120   4.768
19909OST    PA630523   7.991   7.264   4.796
19910OST    PA130524  13.854  10.505   9.387
19910OST    PA230525  13.932  10.718   9.661
19910OST    PA330526  13.665  10.842   9.689
19910OST    PA430527  13.994  10.763   9.844
19910OST    PA530528  14.305  10.752   9.781
19910OST    PA630529  14.273  10.694   9.554
19911OST    PA130530   9.732   9.540   4.594
19911OST    PA230531   9.881   9.837   4.462
19911OST    PA330532   9.779   9.954   4.712
19911OST    PA430533  10.046   9.955   4.449
19911OST    PA530534  10.146   9.803   4.189
19911OST    PA630535   9.967   9.645   4.174
19912OST    PA130536   4.854  13.401   0.402
19912OST    PA230537   4.888  13.544   0.078
19912OST    PA330538   4.606  13.462   0.047
19912OST    PA430539   4.936  13.523  13.491
19912OST    PA530540   5.238  13.603  13.532
19912OST    PA630541   5.222  13.642   0.159
19913OST    PA130542   9.938   2.230   3.684
19913OST    PA230543  10.212   2.456   3.735
19913OST    PA330544  10.350   2.239   3.882
19913OST    PA430545  10.278   2.606   3.853
19913OST    PA530546  10.105   2.823   3.700
19913OST    PA630547  10.010   2.678   3.543
19914OST    PA130548  12.482   0.383   0.021
19914OST    PA230549  12.670   0.085   0.082
19914OST    PA330550  12.555  15.729  13.486
19914OST    PA430551  12.694  15.778   0.224
19914OST    PA530552  12.933   0.100   0.369
19914OST    PA630553  12.936   0.281   0.216
19915OST    PA130554   9.082   8.285   8.259
19915OST    PA230555   9.042   8.053   8.527
19915OST    PA330556   8.765   8.139   8.585
19915OST    PA430557   9.010   7.857   8.555
19915OST    PA530558   9.319   7.789   8.592
19915OST    PA630559   9.394   8.014   8.559
19916OST    PA130560  12.552   7.786   8.110
19916OST    PA230561  12.515   8.061   8.336
19916OST    PA330562  12.244   7.986   8.426
19916OST    PA430563  12.485   8.262   8.344
19916OST    PA530564  12.789   8.323   8.275
19916OST    PA630565  12.860   8.099   8.261
19917OST    PA130566   1.317  10.696   8.514
19917OST    PA230567   1.257  11.036   8.434
19917OST    PA330568   1.420  11.011   8.190
19917OST    PA430569   1.263  11.235   8.443
19917OST    PA530570   1.011  11.238   8.640
19917OST    PA630571   0.972  11.003   8.651
19918OST    PA130572   4.345  14.426   2.468
19918OST    PA230573   4.348  14.239   2.167
19918OST    PA330574   4.568  14.421   2.090
19918OST    PA430575   4.271  14.221   1.985
19918OST    PA530576   4.097  13.965   2.066
19918OST    PA630577   4.172  13.955   2.292
19919OST    PA130578  11.985   6.481   9.439
19919OST    PA230579  12.204   6.307   9.221
19919OST    PA330580  12.163   6.472   8.979
19919OST    PA430581  12.397   6.269   9.191
19919OST    PA530582  12.394   6.008   9.370
19919OST    PA630583  12.162   6.024   9.430
19920OST    PA130584  13.388   1.753   1.405
19920OST    PA230585  13.725   1.685   1.316
19920OST    PA330586  13.798   1.866   1.537
19920OST    PA430587  13.903   1.690   1.222
19920OST    PA530588  13.851   1.405   1.087
19920OST    PA630589  13.637   1.368   1.185
19921OST    PA130590   0.675   3.597   8.802
19921OST    PA230591   0.508   3.505   9.107
19921OST    PA330592   0.572   3.762   9.239
19921OST    PA430593   0.514   3.397   9.277
19921OST    PA530594   0.428   3.122   9.144
19921OST    PA630595   0.406   3.213   8.926
19922OST    PA130596   2.384   1.807   1.627
19922OST    PA230597   2.369   2.150   1.530
19922OST    PA330598   2.653   2.138   1.612
19922OST    PA430599   2.333   2.332   1.606
19922OST    PA530600   2.017   2.306   1.560
19922OST    PA630601   2.025   2.090   1.463
19923OST    PA130602   0.771   5.908   7.970
19923OST    PA230603   0.782   6.179   8.201
19923OST    PA330604   0.510   6.128   8.304
19923OST    PA430605   0.854   6.254   8.371
19923OST    PA530606   1.139   6.330   8.256
19923OST    PA630607   1.092   6.248   8.039
19924OST    PA130608   6.683   0.695   4.917
19924OST    PA230609   6.786   0.685   5.260
19924OST    PA330610   7.014   0.869   5.251
19924OST    PA430611   6.869   0.555   5.390
19924OST    PA530612   6.587   0.417   5.450
19924OST    PA630613   6.457   0.558   5.305
19925OST    PA130614  12.115  11.404  11.851
19925OST    PA230615  12.360  11.404  11.592
19925OST    PA330616  12.558  11.478  11.798
19925OST    PA430617  12.489  11.308  11.472
19925OST    PA530618  12.267  11.259  11.247
19925OST    PA630619  12.089  11.365  11.365
19926OST    PA130620   6.056   1.378   8.938
19926OST    PA230621   6.155   1.392   9.280
19926OST    PA330622   5.866   1.420   9.338
19926OST    PA430623   6.203   1.301   9.451
19926OST    PA530624   6.513   1.284   9.382
19926OST    PA630625   6.494   1.388   9.167
19927OST    PA130626   3.569   6.301   9.549
19927OST    PA230627   3.606   6.403   9.208
19927OST    PA330628   3.421   6.243   9.041
19927OST    PA430629   3.754   6.412   9.071
19927OST    PA530630   3.861   6.692   9.174
19927OST    PA630631   3.700   6.717   9.344
19928OST    PA130632   7.279   7.283   0.407
19928OST    PA230633   6.973   7.373   0.248
19928OST    PA330634   6.870   7.100   0.202
19928OST    PA430635   6.906   7.449   0.077
19928OST    PA530636   6.924   7.748   0.181
19928OST    PA630637   7.002   7.696   0.396
19929OST    PA130638  11.548   6.250  11.559
19929OST    PA230639  11.567   6.599  11.493
19929OST    PA330640  11.630   6.656  11.774
19929OST    PA430641  11.677   6.748  11.415
19929OST    PA530642  11.479   6.772  11.165
19929OST    PA630643  11.331   6.597  11.229
19930OST    PA130644  10.507  11.658   8.904
19930OST    PA230645  10.514  11.916   8.658
19930OST    PA330646  10.536  12.112   8.879
19930OST    PA430647  10.629  12.018   8.530
19930OST    PA530648  10.613  11.806   8.297
19930OST    PA630649  10.476  11.653   8.418
19931OST    PA130650   3.114   6.433   9.745
19931OST    PA230651   3.308   6.685   9.578
19931OST    PA330652   3.246   6.539   9.326
19931OST    PA430653   3.318   6.866   9.492
19931OST    PA530654   3.304   7.025   9.767
19931OST    PA630655   3.287   6.833   9.903
19932OST    PA130656   9.278  14.999   9.771
19932OST    PA230657   9.342  14.647   9.767
19932OST    PA330658   9.192  14.634  10.022
19932OST    PA430659   9.478  14.510   9.817
19932OST    PA530660   9.636  14.536   9.542
19932OST    PA630661   9.492  14.699   9.448
19933OST    PA130662  15.737  10.856  11.653
19933OST    PA230663  15.621  11.106  11.429
19933OST    PA330664  15.755  11.331  11.565
19933OST    PA430665  15.485  11.218  11.332
19933OST    PA530666  15.459  11.001  11.102
19933OST    PA630667  15.615  10.845  11.183
19934OST    PA130668  15.654   4.898   9.059
19934OST    PA230669  15.471   4.990   8.765
19934OST    PA330670  15.246   4.803   8.821
19934OST    PA430671  15.455   4.980   8.564
19934OST    PA530672  15.698   5.174   8.513
19934OST    PA630673  15.751   5.218   8.734
19935OST    PA130674   0.561  10.364   0.385
19935OST    PA230675   0.456  10.688   0.276
19935OST    PA330676   0.312  10.682   0.534
19935OST    PA430677   0.311  10.779   0.174
19935OST    PA530678   0.455  10.730  13.499
19935OST    PA630679   0.644  10.619  13.582
19936OST    PA130680   2.612   6.238   0.444
19936OST    PA230681   2.528   6.585   0.459
19936OST    PA330682   2.267   6.519   0.332
19936OST    PA430683   2.504   6.784   0.452
19936OST    PA530684   2.812   6.855   0.479
19936OST    PA630685   2.881   6.631   0.493
19937OST    PA130686   7.738  13.956  10.517
19937OST    PA230687   7.430  13.943  10.691
19937OST    PA330688   7.323  13.696  10.575
19937OST    PA430689   7.254  14.027  10.728
19937OST    PA530690   7.372  14.210  10.958
19937OST    PA630691   7.597  14.129  10.943
19938OST    PA130692   6.915   0.823   0.296
19938OST    PA230693   7.014   0.631   0.585
19938OST    PA330694   7.288   0.692   0.678
19938OST    PA430695   6.938   0.599   0.768
19938OST    PA530696   6.748   0.361   0.676
19938OST    PA630697   6.811   0.371   0.448
19939OST    PA130698   4.397   3.980  11.786
19939OST    PA230699   4.307   3.642  11.711
19939OST    PA330700   4.162   3.761  11.483
19939OST    PA430701   4.197   3.475  11.720
19939OST    PA530702   4.364   3.359  11.968
19939OST    PA630703   4.514   3.542  11.983
19940OST    PA130704   4.575  15.785   0.163
19940OST    PA230705   4.344  15.641   0.397
19940OST    PA330706   4.537  15.762   0.590
19940OST    PA430707   4.185  15.657   0.517
19940OST    PA530708   3.963  15.654   0.293
19940OST    PA630709   4.121  15.637   0.116
19941OST    PA130710   8.284  15.696  10.312
19941OST    PA230711   8.096  15.405  10.222
19941OST    PA330712   7.954  15.552  10.009
19941OST    PA430713   7.942  15.285  10.272
19941OST    PA530714   8.131  15.076  10.423
19941OST    PA630715   8.334  15.193  10.378
19942OST    PA130716   7.223   0.644  12.748
19942OST    PA230717   7.425   0.518  13.018
19942OST    PA330718   7.224   0.669  13.178
19942OST    PA430719   7.572   0.535  13.153
19942OST    PA530720   7.814   0.494  12.952
19942OST    PA630721   7.674   0.465  12.763
19943OST    PA130722  11.187   6.545  10.443
19943OST    PA230723  11.039   6.221  10.487
19943OST    PA330724  11.032   6.211  10.191
19943OST    PA430725  11.075   6.025  10.513
19943OST    PA530726  11.127   6.046  10.827
19943OST    PA630727  11.094   6.282  10.834
19944OST    PA130728   8.295   0.712   9.668
19944OST    PA230729   8.156   0.491   9.913
19944OST    PA330730   8.086   0.706  10.101
19944OST    PA430731   8.199   0.353  10.056
19944OST    PA530732   8.193   0.110   9.849
19944OST    PA630733   8.139   0.243   9.655
19945OST    PA130734  10.020   8.422   3.760
19945OST    PA230735  10.343   8.459   3.618
19945OST    PA330736  10.353   8.167   3.585
19945OST    PA430737  10.427   8.503   3.442
19945OST    PA530738  10.401   8.816   3.498
19945OST    PA630739  10.296   8.801   3.710
19946OST    PA130740   8.311   3.815  13.423
19946OST    PA230741   8.499   3.649  13.172
19946OST    PA330742   8.758   3.745  13.270
19946OST    PA430743   8.554   3.462  13.146
19946OST    PA530744   8.308   3.401  12.956
19946OST    PA630745   8.211   3.616  12.967
19947OST    PA130746   1.677  13.168   0.638
19947OST    PA230747   1.652  13.412   0.379
19947OST    PA330748   1.393  13.529   0.457
19947OST    PA430749   1.733  13.583   0.310
19947OST    PA530750   1.922  13.434   0.101
19947OST    PA630751   1.850  13.212   0.161
19948OST    PA130752   0.720  12.729   9.817
19948OST    PA230753   0.900  12.501  10.030
19948OST    PA330754   0.650  12.516  10.186
19948OST    PA430755   1.015  12.441  10.185
19948OST    PA530756   1.276  12.593  10.093
19948OST    PA630757   1.181  12.682   9.898
19949OST    PA130758   5.417  14.247   8.380
19949OST    PA230759   5.417  14.062   8.686
19949OST    PA330760   5.678  14.134   8.801
19949OST    PA430761   5.325  14.034   8.862
19949OST    PA530762   5.112  13.832   8.743
19949OST    PA630763   5.192  13.842   8.518
19950OST    PA130764  11.762   7.092   2.213
19950OST    PA230765  11.602   7.371   2.062
19950OST    PA330766  11.862   7.514   2.078
19950OST    PA430767  11.512   7.505   1.951
19950OST    PA530768  11.220   7.406   2.020
19950OST    PA630769  11.288   7.228   2.162
19951OST    PA130770  11.800   6.186  12.869
19951OST    PA230771  11.855   6.456  13.095
19951OST    PA330772  12.089   6.289  13.169
19951OST    PA430773  11.812   6.514  13.281
19951OST    PA530774  11.536   6.641  13.186
19951OST    PA630775  11.553   6.591  12.958
19952OST    PA130776   8.146  13.953   9.590
19952OST    PA230777   8.014  14.178   9.836
19952OST    PA330778   7.917  14.398   9.668
19952OST    PA430779   8.047  14.290   9.999
19952OST    PA530780   7.993  14.047  10.194
19952OST    PA630781   7.945  13.884  10.031
19953OST    PA130782   6.014   1.109  11.226
19953OST    PA230783   5.687   1.242  11.290
19953OST    PA330784   5.553   0.992  11.212
19953OST    PA430785   5.526   1.360  11.267
19953OST    PA530786   5.650   1.596  11.438
19953OST    PA630787   5.853   1.487  11.488
19954OST    PA130788  15.046   4.707   2.066
19954OST    PA230789  15.057   4.390   1.901
19954OST    PA330790  15.344   4.353   1.954
19954OST    PA430791  15.015   4.195   1.878
19954OST    PA530792  14.713   4.242   1.793
19954OST    PA630793  14.723   4.476   1.812
19955OST    PA130794   3.594  14.685   0.016
19955OST    PA230795   3.810  14.424   0.128
19955OST    PA330796   3.654  14.227  13.575
19955OST    PA430797   3.990  14.345   0.088
19955OST    PA530798   4.133  14.526   0.307
19955OST    PA630799   3.940  14.644   0.378
19956OST    PA130800  10.712  12.788  11.307
19956OST    PA230801  10.572  12.942  11.596
19956OST    PA330802  10.587  12.687  11.743
19956OST    PA430803  10.410  13.014  11.694
19956OST    PA530804  10.460  13.301  11.566
19956OST    PA630805  10.655  13.252  11.440
19957OST    PA130806   5.337   4.103   4.409
19957OST    PA230807   5.303   4.367   4.171
19957OST    PA330808   5.202   4.175   3.970
19957OST    PA430809   5.387   4.490   4.039
19957OST    PA530810   5.528   4.679   4.250
19957OST    PA630811   5.443   4.559   4.439
19958OST    PA130812  11.658   3.979   9.365
19958OST    PA230813  11.895   3.739   9.486
19958OST    PA330814  12.120   3.684   9.301
19958OST    PA430815  11.887   3.554   9.560
19958OST    PA530816  11.804   3.644   9.850
19958OST    PA630817  11.803   3.877   9.806
19959OST    PA130818  12.975   8.510   0.510
19959OST    PA230819  13.230   8.738   0.620
19959OST    PA330820  13.170   8.608   0.877
19959OST    PA430821  13.284   8.914   0.701
19959OST    PA530822  13.237   9.084   0.440
19959OST    PA630823  13.169   8.903   0.307
19960OST    PA130824   2.770  13.809   8.351
19960OST    PA230825   3.107  13.930   8.359
19960OST    PA330826   3.114  13.824   8.082
19960OST    PA430827   3.213  14.094   8.320
19960OST    PA530828   3.183  14.215   8.615
19960OST    PA630829   3.050  14.036   8.696
19961OST    PA130830   7.290   1.751  13.411
19961OST    PA230831   7.599   1.896  13.309
19961OST    PA330832   7.759   1.717  13.482
19961OST    PA430833   7.724   1.891  13.154
19961OST    PA530834   7.590   2.139  13.010
19961OST    PA630835   7.421   2.176  13.174
19962OST    PA130836  10.251  13.965   9.703
19962OST    PA230837  10.414  14.096   9.994
19962OST    PA330838  10.287  14.362   9.994
19962OST    PA430839  10.417  14.073  10.194
19962OST    PA530840  10.658  13.862  10.169
19962OST    PA630841  10.678  13.865   9.931
19963OST    PA130842  14.623  15.748   2.216
19963OST    PA230843  14.925  15.788   2.034
19963OST    PA330844  14.918   0.253   2.039
19963OST    PA430845  15.005  15.771   1.852
19963OST    PA530846  15.080  15.466   1.905
19963OST    PA630847  14.996  15.455   2.128
19964OST    PA130848   6.925   6.758   3.386
19964OST    PA230849   7.166   6.797   3.125
19964OST    PA330850   7.278   7.004   3.301
19964OST    PA430851   7.342   6.739   3.046
19964OST    PA530852   7.189   6.537   2.851
19964OST    PA630853   6.965   6.582   2.925
19965OST    PA130854   2.947  13.319   9.401
19965OST    PA230855   3.225  13.304   9.624
19965OST    PA330856   3.059  13.382   9.856
19965OST    PA430857   3.385  13.413   9.675
19965OST    PA530858   3.573  13.276   9.456
19965OST    PA630859   3.403  13.129   9.374
19966OST    PA130860   7.719  15.352  12.317
19966OST    PA230861   7.471  15.094  12.300
19966OST    PA330862   7.355  15.272  12.091
19966OST    PA430863   7.298  15.010  12.352
19966OST    PA530864   7.390  14.876  12.623
19966OST    PA630865   7.614  14.955  12.599
19967OST    PA130866   1.665   6.182   1.292
19967OST    PA230867   2.017   6.194   1.347
19967OST    PA330868   2.023   6.015   1.582
19967OST    PA430869   2.189   6.133   1.272
19967OST    PA530870   2.229   6.393   1.092
19967OST    PA630871   2.024   6.496   1.160
19968OST    PA130872   1.132   5.732   4.463
19968OST    PA230873   1.358   5.463   4.418
19968OST    PA330874   1.183   5.297   4.243
19968OST    PA430875   1.525   5.419   4.326
19968OST    PA530876   1.715   5.524   4.558
19968OST    PA630877   1.536   5.594   4.699
19969OST    PA130878   8.409   8.056  10.645
19969OST    PA230879   8.740   8.175  10.705
19969OST    PA330880   8.652   8.452  10.743
19969OST    PA430881   8.889   8.182  10.838
19969OST    PA530882   9.027   7.918  10.723
19969OST    PA630883   8.862   7.879  10.552
19970OST    PA130884   6.258   8.069  13.440
19970OST    PA230885   6.208   8.132   0.182
19970OST    PA330886   5.947   7.992   0.173
19970OST    PA430887   6.230   8.122   0.380
19970OST    PA530888   6.494   8.297   0.386
19970OST    PA630889   6.503   8.327   0.152
19971OST    PA130890   8.235  10.310  12.384
19971OST    PA230891   8.462  10.239  12.651
19971OST    PA330892   8.266  10.026  12.716
19971OST    PA430893   8.590  10.193  12.797
19971OST    PA530894   8.821  10.380  12.680
19971OST    PA630895   8.698  10.455  12.490
19972OST    PA130896  11.620   4.297   8.948
19972OST    PA230897  11.632   3.947   8.874
19972OST    PA330898  11.348   3.999   8.806
19972OST    PA430899  11.602   3.768   8.947
19972OST    PA530900  11.895   3.736   9.057
19972OST    PA630901  11.975   3.948   8.981
19973OST    PA130902   6.603   1.637   0.061
19973OST    PA230903   6.944   1.648   0.162
19973OST    PA330904   6.938   1.884  13.585
19973OST    PA430905   7.116   1.693   0.248
19973OST    PA530906   7.149   1.409   0.386
19973OST    PA630907   6.943   1.319   0.301
19974OST    PA130908  11.147   9.997   3.978
19974OST    PA230909  11.484   9.914   4.057
19974OST    PA330910  11.430   9.839   4.335
19974OST    PA430911  11.624   9.774   4.023
19974OST    PA530912  11.759   9.945   3.789
19974OST    PA630913  11.606  10.128   3.802
19975OST    PA130914   0.115  10.450   9.541
19975OST    PA230915   0.092  10.777   9.679
19975OST    PA330916  15.678  10.660   9.799
19975OST    PA430917   0.016  10.958   9.655
19975OST    PA530918   0.256  11.057   9.470
19975OST    PA630919   0.377  10.853   9.479
19976OST    PA130920   7.057   4.908  12.639
19976OST    PA230921   7.058   4.966  12.287
19976OST    PA330922   7.335   4.913  12.202
19976OST    PA430923   7.016   5.093  12.141
19976OST    PA530924   6.704   5.032  12.152
19976OST    PA630925   6.714   4.872  12.324
19977OST    PA130926   7.120   4.973   3.229
19977OST    PA230927   7.017   4.928   3.568
19977OST    PA330928   7.307   4.949   3.626
19977OST    PA430929   6.983   4.779   3.696
19977OST    PA530930   6.688   4.724   3.596
19977OST    PA630931   6.688   4.897   3.432
19978OST    PA130932  11.739  15.000   9.463
19978OST    PA230933  11.998  15.209   9.587
19978OST    PA330934  12.126  15.006   9.761
19978OST    PA430935  12.165  15.317   9.555
19978OST    PA530936  11.999  15.570   9.466
19978OST    PA630937  11.784  15.477   9.489
19979OST    PA130938   1.523  10.182   8.590
19979OST    PA230939   1.175  10.228   8.527
19979OST    PA330940   1.091  10.118   8.788
19979OST    PA430941   1.016  10.347   8.504
19979OST    PA530942   1.091  10.442   8.212
19979OST    PA630943   1.292  10.317   8.200
19980OST    PA130944  14.043   0.517   1.699
19980OST    PA230945  14.041   0.836   1.861
19980OST    PA330946  14.312   0.859   1.740
19980OST    PA430947  14.015   1.033   1.888
19980OST    PA530948  13.702   1.021   1.930
19980OST    PA630949  13.687   0.785   1.901
19981OST    PA130950   7.959   5.645   9.409
19981OST    PA230951   7.778   5.336   9.441
19981OST    PA330952   7.588   5.511   9.586
19981OST    PA430953   7.640   5.203   9.384
19981OST    PA530954   7.818   5.075   9.155
19981OST    PA630955   8.003   5.216   9.188
19982OST    PA130956   6.293   1.934   0.363
19982OST    PA230957   6.231   2.218   0.157
19982OST    PA330958   6.359   2.368   0.376
19982OST    PA430959   6.175   2.379   0.053
19982OST    PA530960   5.972   2.211  13.477
19982OST    PA630961   6.016   2.000  13.577
19983OST    PA130962   7.743   7.169   8.341
19983OST    PA230963   7.816   7.440   8.562
19983OST    PA330964   7.665   7.335   8.790
19983OST    PA430965   7.783   7.636   8.603
19983OST    PA530966   8.014   7.736   8.408
19983OST    PA630967   8.079   7.520   8.342
19984OST    PA130968   0.370   3.676   2.741
19984OST    PA230969   0.181   3.979   2.735
19984OST    PA330970   0.210   3.952   2.441
19984OST    PA430971   0.117   4.169   2.729
19984OST    PA530972   0.258   4.255   3.000
19984OST    PA630973   0.351   4.042   3.047
19985OST    PA130974   0.002   9.826  12.546
19985OST    PA230975   0.104  10.119  12.726
19985OST    PA330976   0.281  10.157  12.492
19985OST    PA430977   0.173  10.278  12.829
19985OST    PA530978   0.100  10.159  13.115
19985OST    PA630979   0.006   9.956  13.027
19986OST    PA130980  14.932  11.006  13.096
19986OST    PA230981  14.828  11.096  13.423
19986OST    PA330982  14.690  11.326  13.293
19986OST    PA430983  14.685  11.060  13.555
19986OST    PA530984  14.825  10.796   0.055
19986OST    PA630985  15.012  10.802  13.515
19987OST    PA130986   8.498  14.293   9.857
19987OST    PA230987   8.361  14.438   9.560
19987OST    PA330988   8.223  14.626   9.743
19987OST    PA430989   8.214  14.432   9.425
19987OST    PA530990   8.329  14.190   9.260
19987OST    PA630991   8.525  14.164   9.395
19988OST    PA130992   9.354   7.788  13.530
19988OST    PA230993   9.467   7.461   0.008
19988OST    PA330994   9.287   7.504   0.241
19988OST    PA430995   9.441   7.263  13.602
19988OST    PA530996   9.581   7.232  13.317
19988OST    PA630997   9.626   7.465  13.295
19989OST    PA130998  12.076   1.114  12.337
19989OST    PA230999  11.724   1.129  12.358
19989OST    PA331000  11.707   0.902  12.167
19989OST    PA431001  11.565   1.077  12.467
19989OST    PA531002  11.584   1.355  12.628
19989OST    PA631003  11.772   1.443  12.520
19990OST    PA131004   1.034   0.898   1.122
19990OST    PA231005   1.146   0.885   0.784
19990OST    PA331006   1.089   0.599   0.739
19990OST    PA431007   1.103   0.945   0.595
19990OST    PA531008   1.237   1.231   0.642
19990OST    PA631009   1.299   1.194   0.869
19991OST    PA131010  13.590   1.449   2.672
19991OST    PA231011  13.813   1.418   2.392
19991OST    PA331012  13.614   1.611   2.289
19991OST    PA431013  13.862   1.342   2.209
19991OST    PA531014  13.968   1.068   2.326
19991OST    PA631015  13.927   1.122   2.555
19992OST    PA131016  10.942  10.570   9.982
19992OST    PA231017  10.643  10.596  10.172
19992OST    PA331018  10.571  10.844  10.032
19992OST    PA431019  10.454  10.534  10.202
19992OST    PA531020  10.551  10.290  10.382
19992OST    PA631021  10.785  10.333  10.366
19993OST    PA131022  14.818   7.152   8.658
19993OST    PA231023  14.673   7.255   8.967
19993OST    PA331024  14.887   7.455   8.990
19993OST    PA431025  14.536   7.362   9.065
19993OST    PA531026  14.307   7.147   9.022
19993OST    PA631027  14.435   6.998   8.902
19994OST    PA131028  13.352   8.227   0.865
19994OST    PA231029  13.596   8.047   1.056
19994OST    PA331030  13.683   8.325   1.109
19994OST    PA431031  13.684   7.967   1.219
19994OST    PA531032  13.499   7.709   1.226
19994OST    PA631033  13.369   7.770   1.035
19995OST    PA131034  10.988   6.567   2.241
19995OST    PA231035  10.811   6.869   2.175
19995OST    PA331036  10.982   6.921   1.938
19995OST    PA431037  10.787   7.059   2.224
19995OST    PA531038  10.610   7.003   2.481
19995OST    PA631039  10.612   6.766   2.455
19996OST    PA131040  12.352  11.841  10.337
19996OST    PA231041  12.631  11.885  10.119
19996OST    PA331042  12.609  11.673   9.915
19996OST    PA431043  12.829  11.881  10.131
19996OST    PA531044  12.854  12.194  10.182
19996OST    PA631045  12.622  12.238  10.172
19997OST    PA131046   9.410  13.516   0.264
19997OST    PA231047   9.476  13.850   0.369
19997OST    PA331048   9.221  13.908   0.234
19997OST    PA431049   9.566  14.018   0.315
19997OST    PA531050   9.811  13.974   0.509
19997OST    PA631051   9.737  13.770   0.602
19998OST    PA131052   9.757  13.913   9.523
19998OST    PA231053   9.951  13.709   9.308
19998OST    PA331054   9.834  13.851   9.079
19998OST    PA431055  10.134  13.692   9.234
19998OST    PA531056  10.221  13.486   9.458
19998OST    PA631057  10.016  13.483   9.573
19999OST    PA131058   7.813   0.745  11.432
19999OST    PA231059   7.973   0.487  11.245
19999OST    PA331060   8.237   0.585  11.338
19999OST    PA431061   8.046   0.338  11.135
19999OST    PA531062   7.794   0.322  10.943
19999OST    PA631063   7.673   0.493  11.047
20000OST    PA131064  13.370  15.640  13.041
20000OST    PA231065  13.525  15.646  13.362
20000OST    PA331066  13.528  15.350  13.353
20000OST    PA431067  13.688  15.664  13.477
20000OST    PA531068  13.678   0.153  13.485
20000OST    PA631069  13.486   0.172  13.348
20001OST    PA131070   7.304  11.884   0.039
20001OST    PA231071   7.077  12.124   0.178
20001OST    PA331072   7.266  12.136   0.405
20001OST    PA431073   6.914  12.178   0.285
20001OST    PA531074   6.725  12.185   0.028
20001OST    PA631075   6.893  12.126  13.475
20002OST    PA131076   6.872   9.319   1.495
20002OST    PA231077   7.007   8.994   1.545
20002OST    PA331078   7.137   9.092   1.792
20002OST    PA431079   7.054   8.802   1.572
20002OST    PA531080   6.970   8.728   1.274
20002OST    PA631081   6.902   8.942   1.204
20003OST    PA131082   5.186   3.607   4.511
20003OST    PA231083   4.994   3.557   4.808
20003OST    PA331084   5.142   3.305   4.858
20003OST    PA431085   4.980   3.611   5.001
20003OST    PA531086   4.802   3.864   4.922
20003OST    PA631087   4.800   3.832   4.687
20004OST    PA131088  14.385   9.887   2.006
20004OST    PA231089  14.156   9.667   1.846
20004OST    PA331090  14.178   9.391   1.947
20004OST    PA431091  14.105   9.616   1.664
20004OST    PA531092  13.915   9.864   1.614
20004OST    PA631093  13.950   9.958   1.830
20005OST    PA131094   0.100   8.229  13.207
20005OST    PA231095  15.825   7.971  12.987
20005OST    PA331096  15.550   8.040  13.070
20005OST    PA431097  15.782   7.944  12.800
20005OST    PA531098   0.254   7.891  12.710
20005OST    PA631099   0.346   7.919  12.925
20006OST    PA131100  13.083   3.069  10.557
20006OST    PA231101  12.884   3.365  10.542
20006OST    PA331102  13.004   3.428  10.280
20006OST    PA431103  12.838   3.556  10.590
20006OST    PA531104  12.615   3.459  10.796
20006OST    PA631105  12.641   3.225  10.761
20007OST    PA131106   3.699   9.220  13.388
20007OST    PA231107   3.389   9.348  13.267
20007OST    PA331108   3.372   9.089  13.122
20007OST    PA431109   3.193   9.382  13.269
20007OST    PA531110   3.211   9.605  13.492
20007OST    PA631111   3.444   9.593  13.521
20008OST    PA131112  14.918   1.198  12.545
20008OST    PA231113  14.973   1.045  12.228
20008OST    PA331114  14.958   1.301  12.086
20008OST    PA431115  14.884   0.936  12.085
20008OST    PA531116  14.998   0.663  12.204
20008OST    PA631117  15.116   0.763  12.384
20009OST    PA131118   0.357  15.242  10.219
20009OST    PA231119   0.125  15.432  10.417
20009OST    PA331120   0.364  15.518  10.568
20009OST    PA431121  15.822  15.478  10.563
20009OST    PA531122  15.590  15.294  10.454
20009OST    PA631123  15.710  15.217  10.266
20010OST    PA131124   6.487  11.391  13.448
20010OST    PA231125   6.684  11.093  13.449
20010OST    PA331126   6.509  10.979   0.054
20010OST    PA431127   6.850  10.998  13.508
20010OST    PA531128   7.023  11.089  13.260
20010OST    PA631129   6.847  11.212  13.155
20011OST    PA131130   8.166  11.500   0.315
20011OST    PA231131   8.085  11.840   0.243
20011OST    PA331132   8.282  11.939   0.437
20011OST    PA431133   7.947  11.982   0.278
20011OST    PA531134   7.782  11.910   0.014
20011OST    PA631135   7.929  11.736  13.546
20012OST    PA131136   6.466  15.696   8.208
20012OST    PA231137   6.691   0.063   8.407
20012OST    PA331138   6.803   0.153   8.151
20012OST    PA431139   6.868   0.041   8.500
20012OST    PA531140   6.730   0.007   8.787
20012OST    PA631141   6.506   0.032   8.710
20013OST    PA131142   7.873   9.687  12.855
20013OST    PA231143   7.815   9.821  12.529
20013OST    PA331144   7.902  10.071  12.665
20013OST    PA431145   7.717   9.914  12.380
20013OST    PA531146   7.560   9.658  12.287
20013OST    PA631147   7.653   9.510  12.446
20014OST    PA131148   2.946   1.853   4.670
20014OST    PA231149   2.673   1.861   4.902
20014OST    PA331150   2.897   1.853   5.096
20014OST    PA431151   2.537   1.783   5.025
20014OST    PA531152   2.296   1.782   4.819
20014OST    PA631153   2.424   1.878   4.643
20015OST    PA131154   3.272   8.222   1.122
20015OST    PA231155   3.031   8.352   0.893
20015OST    PA331156   3.061   8.146   0.686
20015OST    PA431157   3.015   8.509   0.766
20015OST    PA531158   2.887   8.690   0.997
20015OST    PA631159   2.890   8.523   1.167
  15.82912  15.82912  13.60418
