[ moleculetype ]
; molname        nrexcl
IMP              1


[ atoms ]
; id type resnr residue   atom  cgnr    charge     mass

1      C4     1     IMP    PA1  1      0.00000     72.00
2    TN1a     1     IMP    PA2  2      0.00000     36.00
3     SC4     1     IMP    PA3  3      0.00000     54.00
4    SN2a     1     IMP    PA4  4      0.00000     54.00
5     SC4     1     IMP    PA5  5      0.00000     54.00
6     TC5     1     IMP    PA6  6      0.00000     36.00
7    TN3a     1     IMP    PA7  7      0.00000     36.00


[ bonds ]
;   i     j   funct   length   force.c.

; bond type 1
    1     2       1    0.307  10170.50           ; 1

; bond type 2
    2     3       1    0.220  9585.14           ; 2

; bond type 3
    3     4       1    0.293  8140.00           ; 3

; bond type 4
    3     5       1    0.194  9797.11           ; 4

; bond type 5
    4     5       1    0.297  9634.29           ; 5

; bond type 6
    5     6       1    0.305  12347.35           ; 6

; bond type 7
    3     7       1    0.352  9974.24           ; 7

; bond type 8
    6     7       1    0.235  10595.28           ; 8


[ angles ]
;   i     j     k   funct     angle   force.c.

; angle type 1
    3     5     7       2     56.55   1307.10           ; 1

; angle type 2
    5     3     6       2     55.66    768.54           ; 2

; angle type 3
    4     5     7       2    128.72   1249.13           ; 3

; angle type 4
    4     3     6       2    129.81    664.41           ; 4


[ dihedrals ]
;   i     j     k     l   funct     dihedral   force.c.   mult.

; dihedral type 1
    5     4     3     2       1        -1.04   11.73       1     ; 1


