FER in water
 2520
    1FER    PA1    1   3.174   2.584   0.517 -0.2513  0.0596  0.2189
    1FER    PA2    2   3.154   2.455   0.249 -0.3216  0.0942  0.2075
    1FER    PA3    3   3.248   2.711   0.231 -0.1481  0.0336  0.2336
    1FER    PA4    4   3.312   2.933   0.164 -0.2493 -0.1267  0.2918
    1FER    PA5    5   3.459   2.997  -0.015 -0.3423  0.1791  0.3082
    2FER    PA1    6   5.216   3.959   3.467  0.3555 -0.2293 -0.1633
    2FER    PA2    7   5.230   3.758   3.248 -0.0270 -0.1536 -0.2643
    2FER    PA3    8   5.072   3.970   3.179  0.1713  0.0640 -0.0646
    2FER    PA4    9   4.884   4.052   3.115 -0.1578 -0.1734  0.5056
    2FER    PA5   10   4.797   4.070   2.888  0.2860  0.2213  0.3776
    3FER    PA1   11   5.485   2.443   3.773 -0.0998  0.2637  0.3224
    3FER    PA2   12   5.267   2.468   3.572  0.1777 -0.3061 -0.0783
    3FER    PA3   13   5.244   2.237   3.716  0.2495 -0.1328  0.2176
    3FER    PA4   14   5.167   2.054   3.862  0.2591 -0.1328 -0.1070
    3FER    PA5   15   5.082   1.942   4.091 -0.1719 -0.0750 -0.2908
    4FER    PA1   16   1.509   4.474   5.171  0.1752 -0.5301  0.1439
    4FER    PA2   17   1.212   4.470   5.196  0.1654 -0.1168  0.1682
    4FER    PA3   18   1.298   4.299   5.001 -0.1086 -0.0525 -0.0156
    4FER    PA4   19   1.347   4.216   4.761  0.1148  0.1895  0.2852
    4FER    PA5   20   1.575   4.210   4.693  0.0405  0.3689  0.1761
    5FER    PA1   21   4.421   3.971   3.140 -0.0093  0.1063 -0.1884
    5FER    PA2   22   4.581   3.727   3.082 -0.0266  0.0642 -0.0628
    5FER    PA3   23   4.317   3.688   3.026 -0.0499  0.0096  0.0830
    5FER    PA4   24   4.076   3.665   2.957  0.1281 -0.2577 -0.2010
    5FER    PA5   25   3.949   3.650   2.725  0.2126 -0.2414  0.0440
    6FER    PA1   26   2.178   3.761   0.453  0.0345  0.2033 -0.0855
    6FER    PA2   27   2.293   3.587   0.665 -0.1713  0.2523  0.0705
    6FER    PA3   28   2.442   3.813   0.630 -0.0361  0.1591  0.0343
    6FER    PA4   29   2.602   3.901   0.512  0.0240 -0.1772 -0.1236
    6FER    PA5   30   2.845   3.882   0.446 -0.0724  0.0036  0.1523
    7FER    PA1   31   0.132   1.475   4.881 -0.4204  0.0811 -0.1689
    7FER    PA2   32   0.221   1.194   4.928  0.1945  0.2762 -0.0687
    7FER    PA3   33   0.039   1.209   4.725  0.1924 -0.1848 -0.1121
    7FER    PA4   34  -0.196   1.236   4.635 -0.3572  0.1739  0.3439
    7FER    PA5   35  -0.380   1.116   4.614 -0.3134  0.0974  0.1436
    8FER    PA1   36   4.580   5.077   2.995  0.3418  0.0877 -0.2999
    8FER    PA2   37   4.506   4.816   2.871 -0.0289  0.0755 -0.0693
    8FER    PA3   38   4.771   4.873   2.834 -0.0173 -0.1693 -0.4125
    8FER    PA4   39   5.005   4.908   2.855 -0.6140 -0.1543 -0.1734
    8FER    PA5   40   5.202   4.834   2.739  0.0578 -0.0677 -0.0663
    9FER    PA1   41   0.310   4.708   5.607 -0.1653  0.0554 -0.2640
    9FER    PA2   42   0.063   4.575   5.709  0.0370 -0.3221 -0.2501
    9FER    PA3   43   0.166   4.749   5.892 -0.4353  0.1514 -0.4104
    9FER    PA4   44   0.202   4.885   6.078 -0.0118  0.1101 -0.3241
    9FER    PA5   45   0.416   5.004   6.219 -0.0589  0.1166  0.2206
   10FER    PA1   46   6.517   0.952   4.405 -0.1085  0.2076  0.1389
   10FER    PA2   47   6.525   1.108   4.152 -0.0987  0.1358  0.0944
   10FER    PA3   48   6.707   1.202   4.333 -0.0779  0.1621  0.0602
   10FER    PA4   49   6.949   1.239   4.436 -0.1483  0.4328 -0.2419
   10FER    PA5   50   7.151   1.247   4.570  0.4432 -0.4435 -0.1188
   11FER    PA1   51   2.295   2.095   5.391  0.0583 -0.1305  0.0344
   11FER    PA2   52   2.445   2.341   5.315  0.0160 -0.0602  0.1754
   11FER    PA3   53   2.518   2.128   5.160  0.0674  0.0357  0.0659
   11FER    PA4   54   2.620   1.904   5.054 -0.0840 -0.1430  0.2440
   11FER    PA5   55   2.609   1.727   4.899 -0.1092 -0.0424 -0.0004
   12FER    PA1   56   0.430   3.575   5.696 -0.1539 -0.0860  0.1817
   12FER    PA2   57   0.631   3.556   5.915 -0.1242  0.0674  0.1691
   12FER    PA3   58   0.708   3.414   5.695  0.1431  0.4061  0.0355
   12FER    PA4   59   0.781   3.238   5.539  0.1590  0.4072  0.2039
   12FER    PA5   60   0.843   3.041   5.674 -0.1034 -0.3750  0.0002
   13FER    PA1   61   5.580   5.901   5.318 -0.3171 -0.1762 -0.1556
   13FER    PA2   62   5.514   6.078   5.088  0.0619  0.1840  0.0004
   13FER    PA3   63   5.533   5.817   5.011 -0.5317  0.1946 -0.2299
   13FER    PA4   64   5.493   5.623   4.830  0.0752  0.5801 -0.1935
   13FER    PA5   65   5.296   5.503   4.798  0.1546  0.1372  0.2652
   14FER    PA1   66   1.293   4.948   6.513 -0.0430  0.0968  0.1135
   14FER    PA2   67   1.370   5.024   6.791 -0.1083  0.2558  0.0889
   14FER    PA3   68   1.121   4.912   6.783 -0.0624  0.1517  0.1086
   14FER    PA4   69   0.917   4.742   6.810  0.1991  0.1981 -0.2018
   14FER    PA5   70   0.702   4.696   6.714  0.0657 -0.0073 -0.2040
   15FER    PA1   71   5.780   4.849   6.498 -0.0053  0.2364  0.1207
   15FER    PA2   72   6.010   4.662   6.530 -0.1889 -0.0458 -0.1528
   15FER    PA3   73   5.811   4.608   6.709 -0.1441  0.0428 -0.0756
   15FER    PA4   74   5.640   4.470   6.815 -0.2267  0.1036  0.5988
   15FER    PA5   75   5.551   4.248   6.848  0.4244  0.2679 -0.0271
   16FER    PA1   76   6.163   0.240   6.018 -0.1349 -0.0003  0.3767
   16FER    PA2   77   6.107   0.525   5.955 -0.2223 -0.0925  0.0170
   16FER    PA3   78   6.372   0.468   5.929 -0.1741 -0.0012  0.2810
   16FER    PA4   79   6.628   0.409   5.961  0.1582  0.0028  0.1085
   16FER    PA5   80   6.677   0.206   6.078 -0.5134  0.2807 -0.1319
   17FER    PA1   81   5.013   4.275   0.784 -0.1120 -0.2732  0.0472
   17FER    PA2   82   4.884   4.413   1.015 -0.0393 -0.4214  0.1780
   17FER    PA3   83   5.068   4.574   0.892  0.0558 -0.4059  0.3386
   17FER    PA4   84   5.208   4.776   0.886 -0.3368 -0.1504  0.0380
   17FER    PA5   85   5.367   4.849   1.058  0.0293  0.0803 -0.0033
   18FER    PA1   86   5.421   3.598   2.044 -0.0141  0.2032  0.1561
   18FER    PA2   87   5.201   3.509   2.224 -0.3374  0.3209 -0.1677
   18FER    PA3   88   5.168   3.413   1.971  0.0813  0.2009 -0.1841
   18FER    PA4   89   5.142   3.282   1.793 -0.4004 -0.3335  0.1138
   18FER    PA5   90   5.146   3.178   1.580 -0.1582 -0.0769  0.3257
   19FER    PA1   91   2.959   4.971   0.045  0.3185  0.0489  0.0036
   19FER    PA2   92   3.077   4.709   0.126  0.2508 -0.0772 -0.2916
   19FER    PA3   93   3.069   4.736  -0.145 -0.0865  0.0725 -0.2729
   19FER    PA4   94   3.063   4.684  -0.401 -0.1051 -0.0308 -0.5608
   19FER    PA5   95   3.098   4.561  -0.599  0.0962 -0.2496  0.1110
   20FER    PA1   96   2.542   5.958   5.449  0.0070  0.1292 -0.2105
   20FER    PA2   97   2.809   5.833   5.490  0.1277  0.4027 -0.1400
   20FER    PA3   98   2.765   5.892   5.227  0.1280  0.3396 -0.1544
   20FER    PA4   99   2.789   5.875   4.999  0.3006 -0.2532  0.5225
   20FER    PA5  100   2.866   6.045   4.830 -0.0109  0.2530  0.2412
   21bCD     C4  101   4.565   0.744   2.793 -0.2129 -0.0536 -0.0785
   21bCD     O2  102   4.589   0.957   2.746  0.5818  0.1340 -0.2514
   21bCD     C6  103   4.752   0.543   2.922 -0.1463 -0.4327  0.0560
   21bCD     C4  104   4.228   0.538   2.509  0.1336  0.0401  0.1628
   21bCD     O2  105   4.170   0.752   2.505 -0.0377  0.1449  0.0503
   21bCD     C6  106   4.308   0.390   2.742 -0.1755  0.1020  0.0673
   21bCD     C4  107   4.308   0.331   2.075  0.0005  0.0886 -0.1102
   21bCD     O2  108   4.196   0.522   2.021  0.0673  0.0342  0.3098
   21bCD     C6  109   4.281   0.130   2.296 -0.1446 -0.0249 -0.2617
   21bCD     C4  110   4.714   0.314   1.791  0.1475 -0.1845 -0.0401
   21bCD     O2  111   4.591   0.486   1.694  0.3701 -0.0603  0.3339
   21bCD     C6  112   4.641   0.050   1.891 -0.6959  0.1620 -0.4203
   21bCD     C4  113   5.155   0.502   1.904 -0.1185  0.1808 -0.0882
   21bCD     O2  114   5.049   0.673   1.777  0.1590  0.3331 -0.0332
   21bCD     C6  115   5.103   0.212   1.943  0.1870 -0.0599 -0.1299
   21bCD     C4  116   5.300   0.691   2.310 -0.0803 -0.0385  0.2687
   21bCD     O2  117   5.286   0.864   2.177  0.1431 -0.4219  0.1600
   21bCD     C6  118   5.400   0.412   2.264 -0.0406  0.1078 -0.2464
   21bCD     C4  119   5.054   0.799   2.714  0.0174 -0.4946  0.1905
   21bCD     O2  120   5.086   1.027   2.609 -0.0448 -0.0956  0.1440
   21bCD     C6  121   5.202   0.574   2.738  0.0773 -0.1924  0.5133
   22bCD     C4  122   1.574   4.735   1.493 -0.2277  0.0289  0.0020
   22bCD     O2  123   1.360   4.826   1.512  0.1338 -0.3116 -0.1815
   22bCD     C6  124   1.846   4.852   1.420  0.1599  0.4259 -0.4074
   22bCD     C4  125   1.507   4.256   1.549 -0.0665 -0.0462  0.2094
   22bCD     O2  126   1.306   4.339   1.636 -0.4337 -0.1454  0.0055
   22bCD     C6  127   1.786   4.349   1.568  0.0331 -0.5731  0.0478
   22bCD     C4  128   1.369   3.960   1.178  0.1558 -0.0085 -0.0479
   22bCD     O2  129   1.151   3.987   1.274 -0.1880  0.3169 -0.4722
   22bCD     C6  130   1.601   3.868   1.311 -0.2713 -0.2933  0.2864
   22bCD     C4  131   1.411   4.135   0.728 -0.2412  0.1032  0.0067
   22bCD     O2  132   1.173   4.104   0.737  0.2543 -0.3543  0.0211
   22bCD     C6  133   1.654   4.010   0.844 -0.0370 -0.0077  0.2331
   22bCD     C4  134   1.468   4.575   0.510 -0.2022 -0.0838 -0.0959
   22bCD     O2  135   1.252   4.555   0.486 -0.0764 -0.1735 -0.3382
   22bCD     C6  136   1.694   4.389   0.504  0.3115  0.2740  0.2590
   22bCD     C4  137   1.505   5.013   0.713  0.1684 -0.1620 -0.3053
   22bCD     O2  138   1.283   5.036   0.661  0.6097  0.1281 -0.0332
   22bCD     C6  139   1.742   4.943   0.546  0.0125  0.3937  0.1488
   22bCD     C4  140   1.568   5.114   1.192  0.1281  0.0060  0.1656
   22bCD     O2  141   1.385   5.215   1.131  0.5028  0.1308 -0.7686
   22bCD     C6  142   1.808   5.169   1.027  0.1976 -0.1287 -0.0107
   23bCD     C4  143   3.494   3.690   0.594  0.2282  0.1411  0.2534
   23bCD     O2  144   3.273   3.641   0.667 -0.5267 -0.1217 -0.0528
   23bCD     C6  145   3.748   3.543   0.567  0.2358 -0.2565 -0.2976
   23bCD     C4  146   3.497   4.150   0.494 -0.3211 -0.2102  0.1936
   23bCD     O2  147   3.294   4.132   0.535  0.1690 -0.0021  0.0869
   23bCD     C6  148   3.691   3.992   0.332  0.2802  0.2412  0.1229
   23bCD     C4  149   3.704   4.513   0.750  0.0726  0.1821 -0.1662
   23bCD     O2  150   3.491   4.566   0.826 -0.1636 -0.1868 -0.0785
   23bCD     C6  151   3.833   4.425   0.517  0.2672  0.0457  0.3712
   23bCD     C4  152   3.927   4.410   1.163 -0.0435  0.1864 -0.0361
   23bCD     O2  153   3.787   4.577   1.244  0.2820  0.1964  0.1544
   23bCD     C6  154   4.107   4.430   0.934  0.2632 -0.2916 -0.1003
   23bCD     C4  155   3.938   3.988   1.424 -0.1231 -0.1599 -0.1198
   23bCD     O2  156   3.801   4.144   1.539  0.1018  0.2735  0.2637
   23bCD     C6  157   4.196   4.076   1.297  0.0625  0.0421 -0.2444
   23bCD     C4  158   3.727   3.557   1.380  0.1562  0.0551 -0.4553
   23bCD     O2  159   3.539   3.632   1.524 -0.4200  0.0568  0.1691
   23bCD     C6  160   4.017   3.570   1.412 -0.1868 -0.0171 -0.0197
   23bCD     C4  161   3.568   3.377   0.975  0.1250 -0.0215  0.0370
   23bCD     O2  162   3.366   3.320   1.088 -0.0887  0.1840 -0.1812
   23bCD     C6  163   3.844   3.330   1.045 -0.2580 -0.1854 -0.0434
   24bCD     C4  164   4.152   3.433   2.152  0.1023 -0.1220 -0.0136
   24bCD     O2  165   4.341   3.561   2.220 -0.1932  0.0699 -0.1493
   24bCD     C6  166   3.892   3.397   2.245 -0.1379  0.4179 -0.0547
   24bCD     C4  167   4.248   3.277   1.686  0.1642  0.0119  0.2163
   24bCD     O2  168   4.398   3.452   1.714 -0.3210  0.2365  0.4722
   24bCD     C6  169   3.971   3.270   1.799  0.3898 -0.0868 -0.1389
   24bCD     C4  170   4.502   2.898   1.547  0.0805  0.0212 -0.0863
   24bCD     O2  171   4.667   3.064   1.529  0.1675  0.3028  0.2336
   24bCD     C6  172   4.249   2.867   1.448 -0.3213 -0.1114 -0.0658
   24bCD     C4  173   4.672   2.571   1.870 -0.0329 -0.0136 -0.0654
   24bCD     O2  174   4.854   2.712   1.835 -0.2857  0.0160 -0.4701
   24bCD     C6  175   4.456   2.457   1.719  0.0610  0.0097  0.6453
   24bCD     C4  176   4.633   2.524   2.342  0.1597 -0.1073  0.1181
   24bCD     O2  177   4.851   2.611   2.342 -0.2574 -0.1392 -0.0156
   24bCD     C6  178   4.485   2.365   2.180  0.0248 -0.1381  0.5607
   24bCD     C4  179   4.379   2.824   2.647  0.3490  0.1952  0.0224
   24bCD     O2  180   4.600   2.853   2.720 -0.1590  0.2062 -0.2083
   24bCD     C6  181   4.235   2.570   2.567 -0.0388  0.1800  0.1251
   24bCD     C4  182   4.173   3.259   2.589  0.1183  0.2837 -0.4144
   24bCD     O2  183   4.353   3.334   2.719 -0.3026 -0.4010  0.4772
   24bCD     C6  184   4.001   3.022   2.643 -0.3886 -0.1031  0.2582
   25bCD     C4  185   4.567   1.342   0.952 -0.1889 -0.1708 -0.0474
   25bCD     O2  186   4.586   1.502   0.780 -0.2784  0.0979 -0.6501
   25bCD     C6  187   4.595   1.048   0.994  0.2495 -0.1773  0.1048
   25bCD     C4  188   4.577   1.634   1.348  0.2242 -0.1601 -0.2441
   25bCD     O2  189   4.633   1.778   1.185  0.2026  0.1409 -0.2660
   25bCD     C6  190   4.629   1.358   1.372 -0.3081 -0.0181  0.0181
   25bCD     C4  191   4.180   1.820   1.579 -0.0401 -0.4174  0.2603
   25bCD     O2  192   4.216   1.999   1.421  0.1097 -0.3141  0.5726
   25bCD     C6  193   4.354   1.643   1.743 -0.6389 -0.3180  0.0878
   25bCD     C4  194   3.738   1.652   1.481 -0.0912  0.0010  0.2893
   25bCD     O2  195   3.756   1.880   1.385 -0.0338  0.0183 -0.2540
   25bCD     C6  196   3.793   1.568   1.758  0.2904 -0.0887  0.1272
   25bCD     C4  197   3.605   1.358   1.100 -0.0027  0.1799 -0.0683
   25bCD     O2  198   3.601   1.586   1.011 -0.1827  0.3468 -0.1306
   25bCD     C6  199   3.592   1.232   1.363  0.0802  0.5338 -0.3246
   25bCD     C4  200   3.813   1.114   0.734  0.0112 -0.1907 -0.1119
   25bCD     O2  201   3.770   1.317   0.630  0.5214 -0.4516  0.2275
   25bCD     C6  202   3.700   0.926   0.932 -0.2911 -0.2206 -0.0892
   25bCD     C4  203   4.292   1.094   0.629 -0.3499 -0.1732 -0.2087
   25bCD     O2  204   4.223   1.230   0.446  0.2348  0.0475 -0.0200
   25bCD     C6  205   4.170   0.854   0.721  0.1462  0.1237  0.1615
   26bCD     C4  206   5.695   1.732   2.481  0.1462  0.2337 -0.0075
   26bCD     O2  207   5.904   1.629   2.461 -0.2042 -0.2886  0.0328
   26bCD     C6  208   5.464   1.783   2.321  0.2977 -0.3857 -0.2641
   26bCD     C4  209   5.776   2.030   2.841 -0.0575  0.1652 -0.1668
   26bCD     O2  210   5.973   1.918   2.888  0.1717  0.0366 -0.2907
   26bCD     C6  211   5.511   1.933   2.797  0.0446 -0.2327 -0.1435
   26bCD     C4  212   5.867   2.506   2.760  0.2291 -0.1007 -0.2315
   26bCD     O2  213   6.056   2.443   2.859 -0.0180  0.7917  0.3999
   26bCD     C6  214   5.592   2.446   2.791 -0.0496  0.3161 -0.5091
   26bCD     C4  215   5.964   2.757   2.350 -0.1472 -0.0262 -0.2276
   26bCD     O2  216   6.187   2.737   2.455  0.1699 -0.0025 -0.1627
   26bCD     C6  217   5.702   2.754   2.439 -0.0689  0.4422 -0.0128
   26bCD     C4  218   6.006   2.582   1.894  0.2089  0.4607  0.1150
   26bCD     O2  219   6.218   2.615   1.909  0.2669  0.0334  0.0782
   26bCD     C6  220   5.774   2.735   1.932 -0.0162 -0.2150 -0.0896
   26bCD     C4  221   5.884   2.112   1.797  0.0046 -0.3353 -0.2172
   26bCD     O2  222   6.106   2.101   1.758 -0.4685  0.0256 -0.3565
   26bCD     C6  223   5.670   2.302   1.715  0.0608  0.0090  0.1462
   26bCD     C4  224   5.751   1.698   2.013  0.0163  0.0327 -0.1876
   26bCD     O2  225   5.965   1.612   1.980  0.7886 -0.1932 -0.5356
   26bCD     C6  226   5.546   1.820   1.853  0.0219  0.2306  0.1595
   27bCD     C4  227   3.566   2.427   1.404  0.2729  0.1099 -0.0860
   27bCD     O2  228   3.419   2.245   1.526  0.1858 -0.1786  0.1135
   27bCD     C6  229   3.838   2.460   1.341 -0.2284 -0.0630  0.5081
   27bCD     C4  230   3.300   2.829   1.369 -0.0312 -0.0577  0.0023
   27bCD     O2  231   3.121   2.672   1.367 -0.0042 -0.0778  0.0985
   27bCD     C6  232   3.550   2.824   1.219 -0.3633 -0.5296 -0.0887
   27bCD     C4  233   3.313   3.157   1.720  0.2242  0.1233  0.1961
   27bCD     O2  234   3.129   3.068   1.777  0.2235  0.0675  0.2370
   27bCD     C6  235   3.460   3.223   1.467 -0.4258 -0.3751 -0.1843
   27bCD     C4  236   3.562   3.177   2.138 -0.3385  0.0669  0.0691
   27bCD     O2  237   3.357   3.116   2.221  0.3020 -0.0904  0.3891
   27bCD     C6  238   3.637   3.330   1.897 -0.1570  0.0398  0.0573
   27bCD     C4  239   3.899   2.839   2.290  0.1595 -0.1843 -0.1656
   27bCD     O2  240   3.729   2.777   2.445  0.2989  0.1276 -0.0287
   27bCD     C6  241   3.997   3.051   2.126  0.2397  0.1359 -0.2658
   27bCD     C4  242   4.034   2.397   2.128  0.1662  0.1258 -0.1976
   27bCD     O2  243   3.939   2.339   2.330 -0.1910  0.6070  0.1097
   27bCD     C6  244   4.244   2.609   2.139  0.4563  0.0642  0.4356
   27bCD     C4  245   3.902   2.228   1.678  0.2620 -0.1501 -0.2250
   27bCD     O2  246   3.788   2.088   1.816  0.0941  0.4730  0.0385
   27bCD     C6  247   4.174   2.311   1.663 -0.0337 -0.3112  0.2348
   28bCD     C4  248   2.345   4.240   0.358  0.0363 -0.1436  0.1087
   28bCD     O2  249   2.156   4.171   0.245 -0.0343 -0.1968 -0.1202
   28bCD     C6  250   2.633   4.233   0.306  0.2960 -0.2098  0.3678
   28bCD     C4  251   2.239   4.290   0.815  0.0845  0.1889 -0.2179
   28bCD     O2  252   2.033   4.214   0.720  0.3378  0.0638  0.2331
   28bCD     C6  253   2.453   4.469   0.759 -0.0445 -0.2548  0.0959
   28bCD     C4  254   2.340   3.988   1.199 -0.1603 -0.1226 -0.1413
   28bCD     O2  255   2.119   3.944   1.162  0.2931 -0.3398 -0.2004
   28bCD     C6  256   2.503   4.250   1.180 -0.2671  0.1641 -0.0153
   28bCD     C4  257   2.582   3.583   1.123 -0.0312 -0.1791  0.0125
   28bCD     O2  258   2.375   3.498   1.192 -0.3422 -0.4748  0.6799
   28bCD     C6  259   2.744   3.798   1.225  0.2476 -0.2155  0.1123
   28bCD     C4  260   2.721   3.341   0.708 -0.1781  0.1892  0.1076
   28bCD     O2  261   2.533   3.214   0.790 -0.6021  0.4770 -0.2584
   28bCD     C6  262   2.919   3.459   0.853 -0.0514  0.0532  0.0676
   28bCD     C4  263   2.696   3.468   0.246 -0.2259 -0.1480 -0.2428
   28bCD     O2  264   2.542   3.306   0.245 -0.0120 -0.1232  0.1061
   28bCD     C6  265   2.973   3.466   0.324  0.1157  0.3015 -0.2593
   28bCD     C4  266   2.520   3.898   0.071 -0.0859 -0.3282  0.1835
   28bCD     O2  267   2.342   3.749   0.034  0.0003  0.2260  0.2991
   28bCD     C6  268   2.819   3.879   0.088 -0.0940  0.2454 -0.2649
   29bCD     C4  269   5.169   2.695   4.093  0.2956 -0.1366 -0.1775
   29bCD     O2  270   5.153   2.471   4.128  0.3269 -0.1078 -0.4918
   29bCD     C6  271   5.007   2.911   3.968 -0.0983  0.0057  0.4606
   29bCD     C4  272   5.668   2.745   4.081 -0.0984  0.2670  0.1786
   29bCD     O2  273   5.670   2.541   4.208  0.1535 -0.3883  0.2014
   29bCD     C6  274   5.517   2.957   4.068 -0.0505 -0.1203  0.1307
   29bCD     C4  275   5.904   2.637   3.682  0.0407 -0.1129 -0.0575
   29bCD     O2  276   5.978   2.453   3.802  0.3998 -0.0600  0.1033
   29bCD     C6  277   5.835   2.916   3.740  0.1260 -0.0372  0.2987
   29bCD     C4  278   5.722   2.450   3.267 -0.0512 -0.2320  0.1870
   29bCD     O2  279   5.779   2.249   3.385  0.3452 -0.3031  0.4333
   29bCD     C6  280   5.848   2.716   3.251 -0.1022 -0.2051  0.0314
   29bCD     C4  281   5.279   2.387   3.085 -0.0441 -0.4044 -0.0224
   29bCD     O2  282   5.345   2.180   3.127  0.1189  0.2689  0.2214
   29bCD     C6  283   5.395   2.670   3.023  0.1693  0.4496 -0.1527
   29bCD     C4  284   4.878   2.424   3.345  0.2563 -0.0638  0.0177
   29bCD     O2  285   4.898   2.161   3.327 -0.2066  0.0412  0.0696
   29bCD     C6  286   4.909   2.647   3.152  0.0420  0.2105 -0.1385
   29bCD     C4  287   4.801   2.539   3.821  0.1099 -0.1331  0.0165
   29bCD     O2  288   4.815   2.298   3.825 -0.1463  0.1761 -0.3532
   29bCD     C6  289   4.691   2.754   3.623  0.1234  0.1707  0.1919
   30bCD     C4  290   4.764   4.474   2.447  0.0756 -0.1111  0.2021
   30bCD     O2  291   4.818   4.251   2.495 -0.1112  0.0564 -0.1556
   30bCD     C6  292   4.528   4.652   2.477  0.4341  0.4076 -0.2251
   30bCD     C4  293   5.172   4.676   2.285 -0.4682  0.0934  0.2546
   30bCD     O2  294   5.260   4.505   2.398  0.2742 -0.1274 -0.0985
   30bCD     C6  295   5.000   4.869   2.385  0.0446 -0.4746  0.4141
   30bCD     C4  296   5.324   4.656   1.823  0.0351  0.1135 -0.1728
   30bCD     O2  297   5.460   4.486   1.908 -0.6796 -0.1145 -0.1921
   30bCD     C6  298   5.263   4.941   1.905  0.1310 -0.1070  0.3013
   30bCD     C4  299   5.043   4.502   1.429 -0.2338 -0.1445  0.0315
   30bCD     O2  300   5.196   4.331   1.460 -0.1570 -0.1958 -0.2632
   30bCD     C6  301   5.044   4.794   1.464  0.1719  0.5793  0.1272
   30bCD     C4  302   4.617   4.270   1.408  0.3561 -0.0624 -0.0981
   30bCD     O2  303   4.762   4.083   1.386  0.7316 -0.5077  0.1172
   30bCD     C6  304   4.600   4.526   1.268  0.4389  0.0077 -0.0543
   30bCD     C4  305   4.332   4.153   1.765  0.0812 -0.1482 -0.1267
   30bCD     O2  306   4.398   3.949   1.699 -0.4689  0.1688  0.1920
   30bCD     C6  307   4.211   4.344   1.594 -0.1028 -0.0012  0.0298
   30bCD     C4  308   4.384   4.259   2.234 -0.0681  0.0781 -0.0542
   30bCD     O2  309   4.473   4.045   2.216 -0.0326 -0.3157  0.3774
   30bCD     C6  310   4.201   4.405   2.064 -0.2526 -0.0509 -0.3462
   31bCD     C4  311   2.783   2.886   0.372 -0.0927  0.2553  0.1102
   31bCD     O2  312   2.967   3.038   0.382  0.1686 -0.0355 -0.4875
   31bCD     C6  313   2.541   2.855   0.527 -0.0653 -0.3593 -0.3163
   31bCD     C4  314   2.819   2.703  -0.076 -0.0689  0.5468  0.0550
   31bCD     O2  315   2.974   2.908  -0.110  0.2190  0.3640 -0.1457
   31bCD     C6  316   2.548   2.634   0.026 -0.3681  0.2813 -0.0798
   31bCD     C4  317   3.106   2.306  -0.207  0.1607 -0.2101 -0.0959
   31bCD     O2  318   3.260   2.484  -0.293  0.1470  0.0310 -0.2464
   31bCD     C6  319   2.826   2.307  -0.276 -0.0191 -0.2448 -0.0535
   31bCD     C4  320   3.240   1.998   0.141  0.2067  0.1266  0.0903
   31bCD     O2  321   3.447   2.081   0.102 -0.0147 -0.0209  0.4561
   31bCD     C6  322   2.979   1.943  -0.002  0.2969  0.1358 -0.3520
   31bCD     C4  323   3.208   2.071   0.611  0.0192  0.2668 -0.0076
   31bCD     O2  324   3.438   2.106   0.568 -0.1831 -0.2564 -0.0837
   31bCD     C6  325   2.990   1.968   0.453  0.0370 -0.1918 -0.2515
   31bCD     C4  326   3.087   2.383   0.964  0.0954  0.0807  0.2342
   31bCD     O2  327   3.314   2.395   0.978 -0.4488 -0.0273 -0.2160
   31bCD     C6  328   2.920   2.157   0.956 -0.2474  0.2134  0.1554
   31bCD     C4  329   2.882   2.823   0.845  0.1451 -0.2268 -0.0263
   31bCD     O2  330   3.099   2.903   0.892 -0.1516 -0.2373  0.3191
   31bCD     C6  331   2.696   2.631   0.994 -0.2382 -0.0623  0.1113
   32bCD     C4  332   4.955   4.444   3.567 -0.1441  0.1362  0.0603
   32bCD     O2  333   4.801   4.312   3.441 -0.4473  0.3712 -0.0923
   32bCD     C6  334   5.091   4.715   3.517  0.0860  0.0372 -0.1719
   32bCD     C4  335   5.070   4.175   3.964 -0.0991 -0.2863  0.1120
   32bCD     O2  336   4.872   4.053   3.910 -0.1929 -0.5637  0.2943
   32bCD     C6  337   5.103   4.462   4.004 -0.0403 -0.3300 -0.2824
   32bCD     C4  338   5.510   3.957   3.901  0.2157 -0.0924  0.0212
   32bCD     O2  339   5.380   3.763   3.939 -0.1187  0.0200 -0.1665
   32bCD     C6  340   5.523   4.219   4.016  0.4104  0.2002  0.0832
   32bCD     C4  341   5.775   3.875   3.486 -0.0927  0.3055  0.3563
   32bCD     O2  342   5.699   3.641   3.506  0.0163  0.2388  0.3990
   32bCD     C6  343   5.822   4.132   3.626  0.1137  0.1600 -0.3218
   32bCD     C4  344   5.668   3.974   3.011 -0.1233 -0.0914 -0.1995
   32bCD     O2  345   5.594   3.743   2.977  0.4312 -0.0498 -0.2588
   32bCD     C6  346   5.934   4.063   3.115 -0.1832  0.2579 -0.7127
   32bCD     C4  347   5.385   4.342   2.854  0.0750 -0.0099 -0.0311
   32bCD     O2  348   5.262   4.167   2.761 -0.3097 -0.4062  0.8962
   32bCD     C6  349   5.664   4.400   2.872 -0.2431  0.1721 -0.2666
   32bCD     C4  350   5.081   4.591   3.133 -0.0329 -0.1701 -0.2933
   32bCD     O2  351   4.929   4.477   2.988 -0.0823  0.5466 -0.0633
   32bCD     C6  352   5.343   4.725   3.142  0.3192  0.0039  0.2129
   33bCD     C4  353   5.821   0.990   2.492 -0.0381  0.0173  0.3768
   33bCD     O2  354   6.004   1.130   2.466  0.1402  0.1119  0.5469
   33bCD     C6  355   5.702   0.761   2.345 -0.1556  0.5299  0.2137
   33bCD     C4  356   5.552   1.154   2.865  0.0274  0.2736 -0.0891
   33bCD     O2  357   5.739   1.286   2.884  0.3863 -0.3501  0.5947
   33bCD     C6  358   5.489   0.875   2.782  0.2569  0.0100 -0.2439
   33bCD     C4  359   5.176   1.454   2.873 -0.0079 -0.0778  0.1792
   33bCD     O2  360   5.364   1.599   2.962  0.5731 -0.1054 -0.3867
   33bCD     C6  361   5.120   1.180   2.986 -0.2591  0.0512  0.0680
   33bCD     C4  362   4.968   1.591   2.458  0.1105 -0.1215 -0.1078
   33bCD     O2  363   5.080   1.785   2.500 -0.2983  0.0864 -0.0859
   33bCD     C6  364   4.859   1.365   2.611  0.1014 -0.0307 -0.3295
   33bCD     C4  365   5.095   1.451   2.005  0.0394  0.1718  0.0187
   33bCD     O2  366   5.185   1.663   2.026  0.1193 -0.5190 -0.1620
   33bCD     C6  367   4.881   1.292   2.166 -0.2597 -0.2805 -0.1146
   33bCD     C4  368   5.458   1.211   1.765  0.3178  0.2718 -0.2388
   33bCD     O2  369   5.513   1.420   1.722 -0.4400  0.0743  0.4109
   33bCD     C6  370   5.173   1.123   1.758 -0.3238  0.2745  0.6583
   33bCD     C4  371   5.794   0.993   2.015 -0.2480  0.0437  0.3689
   33bCD     O2  372   5.919   1.153   1.922  0.0201 -0.1682  0.2349
   33bCD     C6  373   5.612   0.824   1.901  0.1015 -0.1046  0.3306
   34bCD     C4  374   2.551   4.270   6.284 -0.1539 -0.3344 -0.1689
   34bCD     O2  375   2.654   4.347   6.103 -0.5466  0.3511 -0.0663
   34bCD     C6  376   2.518   4.362   6.558 -0.1836  0.7446 -0.0322
   34bCD     C4  377   2.235   3.948   6.107 -0.2510  0.2758 -0.4221
   34bCD     O2  378   2.310   4.047   5.925 -0.0520 -0.0054  0.1157
   34bCD     C6  379   2.166   4.098   6.354  0.0233  0.3682  0.2498
   34bCD     C4  380   2.352   3.473   6.091 -0.2530  0.0838 -0.2339
   34bCD     O2  381   2.355   3.523   5.871 -0.1686 -0.0644 -0.2693
   34bCD     C6  382   2.138   3.544   6.283 -0.1602  0.1892  0.0614
   34bCD     C4  383   2.792   3.286   6.231 -0.0407  0.0590  0.2866
   34bCD     O2  384   2.816   3.263   5.990  0.0971  0.3526  0.0993
   34bCD     C6  385   2.567   3.244   6.408 -0.5726  0.0789  0.0577
   34bCD     C4  386   3.181   3.479   6.446  0.0637  0.0540  0.1495
   34bCD     O2  387   3.279   3.462   6.239  0.2421 -0.0105  0.3427
   34bCD     C6  388   3.037   3.298   6.617  0.3212 -0.0907  0.2302
   34bCD     C4  389   3.284   3.925   6.612  0.0305 -0.1129  0.1344
   34bCD     O2  390   3.430   3.939   6.433  0.1979  0.1407  0.4858
   34bCD     C6  391   3.216   3.756   6.829  0.1916 -0.1668 -0.3084
   34bCD     C4  392   2.983   4.312   6.515 -0.1598 -0.0062 -0.0751
   34bCD     O2  393   3.137   4.335   6.374 -0.3535  0.1619  0.2318
   34bCD     C6  394   2.989   4.181   6.788 -0.2370 -0.2683 -0.0044
   35bCD     C4  395   3.847   3.427   4.786 -0.5083 -0.4479  0.1132
   35bCD     O2  396   4.016   3.289   4.753  0.1311 -0.0240 -0.2345
   35bCD     C6  397   3.700   3.518   5.017  0.1170 -0.1452  0.1220
   35bCD     C4  398   3.724   3.616   4.350  0.0123  0.1722  0.1000
   35bCD     O2  399   3.923   3.507   4.301 -0.2915  0.2407  0.1905
   35bCD     C6  400   3.670   3.823   4.568 -0.2119  0.2929 -0.2641
   35bCD     C4  401   3.386   3.477   4.047  0.0632  0.0249  0.1621
   35bCD     O2  402   3.554   3.350   3.958 -0.2291 -0.2262  0.2360
   35bCD     C6  403   3.374   3.748   4.146 -0.3985 -0.1350  0.2217
   35bCD     C4  404   3.025   3.185   4.160  0.0635  0.0239 -0.0045
   35bCD     O2  405   3.162   3.058   4.001 -0.1445 -0.0271 -0.5125
   35bCD     C6  406   2.953   3.477   4.171 -0.3060 -0.0342 -0.1783
   35bCD     C4  407   2.988   2.939   4.586  0.1674  0.0850 -0.0100
   35bCD     O2  408   3.054   2.781   4.434 -0.0241  0.0948  0.0605
   35bCD     C6  409   2.879   3.217   4.580  0.0653  0.4195 -0.3450
   35bCD     C4  410   3.276   2.831   4.979 -0.0291 -0.0648  0.0460
   35bCD     O2  411   3.323   2.638   4.854  0.3280 -0.5138  0.0751
   35bCD     C6  412   3.037   2.953   5.049  0.3499 -0.8078  0.2256
   35bCD     C4  413   3.677   3.069   5.087  0.0813 -0.2421 -0.1961
   35bCD     O2  414   3.784   2.876   5.036  0.0043 -0.1765  0.4015
   35bCD     C6  415   3.457   3.139   5.256 -0.4137 -0.4847 -0.5820
   36bCD     C4  416   4.549   1.851   2.052 -0.4006 -0.2206  0.0817
   36bCD     O2  417   4.371   2.011   2.014 -0.0626  0.6711  0.1842
   36bCD     C6  418   4.633   1.623   2.206  0.2800 -0.1367 -0.3304
   36bCD     C4  419   4.810   1.947   1.660  0.0729 -0.1263 -0.0272
   36bCD     O2  420   4.643   2.115   1.620 -0.2340 -0.2034 -0.4381
   36bCD     C6  421   4.794   1.666   1.760  0.0639 -0.3082 -0.1868
   36bCD     C4  422   5.233   2.173   1.695 -0.3316 -0.1403 -0.3099
   36bCD     O2  423   5.102   2.347   1.643  0.0500 -0.2190 -0.0638
   36bCD     C6  424   5.244   1.892   1.676 -0.4444  0.0812 -0.1406
   36bCD     C4  425   5.415   2.340   2.139  0.0720  0.1985  0.0051
   36bCD     O2  426   5.369   2.561   2.053 -0.1611  0.0146 -0.0446
   36bCD     C6  427   5.519   2.094   2.025 -0.3649  0.1560  0.1963
   36bCD     C4  428   5.265   2.313   2.595  0.2367  0.3523  0.0767
   36bCD     O2  429   5.243   2.535   2.573 -0.1525 -0.1197  0.2951
   36bCD     C6  430   5.459   2.104   2.494  0.1765  0.2332 -0.1807
   36bCD     C4  431   4.860   2.130   2.788  0.2393 -0.1927 -0.2489
   36bCD     O2  432   4.805   2.351   2.772 -0.4991 -0.4202 -0.5156
   36bCD     C6  433   5.065   1.966   2.868 -0.1562  0.0762 -0.1465
   36bCD     C4  434   4.492   1.941   2.527 -0.1747  0.6251 -0.0242
   36bCD     O2  435   4.410   2.166   2.540  0.1399  0.1319  0.1080
   36bCD     C6  436   4.687   1.769   2.724  0.1654 -0.2366 -0.0072
   37bCD     C4  437   3.893   4.851   1.706  0.0097 -0.0589  0.1497
   37bCD     O2  438   3.939   4.682   1.856 -0.1600 -0.0416  0.1867
   37bCD     C6  439   4.017   4.919   1.435  0.3024  0.0564 -0.4814
   37bCD     C4  440   3.743   5.223   1.992  0.1204 -0.1643  0.2572
   37bCD     O2  441   3.781   5.048   2.144  0.3164 -0.8431 -0.1824
   37bCD     C6  442   3.721   5.278   1.702  0.3034 -0.0115 -0.2836
   37bCD     C4  443   4.035   5.560   2.167  0.1067 -0.0302 -0.1268
   37bCD     O2  444   4.046   5.405   2.335 -0.0715 -0.0897  0.2269
   37bCD     C6  445   3.849   5.635   1.933 -0.0230  0.0634  0.1830
   37bCD     C4  446   4.503   5.697   2.104  0.1459 -0.0078  0.2469
   37bCD     O2  447   4.491   5.616   2.322  0.0715  0.1525  0.0615
   37bCD     C6  448   4.314   5.757   1.905  0.0983 -0.3090  0.2017
   37bCD     C4  449   4.876   5.434   1.937 -0.1815 -0.0978  0.1112
   37bCD     O2  450   4.913   5.424   2.155  0.4706 -0.4659 -0.3557
   37bCD     C6  451   4.840   5.680   1.766  0.0163  0.1638 -0.1006
   37bCD     C4  452   4.778   4.980   1.773  0.0225 -0.1185  0.0344
   37bCD     O2  453   4.830   4.916   1.999 -0.1926 -0.0066 -0.1600
   37bCD     C6  454   4.922   5.144   1.581 -0.0757 -0.3515  0.7764
   37bCD     C4  455   4.372   4.761   1.633 -0.1422  0.3138  0.0235
   37bCD     O2  456   4.448   4.663   1.822  0.5780  0.0408 -0.1015
   37bCD     C6  457   4.526   4.912   1.435  0.2172  0.0370  0.0782
   38bCD     C4  458   3.734   6.335   2.932  0.1268  0.0471  0.0707
   38bCD     O2  459   3.802   6.121   2.966 -0.0718  0.5918 -0.5344
   38bCD     C6  460   3.554   6.463   2.722 -0.0309  0.1110 -0.2507
   38bCD     C4  461   4.047   6.582   3.201 -0.2136  0.0998  0.1303
   38bCD     O2  462   4.053   6.390   3.328  0.2737 -0.3037 -0.3280
   38bCD     C6  463   3.854   6.757   3.064  0.3482 -0.4034  0.2432
   38bCD     C4  464   4.524   6.672   3.088  0.2001 -0.0875 -0.1325
   38bCD     O2  465   4.520   6.478   3.229  0.3435 -0.5621  0.3622
   38bCD     C6  466   4.359   6.929   3.092  0.0737 -0.0617 -0.0916
   38bCD     C4  467   4.731   6.573   2.653 -0.1421  0.2756 -0.3098
   38bCD     O2  468   4.828   6.395   2.781  0.1369 -0.1053  0.2955
   38bCD     C6  469   4.629   6.840   2.709 -0.5134 -0.3836  0.1202
   38bCD     C4  470   4.557   6.374   2.268  0.0227  0.1794 -0.1884
   38bCD     O2  471   4.696   6.191   2.347  0.5269 -0.0235 -0.0352
   38bCD     C6  472   4.605   6.677   2.257  0.3519  0.6111  0.4438
   38bCD     C4  473   4.095   6.208   2.191 -0.2374  0.1299  0.0388
   38bCD     O2  474   4.220   6.007   2.249  0.5847 -0.2678  0.0813
   38bCD     C6  475   4.134   6.471   2.059 -0.3453 -0.2985 -0.4092
   38bCD     C4  476   3.722   6.147   2.487  0.1544 -0.1483 -0.1489
   38bCD     O2  477   3.800   5.937   2.479 -0.0935  0.1432 -0.3638
   38bCD     C6  478   3.695   6.332   2.257 -0.2161  0.1131  0.0555
   39bCD     C4  479   6.429   2.284   2.285 -0.1282 -0.1150  0.0181
   39bCD     O2  480   6.605   2.384   2.163  0.5468  0.0571 -0.2872
   39bCD     C6  481   6.279   2.352   2.529  0.1763  0.1669 -0.1364
   39bCD     C4  482   6.410   1.817   2.129  0.2937 -0.3039  0.0362
   39bCD     O2  483   6.549   1.906   1.950  0.0228  0.1982 -0.0720
   39bCD     C6  484   6.149   1.913   2.239 -0.0624 -0.5221 -0.1343
   39bCD     C4  485   6.632   1.454   2.343 -0.3375 -0.3230  0.2029
   39bCD     O2  486   6.803   1.549   2.187  0.1454  0.2259 -0.2789
   39bCD     C6  487   6.343   1.428   2.317 -0.2087  0.2835  0.0099
   39bCD     C4  488   6.813   1.476   2.810  0.3295  0.1016 -0.0054
   39bCD     O2  489   7.007   1.445   2.704 -0.2066  0.4393 -0.0504
   39bCD     C6  490   6.554   1.342   2.817 -0.2089  0.1317  0.1713
   39bCD     C4  491   6.882   1.897   3.047  0.0842  0.1548  0.0084
   39bCD     O2  492   7.086   1.811   2.997 -0.2090  0.4668  0.0535
   39bCD     C6  493   6.599   1.784   3.064  0.0157  0.3140  0.0650
   39bCD     C4  494   6.893   2.367   2.986 -0.0051  0.0422 -0.2553
   39bCD     O2  495   7.103   2.325   2.922  0.3211 -0.4098 -0.2582
   39bCD     C6  496   6.745   2.274   3.246 -0.0695 -0.2943  0.0571
   39bCD     C4  497   6.637   2.570   2.631  0.1183  0.0736  0.1017
   39bCD     O2  498   6.855   2.622   2.547  0.1025 -0.0992  0.0389
   39bCD     C6  499   6.530   2.562   2.892 -0.1336 -0.0239 -0.0317
   40bCD     C4  500   5.561   3.137   2.041 -0.0913 -0.2543  0.2519
   40bCD     O2  501   5.708   3.157   2.219  0.1470  0.3286  0.3071
   40bCD     C6  502   5.583   3.167   1.755  0.2230 -0.3398  0.0546
   40bCD     C4  503   5.117   2.996   2.179 -0.3130 -0.1208  0.4505
   40bCD     O2  504   5.228   2.954   2.363  0.3273  0.2521 -0.1196
   40bCD     C6  505   5.233   2.910   1.894  0.4974 -0.5538 -0.7049
   40bCD     C4  506   4.768   3.339   2.207 -0.0291  0.1497 -0.0391
   40bCD     O2  507   4.814   3.301   2.427 -0.0466 -0.1632 -0.3469
   40bCD     C6  508   4.788   3.176   1.940 -0.4507 -0.2510 -0.0390
   40bCD     C4  509   4.842   3.827   2.129  0.0475  0.2735 -0.2366
   40bCD     O2  510   4.856   3.782   2.357  0.1477 -0.3399  0.0077
   40bCD     C6  511   4.649   3.677   1.968 -0.1615  0.1484  0.0692
   40bCD     C4  512   5.226   4.019   1.944 -0.2594 -0.1852  0.0424
   40bCD     O2  513   5.239   4.103   2.171 -0.3269  0.1163 -0.2199
   40bCD     C6  514   5.022   3.939   1.755  0.1337 -0.4435  0.0600
   40bCD     C4  515   5.681   3.949   1.824  0.2301  0.0720  0.3948
   40bCD     O2  516   5.723   4.060   2.018 -0.0971  0.0542 -0.2572
   40bCD     C6  517   5.469   3.962   1.618 -0.1331  0.4388 -0.3330
   40bCD     C4  518   5.857   3.495   1.864 -0.0984  0.1727 -0.0801
   40bCD     O2  519   5.952   3.605   2.061  0.3159  0.4766  0.3066
   40bCD     C6  520   5.788   3.566   1.608  0.0250 -0.6247  0.0244
   41WN      WN  521   4.835   4.336   1.897 -0.1107  0.1460 -0.2017
   42WN      WN  522   6.156   3.004   4.019  0.0306 -0.2466 -0.0553
   43WN      WN  523   0.107   4.124   2.138 -0.2157  0.1596 -0.4298
   44WN      WN  524   5.773   0.867   5.305  0.1300 -0.1266  0.0451
   45WN      WN  525   0.511   3.196   0.195 -0.0921  0.2044 -0.2574
   46WN      WN  526   6.380   1.875   6.238 -0.1155  0.0835  0.0577
   47WN      WN  527   4.247   4.613   4.807  0.3065 -0.0033  0.0238
   48WN      WN  528   1.664   5.254   5.469  0.0976 -0.0243 -0.0809
   49WN      WN  529   0.496   4.161   4.379  0.0708 -0.0695 -0.2997
   50WN      WN  530   0.489   0.630   3.674  0.1827  0.1343  0.1569
   51WN      WN  531   0.723   1.815   0.352 -0.2016  0.1986 -0.1865
   52WN      WN  532   1.383   3.804   6.370  0.0696  0.0832  0.3531
   53WN      WN  533   4.757   1.287   3.510 -0.0767  0.1849  0.2033
   54WN      WN  534   1.493   0.183   1.455 -0.1121  0.2241 -0.1107
   55WN      WN  535   3.112   3.624   2.540  0.2931 -0.1198  0.1807
   56WN      WN  536   1.458   2.561   0.031 -0.3244  0.2467  0.0270
   57WN      WN  537   3.214   3.817   1.122  0.0312  0.0271  0.0263
   58WN      WN  538   4.273   3.265   3.239 -0.3108 -0.1589 -0.0288
   59WN      WN  539   6.470   4.573   3.163  0.1455  0.0970 -0.1496
   60WN      WN  540   2.542   0.529   1.086 -0.0294  0.0008  0.2876
   61WN      WN  541   6.317   0.009   3.584  0.1448  0.3152 -0.0353
   62WN      WN  542   4.698   5.760   3.595  0.1685  0.0849  0.0933
   63WN      WN  543   5.612   1.244   3.833  0.0109 -0.0175  0.0737
   64WN      WN  544   1.601   4.297   6.548 -0.0193 -0.2869 -0.3115
   65WN      WN  545   5.372   0.537   5.530 -0.0878 -0.2625  0.1046
   66WN      WN  546   4.620   2.532   0.132  0.1199 -0.1431 -0.1293
   67WN      WN  547   2.535   1.517   5.937  0.1741  0.1421  0.2164
   68WN      WN  548   1.251   4.867   5.496  0.0715 -0.2622  0.0522
   69WN      WN  549   3.410   3.833   5.036 -0.0954  0.0868  0.2986
   70WN      WN  550   3.606   2.883   0.812  0.1907 -0.0875 -0.1439
   71WN      WN  551   1.881   0.603   0.356  0.1532  0.0958  0.1362
   72WN      WN  552   1.786   6.459   3.910  0.2176  0.0299  0.0264
   73WN      WN  553   2.968   4.024   2.791  0.1065 -0.0715 -0.0738
   74WN      WN  554   0.743   4.668   2.605 -0.2026  0.1410  0.1250
   75WN      WN  555   6.280   0.103   4.096 -0.3490  0.0007 -0.2466
   76WN      WN  556   1.344   2.723   0.534  0.2317  0.1868 -0.1221
   77WN      WN  557   1.231   0.924   5.829  0.1092 -0.2909  0.4291
   78WN      WN  558   0.326   1.946   1.308 -0.2274  0.1719 -0.1529
   79WN      WN  559   1.587   0.468   1.090 -0.4162 -0.1822  0.1192
   80WN      WN  560   4.806   2.992   5.279  0.3272 -0.0391  0.2147
   81WN      WN  561   3.502   0.945   5.616 -0.1038  0.0265  0.0886
   82WN      WN  562   5.110   3.704   2.807  0.1283 -0.0247 -0.0995
   83WN      WN  563   3.497   2.955   3.043 -0.1487  0.1542 -0.2939
   84WN      WN  564   4.416   3.002   2.184  0.3028 -0.2471  0.0345
   85WN      WN  565   1.182   3.429   6.034  0.1670 -0.0598  0.1458
   86WN      WN  566   1.176   2.246   1.508 -0.0262  0.2765  0.1251
   87WN      WN  567   1.144   3.616   3.521  0.0383  0.1866 -0.0406
   88WN      WN  568   0.253   2.371   4.195 -0.3501  0.0204 -0.2725
   89WN      WN  569   3.712   2.476   6.546 -0.1237 -0.2471 -0.1002
   90WN      WN  570   5.752   3.936   5.283 -0.0708 -0.0993 -0.0973
   91WN      WN  571   2.740   1.855   3.322 -0.2061  0.0497 -0.1761
   92WN      WN  572   4.852   3.190   6.346  0.1950  0.1305 -0.1423
   93WN      WN  573   4.128   1.030   2.048  0.0929  0.1896 -0.0449
   94WN      WN  574   6.441   2.391   6.443 -0.0631  0.1213  0.1576
   95WN      WN  575   3.342   4.970   5.961  0.1399  0.0438 -0.2454
   96WN      WN  576   1.334   5.967   3.812 -0.1922 -0.3804  0.3811
   97WN      WN  577   2.166   2.700   3.165 -0.0457 -0.3619  0.1806
   98WN      WN  578   4.281   2.394   6.363 -0.0188 -0.3750  0.1915
   99WN      WN  579   1.930   1.508   4.674  0.0187 -0.1258  0.2492
  100WN      WN  580   5.241   2.356   6.356 -0.0340 -0.1851 -0.0141
  101WN      WN  581   0.349   0.068   1.977 -0.4992  0.1492 -0.1499
  102WN      WN  582   4.524   5.662   1.507  0.1367  0.2420 -0.0319
  103WN      WN  583   3.572   4.558   6.250  0.2029  0.0420 -0.0442
  104WN      WN  584   2.283   5.050   2.025 -0.1603 -0.0181 -0.1661
  105WN      WN  585   3.146   0.823   4.419  0.3535 -0.2302 -0.4270
  106WN      WN  586   1.969   4.678   4.133 -0.0237  0.2249  0.0457
  107WN      WN  587   5.737   0.199   1.415  0.0088  0.3484  0.0244
  108WN      WN  588   4.219   4.638   4.281  0.1174 -0.1130 -0.1584
  109WN      WN  589   2.637   4.974   0.643  0.2625  0.0123 -0.1653
  110WN      WN  590   2.738   1.579   3.859  0.0821 -0.0020 -0.2800
  111WN      WN  591   3.543   6.375   6.068  0.3331 -0.2774 -0.2402
  112WN      WN  592   3.388   2.085   2.123 -0.2258  0.0921  0.1505
  113WN      WN  593   4.383   1.979   6.001 -0.0125 -0.1847  0.2820
  114WN      WN  594   3.733   4.549   2.351  0.1186  0.1562 -0.1465
  115WN      WN  595   1.520   1.530   5.574  0.0619  0.0554  0.0889
  116WN      WN  596   2.865   4.863   4.002  0.1610  0.1106  0.1818
  117WN      WN  597   3.431   0.379   0.837 -0.1193 -0.1107 -0.2718
  118WN      WN  598   5.203   3.183   5.972 -0.2128 -0.0525 -0.4486
  119WN      WN  599   6.548   3.102   2.555  0.1513  0.0217 -0.2680
  120WN      WN  600   3.923   3.303   3.634 -0.2210  0.3928 -0.1746
  121WN      WN  601   0.845   5.905   0.924 -0.1025  0.0291 -0.1791
  122WN      WN  602   0.846   2.981   2.842 -0.2351  0.1044  0.0249
  123WN      WN  603   6.419   3.296   3.342 -0.0612  0.0843  0.0703
  124WN      WN  604   5.760   6.199   0.678 -0.1883 -0.0188 -0.2863
  125WN      WN  605   0.418   2.901   1.661 -0.0452 -0.0009  0.2204
  126WN      WN  606   6.473   0.633   6.340  0.1657  0.1764  0.1601
  127WN      WN  607   6.150   1.597   1.000  0.1183 -0.0298  0.3089
  128WN      WN  608   6.112   5.419   1.229 -0.4200 -0.0534 -0.1641
  129WN      WN  609   0.479   0.871   4.121 -0.1701  0.0632 -0.0911
  130WN      WN  610   3.320   4.777   1.246 -0.1379 -0.3847  0.3207
  131WN      WN  611   0.307   5.882   5.192 -0.0908  0.0413  0.1039
  132WN      WN  612   5.116   2.041   5.954  0.0622  0.3400 -0.0067
  133WN      WN  613   4.853   5.849   1.072 -0.2691  0.0342  0.1117
  134WN      WN  614   6.176   2.708   5.645 -0.0173  0.2898 -0.0301
  135WN      WN  615   0.902   3.692   6.421 -0.2349  0.0945 -0.2059
  136WN      WN  616   2.100   6.253   4.355  0.1889  0.0931 -0.0432
  137WN      WN  617   4.348   4.780   5.713  0.1531 -0.4431 -0.1784
  138WN      WN  618   5.938   1.100   3.405  0.1160 -0.1774 -0.0278
  139WN      WN  619   2.303   5.634   5.142  0.2801  0.0898 -0.1474
  140WN      WN  620   2.769   2.394   0.607  0.3328  0.0127 -0.4388
  141WN      WN  621   5.847   0.440   3.257  0.1434  0.1101  0.0505
  142WN      WN  622   1.579   3.222   5.756 -0.0110 -0.3049 -0.0741
  143WN      WN  623   2.625   1.864   0.826 -0.0268 -0.0881 -0.0117
  144WN      WN  624   1.630   3.696   3.738 -0.1405  0.1717 -0.0328
  145WN      WN  625   5.783   3.669   1.202  0.2467 -0.1850  0.0110
  146WN      WN  626   1.275   5.343   1.618  0.1964 -0.0867 -0.1229
  147WN      WN  627   6.383   5.508   3.250  0.2369  0.3328  0.0670
  148WN      WN  628   0.532   1.265   5.246 -0.0260 -0.1821  0.2748
  149WN      WN  629   3.740   5.521   3.892 -0.1960 -0.1793  0.2388
  150WN      WN  630   2.806   2.828   2.216  0.1528 -0.1799  0.2317
  151WN      WN  631   4.371   6.559   0.886 -0.1002  0.2308 -0.0270
  152WN      WN  632   1.326   4.199   2.923  0.0575  0.0400  0.0276
  153WN      WN  633   3.495   0.672   4.868  0.0464  0.1143  0.0544
  154WN      WN  634   5.405   4.532   3.736 -0.2905  0.2005 -0.1891
  155WN      WN  635   5.458   1.918   0.484  0.0727 -0.3019  0.2405
  156WN      WN  636   2.510   1.385   0.636 -0.2575 -0.2677 -0.0571
  157WN      WN  637   6.309   1.988   0.368 -0.0533 -0.2064 -0.0110
  158WN      WN  638   3.827   4.186   2.030 -0.1026  0.2217 -0.2562
  159WN      WN  639   2.282   4.898   1.160  0.0528  0.0980 -0.2995
  160WN      WN  640   4.334   4.225   6.431 -0.2248  0.2204 -0.0409
  161WN      WN  641   1.097   1.715   1.226 -0.1813 -0.3117 -0.2240
  162WN      WN  642   4.009   0.766   4.890 -0.1140 -0.0007 -0.1202
  163WN      WN  643   2.007   0.573   4.256 -0.1118  0.0814 -0.3530
  164WN      WN  644   4.882   5.463   5.211  0.3888  0.0394 -0.0592
  165WN      WN  645   1.130   2.865   1.071 -0.0382  0.4247 -0.0919
  166WN      WN  646   2.390   4.822   4.458  0.4550  0.1266 -0.1870
  167WN      WN  647   0.559   3.868   2.006  0.1749 -0.0636 -0.4263
  168WN      WN  648   2.930   0.210   5.372 -0.1313  0.0377  0.0499
  169WN      WN  649   5.481   2.801   1.586 -0.2680 -0.1972 -0.0839
  170WN      WN  650   1.967   4.476   1.931  0.6151  0.1604 -0.0577
  171WN      WN  651   3.102   4.729   4.912 -0.1319 -0.1529  0.0706
  172WN      WN  652   5.918   1.543   4.179  0.0508 -0.4795  0.2030
  173WN      WN  653   0.949   4.952   3.275  0.2587 -0.1465 -0.0482
  174WN      WN  654   6.151   5.018   2.125 -0.1812 -0.2750  0.4341
  175WN      WN  655   5.745   0.765   0.600  0.0430 -0.0344  0.0037
  176WN      WN  656   0.686   0.159   6.159 -0.0243 -0.0219 -0.1317
  177WN      WN  657   0.337   5.172   5.696  0.2001 -0.2622 -0.0162
  178WN      WN  658   4.788   0.045   0.401  0.2539  0.2338  0.0847
  179WN      WN  659   2.046   1.475   5.760 -0.2508  0.2248 -0.1668
  180WN      WN  660   5.890   2.299   2.286 -0.0556  0.7885 -0.2205
  181WN      WN  661   2.580   4.106   3.477 -0.1687 -0.1559  0.0652
  182WN      WN  662   0.452   4.606   2.151 -0.1782 -0.2261 -0.1086
  183WN      WN  663   2.994   6.281   6.318 -0.2383 -0.2417  0.2679
  184WN      WN  664   2.379   4.824   4.976 -0.2842 -0.2625 -0.0456
  185WN      WN  665   5.928   3.011   0.074  0.0909  0.3142  0.2101
  186WN      WN  666   0.676   0.390   5.275 -0.1850 -0.0397  0.1291
  187WN      WN  667   5.788   1.419   5.457  0.0720 -0.2510 -0.0059
  188WN      WN  668   0.745   6.013   4.736  0.0967  0.2931 -0.3971
  189WN      WN  669   0.284   0.007   3.919  0.0929  0.1770 -0.0178
  190WN      WN  670   0.764   4.396   0.498 -0.1836 -0.0638  0.0608
  191WN      WN  671   5.083   5.554   1.456  0.1056 -0.0041 -0.0341
  192WN      WN  672   0.328   5.597   2.353 -0.0360  0.2159  0.0585
  193WN      WN  673   2.776   1.393   3.412  0.1485  0.0072 -0.4745
  194WN      WN  674   0.701   6.339   0.114 -0.2315  0.1540 -0.3008
  195WN      WN  675   6.056   3.828   2.598 -0.0482  0.3175  0.3805
  196WN      WN  676   1.602   6.533   0.110  0.0722 -0.1948  0.0063
  197WN      WN  677   4.950   1.404   5.647  0.0958  0.0321 -0.2654
  198WN      WN  678   6.502   1.296   6.336 -0.2178 -0.0306 -0.0979
  199WN      WN  679   3.093   2.606   5.403  0.3283  0.2197 -0.0644
  200WN      WN  680   2.581   6.300   0.392 -0.3969  0.1197  0.2010
  201WN      WN  681   3.054   2.879   3.326 -0.2901  0.1067 -0.4123
  202WN      WN  682   2.748   6.207   1.564 -0.0533 -0.1705 -0.3070
  203WN      WN  683   6.182   0.497   3.771 -0.0397  0.1691 -0.1277
  204WN      WN  684   4.982   6.282   5.976  0.0357 -0.2403  0.1623
  205WN      WN  685   1.296   2.449   6.070  0.0760 -0.1654  0.4150
  206WN      WN  686   2.104   3.764   4.584 -0.3938 -0.0371 -0.0983
  207WN      WN  687   3.055   5.061   3.485  0.0828 -0.1777  0.2842
  208WN      WN  688   0.049   2.922   2.083  0.0612  0.4167 -0.0399
  209WN      WN  689   1.724   2.769   6.037 -0.1581  0.3497 -0.1714
  210WN      WN  690   2.204   4.923   3.035  0.1093  0.0134  0.0768
  211WN      WN  691   3.131   3.528   1.983  0.0095 -0.1653  0.0821
  212WN      WN  692   5.659   4.809   2.652  0.0343 -0.0621 -0.2879
  213WN      WN  693   2.190   6.173   5.254  0.3079 -0.0391 -0.1317
  214WN      WN  694   1.771   1.992   0.312 -0.1449 -0.3046 -0.3242
  215WN      WN  695   2.746   0.132   1.457 -0.0039 -0.0464  0.0341
  216WN      WN  696   3.064   6.121   4.293 -0.1312 -0.3617 -0.0841
  217WN      WN  697   3.462   3.718   3.468  0.1078 -0.1243  0.3848
  218WN      WN  698   1.332   1.700   3.097  0.3318  0.2999  0.0669
  219WN      WN  699   4.030   1.588   3.067  0.1961 -0.0691 -0.0164
  220WN      WN  700   2.656   6.341   4.513 -0.1673  0.5030  0.1351
  221WN      WN  701   0.470   3.284   4.610 -0.2783  0.1882 -0.4501
  222WN      WN  702   6.063   0.124   1.848 -0.2701  0.3591 -0.1086
  223WN      WN  703   2.472   1.959   5.804  0.2121  0.1707 -0.1209
  224WN      WN  704   5.258   0.995   5.939  0.1835  0.1248 -0.1657
  225WN      WN  705   0.731   5.139   0.393  0.0098 -0.0305  0.0899
  226WN      WN  706   3.180   6.339   3.874  0.2333 -0.3758  0.3336
  227WN      WN  707   1.504   4.547   4.324  0.2002 -0.0674  0.0354
  228WN      WN  708   5.262   5.976   3.214  0.1151  0.0438  0.0371
  229WN      WN  709   4.141   2.134   3.927  0.0423  0.1710  0.2683
  230WN      WN  710   0.406   4.466   4.798 -0.0567 -0.1878  0.1204
  231WN      WN  711   2.881   4.340   1.933 -0.1116 -0.1637 -0.0794
  232WN      WN  712   1.232   3.556   2.952  0.4345  0.1774 -0.3093
  233WN      WN  713   6.293   5.260   0.681  0.3023  0.0955 -0.0852
  234WN      WN  714   6.088   1.536   4.791 -0.0164  0.0021  0.0559
  235WN      WN  715   5.016   2.943   3.399  0.3549  0.1107 -0.0517
  236WN      WN  716   3.810   2.904   0.322  0.2362  0.0613  0.2540
  237WN      WN  717   0.840   5.894   3.180  0.0951 -0.0800 -0.1259
  238WN      WN  718   2.939   4.411   3.211  0.0215  0.1952 -0.1336
  239WN      WN  719   1.290   3.450   2.158  0.1237  0.0255  0.0538
  240WN      WN  720   1.906   1.699   1.588  0.0530 -0.0641 -0.0339
  241WN      WN  721   0.953   4.375   4.442  0.2644  0.0620 -0.2797
  242WN      WN  722   1.144   3.591   4.033  0.1087 -0.0389  0.2262
  243WN      WN  723   3.517   4.165   2.548  0.0959  0.0952 -0.3100
  244WN      WN  724   5.180   6.351   0.017  0.0093  0.0084 -0.0936
  245WN      WN  725   1.735   1.895   4.235  0.2985  0.2439 -0.3221
  246WN      WN  726   0.354   6.123   3.136  0.2522  0.0482 -0.1626
  247WN      WN  727   1.814   3.693   6.008  0.1567  0.1063 -0.0543
  248WN      WN  728   2.819   3.866   1.986  0.2815 -0.1605 -0.0106
  249WN      WN  729   0.860   0.496   4.013 -0.0629  0.1768 -0.0536
  250WN      WN  730   0.844   3.520   0.337  0.3479 -0.0336 -0.4094
  251WN      WN  731   3.814   5.948   1.148  0.1743 -0.0351 -0.1065
  252WN      WN  732   5.944   2.513   1.422  0.3392 -0.4682  0.1329
  253WN      WN  733   4.617   5.586   2.967 -0.2407  0.1267  0.0435
  254WN      WN  734   3.040   0.183   0.458 -0.0781 -0.1814  0.3273
  255WN      WN  735   4.911   3.431   4.607 -0.0437  0.0025  0.2134
  256WN      WN  736   0.197   5.938   4.408  0.2096  0.1658  0.0657
  257WN      WN  737   1.163   2.723   4.045  0.1182  0.0064  0.0573
  258WN      WN  738   3.543   1.114   4.498  0.2536  0.1153 -0.1905
  259WN      WN  739   3.865   2.396   3.533 -0.1052 -0.0192 -0.1921
  260WN      WN  740   5.997   0.513   6.428 -0.0131 -0.0042 -0.0546
  261WN      WN  741   5.730   2.564   6.415  0.1010 -0.0692 -0.0226
  262WN      WN  742   4.164   0.075   6.333  0.3034 -0.1492 -0.0057
  263WN      WN  743   3.640   1.184   1.763  0.1764  0.0317  0.0261
  264WN      WN  744   0.699   1.553   1.971 -0.0048  0.1303  0.0361
  265WN      WN  745   5.406   0.790   4.097  0.5231  0.1605 -0.2716
  266WN      WN  746   0.174   5.800   0.050  0.1149  0.2512 -0.0947
  267WN      WN  747   3.925   0.078   4.391 -0.1394 -0.0771 -0.1175
  268WN      WN  748   0.448   3.461   6.394 -0.0882 -0.1272  0.1169
  269WN      WN  749   3.746   2.231   0.980  0.0566 -0.0070  0.1639
  270WN      WN  750   4.298   1.701   0.472  0.2639  0.0246  0.1063
  271WN      WN  751   3.651   6.034   1.989  0.0530  0.4019 -0.0457
  272WN      WN  752   6.197   3.158   2.108  0.0187 -0.1657 -0.0753
  273WN      WN  753   5.063   5.883   4.939 -0.1597  0.0913 -0.1655
  274WN      WN  754   4.365   3.536   3.908  0.0923  0.0973  0.2092
  275WN      WN  755   0.503   2.429   6.154  0.0192  0.3141 -0.0454
  276WN      WN  756   5.272   0.977   0.664 -0.0403 -0.0971 -0.3514
  277WN      WN  757   3.629   5.315   5.166 -0.1532  0.1673 -0.1814
  278WN      WN  758   3.142   1.805   6.137 -0.2043  0.1465  0.1470
  279WN      WN  759   5.664   0.665   4.574  0.0836 -0.3362  0.0194
  280WN      WN  760   1.353   2.512   5.545  0.0894  0.1908 -0.0506
  281WN      WN  761   0.868   3.030   4.901  0.0727  0.5545  0.0848
  282WN      WN  762   6.531   6.165   3.851  0.1580 -0.0596 -0.0639
  283WN      WN  763   5.120   3.819   6.070 -0.0998  0.1771 -0.0622
  284WN      WN  764   4.223   2.888   6.483  0.2901  0.2643  0.0359
  285WN      WN  765   0.569   2.839   3.186 -0.0732 -0.2270 -0.0104
  286WN      WN  766   4.168   5.518   0.425 -0.1855 -0.1603  0.1323
  287WN      WN  767   4.465   4.129   4.916  0.3347 -0.1219  0.0214
  288WN      WN  768   5.188   0.292   0.094 -0.0321 -0.0575  0.2817
  289WN      WN  769   3.039   1.401   4.168 -0.0607 -0.3860  0.2534
  290WN      WN  770   0.952   2.000   2.791  0.2493  0.2231  0.1373
  291WN      WN  771   3.210   4.272   4.994  0.3295 -0.0421 -0.2663
  292WN      WN  772   2.696   4.437   4.998 -0.0510  0.1662  0.2272
  293WN      WN  773   1.665   3.722   4.257 -0.3482  0.1259 -0.1758
  294WN      WN  774   2.944   5.380   0.533  0.1053 -0.0668 -0.2059
  295WN      WN  775   6.239   2.016   4.268  0.1181  0.1625 -0.2560
  296WN      WN  776   1.182   4.519   0.006 -0.0127 -0.0523  0.2342
  297WN      WN  777   4.203   4.859   2.241  0.0368 -0.4829  0.0512
  298WN      WN  778   2.551   6.524   3.283 -0.2192 -0.0536 -0.0193
  299WN      WN  779   4.051   0.031   5.319  0.0312  0.1609  0.0949
  300WN      WN  780   2.063   0.405   1.361  0.3809  0.0731  0.0843
  301WN      WN  781   1.732   2.433   0.523  0.0931  0.1922  0.2706
  302WN      WN  782   1.671   2.340   3.990  0.2900 -0.0647 -0.0932
  303WN      WN  783   4.923   1.195   6.296  0.2396  0.0889  0.0428
  304WN      WN  784   2.706   3.369   2.332 -0.0801 -0.0905  0.1852
  305WN      WN  785   5.409   2.328   1.215 -0.0117 -0.0890 -0.0489
  306WN      WN  786   2.588   5.159   2.348 -0.0197  0.0795 -0.0581
  307WN      WN  787   3.227   0.999   1.257 -0.0576  0.2831 -0.1204
  308WN      WN  788   5.334   2.167   4.422  0.3012  0.0133  0.0269
  309WN      WN  789   2.547   3.239   5.450 -0.0896 -0.1666  0.1125
  310WN      WN  790   3.044   1.182   0.161  0.2451 -0.1266 -0.3665
  311WN      WN  791   4.851   3.015   4.387  0.3865 -0.1147  0.0226
  312WN      WN  792   4.089   4.113   0.544 -0.0280 -0.2200 -0.3012
  313WN      WN  793   4.228   2.991   5.158 -0.4258  0.3352 -0.0219
  314WN      WN  794   4.336   0.517   5.592 -0.1347  0.0827 -0.1379
  315WN      WN  795   1.192   0.384   4.394 -0.1896 -0.0919  0.0523
  316WN      WN  796   1.758   2.783   0.875  0.1535  0.1156  0.0502
  317WN      WN  797   2.488   5.307   4.775 -0.0977 -0.0142  0.2017
  318WN      WN  798   2.235   5.050   0.169  0.3564 -0.1731 -0.0851
  319WN      WN  799   2.920   1.292   1.772 -0.0486  0.2099  0.0781
  320WN      WN  800   0.628   0.342   1.080  0.3983  0.0507  0.2484
  321WN      WN  801   4.717   2.384   5.864  0.1186  0.2546 -0.1412
  322WN      WN  802   5.691   0.345   5.142 -0.0867  0.0002  0.0549
  323WN      WN  803   2.403   0.427   6.214  0.3269 -0.0389  0.0640
  324WN      WN  804   0.094   1.676   0.993  0.0566 -0.1087  0.4648
  325WN      WN  805   1.032   0.777   0.504 -0.0199  0.0014  0.1316
  326WN      WN  806   2.912   1.107   3.804  0.0740 -0.2838 -0.0782
  327WN      WN  807   1.329   6.149   5.687 -0.1349 -0.0257  0.0846
  328WN      WN  808   3.689   4.646   4.061  0.0247  0.0777  0.1994
  329WN      WN  809   2.426   0.062   1.018  0.0614 -0.1906  0.2208
  330WN      WN  810   2.029   2.571   3.694 -0.1030 -0.2528 -0.2777
  331WN      WN  811   1.803   3.054   1.446 -0.1418 -0.1358  0.0158
  332WN      WN  812   0.319   0.723   4.549  0.1590 -0.1074  0.0392
  333WN      WN  813   4.935   2.173   2.097 -0.2941 -0.2171  0.2744
  334WN      WN  814   0.727   5.582   0.013  0.1052 -0.1785 -0.0601
  335WN      WN  815   2.756   0.344   1.965  0.4034  0.1380 -0.0551
  336WN      WN  816   0.480   3.952   3.410  0.2134 -0.2674 -0.0155
  337WN      WN  817   5.716   1.126   0.214  0.2367  0.0191  0.0886
  338WN      WN  818   3.297   4.636   2.123 -0.0957 -0.2956  0.2876
  339WN      WN  819   6.048   3.275   2.638  0.2929  0.1318 -0.2000
  340WN      WN  820   0.276   0.150   0.070 -0.0081  0.2281 -0.1981
  341WN      WN  821   1.904   3.328   3.859  0.2757 -0.1783 -0.0331
  342WN      WN  822   2.316   0.708   3.898 -0.0159 -0.1077 -0.2018
  343WN      WN  823   0.589   3.786   4.789 -0.1153 -0.0956  0.2652
  344WN      WN  824   1.477   4.498   3.857  0.2329 -0.1323  0.4192
  345WN      WN  825   0.628   2.388   1.630 -0.1908  0.0300 -0.0810
  346WN      WN  826   0.814   3.281   1.385  0.2736  0.0339  0.0506
  347WN      WN  827   0.124   1.358   3.262 -0.4000 -0.0052 -0.1401
  348WN      WN  828   4.962   6.316   1.923 -0.1112  0.0442  0.4162
  349WN      WN  829   5.943   6.162   5.680 -0.1337  0.2543 -0.1023
  350WN      WN  830   2.523   0.873   3.302  0.5477  0.0947 -0.3060
  351WN      WN  831   5.213   4.073   6.553 -0.0304  0.2719 -0.0759
  352WN      WN  832   5.674   6.217   1.618 -0.2415 -0.0330 -0.1078
  353WN      WN  833   1.234   3.670   5.616  0.2583  0.0974 -0.1471
  354WN      WN  834   3.173   5.240   3.902  0.3068 -0.0724  0.5295
  355WN      WN  835   5.744   5.874   4.212  0.1012  0.1691  0.2197
  356WN      WN  836   3.656   5.042   3.036 -0.1563 -0.2466 -0.0760
  357WN      WN  837   4.751   6.336   4.028 -0.0983  0.0335  0.0211
  358WN      WN  838   4.124   1.333   1.549 -0.4322 -0.2237 -0.0572
  359WN      WN  839   2.077   5.076   3.510  0.1805 -0.0387  0.0331
  360WN      WN  840   2.621   0.383   0.581  0.2537 -0.1017 -0.1347
  361WN      WN  841   0.043   2.461   0.391 -0.1445  0.1215 -0.0305
  362WN      WN  842   1.545   3.475   5.226 -0.2282  0.0483  0.1358
  363WN      WN  843   5.852   0.480   4.122 -0.0655 -0.0523  0.2116
  364WN      WN  844   0.749   5.267   1.661 -0.2000  0.2505  0.2911
  365WN      WN  845   5.971   2.112   6.474  0.0318 -0.2454 -0.0859
  366WN      WN  846   2.960   0.063   4.216 -0.0347  0.0883 -0.0888
  367WN      WN  847   1.666   6.279   1.517 -0.0146  0.0637 -0.1956
  368WN      WN  848   3.510   0.809   6.154  0.3169 -0.1434  0.2660
  369WN      WN  849   2.773   5.808   3.135 -0.3234  0.2555  0.0764
  370WN      WN  850   2.951   6.412   3.003 -0.3994 -0.1670 -0.1649
  371WN      WN  851   5.675   4.563   0.890  0.0259  0.3262  0.1045
  372WN      WN  852   0.305   2.565   3.531 -0.0387  0.3588  0.0596
  373WN      WN  853   1.830   5.739   2.649 -0.1545  0.1464 -0.0738
  374WN      WN  854   5.050   1.085   4.232 -0.4114  0.0017 -0.1088
  375WN      WN  855   5.757   3.995   5.803  0.0877  0.2001 -0.3371
  376WN      WN  856   0.871   1.700   4.600 -0.0855  0.0304 -0.0986
  377WN      WN  857   0.207   2.964   1.140  0.0566 -0.1676  0.0288
  378WN      WN  858   1.231   3.510   1.536  0.2694  0.0415 -0.2544
  379WN      WN  859   1.719   6.346   4.822  0.1074  0.0947 -0.2258
  380WN      WN  860   6.231   4.220   1.622  0.2269  0.0930 -0.1002
  381WN      WN  861   4.415   0.267   5.975 -0.0350 -0.2020 -0.1176
  382WN      WN  862   2.068   5.615   3.475  0.2467 -0.2904 -0.4349
  383WN      WN  863   1.610   5.243   2.596 -0.0786 -0.2550 -0.0083
  384WN      WN  864   2.291   6.277   5.699  0.2059 -0.0658  0.2667
  385WN      WN  865   0.942   2.232   5.509  0.2645  0.1805  0.1848
  386WN      WN  866   3.785   0.226   4.912  0.0275 -0.1893 -0.0896
  387WN      WN  867   3.967   3.738   0.917  0.2065  0.2438 -0.0173
  388WN      WN  868   4.339   1.308   4.911  0.0936 -0.0467 -0.1013
  389WN      WN  869   6.465   3.984   5.010 -0.2685  0.1961 -0.1595
  390WN      WN  870   2.396   2.306   3.986 -0.1222 -0.2580  0.0363
  391WN      WN  871   4.083   0.003   2.639 -0.0801 -0.2665 -0.0202
  392WN      WN  872   0.863   1.270   1.516 -0.1646  0.0983 -0.2957
  393WN      WN  873   2.388   0.374   3.523  0.3552  0.2652 -0.0855
  394WN      WN  874   1.180   5.721   4.860  0.3648  0.1002  0.0749
  395WN      WN  875   5.364   5.088   1.494 -0.0782 -0.1802  0.3227
  396WN      WN  876   6.100   4.486   3.497 -0.2611 -0.0675 -0.2023
  397WN      WN  877   4.756   6.050   3.243 -0.0507 -0.1494 -0.0897
  398WN      WN  878   0.990   2.210   3.834  0.1039 -0.1463 -0.0863
  399WN      WN  879   3.457   4.966   6.533 -0.2730  0.1324 -0.2806
  400WN      WN  880   3.006   5.469   4.889  0.3548 -0.0973  0.1223
  401WN      WN  881   0.743   1.911   1.596 -0.1493  0.1386 -0.1265
  402WN      WN  882   3.468   3.146   4.452  0.0498  0.1557 -0.1362
  403WN      WN  883   2.555   4.764   3.354 -0.1418  0.0348 -0.1598
  404WN      WN  884   6.190   2.948   1.141  0.1704  0.0759 -0.0493
  405WN      WN  885   1.813   2.895   5.500  0.1443 -0.0962 -0.0676
  406WN      WN  886   5.414   0.800   5.004 -0.0217 -0.0917 -0.0488
  407WN      WN  887   5.072   3.024   4.865  0.0664 -0.1864  0.1093
  408WN      WN  888   4.205   1.019   3.714  0.1181  0.1549  0.2158
  409WN      WN  889   3.763   0.438   5.445  0.1849 -0.1596 -0.1006
  410WN      WN  890   2.225   5.320   2.674  0.3706 -0.0703  0.1587
  411WN      WN  891   2.377   1.285   2.620 -0.0390 -0.1644  0.0207
  412WN      WN  892   2.926   6.445   1.959  0.0343  0.2706 -0.2173
  413WN      WN  893   4.287   2.950   3.641 -0.3197 -0.3089  0.0282
  414WN      WN  894   1.162   0.798   1.495  0.0822 -0.1054  0.0809
  415WN      WN  895   2.455   3.762   1.588  0.3743 -0.0600  0.0684
  416WN      WN  896   2.325   3.858   5.443 -0.0431 -0.1779  0.2953
  417WN      WN  897   4.043   5.970   1.604  0.0408 -0.1269  0.2662
  418WN      WN  898   2.153   4.633   6.008 -0.0280  0.0217  0.0193
  419WN      WN  899   0.249   2.838   4.000  0.0548  0.0789  0.1633
  420WN      WN  900   2.110   1.243   1.830 -0.0779 -0.0206 -0.1143
  421WN      WN  901   4.867   2.460   1.212 -0.3791 -0.1318 -0.0303
  422WN      WN  902   1.617   2.029   6.445 -0.0109  0.0500  0.0746
  423WN      WN  903   1.659   0.820   6.463 -0.0658  0.0446  0.3942
  424WN      WN  904   0.668   5.463   6.054 -0.0337  0.3337 -0.0024
  425WN      WN  905   2.768   4.012   5.748 -0.1898 -0.0143  0.4241
  426WN      WN  906   6.419   0.953   3.683 -0.2257  0.1341 -0.1554
  427WN      WN  907   0.354   3.132   5.281 -0.0977 -0.3579  0.2748
  428WN      WN  908   3.820   4.725   5.833 -0.0726  0.0121  0.3970
  429WN      WN  909   3.492   5.391   6.185 -0.1042 -0.2595 -0.0921
  430WN      WN  910   0.268   0.465   2.858  0.1232  0.3698  0.3124
  431WN      WN  911   3.411   3.934   1.919  0.3635 -0.2552 -0.0584
  432WN      WN  912   4.908   6.505   3.564  0.2694  0.2609  0.1637
  433WN      WN  913   1.070   2.282   0.376 -0.0798  0.0135 -0.0459
  434WN      WN  914   5.617   1.636   5.007 -0.1124  0.0480 -0.0458
  435WN      WN  915   0.758   0.085   3.770 -0.0815  0.5288 -0.0170
  436WN      WN  916   4.541   5.379   4.874 -0.2358  0.1669  0.1415
  437WN      WN  917   1.939   0.117   1.832 -0.1567  0.1583 -0.2540
  438WN      WN  918   3.535   1.085   0.198  0.4376  0.1760 -0.2043
  439WN      WN  919   0.075   1.140   0.886  0.0291  0.0979 -0.0139
  440WN      WN  920   0.052   2.324   1.698  0.2103 -0.0081  0.0690
  441WN      WN  921   0.738   3.068   6.153 -0.0139 -0.0295  0.1861
  442WN      WN  922   0.357   4.751   3.086  0.0355  0.0380 -0.3848
  443WN      WN  923   5.057   5.302   1.004 -0.2565 -0.1627  0.1036
  444WN      WN  924   2.686   2.581   2.882 -0.1552 -0.0176 -0.2037
  445WN      WN  925   0.653   4.180   3.812  0.3056 -0.0743 -0.0751
  446WN      WN  926   4.571   5.029   0.558  0.0080  0.1040  0.1082
  447WN      WN  927   3.331   3.043   6.112 -0.1164  0.0034  0.0686
  448WN      WN  928   4.657   2.062   4.254 -0.4619 -0.0909 -0.3668
  449WN      WN  929   2.235   2.171   6.489 -0.3119 -0.2175  0.0943
  450WN      WN  930   5.917   3.128   5.438 -0.0774 -0.1168  0.1337
  451WN      WN  931   2.889   5.593   2.241 -0.1163  0.0927 -0.2586
  452WN      WN  932   1.700   5.782   0.312  0.3252 -0.0396  0.0699
  453WN      WN  933   3.222   5.448   0.134  0.0497 -0.3371 -0.0301
  454WN      WN  934   3.098   2.202   2.961  0.3310 -0.0642 -0.0031
  455WN      WN  935   1.212   6.559   4.087  0.4112 -0.1700  0.2428
  456WN      WN  936   2.261   0.251   2.755 -0.2554  0.0570  0.1112
  457WN      WN  937   1.205   6.184   5.122  0.1732 -0.0206  0.1991
  458WN      WN  938   3.487   0.045   5.418  0.3704  0.2175 -0.0084
  459WN      WN  939   6.143   4.388   0.415  0.1654 -0.0874 -0.2948
  460WN      WN  940   2.640   1.943   1.981 -0.1942 -0.0553  0.0772
  461WN      WN  941   4.086   5.794   4.844  0.1209 -0.1237  0.0418
  462WN      WN  942   3.461   0.392   5.881 -0.1511 -0.2352 -0.0597
  463WN      WN  943   4.217   3.796   0.188  0.4158 -0.0431  0.1610
  464WN      WN  944   0.906   4.984   1.247 -0.1920  0.1164  0.0951
  465WN      WN  945   3.038   0.715   0.894 -0.2888  0.3394  0.0105
  466WN      WN  946   3.440   1.514   2.053 -0.0679 -0.1055  0.3931
  467WN      WN  947   3.327   2.052   3.561  0.2576 -0.0524 -0.0176
  468WN      WN  948   5.385   2.972   6.443 -0.4797 -0.0334  0.2894
  469WN      WN  949   5.499   2.892   3.474  0.1137  0.0443 -0.1036
  470WN      WN  950   0.011   0.041   3.041 -0.0711 -0.4241  0.2658
  471WN      WN  951   5.404   0.599   1.028 -0.1694 -0.1118 -0.0845
  472WN      WN  952   3.236   0.591   5.399  0.1602  0.2073 -0.1128
  473WN      WN  953   5.816   6.484   6.446 -0.0669 -0.0534 -0.0070
  474WN      WN  954   5.068   5.527   0.388  0.0449  0.3350  0.1211
  475WN      WN  955   1.173   5.526   6.350  0.0775 -0.0537  0.0349
  476WN      WN  956   5.929   3.158   3.377 -0.0436  0.1188 -0.3338
  477WN      WN  957   4.315   5.893   3.222 -0.0408  0.2352 -0.0808
  478WN      WN  958   6.003   1.797   5.271 -0.4062 -0.2381  0.2250
  479WN      WN  959   2.027   0.384   5.824  0.2582 -0.3071  0.2422
  480WN      WN  960   3.384   1.514   5.504  0.4350 -0.1751  0.1327
  481WN      WN  961   3.749   3.945   5.477  0.1309  0.0278  0.2227
  482WN      WN  962   6.256   2.022   3.310  0.0028  0.6238 -0.0671
  483WN      WN  963   5.810   3.747   4.791  0.3104  0.2668  0.1106
  484WN      WN  964   1.893   6.498   1.067 -0.5464 -0.0818 -0.3161
  485WN      WN  965   6.395   2.988   4.448 -0.2019 -0.0748 -0.1186
  486WN      WN  966   1.620   1.328   1.858  0.1891  0.0110 -0.2142
  487WN      WN  967   1.255   0.019   0.938  0.0817  0.2468  0.2044
  488WN      WN  968   3.521   5.310   4.255  0.2020 -0.2367 -0.0594
  489WN      WN  969   5.070   6.542   2.322  0.1085 -0.1276  0.2188
  490WN      WN  970   6.560   2.605   5.390 -0.2631  0.1761 -0.2994
  491WN      WN  971   5.673   3.654   4.275  0.1159  0.2427  0.0820
  492WN      WN  972   1.063   1.237   1.040  0.3470  0.1081  0.0470
  493WN      WN  973   5.595   1.601   0.018 -0.3539  0.2977 -0.0971
  494WN      WN  974   1.351   1.997   5.665  0.0900  0.0847 -0.0160
  495WN      WN  975   3.110   0.741   2.785 -0.0812 -0.1164 -0.0867
  496WN      WN  976   4.894   5.110   3.325 -0.2885 -0.0265 -0.1347
  497WN      WN  977   3.762   1.155   3.071 -0.0621 -0.0308  0.0049
  498WN      WN  978   4.688   6.136   5.530  0.2196 -0.2419 -0.1582
  499WN      WN  979   1.161   6.127   4.524 -0.1120 -0.3718  0.2279
  500WN      WN  980   2.007   3.886   3.144  0.0984  0.0770  0.4165
  501WN      WN  981   0.833   1.272   4.179 -0.1685  0.1334  0.0391
  502WN      WN  982   0.112   1.225   0.250  0.1607 -0.3747 -0.1755
  503WN      WN  983   5.720   5.133   1.067  0.0648  0.0045  0.1691
  504WN      WN  984   5.539   3.805   2.471  0.1273 -0.3265  0.1184
  505WN      WN  985   2.311   2.848   5.678 -0.2590  0.2121  0.1945
  506WN      WN  986   5.709   5.903   2.582 -0.0407  0.2728  0.2872
  507WN      WN  987   2.474   5.457   3.206 -0.1133  0.0549 -0.2123
  508WN      WN  988   0.050   5.114   1.926  0.0110 -0.1657 -0.0997
  509WN      WN  989   0.625   1.854   0.850  0.2872 -0.0685 -0.1604
  510WN      WN  990   1.494   0.480   5.564 -0.1461  0.1486 -0.0145
  511WN      WN  991   4.628   4.533   3.958 -0.1229  0.2004  0.3722
  512WN      WN  992   5.544   2.833   5.590 -0.2009 -0.1608 -0.1903
  513WN      WN  993   5.338   0.333   0.583 -0.0544  0.2254 -0.1727
  514WN      WN  994   6.265   1.401   3.803  0.0837  0.2436 -0.0429
  515WN      WN  995   3.005   4.005   4.266  0.1553  0.1244  0.0497
  516WN      WN  996   2.883   5.032   5.805  0.2586  0.2051 -0.0559
  517WN      WN  997   4.901   4.452   4.872  0.0473 -0.0828  0.0765
  518WN      WN  998   5.550   5.636   5.713  0.1592 -0.0591 -0.0831
  519WN      WN  999   2.468   3.862   2.976  0.0432  0.1981  0.0914
  520WN      WN 1000   2.258   0.854   0.565  0.2756 -0.0216  0.4584
  521WN      WN 1001   5.179   1.591   5.233 -0.1998  0.1546  0.2161
  522WN      WN 1002   5.795   5.901   3.102  0.2053 -0.0486 -0.1614
  523WN      WN 1003   0.481   2.692   0.079  0.2653  0.1501  0.1128
  524WN      WN 1004   5.217   3.890   1.281 -0.4119  0.2450 -0.1922
  525WN      WN 1005   5.995   0.468   2.240  0.0951  0.1146 -0.1749
  526WN      WN 1006   5.478   1.298   2.298  0.1713 -0.1606  0.0780
  527WN      WN 1007   5.206   3.752   4.393 -0.3344 -0.0513  0.0118
  528WN      WN 1008   4.628   2.679   4.872  0.2330  0.1983 -0.1136
  529WN      WN 1009   1.546   0.963   0.956  0.0997 -0.0608 -0.2538
  530WN      WN 1010   6.210   6.379   5.261 -0.1955  0.1575 -0.0860
  531WN      WN 1011   5.167   6.409   3.158  0.1605 -0.0402 -0.0570
  532WN      WN 1012   6.351   1.686   2.658 -0.1809  0.3336 -0.0673
  533WN      WN 1013   5.788   0.251   0.902  0.0326 -0.0088  0.0997
  534WN      WN 1014   2.248   6.437   3.702  0.0518  0.3722 -0.0260
  535WN      WN 1015   5.223   3.731   5.515 -0.0819 -0.2750  0.1844
  536WN      WN 1016   4.647   5.335   0.150 -0.0390  0.2177  0.2768
  537WN      WN 1017   0.141   3.421   1.949 -0.4722  0.2151  0.5099
  538WN      WN 1018   1.629   0.703   5.952  0.0508 -0.2347  0.0003
  539WN      WN 1019   3.616   1.353   5.001  0.1534  0.2857 -0.0212
  540WN      WN 1020   2.264   6.048   4.812  0.0048  0.3965 -0.0571
  541WN      WN 1021   1.573   6.375   3.096 -0.1625 -0.1930  0.3416
  542WN      WN 1022   2.936   0.574   4.976 -0.2562  0.1854  0.3183
  543WN      WN 1023   6.176   2.264   5.295 -0.0214 -0.2197 -0.2448
  544WN      WN 1024   0.839   5.126   6.397  0.1339  0.0318 -0.1720
  545WN      WN 1025   5.469   4.832   0.457  0.1371  0.1180  0.0134
  546WN      WN 1026   2.208   2.441   0.520 -0.0918  0.1106  0.0465
  547WN      WN 1027   6.335   2.611   0.772  0.0362 -0.1288 -0.1092
  548WN      WN 1028   0.511   0.871   0.892 -0.2748 -0.1035 -0.0502
  549WN      WN 1029   4.150   5.154   0.811  0.0822 -0.1728  0.3382
  550WN      WN 1030   2.267   3.171   3.540  0.3391 -0.5358 -0.1010
  551WN      WN 1031   3.747   5.035   1.051 -0.0476  0.3173 -0.0620
  552WN      WN 1032   4.226   2.839   4.601  0.0263  0.1073  0.1004
  553WN      WN 1033   5.799   3.038   6.001 -0.2523  0.0954  0.1097
  554WN      WN 1034   0.598   0.334   3.271  0.1269  0.3301 -0.0513
  555WN      WN 1035   4.196   1.079   6.511 -0.0275  0.2224 -0.0856
  556WN      WN 1036   2.606   2.691   1.421 -0.1575 -0.0143 -0.1420
  557WN      WN 1037   0.973   4.467   3.581  0.1313 -0.0250  0.2643
  558WN      WN 1038   1.536   0.066   2.156 -0.3723  0.1524 -0.2529
  559WN      WN 1039   2.837   0.245   2.635  0.2590 -0.0821 -0.1254
  560WN      WN 1040   3.330   0.726   0.484 -0.3375  0.0785 -0.4032
  561WN      WN 1041   0.353   3.173   3.517 -0.0853  0.1913  0.0446
  562WN      WN 1042   6.034   6.155   4.456  0.1071 -0.0848  0.4517
  563WN      WN 1043   0.697   3.567   3.740  0.2564  0.2474 -0.2156
  564WN      WN 1044   1.241   1.948   6.120 -0.3700 -0.1155  0.0228
  565WN      WN 1045   2.286   1.713   4.009 -0.2692  0.2115 -0.2881
  566WN      WN 1046   0.025   5.724   0.588 -0.0531 -0.0091  0.2529
  567WN      WN 1047   3.731   5.794   0.225  0.0740  0.1144 -0.1267
  568WN      WN 1048   1.791   3.522   2.338  0.0128 -0.3164 -0.0463
  569WN      WN 1049   4.029   2.756   1.785 -0.1910 -0.0235  0.2886
  570WN      WN 1050   3.849   1.230   2.344  0.1541 -0.1888  0.1034
  571WN      WN 1051   1.674   0.489   1.893 -0.4298  0.2069  0.0416
  572WN      WN 1052   5.036   1.658   3.731  0.1153  0.3023 -0.2576
  573WN      WN 1053   3.648   2.153   6.138 -0.2696 -0.6607 -0.1317
  574WN      WN 1054   0.477   2.151   3.816  0.0492 -0.2628 -0.1311
  575WN      WN 1055   2.177   0.942   2.350  0.1012  0.2087  0.2413
  576WN      WN 1056   3.197   1.547   3.669  0.0153  0.2686 -0.0864
  577WN      WN 1057   1.671   0.173   2.725 -0.4282  0.2728  0.2017
  578WN      WN 1058   3.868   3.100   1.385  0.0077 -0.0523  0.0474
  579WN      WN 1059   3.920   2.913   3.340 -0.1836 -0.1750 -0.1231
  580WN      WN 1060   3.382   2.106   5.566 -0.2845  0.0496  0.2028
  581WN      WN 1061   4.188   4.395   3.304  0.3615  0.1268  0.3360
  582WN      WN 1062   2.035   5.162   4.280  0.0125 -0.2028 -0.1887
  583WN      WN 1063   0.248   1.549   1.624  0.1768 -0.2379  0.0775
  584WN      WN 1064   6.379   0.525   3.103 -0.0736 -0.0532 -0.1647
  585WN      WN 1065   0.761   2.376   2.447 -0.0266  0.3118 -0.1746
  586WN      WN 1066   1.477   0.472   5.091 -0.1844 -0.3767  0.2580
  587WN      WN 1067   1.778   4.839   5.149 -0.0017 -0.3180 -0.2466
  588WN      WN 1068   5.676   4.958   2.064 -0.0239  0.0167  0.0467
  589WN      WN 1069   1.830   2.217   1.615 -0.1183 -0.2975  0.0943
  590WN      WN 1070   6.327   1.399   1.792 -0.1520 -0.0221  0.1983
  591WN      WN 1071   3.335   6.409   4.695 -0.1067  0.1464 -0.0002
  592WN      WN 1072   1.071   1.369   6.441  0.1597  0.0725 -0.0763
  593WN      WN 1073   5.135   5.510   3.174 -0.0071  0.0455  0.2255
  594WN      WN 1074   2.493   2.989   2.632  0.1031 -0.0932 -0.1172
  595WN      WN 1075   0.169   4.987   2.425  0.0284  0.3959  0.1781
  596WN      WN 1076   2.726   1.092   5.187 -0.0419  0.0355  0.0354
  597WN      WN 1077   3.713   0.716   2.195  0.2529 -0.2673  0.1829
  598WN      WN 1078   2.009   5.097   6.304  0.0532  0.1142 -0.0611
  599WN      WN 1079   1.198   1.285   0.424 -0.1602  0.3179 -0.2673
  600WN      WN 1080   0.070   4.497   0.386  0.0260 -0.1744  0.1782
  601WN      WN 1081   2.114   6.090   0.249 -0.0669 -0.0295  0.0558
  602WN      WN 1082   0.450   4.215   2.521  0.3073  0.0802  0.0121
  603WN      WN 1083   2.588   6.512   6.090  0.0077 -0.0704  0.1358
  604WN      WN 1084   6.208   4.231   6.501 -0.0523 -0.0934 -0.1446
  605WN      WN 1085   1.055   3.605   1.062  0.1735  0.1240  0.1854
  606WN      WN 1086   0.923   2.361   6.515  0.0429  0.2760 -0.0838
  607WN      WN 1087   0.908   1.356   2.788 -0.4017  0.2062  0.1422
  608WN      WN 1088   3.171   3.317   3.077 -0.2162  0.0797  0.0065
  609WN      WN 1089   5.004   4.888   3.940  0.0961 -0.0689  0.1105
  610WN      WN 1090   2.691   5.291   3.716  0.4374  0.1853 -0.0892
  611WN      WN 1091   2.048   2.376   4.429  0.0627  0.0118  0.0238
  612WN      WN 1092   3.631   1.722   5.966 -0.0809 -0.0734 -0.0606
  613WN      WN 1093   4.806   3.527   4.109 -0.3047 -0.2341 -0.0116
  614WN      WN 1094   3.843   1.903   5.527  0.1094 -0.2590  0.2038
  615WN      WN 1095   6.167   4.111   2.186  0.1401  0.2750 -0.1407
  616WN      WN 1096   4.184   5.479   5.219  0.1995 -0.0594 -0.0786
  617WN      WN 1097   3.991   2.042   2.767 -0.0599 -0.2737  0.3485
  618WN      WN 1098   4.667   5.532   0.696 -0.3209  0.1685 -0.0576
  619WN      WN 1099   0.595   1.632   3.935 -0.0017  0.3539  0.0907
  620WN      WN 1100   4.942   5.894   2.774  0.1485  0.0644 -0.2983
  621WN      WN 1101   5.493   0.181   4.656 -0.0893 -0.2976 -0.2323
  622WN      WN 1102   0.173   5.453   4.266  0.3083  0.1243  0.0656
  623WN      WN 1103   0.852   0.329   0.053 -0.1431 -0.0175 -0.0726
  624WN      WN 1104   5.860   5.394   3.294  0.0280  0.0875  0.0053
  625WN      WN 1105   6.050   3.551   3.133  0.2790 -0.1130 -0.1170
  626WN      WN 1106   3.308   0.211   5.018 -0.1118 -0.1348  0.3090
  627WN      WN 1107   1.763   5.462   0.676 -0.1673 -0.0199  0.2555
  628WN      WN 1108   0.947   3.992   5.926  0.1497  0.0572  0.2675
  629WN      WN 1109   4.240   0.825   1.620 -0.2161 -0.1163  0.1263
  630WN      WN 1110   5.969   2.278   0.640  0.0110  0.1034 -0.0400
  631WN      WN 1111   1.223   6.528   2.624 -0.0026 -0.3935 -0.2150
  632WN      WN 1112   1.255   0.039   4.857 -0.1572 -0.2286  0.4223
  633WN      WN 1113   3.283   1.669   4.531 -0.1166  0.3156 -0.0186
  634WN      WN 1114   0.503   2.125   2.078  0.0520  0.1958 -0.0774
  635WN      WN 1115   6.538   1.866   4.682 -0.2402  0.1190 -0.2819
  636WN      WN 1116   3.092   5.437   3.102 -0.3589 -0.1901 -0.2552
  637WN      WN 1117   1.666   3.360   6.340  0.3697  0.0413  0.1330
  638WN      WN 1118   5.958   5.171   5.774  0.0927 -0.1207 -0.1045
  639WN      WN 1119   6.203   0.267   1.276  0.3093 -0.2486  0.1711
  640WN      WN 1120   0.912   0.537   5.723  0.2021 -0.0874  0.3456
  641WN      WN 1121   5.098   0.845   0.147  0.0273 -0.0145  0.1875
  642WN      WN 1122   3.485   3.509   5.449  0.0937  0.0454 -0.0095
  643WN      WN 1123   4.926   5.240   5.659  0.0141 -0.0040  0.3356
  644WN      WN 1124   0.362   1.638   4.460 -0.0174  0.5330 -0.0075
  645WN      WN 1125   5.170   2.863   1.157 -0.0050 -0.2003 -0.1698
  646WN      WN 1126   5.429   1.896   3.502  0.1274  0.3032  0.2149
  647WN      WN 1127   2.605   3.582   4.394 -0.1525 -0.4661  0.1202
  648WN      WN 1128   1.335   0.460   2.485  0.0721 -0.1566 -0.2421
  649WN      WN 1129   1.427   0.441   0.061  0.3788  0.1390 -0.0357
  650WN      WN 1130   1.433   5.352   2.112 -0.2186  0.1147  0.0424
  651WN      WN 1131   1.035   0.692   1.040  0.0232 -0.0489 -0.1541
  652WN      WN 1132   1.830   4.941   2.179 -0.0345  0.2310 -0.1565
  653WN      WN 1133   1.349   2.875   3.020 -0.0079 -0.2036  0.1477
  654WN      WN 1134   6.494   4.016   2.591  0.3721 -0.1334 -0.0164
  655WN      WN 1135   4.727   0.918   5.754 -0.5314  0.0973 -0.0766
  656WN      WN 1136   2.000   4.002   1.681 -0.1584 -0.1419 -0.0517
  657WN      WN 1137   1.100   3.516   4.572  0.0612 -0.0466 -0.0330
  658WN      WN 1138   0.077   3.539   4.392 -0.2020 -0.1577  0.0779
  659WN      WN 1139   1.314   1.340   3.772 -0.2298 -0.0405  0.5832
  660WN      WN 1140   3.494   3.776   2.897  0.0100  0.1066  0.1117
  661WN      WN 1141   2.907   1.313   4.729  0.3534  0.1617 -0.5412
  662WN      WN 1142   6.461   5.910   2.238 -0.0622  0.3276 -0.3049
  663WN      WN 1143   3.851   1.487   4.590 -0.0231 -0.1672  0.1421
  664WN      WN 1144   1.136   0.141   0.407  0.1267 -0.2031  0.2417
  665WN      WN 1145   1.281   2.101   4.255 -0.1830 -0.1651 -0.0304
  666WN      WN 1146   5.373   5.055   0.009  0.4614  0.0789  0.0431
  667WN      WN 1147   0.862   4.429   1.424  0.2170 -0.2605 -0.0575
  668WN      WN 1148   4.302   1.467   3.515  0.0829  0.1317  0.0776
  669WN      WN 1149   4.410   2.798   5.987  0.2518  0.1631 -0.2742
  670WN      WN 1150   6.249   1.799   5.753  0.1441  0.1766 -0.1014
  671WN      WN 1151   4.331   6.363   5.763  0.0280 -0.0137 -0.0213
  672WN      WN 1152   0.980   0.857   5.306 -0.1673  0.1735 -0.1007
  673WN      WN 1153   1.552   2.653   1.440 -0.0051  0.3613  0.2885
  674WN      WN 1154   4.737   0.437   4.655  0.1185  0.3143  0.0600
  675WN      WN 1155   2.301   2.833   0.888  0.0910  0.3929 -0.0662
  676WN      WN 1156   5.415   0.300   4.062 -0.2027 -0.0673  0.4073
  677WN      WN 1157   6.188   3.417   1.458  0.1404 -0.3299 -0.1179
  678WN      WN 1158   2.335   1.730   2.972  0.1814  0.1976  0.1954
  679WN      WN 1159   4.191   0.010   0.383  0.2746 -0.1762  0.3167
  680WN      WN 1160   1.038   0.515   6.177 -0.2451 -0.0817 -0.0437
  681WN      WN 1161   1.326   6.110   6.149  0.1771 -0.1598 -0.0686
  682WN      WN 1162   2.514   1.241   0.124  0.0385 -0.2255 -0.0929
  683WN      WN 1163   5.498   3.385   4.712  0.0419  0.1005  0.0241
  684WN      WN 1164   0.330   5.896   1.039  0.0033 -0.3446 -0.0125
  685WN      WN 1165   2.407   2.288   1.074  0.1339  0.0741  0.1106
  686WN      WN 1166   6.490   2.736   4.893  0.0084 -0.2942  0.0726
  687WN      WN 1167   2.351   2.190   1.521 -0.0942  0.0234 -0.0125
  688WN      WN 1168   2.201   1.915   4.462  0.0121  0.1119 -0.1945
  689WN      WN 1169   3.479   5.815   4.284 -0.0382 -0.2396  0.0759
  690WN      WN 1170   0.807   4.395   3.041 -0.0977  0.1142  0.6424
  691WN      WN 1171   2.787   0.938   0.547 -0.1102  0.2749  0.1808
  692WN      WN 1172   6.476   0.423   0.250  0.1199 -0.1696 -0.1169
  693WN      WN 1173   0.143   3.667   3.614  0.0360 -0.0147  0.0222
  694WN      WN 1174   5.937   4.921   3.860  0.0866 -0.3679 -0.1538
  695WN      WN 1175   6.287   5.148   5.025  0.0638 -0.0423 -0.0541
  696WN      WN 1176   2.336   0.445   4.622 -0.0313  0.2815 -0.0035
  697WN      WN 1177   3.711   0.845   2.664 -0.0093 -0.0973  0.0874
  698WN      WN 1178   3.619   6.259   5.101  0.0874  0.0852 -0.1045
  699WN      WN 1179   2.184   5.562   1.780 -0.3442  0.0169 -0.4302
  700WN      WN 1180   0.895   5.638   3.784  0.2294  0.3519 -0.0283
  701WN      WN 1181   1.762   5.285   0.179  0.0964  0.0239  0.1094
  702WN      WN 1182   5.175   2.595   5.272  0.0977  0.0106 -0.0172
  703WN      WN 1183   1.055   1.926   2.022 -0.0386  0.0993  0.2089
  704WN      WN 1184   3.123   6.216   5.235  0.0111  0.0960 -0.2587
  705WN      WN 1185   0.750   5.042   2.283  0.0098  0.0807 -0.1531
  706WN      WN 1186   1.503   5.281   4.963 -0.3376  0.3216  0.2479
  707WN      WN 1187   5.976   3.930   0.303 -0.2455 -0.1273 -0.0412
  708WN      WN 1188   0.545   5.850   6.228 -0.0187 -0.5454 -0.4705
  709WN      WN 1189   6.234   5.586   6.269  0.0472 -0.0751 -0.1374
  710WN      WN 1190   3.115   0.405   1.255 -0.0474 -0.0290  0.2172
  711WN      WN 1191   5.042   1.331   1.024  0.4386  0.3617 -0.1259
  712WN      WN 1192   3.182   4.969   0.490  0.0527 -0.0095 -0.0554
  713WN      WN 1193   0.916   5.361   0.824 -0.0463  0.2667  0.0351
  714WN      WN 1194   5.703   3.172   1.260  0.1666  0.2369  0.0895
  715WN      WN 1195   2.224   6.533   4.763  0.1502 -0.3756  0.1703
  716WN      WN 1196   5.296   1.049   1.336  0.2549 -0.1597  0.3176
  717WN      WN 1197   4.318   5.294   1.816  0.2281 -0.2603  0.2069
  718WN      WN 1198   1.776   3.863   2.697  0.0815  0.3128 -0.1556
  719WN      WN 1199   5.044   1.432   4.596 -0.0127  0.3056  0.0135
  720WN      WN 1200   4.089   3.882   4.591 -0.1433  0.0643  0.1664
  721WN      WN 1201   2.154   5.102   0.716  0.0850 -0.4071 -0.0951
  722WN      WN 1202   2.420   5.647   2.212 -0.1637 -0.0415  0.0028
  723WN      WN 1203   5.324   4.833   5.119 -0.7319  0.0452 -0.0048
  724WN      WN 1204   4.074   6.401   4.835  0.0473 -0.0560 -0.0669
  725WN      WN 1205   0.947   0.717   2.212 -0.1539  0.4009  0.1143
  726WN      WN 1206   2.637   0.880   4.728  0.0506  0.0045  0.1177
  727WN      WN 1207   1.302   3.928   5.200 -0.1798 -0.2086  0.1933
  728WN      WN 1208   4.782   6.294   0.840 -0.1867  0.1250  0.0283
  729WN      WN 1209   1.213   6.143   2.196 -0.1523  0.1767 -0.1404
  730WN      WN 1210   0.209   1.095   1.401 -0.3013 -0.1685  0.0174
  731WN      WN 1211   4.063   4.165   4.085 -0.2761 -0.0311 -0.2396
  732WN      WN 1212   1.769   4.939   5.817 -0.1792  0.2337 -0.2553
  733WN      WN 1213   4.876   0.429   5.796 -0.0949  0.2810  0.0346
  734WN      WN 1214   2.176   1.240   6.280  0.0763 -0.3254  0.0505
  735WN      WN 1215   0.667   5.771   4.242  0.0667 -0.1252  0.2591
  736WN      WN 1216   3.927   5.657   4.365 -0.1430  0.0609 -0.1522
  737WN      WN 1217   0.038   6.134   2.716 -0.0061  0.2165 -0.2098
  738WN      WN 1218   0.345   0.667   0.284 -0.1059 -0.0042 -0.2397
  739WN      WN 1219   5.045   2.913   0.648  0.0326 -0.1564 -0.0040
  740WN      WN 1220   6.134   3.310   6.226 -0.2081 -0.0002  0.0101
  741WN      WN 1221   3.118   3.085   5.564 -0.0207  0.0706 -0.0254
  742WN      WN 1222   1.674   4.351   1.117 -0.0531  0.1534 -0.2872
  743WN      WN 1223   0.755   0.478   1.807  0.0057  0.1812 -0.2543
  744WN      WN 1224   5.886   4.769   3.078 -0.1566 -0.3177  0.0064
  745WN      WN 1225   2.185   3.714   4.150  0.0796  0.2281  0.4287
  746WN      WN 1226   3.424   5.617   2.063  0.4701 -0.2425  0.1863
  747WN      WN 1227   3.712   4.959   0.561 -0.3119  0.0488 -0.1208
  748WN      WN 1228   3.359   0.513   6.540 -0.0392 -0.0128  0.2791
  749WN      WN 1229   5.137   5.876   2.259 -0.0157 -0.3069  0.1542
  750WN      WN 1230   6.479   3.867   6.349 -0.2545  0.4524  0.1228
  751WN      WN 1231   6.279   3.575   4.730 -0.1385 -0.0759  0.0063
  752WN      WN 1232   1.726   2.176   5.960  0.0527  0.1473  0.0797
  753WN      WN 1233   3.112   5.183   2.666  0.0205 -0.0103  0.2807
  754WN      WN 1234   4.361   4.190   5.930  0.0456 -0.1182 -0.0488
  755WN      WN 1235   4.149   2.566   4.153 -0.1978  0.1861  0.0437
  756WN      WN 1236   0.416   2.169   0.043 -0.0173 -0.2666  0.0472
  757WN      WN 1237   4.411   6.182   3.680 -0.0110 -0.2683  0.4076
  758WN      WN 1238   0.275   1.960   2.495 -0.1316  0.3074  0.0763
  759WN      WN 1239   1.737   2.444   2.317 -0.2214 -0.1492  0.1170
  760WN      WN 1240   4.926   0.481   4.146  0.1596 -0.0734 -0.0094
  761WN      WN 1241   2.853   3.991   4.714  0.1226 -0.0636  0.0662
  762WN      WN 1242   5.667   2.978   2.850  0.0451 -0.0080  0.1208
  763WN      WN 1243   4.265   6.079   0.149 -0.1571  0.2154 -0.3497
  764WN      WN 1244   1.656   1.732   5.046  0.1665  0.1244 -0.1450
  765WN      WN 1245   1.733   2.527   2.830  0.2392  0.0380 -0.1528
  766WN      WN 1246   0.040   4.341   4.489 -0.1568 -0.1031 -0.1546
  767WN      WN 1247   1.067   5.446   3.386 -0.4364 -0.2323  0.0243
  768WN      WN 1248   4.358   1.866   6.549  0.2186  0.0681  0.1064
  769WN      WN 1249   3.069   5.933   0.315 -0.0755  0.0523 -0.0470
  770WN      WN 1250   5.933   4.116   0.802  0.0473  0.3468 -0.2445
  771WN      WN 1251   2.829   2.059   3.804 -0.3539  0.0016  0.2067
  772WN      WN 1252   4.620   3.578   0.032 -0.1674  0.0257 -0.1603
  773WN      WN 1253   3.324   6.533   0.009 -0.0335  0.4162 -0.1515
  774WN      WN 1254   0.516   5.620   0.590 -0.0788  0.0495  0.1816
  775WN      WN 1255   3.454   1.865   5.111  0.1383 -0.2150 -0.0115
  776WN      WN 1256   1.706   1.366   4.257  0.0922  0.3800 -0.1561
  777WN      WN 1257   0.793   3.376   1.908  0.0184 -0.0561  0.0043
  778WN      WN 1258   0.928   6.115   4.022 -0.3982  0.2731  0.2045
  779WN      WN 1259   0.370   1.471   0.626 -0.0380  0.0279 -0.2266
  780WN      WN 1260   0.855   4.718   4.800  0.1564 -0.2452  0.1392
  781WN      WN 1261   2.585   5.322   0.983 -0.3378 -0.0918  0.0767
  782WN      WN 1262   5.322   6.237   2.584  0.2863  0.2342  0.0310
  783WN      WN 1263   4.152   1.601   1.080  0.1388 -0.1271  0.0487
  784WN      WN 1264   6.520   6.508   5.706  0.2073  0.0441 -0.0177
  785WN      WN 1265   5.607   4.605   4.767 -0.0221  0.0190 -0.0882
  786WN      WN 1266   2.584   5.866   4.441  0.1415  0.2317  0.0546
  787WN      WN 1267   2.233   3.403   4.883  0.0823  0.0174 -0.2067
  788WN      WN 1268   0.333   5.049   3.962  0.2203 -0.0904  0.1387
  789WN      WN 1269   0.392   2.808   4.829  0.2949  0.0674 -0.3102
  790WN      WN 1270   2.462   2.924   6.145 -0.1097 -0.1277 -0.2154
  791WN      WN 1271   6.466   3.557   2.845  0.1713 -0.2671  0.1897
  792WN      WN 1272   3.588   5.063   3.706  0.0146  0.1108 -0.1518
  793WN      WN 1273   5.242   4.221   5.479  0.1664 -0.3739  0.1965
  794WN      WN 1274   3.676   3.639   5.895 -0.1282  0.0539  0.1075
  795WN      WN 1275   6.363   6.092   6.493  0.4474 -0.1693 -0.3271
  796WN      WN 1276   0.846   4.723   4.015 -0.0595 -0.2249  0.0923
  797WN      WN 1277   4.278   1.156   5.768  0.0704 -0.2635  0.0332
  798WN      WN 1278   5.161   3.534   6.463 -0.1791 -0.3070  0.0869
  799WN      WN 1279   1.717   6.497   5.737 -0.1257 -0.2899 -0.3557
  800WN      WN 1280   2.328   6.041   1.837 -0.0380  0.3672 -0.1772
  801WN      WN 1281   5.813   5.022   5.342  0.0821  0.1527  0.0139
  802WN      WN 1282   5.636   6.486   2.913  0.0017 -0.0427 -0.1532
  803WN      WN 1283   4.120   5.832   5.664 -0.2406  0.1206  0.1586
  804WN      WN 1284   3.966   2.082   0.207  0.1184  0.1896 -0.0076
  805WN      WN 1285   0.239   4.927   0.074  0.1721  0.2422 -0.2783
  806WN      WN 1286   3.257   1.054   5.100  0.3427  0.1369 -0.2206
  807WN      WN 1287   3.388   5.084   4.764  0.0056 -0.4465  0.0287
  808WN      WN 1288   2.472   5.810   3.630 -0.2580  0.1163 -0.0414
  809WN      WN 1289   2.272   3.205   1.521  0.0464  0.0730 -0.2130
  810WN      WN 1290   1.410   4.683   2.863  0.2656 -0.2298  0.1268
  811WN      WN 1291   3.363   4.166   3.194 -0.3629 -0.0029 -0.1134
  812WN      WN 1292   5.546   1.481   1.227  0.1323  0.3481 -0.0378
  813WN      WN 1293   5.261   2.361   0.724 -0.1072  0.3606 -0.3967
  814WN      WN 1294   4.623   1.220   0.141 -0.0474 -0.2403 -0.3328
  815WN      WN 1295   5.079   1.443   1.488  0.0035  0.0069 -0.6140
  816WN      WN 1296   6.023   1.048   4.066  0.0412 -0.0415  0.3257
  817WN      WN 1297   1.292   3.003   5.341  0.3946 -0.3584  0.0625
  818WN      WN 1298   6.133   5.144   6.396  0.0525 -0.4961 -0.0142
  819WN      WN 1299   3.618   5.774   5.798 -0.0054  0.1297  0.0241
  820WN      WN 1300   2.298   2.882   3.954 -0.0214  0.1830 -0.1181
  821WN      WN 1301   2.488   6.342   2.848 -0.0331  0.1345  0.3319
  822WN      WN 1302   3.962   0.816   5.752  0.2021  0.2608 -0.0422
  823WN      WN 1303   3.498   1.525   3.258 -0.3924  0.1713 -0.2186
  824WN      WN 1304   4.430   2.162   0.407  0.2730 -0.0167 -0.0016
  825WN      WN 1305   2.938   3.532   1.551  0.1668  0.2777 -0.2007
  826WN      WN 1306   5.945   5.822   1.543 -0.4212 -0.1682 -0.4103
  827WN      WN 1307   0.562   0.984   1.848 -0.1617 -0.2301  0.0135
  828WN      WN 1308   5.343   2.907   4.496 -0.0488  0.3021  0.1819
  829WN      WN 1309   1.636   2.231   4.792 -0.6260 -0.4282 -0.0966
  830WN      WN 1310   2.039   4.304   4.430  0.1856 -0.0387  0.0255
  831WN      WN 1311   1.034   2.562   5.037 -0.4283 -0.1842  0.0437
  832WN      WN 1312   1.333   3.460   0.240  0.0470 -0.0533 -0.0642
  833WN      WN 1313   2.878   3.918   6.197 -0.3306 -0.3201  0.0098
  834WN      WN 1314   3.304   0.257   4.486 -0.0627 -0.0310 -0.0149
  835WN      WN 1315   3.551   6.344   4.243 -0.0826  0.3975  0.1583
  836WN      WN 1316   4.055   4.417   5.551  0.0505  0.3072  0.2253
  837WN      WN 1317   5.762   0.030   5.940  0.1349  0.4227  0.3505
  838WN      WN 1318   5.197   2.125   5.473  0.1389 -0.0873  0.1888
  839WN      WN 1319   3.514   2.687   4.266 -0.3286  0.2960  0.0608
  840WN      WN 1320   3.214   5.258   5.486  0.1091 -0.0587  0.1755
  841WN      WN 1321   0.690   1.495   6.110 -0.1332  0.2747  0.1262
  842WN      WN 1322   0.665   3.820   1.506 -0.0940 -0.3629  0.0166
  843WN      WN 1323   4.430   6.519   1.559  0.0453 -0.0355 -0.1606
  844WN      WN 1324   3.396   2.144   4.682 -0.2925 -0.2272  0.2550
  845WN      WN 1325   0.667   0.769   1.396 -0.1284  0.4139  0.0477
  846WN      WN 1326   5.998   6.126   2.085 -0.2131  0.0464  0.1355
  847WN      WN 1327   3.865   3.744   3.897 -0.0339 -0.2734 -0.0573
  848WN      WN 1328   4.465   0.140   4.328  0.2941  0.1800 -0.0047
  849WN      WN 1329   2.417   0.798   2.738 -0.6198 -0.1812 -0.1898
  850WN      WN 1330   6.493   4.227   0.750 -0.2331 -0.0512 -0.1596
  851WN      WN 1331   6.406   4.736   6.345  0.1625  0.2705  0.0154
  852WN      WN 1332   5.434   6.138   5.841  0.1442 -0.0417  0.0486
  853WN      WN 1333   4.503   1.449   2.930  0.0518  0.3650  0.2277
  854WN      WN 1334   0.269   4.236   3.083  0.0047  0.2072 -0.0228
  855WN      WN 1335   1.909   0.371   6.438  0.0715 -0.0235  0.0435
  856WN      WN 1336   3.905   6.557   1.698  0.0824  0.2131 -0.0096
  857WN      WN 1337   0.256   3.602   0.576 -0.0788 -0.1696  0.0828
  858WN      WN 1338   0.391   5.786   1.889 -0.0512  0.0993  0.0900
  859WN      WN 1339   3.304   0.669   3.587  0.2796  0.0338 -0.0655
  860WN      WN 1340   2.155   3.423   3.113  0.2214  0.0447 -0.0351
  861WN      WN 1341   4.979   2.209   0.299  0.4321  0.1072 -0.0810
  862WN      WN 1342   1.827   1.603   2.783 -0.0000 -0.1312 -0.2463
  863WN      WN 1343   0.288   1.832   3.497 -0.0513 -0.0671 -0.0228
  864WN      WN 1344   1.857   3.048   5.074  0.0117  0.1150 -0.0583
  865WN      WN 1345   6.550   3.525   5.556 -0.3402  0.1671 -0.0185
  866WN      WN 1346   1.348   3.065   1.647  0.2500  0.3466  0.0814
  867WN      WN 1347   2.732   2.220   0.146 -0.1659  0.0025 -0.3309
  868WN      WN 1348   5.593   1.368   0.646 -0.1730  0.1326 -0.1154
  869WN      WN 1349   1.410   5.656   2.952 -0.2140 -0.1424  0.0705
  870WN      WN 1350   2.284   5.787   5.808 -0.6220 -0.0522  0.0055
  871WN      WN 1351   6.257   1.319   5.776 -0.0360  0.2632  0.1876
  872WN      WN 1352   3.765   5.799   5.286 -0.1332 -0.2303  0.2676
  873WN      WN 1353   3.371   1.021   3.968 -0.1071 -0.2761  0.0201
  874WN      WN 1354   3.010   5.635   0.998  0.1691 -0.1630  0.0426
  875WN      WN 1355   5.121   1.597   0.621 -0.0798  0.0420  0.2367
  876WN      WN 1356   2.191   4.603   6.503 -0.2003 -0.2589 -0.0619
  877WN      WN 1357   0.926   1.742   5.513 -0.0805 -0.4771 -0.1496
  878WN      WN 1358   6.114   5.312   4.342 -0.1533 -0.0681 -0.1703
  879WN      WN 1359   4.516   2.818   3.196 -0.0831  0.1341 -0.3899
  880WN      WN 1360   6.521   5.139   2.944 -0.2323  0.0539  0.0109
  881WN      WN 1361   2.078   6.502   6.122  0.0750 -0.1195  0.1197
  882WN      WN 1362   3.773   1.307   3.582  0.1640  0.2924 -0.0109
  883WN      WN 1363   1.348   0.047   5.352  0.1868  0.1311  0.0987
  884WN      WN 1364   5.207   1.835   6.538 -0.1375 -0.0619 -0.0336
  885WN      WN 1365   4.846   5.949   4.335 -0.1138 -0.0879 -0.1945
  886WN      WN 1366   3.301   1.250   5.980 -0.2129  0.2397  0.3263
  887WN      WN 1367   1.543   6.094   2.665  0.0588 -0.3302  0.3715
  888WN      WN 1368   2.876   4.496   0.574 -0.5010 -0.2323  0.1253
  889WN      WN 1369   3.854   2.794   6.078  0.1275 -0.0898 -0.0523
  890WN      WN 1370   0.625   1.168   3.151  0.5444  0.3954 -0.1576
  891WN      WN 1371   0.402   6.399   4.540 -0.0907 -0.2918 -0.0330
  892WN      WN 1372   6.453   3.916   4.000  0.3083 -0.0780  0.0772
  893WN      WN 1373   2.174   6.464   0.588  0.2904 -0.0612  0.2017
  894WN      WN 1374   0.454   6.143   0.605 -0.0180  0.0038  0.1062
  895WN      WN 1375   6.501   5.583   4.761 -0.1104  0.2132 -0.0538
  896WN      WN 1376   5.981   3.900   3.980  0.0458 -0.0390 -0.0797
  897WN      WN 1377   5.458   0.609   1.509 -0.4212 -0.3148  0.0557
  898WN      WN 1378   0.684   2.228   3.384  0.0165 -0.1685 -0.0058
  899WN      WN 1379   4.108   0.470   4.149 -0.0474 -0.0690  0.2253
  900WN      WN 1380   3.044   5.224   6.261 -0.0075  0.2026  0.0201
  901WN      WN 1381   0.032   4.575   1.698  0.0540  0.1788  0.4176
  902WN      WN 1382   1.248   2.611   2.568 -0.0672 -0.1733 -0.0685
  903WN      WN 1383   3.152   1.885   1.745 -0.1714 -0.3201 -0.0413
  904WN      WN 1384   4.448   5.003   3.957 -0.3076 -0.3268  0.0985
  905WN      WN 1385   2.866   0.664   0.091  0.1162  0.2842 -0.1039
  906WN      WN 1386   2.277   3.632   2.045  0.1369 -0.0005 -0.1239
  907WN      WN 1387   2.160   5.628   4.420  0.1507  0.5529  0.0395
  908WN      WN 1388   3.399   5.019   1.706  0.5264  0.0064  0.0733
  909WN      WN 1389   4.093   6.561   3.823  0.0691 -0.1440  0.2267
  910WN      WN 1390   5.619   0.455   2.692 -0.3378 -0.1323  0.1550
  911WN      WN 1391   2.136   1.769   2.012  0.2402  0.0903  0.0232
  912WN      WN 1392   5.931   2.215   4.878  0.1957 -0.0799 -0.3985
  913WN      WN 1393   6.076   4.551   1.130  0.0435  0.5502 -0.4393
  914WN      WN 1394   5.938   5.709   0.589 -0.1097 -0.1014  0.1235
  915WN      WN 1395   1.993   6.291   2.783 -0.1429  0.0979  0.0740
  916WN      WN 1396   5.956   0.569   1.650  0.2370 -0.1794 -0.0386
  917WN      WN 1397   0.638   2.707   5.336  0.0231  0.2672 -0.2064
  918WN      WN 1398   2.149   5.835   1.366  0.0897 -0.0527  0.0210
  919WN      WN 1399   2.733   3.447   2.869  0.2785  0.1324  0.1357
  920WN      WN 1400   4.578   1.187   3.988 -0.0548  0.0979 -0.2017
  921WN      WN 1401   2.990   2.292   5.830 -0.0727  0.1226 -0.1739
  922WN      WN 1402   6.134   1.608   0.036 -0.0877 -0.0711 -0.2651
  923WN      WN 1403   1.054   5.104   2.683 -0.2540 -0.2099 -0.0901
  924WN      WN 1404   1.358   3.147   2.621  0.1030  0.0825  0.0719
  925WN      WN 1405   5.601   0.588   0.173  0.2306  0.1419 -0.0591
  926WN      WN 1406   5.857   0.660   1.192 -0.1633  0.0869 -0.1346
  927WN      WN 1407   5.292   4.550   6.452 -0.3642  0.1331  0.1501
  928WN      WN 1408   3.305   5.965   4.850 -0.0702  0.1065  0.3009
  929WN      WN 1409   4.668   3.250   3.606  0.0968  0.2872  0.1040
  930WN      WN 1410   1.331   3.136   4.845  0.0235 -0.5067  0.0219
  931WN      WN 1411   5.610   1.935   1.451 -0.3034 -0.3886 -0.2367
  932WN      WN 1412   1.507   1.013   3.277  0.2049  0.0409 -0.2930
  933WN      WN 1413   2.273   0.838   5.091 -0.0752  0.3298 -0.0537
  934WN      WN 1414   0.524   4.804   1.699  0.0903 -0.1547  0.2542
  935WN      WN 1415   6.150   3.631   5.232  0.0687  0.1141  0.1098
  936WN      WN 1416   5.122   1.324   0.195  0.1478 -0.0927 -0.0898
  937WN      WN 1417   2.535   4.819   5.465 -0.2048  0.0235 -0.1342
  938WN      WN 1418   3.366   0.068   3.137  0.0544 -0.0159 -0.0450
  939WN      WN 1419   1.379   4.204   6.047  0.1390  0.0223 -0.1013
  940WN      WN 1420   1.415   1.819   4.628  0.0718 -0.0657  0.0310
  941WN      WN 1421   3.919   2.524   5.488  0.0174 -0.1849 -0.2563
  942WN      WN 1422   4.719   3.629   5.163 -0.0318 -0.0944  0.1063
  943WN      WN 1423   1.717   0.801   1.498 -0.3053  0.1661  0.2380
  944WN      WN 1424   5.419   1.514   5.764  0.2504 -0.2202 -0.1002
  945WN      WN 1425   3.776   4.252   4.605  0.3054 -0.1395 -0.1238
  946WN      WN 1426   6.465   5.420   2.459  0.2566  0.0962 -0.1996
  947WN      WN 1427   3.142   5.095   0.928  0.4775  0.2176 -0.1329
  948WN      WN 1428   3.877   6.187   0.698 -0.1960  0.0329  0.2205
  949WN      WN 1429   4.494   5.260   1.166 -0.3566 -0.1448  0.1962
  950WN      WN 1430   3.110   3.973   3.692 -0.0612  0.1567 -0.1762
  951WN      WN 1431   3.936   5.472   3.237  0.1607  0.2731 -0.0466
  952WN      WN 1432   2.355   4.959   3.917  0.1488 -0.1111  0.0512
  953WN      WN 1433   5.520   0.858   6.358  0.0014 -0.1652  0.1111
  954WN      WN 1434   2.772   1.098   2.905 -0.0484 -0.3163  0.1634
  955WN      WN 1435   3.296   1.932   1.144  0.1440 -0.2059 -0.3334
  956WN      WN 1436   1.154   4.846   6.100 -0.1725 -0.1331 -0.0979
  957WN      WN 1437   0.519   1.688   5.028  0.0592  0.1045 -0.0236
  958WN      WN 1438   0.412   3.147   2.326 -0.1272 -0.2214  0.1832
  959WN      WN 1439   1.404   2.087   2.468  0.0737  0.3151  0.1375
  960WN      WN 1440   2.020   4.547   5.522  0.0352 -0.1149  0.2578
  961WN      WN 1441   6.158   4.782   1.625  0.1706  0.1366  0.0898
  962WN      WN 1442   3.830   1.900   4.269  0.0355  0.2146  0.0828
  963WN      WN 1443   4.442   4.322   2.831 -0.3367 -0.0196  0.2649
  964WN      WN 1444   5.293   0.102   1.046 -0.0838  0.0854  0.1218
  965WN      WN 1445   1.514   0.555   3.506  0.0842 -0.2729 -0.0597
  966WN      WN 1446   2.115   3.267   4.334 -0.1500 -0.0523  0.1693
  967WN      WN 1447   2.607   6.357   5.082 -0.1855 -0.1912 -0.0100
  968WN      WN 1448   1.568   1.378   6.549 -0.3829 -0.0531 -0.0674
  969WN      WN 1449   4.530   5.430   6.102 -0.1007 -0.1190  0.0107
  970WN      WN 1450   0.158   5.441   1.457  0.0448 -0.2809  0.0121
  971WN      WN 1451   2.317   2.799   5.203 -0.0617  0.3554  0.1230
  972WN      WN 1452   2.868   1.058   2.368 -0.2921 -0.2008 -0.0277
  973WN      WN 1453   3.265   0.537   4.069  0.0592  0.2245 -0.1939
  974WN      WN 1454   5.450   6.075   4.588 -0.0298 -0.1080 -0.0054
  975WN      WN 1455   0.567   1.418   1.101 -0.2012 -0.0289 -0.0636
  976WN      WN 1456   4.337   3.993   5.400 -0.0816 -0.0680 -0.0701
  977WN      WN 1457   4.714   0.702   6.257  0.0085 -0.0335 -0.2653
  978WN      WN 1458   3.671   4.632   3.377  0.0845  0.1448  0.1684
  979WN      WN 1459   3.230   6.487   2.386  0.0038 -0.0263 -0.2612
  980WN      WN 1460   5.893   0.788   2.937  0.1304  0.2069  0.3044
  981WN      WN 1461   2.979   0.422   6.234 -0.0063  0.2439 -0.1506
  982WN      WN 1462   3.189   1.526   1.380 -0.1753 -0.1774 -0.1829
  983WN      WN 1463   0.211   0.512   0.756  0.3208  0.2866  0.3959
  984WN      WN 1464   4.603   1.311   1.884 -0.2599  0.0468  0.2473
  985WN      WN 1465   1.975   0.881   3.437 -0.0839 -0.5204 -0.3304
  986WN      WN 1466   0.735   5.284   4.202 -0.1386 -0.0034 -0.1201
  987WN      WN 1467   0.341   1.838   5.519  0.2851  0.2108  0.0957
  988WN      WN 1468   6.437   0.841   0.560 -0.1054  0.0915 -0.0838
  989WN      WN 1469   2.455   4.259   1.675 -0.2345 -0.0465  0.1089
  990WN      WN 1470   4.294   5.692   1.033 -0.1639 -0.0543 -0.2160
  991WN      WN 1471   6.261   5.024   3.331  0.1887  0.2771  0.0790
  992WN      WN 1472   4.106   1.930   3.419 -0.3013 -0.0064  0.0965
  993WN      WN 1473   1.696   5.156   1.755 -0.0107 -0.0636 -0.1557
  994WN      WN 1474   0.789   5.779   5.226  0.0641 -0.1844  0.5169
  995WN      WN 1475   1.698   0.033   0.624 -0.0328 -0.2972  0.1026
  996WN      WN 1476   5.121   4.458   0.385 -0.0542 -0.1760  0.1503
  997WN      WN 1477   3.448   5.360   1.219 -0.1333 -0.0888 -0.3147
  998WN      WN 1478   6.118   2.527   0.230  0.0043  0.0926  0.2016
  999WN      WN 1479   3.160   4.860   3.063  0.1350 -0.3186  0.1010
 1000WN      WN 1480   4.067   5.658   2.801 -0.3174  0.3387  0.1633
 1001WN      WN 1481   4.052   2.330   5.896  0.2148 -0.2210 -0.0624
 1002WN      WN 1482   5.334   1.087   5.440  0.1226 -0.3426 -0.3175
 1003WN      WN 1483   1.953   0.148   5.164  0.2687 -0.1987 -0.1567
 1004WN      WN 1484   6.082   1.161   0.698  0.3267 -0.3320 -0.2465
 1005WN      WN 1485   6.363   3.950   3.127  0.3202  0.0022 -0.0598
 1006WN      WN 1486   1.936   1.426   2.309 -0.2026 -0.1960 -0.0918
 1007WN      WN 1487   6.016   6.288   3.961 -0.0948  0.2923 -0.3132
 1008WN      WN 1488   6.505   2.879   3.626  0.2473 -0.2310  0.1196
 1009WN      WN 1489   1.693   5.594   1.149  0.1063 -0.2576  0.1886
 1010WN      WN 1490   2.676   5.848   1.221 -0.0978 -0.0454  0.1061
 1011WN      WN 1491   2.604   5.741   0.564 -0.0666  0.1065 -0.0130
 1012WN      WN 1492   5.865   5.489   2.294  0.0708 -0.1470  0.1575
 1013WN      WN 1493   4.504   5.120   5.333 -0.2349  0.2698  0.2587
 1014WN      WN 1494   2.104   4.466   1.312  0.1216  0.2271 -0.0494
 1015WN      WN 1495   4.204   5.567   6.503 -0.0127  0.1006  0.2489
 1016WN      WN 1496   2.356   1.243   3.656  0.0798  0.1883 -0.0190
 1017WN      WN 1497   5.862   1.115   1.457 -0.2516 -0.2237 -0.0102
 1018WN      WN 1498   5.171   0.680   4.585 -0.0526 -0.0717  0.0445
 1019WN      WN 1499   4.624   1.908   3.581 -0.0917  0.1800  0.0327
 1020WN      WN 1500   5.910   1.434   6.132 -0.0389 -0.0935 -0.1363
 1021WN      WN 1501   2.897   0.399   3.152  0.0405  0.1062 -0.0943
 1022WN      WN 1502   1.233   1.258   4.521  0.0681 -0.3266 -0.0365
 1023WN      WN 1503   6.160   4.273   2.831 -0.0623 -0.1375 -0.1523
 1024WN      WN 1504   6.472   2.554   1.282  0.0705 -0.1301  0.1580
 1025WN      WN 1505   1.919   5.685   5.490  0.0397 -0.0799 -0.0558
 1026WN      WN 1506   0.681   2.780   1.272  0.0011 -0.2365  0.2604
 1027WN      WN 1507   1.627   5.820   2.184 -0.0199 -0.0188  0.0894
 1028WN      WN 1508   0.772   2.055   4.260 -0.1384  0.2106 -0.1068
 1029WN      WN 1509   0.579   2.710   2.129 -0.2015  0.0490  0.0899
 1030WN      WN 1510   4.156   4.524   3.777 -0.0926 -0.0419 -0.1574
 1031WN      WN 1511   6.194   1.015   0.125 -0.0060 -0.2584  0.2993
 1032WN      WN 1512   4.612   4.349   4.484 -0.4195  0.2341  0.0511
 1033WN      WN 1513   0.508   5.983   2.695 -0.1277 -0.1673 -0.0338
 1034WN      WN 1514   3.616   6.375   3.589  0.0871  0.0441 -0.2196
 1035WN      WN 1515   2.470   3.355   3.988  0.2447 -0.2027  0.1331
 1036WN      WN 1516   1.441   1.256   2.824  0.1562  0.0917 -0.0228
 1037WN      WN 1517   4.226   5.610   3.907  0.1336 -0.1884  0.1577
 1038WN      WN 1518   1.767   6.163   6.365 -0.2642 -0.0702  0.0991
 1039WN      WN 1519   6.529   6.169   4.901 -0.1219 -0.0106 -0.2366
 1040WN      WN 1520   0.956   0.366   2.878 -0.1823 -0.2773 -0.1146
 1041WN      WN 1521   4.082   5.201   3.673  0.1962 -0.1080  0.0614
 1042WN      WN 1522   1.723   2.863   4.032  0.3676  0.0070 -0.1992
 1043WN      WN 1523   0.778   3.812   0.725 -0.1333 -0.1560 -0.0584
 1044WN      WN 1524   6.424   4.825   4.236  0.1308  0.0937 -0.0231
 1045WN      WN 1525   3.424   4.837   5.349 -0.1440 -0.2800  0.4123
 1046WN      WN 1526   2.522   5.314   1.483  0.1817 -0.1391 -0.2633
 1047WN      WN 1527   5.108   6.537   4.329  0.0958 -0.0708  0.5759
 1048WN      WN 1528   2.590   4.749   0.188 -0.1550 -0.0154  0.2078
 1049WN      WN 1529   2.760   0.167   4.728 -0.2178 -0.3212 -0.4234
 1050WN      WN 1530   2.265   6.132   3.302  0.0973  0.1788  0.1859
 1051WN      WN 1531   5.825   5.580   0.092 -0.1343 -0.2448  0.0909
 1052WN      WN 1532   0.241   1.935   0.509  0.0462 -0.0206 -0.1939
 1053WN      WN 1533   6.460   2.972   1.601 -0.0074  0.0806  0.1522
 1054WN      WN 1534   2.673   3.841   3.939 -0.0195  0.2074  0.1534
 1055WN      WN 1535   3.810   0.764   3.598 -0.3946  0.0447  0.2324
 1056WN      WN 1536   2.781   3.548   4.879  0.4299  0.0172 -0.1504
 1057WN      WN 1537   1.606   2.991   0.147 -0.0351 -0.0601  0.1936
 1058WN      WN 1538   1.629   0.986   2.348 -0.0323 -0.3203  0.3006
 1059WN      WN 1539   4.479   1.977   3.087 -0.0621 -0.1758  0.0925
 1060WN      WN 1540   3.044   0.764   5.826 -0.0331 -0.1436 -0.3999
 1061WN      WN 1541   2.831   4.700   2.348 -0.0632  0.0477 -0.0170
 1062WN      WN 1542   2.161   1.677   0.086 -0.0538 -0.0031 -0.0443
 1063WN      WN 1543   0.408   0.549   6.324 -0.1029 -0.0610  0.1406
 1064WN      WN 1544   4.687   6.428   6.481 -0.3087  0.3000 -0.1881
 1065WN      WN 1545   0.309   6.365   6.289 -0.0519 -0.0972  0.0916
 1066WN      WN 1546   0.846   6.488   4.478 -0.3239  0.5773  0.1048
 1067WN      WN 1547   4.006   4.672   2.798  0.0791  0.2493  0.3185
 1068WN      WN 1548   1.394   1.767   1.627  0.0323  0.0711  0.0557
 1069WN      WN 1549   0.452   3.828   0.138  0.0413  0.2642  0.0889
 1070WN      WN 1550   6.330   5.842   1.118  0.2324 -0.3195 -0.2885
 1071WN      WN 1551   1.539   5.202   6.189 -0.0826 -0.0530 -0.1193
 1072WN      WN 1552   3.667   3.605   0.141  0.1750 -0.7308  0.0779
 1073WN      WN 1553   6.292   2.285   5.830  0.2265 -0.0245 -0.1100
 1074WN      WN 1554   5.373   0.762   3.196 -0.1872  0.2671  0.0888
 1075WN      WN 1555   3.585   4.985   2.587  0.0577  0.0380  0.1166
 1076WN      WN 1556   4.187   1.575   2.590  0.0925  0.3689  0.0231
 1077WN      WN 1557   1.487   0.448   4.024  0.0152  0.1051 -0.0542
 1078WN      WN 1558   0.658   5.096   4.986 -0.0113 -0.0614  0.0590
 1079WN      WN 1559   2.708   5.711   1.748 -0.3946 -0.0396 -0.0175
 1080WN      WN 1560   2.782   6.311   5.631  0.2581 -0.2797  0.0958
 1081WN      WN 1561   0.729   5.533   2.642 -0.3527 -0.2729  0.1460
 1082WN      WN 1562   1.960   0.395   3.780 -0.5079 -0.1828  0.2706
 1083WN      WN 1563   2.502   2.426   5.988 -0.3626  0.2777  0.1393
 1084WN      WN 1564   6.115   6.212   2.860 -0.1127 -0.0850  0.0750
 1085WN      WN 1565   5.397   3.535   1.615  0.0019  0.0700  0.2380
 1086WN      WN 1566   4.265   4.785   1.098 -0.0764 -0.1762  0.0352
 1087WN      WN 1567   6.360   2.562   4.104 -0.1414 -0.1045  0.0430
 1088WN      WN 1568   4.864   0.880   3.176 -0.1704 -0.2095  0.1464
 1089WN      WN 1569   2.534   0.286   5.722  0.0701  0.0538  0.0808
 1090WN      WN 1570   1.751   4.189   3.508 -0.1826 -0.1438  0.5942
 1091WN      WN 1571   6.326   0.067   6.438 -0.0180 -0.0588  0.0624
 1092WN      WN 1572   5.116   1.908   1.249 -0.0512 -0.4087  0.0999
 1093WN      WN 1573   6.291   5.803   4.222 -0.1567  0.1380  0.0776
 1094WN      WN 1574   5.592   1.836   6.135  0.0574 -0.0663 -0.3873
 1095WN      WN 1575   1.406   0.364   3.043 -0.0538 -0.0289  0.1335
 1096WN      WN 1576   3.124   0.990   3.287 -0.2819 -0.1485 -0.0678
 1097WN      WN 1577   3.290   0.406   1.817 -0.0477 -0.2766  0.1721
 1098WN      WN 1578   4.402   1.751   4.534  0.0939 -0.1205  0.0170
 1099WN      WN 1579   1.494   5.561   3.538  0.2627 -0.0891  0.0340
 1100WN      WN 1580   6.540   0.343   4.520 -0.0061  0.0760 -0.0075
 1101WN      WN 1581   2.976   2.072   5.195  0.2149  0.0737  0.0213
 1102WN      WN 1582   2.024   0.816   0.977 -0.0375  0.1255 -0.0240
 1103WN      WN 1583   6.164   6.455   0.874 -0.2802 -0.0885  0.3192
 1104WN      WN 1584   0.427   5.666   5.662 -0.2108 -0.0341  0.0176
 1105WN      WN 1585   1.069   3.243   0.711  0.2064 -0.0872 -0.0260
 1106WN      WN 1586   4.610   3.101   0.300 -0.2398 -0.2149 -0.1351
 1107WN      WN 1587   0.683   5.952   1.419 -0.0426  0.1914  0.2017
 1108WN      WN 1588   2.109   2.376   4.904  0.0689 -0.1367 -0.1962
 1109WN      WN 1589   0.308   6.207   2.214  0.2010 -0.0837  0.0780
 1110WN      WN 1590   0.037   4.194   3.596  0.0637  0.0284 -0.0666
 1111WN      WN 1591   1.014   4.057   3.313 -0.0473 -0.1376 -0.2469
 1112WN      WN 1592   0.723   0.900   6.123 -0.0456  0.1517  0.0245
 1113WN      WN 1593   2.352   0.771   0.053  0.0242  0.0707  0.0791
 1114WN      WN 1594   0.424   0.515   5.853  0.1863 -0.1346 -0.3697
 1115WN      WN 1595   2.930   0.028   0.892  0.0730  0.2211 -0.0709
 1116WN      WN 1596   2.818   0.153   0.026 -0.1801 -0.1616 -0.2661
 1117WN      WN 1597   4.827   6.126   1.515  0.2129 -0.1630  0.1011
 1118WN      WN 1598   6.173   5.680   5.690  0.1322  0.0882 -0.0521
 1119WN      WN 1599   4.857   4.958   4.938  0.0244 -0.2004  0.1210
 1120WN      WN 1600   4.722   1.657   5.082 -0.2505 -0.0217  0.2596
 1121WN      WN 1601   4.423   3.440   5.460  0.0994  0.2650  0.1405
 1122WN      WN 1602   4.059   3.199   0.693  0.0237  0.0901 -0.1820
 1123WN      WN 1603   0.131   5.715   2.958 -0.1508 -0.1604 -0.0021
 1124WN      WN 1604   6.268   3.909   1.177  0.1562  0.2199  0.2959
 1125WN      WN 1605   3.784   5.311   0.070  0.3679 -0.2470  0.0938
 1126WN      WN 1606   2.389   1.987   0.429  0.0827  0.1304 -0.2698
 1127WN      WN 1607   0.408   5.476   3.806 -0.4002  0.2751  0.0615
 1128WN      WN 1608   2.783   5.803   3.990  0.3039  0.1829 -0.1507
 1129WN      WN 1609   2.115   2.736   2.326 -0.2548  0.0849 -0.1598
 1130WN      WN 1610   3.949   4.183   5.076  0.1783 -0.0083 -0.0502
 1131WN      WN 1611   3.280   6.131   2.797  0.0554 -0.0319 -0.2038
 1132WN      WN 1612   4.576   5.981   4.959  0.0557  0.0292 -0.1163
 1133WN      WN 1613   3.393   6.328   1.005 -0.0605  0.0437  0.1074
 1134WN      WN 1614   2.984   1.525   0.644 -0.0522 -0.0267  0.1486
 1135WN      WN 1615   2.861   4.499   4.450  0.1764  0.1644 -0.1503
 1136WN      WN 1616   2.754   3.069   3.709  0.2277  0.0001 -0.1948
 1137WN      WN 1617   2.395   4.049   4.954 -0.1847  0.1489 -0.1460
 1138WN      WN 1618   5.673   0.083   2.372 -0.4282 -0.0456 -0.2509
 1139WN      WN 1619   6.481   6.356   1.942  0.0185 -0.3569  0.0694
 1140WN      WN 1620   1.381   2.711   3.591 -0.0161  0.1142  0.0321
 1141WN      WN 1621   3.546   2.616   1.901  0.5399  0.1033 -0.0197
 1142WN      WN 1622   1.943   2.048   3.704 -0.3808 -0.1280 -0.0256
 1143WN      WN 1623   3.259   2.616   2.316  0.4466  0.1363 -0.1393
 1144WN      WN 1624   5.537   2.497   4.726 -0.1548  0.0259 -0.5358
 1145WN      WN 1625   3.310   1.870   4.057 -0.0715 -0.1580 -0.1007
 1146WN      WN 1626   4.496   1.210   2.361 -0.0849  0.2397  0.1581
 1147WN      WN 1627   2.490   4.077   4.427  0.0283  0.0189  0.0335
 1148WN      WN 1628   5.300   3.479   1.088  0.0282 -0.1433 -0.2070
 1149WN      WN 1629   2.198   2.399   2.810 -0.0536  0.0880  0.1465
 1150WN      WN 1630   1.424   4.161   2.118 -0.0323  0.0652 -0.0527
 1151WN      WN 1631   6.073   5.900   3.576  0.0066 -0.0528  0.1947
 1152WN      WN 1632   5.644   1.907   5.586 -0.1833 -0.1010 -0.0867
 1153WN      WN 1633   0.319   3.241   2.894  0.1372  0.1049  0.1265
 1154WN      WN 1634   1.368   3.657   0.688  0.3328  0.4405 -0.0784
 1155WN      WN 1635   4.437   5.328   3.352 -0.0035 -0.1080  0.1704
 1156WN      WN 1636   5.115   1.001   3.754 -0.2053 -0.0799  0.0828
 1157WN      WN 1637   1.359   3.141   4.283 -0.1145  0.1021  0.0562
 1158WN      WN 1638   2.075   2.640   1.451 -0.0735  0.0295 -0.1115
 1159WN      WN 1639   1.638   1.801   2.040 -0.0517 -0.1828  0.0099
 1160WN      WN 1640   5.480   5.314   0.628  0.0731 -0.2539 -0.2846
 1161WN      WN 1641   3.027   3.095   2.626  0.1651  0.1156  0.0900
 1162WN      WN 1642   4.290   0.419   0.647  0.2241 -0.0263 -0.0893
 1163WN      WN 1643   1.111   5.224   4.548 -0.0216  0.0077  0.1459
 1164WN      WN 1644   4.811   4.895   1.067  0.1491  0.1821 -0.0635
 1165WN      WN 1645   4.449   4.014   3.657  0.3254  0.0371  0.0660
 1166WN      WN 1646   0.807   3.920   5.330  0.0342  0.0196  0.0194
 1167WN      WN 1647   4.317   3.266   1.197 -0.2378 -0.0989  0.1223
 1168WN      WN 1648   2.450   4.322   5.500 -0.4222 -0.0211 -0.0027
 1169WN      WN 1649   4.886   1.703   3.177  0.0925  0.1711  0.2186
 1170WN      WN 1650   3.661   2.289   4.030 -0.2061 -0.1341  0.0903
 1171WN      WN 1651   5.629   2.288   0.261  0.0887  0.0486 -0.0412
 1172WN      WN 1652   4.850   4.793   4.423  0.2368 -0.0752  0.1840
 1173WN      WN 1653   0.064   0.863   5.895  0.1834 -0.0639  0.0681
 1174WN      WN 1654   4.256   3.672   5.013 -0.0162  0.1054 -0.0214
 1175WN      WN 1655   1.024   6.071   2.760 -0.1463 -0.0167  0.0253
 1176WN      WN 1656   0.138   0.067   1.068  0.3703  0.2102 -0.1443
 1177WN      WN 1657   4.026   4.048   2.518  0.0365  0.3218 -0.0206
 1178WN      WN 1658   5.253   5.947   1.703  0.0024  0.2739  0.0601
 1179WN      WN 1659   4.647   3.791   5.804  0.0628  0.0425 -0.1246
 1180WN      WN 1660   0.723   1.172   5.704 -0.4506 -0.2852  0.0089
 1181WN      WN 1661   2.156   2.887   4.675  0.0498  0.2240 -0.1137
 1182WN      WN 1662   4.192   2.501   2.966 -0.1285  0.0590 -0.2695
 1183WN      WN 1663   4.465   2.653   5.523 -0.0001 -0.1549 -0.3227
 1184WN      WN 1664   0.952   5.444   2.043 -0.0955 -0.0404 -0.0141
 1185WN      WN 1665   5.648   2.029   3.992 -0.2331  0.1461 -0.0292
 1186WN      WN 1666   3.644   3.138   5.754  0.2167 -0.0578 -0.1354
 1187WN      WN 1667   2.614   2.069   2.758 -0.2701  0.3251  0.0016
 1188WN      WN 1668   2.304   3.490   2.617 -0.1539  0.2664 -0.1922
 1189WN      WN 1669   1.325   4.822   2.371 -0.1796 -0.3572  0.1767
 1190WN      WN 1670   1.061   5.561   1.257 -0.2390 -0.2067 -0.2235
 1191WN      WN 1671   4.551   5.954   6.031  0.0741  0.2626  0.1882
 1192WN      WN 1672   5.817   1.634   3.249  0.1296  0.1784  0.0649
 1193WN      WN 1673   3.617   6.232   1.487 -0.1001  0.1741 -0.2894
 1194WN      WN 1674   3.778   4.114   3.497 -0.2002  0.0999 -0.0123
 1195WN      WN 1675   3.976   5.031   5.406  0.3706  0.3268  0.0131
 1196WN      WN 1676   1.216   0.905   4.130 -0.0605  0.2017  0.1197
 1197WN      WN 1677   1.416   1.273   1.407  0.2532  0.0229  0.1861
 1198WN      WN 1678   5.745   1.878   4.536  0.3119  0.0329  0.1779
 1199WN      WN 1679   3.240   2.540   3.853 -0.1007  0.1038  0.1800
 1200WN      WN 1680   6.153   6.299   1.428  0.0359 -0.2314 -0.3199
 1201WN      WN 1681   4.171   5.183   2.765  0.0468 -0.5751 -0.0677
 1202WN      WN 1682   2.380   1.415   4.426  0.0492  0.0126 -0.0384
 1203WN      WN 1683   0.765   5.155   3.733 -0.4751  0.0132 -0.0185
 1204WN      WN 1684   2.198   5.454   3.906  0.4101 -0.2353  0.0416
 1205WN      WN 1685   3.256   1.858   2.534 -0.4781 -0.0379 -0.0923
 1206WN      WN 1686   2.691   3.204   1.848  0.3014  0.0153  0.1071
 1207WN      WN 1687   1.541   1.068   5.404  0.4084 -0.1182  0.0544
 1208WN      WN 1688   6.169   1.183   5.115 -0.1314  0.3142  0.0263
 1209WN      WN 1689   0.085   1.130   5.465 -0.1667  0.0464  0.0619
 1210WN      WN 1690   5.159   0.513   3.639  0.2730  0.1021  0.1154
 1211WN      WN 1691   3.951   0.559   1.039  0.0780 -0.0507  0.0781
 1212WN      WN 1692   0.705   6.447   5.061 -0.0063  0.2139 -0.2124
 1213WN      WN 1693   2.719   5.061   2.940 -0.1231 -0.0106 -0.1099
 1214WN      WN 1694   0.846   6.233   5.496 -0.0352 -0.3080 -0.1667
 1215WN      WN 1695   6.362   3.791   1.847  0.2213  0.1233 -0.0785
 1216WN      WN 1696   0.031   0.185   1.584 -0.4349  0.2618 -0.0259
 1217WN      WN 1697   0.446   4.332   0.093 -0.0814  0.1222  0.1475
 1218WN      WN 1698   6.293   0.930   2.113  0.1242  0.0203 -0.0501
 1219WN      WN 1699   0.108   4.533   2.680  0.2252  0.1637  0.0412
 1220WN      WN 1700   2.124   0.920   4.578  0.0422  0.1791 -0.1213
 1221WN      WN 1701   5.440   6.356   2.080  0.1496  0.0458  0.1194
 1222WN      WN 1702   5.870   6.419   3.377 -0.3615  0.0709  0.1976
 1223WN      WN 1703   4.023   5.272   4.777 -0.4647  0.0314 -0.0594
 1224WN      WN 1704   1.917   5.458   5.971  0.1465  0.0348  0.3456
 1225WN      WN 1705   1.680   1.177   5.895  0.2870 -0.1694  0.1590
 1226WN      WN 1706   5.804   3.112   4.354 -0.1346 -0.1079  0.2757
 1227WN      WN 1707   5.101   4.835   6.122  0.1642 -0.2317  0.0200
 1228WN      WN 1708   6.410   5.162   3.760  0.0037  0.3526 -0.1873
 1229WN      WN 1709   4.153   4.675   0.612 -0.2711 -0.1117 -0.0273
 1230WN      WN 1710   4.756   3.279   3.035  0.0441 -0.0247  0.2413
 1231WN      WN 1711   5.126   4.352   4.440  0.1483  0.0451 -0.3445
 1232WN      WN 1712   0.011   6.217   0.867 -0.0238  0.0283  0.1386
 1233WN      WN 1713   4.648   4.616   6.103  0.0420  0.3868  0.0179
 1234WN      WN 1714   4.994   0.182   6.211 -0.2259  0.3163  0.0263
 1235WN      WN 1715   2.204   5.529   6.449  0.0388 -0.0820  0.1288
 1236WN      WN 1716   6.138   3.460   4.242  0.0634  0.1406  0.1253
 1237WN      WN 1717   1.822   2.286   5.264  0.0262  0.1358  0.1133
 1238WN      WN 1718   3.464   1.531   6.392 -0.0263  0.1862 -0.0422
 1239WN      WN 1719   4.176   4.895   3.215 -0.1170  0.2576  0.0867
 1240WN      WN 1720   1.707   3.418   4.682  0.1879  0.2298  0.2681
 1241WN      WN 1721   6.304   3.178   5.797  0.0164 -0.3147 -0.1791
 1242WN      WN 1722   2.256   4.493   3.625 -0.0284 -0.0370 -0.0615
 1243WN      WN 1723   4.085   6.103   6.173 -0.2341 -0.0851 -0.0647
 1244WN      WN 1724   2.575   4.879   6.267 -0.0509 -0.0816 -0.0520
 1245WN      WN 1725   6.444   5.046   1.242  0.1278  0.2255  0.1038
 1246WN      WN 1726   4.750   3.280   5.765  0.0971  0.1496  0.2962
 1247WN      WN 1727   1.852   4.824   2.705 -0.0509  0.0281  0.2739
 1248WN      WN 1728   1.857   4.242   5.994  0.0009  0.1055 -0.0109
 1249WN      WN 1729   2.632   3.045   4.908 -0.1576 -0.0813 -0.0741
 1250WN      WN 1730   3.465   2.662   5.729  0.0587  0.1625  0.0024
 1251WN      WN 1731   0.270   0.233   4.894 -0.5432 -0.2162 -0.1682
 1252WN      WN 1732   2.324   0.409   2.269 -0.1864 -0.1552  0.0261
 1253WN      WN 1733   2.842   5.069   5.146 -0.0890 -0.3266 -0.1012
 1254WN      WN 1734   1.182   3.170   6.445  0.3379 -0.1916  0.0159
 1255WN      WN 1735   0.253   6.288   1.520 -0.1562 -0.0396 -0.0614
 1256WN      WN 1736   0.523   0.022   5.707  0.0445 -0.2531  0.3356
 1257WN      WN 1737   2.630   1.039   4.209 -0.2936  0.3301 -0.1086
 1258WN      WN 1738   2.757   1.844   4.257 -0.1067 -0.3646  0.0006
 1259WN      WN 1739   2.870   6.175   3.501  0.0531  0.0093  0.4340
 1260WN      WN 1740   2.055   0.802   6.161 -0.0595 -0.1422  0.2002
 1261WN      WN 1741   1.781   5.913   3.113  0.1297 -0.1363 -0.0768
 1262WN      WN 1742   5.319   5.128   2.329 -0.2271 -0.0855  0.1110
 1263WN      WN 1743   1.764   2.457   3.330  0.3143  0.0593 -0.3075
 1264WN      WN 1744   1.181   6.508   1.772  0.2985 -0.3503  0.1839
 1265WN      WN 1745   0.626   4.549   6.265 -0.3816  0.2773 -0.1313
 1266WN      WN 1746   2.136   1.834   4.960 -0.1172  0.0349  0.1159
 1267WN      WN 1747   5.811   4.325   2.468  0.1896  0.1145  0.0809
 1268WN      WN 1748   5.751   1.111   4.844  0.1528  0.3112  0.1767
 1269WN      WN 1749   6.431   1.831   1.462  0.0997  0.0571 -0.0372
 1270WN      WN 1750   6.471   5.857   1.695  0.3556  0.0893 -0.0641
 1271WN      WN 1751   6.340   1.294   1.274  0.0669 -0.1187 -0.0246
 1272WN      WN 1752   0.807   6.235   5.952  0.0940  0.1444 -0.1642
 1273WN      WN 1753   3.249   0.453   2.393  0.3593  0.0711  0.0962
 1274WN      WN 1754   3.401   5.425   0.624  0.1658 -0.1413  0.0303
 1275WN      WN 1755   0.434   3.289   4.039 -0.0323  0.4326  0.2540
 1276WN      WN 1756   2.641   0.666   5.406  0.1097  0.0002  0.0093
 1277WN      WN 1757   5.460   5.015   3.471  0.4630 -0.0729 -0.0600
 1278WN      WN 1758   4.741   1.917   5.581  0.1961 -0.1973 -0.1082
 1279WN      WN 1759   6.480   1.563   5.255  0.4342 -0.0773 -0.1562
 1280WN      WN 1760   6.261   0.862   1.056 -0.0314 -0.1158 -0.3033
 1281WN      WN 1761   2.875   5.013   4.563  0.0627  0.3484 -0.0322
 1282WN      WN 1762   0.039   0.566   4.075  0.1139 -0.1536  0.0692
 1283WN      WN 1763   0.294   3.685   2.386  0.0910  0.0853  0.1261
 1284WN      WN 1764   0.706   2.176   5.103 -0.1492  0.1489  0.1208
 1285WN      WN 1765   6.086   3.322   0.916  0.0197 -0.1603  0.0500
 1286WN      WN 1766   4.651   0.769   3.670  0.3803  0.3640  0.0466
 1287WN      WN 1767   3.075   5.520   4.338 -0.0329  0.1289  0.2163
 1288WN      WN 1768   0.166   4.328   6.257 -0.0900  0.1081  0.4733
 1289WN      WN 1769   0.166   5.262   0.421 -0.1787 -0.2032 -0.0372
 1290WN      WN 1770   3.844   5.043   6.186 -0.1256  0.0074 -0.0112
 1291WN      WN 1771   3.813   2.442   4.597  0.1931 -0.0295 -0.2182
 1292WN      WN 1772   1.782   1.958   3.203  0.3206 -0.0104  0.2314
 1293WN      WN 1773   5.075   2.945   2.864  0.0355 -0.0993  0.2776
 1294WN      WN 1774   1.713   5.807   1.693 -0.0296 -0.1772  0.1015
 1295WN      WN 1775   2.975   3.781   3.223  0.0023  0.1910  0.2644
 1296WN      WN 1776   1.566   5.551   4.522 -0.2905 -0.2694  0.4958
 1297WN      WN 1777   0.928   5.777   5.855 -0.3435 -0.0728  0.1842
 1298WN      WN 1778   2.789   3.953   5.234  0.0412 -0.0281 -0.3260
 1299WN      WN 1779   2.719   4.077   0.863 -0.2689  0.2234  0.0976
 1300WN      WN 1780   1.983   1.263   0.697 -0.0749 -0.0896  0.0922
 1301WN      WN 1781   5.130   6.416   4.763  0.2507 -0.2049 -0.1138
 1302WN      WN 1782   2.085   0.344   0.765 -0.1916 -0.1999  0.0597
 1303WN      WN 1783   5.417   5.382   1.904 -0.3338  0.1477 -0.4506
 1304WN      WN 1784   0.712   6.233   1.812 -0.2158  0.1123 -0.0075
 1305WN      WN 1785   4.830   3.382   0.631 -0.0125  0.0126 -0.0070
 1306WN      WN 1786   1.235   2.944   6.017  0.1854  0.0441 -0.0526
 1307WN      WN 1787   1.909   3.472   0.266  0.3550  0.1594  0.0052
 1308WN      WN 1788   1.283   0.795   4.772 -0.1629  0.1769  0.4992
 1309WN      WN 1789   0.764   2.034   5.930  0.0891  0.2053 -0.0580
 1310WN      WN 1790   5.340   1.382   6.222  0.1359 -0.0345 -0.1450
 1311WN      WN 1791   5.582   6.537   0.338 -0.0629 -0.2836 -0.0121
 1312WN      WN 1792   3.669   0.239   6.346  0.1811  0.2388  0.0331
 1313WN      WN 1793   1.506   2.243   1.950 -0.5203  0.1137  0.1754
 1314WN      WN 1794   2.257   5.103   5.900 -0.1450  0.3368  0.1888
 1315WN      WN 1795   1.287   4.905   3.692  0.1476 -0.0503 -0.2741
 1316WN      WN 1796   4.202   0.429   3.556 -0.1204 -0.1843 -0.0087
 1317WN      WN 1797   0.028   4.906   4.734  0.3833  0.1102  0.0581
 1318WN      WN 1798   0.792   5.343   5.455 -0.4089  0.2853 -0.0307
 1319WN      WN 1799   6.052   0.205   4.514  0.0371 -0.2945 -0.0362
 1320WN      WN 1800   3.343   4.069   5.977 -0.3211  0.2551 -0.0291
 1321WN      WN 1801   1.029   3.922   1.829 -0.0070 -0.1261  0.2002
 1322WN      WN 1802   3.227   3.650   4.547  0.1482  0.4167 -0.2883
 1323WN      WN 1803   2.409   6.463   6.544  0.0239  0.1640  0.0188
 1324WN      WN 1804   4.574   4.781   3.468  0.4834  0.3310 -0.3939
 1325WN      WN 1805   6.197   5.478   1.903 -0.1353 -0.2217 -0.1636
 1326WN      WN 1806   6.213   2.799   6.288  0.1627  0.2358  0.0950
 1327WN      WN 1807   3.843   1.818   0.650  0.2239  0.2611  0.0423
 1328WN      WN 1808   2.167   5.158   5.346 -0.2276 -0.2956  0.4241
 1329WN      WN 1809   2.180   1.754   3.427  0.2021  0.2367  0.1432
 1330WN      WN 1810   3.259   4.582   3.751 -0.2643  0.0289 -0.0851
 1331WN      WN 1811   6.226   3.740   5.856  0.1867  0.0345 -0.0711
 1332WN      WN 1812   6.331   0.630   2.557 -0.0184 -0.0571 -0.0672
 1333WN      WN 1813   0.056   3.485   6.043  0.1445 -0.1862  0.1000
 1334WN      WN 1814   6.290   4.893   5.518  0.2175  0.0176 -0.4028
 1335WN      WN 1815   5.426   4.071   0.832 -0.0449 -0.2665 -0.0482
 1336WN      WN 1816   4.880   5.293   4.523 -0.0582 -0.0137  0.0072
 1337WN      WN 1817   1.247   5.907   0.093 -0.3548 -0.1588 -0.2299
 1338WN      WN 1818   2.076   2.987   0.450 -0.2956  0.3817  0.1286
 1339WN      WN 1819   2.876   1.246   1.006  0.1433 -0.2304 -0.2703
 1340WN      WN 1820   2.673   4.621   1.039 -0.1281 -0.2073  0.3886
 1341WN      WN 1821   6.547   3.474   1.054  0.1129 -0.2004 -0.0963
 1342WN      WN 1822   2.599   6.273   3.990 -0.1439  0.2141 -0.0613
 1343WN      WN 1823   5.766   4.449   5.452 -0.0668 -0.0567  0.2757
 1344WN      WN 1824   2.752   0.487   4.269  0.2518 -0.4831  0.0974
 1345WN      WN 1825   4.406   5.064   4.446  0.1757 -0.3542 -0.2301
 1346WN      WN 1826   2.557   5.400   5.543 -0.1646  0.0441  0.2160
 1347WN      WN 1827   1.040   0.293   1.349 -0.2243 -0.2251  0.2155
 1348WN      WN 1828   0.142   0.629   1.277  0.0879 -0.0499 -0.1089
 1349WN      WN 1829   2.700   5.461   0.112  0.0490 -0.1961 -0.2661
 1350WN      WN 1830   0.328   2.378   1.092 -0.1974  0.4050 -0.3151
 1351WN      WN 1831   2.910   2.414   3.467  0.4941 -0.0201 -0.1160
 1352WN      WN 1832   3.748   6.073   4.589 -0.2409 -0.0070  0.3095
 1353WN      WN 1833   6.443   2.138   2.859 -0.1524 -0.0385  0.1181
 1354WN      WN 1834   1.098   1.246   2.015  0.0396 -0.2186 -0.1489
 1355WN      WN 1835   0.350   3.373   1.509  0.0479 -0.1962  0.1186
 1356WN      WN 1836   6.241   1.408   3.034  0.0247  0.1395 -0.2432
 1357WN      WN 1837   4.343   0.758   0.267 -0.1882 -0.2489  0.0076
 1358WN      WN 1838   3.182   2.666   2.825  0.1641 -0.0566  0.0146
 1359WN      WN 1839   0.605   1.146   2.320 -0.2702  0.4251  0.2544
 1360WN      WN 1840   3.224   3.972   5.462  0.1901  0.1877 -0.1134
 1361WN      WN 1841   3.221   6.012   2.281  0.0712 -0.0680 -0.5417
 1362WN      WN 1842   0.862   6.364   0.727 -0.1653 -0.0054  0.2441
 1363WN      WN 1843   1.695   6.218   5.344  0.1554 -0.1498 -0.0081
 1364WN      WN 1844   6.551   3.111   0.696 -0.1079 -0.2054 -0.2416
 1365WN      WN 1845   6.461   4.574   2.227 -0.0896  0.1008 -0.1456
 1366WN      WN 1846   0.845   2.983   4.441  0.1126  0.2975 -0.0050
 1367WN      WN 1847   0.574   0.073   1.524 -0.0900  0.2374  0.1452
 1368WN      WN 1848   4.909   1.991   0.786 -0.1617  0.0688 -0.1004
 1369WN      WN 1849   3.941   4.047   3.025  0.4619 -0.1482  0.0348
 1370WN      WN 1850   2.262   3.147   2.105 -0.5423 -0.2573  0.1636
 1371WN      WN 1851   4.988   1.973   4.702 -0.0096 -0.3398 -0.1392
 1372WN      WN 1852   6.280   4.816   2.683 -0.0240 -0.2774 -0.0064
 1373WN      WN 1853   4.713   2.170   6.381 -0.1457 -0.0924 -0.1077
 1374WN      WN 1854   2.929   4.053   1.500  0.1275 -0.2384 -0.1928
 1375WN      WN 1855   2.960   1.273   5.585 -0.0049  0.0996  0.3631
 1376WN      WN 1856   3.740   4.613   5.031  0.2186 -0.2115 -0.2641
 1377WN      WN 1857   3.529   2.227   2.584 -0.1451 -0.2384  0.1097
 1378WN      WN 1858   1.622   1.653   6.022 -0.1822  0.2042 -0.2496
 1379WN      WN 1859   2.071   3.360   5.477 -0.0407  0.0711 -0.0433
 1380WN      WN 1860   5.970   5.989   5.060 -0.0020  0.2848  0.2523
 1381WN      WN 1861   0.992   3.457   5.178  0.0161 -0.1747 -0.1270
 1382WN      WN 1862   0.677   0.788   2.789 -0.0936  0.4494 -0.1007
 1383WN      WN 1863   3.588   5.707   1.571 -0.1922 -0.1519  0.0916
 1384WN      WN 1864   2.911   2.141   2.334 -0.2013 -0.2202 -0.4778
 1385WN      WN 1865   5.977   2.673   4.546  0.1097  0.1807 -0.1012
 1386WN      WN 1866   4.805   1.144   0.564 -0.0395 -0.0329 -0.5536
 1387WN      WN 1867   1.180   4.075   3.821  0.3662  0.0899 -0.0938
 1388WN      WN 1868   0.173   4.972   5.219 -0.0184  0.0879 -0.3986
 1389WN      WN 1869   6.452   2.929   0.145 -0.0941  0.2805  0.2159
 1390WN      WN 1870   2.606   3.893   2.496  0.0683  0.0974 -0.0785
 1391WN      WN 1871   0.108   0.457   5.348 -0.2967 -0.1237 -0.1225
 1392WN      WN 1872   0.244   0.590   1.753  0.0221  0.0064  0.1948
 1393WN      WN 1873   2.942   1.577   2.205  0.0877  0.3683  0.3873
 1394WN      WN 1874   2.252   6.037   6.227 -0.0803  0.1832 -0.1798
 1395WN      WN 1875   1.067   6.493   6.349 -0.0158 -0.1665  0.3530
 1396WN      WN 1876   4.928   0.816   0.940 -0.0321 -0.0145 -0.0045
 1397WN      WN 1877   5.244   5.969   6.226  0.1720  0.1593 -0.1053
 1398WN      WN 1878   4.739   0.041   5.338  0.1371 -0.1475  0.3422
 1399WN      WN 1879   3.641   0.218   4.027  0.1541  0.2306 -0.1730
 1400WN      WN 1880   0.696   2.553   4.036 -0.0991 -0.1657  0.1134
 1401WN      WN 1881   3.072   3.455   3.664  0.1545  0.0635  0.2600
 1402WN      WN 1882   5.850   5.958   6.139 -0.1169  0.1781  0.1997
 1403WN      WN 1883   1.306   6.042   3.326 -0.0933 -0.3909 -0.2520
 1404WN      WN 1884   3.813   0.610   1.712  0.0465  0.0148  0.0215
 1405WN      WN 1885   4.111   1.372   4.218  0.0307 -0.4590 -0.4142
 1406WN      WN 1886   5.590   5.814   2.048 -0.2271 -0.1750  0.0588
 1407WN      WN 1887   1.888   1.911   5.567 -0.1368 -0.0282 -0.0821
 1408WN      WN 1888   0.526   5.093   2.803 -0.0052  0.3169 -0.1152
 1409WN      WN 1889   1.593   1.948   1.248 -0.1554 -0.1949 -0.1333
 1410WN      WN 1890   5.974   0.326   0.417  0.2846  0.2175 -0.3571
 1411WN      WN 1891   1.817   2.951   3.502  0.1194  0.3741 -0.2357
 1412WN      WN 1892   5.411   4.738   4.233 -0.0038  0.0099 -0.1538
 1413WN      WN 1893   2.112   0.574   3.088 -0.0017  0.1293 -0.1126
 1414WN      WN 1894   2.747   0.627   2.373 -0.0460  0.0872  0.0417
 1415WN      WN 1895   2.905   2.472   1.829 -0.3766  0.3073 -0.0405
 1416WN      WN 1896   2.273   0.197   4.136  0.2721  0.0323 -0.1737
 1417WN      WN 1897   6.027   0.725   4.936  0.0630  0.0799 -0.1177
 1418WN      WN 1898   6.186   0.275   5.067 -0.0539 -0.1007 -0.1527
 1419WN      WN 1899   4.156   0.997   1.164  0.1092 -0.1727 -0.2455
 1420WN      WN 1900   0.503   0.828   5.439 -0.2350  0.0209 -0.2643
 1421WN      WN 1901   1.278   5.476   0.323 -0.1224  0.1386  0.2845
 1422WN      WN 1902   5.879   4.502   4.106  0.1965 -0.0657 -0.4124
 1423WN      WN 1903   5.671   2.733   0.986  0.4211  0.1041  0.3479
 1424WN      WN 1904   1.033   3.035   3.390  0.0926 -0.0009  0.2142
 1425WN      WN 1905   3.442   5.928   3.737 -0.1816 -0.2275 -0.0483
 1426WN      WN 1906   1.592   0.760   2.859 -0.0279  0.1681 -0.0492
 1427WN      WN 1907   1.959   5.435   2.256 -0.0781 -0.0714  0.0940
 1428WN      WN 1908   3.763   0.196   2.218  0.3966 -0.1723 -0.0289
 1429WN      WN 1909   2.479   0.509   1.618  0.3562 -0.0286 -0.4812
 1430WN      WN 1910   5.666   0.698   3.655 -0.0326 -0.2125  0.0826
 1431WN      WN 1911   5.588   4.921   6.089 -0.3519  0.1077  0.0404
 1432WN      WN 1912   1.170   5.941   1.655 -0.0403 -0.1190 -0.1050
 1433WN      WN 1913   4.139   3.192   5.848 -0.2265 -0.0685  0.0236
 1434WN      WN 1914   5.056   1.168   5.002  0.0254 -0.5976  0.3366
 1435WN      WN 1915   3.259   1.265   2.896  0.0184  0.3146 -0.1973
 1436WN      WN 1916   6.092   1.933   3.732  0.1386 -0.2261 -0.1110
 1437WN      WN 1917   2.473   2.576   3.548 -0.0724 -0.1708  0.1398
 1438WN      WN 1918   0.834   6.227   3.562 -0.0641 -0.2030 -0.0300
 1439WN      WN 1919   6.530   0.830   4.974  0.1421 -0.2307  0.3754
 1440WN      WN 1920   4.984   3.920   4.818  0.0824 -0.1591  0.0081
 1441WN      WN 1921   4.400   2.460   1.308 -0.2892 -0.0449  0.1391
 1442WN      WN 1922   6.086   3.431   0.367  0.0583 -0.1113 -0.2693
 1443WN      WN 1923   4.501   3.041   4.048  0.3917 -0.3227 -0.2122
 1444WN      WN 1924   5.289   5.851   0.755  0.1544 -0.1842  0.1733
 1445WN      WN 1925   0.067   2.881   3.133 -0.0752 -0.1280 -0.1307
 1446WN      WN 1926   4.766   1.730   0.248  0.0328  0.1659 -0.1218
 1447WN      WN 1927   3.797   6.302   6.541  0.2507 -0.3332 -0.1424
 1448WN      WN 1928   2.580   5.339   4.237  0.3221 -0.2271  0.1015
 1449WN      WN 1929   4.475   4.103   0.961 -0.1262 -0.4114  0.0413
 1450WN      WN 1930   1.689   3.450   2.882 -0.0242  0.1657 -0.0798
 1451WN      WN 1931   6.406   6.163   3.325 -0.2160 -0.2950  0.0923
 1452WN      WN 1932   1.865   3.821   6.452  0.1660  0.0537  0.1754
 1453WN      WN 1933   5.084   2.687   0.153  0.0020  0.2852  0.3006
 1454WN      WN 1934   2.831   1.545   2.678  0.1044 -0.2435  0.3084
 1455WN      WN 1935   1.630   3.209   0.590  0.3489  0.2697 -0.2699
 1456WN      WN 1936   2.967   6.116   0.782 -0.0462  0.2041  0.1751
 1457WN      WN 1937   0.321   4.542   0.864  0.0873  0.2113 -0.0844
 1458WN      WN 1938   5.568   0.254   1.900  0.1234 -0.0162  0.0811
 1459WN      WN 1939   4.945   5.726   5.932  0.2276  0.1495 -0.1326
 1460WN      WN 1940   2.454   1.034   0.962 -0.0163  0.0017  0.0326
 1461WN      WN 1941   1.190   5.674   2.405 -0.1492 -0.1564  0.0560
 1462WN      WN 1942   5.552   4.340   3.288 -0.0731  0.0066 -0.3201
 1463WN      WN 1943   3.581   1.476   4.138 -0.1040 -0.3068  0.1964
 1464WN      WN 1944   3.971   1.767   6.299  0.4929  0.2115  0.0931
 1465WN      WN 1945   1.838   4.731   0.930 -0.1633 -0.4448  0.2589
 1466WN      WN 1946   5.337   1.338   3.394  0.0329 -0.3333  0.0285
 1467WN      WN 1947   0.969   2.408   1.970 -0.2484  0.3263 -0.0036
 1468WN      WN 1948   4.594   5.124   2.469  0.1902  0.2740  0.0819
 1469WN      WN 1949   4.130   1.543   5.294  0.3353  0.2961 -0.0127
 1470WN      WN 1950   2.406   2.695   1.882  0.1805 -0.1066 -0.0286
 1471WN      WN 1951   4.410   3.531   6.143 -0.3266  0.0152 -0.0226
 1472WN      WN 1952   5.293   5.675   4.324 -0.1989  0.2422  0.0610
 1473WN      WN 1953   1.257   1.792   0.258 -0.0359 -0.1526 -0.3052
 1474WN      WN 1954   3.120   4.527   2.653  0.0947  0.0072 -0.1744
 1475WN      WN 1955   5.228   3.300   4.237  0.2532  0.0086  0.0847
 1476WN      WN 1956   4.365   5.067   6.406 -0.1921  0.0121 -0.1450
 1477WN      WN 1957   5.051   4.958   0.583  0.2269 -0.2810  0.0190
 1478WN      WN 1958   5.845   6.449   4.823  0.0617  0.2284  0.1565
 1479WN      WN 1959   6.428   1.551   4.295  0.2363  0.0537  0.0221
 1480WN      WN 1960   1.090   0.838   3.029 -0.3665 -0.0288 -0.0954
 1481WN      WN 1961   2.372   1.358   4.934 -0.4040 -0.2324 -0.0284
 1482WN      WN 1962   0.335   2.794   0.573 -0.0064  0.0924 -0.3349
 1483WN      WN 1963   2.765   3.128   1.264 -0.0214 -0.0192 -0.0480
 1484WN      WN 1964   5.183   3.495   5.057 -0.2966 -0.0181  0.0143
 1485WN      WN 1965   1.570   3.792   1.842 -0.1382 -0.0441  0.3186
 1486WN      WN 1966   0.476   5.590   4.746 -0.0116 -0.1413 -0.0966
 1487WN      WN 1967   2.433   1.150   5.611 -0.0062  0.0919 -0.1251
 1488WN      WN 1968   1.258   5.333   3.928 -0.3002  0.1239 -0.4665
 1489WN      WN 1969   5.518   2.824   0.420 -0.1455 -0.0016 -0.2058
 1490WN      WN 1970   6.316   3.766   0.650 -0.0366 -0.2588 -0.0496
 1491WN      WN 1971   0.235   5.228   3.407  0.1710  0.2193  0.0359
 1492WN      WN 1972   6.205   0.652   4.472  0.0451  0.2120  0.0352
 1493WN      WN 1973   5.782   4.142   1.360 -0.1353 -0.1632  0.2452
 1494WN      WN 1974   6.496   2.317   4.584 -0.0595 -0.0173  0.1023
 1495WN      WN 1975   1.453   5.706   5.870 -0.2036  0.3212  0.0682
 1496WN      WN 1976   4.647   0.480   5.134  0.1862 -0.2835 -0.2315
 1497WN      WN 1977   0.410   4.889   1.231 -0.2342  0.1644  0.0133
 1498WN      WN 1978   3.589   5.715   2.903 -0.1629 -0.1774 -0.3385
 1499WN      WN 1979   4.390   3.423   4.412 -0.0781 -0.0571  0.1929
 1500WN      WN 1980   6.555   4.703   3.678 -0.2174 -0.1205  0.0840
 1501WN      WN 1981   2.000   0.038   3.213  0.3290  0.5703 -0.0025
 1502WN      WN 1982   4.992   2.755   5.712  0.1565 -0.0673  0.0006
 1503WN      WN 1983   6.102   0.183   5.549  0.3102  0.0766  0.0863
 1504WN      WN 1984   5.669   2.331   5.341 -0.0005  0.1422 -0.1126
 1505WN      WN 1985   1.710   4.416   2.485  0.0752 -0.1369 -0.0306
 1506WN      WN 1986   2.400   0.021   1.919 -0.1015  0.1955  0.1428
 1507WN      WN 1987   1.131   3.997   0.237  0.1442  0.6188  0.0281
 1508WN      WN 1988   4.384   2.086   0.893  0.2514 -0.2041  0.3221
 1509WN      WN 1989   3.407   3.223   0.503  0.1034  0.0211 -0.2625
 1510WN      WN 1990   4.128   1.137   2.753  0.2262 -0.2547  0.3973
 1511WN      WN 1991   6.206   4.138   5.429  0.1897 -0.0561 -0.1205
 1512WN      WN 1992   2.993   5.777   6.377  0.1332  0.0224 -0.2583
 1513WN      WN 1993   1.015   0.528   3.412 -0.0454  0.3482  0.1238
 1514WN      WN 1994   5.763   5.410   6.198 -0.2798 -0.0519  0.0826
 1515WN      WN 1995   2.287   4.312   3.180 -0.0244 -0.2179  0.1260
 1516WN      WN 1996   0.654   1.084   0.466 -0.2033  0.3652 -0.3485
 1517WN      WN 1997   5.363   2.046   4.987 -0.0868 -0.4603  0.0082
 1518WN      WN 1998   5.457   3.381   2.664 -0.1656  0.1455  0.1160
 1519WN      WN 1999   4.272   2.248   4.495  0.2499  0.4204  0.0105
 1520WN      WN 2000   1.627   1.518   1.016 -0.0281  0.3712 -0.0356
 1521WN      WN 2001   4.021   0.614   6.209  0.1206 -0.0434 -0.0550
 1522WN      WN 2002   1.922   4.037   2.243  0.1482  0.1198  0.0756
 1523WN      WN 2003   4.636   0.910   4.852 -0.2810 -0.1859 -0.1113
 1524WN      WN 2004   4.477   5.590   4.389 -0.3144  0.0801  0.1067
 1525WN      WN 2005   6.164   2.887   2.997 -0.3303 -0.0374  0.0577
 1526WN      WN 2006   3.770   6.236   5.615 -0.0101  0.1812  0.1363
 1527WN      WN 2007   3.289   5.774   5.329 -0.4982  0.0685 -0.3267
 1528WN      WN 2008   3.874   3.036   4.245  0.1784  0.1412 -0.1844
 1529WN      WN 2009   3.862   0.151   0.740  0.3796  0.1930  0.0739
 1530WN      WN 2010   3.810   0.622   0.561  0.0510 -0.0733  0.2566
 1531WN      WN 2011   2.105   1.838   6.081  0.0681 -0.1215 -0.3305
 1532WN      WN 2012   3.735   2.534   2.918  0.2073  0.4504  0.1549
 1533WN      WN 2013   1.756   3.040   2.266 -0.1528  0.3555  0.1325
 1534WN      WN 2014   1.826   4.144   4.011 -0.1354 -0.2740  0.1076
 1535WN      WN 2015   1.646   0.979   3.856 -0.0401  0.0032 -0.3018
 1536WN      WN 2016   6.418   3.073   5.270  0.1486  0.0866  0.0013
 1537WN      WN 2017   0.966   1.230   4.915  0.1257 -0.4301 -0.1240
 1538WN      WN 2018   5.345   5.951   0.285  0.0730 -0.1587  0.0348
 1539WN      WN 2019   1.745   5.161   3.860  0.0824  0.1611  0.0425
 1540WN      WN 2020   4.630   0.266   3.783  0.3029 -0.0431  0.2735
 1541WN      WN 2021   5.572   2.912   4.994  0.1806  0.0678  0.2450
 1542WN      WN 2022   6.489   0.351   2.055  0.1362 -0.4723  0.2622
 1543WN      WN 2023   5.230   6.143   1.165  0.4699 -0.3022  0.1164
 1544WN      WN 2024   4.467   6.138   1.868 -0.1826 -0.1249  0.0189
 1545WN      WN 2025   5.633   4.625   1.468 -0.1602  0.1110  0.0828
 1546WN      WN 2026   0.348   3.738   5.221  0.4585  0.0700 -0.1874
 1547WN      WN 2027   4.744   0.426   3.334  0.0899  0.0815 -0.1212
 1548WN      WN 2028   2.926   2.786   5.978  0.1011 -0.0305 -0.0251
 1549WN      WN 2029   0.751   1.751   2.411 -0.0328  0.2208 -0.0509
 1550WN      WN 2030   6.071   2.093   1.228  0.0635 -0.2146  0.0388
 1551WN      WN 2031   4.636   6.511   4.817  0.1622  0.4788  0.2589
 1552WN      WN 2032   6.491   5.640   3.824  0.0366  0.0203 -0.1578
 1553WN      WN 2033   1.158   0.901   3.636  0.0422 -0.0737 -0.1801
 1554WN      WN 2034   5.736   6.283   1.152 -0.0437 -0.1990  0.1762
 1555WN      WN 2035   1.382   5.710   5.353  0.2547  0.1256 -0.4761
 1556WN      WN 2036   3.452   4.567   0.299 -0.0178  0.1359  0.0033
 1557WN      WN 2037   2.608   2.960   3.159 -0.2127 -0.4439  0.3170
 1558WN      WN 2038   1.146   0.998   2.525  0.1731 -0.0294 -0.0893
 1559WN      WN 2039   3.830   4.212   0.003 -0.0319  0.0159  0.1563
 1560WN      WN 2040   1.816   0.872   4.954  0.1084 -0.0667 -0.1580
 1561WN      WN 2041   0.158   1.351   3.802  0.0125  0.0815 -0.2987
 1562WN      WN 2042   3.806   4.905   4.564 -0.2575 -0.0250 -0.0812
 1563WN      WN 2043   4.314   2.123   5.415  0.3323 -0.1864  0.0440
 1564WN      WN 2044   4.408   4.635   0.131  0.0729  0.1071  0.1136
 1565WN      WN 2045   2.212   6.090   2.337 -0.2622  0.1799  0.2999
 1566WN      WN 2046   3.356   1.179   2.426 -0.0166  0.0065 -0.0856
 1567WN      WN 2047   6.562   4.476   5.236 -0.1310 -0.1333 -0.0892
 1568WN      WN 2048   1.084   1.336   3.276 -0.0582 -0.0413  0.2177
 1569WN      WN 2049   1.661   0.495   4.640 -0.0531 -0.1666  0.0776
 1570WN      WN 2050   5.036   4.747   5.568  0.0585  0.1918 -0.0380
 1571WN      WN 2051   1.112   1.294   5.406  0.1923 -0.0084 -0.2686
 1572WN      WN 2052   0.027   2.617   6.013  0.0883  0.2338  0.4558
 1573WN      WN 2053   3.057   4.312   1.094 -0.1729  0.3251  0.1519
 1574WN      WN 2054   5.378   5.393   5.347 -0.4673 -0.3058  0.0915
 1575WN      WN 2055   5.689   4.234   6.427  0.1335  0.2160 -0.0481
 1576WN      WN 2056   1.995   6.554   2.363 -0.2565 -0.0343  0.2015
 1577WN      WN 2057   1.357   6.192   0.569  0.0925  0.2159  0.0710
 1578WN      WN 2058   0.390   4.777   4.365 -0.0980 -0.1479  0.0472
 1579WN      WN 2059   0.243   0.878   3.248  0.1830  0.1793 -0.2826
 1580WN      WN 2060   4.387   0.919   3.231  0.1994  0.0637 -0.2678
 1581WN      WN 2061   0.472   0.336   4.285  0.0944  0.1068 -0.0496
 1582WN      WN 2062   4.682   2.547   4.282 -0.1887 -0.2269 -0.4376
 1583WN      WN 2063   5.112   0.281   5.137  0.0202  0.1977  0.0439
 1584WN      WN 2064   2.197   5.500   0.377 -0.0003  0.0763  0.0275
 1585WN      WN 2065   4.167   5.059   0.288 -0.1442 -0.0737  0.3361
 1586WN      WN 2066   3.000   3.499   5.356  0.0679 -0.1803 -0.1150
 1587WN      WN 2067   4.826   4.285   5.748  0.3675  0.0425  0.0438
 1588WN      WN 2068   2.195   3.678   3.530 -0.0098 -0.3517  0.2244
 1589WN      WN 2069   5.635   6.084   3.703 -0.2049 -0.1302  0.1184
 1590WN      WN 2070   0.965   2.811   0.218 -0.0252 -0.3444 -0.0095
 1591WN      WN 2071   4.794   4.081   5.275 -0.0166  0.2123  0.0676
 1592WN      WN 2072   6.487   3.347   3.894  0.0639  0.1308  0.1309
 1593WN      WN 2073   0.769   5.855   2.180 -0.2457 -0.1724 -0.2121
 1594WN      WN 2074   4.720   2.298   5.205  0.1477  0.2230  0.1724
 1595WN      WN 2075   2.021   5.302   1.394  0.0896 -0.0734  0.3062
 1596WN      WN 2076   2.117   0.700   1.927 -0.1255 -0.3602  0.1080
 1597WN      WN 2077   4.087   3.731   3.384 -0.0344  0.1084 -0.0929
 1598WN      WN 2078   3.428   3.159   3.490 -0.0734  0.1418  0.3435
 1599WN      WN 2079   3.587   5.459   2.488  0.1730 -0.1948 -0.1113
 1600WN      WN 2080   6.190   4.022   4.440  0.2357  0.0643 -0.0723
 1601WN      WN 2081   2.760   4.493   3.718 -0.0338 -0.2787  0.1363
 1602WN      WN 2082   2.184   1.221   3.069  0.1522  0.0256 -0.2663
 1603WN      WN 2083   4.359   6.098   4.476 -0.1057  0.0881  0.1596
 1604WN      WN 2084   4.565   2.959   0.794  0.3588  0.3005  0.0912
 1605WN      WN 2085   1.531   2.664   5.075 -0.0885 -0.0350  0.0785
 1606WN      WN 2086   0.564   2.344   0.573  0.2555 -0.0299  0.3230
 1607WN      WN 2087   1.677   3.904   0.345  0.1273  0.1156  0.1055
 1608WN      WN 2088   5.925   1.708   0.472  0.1891 -0.2801 -0.1794
 1609WN      WN 2089   0.692   3.581   4.321  0.2829 -0.1171 -0.0361
 1610WN      WN 2090   2.296   4.695   2.430  0.1178  0.3088 -0.0199
 1611WN      WN 2091   1.813   3.321   1.904  0.3007 -0.0945  0.0088
 1612WN      WN 2092   1.753   5.736   4.978 -0.0088  0.2820 -0.1067
 1613WN      WN 2093   1.493   5.072   3.267 -0.4087  0.2167  0.2861
 1614WN      WN 2094   3.884   3.304   6.275 -0.3320  0.3189 -0.0441
 1615WN      WN 2095   2.503   1.360   2.091  0.0265 -0.3029 -0.2085
 1616WN      WN 2096   2.526   2.478   2.405 -0.2434 -0.2003  0.2152
 1617WN      WN 2097   0.479   5.138   0.818  0.1393 -0.3989 -0.0702
 1618WN      WN 2098   5.730   3.670   0.665  0.0729  0.0978 -0.0014
 1619WN      WN 2099   0.177   1.827   4.045 -0.1213 -0.0651  0.3821
 1620WN      WN 2100   3.018   0.946   6.310 -0.4289  0.0897 -0.0566
 1621WN      WN 2101   4.821   1.580   4.152 -0.3546  0.4972 -0.1009
 1622WN      WN 2102   3.926   4.663   0.122  0.1982 -0.0745 -0.4523
 1623WN      WN 2103   2.296   5.877   2.856 -0.1201 -0.0572  0.1597
 1624WN      WN 2104   4.933   5.499   3.990  0.1172 -0.1887  0.0662
 1625WN      WN 2105   4.044   0.699   3.032  0.1082 -0.1498  0.3046
 1626WN      WN 2106   6.483   2.126   0.873  0.0213 -0.0559 -0.5078
 1627WN      WN 2107   4.816   0.274   0.830  0.0045  0.3434 -0.2123
 1628WN      WN 2108   1.865   4.765   4.620  0.2227  0.0627  0.3744
 1629WN      WN 2109   2.995   2.298   4.205 -0.0548 -0.1040  0.1259
 1630WN      WN 2110   5.478   5.240   2.937 -0.1377 -0.1043  0.0394
 1631WN      WN 2111   3.327   6.056   3.283  0.0463 -0.0302  0.3381
 1632WN      WN 2112   0.119   5.416   1.003  0.1678  0.2658  0.1602
 1633WN      WN 2113   1.822   0.539   2.387  0.1645  0.0394  0.1845
 1634WN      WN 2114   3.695   5.241   5.723  0.2705 -0.2956 -0.5221
 1635WN      WN 2115   5.651   6.445   4.309 -0.0111  0.0168 -0.0772
 1636WN      WN 2116   4.198   2.696   0.508 -0.1443  0.1468 -0.3738
 1637WN      WN 2117   1.594   1.016   0.389  0.2305  0.0330  0.2884
 1638WN      WN 2118   4.770   0.937   1.384 -0.1951 -0.0517  0.2744
 1639WN      WN 2119   5.240   3.260   0.323 -0.1047  0.1958 -0.2345
 1640WN      WN 2120   6.090   4.654   5.090  0.3846 -0.0639 -0.1617
 1641WN      WN 2121   5.849   6.098   0.149  0.2798  0.0638  0.2133
 1642WN      WN 2122   4.149   1.549   2.090 -0.1400 -0.1047 -0.0926
 1643WN      WN 2123   1.779   4.366   2.974 -0.1772 -0.2228  0.1966
 1644WN      WN 2124   2.070   2.078   2.435  0.3390 -0.2206  0.2407
 1645WN      WN 2125   0.498   3.936   6.142 -0.1305  0.1507 -0.3375
 1646WN      WN 2126   3.135   5.661   2.647  0.1483 -0.4466  0.2164
 1647WN      WN 2127   1.725   4.732   0.148 -0.2597 -0.0266 -0.2065
 1648WN      WN 2128   1.061   1.763   5.042 -0.2027  0.1736  0.1105
 1649WN      WN 2129   3.673   1.482   2.705 -0.0773 -0.1733  0.2398
 1650WN      WN 2130   4.504   0.751   4.340 -0.0134  0.1657  0.2547
 1651WN      WN 2131   0.452   6.067   3.762 -0.0725 -0.1975  0.0072
 1652WN      WN 2132   6.502   5.411   5.452 -0.2211  0.0079 -0.0381
 1653WN      WN 2133   5.007   5.359   6.362 -0.3786  0.2253  0.1630
 1654WN      WN 2134   3.499   3.284   2.665  0.1032  0.0594 -0.0238
 1655WN      WN 2135   4.393   2.026   4.909  0.2996 -0.1879 -0.4452
 1656WN      WN 2136   5.987   4.570   2.066  0.2725  0.0276  0.2433
 1657WN      WN 2137   1.353   0.061   3.526 -0.0247 -0.0155 -0.0019
 1658WN      WN 2138   0.731   2.478   4.567 -0.0565 -0.0861 -0.4365
 1659WN      WN 2139   4.372   6.016   2.747 -0.1151  0.1612  0.0973
 1660WN      WN 2140   5.247   6.540   1.549 -0.1401 -0.0109  0.0085
 1661WN      WN 2141   4.453   3.859   2.638 -0.0604  0.3760 -0.0973
 1662WN      WN 2142   5.626   3.519   5.721 -0.5403  0.1469  0.0651
 1663WN      WN 2143   6.437   1.548   0.564 -0.0502 -0.0920  0.0073
 1664WN      WN 2144   0.950   2.527   3.097  0.0355 -0.2904  0.3163
 1665WN      WN 2145   1.865   6.069   5.848  0.2425 -0.1539  0.3144
 1666WN      WN 2146   1.417   2.459   1.006 -0.1051  0.3314  0.0827
 1667WN      WN 2147   3.097   4.109   2.362 -0.0523 -0.1867  0.1488
 1668WN      WN 2148   4.534   0.326   6.510  0.1930  0.1640  0.3999
 1669WN      WN 2149   0.103   5.338   6.460  0.1475  0.3212 -0.0745
 1670WN      WN 2150   0.933   1.735   3.557 -0.0899  0.0152 -0.0174
 1671WN      WN 2151   2.816   2.489   4.935 -0.2835 -0.0866  0.1360
 1672WN      WN 2152   6.188   5.729   2.798  0.0617 -0.0483 -0.3124
 1673WN      WN 2153   1.849   2.697   1.862 -0.0467  0.2255 -0.2080
 1674WN      WN 2154   3.388   4.407   1.632  0.0113  0.3119 -0.0045
 1675WN      WN 2155   0.998   4.363   5.597 -0.4349 -0.1344  0.0388
 1676WN      WN 2156   1.795   6.222   2.011 -0.1906 -0.1790 -0.1473
 1677WN      WN 2157   6.243   0.435   0.805 -0.2416  0.0178 -0.0894
 1678WN      WN 2158   3.594   2.060   3.065 -0.1720 -0.0783 -0.1156
 1679WN      WN 2159   4.209   2.488   5.058 -0.2712 -0.0508 -0.3379
 1680WN      WN 2160   3.987   5.155   4.178  0.1154 -0.3330 -0.0309
 1681WN      WN 2161   6.478   6.374   4.400  0.0204  0.0370 -0.4607
 1682WN      WN 2162   3.855   0.970   4.052  0.0993  0.0809  0.3785
 1683WN      WN 2163   3.486   5.896   6.356 -0.0557 -0.4113  0.0022
 1684WN      WN 2164   0.907   3.126   3.938  0.0808 -0.1809 -0.0676
 1685WN      WN 2165   1.535   3.344   1.062  0.2526 -0.0099 -0.0722
 1686WN      WN 2166   5.908   5.507   5.247  0.2125  0.0205 -0.1537
 1687WN      WN 2167   2.955   5.095   1.374 -0.1498  0.2023  0.0510
 1688WN      WN 2168   0.172   6.404   5.313  0.0178 -0.0431  0.2401
 1689WN      WN 2169   3.174   0.879   2.060 -0.0497 -0.2130  0.2550
 1690WN      WN 2170   0.369   3.841   4.029 -0.0156 -0.2962  0.0097
 1691WN      WN 2171   2.551   3.035   4.370 -0.0285  0.0259 -0.0227
 1692WN      WN 2172   4.138   4.613   6.223  0.0886 -0.1016 -0.0737
 1693WN      WN 2173   3.770   3.376   3.112  0.1095  0.3567 -0.2639
 1694WN      WN 2174   1.187   1.417   5.957 -0.3063 -0.0132  0.1788
 1695WN      WN 2175   0.922   5.822   0.404  0.0554 -0.4057 -0.2061
 1696WN      WN 2176   5.616   3.493   5.212  0.0997 -0.0006  0.1424
 1697WN      WN 2177   3.729   1.801   2.335  0.0631  0.2284  0.0132
 1698WN      WN 2178   4.856   3.588   1.585 -0.0579 -0.1963  0.0410
 1699WN      WN 2179   5.191   3.304   3.726 -0.2405  0.2670 -0.1073
 1700WN      WN 2180   0.902   4.063   2.297  0.2622  0.1458 -0.1489
 1701WN      WN 2181   1.552   3.862   3.222 -0.1277 -0.0012 -0.0722
 1702WN      WN 2182   4.705   2.451   0.688  0.0631  0.0327 -0.0567
 1703WN      WN 2183   2.008   5.226   4.874 -0.1926 -0.1947  0.3309
 1704WN      WN 2184   3.914   3.737   1.831  0.0721 -0.2057 -0.3567
 1705WN      WN 2185   4.637   4.487   0.571  0.0080  0.1407 -0.0452
 1706WN      WN 2186   4.198   0.351   1.411  0.1028  0.1760 -0.1109
 1707WN      WN 2187   3.892   1.443   0.132 -0.1682  0.2415  0.0947
 1708WN      WN 2188   0.911   0.085   2.136 -0.2242  0.0965  0.2737
 1709WN      WN 2189   4.845   0.469   2.342  0.1505  0.2006 -0.2078
 1710WN      WN 2190   0.429   2.325   5.643 -0.1663  0.0794  0.1131
 1711WN      WN 2191   4.570   3.231   4.897  0.0589 -0.0005  0.1701
 1712WN      WN 2192   2.135   4.206   2.678 -0.0360  0.1639  0.0600
 1713WN      WN 2193   2.760   5.962   2.624  0.1561 -0.1535 -0.1619
 1714WN      WN 2194   3.648   2.794   3.777 -0.1565 -0.1518 -0.1987
 1715WN      WN 2195   5.953   3.230   4.875  0.2713  0.0234 -0.0112
 1716WN      WN 2196   3.485   4.151   4.213 -0.2791  0.0962 -0.1051
 1717WN      WN 2197   0.091   5.717   6.038 -0.0711 -0.0644  0.0082
 1718WN      WN 2198   1.317   2.134   5.203 -0.0200  0.1825 -0.1027
 1719WN      WN 2199   4.738   4.009   0.399  0.0656  0.1556 -0.4305
 1720WN      WN 2200   2.032   1.107   0.223 -0.1358 -0.1813  0.1550
 1721WN      WN 2201   3.086   5.546   1.539 -0.2430  0.0244  0.0575
 1722WN      WN 2202   1.800   5.980   0.864 -0.0199  0.3519 -0.2147
 1723WN      WN 2203   2.618   3.457   3.345 -0.0348  0.0853 -0.4562
 1724WN      WN 2204   0.589   6.472   2.943  0.3646  0.0808  0.2674
 1725WN      WN 2205   2.352   4.750   1.641 -0.0878 -0.0945  0.0689
 1726WN      WN 2206   2.428   4.465   4.099  0.1133 -0.1543  0.0815
 1727WN      WN 2207   5.917   5.459   3.813 -0.5341 -0.2588  0.2478
 1728WN      WN 2208   4.247   6.093   5.239  0.2388 -0.3658 -0.1942
 1729WN      WN 2209   3.854   1.213   6.135 -0.0954 -0.1154 -0.0586
 1730WN      WN 2210   6.013   2.897   0.582  0.1543 -0.2010 -0.2585
 1731WN      WN 2211   2.546   1.212   1.468  0.4606  0.0297 -0.3255
 1732WN      WN 2212   5.618   5.311   4.371  0.1744  0.0831  0.1545
 1733WN      WN 2213   5.088   5.827   5.464 -0.0405  0.0576  0.3670
 1734WN      WN 2214   4.854   4.408   0.006  0.0730 -0.0705 -0.3045
 1735WN      WN 2215   1.722   5.625   4.017 -0.4140 -0.1816  0.3076
 1736WN      WN 2216   3.399   2.520   3.337  0.0588  0.0699 -0.1854
 1737WN      WN 2217   0.907   2.852   1.766  0.0319 -0.1242 -0.2542
 1738WN      WN 2218   4.855   6.042   0.433  0.0084  0.0362  0.0798
 1739WN      WN 2219   2.129   1.121   4.108 -0.2180 -0.0673 -0.2044
 1740WN      WN 2220   3.591   3.712   2.371 -0.3235  0.1853 -0.0229
 1741WN      WN 2221   1.381   4.572   3.344 -0.2845 -0.1828  0.1306
 1742WN      WN 2222   1.863   1.503   3.770 -0.1651  0.0699 -0.2187
 1743WN      WN 2223   6.069   5.253   2.745  0.1928  0.2234 -0.1179
 1744WN      WN 2224   3.568   4.157   1.094 -0.2450 -0.2623 -0.0017
 1745WN      WN 2225   3.432   6.453   1.932  0.0885  0.0035 -0.1289
 1746WN      WN 2226   2.093   5.975   3.912  0.1191 -0.0138  0.0597
 1747WN      WN 2227   6.044   0.233   2.796  0.0106 -0.1726  0.2614
 1748WN      WN 2228   4.123   2.828   1.044 -0.1061  0.2238 -0.0709
 1749WN      WN 2229   5.507   0.361   6.298  0.1384  0.0016 -0.2889
 1750WN      WN 2230   0.558   0.859   4.976  0.0500  0.2459  0.0625
 1751WN      WN 2231   4.816   3.320   1.152 -0.1274 -0.0852 -0.0938
 1752WN      WN 2232   1.445   4.672   1.953 -0.0183  0.1479  0.0740
 1753WN      WN 2233   4.144   3.700   5.743  0.0135 -0.1936  0.0400
 1754WN      WN 2234   2.934   2.133   1.394  0.0390  0.1607  0.1176
 1755WN      WN 2235   6.230   3.713   3.582  0.0418 -0.0176  0.0074
 1756WN      WN 2236   1.240   4.679   1.025 -0.0788 -0.5307  0.0853
 1757WN      WN 2237   2.336   6.088   0.961 -0.2709  0.1814 -0.1583
 1758WN      WN 2238   1.916   4.398   4.950 -0.1627  0.1092 -0.3472
 1759WN      WN 2239   0.583   5.482   3.126 -0.0997 -0.1270 -0.1655
 1760WN      WN 2240   3.880   1.028   5.329  0.1077  0.2045  0.0664
 1761WN      WN 2241   5.366   6.472   3.780  0.2410 -0.0092 -0.1479
 1762WN      WN 2242   5.426   0.199   3.360  0.2502 -0.0790  0.1934
 1763WN      WN 2243   3.570   2.348   5.113 -0.0354 -0.2624 -0.0212
 1764WN      WN 2244   3.951   5.577   6.091 -0.1269  0.2745  0.3461
 1765WN      WN 2245   2.578   6.439   2.358 -0.0985  0.0756 -0.1066
 1766WN      WN 2246   5.587   3.587   0.224  0.5316 -0.1083 -0.0604
 1767WN      WN 2247   4.332   5.992   0.610  0.0221  0.0374 -0.2246
 1768WN      WN 2248   1.353   2.235   3.140  0.2668 -0.1709 -0.0389
 1769WN      WN 2249   0.214   1.411   5.860 -0.0190  0.1435  0.0376
 1770WN      WN 2250   3.189   6.545   1.483  0.2755 -0.1152 -0.3011
 1771WN      WN 2251   4.403   2.394   3.477  0.0229  0.2451 -0.1402
 1772WN      WN 2252   4.844   3.728   3.533  0.2048  0.1276  0.0758
 1773WN      WN 2253   4.380   1.748   3.997 -0.2306  0.0633  0.1325
 1774WN      WN 2254   1.206   5.692   4.245  0.5539  0.2456 -0.4165
 1775WN      WN 2255   1.868   5.326   3.059 -0.0651  0.0865  0.0041
 1776WN      WN 2256   1.301   5.629   0.843 -0.2811 -0.0655  0.0421
 1777WN      WN 2257   2.727   1.659   1.523  0.3709  0.0517 -0.1295
 1778WN      WN 2258   3.508   0.595   3.095 -0.1074  0.2996  0.1576
 1779WN      WN 2259   1.717   0.089   4.376 -0.0058 -0.0711  0.0919
 1780WN      WN 2260   3.277   5.181   2.171 -0.0404  0.1645  0.1172
 1781WN      WN 2261   6.517   6.533   0.450 -0.3262 -0.1527  0.0247
 1782WN      WN 2262   3.890   4.238   5.997 -0.0438 -0.0456 -0.2797
 1783WN      WN 2263   2.959   4.563   5.390 -0.1666  0.1157  0.0780
 1784WN      WN 2264   0.813   0.344   4.809  0.0587 -0.0755 -0.0534
 1785WN      WN 2265   3.150   5.955   1.815  0.0264 -0.0028  0.0690
 1786WN      WN 2266   4.542   5.574   5.550 -0.0219 -0.1367 -0.0273
 1787WN      WN 2267   1.658   2.888   4.591 -0.1158  0.1769 -0.0603
 1788WN      WN 2268   5.967   3.783   6.335 -0.1358  0.1048 -0.0609
 1789WN      WN 2269   4.858   4.890   0.138  0.0509 -0.2420 -0.2170
 1790WN      WN 2270   0.506   6.331   1.055 -0.2411 -0.1141 -0.2132
 1791WN      WN 2271   1.315   4.075   4.262 -0.0712  0.0824 -0.1609
 1792WN      WN 2272   5.052   2.527   4.690  0.1429  0.1783  0.2540
 1793WN      WN 2273   2.768   2.692   3.989  0.0492 -0.0840  0.0325
 1794WN      WN 2274   4.998   5.347   2.644  0.1699 -0.1640 -0.0799
 1795WN      WN 2275   2.728   1.705   0.195  0.0751  0.0698 -0.0973
 1796WN      WN 2276   4.381   3.619   0.664 -0.1857 -0.0379  0.0776
 1797WN      WN 2277   6.489   6.037   5.549  0.3165 -0.4138  0.1913
 1798WN      WN 2278   1.771   3.938   4.976  0.2229 -0.0375  0.0157
 1799WN      WN 2279   6.520   2.195   3.737 -0.0745  0.2420  0.0110
 1800WN      WN 2280   0.808   4.776   0.813  0.0253 -0.4069 -0.2874
 1801WN      WN 2281   6.353   0.864   1.560  0.4001  0.0245  0.1463
 1802WN      WN 2282   4.667   3.861   4.458  0.0606  0.0305  0.0890
 1803WN      WN 2283   1.330   1.559   2.388  0.3831 -0.1563 -0.2073
 1804WN      WN 2284   1.034   0.812   0.024 -0.0986 -0.0161 -0.1901
 1805WN      WN 2285   2.559   0.909   6.129 -0.0211  0.2779 -0.3792
 1806WN      WN 2286   0.347   1.070   6.376 -0.0867  0.2436  0.2062
 1807WN      WN 2287   3.258   0.204   3.619  0.0676  0.2382  0.1501
 1808WN      WN 2288   0.352   0.548   2.280 -0.1867 -0.2573  0.0154
 1809WN      WN 2289   1.854   3.637   0.892  0.1025 -0.5320 -0.0029
 1810WN      WN 2290   3.409   1.566   0.414 -0.2075 -0.0846 -0.2248
 1811WN      WN 2291   5.285   5.268   5.947  0.1266 -0.0282  0.1030
 1812WN      WN 2292   1.888   3.569   1.482  0.2782 -0.1944  0.0980
 1813WN      WN 2293   2.715   5.480   2.724  0.0846 -0.2144  0.0462
 1814WN      WN 2294   5.556   4.433   5.916 -0.0645  0.0730  0.1201
 1815WN      WN 2295   2.608   2.538   4.479 -0.1745  0.0402  0.3319
 1816WN      WN 2296   0.841   2.746   0.726 -0.0030  0.0516  0.1756
 1817WN      WN 2297   2.252   1.644   1.240 -0.3241  0.2185 -0.0832
 1818WN      WN 2298   4.685   0.835   2.071  0.3609 -0.5065  0.2446
 1819WN      WN 2299   5.872   5.220   1.625  0.0433  0.1856 -0.2254
 1820WN      WN 2300   5.764   2.451   5.809  0.1493 -0.6159 -0.2075
 1821WN      WN 2301   5.981   3.040   1.658 -0.0129  0.0532  0.0804
 1822WN      WN 2302   6.220   6.284   6.052  0.1882 -0.1275 -0.1516
 1823WN      WN 2303   3.897   5.918   3.506 -0.2154  0.0069  0.0296
 1824WN      WN 2304   6.116   4.600   4.579  0.2487 -0.1201 -0.0648
 1825WN      WN 2305   0.377   4.080   0.585 -0.0364  0.1857 -0.1036
 1826WN      WN 2306   5.527   3.241   0.730  0.1538 -0.3716  0.4817
 1827WN      WN 2307   2.008   0.852   5.517 -0.0406  0.2102 -0.1549
 1828WN      WN 2308   0.847   4.168   6.469 -0.0515  0.2564 -0.2668
 1829WN      WN 2309   5.722   5.116   4.864  0.0050 -0.0597  0.0530
 1830WN      WN 2310   3.372   4.532   4.557 -0.2142 -0.1968  0.0545
 1831WN      WN 2311   3.469   5.450   3.393  0.1875  0.0048 -0.0784
 1832WN      WN 2312   1.607   4.652   6.211  0.1685 -0.1262 -0.0762
 1833WN      WN 2313   5.963   4.203   4.882  0.0741 -0.1181 -0.1209
 1834WN      WN 2314   0.553   4.111   1.096 -0.1568 -0.2016  0.3854
 1835WN      WN 2315   0.394   2.124   4.726 -0.3482  0.1494  0.1290
 1836WN      WN 2316   5.881   5.116   0.302 -0.3961 -0.2346  0.1598
 1837WN      WN 2317   0.742   3.450   2.612 -0.0362 -0.0131 -0.1866
 1838WN      WN 2318   2.743   5.969   5.980  0.0247 -0.1519  0.2233
 1839WN      WN 2319   0.321   6.137   5.785 -0.2319  0.1137 -0.1738
 1840WN      WN 2320   0.832   2.233   1.151 -0.2442  0.0516 -0.0624
 1841WN      WN 2321   1.792   6.079   3.538  0.0075 -0.0163 -0.1005
 1842WN      WN 2322   4.124   3.268   0.215  0.0029 -0.2712 -0.0132
 1843WN      WN 2323   3.640   0.218   1.290 -0.0762 -0.1273  0.2143
 1844WN      WN 2324   0.861   1.867   6.440  0.2612  0.2207 -0.0975
 1845WN      WN 2325   2.649   1.913   6.278 -0.0952  0.1349  0.0044
 1846WN      WN 2326   2.000   3.209   1.038 -0.3114 -0.0192  0.3592
 1847WN      WN 2327   3.255   3.322   4.920 -0.0695  0.1277  0.0413
 1848WN      WN 2328   6.179   4.226   6.010 -0.0084 -0.2410  0.0271
 1849WN      WN 2329   6.054   4.749   5.951 -0.1489  0.1259 -0.2139
 1850WN      WN 2330   0.169   2.985   6.263  0.0240  0.1051  0.3212
 1851WN      WN 2331   0.826   2.657   3.594 -0.3240 -0.1766 -0.1356
 1852WN      WN 2332   6.269   0.745   5.567 -0.0271 -0.2144 -0.2666
 1853WN      WN 2333   5.316   2.656   5.991 -0.0261 -0.2256 -0.1894
 1854WN      WN 2334   4.842   2.697   6.260 -0.0168 -0.0898 -0.0246
 1855WN      WN 2335   1.149   4.432   2.514  0.0125  0.1389  0.2848
 1856WN      WN 2336   3.811   1.337   5.676 -0.0552 -0.0374 -0.0141
 1857WN      WN 2337   3.028   1.578   5.158 -0.2576  0.1538  0.1251
 1858WN      WN 2338   4.874   3.785   0.927  0.3056 -0.2231  0.0379
 1859WN      WN 2339   4.313   0.307   4.852 -0.0391  0.2348 -0.2948
 1860WN      WN 2340   1.586   0.121   6.168  0.0685 -0.1647 -0.1873
 1861WN      WN 2341   1.950   2.982   2.771 -0.2971  0.1105 -0.2761
 1862WN      WN 2342   2.580   5.908   0.056  0.3771  0.0044  0.1953
 1863WN      WN 2343   4.002   5.420   1.442  0.2417 -0.3046  0.2849
 1864WN      WN 2344   0.527   3.180   0.819 -0.2644  0.1950 -0.1222
 1865WN      WN 2345   3.070   0.074   5.837 -0.1548  0.1876  0.3682
 1866WN      WN 2346   5.627   3.418   6.272  0.0242 -0.1535 -0.0524
 1867WN      WN 2347   3.732   0.335   2.702  0.1333 -0.0777  0.2629
 1868WN      WN 2348   1.341   2.695   2.038 -0.1374  0.0506  0.2664
 1869WN      WN 2349   1.180   1.635   4.156 -0.0420  0.2360  0.1520
 1870WN      WN 2350   0.798   4.930   5.806 -0.0160  0.0951 -0.3735
 1871WN      WN 2351   6.537   3.435   0.082  0.1050 -0.1019  0.1736
 1872WN      WN 2352   2.819   1.393   6.337 -0.2691  0.0087 -0.0521
 1873WN      WN 2353   1.678   5.686   6.331  0.2069 -0.0805 -0.1096
 1874WN      WN 2354   0.598   5.445   1.230 -0.0172  0.1076  0.2146
 1875WN      WN 2355   3.864   5.556   0.834 -0.1569  0.0092  0.1369
 1876WN      WN 2356   0.985   4.440   2.012  0.1937 -0.1395  0.0559
 1877WN      WN 2357   3.393   6.375   0.544  0.0001  0.0351  0.0437
 1878WN      WN 2358   1.264   2.601   4.570  0.0240  0.0979 -0.0806
 1879WN      WN 2359   6.531   4.016   0.284  0.3181  0.0832  0.0482
 1880WN      WN 2360   5.714   5.829   1.013 -0.0454  0.1996  0.0456
 1881WN      WN 2361   1.509   2.042   0.728  0.1104 -0.0241 -0.0979
 1882WN      WN 2362   3.572   5.564   4.724 -0.0908 -0.3357  0.0442
 1883WN      WN 2363   1.513   4.435   5.658  0.1228  0.0512 -0.2397
 1884WN      WN 2364   2.927   1.765   5.651 -0.0980  0.1439  0.0847
 1885WN      WN 2365   0.100   0.065   2.470 -0.1356 -0.0218 -0.0584
 1886WN      WN 2366   0.219   4.400   4.042 -0.0767 -0.1497 -0.0026
 1887WN      WN 2367   5.337   5.643   3.714 -0.1161  0.3235  0.0501
 1888WN      WN 2368   2.173   2.264   2.011  0.1932  0.0206  0.1003
 1889WN      WN 2369   2.410   2.180   3.231  0.0310  0.2888  0.0511
 1890WN      WN 2370   0.156   0.960   2.488 -0.0145  0.3199  0.0875
 1891WN      WN 2371   0.373   5.412   5.209  0.0933 -0.2474  0.0529
 1892WN      WN 2372   5.527   1.159   4.391 -0.1113 -0.1190 -0.1656
 1893WN      WN 2373   0.081   0.406   3.611  0.1241  0.1581 -0.0121
 1894WN      WN 2374   0.432   0.043   0.571 -0.3283  0.0530  0.1499
 1895WN      WN 2375   6.379   3.579   2.354 -0.2042  0.1522  0.0448
 1896WN      WN 2376   1.644   0.897   4.395 -0.1063 -0.1552  0.1699
 1897WN      WN 2377   0.343   6.528   3.455 -0.2143  0.0119  0.1411
 1898WN      WN 2378   0.690   0.461   0.603 -0.0619 -0.0042 -0.0647
 1899WN      WN 2379   1.060   4.987   1.854  0.0503  0.1874 -0.1012
 1900WN      WN 2380   1.372   4.810   4.735  0.0768  0.0948  0.2922
 1901WN      WN 2381   3.964   6.087   4.030  0.1377 -0.0271  0.1962
 1902WN      WN 2382   0.955   6.314   1.252  0.3388 -0.1103 -0.1324
 1903WN      WN 2383   3.131   1.741   3.047 -0.1376  0.0794 -0.1061
 1904WN      WN 2384   5.605   1.986   0.986  0.4751 -0.0048  0.1532
 1905WN      WN 2385   1.501   1.288   4.952 -0.1484 -0.2893  0.2291
 1906WN      WN 2386   2.140   3.122   6.491  0.1760 -0.0622 -0.0980
 1907WN      WN 2387   1.451   1.909   3.756 -0.2872 -0.2041 -0.0737
 1908WN      WN 2388   5.268   0.159   2.761  0.0923 -0.1422 -0.3515
 1909WN      WN 2389   2.410   1.739   2.383  0.0494 -0.0816  0.1029
 1910WN      WN 2390   1.376   3.199   3.772  0.2506  0.0782 -0.1871
 1911WN      WN 2391   1.139   5.317   5.815 -0.1649 -0.1523  0.0131
 1912WN      WN 2392   0.339   1.865   6.198  0.1908 -0.2170 -0.2023
 1913WN      WN 2393   0.467   4.334   5.306 -0.0066 -0.0469  0.1340
 1914WN      WN 2394   3.920   0.103   5.879 -0.2628 -0.1625 -0.2277
 1915WN      WN 2395   3.521   0.224   0.351 -0.0626  0.1431 -0.0701
 1916WN      WN 2396   4.961   0.462   1.342  0.0191 -0.1028  0.0991
 1917WN      WN 2397   2.831   5.174   1.906  0.1581 -0.3527  0.1323
 1918WN      WN 2398   0.054   3.231   4.851 -0.4204 -0.3860 -0.0542
 1919WN      WN 2399   1.502   5.034   4.292 -0.0863  0.0434  0.0953
 1920WN      WN 2400   0.353   4.227   1.553 -0.1308  0.1474 -0.3985
 1921WN      WN 2401   3.722   0.317   3.455 -0.2012  0.0772  0.1604
 1922WN      WN 2402   6.397   0.971   2.889  0.0837 -0.1014  0.0385
 1923WN      WN 2403   2.206   5.603   0.854 -0.4276 -0.1616 -0.1850
 1924WN      WN 2404   2.878   4.630   1.490 -0.3773 -0.0089  0.0792
 1925WN      WN 2405   6.403   4.748   0.765  0.0599 -0.1421  0.0254
 1926WN      WN 2406   5.186   3.816   0.437  0.0171 -0.1445  0.1033
 1927WN      WN 2407   5.315   0.117   5.851  0.1630 -0.0549  0.0257
 1928WN      WN 2408   5.950   5.611   4.728  0.0654  0.0640 -0.2066
 1929WN      WN 2409   5.261   4.976   4.630 -0.1749 -0.1350 -0.1888
 1930WN      WN 2410   4.986   0.776   5.314 -0.2447 -0.0437  0.0167
 1931WN      WN 2411   5.324   3.278   3.123  0.0839 -0.4117 -0.2314
 1932WN      WN 2412   2.347   4.242   2.167 -0.1859 -0.2149 -0.1884
 1933WN      WN 2413   6.341   4.888   0.263  0.5515  0.2693 -0.4471
 1934WN      WN 2414   1.335   6.011   1.167 -0.1210 -0.4676  0.0165
 1935WN      WN 2415   0.440   4.668   3.581  0.0243 -0.1671 -0.2832
 1936WN      WN 2416   5.259   6.093   4.085  0.3546  0.1120  0.1138
 1937WN      WN 2417   1.818   4.682   3.543  0.3173 -0.0844 -0.2318
 1938WN      WN 2418   1.285   3.859   2.555 -0.2922  0.2272  0.2222
 1939WN      WN 2419   3.402   4.414   5.601 -0.1112 -0.2095 -0.0308
 1940WN      WN 2420   3.798   2.425   0.516  0.3787 -0.1011 -0.0751
 1941WN      WN 2421   3.526   5.871   0.660 -0.2082  0.1080  0.1305
 1942WN      WN 2422   0.533   1.407   0.091  0.1366 -0.3502  0.0201
 1943WN      WN 2423   1.154   0.091   5.861 -0.0121 -0.3476 -0.0364
 1944WN      WN 2424   4.459   3.718   1.267  0.1137  0.1111 -0.2903
 1945WN      WN 2425   6.257   6.074   0.490 -0.0182  0.4971  0.2104
 1946WN      WN 2426   4.502   0.599   1.099  0.0830  0.0600  0.2073
 1947WN      WN 2427   6.061   2.678   5.071  0.0342 -0.3598  0.2275
 1948WN      WN 2428   0.909   3.905   2.831  0.4343 -0.3324 -0.2853
 1949WN      WN 2429   2.465   0.255   5.124 -0.2159  0.1335  0.2461
 1950WN      WN 2430   2.615   5.529   6.173  0.3393  0.2240 -0.0228
 1951WN      WN 2431   1.976   2.660   0.108 -0.1428  0.2832  0.1680
 1952WN      WN 2432   2.601   4.450   2.796 -0.0820  0.2445 -0.0816
 1953WN      WN 2433   2.094   1.878   0.779 -0.1347  0.1883  0.0110
 1954WN      WN 2434   0.930   2.942   2.368  0.1878 -0.1337 -0.2120
 1955WN      WN 2435   2.107   4.665   0.496 -0.1234 -0.4008  0.0746
 1956WN      WN 2436   1.118   1.726   0.748 -0.0804  0.2768 -0.3338
 1957WN      WN 2437   5.435   4.099   4.931 -0.4045 -0.2153 -0.1807
 1958WN      WN 2438   4.014   0.444   0.093 -0.1466  0.4958  0.0092
 1959WN      WN 2439   3.244   6.119   5.744  0.1641 -0.0446  0.1675
 1960WN      WN 2440   4.802   6.552   1.276  0.0640 -0.0032 -0.1486
 1961WN      WN 2441   0.342   3.039   5.793  0.0491  0.3313  0.0941
 1962WN      WN 2442   0.655   1.196   3.641  0.3274  0.2196 -0.1234
 1963WN      WN 2443   2.028   3.129   6.024 -0.2555  0.1691  0.0483
 1964WN      WN 2444   2.651   0.849   1.952 -0.1488 -0.1475 -0.3424
 1965WN      WN 2445   4.414   0.895   5.314  0.0153  0.0031  0.0182
 1966WN      WN 2446   5.711   4.140   4.439  0.2576 -0.0045  0.0187
 1967WN      WN 2447   6.246   2.498   3.348 -0.1059 -0.1316  0.0503
 1968WN      WN 2448   1.660   6.031   4.276 -0.5731  0.0469  0.2332
 1969WN      WN 2449   1.791   1.424   3.301 -0.2569 -0.0541  0.0129
 1970WN      WN 2450   4.713   3.961   6.253  0.0479 -0.0721 -0.0464
 1971WN      WN 2451   4.354   1.462   6.152  0.0970  0.1822 -0.3608
 1972WN      WN 2452   4.574   1.273   4.468  0.1117 -0.2501 -0.1800
 1973WN      WN 2453   5.760   1.009   5.825  0.1152  0.0614 -0.0987
 1974WN      WN 2454   4.000   3.790   6.260 -0.1428 -0.0212 -0.0178
 1975WN      WN 2455   3.555   4.530   2.907 -0.0487 -0.0797  0.1160
 1976WN      WN 2456   5.205   6.405   0.601  0.1164  0.0150  0.0739
 1977WN      WN 2457   3.914   3.390   5.385 -0.2983 -0.2871  0.0391
 1978WN      WN 2458   5.792   0.194   3.710 -0.1417  0.0421  0.0275
 1979WN      WN 2459   4.411   6.116   1.251  0.0481 -0.3229 -0.0895
 1980WN      WN 2460   1.450   0.528   0.567 -0.4272  0.0658  0.1293
 1981WN      WN 2461   1.959   1.345   5.312 -0.3107 -0.0837  0.1781
 1982WN      WN 2462   0.787   4.702   5.305  0.3389 -0.2255 -0.1119
 1983WN      WN 2463   5.795   3.359   3.887 -0.0225 -0.1090 -0.1403
 1984WN      WN 2464   5.968   1.593   1.480  0.0444 -0.3120  0.1318
 1985WN      WN 2465   3.050   5.622   3.596 -0.0224 -0.2205  0.0384
 1986WN      WN 2466   4.752   5.750   6.471  0.0255 -0.1042  0.1288
 1987WN      WN 2467   1.963   1.187   1.331 -0.1330  0.2065  0.1539
 1988WN      WN 2468   0.117   1.716   0.063  0.3023 -0.0844  0.1946
 1989WN      WN 2469   2.759   6.012   2.148  0.3208  0.0800 -0.1067
 1990WN      WN 2470   5.185   6.313   5.349 -0.1205  0.0844 -0.2378
 1991WN      WN 2471   4.193   5.225   5.816  0.2249  0.0363  0.0860
 1992WN      WN 2472   2.831   0.808   1.451  0.0868 -0.2334  0.0521
 1993WN      WN 2473   0.139   3.832   1.463 -0.1394  0.0509 -0.0310
 1994WN      WN 2474   5.559   5.514   1.382  0.0915  0.3358 -0.2781
 1995WN      WN 2475   4.492   4.510   5.315  0.3788  0.5392  0.0450
 1996WN      WN 2476   0.346   3.760   2.834 -0.1304  0.0812  0.2721
 1997WN      WN 2477   2.748   0.134   3.715 -0.3920 -0.0425 -0.2544
 1998WN      WN 2478   3.184   6.036   1.328  0.1454 -0.0249 -0.2613
 1999WN      WN 2479   0.122   1.134   1.923 -0.1923 -0.1547  0.4257
 2000WN      WN 2480   0.848   4.207   4.937  0.2968 -0.1271 -0.1194
 2001WN      WN 2481   1.090   6.438   3.094  0.5454  0.0267  0.2291
 2002WN      WN 2482   0.870   2.594   5.812 -0.1902  0.1481  0.0250
 2003WN      WN 2483   3.995   6.392   1.145 -0.1861  0.0579  0.2497
 2004WN      WN 2484   3.778   1.790   3.718  0.1662  0.0982 -0.1331
 2005WN      WN 2485   0.604   0.230   2.568  0.2339  0.1995 -0.2457
 2006WN      WN 2486   0.095   2.057   5.146  0.2496  0.1331  0.1938
 2007WN      WN 2487   1.607   1.554   0.504 -0.1906  0.2513  0.0963
 2008WN      WN 2488   4.856   0.612   0.494  0.1738 -0.2358  0.1121
 2009WN      WN 2489   3.120   5.580   5.924 -0.1277 -0.0573 -0.0727
 2010WN      WN 2490   4.091   0.936   4.468 -0.0852 -0.1056  0.0261
 2011WN      WN 2491   2.265   0.297   0.292 -0.1371 -0.2591  0.1219
 2012WN      WN 2492   0.012   4.373   1.238 -0.1599  0.1371 -0.1637
 2013WN      WN 2493   2.546   1.565   5.367  0.1316  0.0794  0.0371
 2014WN      WN 2494   4.802   1.725   6.244  0.2000 -0.1863 -0.1443
 2015WN      WN 2495   0.539   4.318   5.817 -0.1634  0.0669 -0.0174
 2016WN      WN 2496   0.524   3.576   1.073  0.1855  0.3056  0.4118
 2017WN      WN 2497   3.073   3.660   5.807 -0.1046  0.3346  0.1272
 2018WN      WN 2498   3.871   1.975   4.899  0.4139 -0.1434  0.0069
 2019WN      WN 2499   6.292   5.461   0.225 -0.1331  0.0037 -0.1565
 2020WN      WN 2500   5.379   5.212   3.932 -0.2374  0.1604  0.1465
 2021WN      WN 2501   1.738   3.919   5.574  0.0594  0.1140 -0.0085
 2022WN      WN 2502   6.212   0.065   2.349  0.0742  0.0582 -0.0584
 2023WN      WN 2503   1.510   3.287   3.294 -0.3505  0.2854  0.3423
 2024WN      WN 2504   5.415   1.681   4.254 -0.2374 -0.0247 -0.0657
 2025WN      WN 2505   2.795   0.613   3.727  0.7070 -0.0577 -0.0751
 2026WN      WN 2506   2.138   2.573   6.233 -0.1159  0.1174 -0.1405
 2027WN      WN 2507   5.644   6.531   5.481 -0.1256 -0.2277  0.3464
 2028WN      WN 2508   2.269   6.358   1.445 -0.2486 -0.0905 -0.1931
 2029WN      WN 2509   3.316   1.176   0.758 -0.3708  0.1023 -0.0210
 2030WN      WN 2510   6.469   5.223   5.943  0.0937  0.0830  0.1785
 2031WN      WN 2511   1.901   2.353   1.026 -0.2078  0.0905 -0.1103
 2032WN      WN 2512   0.669   3.415   3.201  0.0462 -0.1957 -0.2963
 2033WN      WN 2513   0.218   4.014   5.646  0.0700 -0.0407 -0.0015
 2034WN      WN 2514   1.086   2.158   4.713  0.1594  0.1323 -0.3325
 2035WN      WN 2515   6.177   0.980   6.140 -0.0215 -0.0431 -0.0717
 2036WN      WN 2516   5.255   3.210   5.434 -0.2090  0.0989  0.0840
 2037WN      WN 2517   3.671   0.640   4.368 -0.0235 -0.1993  0.2714
 2038WN      WN 2518   2.095   2.412   5.680 -0.1565  0.3853  0.0967
 2039WN      WN 2519   0.847   0.786   4.525 -0.0828  0.0747 -0.0770
 2040WN      WN 2520   3.304   4.882   4.264 -0.1568 -0.1579  0.0551
   6.56279   6.56279   6.56279
