[ moleculetype ]
; molname        nrexcl
CNN              1


[ atoms ]
; id type resnr residue   atom  cgnr    charge     mass

1     TC5     1     CNN    PA1  1      0.00000     36.00
2     TC3     1     CNN    PA2  2      0.00000     36.00
3     TC3     1     CNN    PA3  3      0.00000     36.00
4     TC5     1     CNN    PA4  4      0.00000     36.00


[ bonds ]
;   i     j   funct   length   force.c.

; bond type 1
    1     2       1    0.242  13448.19           ; 1

; bond type 2
    2     3       1    0.220  10218.21           ; 2

; bond type 3
    2     4       1    0.284  9912.24           ; 3

; bond type 4
    3     4       1    0.240  9824.08           ; 4


[ angles ]
;   i     j     k   funct     angle   force.c.

; angle type 1
    1     2     3       2    100.92    325.61           ; 1

; angle type 2
    1     2     4       2    171.45    509.06           ; 2


[ dihedrals ]
;   i     j     k    l   funct     angle   force.c.

; dihedral group 1
    4     3    2    1    1       0         0     1           ; 
