Martini system
31159
    1CHOL   ROH    1   5.728  12.959   9.410  0.0984 -0.0398 -0.0385
    1CHOL    R1    2   5.675  13.197   9.265 -0.0702 -0.0144  0.0588
    1CHOL    R2    3   5.872  13.337   9.133 -0.1623  0.1896  0.1163
    1CHOL    R3    4   5.705  13.308   8.920 -0.1394  0.1472  0.1064
    1CHOL    R4    5   5.900  13.509   8.834 -0.2104  0.2014  0.1201
    1CHOL    R5    6   5.683  13.529   8.831 -0.2071  0.1338  0.1081
    1CHOL    C1    7   5.760  13.581   8.461 -0.2169  0.1683  0.1128
    1CHOL    C2    8   5.835  13.703   8.053 -0.1209 -0.2026  0.2565
    2XCA    COO    9   7.460   2.482   4.123  0.0766 -0.1322 -0.1915
    2XCA     C1   10   7.122   2.594   4.460  0.1415  0.3381  0.0316
    2XCA     C2   11   6.772   2.751   4.565  0.1067  0.1126 -0.1599
    2XCA     C3   12   6.582   2.970   4.914 -0.0939  0.2890 -0.1082
    2XCA     C4   13   6.608   3.165   5.337 -0.0723 -0.0292 -0.2088
    2XCA     C5   14   6.754   3.398   5.594  0.0352  0.0033 -0.1257
    2XCA     C6   15   7.096   3.259   5.825 -0.2555 -0.0177 -0.0263
    3XCA    COO   16   9.928   3.027   8.689  0.1122  0.2687 -0.2322
    3XCA     C1   17   9.601   3.304   8.514  0.0570 -0.0181  0.0336
    3XCA     C2   18   9.425   3.518   8.128  0.2960  0.3882 -0.0559
    3XCA     C3   19   9.251   3.917   7.884  0.3714 -0.0907 -0.0415
    3XCA     C4   20   9.310   4.281   7.653 -0.0502 -0.3543  0.0220
    3XCA     C5   21   9.366   4.730   7.503 -0.0095  0.0166  0.0974
    3XCA     C6   22   9.667   5.048   7.563 -0.0658  0.2555  0.1042
    4XCA    COO   23   8.056  13.756   4.780 -0.1182  0.0987  0.1681
    4XCA     C1   24   8.208  13.582   5.255 -0.0386 -0.3165 -0.2256
    4XCA     C2   25   8.281  13.473   5.647  0.0784  0.0345  0.1167
    4XCA     C3   26   8.457  13.535   5.902  0.0140 -0.0977 -0.1984
    4XCA     C4   27   8.490  13.675   6.234 -0.0853  0.0232 -0.2343
    4XCA     C5   28   8.636  13.567   6.662  0.0267  0.3134  0.0312
    4XCA     C6   29   8.797  13.590   7.012 -0.1404  0.0552 -0.0973
    5CHOL   ROH   30  12.533  15.874   4.835  0.0168  0.1126  0.0176
    5CHOL    R1   31  12.660  15.735   5.047  0.2035  0.2546  0.0006
    5CHOL    R2   32  12.645  15.461   5.076 -0.0943  0.3067  0.4015
    5CHOL    R3   33  12.916  15.479   5.081 -0.0503 -0.0179 -0.0828
    5CHOL    R4   34  12.852  15.262   5.268 -0.0408  0.4093  0.4524
    5CHOL    R5   35  12.974  15.438   5.310  0.2637  0.3532 -0.0815
    5CHOL    C1   36  13.227  15.162   5.384  0.0316  0.1644  0.0275
    5CHOL    C2   37  13.557  15.128   5.530  0.2156 -0.0505  0.0150
    6CHOL   ROH   38  11.806   5.041   4.384 -0.2361  0.1398 -0.0208
    6CHOL    R1   39  11.879   4.803   4.519 -0.2145  0.1129 -0.0790
    6CHOL    R2   40  12.113   4.780   4.665 -0.0933  0.0218 -0.2787
    6CHOL    R3   41  11.943   4.703   4.863  0.0434  0.0965 -0.1304
    6CHOL    R4   42  12.156   4.502   4.866  0.0545  0.1123 -0.1837
    6CHOL    R5   43  11.942   4.464   4.851  0.0480  0.0927 -0.0239
    6CHOL    C1   44  12.021   4.268   5.169  0.2688  0.2352  0.0108
    6CHOL    C2   45  11.758   4.093   5.351  0.2465 -0.1697  0.0280
    7XCA    COO   46   4.769   4.754   4.999  0.1454  0.3088 -0.1883
    7XCA     C1   47   4.483   4.760   5.311  0.2861  0.1446  0.2277
    7XCA     C2   48   4.301   4.727   5.704 -0.0744 -0.3578  0.1694
    7XCA     C3   49   4.374   4.574   6.088 -0.2016 -0.4030  0.0321
    7XCA     C4   50   4.416   4.608   6.519 -0.1635 -0.1635 -0.1626
    7XCA     C5   51   4.171   4.656   6.998 -0.0745 -0.3196  0.1949
    7XCA     C6   52   3.817   4.584   7.200 -0.0081  0.1005 -0.1445
    8CHOL   ROH   53   4.391  13.273   9.198  0.1602 -0.0410  0.0525
    8CHOL    R1   54   4.296  13.253   8.933  0.0402  0.1099  0.0823
    8CHOL    R2   55   4.309  13.462   8.753  0.2323  0.1205  0.1060
    8CHOL    R3   56   4.437  13.279   8.598 -0.0430 -0.0175  0.0365
    8CHOL    R4   57   4.403  13.513   8.424  0.3774  0.1369  0.1492
    8CHOL    R5   58   4.341  13.308   8.381  0.0417  0.2564  0.0322
    8CHOL    C1   59   4.577  13.370   8.087  0.2034  0.0168  0.1091
    8CHOL    C2   60   4.903  13.549   8.045 -0.4567  0.1641  0.0033
    9PNCE   AM1   61   5.978   0.035   8.836  0.1767  0.0923 -0.2756
    9PNCE   AM2   62   5.889  -0.008   8.542 -0.0747 -0.1327 -0.2804
    9PNCE   T1A   63   6.078  -0.260   8.969 -0.0896  0.0987  0.0440
    9PNCE   C2A   64   6.152  -0.687   8.899  0.2036 -0.0605  0.1304
    9PNCE   C3A   65   5.896  -1.020   8.949 -0.0108 -0.0169  0.1494
    9PNCE   C1B   66   6.082  -0.163   8.114  0.1950  0.2217 -0.1423
    9PNCE   C2B   67   6.283  -0.487   7.944 -0.1836  0.2395  0.2556
    9PNCE   C3B   68   6.433  -0.777   7.892 -0.3025  0.1405  0.1886
    9PNCE   D4B   69   6.476  -1.159   7.750 -0.1158  0.2230  0.0836
    9PNCE   C5B   70   6.076  -1.280   7.792 -0.1166  0.0056 -0.1498
    9PNCE   C6B   71   5.851  -1.391   8.193  0.0182  0.0608 -0.0087
   10PNCE   AM1   72   3.646   4.279   8.354  0.0571  0.0425 -0.1705
   10PNCE   AM2   73   3.883   3.926   8.313  0.1518 -0.2309  0.3729
   10PNCE   T1A   74   3.758   4.562   8.019  0.0612 -0.2520  0.2342
   10PNCE   C2A   75   3.978   4.831   7.599  0.1179  0.0551  0.3459
   10PNCE   C3A   76   4.053   5.100   7.229  0.0245  0.1382 -0.2276
   10PNCE   C1B   77   3.869   4.078   7.927 -0.1069 -0.2486  0.3505
   10PNCE   C2B   78   3.829   4.190   7.553  0.1043 -0.1697 -0.2307
   10PNCE   C3B   79   3.955   4.104   7.180  0.0213  0.3846  0.1095
   10PNCE   D4B   80   4.188   3.793   6.976  0.1478  0.0016  0.1462
   10PNCE   C5B   81   4.135   3.638   6.618  0.1912  0.1617 -0.2481
   10PNCE   C6B   82   4.255   3.602   6.208  0.1543  0.0702 -0.1952
   11XCA    COO   83   7.982  12.742   5.226  0.0427 -0.2349 -0.1162
   11XCA     C1   84   8.385  12.975   5.306  0.1752 -0.0325  0.1896
   11XCA     C2   85   8.682  12.970   5.652 -0.1243 -0.1710  0.2136
   11XCA     C3   86   8.903  13.124   5.880  0.0816 -0.1293  0.0787
   11XCA     C4   87   9.249  13.103   6.216  0.4459  0.1430 -0.1373
   11XCA     C5   88   9.544  12.699   6.262  0.0012  0.1000  0.1591
   11XCA     C6   89   9.832  12.546   6.447  0.0309  0.1228  0.0023
   12CHOL   ROH   90  10.418   1.494   8.450  0.0707  0.0687  0.0607
   12CHOL    R1   91  10.281   1.385   8.228 -0.1811 -0.1286  0.3033
   12CHOL    R2   92  10.005   1.377   8.212 -0.2160  0.3578  0.3898
   12CHOL    R3   93  10.047   1.506   7.977 -0.0071 -0.1789  0.1163
   12CHOL    R4   94   9.758   1.456   7.984 -0.0871  0.3094  0.2342
   12CHOL    R5   95   9.895   1.402   7.824 -0.1800 -0.2410  0.3318
   12CHOL    C1   96   9.654   1.624   7.630  0.1840 -0.2226 -0.1132
   12CHOL    C2   97   9.331   1.862   7.541  0.0360 -0.2596 -0.1901
   13PNCE   AM1   98   1.425   6.070   9.268 -0.1906 -0.0088 -0.0595
   13PNCE   AM2   99   1.266   6.411   9.225 -0.1538 -0.2105 -0.0459
   13PNCE   T1A  100   0.961   6.049   9.153 -0.0976  0.0863 -0.0995
   13PNCE   C2A  101   0.714   6.032   8.709  0.2377 -0.0020 -0.0565
   13PNCE   C3A  102   0.573   6.088   8.289  0.0963 -0.2713 -0.2329
   13PNCE   C1B  103   0.991   6.623   9.083  0.0361  0.0368  0.1320
   13PNCE   C2B  104   0.584   6.556   8.716 -0.0871 -0.1824  0.2161
   13PNCE   C3B  105   0.161   6.542   8.471  0.0886 -0.2938  0.0153
   13PNCE   D4B  106   0.070   6.263   8.181 -0.3447  0.0760 -0.0747
   13PNCE   C5B  107   0.302   6.212   7.754  0.1664  0.0683  0.0130
   13PNCE   C6B  108   0.750   6.200   7.549 -0.3578  0.1963  0.2773
   14XCA    COO  109  13.412  15.538   4.369  0.1478 -0.2950 -0.2852
   14XCA     C1  110  13.463  15.424   4.736 -0.0833  0.0375  0.0563
   14XCA     C2  111  13.536  15.342   5.100  0.1753 -0.0969  0.0980
   14XCA     C3  112  13.842  15.581   5.338  0.0784 -0.0890 -0.1378
   14XCA     C4  113  13.986  15.868   5.547 -0.4323  0.0336  0.3080
   14XCA     C5  114  13.955  16.222   5.340 -0.1972 -0.0542  0.0302
   14XCA     C6  115  13.906  16.539   5.059  0.1308  0.0388  0.0423
   15CHOL   ROH  116  10.533   2.659   6.138  0.0918  0.2598 -0.1887
   15CHOL    R1  117  10.765   2.544   6.253 -0.1264  0.0560  0.0620
   15CHOL    R2  118  11.017   2.650   6.214  0.0645 -0.4138 -0.0393
   15CHOL    R3  119  11.024   2.649   6.486 -0.0249  0.0093 -0.0284
   15CHOL    R4  120  11.296   2.724   6.406  0.0572 -0.3119 -0.0671
   15CHOL    R5  121  11.240   2.562   6.540 -0.1033 -0.0653  0.1761
   15CHOL    C1  122  11.464   2.766   6.772 -0.0310  0.1446 -0.0732
   15CHOL    C2  123  11.636   3.033   7.012 -0.2482 -0.0294 -0.0679
   16PNCE   AM1  124   3.265   2.998   6.691 -0.0274  0.2309 -0.3346
   16PNCE   AM2  125   3.109   2.910   6.930 -0.0813  0.2303 -0.0787
   16PNCE   T1A  126   3.616   2.763   6.822 -0.0965 -0.0614  0.0092
   16PNCE   C2A  127   3.925   2.730   6.569 -0.2227 -0.0482  0.0633
   16PNCE   C3A  128   4.180   2.388   6.647 -0.0933 -0.0605  0.4081
   16PNCE   C1B  129   2.823   3.325   6.846  0.0687 -0.2666  0.0558
   16PNCE   C2B  130   2.582   3.644   7.068  0.1083  0.0113  0.0020
   16PNCE   C3B  131   2.171   3.874   7.154 -0.0836  0.0845  0.0429
   16PNCE   D4B  132   1.948   4.057   7.469  0.1082 -0.0118  0.1265
   16PNCE   C5B  133   2.006   3.987   7.863  0.0168 -0.2776  0.1218
   16PNCE   C6B  134   1.850   3.762   8.250 -0.3615  0.1816  0.2247
   17XCA    COO  135   8.893  12.971   5.128  0.2681  0.2871 -0.1355
   17XCA     C1  136   9.152  13.221   5.314 -0.0408  0.1899 -0.0104
   17XCA     C2  137   9.448  13.304   5.535  0.0070  0.1941  0.0385
   17XCA     C3  138   9.323  13.482   5.846 -0.1437  0.0661  0.0326
   17XCA     C4  139   9.372  13.890   6.097 -0.1654 -0.1982  0.0674
   17XCA     C5  140   8.997  14.045   6.441  0.2748  0.1421  0.0424
   17XCA     C6  141   8.564  14.190   6.217 -0.0332 -0.2060  0.0067
   18PNCE   AM1  142   4.001   1.634   7.307  0.0785 -0.0073  0.5833
   18PNCE   AM2  143   4.078   1.420   7.522 -0.1193 -0.0312  0.2051
   18PNCE   T1A  144   3.919   1.248   7.057 -0.0071 -0.0776  0.0913
   18PNCE   C2A  145   3.846   1.021   6.678 -0.1302 -0.4111  0.1759
   18PNCE   C3A  146   3.678   0.742   6.576  0.1821  0.2878  0.3965
   18PNCE   C1B  147   4.404   1.505   7.094 -0.1491 -0.3448  0.5731
   18PNCE   C2B  148   4.577   1.430   6.716 -0.1957  0.0003 -0.0319
   18PNCE   C3B  149   4.827   1.175   6.468 -0.2020  0.0787  0.1379
   18PNCE   D4B  150   4.894   0.776   6.478  0.0739  0.0919 -0.1087
   18PNCE   C5B  151   5.046   0.439   6.231  0.2623  0.2276  0.0080
   18PNCE   C6B  152   4.751   0.275   5.872  0.1900  0.2075 -0.0212
   19PNCE   AM1  153   4.249   6.337   9.069 -0.0779  0.2984  0.2895
   19PNCE   AM2  154   4.165   6.148   9.233  0.1753  0.0437 -0.0143
   19PNCE   T1A  155   4.181   6.297   8.627  0.0876 -0.0636  0.1039
   19PNCE   C2A  156   4.257   6.288   8.188  0.1090 -0.0881  0.1460
   19PNCE   C3A  157   4.304   6.393   7.790 -0.1944  0.0429  0.3337
   19PNCE   C1B  158   3.927   5.955   8.842  0.0997  0.1720 -0.0223
   19PNCE   C2B  159   3.543   5.664   8.544 -0.0144  0.0343  0.0158
   19PNCE   C3B  160   3.342   5.522   8.140 -0.0380 -0.0520 -0.1194
   19PNCE   D4B  161   3.410   5.431   7.774  0.0388  0.0666 -0.1541
   19PNCE   C5B  162   3.841   5.444   7.601 -0.0627  0.2036  0.1539
   19PNCE   C6B  163   4.358   5.366   7.522  0.1756 -0.0936 -0.1807
   20PNCE   AM1  164  15.337  14.286   8.045 -0.1995  0.0950  0.1847
   20PNCE   AM2  165  15.550  14.353   7.745 -0.2251  0.2524  0.2642
   20PNCE   T1A  166  15.217  14.705   7.897 -0.2718 -0.1369 -0.0300
   20PNCE   C2A  167  15.233  15.117   7.906 -0.0468  0.4446  0.2292
   20PNCE   C3A  168  15.131  15.360   7.582 -0.0691  0.0877  0.0959
   20PNCE   C1B  169  15.832  14.349   7.325 -0.2296 -0.0165 -0.0787
   20PNCE   C2B  170  15.881  14.461   6.896  0.3932 -0.0678 -0.2434
   20PNCE   C3B  171  15.685  14.518   6.534 -0.2170 -0.0855  0.0539
   20PNCE   D4B  172  15.597  14.857   6.199  0.1363  0.1770 -0.0236
   20PNCE   C5B  173  15.671  15.216   6.275 -0.0639 -0.0289  0.0806
   20PNCE   C6B  174  15.600  15.545   6.146 -0.0984 -0.0052 -0.0514
   21XCA    COO  175   4.641   1.530   7.605 -0.1754  0.0039  0.2742
   21XCA     C1  176   4.440   1.106   7.366  0.1097 -0.0407  0.2221
   21XCA     C2  177   4.207   0.847   7.031 -0.0295  0.0210 -0.1331
   21XCA     C3  178   4.129   0.545   6.709  0.1254  0.2300  0.1845
   21XCA     C4  179   3.960   0.368   6.335  0.1284  0.0525 -0.1950
   21XCA     C5  180   3.757   0.067   6.095 -0.1138  0.1506 -0.1181
   21XCA     C6  181   3.754  -0.389   5.961  0.1961  0.0887 -0.0886
   22PNCE   AM1  182  15.817   8.986   8.820  0.1723  0.0594 -0.1486
   22PNCE   AM2  183  15.950   9.367   8.718  0.0068  0.1077 -0.1114
   22PNCE   T1A  184  15.683   8.886   8.392 -0.0664 -0.0477  0.0600
   22PNCE   C2A  185  15.991   8.987   7.980  0.0098  0.0932 -0.0269
   22PNCE   C3A  186  16.045   9.006   7.620 -0.1238  0.2732  0.3684
   22PNCE   C1B  187  16.167   8.944   8.450 -0.2801  0.1588 -0.0245
   22PNCE   C2B  188  16.096   8.569   8.260  0.0286 -0.1690 -0.1466
   22PNCE   C3B  189  16.013   8.499   7.866 -0.1004  0.2594 -0.2366
   22PNCE   D4B  190  16.124   8.337   7.484 -0.0602  0.2302  0.1225
   22PNCE   C5B  191  16.579   8.093   7.577 -0.1754  0.0918 -0.0070
   22PNCE   C6B  192  16.987   8.197   7.322 -0.0921  0.2238  0.0147
   23PNCE   AM1  193  13.200  15.828   6.980  0.2433  0.0468 -0.4649
   23PNCE   AM2  194  12.873  15.722   6.823  0.0314  0.1719 -0.2522
   23PNCE   T1A  195  13.442  15.911   6.652 -0.0343 -0.2409  0.3450
   23PNCE   C2A  196  13.653  16.269   6.348 -0.1177  0.0623  0.4001
   23PNCE   C3A  197  13.893  16.267   5.864 -0.0940  0.1547 -0.4695
   23PNCE   C1B  198  12.826  15.455   6.413 -0.3207 -0.1438 -0.3109
   23PNCE   C2B  199  12.478  15.232   6.237  0.0585 -0.2208  0.2052
   23PNCE   C3B  200  11.983  15.292   6.217 -0.0271 -0.2861 -0.0959
   23PNCE   D4B  201  11.506  15.326   6.243  0.0187  0.0987 -0.6628
   23PNCE   C5B  202  11.334  15.508   5.971 -0.1713 -0.0483 -0.1179
   23PNCE   C6B  203  10.881  15.586   5.881  0.1298  0.1468  0.1860
   24PNCE   AM1  204   4.172   4.415   8.268 -0.1400 -0.1144 -0.2677
   24PNCE   AM2  205   4.438   4.328   8.474  0.3528 -0.1316 -0.2489
   24PNCE   T1A  206   4.203   4.453   7.784 -0.0674 -0.0388  0.2083
   24PNCE   C2A  207   4.446   4.695   7.372  0.2377  0.0273 -0.2564
   24PNCE   C3A  208   4.701   4.891   6.964  0.2807  0.1823 -0.0084
   24PNCE   C1B  209   4.589   4.667   8.214  0.0536  0.0915 -0.0959
   24PNCE   C2B  210   4.678   4.705   7.799 -0.2335  0.1223 -0.0195
   24PNCE   C3B  211   4.937   4.771   7.429 -0.2743 -0.0773  0.1849
   24PNCE   D4B  212   5.193   4.622   7.106 -0.0123  0.2729  0.1845
   24PNCE   C5B  213   5.582   4.723   7.142 -0.0961  0.0588 -0.0754
   24PNCE   C6B  214   5.964   4.912   7.302 -0.1759 -0.0355  0.0319
   25XCA    COO  215   4.664  12.844   9.431  0.1201  0.0449  0.3008
   25XCA     C1  216   4.854  12.672   9.075  0.1502 -0.1554 -0.1840
   25XCA     C2  217   5.025  12.814   8.680 -0.0758  0.3792 -0.3959
   25XCA     C3  218   5.307  12.712   8.325 -0.0830  0.0483 -0.0180
   25XCA     C4  219   5.528  12.677   7.974 -0.5835  0.1377 -0.4459
   25XCA     C5  220   5.586  12.549   7.541  0.1257  0.4289  0.0863
   25XCA     C6  221   5.443  12.847   7.163  0.1790 -0.5502  0.1028
   26CHOL   ROH  222   6.406  14.044   4.738 -0.2869 -0.3355  0.2518
   26CHOL    R1  223   6.509  14.129   4.988 -0.1316 -0.2789  0.1687
   26CHOL    R2  224   6.476  14.387   5.083  0.0733 -0.2133  0.0548
   26CHOL    R3  225   6.373  14.259   5.300  0.0788 -0.0374  0.1645
   26CHOL    R4  226   6.386  14.542   5.378 -0.0305  0.0531 -0.1117
   26CHOL    R5  227   6.471  14.372   5.487  0.0107  0.1842  0.0728
   26CHOL    C1  228   6.238  14.512   5.754 -0.0858  0.3735 -0.1055
   26CHOL    C2  229   6.074  14.534   6.170  0.0475  0.0464 -0.1650
   27PNCE   AM1  230  14.627  11.239   8.124  0.0983  0.0842  0.0947
   27PNCE   AM2  231  14.361  11.350   7.982  0.2364 -0.1332  0.1763
   27PNCE   T1A  232  14.758  11.610   7.805 -0.2671  0.1285 -0.0378
   27PNCE   C2A  233  14.558  11.863   7.418 -0.0037 -0.0232  0.2566
   27PNCE   C3A  234  14.485  12.156   7.126 -0.0811 -0.1177  0.0401
   27PNCE   C1B  235  14.252  11.405   7.577 -0.1031 -0.0944 -0.1466
   27PNCE   C2B  236  14.224  11.563   7.159  0.0296 -0.0864 -0.0606
   27PNCE   C3B  237  14.414  11.305   6.865  0.1951  0.1464 -0.0462
   27PNCE   D4B  238  14.823  11.156   6.569 -0.1150  0.0830 -0.0057
   27PNCE   C5B  239  15.197  11.394   6.425 -0.1480 -0.0969 -0.0580
   27PNCE   C6B  240  15.577  11.638   6.357 -0.0424 -0.1049  0.0595
   28CHOL   ROH  241  12.602   8.353   5.432 -0.1409 -0.1342 -0.0121
   28CHOL    R1  242  12.719   8.420   5.681  0.1010 -0.0757 -0.1380
   28CHOL    R2  243  12.607   8.346   5.922  0.1268  0.3037 -0.0037
   28CHOL    R3  244  12.853   8.240   5.967  0.0031 -0.0161 -0.0534
   28CHOL    R4  245  12.702   8.183   6.212  0.0132  0.3050  0.0346
   28CHOL    R5  246  12.895   8.283   6.199  0.1515  0.0360 -0.0878
   28CHOL    C1  247  12.988   7.988   6.423 -0.1689  0.0055  0.0103
   28CHOL    C2  248  12.646   8.034   6.692  0.0394  0.1784 -0.1692
   29PNCE   AM1  249   3.796   5.541   9.575 -0.1875  0.1483 -0.2883
   29PNCE   AM2  250   3.670   5.396   9.281 -0.0178 -0.0707  0.3248
   29PNCE   T1A  251   3.365   5.745   9.532 -0.0328 -0.0305  0.2999
   29PNCE   C2A  252   2.969   5.865   9.331 -0.1441 -0.0412 -0.0854
   29PNCE   C3A  253   2.460   5.871   9.448  0.0231 -0.0229 -0.3183
   29PNCE   C1B  254   3.296   5.517   8.975  0.0483 -0.0631 -0.3510
   29PNCE   C2B  255   3.008   5.617   8.660 -0.2846 -0.0773  0.0035
   29PNCE   C3B  256   2.870   5.418   8.357  0.1407 -0.0404 -0.2065
   29PNCE   D4B  257   3.059   5.129   8.075  0.1479  0.1416 -0.2012
   29PNCE   C5B  258   3.058   4.900   7.654 -0.0976 -0.0753 -0.0506
   29PNCE   C6B  259   2.842   5.089   7.293  0.0196 -0.1174 -0.1879
   30XCA    COO  260  12.175   0.636   8.268 -0.2024 -0.1983  0.0888
   30XCA     C1  261  11.995   0.757   7.807 -0.0418 -0.1227  0.3540
   30XCA     C2  262  11.880   0.785   7.339 -0.1173  0.0704  0.4065
   30XCA     C3  263  11.867   0.844   6.902  0.1608 -0.0878 -0.0033
   30XCA     C4  264  11.855   0.873   6.472 -0.0767  0.1275 -0.0378
   30XCA     C5  265  11.507   0.900   6.277  0.4523 -0.0540 -0.0244
   30XCA     C6  266  11.173   0.860   6.537  0.0262  0.1768  0.1473
   31PNCE   AM1  267  15.066   8.299   8.245 -0.0130  0.0109 -0.0200
   31PNCE   AM2  268  15.063   7.905   8.256  0.4713  0.1420  0.0985
   31PNCE   T1A  269  15.382   8.268   7.901 -0.1041  0.0559 -0.2023
   31PNCE   C2A  270  15.635   8.182   7.653 -0.0193 -0.3308  0.3314
   31PNCE   C3A  271  15.899   7.948   7.268 -0.1890 -0.0119  0.0199
   31PNCE   C1B  272  14.911   7.968   7.784 -0.0043 -0.0034 -0.1517
   31PNCE   C2B  273  14.762   8.148   7.461  0.1974  0.2814  0.1886
   31PNCE   C3B  274  14.606   8.319   7.073  0.0538  0.0979  0.1268
   31PNCE   D4B  275  14.162   8.211   6.758 -0.0486 -0.1754 -0.0590
   31PNCE   C5B  276  13.977   8.622   6.547  0.1560  0.1799 -0.2655
   31PNCE   C6B  277  14.239   8.954   6.468 -0.0963  0.2083  0.0590
   32XCA    COO  278   9.703   4.405   5.142  0.0312  0.0179  0.3505
   32XCA     C1  279   9.364   4.073   5.387  0.3058 -0.0467  0.2916
   32XCA     C2  280   9.192   3.987   5.847 -0.1646 -0.1054 -0.0352
   32XCA     C3  281   9.207   3.953   6.291  0.0761 -0.0811 -0.1894
   32XCA     C4  282   8.877   3.951   6.570 -0.1074  0.0849  0.1897
   32XCA     C5  283   8.801   3.796   6.908  0.0765  0.4094  0.1767
   32XCA     C6  284   8.506   3.534   7.108 -0.2592 -0.1012  0.0054
   33CHOL   ROH  285  11.468   9.163   8.818 -0.1382 -0.2462 -0.0034
   33CHOL    R1  286  11.436   9.230   8.545 -0.1642 -0.0567  0.0440
   33CHOL    R2  287  11.587   9.115   8.344 -0.1529  0.1126 -0.0490
   33CHOL    R3  288  11.344   9.055   8.239 -0.1477  0.1430 -0.0767
   33CHOL    R4  289  11.537   8.955   8.042 -0.1356 -0.0368  0.0269
   33CHOL    R5  290  11.370   9.090   8.004 -0.0760  0.0024 -0.0899
   33CHOL    C1  291  11.278   8.805   7.768 -0.1207 -0.0950  0.0451
   33CHOL    C2  292  11.600   8.807   7.487  0.0819  0.0114 -0.0604
   34PNCE   AM1  293   3.288   3.437   7.900  0.3405  0.0821  0.0237
   34PNCE   AM2  294   3.092   3.309   7.622  0.0516  0.2842  0.0291
   34PNCE   T1A  295   3.425   3.865   7.816  0.0554  0.0101  0.1701
   34PNCE   C2A  296   3.350   4.232   7.772  0.3712 -0.0968 -0.0593
   34PNCE   C3A  297   3.450   4.531   7.503 -0.0277  0.0738  0.3016
   34PNCE   C1B  298   3.101   3.373   7.205  0.4876  0.0294 -0.0342
   34PNCE   C2B  299   3.317   3.486   6.845 -0.2536  0.0606 -0.2040
   34PNCE   C3B  300   3.234   3.378   6.406 -0.0335 -0.1486 -0.3071
   34PNCE   D4B  301   2.885   3.082   6.393  0.4626  0.3301 -0.1226
   34PNCE   C5B  302   2.498   3.181   6.474 -0.0794 -0.1030  0.2765
   34PNCE   C6B  303   2.281   3.572   6.408  0.0861 -0.0448 -0.2447
   35PNCE   AM1  304   0.821  13.850   8.022 -0.1854 -0.1827 -0.0409
   35PNCE   AM2  305   0.553  13.805   8.302  0.2119  0.0630 -0.1020
   35PNCE   T1A  306   0.814  13.862   7.651  0.1340  0.1145  0.0794
   35PNCE   C2A  307   0.756  13.798   7.206  0.3057 -0.1782  0.1764
   35PNCE   C3A  308   0.751  13.576   6.845  0.3914  0.1809  0.0937
   35PNCE   C1B  309   0.458  13.574   7.884 -0.1736 -0.1033  0.0669
   35PNCE   C2B  310   0.207  13.222   7.633 -0.6701  0.1782 -0.2758
   35PNCE   C3B  311   0.142  13.045   7.242 -0.2184 -0.1264 -0.3826
   35PNCE   D4B  312   0.240  12.703   7.087  0.0496 -0.2086 -0.2182
   35PNCE   C5B  313  -0.034  12.390   7.076  0.0032  0.1484  0.1573
   35PNCE   C6B  314  -0.339  12.155   7.294 -0.2615  0.0739  0.5576
   36PNCE   AM1  315   8.021   8.583   9.333  0.0898  0.2958  0.0965
   36PNCE   AM2  316   8.213   8.269   9.293  0.1292 -0.1606 -0.0985
   36PNCE   T1A  317   7.976   8.648   8.961 -0.2127  0.0264 -0.2161
   36PNCE   C2A  318   7.997   8.739   8.468  0.0695  0.0025  0.2309
   36PNCE   C3A  319   7.990   8.839   8.092 -0.1366  0.2292 -0.0671
   36PNCE   C1B  320   8.372   7.922   9.030 -0.0270 -0.1640 -0.0528
   36PNCE   C2B  321   8.586   7.823   8.701 -0.0541 -0.0062  0.0184
   36PNCE   C3B  322   8.629   7.866   8.303  0.0383 -0.1958 -0.1167
   36PNCE   D4B  323   8.629   7.877   7.905  0.0758 -0.1388  0.1673
   36PNCE   C5B  324   9.029   7.937   7.676 -0.0878 -0.0929  0.0238
   36PNCE   C6B  325   9.121   7.717   7.439  0.1414  0.1005 -0.2186
   37XCA    COO  326  13.509   3.988   7.379  0.0405 -0.2388  0.0008
   37XCA     C1  327  13.632   4.143   6.952  0.3783  0.0744  0.0754
   37XCA     C2  328  13.886   4.412   6.663  0.1886  0.1055  0.1480
   37XCA     C3  329  13.907   4.570   6.319  0.1409  0.0544 -0.1092
   37XCA     C4  330  14.033   4.832   5.974 -0.2006  0.3876  0.1533
   37XCA     C5  331  13.879   5.096   5.777 -0.1510 -0.3197  0.0464
   37XCA     C6  332  13.977   5.488   5.990  0.4055  0.0044  0.1513
   38CHOL   ROH  333  10.200   9.265   5.228 -0.1326 -0.0559  0.2275
   38CHOL    R1  334  10.253   8.987   5.215 -0.0401 -0.0343  0.1325
   38CHOL    R2  335  10.507   8.882   5.243 -0.0048  0.0423  0.0868
   38CHOL    R3  336  10.390   8.734   5.437  0.0535 -0.0645  0.0420
   38CHOL    R4  337  10.649   8.606   5.393  0.1552  0.1212  0.0837
   38CHOL    R5  338  10.455   8.509   5.388  0.2220 -0.0148  0.0274
   38CHOL    C1  339  10.622   8.305   5.664  0.3032  0.0669  0.0398
   38CHOL    C2  340  10.897   8.069   5.853 -0.0965 -0.1056  0.0506
   39PNCE   AM1  341   4.204   0.157   8.398  0.3337 -0.2377 -0.0400
   39PNCE   AM2  342   4.030  -0.015   8.282 -0.1410 -0.4027 -0.0671
   39PNCE   T1A  343   4.352   0.106   7.966  0.1473 -0.1864 -0.0092
   39PNCE   C2A  344   4.530   0.184   7.484  0.1535  0.2999 -0.1471
   39PNCE   C3A  345   4.714  -0.080   7.192  0.0241 -0.1186  0.4697
   39PNCE   C1B  346   3.767  -0.207   7.831 -0.0036  0.1433 -0.0380
   39PNCE   C2B  347   3.761  -0.500   7.417  0.1512 -0.0410 -0.1682
   39PNCE   C3B  348   3.539  -0.388   7.038  0.0345  0.0802  0.1218
   39PNCE   D4B  349   3.328  -0.724   6.871 -0.3500  0.0427 -0.0061
   39PNCE   C5B  350   3.237  -0.619   6.484  0.0288 -0.1396  0.1147
   39PNCE   C6B  351   3.307  -0.175   6.215 -0.3172 -0.1126 -0.0594
   40PNCE   AM1  352   4.935   8.975   9.273  0.0428  0.0125  0.1221
   40PNCE   AM2  353   5.282   9.032   9.256 -0.0218  0.1999 -0.0410
   40PNCE   T1A  354   4.984   9.148   8.850 -0.1582  0.0418  0.2225
   40PNCE   C2A  355   5.211   9.402   8.497 -0.0875 -0.2385 -0.0882
   40PNCE   C3A  356   5.421   9.654   8.151  0.0021  0.1222  0.0758
   40PNCE   C1B  357   5.520   8.869   8.853  0.1424 -0.0374  0.2533
   40PNCE   C2B  358   5.793   8.483   8.802 -0.0655  0.0397 -0.0306
   40PNCE   C3B  359   6.150   8.370   8.531  0.1774 -0.0096 -0.0707
   40PNCE   D4B  360   6.299   8.102   8.171 -0.1668 -0.1703 -0.3053
   40PNCE   C5B  361   6.634   8.141   7.961  0.2164  0.1541  0.0690
   40PNCE   C6B  362   6.728   8.015   7.559 -0.1017 -0.4016  0.2611
   41CHOL   ROH  363  10.042  14.739   7.365 -0.1374 -0.1103  0.1448
   41CHOL    R1  364   9.855  14.796   7.161 -0.0720 -0.1315  0.0788
   41CHOL    R2  365   9.872  15.020   7.001 -0.0589 -0.1149  0.1078
   41CHOL    R3  366   9.862  14.838   6.799  0.0542 -0.0962  0.0841
   41CHOL    R4  367   9.765  15.087   6.679 -0.0664 -0.1245  0.1081
   41CHOL    R5  368   9.663  14.894   6.678  0.0323 -0.1809  0.0751
   41CHOL    C1  369   9.693  14.955   6.303  0.0355 -0.1126  0.0860
   41CHOL    C2  370   9.473  15.242   6.309  0.1765  0.1164 -0.1972
   42PNCE   AM1  371   8.744  15.707   8.202  0.0029 -0.1366  0.2873
   42PNCE   AM2  372   8.842  15.642   7.884 -0.1497 -0.1667  0.2169
   42PNCE   T1A  373   8.353  15.646   7.984  0.1480 -0.0564 -0.2196
   42PNCE   C2A  374   8.111  15.536   7.665  0.0604  0.0384 -0.1754
   42PNCE   C3A  375   8.161  15.036   7.529 -0.2372 -0.2997  0.0819
   42PNCE   C1B  376   8.559  15.830   7.538 -0.2865 -0.4904  0.1285
   42PNCE   C2B  377   8.207  15.888   7.273  0.0132 -0.3652 -0.2431
   42PNCE   C3B  378   7.959  15.899   6.950  0.2104  0.0084  0.1165
   42PNCE   D4B  379   7.704  16.162   6.844 -0.2168  0.3723 -0.2200
   42PNCE   C5B  380   7.567  16.257   6.375 -0.0181  0.0274 -0.6267
   42PNCE   C6B  381   7.796  16.452   6.047  0.4549  0.3744 -0.0475
   43PNCE   AM1  382   2.853   0.756   7.563  0.0914 -0.1008  0.0214
   43PNCE   AM2  383   3.044   1.013   7.568  0.1223 -0.2434  0.0410
   43PNCE   T1A  384   2.928   0.815   7.105  0.1967  0.2879  0.2321
   43PNCE   C2A  385   2.845   0.910   6.671  0.1721  0.1770 -0.1732
   43PNCE   C3A  386   2.587   1.105   6.321 -0.0172  0.2819  0.0285
   43PNCE   C1B  387   3.371   0.892   7.249  0.0331 -0.0734 -0.2840
   43PNCE   C2B  388   3.733   0.642   7.122 -0.2946 -0.0375 -0.0319
   43PNCE   C3B  389   3.740   0.257   6.925  0.0260 -0.1440 -0.1039
   43PNCE   D4B  390   3.553   0.151   6.586  0.2015 -0.1309 -0.0348
   43PNCE   C5B  391   3.131   0.036   6.597 -0.0698 -0.3469  0.1597
   43PNCE   C6B  392   2.962  -0.275   6.757 -0.0232 -0.0513  0.0190
   44XCA    COO  393  11.588  11.962   8.662 -0.1006 -0.1646 -0.1480
   44XCA     C1  394  11.464  12.241   8.335  0.1054  0.0704 -0.0023
   44XCA     C2  395  11.172  12.270   8.105 -0.0739 -0.0534 -0.1953
   44XCA     C3  396  10.772  12.176   7.920  0.1654  0.0723 -0.0931
   44XCA     C4  397  10.358  12.027   7.804 -0.1512  0.2083  0.1175
   44XCA     C5  398   9.975  11.823   7.803  0.1479  0.0819 -0.0719
   44XCA     C6  399   9.547  11.883   7.797 -0.1257  0.3795 -0.1473
   45CHOL   ROH  400   1.800  11.755   8.227 -0.0680 -0.0579 -0.0556
   45CHOL    R1  401   1.849  11.595   7.998 -0.0500 -0.1070 -0.0193
   45CHOL    R2  402   1.658  11.429   7.888 -0.0468 -0.1323 -0.0048
   45CHOL    R3  403   1.716  11.567   7.661 -0.0245 -0.1726 -0.0220
   45CHOL    R4  404   1.666  11.292   7.571  0.1956 -0.2229  0.0398
   45CHOL    R5  405   1.843  11.413   7.529  0.1346 -0.1290  0.0871
   45CHOL    C1  406   1.725  11.342   7.173  0.3576 -0.3137  0.0497
   45CHOL    C2  407   1.523  11.201   6.725 -0.0633 -0.1987  0.0405
   46CHOL   ROH  408   4.281  15.069   8.180  0.1450 -0.2297  0.1569
   46CHOL    R1  409   4.237  14.953   7.925  0.1194 -0.1461  0.1238
   46CHOL    R2  410   4.008  15.000   7.777  0.1377 -0.0423  0.1337
   46CHOL    R3  411   4.187  15.074   7.585  0.1602 -0.0384  0.1549
   46CHOL    R4  412   3.948  14.997   7.437  0.0694  0.2474  0.1393
   46CHOL    R5  413   4.149  14.921   7.406  0.0102  0.1154  0.0496
   46CHOL    C1  414   4.080  15.063   7.059  0.0507  0.4198  0.1625
   46CHOL    C2  415   3.930  14.881   6.769  0.0738  0.1710 -0.0644
   47XCA    COO  416   7.138  11.794   9.342  0.1108 -0.0464  0.1214
   47XCA     C1  417   6.920  12.025   9.013 -0.2988  0.2268 -0.2844
   47XCA     C2  418   6.628  12.298   8.922 -0.1221 -0.1138  0.3313
   47XCA     C3  419   6.486  12.659   8.655  0.0525 -0.3460  0.0255
   47XCA     C4  420   6.428  12.869   8.225  0.3309 -0.3870  0.3495
   47XCA     C5  421   6.074  12.816   7.904 -0.0704  0.4334  0.0490
   47XCA     C6  422   5.902  12.278   7.882  0.2652  0.0291  0.0778
   48CHOL   ROH  423   3.666   6.331   8.647 -0.0604 -0.0770 -0.0851
   48CHOL    R1  424   3.447   6.171   8.565 -0.1802  0.0356  0.0133
   48CHOL    R2  425   3.257   6.261   8.386  0.0037 -0.0007 -0.2009
   48CHOL    R3  426   3.323   6.035   8.252 -0.1574 -0.2503  0.1247
   48CHOL    R4  427   3.065   6.114   8.139  0.0920  0.0329 -0.2906
   48CHOL    R5  428   3.115   5.919   8.222 -0.3039  0.0328 -0.0123
   48CHOL    C1  429   3.016   5.816   7.869 -0.0078 -0.1818 -0.0371
   48CHOL    C2  430   2.903   5.452   7.729  0.1172 -0.0707 -0.1181
   49PNCE   AM1  431   4.769  10.348   8.875 -0.2553  0.1263 -0.1313
   49PNCE   AM2  432   5.052  10.257   9.088  0.0309  0.0832  0.4513
   49PNCE   T1A  433   4.966  10.746   8.639  0.0162 -0.1472 -0.1164
   49PNCE   C2A  434   5.129  11.057   8.336 -0.0018 -0.1138  0.2172
   49PNCE   C3A  435   5.054  11.373   8.017 -0.2498  0.3843 -0.0860
   49PNCE   C1B  436   5.189  10.269   8.652 -0.1628  0.0071  0.4647
   49PNCE   C2B  437   5.101  10.484   8.226  0.0450  0.2819  0.4842
   49PNCE   C3B  438   5.071  10.556   7.846 -0.4769 -0.1151 -0.1541
   49PNCE   D4B  439   4.760  10.672   7.523  0.2998 -0.1746  0.1260
   49PNCE   C5B  440   4.692  11.106   7.682 -0.0691  0.0908  0.0820
   49PNCE   C6B  441   4.543  11.485   7.377  0.1886  0.4888  0.0070
   50PNCE   AM1  442   7.793  14.894   9.098 -0.1506  0.0513 -0.1495
   50PNCE   AM2  443   7.887  14.687   8.812 -0.2159  0.2065  0.0667
   50PNCE   T1A  444   7.589  15.045   8.643  0.0837 -0.2627 -0.2529
   50PNCE   C2A  445   7.704  15.574   8.419  0.2218  0.2451 -0.1392
   50PNCE   C3A  446   7.830  15.790   8.080 -0.0599  0.2352  0.1141
   50PNCE   C1B  447   7.902  14.569   8.385  0.0283 -0.1278 -0.2241
   50PNCE   C2B  448   7.997  14.461   7.991  0.0286  0.5192  0.0840
   50PNCE   C3B  449   8.041  14.336   7.649 -0.1781 -0.1272 -0.1134
   50PNCE   D4B  450   8.035  14.548   7.263  0.3253  0.3311 -0.2044
   50PNCE   C5B  451   7.797  14.912   7.219  0.5608  0.0809  0.0519
   50PNCE   C6B  452   7.705  15.192   7.572  0.0719 -0.1027 -0.0067
   51CHOL   ROH  453   2.729   4.853   8.635 -0.1301 -0.1300 -0.0414
   51CHOL    R1  454   2.553   4.917   8.423 -0.0190 -0.0674 -0.1147
   51CHOL    R2  455   2.502   5.178   8.345  0.0697 -0.0492 -0.1033
   51CHOL    R3  456   2.577   5.085   8.101  0.1623 -0.0303 -0.0832
   51CHOL    R4  457   2.420   5.325   8.044  0.2997  0.0543 -0.1179
   51CHOL    R5  458   2.388   5.127   7.960  0.2555  0.0849 -0.1786
   51CHOL    C1  459   2.443   5.324   7.639  0.5205  0.1324 -0.1076
   51CHOL    C2  460   2.284   5.637   7.652  0.2467  0.1504  0.0053
   52PNCE   AM1  461   2.163   5.300   9.092 -0.2217  0.0218 -0.5520
   52PNCE   AM2  462   1.994   5.301   8.861 -0.0943  0.0387  0.2303
   52PNCE   T1A  463   2.110   5.738   8.978  0.0216 -0.0201 -0.2199
   52PNCE   C2A  464   2.184   6.001   8.644  0.1063  0.0151  0.2202
   52PNCE   C3A  465   2.305   6.203   8.313  0.0077 -0.0676  0.0331
   52PNCE   C1B  466   2.017   5.179   8.392  0.0497 -0.1524  0.0289
   52PNCE   C2B  467   1.815   5.302   7.999  0.0853  0.2073  0.3023
   52PNCE   C3B  468   1.652   5.652   7.696 -0.0862 -0.0614 -0.0148
   52PNCE   D4B  469   1.875   6.016   7.485 -0.0945  0.0202 -0.2755
   52PNCE   C5B  470   1.711   6.287   7.250  0.1007  0.0337  0.2152
   52PNCE   C6B  471   1.406   6.086   6.840 -0.0394 -0.4509  0.0624
   53PNCE   AM1  472  12.933   5.669   7.939 -0.0908 -0.1603  0.0632
   53PNCE   AM2  473  12.889   5.448   7.823 -0.1172  0.1081 -0.0695
   53PNCE   T1A  474  13.109   5.929   7.667 -0.0003 -0.0840  0.2809
   53PNCE   C2A  475  13.397   6.098   7.433  0.1072 -0.0723 -0.0565
   53PNCE   C3A  476  13.480   6.282   7.182 -0.0383 -0.0369  0.0426
   53PNCE   C1B  477  13.180   5.335   7.456  0.1886 -0.0540  0.0394
   53PNCE   C2B  478  13.241   5.620   7.209  0.0686 -0.0200  0.1093
   53PNCE   C3B  479  13.666   5.855   7.059  0.0248 -0.1712 -0.2156
   53PNCE   D4B  480  13.855   6.120   6.771 -0.3887  0.0660  0.0038
   53PNCE   C5B  481  13.839   6.614   6.887 -0.1068 -0.0968  0.2724
   53PNCE   C6B  482  13.801   6.732   7.256 -0.1930 -0.1273 -0.1179
   54CHOL   ROH  483   4.180  14.227   4.354  0.0281  0.2002 -0.0701
   54CHOL    R1  484   4.176  14.250   4.636  0.0671 -0.0147 -0.0498
   54CHOL    R2  485   3.986  14.400   4.771  0.2180  0.0700  0.0779
   54CHOL    R3  486   3.944  14.167   4.905 -0.0013  0.0014 -0.1047
   54CHOL    R4  487   3.794  14.368   5.056  0.1446  0.0099  0.0216
   54CHOL    R5  488   3.943  14.231   5.136  0.0142 -0.1763 -0.0567
   54CHOL    C1  489   3.642  14.131   5.348 -0.1039 -0.0897 -0.1825
   54CHOL    C2  490   3.214  14.075   5.321 -0.1046  0.0736  0.0613
   55XCA    COO  491   2.958  13.791   8.371 -0.1617 -0.0295  0.1844
   55XCA     C1  492   3.060  13.456   8.149 -0.0524 -0.3391 -0.2600
   55XCA     C2  493   2.868  13.221   7.822  0.1045 -0.0782  0.0794
   55XCA     C3  494   2.611  13.285   7.542  0.1858 -0.1685 -0.1000
   55XCA     C4  495   2.490  13.122   7.125  0.0056  0.1661  0.0565
   55XCA     C5  496   2.336  12.968   6.791  0.1679  0.3452  0.1058
   55XCA     C6  497   1.861  13.018   6.738 -0.0042 -0.1002 -0.3670
   56XCA    COO  498  13.248  15.795   3.905  0.1863 -0.4144 -0.2664
   56XCA     C1  499  13.044  15.806   4.302 -0.1662  0.2422  0.3801
   56XCA     C2  500  13.132  15.808   4.751  0.1143  0.0221 -0.0527
   56XCA     C3  501  13.245  15.750   5.106 -0.0830  0.3144 -0.1367
   56XCA     C4  502  13.432  15.647   5.570  0.2102 -0.0695  0.1495
   56XCA     C5  503  13.231  15.269   5.876 -0.2961  0.0250  0.0188
   56XCA     C6  504  13.244  15.034   6.318  0.1013 -0.0589 -0.2243
   57CHOL   ROH  505   4.235   9.699   5.872  0.1316  0.1078 -0.0158
   57CHOL    R1  506   4.130   9.769   6.125  0.0896  0.0954 -0.0306
   57CHOL    R2  507   4.042   9.581   6.307 -0.0208  0.0922 -0.0916
   57CHOL    R3  508   4.216   9.708   6.473 -0.0231  0.0018 -0.0181
   57CHOL    R4  509   3.975   9.664   6.635  0.0088 -0.1866 -0.0116
   57CHOL    R5  510   4.077   9.854   6.603 -0.0406 -0.1326  0.1221
   57CHOL    C1  511   4.099   9.831   6.983  0.0239 -0.4339  0.1040
   57CHOL    C2  512   4.117  10.140   7.166  0.0982 -0.1228 -0.0682
   58CHOL   ROH  513   1.342  12.031   8.357  0.0831 -0.0369 -0.0126
   58CHOL    R1  514   1.109  11.924   8.238  0.1006 -0.0873 -0.0043
   58CHOL    R2  515   0.875  12.069   8.210  0.0372 -0.1608  0.0776
   58CHOL    R3  516   0.901  11.999   7.949  0.0270 -0.0738  0.0542
   58CHOL    R4  517   0.631  12.108   7.969 -0.0210 -0.2311  0.1261
   58CHOL    R5  518   0.686  11.914   7.888  0.0681 -0.1731  0.0646
   58CHOL    C1  519   0.512  12.064   7.584 -0.0644 -0.1904  0.1324
   58CHOL    C2  520   0.167  11.964   7.376  0.1012 -0.1207 -0.2591
   59CHOL   ROH  521  10.737   1.966   7.785  0.2164  0.0955 -0.0001
   59CHOL    R1  522  10.948   1.983   7.597  0.0472  0.1411 -0.1906
   59CHOL    R2  523  11.141   1.787   7.572  0.2770  0.3484 -0.1076
   59CHOL    R3  524  11.064   1.790   7.312  0.0567 -0.0566 -0.0544
   59CHOL    R4  525  11.339   1.687   7.307  0.1243  0.1320 -0.1417
   59CHOL    R5  526  11.262   1.856   7.192 -0.0883 -0.0757 -0.3083
   59CHOL    C1  527  11.382   1.631   6.908 -0.1716 -0.3742 -0.1116
   59CHOL    C2  528  11.728   1.699   6.664  0.0147 -0.0200  0.0811
   60PNCE   AM1  529   7.101   1.779   8.022 -0.0641  0.1966  0.2779
   60PNCE   AM2  530   7.231   1.992   8.235 -0.0480  0.2242  0.2811
   60PNCE   T1A  531   7.356   1.495   7.923  0.1128  0.0324 -0.0054
   60PNCE   C2A  532   7.341   1.261   7.502 -0.4312 -0.2713  0.0342
   60PNCE   C3A  533   7.194   1.357   7.168  0.0402 -0.1442  0.2685
   60PNCE   C1B  534   7.323   2.319   7.852  0.0368 -0.0959 -0.5369
   60PNCE   C2B  535   7.532   2.545   7.591 -0.2537 -0.1680  0.0920
   60PNCE   C3B  536   7.623   2.570   7.151  0.1875 -0.0285  0.0926
   60PNCE   D4B  537   7.879   2.414   6.721 -0.1304 -0.1448  0.1213
   60PNCE   C5B  538   8.293   2.271   6.889  0.0446  0.2779  0.0038
   60PNCE   C6B  539   8.658   2.230   6.974  0.0593  0.0061  0.0579
   61PNCE   AM1  540   3.975   8.316   8.725  0.0650  0.1762 -0.2113
   61PNCE   AM2  541   3.742   8.205   8.981  0.0730  0.2118  0.1456
   61PNCE   T1A  542   3.878   8.147   8.324  0.0287  0.2807 -0.2279
   61PNCE   C2A  543   3.834   7.869   8.067 -0.0900 -0.0099 -0.0768
   61PNCE   C3A  544   4.128   7.770   7.779  0.1849  0.3059 -0.0422
   61PNCE   C1B  545   3.439   8.076   8.583 -0.0958  0.0778  0.1671
   61PNCE   C2B  546   3.401   7.887   8.259  0.3963  0.0858  0.0471
   61PNCE   C3B  547   3.390   7.556   7.973  0.2001 -0.2768 -0.0586
   61PNCE   D4B  548   3.435   7.520   7.547  0.0483  0.1291  0.2033
   61PNCE   C5B  549   3.875   7.509   7.429  0.1272  0.1055 -0.1435
   61PNCE   C6B  550   4.237   7.463   7.163 -0.1788 -0.1586  0.0582
   62PNCE   AM1  551  15.403   4.010   8.190  0.3475 -0.1131  0.4969
   62PNCE   AM2  552  15.398   4.205   8.453 -0.1760 -0.0348 -0.4456
   62PNCE   T1A  553  15.064   4.204   7.847 -0.3867 -0.1658  0.0347
   62PNCE   C2A  554  15.130   4.519   7.570 -0.1948 -0.0261  0.0754
   62PNCE   C3A  555  15.501   4.589   7.308 -0.0076 -0.1377  0.0448
   62PNCE   C1B  556  15.438   4.502   8.094  0.0820 -0.1294 -0.0619
   62PNCE   C2B  557  15.691   4.348   7.723  0.2245  0.4362  0.4111
   62PNCE   C3B  558  16.089   4.385   7.635 -0.2852  0.0340  0.0934
   62PNCE   D4B  559  16.346   4.156   7.311 -0.2312  0.1881  0.1423
   62PNCE   C5B  560  16.374   4.344   6.962 -0.2474 -0.2827  0.0901
   62PNCE   C6B  561  16.534   4.050   6.696  0.0652  0.2117  0.1415
   63PNCE   AM1  562   6.455  10.919   9.349  0.0847  0.1009  0.2456
   63PNCE   AM2  563   6.084  10.996   9.333  0.2234  0.1466  0.3432
   63PNCE   T1A  564   6.578  11.213   9.121  0.0230  0.1617  0.3672
   63PNCE   C2A  565   6.867  11.453   8.942 -0.0908 -0.0996 -0.1944
   63PNCE   C3A  566   7.027  11.591   8.618 -0.0568  0.0638 -0.0485
   63PNCE   C1B  567   6.214  11.013   8.791 -0.2809  0.2261 -0.2696
   63PNCE   C2B  568   6.019  10.902   8.508 -0.0005  0.2627  0.0112
   63PNCE   C3B  569   6.053  10.776   8.045 -0.1530  0.0711  0.2540
   63PNCE   D4B  570   5.947  10.907   7.671  0.3635 -0.2583  0.0564
   63PNCE   C5B  571   6.322  10.947   7.463 -0.0647 -0.0930 -0.1905
   63PNCE   C6B  572   6.534  10.712   7.084 -0.1632  0.0311  0.0738
   64PNCE   AM1  573   4.912  14.096   9.113  0.0029  0.1748  0.1741
   64PNCE   AM2  574   4.986  14.344   9.277 -0.1441  0.5025  0.0556
   64PNCE   T1A  575   5.160  13.762   8.875 -0.1236  0.0408  0.0059
   64PNCE   C2A  576   5.233  13.391   8.797 -0.1633  0.2158  0.1017
   64PNCE   C3A  577   5.483  13.176   8.497 -0.0034  0.1309  0.1967
   64PNCE   C1B  578   5.150  14.368   8.780 -0.1696 -0.0305  0.3238
   64PNCE   C2B  579   5.325  14.520   8.393 -0.5135 -0.2737 -0.1929
   64PNCE   C3B  580   5.217  14.353   7.968 -0.1054  0.0208 -0.1115
   64PNCE   D4B  581   5.161  14.356   7.533 -0.2164 -0.1403  0.0821
   64PNCE   C5B  582   5.008  14.213   7.184  0.2713  0.1535  0.1090
   64PNCE   C6B  583   5.030  14.122   6.792  0.1426  0.1127  0.1619
   65PNCE   AM1  584   7.829   8.191   9.012  0.0937 -0.1136  0.0330
   65PNCE   AM2  585   7.565   8.427   9.214  0.3558  0.1741  0.0608
   65PNCE   T1A  586   8.169   8.290   8.696 -0.1915  0.1684  0.2989
   65PNCE   C2A  587   8.357   8.290   8.436  0.0491  0.0555  0.1081
   65PNCE   C3A  588   8.199   8.399   8.021  0.1591  0.0231  0.2025
   65PNCE   C1B  589   7.254   8.296   8.964  0.2790  0.1492 -0.0368
   65PNCE   C2B  590   7.110   8.209   8.639 -0.0330 -0.1093 -0.1996
   65PNCE   C3B  591   7.177   8.295   8.182  0.2139  0.0309  0.0157
   65PNCE   D4B  592   7.137   8.295   7.769 -0.0280 -0.0377 -0.3563
   65PNCE   C5B  593   7.255   8.656   7.590 -0.1785 -0.0427  0.0853
   65PNCE   C6B  594   7.172   8.972   7.514  0.1349 -0.1030 -0.2863
   66CHOL   ROH  595   8.527   3.906   8.208 -0.0121 -0.2121  0.0091
   66CHOL    R1  596   8.414   3.739   8.010 -0.0386 -0.0865 -0.0824
   66CHOL    R2  597   8.188   3.809   7.869  0.0300  0.0693 -0.1131
   66CHOL    R3  598   8.347   3.760   7.653  0.0600  0.0769 -0.0933
   66CHOL    R4  599   8.097   3.867   7.540  0.0591  0.0522 -0.1246
   66CHOL    R5  600   8.195   3.679   7.485  0.0838  0.0574 -0.1079
   66CHOL    C1  601   8.193   3.855   7.147  0.1041  0.0495 -0.1126
   66CHOL    C2  602   7.931   3.707   6.993  0.1636  0.1756  0.0187
   67PNCE   AM1  603   2.913   3.633   8.123 -0.0906 -0.0041  0.2737
   67PNCE   AM2  604   2.643   3.597   8.297 -0.0267 -0.1236 -0.2964
   67PNCE   T1A  605   2.876   3.746   7.627  0.1979 -0.1189  0.0665
   67PNCE   C2A  606   3.121   3.873   7.435  0.1023  0.1064  0.1549
   67PNCE   C3A  607   3.406   4.101   7.146 -0.1432  0.2759 -0.0927
   67PNCE   C1B  608   2.387   3.665   7.950 -0.2560 -0.0895 -0.3745
   67PNCE   C2B  609   2.461   3.994   7.595 -0.0474  0.0241 -0.2261
   67PNCE   C3B  610   2.719   4.149   7.204  0.2491 -0.2855  0.0156
   67PNCE   D4B  611   2.943   4.328   6.929 -0.0069  0.0193 -0.1491
   67PNCE   C5B  612   2.757   4.622   6.930  0.3477 -0.1610  0.0480
   67PNCE   C6B  613   2.544   5.011   6.851  0.3447 -0.3110  0.0538
   68CHOL   ROH  614   5.563   5.180   4.576 -0.2800 -0.0252  0.0991
   68CHOL    R1  615   5.753   5.326   4.726 -0.0708 -0.2410  0.0499
   68CHOL    R2  616   5.683   5.539   4.889  0.2343 -0.0453 -0.0724
   68CHOL    R3  617   5.815   5.396   5.078 -0.0130 -0.1535  0.0243
   68CHOL    R4  618   5.824   5.672   5.175  0.2453 -0.1266 -0.0394
   68CHOL    R5  619   5.994   5.539   5.147  0.1175 -0.3283  0.0709
   68CHOL    C1  620   6.031   5.615   5.519  0.0195 -0.2755  0.0706
   68CHOL    C2  621   6.292   5.775   5.685 -0.0058 -0.1475  0.2916
   69CHOL   ROH  622   6.469   3.882   8.544 -0.0375 -0.0130  0.1458
   69CHOL    R1  623   6.513   3.764   8.290  0.1863 -0.0068  0.1796
   69CHOL    R2  624   6.375   3.841   8.064  0.0546 -0.3087  0.1482
   69CHOL    R3  625   6.625   3.875   7.962  0.0087  0.1090  0.1576
   69CHOL    R4  626   6.481   3.725   7.756  0.3441 -0.3930  0.2763
   69CHOL    R5  627   6.671   3.670   7.848  0.4509  0.0844  0.3612
   69CHOL    C1  628   6.777   3.689   7.482  0.4696 -0.0498  0.3596
   69CHOL    C2  629   6.536   3.782   7.159  0.0926 -0.3469 -0.0156
   70PNCE   AM1  630   9.130  14.455   8.648 -0.1280 -0.0209  0.2494
   70PNCE   AM2  631   9.237  14.350   8.278 -0.0204  0.0315 -0.0574
   70PNCE   T1A  632   8.726  14.407   8.485 -0.1444 -0.2868 -0.1620
   70PNCE   C2A  633   8.313  14.242   8.361  0.0254 -0.1478  0.0042
   70PNCE   C3A  634   8.042  14.000   8.128  0.3181 -0.3307  0.0806
   70PNCE   C1B  635   8.949  14.165   8.062 -0.1210 -0.1083 -0.0257
   70PNCE   C2B  636   8.858  13.917   7.748 -0.0655 -0.0987 -0.0769
   70PNCE   C3B  637   8.844  13.967   7.319  0.1073 -0.3204 -0.0351
   70PNCE   D4B  638   9.060  14.115   6.956 -0.1171  0.0108  0.2532
   70PNCE   C5B  639   9.257  13.823   6.879  0.2922  0.2030 -0.1473
   70PNCE   C6B  640   9.407  13.543   6.434 -0.0241 -0.0274  0.1685
   71PNCE   AM1  641  11.321  10.108   5.110 -0.0378 -0.0252 -0.0919
   71PNCE   AM2  642  11.543   9.979   4.871 -0.2284 -0.0003  0.2087
   71PNCE   T1A  643  11.495   9.965   5.532 -0.3127 -0.2864  0.0153
   71PNCE   C2A  644  11.659   9.955   5.934 -0.2367 -0.1941 -0.0648
   71PNCE   C3A  645  11.392   9.835   6.181 -0.0275 -0.1299  0.2343
   71PNCE   C1B  646  11.903  10.071   5.271 -0.0296  0.0647 -0.0611
   71PNCE   C2B  647  12.122  10.070   5.651  0.0371 -0.2462 -0.2748
   71PNCE   C3B  648  12.407   9.819   5.899 -0.2501  0.4011 -0.0298
   71PNCE   D4B  649  12.529   9.618   6.292 -0.0433 -0.4331 -0.0008
   71PNCE   C5B  650  12.734   9.273   6.200  0.2535 -0.0833 -0.2903
   71PNCE   C6B  651  12.943   9.140   5.808 -0.1146 -0.0815  0.3347
   72PNCE   AM1  652   6.723  10.743   8.873  0.0076  0.0439 -0.0816
   72PNCE   AM2  653   6.512  10.619   8.921  0.4005 -0.0859 -0.0010
   72PNCE   T1A  654   6.747  11.038   8.599  0.1357 -0.1193  0.0760
   72PNCE   C2A  655   6.464  11.080   8.191 -0.2349 -0.1615  0.1636
   72PNCE   C3A  656   6.086  11.334   8.022  0.1216  0.1530  0.0084
   72PNCE   C1B  657   6.431  10.622   8.407 -0.0691  0.1436 -0.0056
   72PNCE   C2B  658   6.529  10.690   7.947 -0.1164  0.1810  0.0037
   72PNCE   C3B  659   6.507  10.419   7.583  0.2825  0.2155 -0.2165
   72PNCE   D4B  660   6.419  10.223   7.136  0.1598 -0.1169  0.1818
   72PNCE   C5B  661   6.109   9.819   7.109 -0.2590 -0.0974 -0.0668
   72PNCE   C6B  662   5.887   9.630   6.805  0.1486 -0.1125  0.0270
   73CHOL   ROH  663   8.174   6.251   5.195 -0.0964  0.0593  0.0127
   73CHOL    R1  664   8.131   6.108   5.435  0.0528 -0.0089 -0.0024
   73CHOL    R2  665   8.250   5.863   5.486  0.2916  0.1050 -0.0368
   73CHOL    R3  666   8.336   5.988   5.711  0.1797  0.1578 -0.0201
   73CHOL    R4  667   8.277   5.715   5.796  0.1990  0.1482 -0.0059
   73CHOL    R5  668   8.200   5.898   5.886  0.1242  0.1513 -0.0599
   73CHOL    C1  669   8.373   5.745   6.189  0.0400  0.2229  0.0278
   73CHOL    C2  670   8.247   5.569   6.675 -0.1284 -0.0744  0.1051
   74CHOL   ROH  671   7.349   5.190   4.828 -0.2259  0.0170  0.1540
   74CHOL    R1  672   7.461   5.076   5.061 -0.3273 -0.0042  0.1925
   74CHOL    R2  673   7.727   5.107   5.130 -0.2639 -0.3263  0.1114
   74CHOL    R3  674   7.622   5.197   5.364 -0.0906 -0.0485  0.0861
   74CHOL    R4  675   7.864   5.052   5.442 -0.2909 -0.3748  0.1150
   74CHOL    R5  676   7.663   5.021   5.520 -0.3291 -0.0346  0.1682
   74CHOL    C1  677   7.847   5.106   5.844 -0.1438 -0.1423  0.0933
   74CHOL    C2  678   7.685   4.925   6.094  0.1359  0.0801 -0.1808
   75PNCE   AM1  679   8.854   0.364   8.252 -0.0391  0.0622  0.0959
   75PNCE   AM2  680   9.183   0.120   8.189  0.2237  0.0976 -0.0451
   75PNCE   T1A  681   8.549   0.557   7.828  0.0961 -0.1473  0.1896
   75PNCE   C2A  682   8.429   0.915   7.571  0.0559  0.3941  0.1886
   75PNCE   C3A  683   8.271   1.350   7.303 -0.1411  0.2714  0.0133
   75PNCE   C1B  684   9.052   0.346   7.762 -0.2752 -0.0658 -0.3072
   75PNCE   C2B  685   8.888   0.417   7.348  0.0296 -0.0513  0.0269
   75PNCE   C3B  686   8.864   0.689   7.121  0.1094 -0.4570  0.0435
   75PNCE   D4B  687   9.084   0.771   6.697 -0.0076 -0.2617 -0.1291
   75PNCE   C5B  688   9.134   1.003   6.276  0.1520 -0.0573 -0.1083
   75PNCE   C6B  689   9.454   1.329   6.213  0.1482  0.0819  0.3255
   76XCA    COO  690   6.110   7.684   8.920 -0.1390 -0.0458  0.2862
   76XCA     C1  691   6.064   7.764   8.576  0.3327  0.0292  0.0431
   76XCA     C2  692   6.235   7.587   8.176  0.2621  0.0798 -0.2093
   76XCA     C3  693   6.560   7.659   7.942 -0.0699  0.2412  0.0143
   76XCA     C4  694   6.843   7.485   7.597  0.1040  0.1544  0.0071
   76XCA     C5  695   7.004   7.273   7.237  0.1613  0.2255 -0.1606
   76XCA     C6  696   6.990   7.358   6.720 -0.0870 -0.1550 -0.4087
   77CHOL   ROH  697   5.939  15.350   4.645 -0.0666 -0.0421  0.0120
   77CHOL    R1  698   5.964  15.275   4.917 -0.0092  0.0147  0.0225
   77CHOL    R2  699   6.055  15.449   5.111 -0.1054  0.1003 -0.0084
   77CHOL    R3  700   5.823  15.382   5.235 -0.0602 -0.0215  0.0122
   77CHOL    R4  701   6.019  15.408   5.452 -0.0453  0.0404 -0.0088
   77CHOL    R5  702   5.891  15.236   5.413  0.0282 -0.0134 -0.0144
   77CHOL    C1  703   5.779  15.322   5.767  0.0322 -0.1087  0.0103
   77CHOL    C2  704   5.809  15.413   6.106 -0.0983  0.1924  0.2464
   78PNCE   AM1  705   4.200   2.356   7.482 -0.2296 -0.4088 -0.1036
   78PNCE   AM2  706   4.469   2.363   7.574 -0.0992  0.0453 -0.1423
   78PNCE   T1A  707   3.977   2.190   7.164  0.2442 -0.0514 -0.0697
   78PNCE   C2A  708   3.836   1.887   6.818  0.0214  0.0618 -0.3820
   78PNCE   C3A  709   4.126   1.638   6.601 -0.0761  0.0360  0.1785
   78PNCE   C1B  710   4.604   2.479   7.152  0.1553  0.1704  0.0184
   78PNCE   C2B  711   4.647   2.368   6.769  0.1381  0.5326 -0.1225
   78PNCE   C3B  712   4.876   2.296   6.338  0.0710  0.0838 -0.1850
   78PNCE   D4B  713   5.320   2.397   6.147 -0.0150 -0.4631  0.0931
   78PNCE   C5B  714   5.492   2.110   5.870 -0.0450  0.1547 -0.1049
   78PNCE   C6B  715   5.839   1.858   5.779  0.0109  0.0534 -0.0607
   79XCA    COO  716  15.413   5.326   4.831 -0.0950 -0.0317  0.1492
   79XCA     C1  717  15.091   5.462   5.229 -0.1284 -0.0457 -0.0995
   79XCA     C2  718  14.864   5.430   5.581 -0.0962 -0.1069  0.2484
   79XCA     C3  719  14.524   5.316   5.769  0.2228 -0.3964 -0.0928
   79XCA     C4  720  14.452   5.044   6.100 -0.1275 -0.0889  0.4099
   79XCA     C5  721  14.473   4.858   6.389  0.2620 -0.1462 -0.1332
   79XCA     C6  722  14.389   4.493   6.575 -0.0343  0.0193  0.0106
   80PNCE   AM1  723   8.263  11.334   8.094 -0.0998 -0.0225 -0.2686
   80PNCE   AM2  724   8.291  11.503   8.385 -0.0902  0.2799  0.2745
   80PNCE   T1A  725   7.890  11.375   7.890  0.0113  0.0834 -0.1235
   80PNCE   C2A  726   7.666  11.360   7.535 -0.2848 -0.0149  0.3394
   80PNCE   C3A  727   7.520  11.569   7.330 -0.3933  0.0673  0.1880
   80PNCE   C1B  728   8.071  11.896   8.249 -0.1321  0.2228  0.3111
   80PNCE   C2B  729   7.931  12.031   7.919 -0.0029 -0.1542  0.4415
   80PNCE   C3B  730   7.732  12.028   7.428  0.0708 -0.1250 -0.0037
   80PNCE   D4B  731   7.986  12.069   7.026  0.1892  0.0344  0.3317
   80PNCE   C5B  732   8.051  12.355   6.693  0.0567  0.0338  0.1757
   80PNCE   C6B  733   8.071  12.812   6.516  0.1217 -0.2141  0.0017
   81XCA    COO  734  15.839  12.578   8.793  0.0895  0.0738  0.0693
   81XCA     C1  735  15.669  12.311   8.482 -0.0171  0.0580  0.0167
   81XCA     C2  736  15.504  12.108   8.109 -0.0298  0.1967 -0.0031
   81XCA     C3  737  15.629  12.393   7.777 -0.0206 -0.0248 -0.1406
   81XCA     C4  738  15.688  12.694   7.408  0.1259  0.0332 -0.2202
   81XCA     C5  739  15.555  13.009   7.007  0.2857 -0.1537  0.1350
   81XCA     C6  740  15.757  13.008   6.687  0.1347 -0.1935  0.0022
   82CHOL   ROH  741  10.776  10.154   5.202  0.2835 -0.0238 -0.0673
   82CHOL    R1  742  10.852  10.052   5.456  0.3340 -0.0002 -0.0723
   82CHOL    R2  743  11.100  10.101   5.567  0.2424  0.2856  0.0195
   82CHOL    R3  744  10.952  10.191   5.777  0.0575  0.0406 -0.0013
   82CHOL    R4  745  11.229  10.193   5.874 -0.0188  0.0034  0.2206
   82CHOL    R5  746  11.059  10.096   5.969 -0.0749 -0.1319 -0.0112
   82CHOL    C1  747  11.166  10.331   6.250 -0.3444 -0.3909  0.3182
   82CHOL    C2  748  11.070  10.407   6.550  0.3186  0.3825  0.2183
   83CHOL   ROH  749   8.012  11.103   8.421  0.0935  0.0500 -0.0123
   83CHOL    R1  750   7.765  10.989   8.343  0.0690  0.1039 -0.0108
   83CHOL    R2  751   7.687  10.969   8.080  0.0923  0.0643 -0.0112
   83CHOL    R3  752   7.655  10.706   8.142  0.0050  0.0871  0.0456
   83CHOL    R4  753   7.510  10.742   7.889  0.1158  0.0591 -0.0280
   83CHOL    R5  754   7.430  10.656   8.074  0.0182  0.1250 -0.0349
   83CHOL    C1  755   7.376  10.363   7.837  0.0475  0.0776  0.0153
   83CHOL    C2  756   7.255  10.371   7.458  0.1106 -0.3587  0.0296
   84PNCE   AM1  757   0.942   8.376   8.814 -0.2256 -0.0439  0.2316
   84PNCE   AM2  758   0.976   8.737   8.839 -0.1373 -0.1696  0.1173
   84PNCE   T1A  759   1.056   8.130   8.526 -0.1579  0.1225  0.1690
   84PNCE   C2A  760   1.254   8.251   8.175  0.0549  0.2977  0.0652
   84PNCE   C3A  761   1.170   7.979   7.893  0.0586 -0.1658  0.0256
   84PNCE   C1B  762   0.817   8.670   8.339  0.1169 -0.0074 -0.1172
   84PNCE   C2B  763   0.674   8.730   7.943  0.1848  0.2504  0.0594
   84PNCE   C3B  764   0.577   8.677   7.506 -0.0121 -0.1050 -0.3493
   84PNCE   D4B  765   0.836   8.708   7.139  0.0037 -0.1519 -0.2065
   84PNCE   C5B  766   1.103   8.783   6.727  0.3293  0.1599  0.0761
   84PNCE   C6B  767   1.099   8.875   6.401  0.0655  0.1024  0.0277
   85PNCE   AM1  768  14.210  15.077   7.835 -0.2223 -0.0794 -0.2543
   85PNCE   AM2  769  14.486  14.936   8.052 -0.1501 -0.1268 -0.1259
   85PNCE   T1A  770  14.098  15.447   7.729  0.2328  0.1941  0.2388
   85PNCE   C2A  771  14.206  15.750   7.272  0.0054 -0.2022  0.2837
   85PNCE   C3A  772  14.380  16.081   6.941 -0.2573 -0.5758  0.2216
   85PNCE   C1B  773  14.734  14.783   7.785  0.1084  0.0117  0.0874
   85PNCE   C2B  774  15.033  14.777   7.422  0.0765 -0.1028 -0.0004
   85PNCE   C3B  775  15.361  14.497   7.211 -0.2430 -0.0905  0.0259
   85PNCE   D4B  776  15.437  14.209   6.950  0.0950 -0.1450  0.3127
   85PNCE   C5B  777  15.807  13.928   6.947  0.2608  0.1258  0.0724
   85PNCE   C6B  778  16.224  13.914   6.903 -0.1575  0.0018 -0.2238
   86CHOL   ROH  779   1.704   7.176   7.483 -0.0818  0.0551 -0.0971
   86CHOL    R1  780   1.510   7.091   7.296 -0.0423  0.0539 -0.1368
   86CHOL    R2  781   1.499   6.832   7.200 -0.1228  0.0134 -0.0112
   86CHOL    R3  782   1.241   6.845   7.287 -0.1558  0.1755 -0.1291
   86CHOL    R4  783   1.249   6.609   7.114 -0.1836  0.0788 -0.0070
   86CHOL    R5  784   1.111   6.777   7.097 -0.1029  0.1363 -0.1544
   86CHOL    C1  785   0.862   6.492   7.144 -0.2500  0.2691 -0.1153
   86CHOL    C2  786   0.911   6.188   7.056 -0.0403  0.3886 -0.2887
   87PNCE   AM1  787   5.480   0.616   7.992  0.0083 -0.3572 -0.2837
   87PNCE   AM2  788   5.186   0.605   8.247 -0.2443 -0.0886 -0.0932
   87PNCE   T1A  789   5.494   0.496   7.575  0.1743  0.1673  0.2816
   87PNCE   C2A  790   5.243   0.752   7.196  0.0841 -0.0175  0.2237
   87PNCE   C3A  791   5.059   0.939   6.943  0.3060  0.0015 -0.3061
   87PNCE   C1B  792   4.881   0.399   7.882 -0.1554 -0.4656  0.0320
   87PNCE   C2B  793   5.052   0.305   7.431 -0.2011 -0.0716  0.4566
   87PNCE   C3B  794   5.113   0.121   7.046 -0.2177  0.0772 -0.1197
   87PNCE   D4B  795   5.240   0.180   6.659  0.3470 -0.1552  0.3304
   87PNCE   C5B  796   5.404   0.580   6.537 -0.1581  0.1964 -0.1660
   87PNCE   C6B  797   5.356   0.920   6.418 -0.1120  0.1252  0.0689
   88XCA    COO  798   9.903   3.795   5.247 -0.1458 -0.1632  0.0012
   88XCA     C1  799   9.715   3.835   5.646 -0.0641  0.0088 -0.1652
   88XCA     C2  800   9.702   3.990   6.000 -0.0606 -0.2465 -0.1097
   88XCA     C3  801   9.640   4.121   6.364 -0.0520  0.1738 -0.5042
   88XCA     C4  802   9.569   4.355   6.602  0.0676 -0.0808  0.2324
   88XCA     C5  803   9.666   4.724   6.914  0.3783 -0.0304 -0.0139
   88XCA     C6  804   9.933   5.062   6.691 -0.0174 -0.1836  0.1996
   89CHOL   ROH  805   5.576   9.586   9.033  0.2641 -0.0933  0.2360
   89CHOL    R1  806   5.748   9.429   8.872  0.2419 -0.0017  0.1229
   89CHOL    R2  807   5.655   9.273   8.664  0.2036  0.0508  0.1029
   89CHOL    R3  808   5.838   9.413   8.519  0.1250  0.1372  0.0852
   89CHOL    R4  809   5.753   9.196   8.341  0.1762  0.1206  0.0772
   89CHOL    R5  810   5.958   9.246   8.397  0.1685  0.1942  0.0469
   89CHOL    C1  811   5.982   9.283   8.018  0.0864  0.2423  0.0455
   89CHOL    C2  812   6.244   9.384   7.795  0.4196 -0.1054 -0.3374
   90CHOL   ROH  813   4.897  14.532   4.545 -0.1960  0.0815 -0.1162
   90CHOL    R1  814   4.851  14.566   4.822 -0.0032  0.0271 -0.0772
   90CHOL    R2  815   4.997  14.433   5.015  0.2261  0.0977 -0.2045
   90CHOL    R3  816   5.042  14.684   5.109  0.1470  0.1157 -0.2107
   90CHOL    R4  817   5.010  14.519   5.350  0.2249  0.1019 -0.2044
   90CHOL    R5  818   4.901  14.701   5.302  0.1550  0.0659 -0.1971
   90CHOL    C1  819   5.060  14.805   5.632  0.1499  0.1213 -0.2103
   90CHOL    C2  820   4.865  14.781   5.946  0.1621  0.2579 -0.2602
   91CHOL   ROH  821   7.144   6.715   5.392 -0.1822  0.1285 -0.0627
   91CHOL    R1  822   7.357   6.678   5.576 -0.1224  0.1230 -0.1327
   91CHOL    R2  823   7.359   6.796   5.826 -0.0234  0.1464 -0.1437
   91CHOL    R3  824   7.396   6.540   5.910 -0.0221  0.1497 -0.1336
   91CHOL    R4  825   7.436   6.704   6.150 -0.2511  0.1389 -0.0894
   91CHOL    R5  826   7.574   6.555   6.070 -0.1500  0.1820  0.0067
   91CHOL    C1  827   7.516   6.411   6.418 -0.3825  0.1377 -0.0482
   91CHOL    C2  828   7.800   6.112   6.686 -0.1162 -0.1766  0.1453
   92PNCE   AM1  829  13.606   0.376   8.092  0.0586 -0.1584  0.0662
   92PNCE   AM2  830  13.333   0.146   8.022 -0.2200 -0.2706  0.2503
   92PNCE   T1A  831  13.711   0.442   7.624  0.0270  0.1811  0.4837
   92PNCE   C2A  832  14.047   0.345   7.287 -0.0216 -0.2464  0.3648
   92PNCE   C3A  833  14.187   0.631   6.927  0.2121 -0.0043 -0.1165
   92PNCE   C1B  834  13.327   0.169   7.556  0.0448 -0.1475 -0.2629
   92PNCE   C2B  835  13.677   0.044   7.281 -0.1388  0.0944  0.0321
   92PNCE   C3B  836  13.902  -0.242   6.890 -0.1140  0.0320  0.0500
   92PNCE   D4B  837  14.040  -0.652   6.619  0.1842  0.0337 -0.0981
   92PNCE   C5B  838  13.804  -0.772   6.249  0.1153 -0.0943  0.0472
   92PNCE   C6B  839  13.592  -1.000   5.988  0.1618 -0.0934  0.0962
   93CHOL   ROH  840   6.927   1.996   6.765 -0.0471 -0.0565  0.1900
   93CHOL    R1  841   7.103   1.828   6.909 -0.0333 -0.0543  0.1766
   93CHOL    R2  842   7.326   1.713   6.794 -0.0351 -0.0468  0.1605
   93CHOL    R3  843   7.455   1.832   7.002 -0.0282 -0.0446  0.1545
   93CHOL    R4  844   7.636   1.618   6.915 -0.0171 -0.0217  0.1330
   93CHOL    R5  845   7.562   1.651   7.117 -0.0021 -0.0372  0.1384
   93CHOL    C1  846   7.938   1.675   7.179 -0.0001 -0.0051  0.1112
   93CHOL    C2  847   8.352   1.801   7.168  0.0081  0.1433  0.0727
   94XCA    COO  848   9.578   0.635   4.626 -0.0458 -0.0164  0.2790
   94XCA     C1  849   9.729   0.465   5.063 -0.4295  0.0289  0.0597
   94XCA     C2  850   9.797   0.090   5.319 -0.1790 -0.3378 -0.1364
   94XCA     C3  851   9.951  -0.251   5.474 -0.2735 -0.0002 -0.1711
   94XCA     C4  852   9.732  -0.689   5.428 -0.0530  0.3333 -0.0142
   94XCA     C5  853   9.304  -0.887   5.358  0.0739  0.6585  0.1416
   94XCA     C6  854   8.891  -0.652   5.276  0.0733  0.0453 -0.3036
   95CHOL   ROH  855   9.619  12.489   7.668  0.0545 -0.0581  0.0556
   95CHOL    R1  856   9.543  12.515   7.397  0.1783 -0.0959  0.0175
   95CHOL    R2  857   9.320  12.657   7.318  0.1031 -0.2749 -0.0861
   95CHOL    R3  858   9.498  12.787   7.159  0.0794 -0.1099  0.0184
   95CHOL    R4  859   9.238  12.829   7.029  0.0694 -0.0699  0.0425
   95CHOL    R5  860   9.419  12.748   6.936  0.0933  0.0418 -0.0163
   95CHOL    C1  861   9.358  13.051   6.712  0.0276  0.2044  0.2154
   95CHOL    C2  862   9.058  13.307   6.674  0.1000 -0.0647 -0.0839
   96XCA    COO  863   6.679   7.009   8.969 -0.0935  0.1487  0.1790
   96XCA     C1  864   6.421   6.762   8.665 -0.1783  0.1988 -0.1189
   96XCA     C2  865   6.167   6.535   8.315  0.0298  0.0024  0.1475
   96XCA     C3  866   6.216   6.178   8.049  0.1459 -0.0745  0.1449
   96XCA     C4  867   6.117   6.023   7.650  0.0754  0.0675  0.1165
   96XCA     C5  868   5.898   5.782   7.342  0.0743  0.0928 -0.0879
   96XCA     C6  869   5.708   5.415   7.586  0.0403  0.0376  0.0934
   97PNCE   AM1  870  12.432   9.544   8.885 -0.1496  0.0591 -0.0753
   97PNCE   AM2  871  12.207   9.515   8.542  0.0318 -0.1588  0.1329
   97PNCE   T1A  872  12.266   9.120   8.744  0.3327  0.1382 -0.0685
   97PNCE   C2A  873  11.958   8.907   8.673  0.2297 -0.1779  0.0708
   97PNCE   C3A  874  11.766   8.651   8.308 -0.1409  0.3745 -0.2314
   97PNCE   C1B  875  11.834   9.462   8.235 -0.0279 -0.0624  0.3148
   97PNCE   C2B  876  11.657   9.467   7.903 -0.0721  0.3161 -0.3179
   97PNCE   C3B  877  11.328   9.369   7.700  0.0044 -0.2111 -0.2155
   97PNCE   D4B  878  11.266   9.154   7.323 -0.2963  0.1055  0.0109
   97PNCE   C5B  879  11.017   8.837   7.362 -0.0371  0.1824 -0.0267
   97PNCE   C6B  880  10.783   8.820   7.672 -0.2024  0.1361  0.1542
   98PNCE   AM1  881   8.791   1.237   8.479 -0.0822  0.0816 -0.1996
   98PNCE   AM2  882   8.709   1.334   8.798  0.1120 -0.2440  0.1618
   98PNCE   T1A  883   8.732   1.467   8.127 -0.2223  0.2628 -0.3255
   98PNCE   C2A  884   8.648   1.914   8.004  0.1656 -0.0637  0.2920
   98PNCE   C3A  885   8.718   2.384   7.885 -0.1263  0.3581 -0.2721
   98PNCE   C1B  886   8.416   1.643   8.972  0.0200 -0.0370  0.3300
   98PNCE   C2B  887   8.128   1.867   8.747 -0.2241  0.0532 -0.1422
   98PNCE   C3B  888   7.768   1.905   8.487  0.0668 -0.2024 -0.3819
   98PNCE   D4B  889   7.660   2.300   8.186  0.0390 -0.0883 -0.0610
   98PNCE   C5B  890   7.976   2.445   7.903 -0.0119 -0.2537  0.0113
   98PNCE   C6B  891   8.335   2.729   7.798  0.4865 -0.0092 -0.2079
   99PNCE   AM1  892   1.838   9.769   8.817  0.0694  0.4833  0.0245
   99PNCE   AM2  893   1.966   9.888   9.116 -0.1718  0.1304 -0.0589
   99PNCE   T1A  894   1.543  10.100   8.535  0.4149 -0.3771  0.2142
   99PNCE   C2A  895   1.156  10.134   8.251  0.0850  0.1731  0.0069
   99PNCE   C3A  896   1.032  10.067   7.878  0.1192  0.1236  0.0667
   99PNCE   C1B  897   1.978  10.300   8.827  0.0360  0.1576 -0.3428
   99PNCE   C2B  898   2.312  10.522   8.558  0.2955  0.1345 -0.0239
   99PNCE   C3B  899   2.733  10.624   8.394  0.5267 -0.1422 -0.1288
   99PNCE   D4B  900   2.757  10.974   7.980 -0.1518 -0.0490  0.0714
   99PNCE   C5B  901   3.147  10.815   7.731 -0.0503  0.3513  0.0440
   99PNCE   C6B  902   3.402  10.775   7.510 -0.4418  0.0998  0.1037
  100CHOL   ROH  903   0.975   3.788   4.814 -0.0233 -0.0531 -0.0987
  100CHOL    R1  904   0.897   3.630   5.035 -0.0039 -0.0039 -0.0556
  100CHOL    R2  905   1.049   3.419   5.128 -0.0288 -0.0318 -0.0656
  100CHOL    R3  906   1.031   3.552   5.365  0.0667  0.0110 -0.0823
  100CHOL    R4  907   1.117   3.281   5.438  0.1431  0.0506 -0.0656
  100CHOL    R5  908   0.945   3.389   5.518  0.1699  0.0355 -0.0044
  100CHOL    C1  909   1.139   3.326   5.840  0.3328  0.1388 -0.0813
  100CHOL    C2  910   1.124   3.433   6.240  0.0731  0.1300  0.0228
  101XCA    COO  911   3.744  10.410   8.892 -0.0953 -0.1501  0.1614
  101XCA     C1  912   3.925  10.477   8.475  0.1765  0.1275 -0.1641
  101XCA     C2  913   3.777  10.398   8.109 -0.1329  0.3513  0.3085
  101XCA     C3  914   3.789  10.734   7.844 -0.1154 -0.3226  0.1617
  101XCA     C4  915   3.985  10.981   7.626 -0.2408 -0.1987 -0.2180
  101XCA     C5  916   4.218  11.278   7.781 -0.2992  0.2335 -0.2624
  101XCA     C6  917   4.506  11.514   8.082 -0.0609  0.1314 -0.1027
  102PNCE   AM1  918  12.247  11.458   8.267 -0.0318  0.3875  0.1750
  102PNCE   AM2  919  12.110  11.134   8.445 -0.1485  0.0390 -0.2892
  102PNCE   T1A  920  12.245  11.222   7.935  0.0563  0.1308  0.2629
  102PNCE   C2A  921  12.509  10.798   7.816  0.1551  0.1342 -0.0165
  102PNCE   C3A  922  12.447  10.542   7.435  0.1363 -0.1039 -0.4057
  102PNCE   C1B  923  11.799  11.202   8.088 -0.0442 -0.1016  0.1890
  102PNCE   C2B  924  11.383  11.333   8.032  0.0449  0.3729 -0.1214
  102PNCE   C3B  925  10.963  11.240   7.998 -0.2151 -0.1499  0.0388
  102PNCE   D4B  926  10.621  11.149   8.210  0.0304  0.1419  0.0949
  102PNCE   C5B  927  10.671  10.975   8.594 -0.0831  0.1120 -0.0395
  102PNCE   C6B  928  10.964  10.892   8.946  0.2717  0.0123 -0.0942
  103PNCE   AM1  929   6.452   3.449   8.813  0.3222  0.0948 -0.2112
  103PNCE   AM2  930   6.433   3.096   8.668  0.0742 -0.0417 -0.0439
  103PNCE   T1A  931   6.795   3.371   8.519  0.2004 -0.1137 -0.2883
  103PNCE   C2A  932   6.851   3.252   8.107  0.0157  0.0483 -0.0104
  103PNCE   C3A  933   6.980   3.086   7.711 -0.1041  0.0196  0.1597
  103PNCE   C1B  934   6.332   3.269   8.202  0.0165  0.1407 -0.1882
  103PNCE   C2B  935   6.460   3.159   7.768 -0.0743  0.0775  0.1325
  103PNCE   C3B  936   6.542   3.304   7.334  0.1970 -0.1031  0.0445
  103PNCE   D4B  937   6.121   3.530   7.004  0.0821  0.2258 -0.1701
  103PNCE   C5B  938   6.067   3.988   6.912 -0.2433  0.0365  0.1410
  103PNCE   C6B  939   6.157   4.286   6.572 -0.1214 -0.1838  0.3331
  104PNCE   AM1  940  14.072  13.266   7.815  0.0912  0.0962  0.1269
  104PNCE   AM2  941  14.330  13.318   7.975  0.0120  0.3013 -0.2120
  104PNCE   T1A  942  14.081  13.005   7.455 -0.0836 -0.3333  0.2130
  104PNCE   C2A  943  14.046  13.007   7.057  0.0863 -0.2551  0.0563
  104PNCE   C3A  944  13.684  13.103   6.730  0.3019 -0.0750  0.3684
  104PNCE   C1B  945  14.373  12.845   7.867  0.1153  0.0729 -0.0491
  104PNCE   C2B  946  14.403  12.467   7.487 -0.0498  0.1407  0.0110
  104PNCE   C3B  947  14.323  12.639   7.130 -0.4576  0.0063  0.0111
  104PNCE   D4B  948  14.093  12.669   6.674 -0.2544  0.0743 -0.0512
  104PNCE   C5B  949  14.096  12.641   6.247  0.0167 -0.0481  0.1223
  104PNCE   C6B  950  14.362  12.874   6.008  0.1294 -0.0244 -0.0059
  105CHOL   ROH  951   6.605   6.821   8.209 -0.2061  0.1335 -0.0098
  105CHOL    R1  952   6.478   6.699   7.988  0.0674  0.2091 -0.2148
  105CHOL    R2  953   6.609   6.646   7.750  0.4823 -0.0718  0.0653
  105CHOL    R3  954   6.520   6.393   7.795  0.0492  0.0630  0.0084
  105CHOL    R4  955   6.600   6.395   7.513  0.3772 -0.0953  0.0935
  105CHOL    R5  956   6.406   6.333   7.592  0.1865  0.2046 -0.1140
  105CHOL    C1  957   6.510   6.011   7.416 -0.0905  0.0177  0.0566
  105CHOL    C2  958   6.424   5.730   7.184  0.1327  0.3180 -0.0339
  106PNCE   AM1  959  14.710  10.621   7.716 -0.2201 -0.2623 -0.0203
  106PNCE   AM2  960  15.080  10.470   7.653  0.0174 -0.0466 -0.0442
  106PNCE   T1A  961  14.848  10.813   7.236 -0.2323  0.2775 -0.2390
  106PNCE   C2A  962  15.206  11.050   6.932  0.1419 -0.2913  0.1384
  106PNCE   C3A  963  15.640  11.098   7.089 -0.1986  0.0608  0.0889
  106PNCE   C1B  964  15.432  10.301   7.576  0.1042 -0.1104  0.0503
  106PNCE   C2B  965  15.639  10.006   7.553  0.0434  0.0775 -0.1176
  106PNCE   C3B  966  15.903   9.754   7.184 -0.2939 -0.2204  0.0993
  106PNCE   D4B  967  15.886  10.048   6.824 -0.0126  0.0077 -0.0897
  106PNCE   C5B  968  15.494  10.250   6.840  0.2279  0.0763 -0.3290
  106PNCE   C6B  969  15.198  10.569   6.733 -0.0316 -0.0541  0.1319
  107PNCE   AM1  970   4.187   7.017   9.244 -0.1550 -0.1456  0.1287
  107PNCE   AM2  971   4.139   7.393   9.290  0.3166  0.0645 -0.2875
  107PNCE   T1A  972   4.039   6.811   8.839  0.0668 -0.0229 -0.1221
  107PNCE   C2A  973   3.970   6.684   8.454  0.3417 -0.1440 -0.1540
  107PNCE   C3A  974   3.757   6.295   8.107  0.1379 -0.0150 -0.1085
  107PNCE   C1B  975   4.161   7.343   8.793 -0.0439 -0.3593 -0.0562
  107PNCE   C2B  976   4.063   7.169   8.400 -0.0740 -0.1112 -0.0122
  107PNCE   C3B  977   4.288   7.288   8.104  0.0439 -0.1897  0.0864
  107PNCE   D4B  978   4.287   7.302   7.720  0.2939  0.0436  0.1775
  107PNCE   C5B  979   4.134   6.803   7.614 -0.1451  0.4114 -0.0842
  107PNCE   C6B  980   3.819   6.574   7.694  0.0781  0.1345  0.0236
  108PNCE   AM1  981  10.556  12.854   8.874 -0.3140  0.2177  0.0023
  108PNCE   AM2  982  10.832  12.813   8.732  0.0385  0.0543 -0.0839
  108PNCE   T1A  983  10.434  13.040   8.596 -0.1632 -0.0373 -0.1731
  108PNCE   C2A  984  10.276  12.984   8.150 -0.0033  0.0103 -0.1651
  108PNCE   C3A  985  10.354  13.113   7.713 -0.1158 -0.0036 -0.1597
  108PNCE   C1B  986  10.761  12.697   8.344  0.1387  0.3549 -0.2400
  108PNCE   C2B  987  10.889  12.751   7.884  0.2559 -0.1834  0.0625
  108PNCE   C3B  988  10.956  12.782   7.475 -0.2071  0.0756 -0.1956
  108PNCE   D4B  989  10.977  12.699   7.076  0.1793 -0.2538 -0.2419
  108PNCE   C5B  990  10.621  12.708   6.839 -0.1173 -0.1545 -0.0923
  108PNCE   C6B  991  10.268  12.844   6.610  0.1965 -0.3975 -0.0223
  109CHOL   ROH  992   6.043   0.696   7.809 -0.2045 -0.1143 -0.0633
  109CHOL    R1  993   6.243   0.804   7.641 -0.1903  0.1391  0.1105
  109CHOL    R2  994   6.318   0.686   7.403  0.2131  0.1931  0.2018
  109CHOL    R3  995   6.262   0.931   7.300 -0.0417  0.0974  0.1027
  109CHOL    R4  996   6.488   0.834   7.142  0.2283  0.3653  0.3089
  109CHOL    R5  997   6.477   1.024   7.248 -0.1195  0.3790  0.2595
  109CHOL    C1  998   6.536   1.152   6.893 -0.0022  0.3758  0.2781
  109CHOL    C2  999   6.263   1.462   6.660  0.0450  0.1263  0.1503
  110CHOL   ROH 1000  10.164   3.757   8.011 -0.0054 -0.0065 -0.0640
  110CHOL    R1 1001  10.130   3.690   7.738 -0.0888 -0.0620 -0.0405
  110CHOL    R2 1002  10.279   3.494   7.613 -0.0328  0.0049 -0.0805
  110CHOL    R3 1003  10.035   3.394   7.548 -0.0068 -0.1415  0.0421
  110CHOL    R4 1004  10.227   3.234   7.393  0.0044  0.0558 -0.1499
  110CHOL    R5 1005  10.054   3.342   7.314 -0.1251 -0.0344  0.0083
  110CHOL    C1 1006   9.967   2.987   7.203  0.0506 -0.0522 -0.0752
  110CHOL    C2 1007  10.258   2.706   7.038 -0.0928  0.1234 -0.1929
  111PNCE   AM1 1008  14.271  10.919   7.578 -0.1030  0.1656 -0.0584
  111PNCE   AM2 1009  14.296  10.835   7.327 -0.2232  0.1609  0.0516
  111PNCE   T1A 1010  14.762  11.153   7.683 -0.0884  0.2048  0.1971
  111PNCE   C2A 1011  15.090  11.253   7.870 -0.0616  0.0460 -0.1102
  111PNCE   C3A 1012  15.367  11.612   7.916 -0.1403 -0.0740 -0.1726
  111PNCE   C1B 1013  14.435  10.615   6.882  0.0922 -0.0639  0.2934
  111PNCE   C2B 1014  14.136  10.405   6.616  0.1247  0.0370 -0.0567
  111PNCE   C3B 1015  13.848  10.169   6.722 -0.0514 -0.0589  0.0584
  111PNCE   D4B 1016  13.550   9.795   6.803  0.0943  0.1196  0.0002
  111PNCE   C5B 1017  13.344   9.506   6.517  0.0313  0.0931 -0.3010
  111PNCE   C6B 1018  13.276   9.561   6.110 -0.1789  0.0603 -0.2138
  112CHOL   ROH 1019   2.680   7.993   5.684 -0.2220 -0.1496 -0.1420
  112CHOL    R1 1020   2.551   8.073   5.923 -0.1230 -0.0750 -0.1125
  112CHOL    R2 1021   2.398   7.899   6.074 -0.1292 -0.0068 -0.0375
  112CHOL    R3 1022   2.564   7.978   6.274 -0.0412 -0.0276 -0.1028
  112CHOL    R4 1023   2.304   7.945   6.404 -0.0160  0.0980 -0.0195
  112CHOL    R5 1024   2.430   8.122   6.410  0.0530  0.0514 -0.0935
  112CHOL    C1 1025   2.405   8.046   6.783  0.1326  0.1395 -0.0703
  112CHOL    C2 1026   2.264   8.379   6.905  0.1873 -0.1366  0.0212
  113CHOL   ROH 1027  12.990  11.537   6.329 -0.1310 -0.0973 -0.3296
  113CHOL    R1 1028  13.237  11.561   6.192 -0.0940 -0.2696 -0.2973
  113CHOL    R2 1029  13.464  11.667   6.310 -0.1693  0.0523 -0.4186
  113CHOL    R3 1030  13.574  11.432   6.231 -0.0575 -0.0708  0.0746
  113CHOL    R4 1031  13.793  11.625   6.213 -0.1616  0.0003 -0.3683
  113CHOL    R5 1032  13.724  11.492   6.055 -0.1106 -0.3779 -0.0762
  113CHOL    C1 1033  14.088  11.380   6.082 -0.0521 -0.1456  0.1240
  113CHOL    C2 1034  14.420  11.331   6.198 -0.0021 -0.1798 -0.1350
  114XCA    COO 1035   4.692   1.354   3.643 -0.0429 -0.1426  0.1050
  114XCA     C1 1036   4.721   1.170   4.136 -0.1246 -0.1727 -0.2712
  114XCA     C2 1037   4.449   1.077   4.417 -0.1317  0.3377 -0.3173
  114XCA     C3 1038   4.249   1.054   4.857  0.0231 -0.1393  0.0689
  114XCA     C4 1039   4.077   1.158   5.317  0.0257 -0.0862 -0.0069
  114XCA     C5 1040   3.803   1.391   5.692  0.1839 -0.1226  0.0132
  114XCA     C6 1041   3.351   1.590   5.889 -0.0042  0.0442 -0.0854
  115XCA    COO 1042   3.958  15.279   3.980  0.0499 -0.0075  0.1070
  115XCA     C1 1043   4.278  15.177   4.212  0.1006 -0.1464  0.0728
  115XCA     C2 1044   4.293  15.201   4.663  0.1753  0.1168 -0.2817
  115XCA     C3 1045   4.045  15.364   5.014  0.0685  0.0998 -0.0469
  115XCA     C4 1046   3.927  15.538   5.353  0.1260 -0.0595  0.1283
  115XCA     C5 1047   4.073  15.847   5.645 -0.2959 -0.0143  0.1407
  115XCA     C6 1048   4.286  16.108   5.993  0.3217 -0.0895  0.0019
  116XCA    COO 1049   5.938   2.466   8.466 -0.1145 -0.0553 -0.0360
  116XCA     C1 1050   5.990   2.537   8.004 -0.2090 -0.2465 -0.1701
  116XCA     C2 1051   6.165   2.207   7.762 -0.1546 -0.4264  0.0742
  116XCA     C3 1052   6.260   1.965   7.399 -0.0556  0.1386  0.1808
  116XCA     C4 1053   6.326   1.819   7.008 -0.0341 -0.2141 -0.0114
  116XCA     C5 1054   6.464   1.981   6.660 -0.1360  0.1073 -0.0547
  116XCA     C6 1055   6.525   2.275   6.362 -0.1646 -0.0638  0.3252
  117CHOL   ROH 1056   0.803  14.769   4.644 -0.1416  0.1051 -0.0204
  117CHOL    R1 1057   0.852  14.823   4.917  0.0260  0.0889 -0.0460
  117CHOL    R2 1058   0.677  14.968   5.074  0.1246  0.0867  0.0692
  117CHOL    R3 1059   0.691  14.749   5.235  0.2152  0.0773  0.0486
  117CHOL    R4 1060   0.670  14.977   5.420  0.1248  0.0514  0.0699
  117CHOL    R5 1061   0.823  14.821   5.422  0.1878  0.1134  0.0535
  117CHOL    C1 1062   0.679  14.777   5.772  0.2099  0.0219  0.0510
  117CHOL    C2 1063   0.554  14.775   6.194 -0.3570  0.0769 -0.1318
  118CHOL   ROH 1064  10.785  13.351   7.540 -0.2808  0.2217  0.2189
  118CHOL    R1 1065  10.660  13.232   7.316 -0.1249  0.0368  0.2266
  118CHOL    R2 1066  10.562  12.974   7.319 -0.1473  0.0488  0.3803
  118CHOL    R3 1067  10.332  13.094   7.239 -0.0808 -0.0019  0.1022
  118CHOL    R4 1068  10.281  12.807   7.207 -0.0841 -0.0359  0.3465
  118CHOL    R5 1069  10.257  12.961   7.054  0.0368 -0.1774  0.1752
  118CHOL    C1 1070   9.901  12.823   7.066  0.0152 -0.1326  0.0657
  118CHOL    C2 1071   9.766  12.466   7.004 -0.1731  0.0886  0.1861
  119CHOL   ROH 1072   3.525   4.646   8.669 -0.1107  0.2325  0.2173
  119CHOL    R1 1073   3.524   4.798   8.430  0.0885 -0.0319  0.0422
  119CHOL    R2 1074   3.548   5.073   8.429 -0.0813 -0.0174 -0.2302
  119CHOL    R3 1075   3.753   5.023   8.258  0.1640 -0.0828  0.0738
  119CHOL    R4 1076   3.748   5.315   8.285 -0.0944 -0.0414 -0.2903
  119CHOL    R5 1077   3.743   5.202   8.099  0.2127 -0.2836 -0.1648
  119CHOL    C1 1078   4.058   5.409   8.041  0.1281 -0.1169 -0.0398
  119CHOL    C2 1079   4.374   5.563   8.028  0.0927 -0.2227  0.3011
  120PNCE   AM1 1080   3.583   7.835   9.799 -0.1981 -0.0330 -0.2330
  120PNCE   AM2 1081   3.206   7.806   9.822  0.2079  0.1195 -0.2691
  120PNCE   T1A 1082   3.364   7.959   9.319 -0.0239  0.0892 -0.1949
  120PNCE   C2A 1083   3.126   8.181   8.980  0.0303  0.1000  0.0825
  120PNCE   C3A 1084   3.153   8.558   8.637  0.1093 -0.1119  0.0094
  120PNCE   C1B 1085   2.916   7.650   9.398 -0.0161 -0.1626  0.0804
  120PNCE   C2B 1086   3.016   7.678   9.008 -0.0323 -0.3591  0.1567
  120PNCE   C3B 1087   3.111   7.654   8.638  0.0173  0.0875 -0.1890
  120PNCE   D4B 1088   3.213   7.304   8.361  0.0191  0.4157  0.2568
  120PNCE   C5B 1089   3.499   7.129   8.396 -0.0396  0.0338 -0.1957
  120PNCE   C6B 1090   3.779   6.913   8.078  0.1047 -0.0788 -0.0243
  121CHOL   ROH 1091   1.477   9.078   8.458  0.3574 -0.0740 -0.0755
  121CHOL    R1 1092   1.374   9.240   8.251  0.0821 -0.1469 -0.0009
  121CHOL    R2 1093   1.398   9.515   8.251 -0.1003 -0.1253 -0.0314
  121CHOL    R3 1094   1.508   9.473   8.006 -0.2654 -0.0639 -0.1164
  121CHOL    R4 1095   1.457   9.761   8.015 -0.2271 -0.0662 -0.0010
  121CHOL    R5 1096   1.390   9.623   7.861 -0.3415 -0.0111  0.0036
  121CHOL    C1 1097   1.594   9.865   7.648 -0.4560  0.0258 -0.0628
  121CHOL    C2 1098   1.491   9.917   7.295 -0.1701  0.0594  0.1148
  122XCA    COO 1099   5.931  13.558   9.977 -0.2741  0.0670 -0.3031
  122XCA     C1 1100   6.170  13.568   9.555 -0.1506  0.1357 -0.0879
  122XCA     C2 1101   6.258  13.564   9.129 -0.0566  0.1969 -0.0817
  122XCA     C3 1102   6.556  13.496   8.869  0.0550 -0.0687  0.2171
  122XCA     C4 1103   6.932  13.444   9.029 -0.1101 -0.1993  0.2437
  122XCA     C5 1104   7.416  13.557   8.838  0.2263 -0.1301 -0.3012
  122XCA     C6 1105   7.543  13.797   8.497  0.1526  0.1149 -0.4224
  123XCA    COO 1106   1.173   2.319   8.350 -0.0012  0.1253 -0.1355
  123XCA     C1 1107   1.182   2.566   8.114  0.0126 -0.0445 -0.3339
  123XCA     C2 1108   0.970   2.800   7.772 -0.1569  0.3819 -0.2850
  123XCA     C3 1109   0.824   3.172   7.565 -0.3053  0.0249 -0.1206
  123XCA     C4 1110   0.629   3.506   7.624  0.0472  0.0937  0.0713
  123XCA     C5 1111   0.239   3.768   7.464 -0.1589  0.0008  0.2357
  123XCA     C6 1112  -0.081   4.029   7.292 -0.2415 -0.0588  0.1035
  124PNCE   AM1 1113  10.864   1.250   8.524 -0.1636 -0.1299  0.0593
  124PNCE   AM2 1114  11.083   1.054   8.448  0.1789 -0.2570 -0.4194
  124PNCE   T1A 1115  10.832   1.324   8.066 -0.1601 -0.1862  0.0416
  124PNCE   C2A 1116  10.765   1.454   7.685  0.0159  0.4532  0.0146
  124PNCE   C3A 1117  10.612   1.712   7.318 -0.1291 -0.1895  0.2880
  124PNCE   C1B 1118  11.396   1.305   8.158  0.0671  0.3186  0.0872
  124PNCE   C2B 1119  11.307   1.383   7.725  0.0764 -0.1037  0.0608
  124PNCE   C3B 1120  11.129   1.308   7.367 -0.0395  0.3937  0.1328
  124PNCE   D4B 1121  10.776   1.297   7.102 -0.0503 -0.2273 -0.0492
  124PNCE   C5B 1122  10.865   1.656   6.814  0.0613 -0.0021 -0.0213
  124PNCE   C6B 1123  11.144   2.078   6.780 -0.1431 -0.2020 -0.0468
  125CHOL   ROH 1124  11.532  10.455   4.893  0.1694  0.1354  0.0345
  125CHOL    R1 1125  11.538  10.566   5.154 -0.0420  0.0094  0.0947
  125CHOL    R2 1126  11.516  10.411   5.381  0.1092 -0.1407  0.0089
  125CHOL    R3 1127  11.748  10.536   5.449 -0.0705  0.1371  0.1284
  125CHOL    R4 1128  11.696  10.350   5.670  0.2351 -0.2140 -0.0837
  125CHOL    R5 1129  11.733  10.565   5.686 -0.0910 -0.1697  0.1682
  125CHOL    C1 1130  12.019  10.433   5.902  0.1399  0.0041 -0.0255
  125CHOL    C2 1131  12.111  10.062   6.204 -0.1395 -0.1994 -0.2103
  126CHOL   ROH 1132  12.495  13.385   7.446 -0.1347 -0.0047  0.0125
  126CHOL    R1 1133  12.331  13.168   7.369  0.0659 -0.1462 -0.0259
  126CHOL    R2 1134  12.056  13.185   7.363  0.0358 -0.4545  0.1461
  126CHOL    R3 1135  12.089  13.100   7.106 -0.0107 -0.2548  0.0730
  126CHOL    R4 1136  11.875  12.930   7.214  0.0956 -0.4210  0.0163
  126CHOL    R5 1137  12.059  12.862   7.118  0.0916 -0.2754 -0.0920
  126CHOL    C1 1138  11.801  12.702   6.887  0.0868 -0.2141 -0.1280
  126CHOL    C2 1139  11.736  12.455   6.691  0.2540  0.1546  0.1179
  127CHOL   ROH 1140   7.555   4.693   7.715  0.2702  0.0010 -0.1256
  127CHOL    R1 1141   7.545   4.666   7.433  0.2184 -0.1763 -0.1086
  127CHOL    R2 1142   7.458   4.435   7.309 -0.1566 -0.1304  0.0506
  127CHOL    R3 1143   7.289   4.607   7.182  0.1086  0.0596 -0.0543
  127CHOL    R4 1144   7.239   4.348   7.056 -0.1347  0.1071 -0.0525
  127CHOL    R5 1145   7.289   4.534   6.954  0.1377  0.0393 -0.0457
  127CHOL    C1 1146   6.954   4.457   6.789  0.1271  0.4236 -0.2110
  127CHOL    C2 1147   6.664   4.194   6.597 -0.0170 -0.1887 -0.0173
  128PNCE   AM1 1148   9.555   5.554   8.438  0.2879  0.1077 -0.4906
  128PNCE   AM2 1149   9.678   5.652   8.210 -0.3823  0.1281  0.0103
  128PNCE   T1A 1150   9.111   5.616   8.380  0.2855  0.1107 -0.0077
  128PNCE   C2A 1151   8.846   5.830   8.071 -0.3718  0.0028 -0.3631
  128PNCE   C3A 1152   8.633   6.213   8.008 -0.2883  0.3610 -0.2270
  128PNCE   C1B 1153   9.778   5.771   7.715 -0.0274 -0.0988  0.4369
  128PNCE   C2B 1154   9.858   5.548   7.388 -0.2399 -0.2384 -0.1987
  128PNCE   C3B 1155  10.040   5.499   6.984 -0.0492 -0.1891 -0.3702
  128PNCE   D4B 1156  10.505   5.448   6.762 -0.0339 -0.0661 -0.2699
  128PNCE   C5B 1157  10.725   5.570   6.391  0.3599 -0.0309 -0.0241
  128PNCE   C6B 1158  10.732   5.289   6.008 -0.0469  0.3686 -0.0253
  129PNCE   AM1 1159   1.071   1.476   7.648 -0.0307 -0.4016 -0.1279
  129PNCE   AM2 1160   0.774   1.549   7.755  0.0239  0.1790 -0.0973
  129PNCE   T1A 1161   1.178   1.197   7.370 -0.2007 -0.4177 -0.1493
  129PNCE   C2A 1162   1.106   0.832   7.149 -0.2034  0.2286  0.0628
  129PNCE   C3A 1163   1.050   0.416   6.946 -0.1254 -0.4115  0.3182
  129PNCE   C1B 1164   0.825   1.787   7.354  0.2668  0.0413  0.3308
  129PNCE   C2B 1165   1.080   1.923   6.947 -0.1771 -0.2720  0.1814
  129PNCE   C3B 1166   1.032   1.775   6.631 -0.1629  0.1472 -0.1992
  129PNCE   D4B 1167   1.192   1.444   6.455 -0.3765  0.4259  0.1180
  129PNCE   C5B 1168   1.425   1.110   6.354  0.2120 -0.4418  0.1159
  129PNCE   C6B 1169   1.233   0.858   6.055 -0.0086 -0.1851 -0.3208
  130XCA    COO 1170   5.576  15.335   4.346  0.2092 -0.2423  0.1246
  130XCA     C1 1171   5.497  15.567   4.718  0.0962  0.2730 -0.2385
  130XCA     C2 1172   5.431  15.633   5.134  0.1388 -0.1721 -0.2019
  130XCA     C3 1173   5.361  15.506   5.537  0.0467  0.0162 -0.1281
  130XCA     C4 1174   5.319  15.533   5.918 -0.2064 -0.2219  0.0237
  130XCA     C5 1175   5.320  15.412   6.359  0.0160 -0.0879  0.2139
  130XCA     C6 1176   5.386  15.611   6.855 -0.1735  0.0696  0.3979
  131PNCE   AM1 1177   6.421   1.583   4.507 -0.5073  0.2836  0.1269
  131PNCE   AM2 1178   6.512   1.321   4.686  0.1628 -0.0564 -0.3104
  131PNCE   T1A 1179   6.374   1.700   5.009  0.1295  0.1554  0.1691
  131PNCE   C2A 1180   6.076   2.008   5.160 -0.3265  0.0130  0.0294
  131PNCE   C3A 1181   5.658   2.085   5.369  0.2369  0.0790  0.1400
  131PNCE   C1B 1182   6.449   1.082   5.027  0.3791  0.0440 -0.1246
  131PNCE   C2B 1183   6.540   1.229   5.463 -0.2629  0.0722 -0.2126
  131PNCE   C3B 1184   6.633   1.103   5.876  0.0146  0.2095 -0.1384
  131PNCE   D4B 1185   6.633   1.131   6.300  0.0062  0.0482  0.0377
  131PNCE   C5B 1186   7.028   0.919   6.388 -0.0923 -0.1054  0.2017
  131PNCE   C6B 1187   7.231   0.773   6.198 -0.2538  0.2916 -0.0145
  132PNCE   AM1 1188  12.408   1.093   7.981 -0.1381  0.2366 -0.2118
  132PNCE   AM2 1189  12.592   1.208   7.873  0.0663 -0.0916  0.1944
  132PNCE   T1A 1190  12.250   1.065   7.560  0.0751  0.2840  0.1815
  132PNCE   C2A 1191  12.027   1.227   7.247  0.0366 -0.1853 -0.0975
  132PNCE   C3A 1192  11.785   1.641   7.198 -0.2063  0.0781 -0.0224
  132PNCE   C1B 1193  12.689   1.193   7.345 -0.0136 -0.1244  0.2069
  132PNCE   C2B 1194  13.116   1.074   7.086  0.0634 -0.2564 -0.2754
  132PNCE   C3B 1195  13.151   0.801   6.845 -0.0696 -0.1096  0.0156
  132PNCE   D4B 1196  13.199   0.457   6.521  0.0362  0.0919  0.2675
  132PNCE   C5B 1197  12.991   0.088   6.285 -0.0341  0.2697  0.2717
  132PNCE   C6B 1198  12.994  -0.231   5.910  0.2581 -0.0199  0.0587
  133PNCE   AM1 1199   7.535   4.618   8.445 -0.3057  0.1815 -0.1393
  133PNCE   AM2 1200   7.126   4.484   8.417 -0.0266 -0.3904 -0.1122
  133PNCE   T1A 1201   7.911   4.606   8.162 -0.2963  0.1401  0.1879
  133PNCE   C2A 1202   7.978   4.669   7.645 -0.0673 -0.0040 -0.1314
  133PNCE   C3A 1203   8.148   4.970   7.324  0.0677  0.2696  0.4223
  133PNCE   C1B 1204   6.816   4.478   7.956  0.3523 -0.1466 -0.0506
  133PNCE   C2B 1205   6.571   4.173   7.643 -0.3467  0.0432  0.0408
  133PNCE   C3B 1206   6.223   4.044   7.418  0.0646  0.2474 -0.3598
  133PNCE   D4B 1207   5.951   4.404   7.557  0.1394 -0.0539  0.0299
  133PNCE   C5B 1208   5.525   4.460   7.582  0.1968  0.0334  0.3268
  133PNCE   C6B 1209   5.163   4.268   7.838  0.3686  0.0853 -0.1348
  134CHOL   ROH 1210   7.733  13.158   8.909  0.0055 -0.1663  0.0549
  134CHOL    R1 1211   7.584  13.135   8.670 -0.0590 -0.2031  0.0993
  134CHOL    R2 1212   7.679  13.223   8.426 -0.2135 -0.0465  0.0999
  134CHOL    R3 1213   7.624  12.968   8.349 -0.0415 -0.0639  0.0266
  134CHOL    R4 1214   7.631  13.122   8.099 -0.2623  0.0519  0.0758
  134CHOL    R5 1215   7.469  12.994   8.168 -0.1386 -0.1088  0.0958
  134CHOL    C1 1216   7.551  12.824   7.836 -0.1291  0.0931 -0.0071
  134CHOL    C2 1217   7.455  12.939   7.429 -0.2586 -0.0442 -0.2275
  135CHOL   ROH 1218   2.423  11.177   8.899 -0.0897  0.1068  0.0865
  135CHOL    R1 1219   2.380  10.991   8.690 -0.1866  0.0865  0.1241
  135CHOL    R2 1220   2.183  11.023   8.499 -0.0562  0.2452  0.0129
  135CHOL    R3 1221   2.390  10.995   8.326  0.0052 -0.0364  0.1264
  135CHOL    R4 1222   2.154  10.906   8.176 -0.0199  0.1930  0.0282
  135CHOL    R5 1223   2.339  10.795   8.205 -0.1601 -0.0120  0.1533
  135CHOL    C1 1224   2.333  10.811   7.824  0.0588 -0.1017  0.1437
  135CHOL    C2 1225   2.401  10.563   7.560  0.3127 -0.1760 -0.2350
  136CHOL   ROH 1226   1.797   0.665   6.065 -0.0943  0.0099 -0.1283
  136CHOL    R1 1227   1.633   0.524   6.248  0.0589 -0.2012 -0.1487
  136CHOL    R2 1228   1.716   0.292   6.374  0.3753 -0.0552 -0.0668
  136CHOL    R3 1229   1.649   0.430   6.599  0.0957 -0.0953 -0.1234
  136CHOL    R4 1230   1.684   0.154   6.689  0.5376 -0.0054 -0.0283
  136CHOL    R5 1231   1.509   0.279   6.721  0.3205 -0.2879 -0.1059
  136CHOL    C1 1232   1.602   0.202   7.083  0.3697 -0.0142 -0.0590
  136CHOL    C2 1233   1.244  -0.003   7.220  0.0362 -0.1850 -0.0037
  137XCA    COO 1234   0.630  15.523   4.317 -0.0229 -0.0330 -0.1364
  137XCA     C1 1235   0.593  15.742   4.689 -0.0729  0.0276  0.1519
  137XCA     C2 1236   0.550  16.175   4.960 -0.0236  0.0990  0.1179
  137XCA     C3 1237   0.508  16.272   5.397  0.2565 -0.2245  0.0353
  137XCA     C4 1238   0.402  16.622   5.637 -0.3973 -0.2359 -0.3232
  137XCA     C5 1239   0.477  16.985   5.934  0.0950  0.2202  0.3535
  137XCA     C6 1240   0.892  17.140   5.915 -0.1851  0.0195  0.2279
  138CHOL   ROH 1241   4.314   0.707   3.987 -0.0558  0.1235  0.0789
  138CHOL    R1 1242   4.151   0.647   4.210  0.0366  0.0006  0.1137
  138CHOL    R2 1243   4.255   0.570   4.454  0.1461  0.0656  0.0856
  138CHOL    R3 1244   4.105   0.777   4.547  0.0198 -0.0434  0.1292
  138CHOL    R4 1245   4.098   0.577   4.762  0.2217 -0.0584  0.1284
  138CHOL    R5 1246   3.926   0.671   4.667  0.1258 -0.1791  0.1744
  138CHOL    C1 1247   3.866   0.776   5.028  0.1472 -0.2330  0.1943
  138CHOL    C2 1248   3.573   0.538   5.162 -0.1297  0.2556  0.3073
  139PNCE   AM1 1249   7.914   9.559   5.558  0.4471 -0.0450  0.1144
  139PNCE   AM2 1250   8.098   9.503   5.262  0.0448 -0.2923 -0.1533
  139PNCE   T1A 1251   7.768   9.395   5.938 -0.3504  0.2455  0.1971
  139PNCE   C2A 1252   7.606   9.381   6.355 -0.4142 -0.3712 -0.1672
  139PNCE   C3A 1253   7.514   9.515   6.703  0.0110  0.0967 -0.1160
  139PNCE   C1B 1254   8.458   9.277   5.342  0.0834  0.0335 -0.4680
  139PNCE   C2B 1255   8.910   9.167   5.488  0.1345 -0.0601  0.0717
  139PNCE   C3B 1256   9.006   9.133   5.862 -0.0648  0.0621 -0.1534
  139PNCE   D4B 1257   8.998   9.085   6.372 -0.3712  0.2432 -0.2616
  139PNCE   C5B 1258   8.920   9.505   6.599 -0.1438  0.1402 -0.0909
  139PNCE   C6B 1259   9.186   9.586   7.005 -0.2405  0.0710  0.0380
  140PNCE   AM1 1260   5.488   2.471   8.164 -0.2630  0.1062 -0.1874
  140PNCE   AM2 1261   5.658   2.813   8.307  0.4309  0.1335 -0.2626
  140PNCE   T1A 1262   5.508   2.479   7.781 -0.0040  0.0047  0.1197
  140PNCE   C2A 1263   5.435   2.379   7.315 -0.1605  0.0579  0.0488
  140PNCE   C3A 1264   5.160   2.384   6.900 -0.0722  0.0710  0.2883
  140PNCE   C1B 1265   5.873   3.026   7.941  0.0517 -0.0265 -0.1953
  140PNCE   C2B 1266   6.013   2.781   7.553 -0.1410  0.0648  0.1047
  140PNCE   C3B 1267   5.912   2.472   7.451 -0.0061  0.4236  0.0288
  140PNCE   D4B 1268   5.742   2.086   7.541  0.0565 -0.2696  0.1316
  140PNCE   C5B 1269   5.869   1.818   7.131 -0.0286 -0.1838  0.1305
  140PNCE   C6B 1270   5.831   1.730   6.743  0.2189  0.0752 -0.3231
  141CHOL   ROH 1271  12.202  14.653   7.513 -0.1183  0.3821 -0.0162
  141CHOL    R1 1272  12.251  14.588   7.242  0.0892  0.3631  0.0234
  141CHOL    R2 1273  12.050  14.506   7.070  0.2676  0.0529 -0.0480
  141CHOL    R3 1274  12.142  14.711   6.917  0.0754  0.1300 -0.0611
  141CHOL    R4 1275  12.108  14.488   6.730  0.3966  0.0536 -0.0266
  141CHOL    R5 1276  12.288  14.607   6.759  0.2482  0.2714  0.0061
  141CHOL    C1 1277  12.227  14.671   6.388  0.2912  0.1266 -0.0263
  141CHOL    C2 1278  12.286  14.501   6.041 -0.1009 -0.2447 -0.0665
  142CHOL   ROH 1279   2.959  10.195   5.926 -0.0196 -0.3479  0.0966
  142CHOL    R1 1280   2.759  10.300   6.097 -0.0379 -0.3788  0.0947
  142CHOL    R2 1281   2.798  10.333   6.369  0.0285 -0.1791  0.0641
  142CHOL    R3 1282   2.723  10.589   6.316 -0.1667 -0.2634 -0.0769
  142CHOL    R4 1283   2.609  10.531   6.580  0.0941 -0.1210  0.0681
  142CHOL    R5 1284   2.501  10.606   6.405 -0.1002 -0.3223  0.0995
  142CHOL    C1 1285   2.429  10.887   6.653 -0.0509 -0.1662 -0.0619
  142CHOL    C2 1286   2.258  11.101   6.945 -0.0270  0.0820 -0.0562
  143CHOL   ROH 1287  13.636   6.858   8.258 -0.1744  0.1067  0.0220
  143CHOL    R1 1288  13.632   7.027   8.031  0.1053  0.0939  0.0062
  143CHOL    R2 1289  13.856   7.074   7.875  0.1355 -0.4735 -0.1262
  143CHOL    R3 1290  13.693   6.992   7.674 -0.1875 -0.1020 -0.0306
  143CHOL    R4 1291  13.867   7.195   7.552  0.2237 -0.4788 -0.1273
  143CHOL    R5 1292  13.649   7.192   7.549  0.1941  0.0221  0.0068
  143CHOL    C1 1293  13.720   7.188   7.174 -0.0281 -0.1333 -0.0382
  143CHOL    C2 1294  14.016   7.334   6.899  0.1748 -0.0486  0.1894
  144PNCE   AM1 1295   8.556   8.965   9.227  0.4839 -0.1399  0.0655
  144PNCE   AM2 1296   8.513   8.683   9.102  0.2801 -0.0695  0.2119
  144PNCE   T1A 1297   8.758   9.074   8.777  0.3015  0.2371 -0.0388
  144PNCE   C2A 1298   8.841   9.138   8.396 -0.3017 -0.0577 -0.3107
  144PNCE   C3A 1299   8.855   9.344   7.940  0.3327  0.1005 -0.1337
  144PNCE   C1B 1300   8.452   8.740   8.702 -0.1414  0.2096  0.0295
  144PNCE   C2B 1301   8.533   8.766   8.320  0.1387  0.0008  0.0931
  144PNCE   C3B 1302   8.423   8.827   7.880  0.4088  0.3322 -0.3181
  144PNCE   D4B 1303   8.114   8.765   7.514  0.1074 -0.0677 -0.1616
  144PNCE   C5B 1304   7.823   8.554   7.625 -0.1079  0.1100  0.0552
  144PNCE   C6B 1305   7.576   8.144   7.824  0.4011 -0.0647  0.0718
  145PNCE   AM1 1306  10.809  15.180   7.740  0.2037  0.0749 -0.1625
  145PNCE   AM2 1307  11.013  15.131   7.473 -0.0612 -0.1733 -0.0647
  145PNCE   T1A 1308  10.548  15.031   7.306 -0.1157  0.1744  0.0623
  145PNCE   C2A 1309  10.301  15.047   6.873 -0.2113  0.0244  0.0587
  145PNCE   C3A 1310  10.180  14.972   6.430  0.1641 -0.0776 -0.0557
  145PNCE   C1B 1311  10.998  15.557   7.271  0.1366  0.2028  0.0798
  145PNCE   C2B 1312  10.956  15.794   6.911  0.0164 -0.3142  0.0077
  145PNCE   C3B 1313  10.746  15.853   6.612  0.3611  0.0459 -0.0782
  145PNCE   D4B 1314  10.681  15.871   6.206  0.5656 -0.0399  0.2838
  145PNCE   C5B 1315  10.945  16.081   5.916 -0.1005  0.1430  0.1786
  145PNCE   C6B 1316  11.198  15.976   5.650  0.1865 -0.0055 -0.0659
  146CHOL   ROH 1317   6.742   7.070   6.906  0.0198 -0.1297  0.0362
  146CHOL    R1 1318   6.502   6.923   6.936  0.0216 -0.1300  0.0455
  146CHOL    R2 1319   6.304   6.922   6.743  0.0181 -0.1330  0.0534
  146CHOL    R3 1320   6.335   6.652   6.760  0.0154 -0.1339  0.0555
  146CHOL    R4 1321   6.111   6.690   6.574  0.2046 -0.1203 -0.1833
  146CHOL    R5 1322   6.111   6.566   6.754  0.0203 -0.1429 -0.1923
  146CHOL    C1 1323   6.028   6.301   6.492  0.3108 -0.1136 -0.3192
  146CHOL    C2 1324   6.023   5.948   6.385  0.1275  0.0157 -0.0087
  147XCA    COO 1325   9.635   4.912   5.016 -0.1466 -0.2532  0.1763
  147XCA     C1 1326   9.552   5.264   5.372  0.0283  0.0842 -0.0345
  147XCA     C2 1327   9.802   5.623   5.666 -0.1593  0.0244  0.2946
  147XCA     C3 1328   9.647   5.532   6.059  0.0536  0.2683 -0.0093
  147XCA     C4 1329   9.308   5.411   6.335 -0.1325  0.2747 -0.0051
  147XCA     C5 1330   9.102   5.277   6.621 -0.0908 -0.0481  0.0595
  147XCA     C6 1331   8.869   5.281   7.032  0.0708 -0.4512 -0.0259
  148PNCE   AM1 1332  13.855   7.577   8.814  0.3561 -0.2291  0.1820
  148PNCE   AM2 1333  13.762   7.375   8.991  0.1053 -0.0518 -0.2044
  148PNCE   T1A 1334  13.562   7.745   8.582 -0.1696  0.2865  0.2413
  148PNCE   C2A 1335  13.276   7.886   8.228 -0.3620 -0.2850 -0.0208
  148PNCE   C3A 1336  13.378   7.926   7.904  0.1048 -0.1763  0.1935
  148PNCE   C1B 1337  13.747   7.248   8.494  0.2763 -0.1207 -0.0006
  148PNCE   C2B 1338  13.419   7.408   8.092 -0.1620 -0.2581 -0.1200
  148PNCE   C3B 1339  13.011   7.529   8.000 -0.0981  0.2440  0.1601
  148PNCE   D4B 1340  12.618   7.341   7.706 -0.1699 -0.0000 -0.1089
  148PNCE   C5B 1341  12.387   7.445   7.365  0.1422 -0.2974  0.1906
  148PNCE   C6B 1342  12.025   7.467   7.115  0.2409 -0.3335 -0.1746
  149PNCE   AM1 1343   2.502   3.418   7.526 -0.1926 -0.1104  0.2505
  149PNCE   AM2 1344   2.637   3.151   7.364 -0.0171 -0.3187  0.3664
  149PNCE   T1A 1345   2.131   3.579   7.494 -0.3300  0.2035 -0.2410
  149PNCE   C2A 1346   1.842   3.581   7.573 -0.0850  0.1299 -0.1134
  149PNCE   C3A 1347   1.681   3.330   7.917  0.0376 -0.2039 -0.0749
  149PNCE   C1B 1348   2.256   3.036   7.122 -0.2138 -0.0563  0.2827
  149PNCE   C2B 1349   1.894   2.866   6.938  0.0157  0.1418 -0.0178
  149PNCE   C3B 1350   1.643   2.682   7.090  0.1256 -0.0621  0.0916
  149PNCE   D4B 1351   1.274   2.411   6.966  0.1856  0.1513 -0.2219
  149PNCE   C5B 1352   1.141   2.410   6.508 -0.0118 -0.0045 -0.0295
  149PNCE   C6B 1353   1.306   2.514   6.038  0.1492 -0.1186 -0.0976
  150XCA    COO 1354  13.072   3.960   7.779  0.0577  0.1200 -0.1517
  150XCA     C1 1355  12.912   3.922   7.309 -0.1293  0.0496 -0.0527
  150XCA     C2 1356  12.807   4.012   6.885 -0.0646 -0.4474  0.1841
  150XCA     C3 1357  12.682   3.863   6.572 -0.1384 -0.4330 -0.1143
  150XCA     C4 1358  12.399   3.912   6.217 -0.2521  0.1029 -0.0867
  150XCA     C5 1359  12.500   3.929   5.800  0.0326 -0.2123 -0.0041
  150XCA     C6 1360  12.208   4.071   5.531 -0.1556 -0.0051  0.0887
  151PNCE   AM1 1361  12.151   4.178   8.193 -0.3085 -0.0070  0.2698
  151PNCE   AM2 1362  12.240   4.488   8.141  0.2517  0.1545 -0.0642
  151PNCE   T1A 1363  12.075   4.085   7.812 -0.1337  0.1343  0.1515
  151PNCE   C2A 1364  12.113   4.039   7.346 -0.0397  0.0344 -0.0750
  151PNCE   C3A 1365  12.366   3.926   6.985  0.0894  0.2920 -0.2116
  151PNCE   C1B 1366  12.089   4.635   7.700 -0.1489  0.0909 -0.0906
  151PNCE   C2B 1367  12.059   4.553   7.244 -0.2510  0.3567  0.1029
  151PNCE   C3B 1368  11.807   4.356   6.978 -0.0234  0.0494 -0.2316
  151PNCE   D4B 1369  11.674   4.066   6.674 -0.2492  0.0550  0.0524
  151PNCE   C5B 1370  11.531   3.725   6.364  0.2301 -0.1488 -0.0748
  151PNCE   C6B 1371  11.199   3.802   6.086 -0.3143  0.1386 -0.2240
  152PNCE   AM1 1372   9.155  13.936   8.526 -0.0543 -0.0392  0.0884
  152PNCE   AM2 1373   8.982  13.686   8.526 -0.0527 -0.0027 -0.1576
  152PNCE   T1A 1374   9.356  13.822   8.062 -0.1562  0.3239  0.1661
  152PNCE   C2A 1375   9.542  13.594   7.686 -0.1783  0.0467  0.0934
  152PNCE   C3A 1376   9.767  13.726   7.283 -0.0033 -0.1410  0.1452
  152PNCE   C1B 1377   8.711  13.745   8.306  0.0401  0.1111  0.0046
  152PNCE   C2B 1378   8.356  13.660   8.056 -0.3101  0.2017 -0.3103
  152PNCE   C3B 1379   8.327  13.390   7.726 -0.1197  0.0222  0.1837
  152PNCE   D4B 1380   8.485  13.058   7.477  0.1001  0.1099 -0.5477
  152PNCE   C5B 1381   8.622  12.599   7.416 -0.0254 -0.3132 -0.2876
  152PNCE   C6B 1382   8.892  12.507   7.037  0.3148 -0.2356 -0.2094
  153XCA    COO 1383   0.465   1.183   7.876 -0.1561 -0.0692 -0.0936
  153XCA     C1 1384   0.360   0.779   7.662  0.0241  0.2325  0.2870
  153XCA     C2 1385   0.189   0.775   7.219  0.0729  0.1007 -0.1624
  153XCA     C3 1386   0.190   0.672   6.816 -0.0607  0.1002 -0.5903
  153XCA     C4 1387  -0.060   0.653   6.399 -0.2245 -0.0988  0.0382
  153XCA     C5 1388  -0.128   0.670   5.967  0.1719 -0.0006 -0.1348
  153XCA     C6 1389  -0.419   0.887   5.765  0.1590  0.2446 -0.0540
  154CHOL   ROH 1390   8.427   1.137   5.868  0.0995  0.0589 -0.2518
  154CHOL    R1 1391   8.152   1.169   5.808  0.0606  0.0352 -0.0889
  154CHOL    R2 1392   7.960   0.988   5.889  0.1223  0.0269  0.0389
  154CHOL    R3 1393   7.843   1.208   5.997  0.1698  0.0257  0.0947
  154CHOL    R4 1394   7.633   1.004   5.999  0.1132  0.0840  0.0058
  154CHOL    R5 1395   7.619   1.204   5.913  0.1782  0.1149  0.0669
  154CHOL    C1 1396   7.333   1.221   6.165  0.1525  0.1161  0.0389
  154CHOL    C2 1397   6.984   1.378   6.090  0.1434  0.0629  0.2023
  155PNCE   AM1 1398  12.206   0.134   8.247 -0.1646  0.0821  0.0675
  155PNCE   AM2 1399  12.334  -0.010   7.963 -0.1113 -0.0715 -0.2239
  155PNCE   T1A 1400  11.890   0.286   7.945  0.1569 -0.0751  0.0775
  155PNCE   C2A 1401  11.626   0.353   7.541 -0.2197 -0.0938  0.0907
  155PNCE   C3A 1402  11.275   0.111   7.211  0.1889  0.1038  0.1650
  155PNCE   C1B 1403  12.278   0.293   7.639  0.0264  0.0572 -0.0221
  155PNCE   C2B 1404  12.068   0.244   7.228  0.1839  0.0835  0.0876
  155PNCE   C3B 1405  11.862   0.264   6.806 -0.1213  0.3047  0.1694
  155PNCE   D4B 1406  11.814  -0.199   6.566 -0.2673  0.0390  0.2167
  155PNCE   C5B 1407  11.802  -0.094   6.237  0.2065  0.1412  0.2083
  155PNCE   C6B 1408  11.467   0.097   6.035 -0.2414 -0.2022 -0.0255
  156PNCE   AM1 1409  13.361  14.403   7.280 -0.2232 -0.0877 -0.0073
  156PNCE   AM2 1410  13.130  14.581   7.169  0.0585  0.0580 -0.1167
  156PNCE   T1A 1411  13.453  14.344   6.846  0.1970  0.0319  0.2109
  156PNCE   C2A 1412  13.380  14.289   6.541  0.0790  0.0033  0.3857
  156PNCE   C3A 1413  13.262  14.530   6.246 -0.1878 -0.0314 -0.0133
  156PNCE   C1B 1414  12.905  14.504   6.822  0.0281 -0.0524 -0.0444
  156PNCE   C2B 1415  12.613  14.408   6.433 -0.0182 -0.1380  0.0908
  156PNCE   C3B 1416  12.583  14.039   6.121  0.0090  0.0788  0.1025
  156PNCE   D4B 1417  12.192  13.884   5.989  0.1513  0.2526  0.4434
  156PNCE   C5B 1418  12.208  13.808   5.469 -0.0486 -0.0190  0.2606
  156PNCE   C6B 1419  11.801  13.953   5.244  0.0339 -0.4295 -0.0480
  157CHOL   ROH 1420   1.339   0.585   4.198 -0.2685 -0.0510 -0.0928
  157CHOL    R1 1421   1.387   0.564   4.476 -0.1774 -0.0363 -0.1072
  157CHOL    R2 1422   1.430   0.785   4.637 -0.0772 -0.0306 -0.1409
  157CHOL    R3 1423   1.226   0.679   4.782 -0.0498  0.0236 -0.0617
  157CHOL    R4 1424   1.386   0.829   4.977 -0.0463  0.1448 -0.1584
  157CHOL    R5 1425   1.326   0.619   4.991 -0.0215  0.1458 -0.0404
  157CHOL    C1 1426   1.168   0.755   5.311 -0.0026  0.2979 -0.0943
  157CHOL    C2 1427   1.282   1.040   5.546  0.0434 -0.1013 -0.0610
  158XCA    COO 1428  10.405   2.475   4.280 -0.0340 -0.0478 -0.0104
  158XCA     C1 1429  10.358   2.665   4.671 -0.1687 -0.0624 -0.0342
  158XCA     C2 1430  10.362   2.678   5.099 -0.2707 -0.0149  0.0763
  158XCA     C3 1431  10.212   2.383   5.320 -0.1278  0.1753 -0.4255
  158XCA     C4 1432  10.206   2.297   5.722  0.0442  0.0315  0.2967
  158XCA     C5 1433  10.474   2.183   6.063 -0.2374  0.0104  0.1275
  158XCA     C6 1434  10.686   1.889   6.410 -0.0985  0.0238  0.0329
  159PNCE   AM1 1435   0.988  12.473   8.431  0.0102 -0.1015  0.0878
  159PNCE   AM2 1436   0.961  12.682   8.692 -0.1155  0.0412 -0.1813
  159PNCE   T1A 1437   0.788  12.541   8.034 -0.1929 -0.0724 -0.2721
  159PNCE   C2A 1438   0.881  12.426   7.623  0.1075  0.0909 -0.1827
  159PNCE   C3A 1439   1.186  12.130   7.493 -0.3021  0.5411 -0.1913
  159PNCE   C1B 1440   1.138  12.944   8.314 -0.0454 -0.0009  0.2081
  159PNCE   C2B 1441   1.258  13.086   7.919 -0.2151 -0.1981 -0.2362
  159PNCE   C3B 1442   1.541  13.071   7.484 -0.0040  0.2836 -0.1671
  159PNCE   D4B 1443   1.447  13.136   7.049 -0.1090 -0.2684 -0.1444
  159PNCE   C5B 1444   1.079  13.239   6.754  0.3023 -0.1082  0.0433
  159PNCE   C6B 1445   0.975  13.396   6.368 -0.0537 -0.0083 -0.1346
  160XCA    COO 1446   0.212   5.064   5.093  0.0417 -0.0670 -0.4885
  160XCA     C1 1447   0.193   5.398   5.296  0.2572  0.0545 -0.2709
  160XCA     C2 1448   0.100   5.523   5.694  0.1486  0.2517 -0.0886
  160XCA     C3 1449  -0.244   5.589   5.927  0.0881 -0.3140 -0.2613
  160XCA     C4 1450  -0.612   5.744   6.205  0.3761  0.0378 -0.2192
  160XCA     C5 1451  -0.926   5.718   6.499 -0.1254 -0.0694 -0.0907
  160XCA     C6 1452  -0.922   5.519   6.885 -0.1518  0.2665 -0.1693
  161CHOL   ROH 1453   4.888   2.815   6.730  0.1061  0.1415 -0.1651
  161CHOL    R1 1454   5.090   2.687   6.579  0.1135  0.1049 -0.1243
  161CHOL    R2 1455   5.310   2.822   6.480  0.1631  0.0631 -0.0709
  161CHOL    R3 1456   5.448   2.627   6.612  0.0940  0.0303 -0.0462
  161CHOL    R4 1457   5.655   2.796   6.490  0.1587  0.0508  0.0947
  161CHOL    R5 1458   5.634   2.580   6.469  0.1637  0.0569  0.0360
  161CHOL    C1 1459   5.984   2.597   6.618  0.0913  0.0128  0.2144
  161CHOL    C2 1460   6.434   2.628   6.700  0.3846  0.2628 -0.3651
  162CHOL   ROH 1461   3.246  12.297   7.228  0.1598 -0.1595 -0.2510
  162CHOL    R1 1462   3.034  12.443   7.111  0.1309 -0.1311 -0.1639
  162CHOL    R2 1463   2.841  12.323   6.954  0.0385 -0.1084 -0.0666
  162CHOL    R3 1464   2.670  12.441   7.130  0.1379 -0.0659  0.0022
  162CHOL    R4 1465   2.504  12.376   6.898  0.0230 -0.0518  0.0763
  162CHOL    R5 1466   2.523  12.571   6.993  0.1010 -0.0476  0.0564
  162CHOL    C1 1467   2.148  12.517   7.031  0.1073  0.0211  0.2241
  162CHOL    C2 1468   1.848  12.794   7.209 -0.0602  0.0571 -0.1561
  163CHOL   ROH 1469   6.284   4.550   4.626 -0.2501  0.0166  0.0013
  163CHOL    R1 1470   6.207   4.420   4.866 -0.2047 -0.0325 -0.0102
  163CHOL    R2 1471   6.350   4.444   5.101 -0.1278 -0.1219 -0.0414
  163CHOL    R3 1472   6.110   4.520   5.202 -0.0853 -0.0991  0.0425
  163CHOL    R4 1473   6.261   4.422   5.434 -0.0455 -0.1450 -0.0206
  163CHOL    R5 1474   6.063   4.356   5.371 -0.0669 -0.1046  0.0339
  163CHOL    C1 1475   5.984   4.480   5.723  0.0423 -0.1371  0.0703
  163CHOL    C2 1476   6.112   4.732   5.921  0.3995 -0.2110 -0.0397
  164CHOL   ROH 1477   8.569  11.646   8.003 -0.2411 -0.0015 -0.0363
  164CHOL    R1 1478   8.379  11.791   7.852 -0.2121  0.0095 -0.0642
  164CHOL    R2 1479   8.365  12.067   7.856 -0.2227  0.0133 -0.0373
  164CHOL    R3 1480   8.386  12.040   7.586 -0.1563  0.0386 -0.0337
  164CHOL    R4 1481   8.241  12.293   7.625 -0.4356 -0.1220 -0.0577
  164CHOL    R5 1482   8.178  12.125   7.502 -0.2338 -0.1886 -0.0656
  164CHOL    C1 1483   8.190  12.400   7.238 -0.4971 -0.1771 -0.0663
  164CHOL    C2 1484   8.328  12.792   6.983 -0.2703  0.3203  0.1475
  165CHOL   ROH 1485  10.234   9.295   5.631  0.0163  0.1117 -0.0341
  165CHOL    R1 1486  10.211   9.275   5.912  0.1060  0.1974 -0.0199
  165CHOL    R2 1487  10.020   9.119   6.036  0.0475  0.3485  0.0909
  165CHOL    R3 1488  10.236   9.012   6.162  0.0281  0.2429  0.0347
  165CHOL    R4 1489  10.043   9.065   6.376  0.0567  0.1896  0.0658
  165CHOL    R5 1490  10.250   9.133   6.368  0.0684  0.1446  0.0871
  165CHOL    C1 1491  10.259   8.934   6.693  0.0439 -0.0021 -0.0017
  165CHOL    C2 1492  10.400   8.899   7.111 -0.3235  0.0797  0.1350
  166CHOL   ROH 1493   0.108   1.573   4.102  0.2312  0.0249 -0.0906
  166CHOL    R1 1494   0.048   1.540   4.376  0.1946  0.0935 -0.0902
  166CHOL    R2 1495  -0.123   1.342   4.468  0.0696  0.2070 -0.0771
  166CHOL    R3 1496   0.089   1.278   4.626  0.0218  0.0968 -0.0565
  166CHOL    R4 1497  -0.146   1.231   4.794 -0.0285  0.0202 -0.1464
  166CHOL    R5 1498   0.026   1.355   4.844 -0.0300 -0.0230 -0.0282
  166CHOL    C1 1499   0.038   1.105   5.132 -0.1305 -0.1920 -0.1675
  166CHOL    C2 1500  -0.002   0.748   5.410  0.0543 -0.2138  0.5093
  167PNCE   AM1 1501   3.051   7.013   9.488  0.3492  0.0602 -0.0817
  167PNCE   AM2 1502   2.759   7.190   9.636 -0.1457 -0.0851  0.2177
  167PNCE   T1A 1503   2.919   6.697   9.118  0.0857 -0.1600 -0.0823
  167PNCE   C2A 1504   2.818   6.618   8.678 -0.0879 -0.3811  0.2287
  167PNCE   C3A 1505   2.767   6.253   8.432  0.2004  0.1460  0.2057
  167PNCE   C1B 1506   2.670   7.240   9.113 -0.0677  0.0084 -0.1290
  167PNCE   C2B 1507   2.438   6.869   8.939  0.1285 -0.0847  0.2721
  167PNCE   C3B 1508   2.230   6.534   8.636 -0.1100 -0.4513 -0.0762
  167PNCE   D4B 1509   1.888   6.411   8.433 -0.2008 -0.1026 -0.1245
  167PNCE   C5B 1510   2.079   6.522   8.007  0.0343 -0.2029 -0.1067
  167PNCE   C6B 1511   2.334   6.663   7.766 -0.0474 -0.3262  0.1498
  168CHOL   ROH 1512   8.899   5.853   6.081  0.1075 -0.0882 -0.2977
  168CHOL    R1 1513   9.131   5.818   6.238  0.0675 -0.0520 -0.2315
  168CHOL    R2 1514   9.375   5.927   6.169  0.0254  0.1493 -0.0613
  168CHOL    R3 1515   9.363   6.033   6.419 -0.1348 -0.0314  0.0110
  168CHOL    R4 1516   9.647   5.973   6.377 -0.0076  0.5565 -0.0997
  168CHOL    R5 1517   9.523   5.908   6.545  0.1515  0.1982 -0.1081
  168CHOL    C1 1518   9.794   6.100   6.733 -0.1771  0.6240 -0.0543
  168CHOL    C2 1519  10.080   5.974   6.843  0.3453  0.1639 -0.0672
  169XCA    COO 1520  15.044   2.553   3.655  0.4657 -0.1091  0.0215
  169XCA     C1 1521  15.101   2.593   4.050  0.0380 -0.2478  0.3516
  169XCA     C2 1522  15.272   2.391   4.422  0.4865  0.0807 -0.0422
  169XCA     C3 1523  15.129   1.956   4.696 -0.2978 -0.0300  0.3289
  169XCA     C4 1524  14.939   1.811   5.104 -0.2577 -0.0180  0.0560
  169XCA     C5 1525  15.023   1.562   5.525  0.2321 -0.0034  0.2115
  169XCA     C6 1526  15.362   1.392   5.838 -0.0300 -0.3866 -0.1298
  170CHOL   ROH 1527  14.458   7.979   5.708  0.0528 -0.1696  0.0718
  170CHOL    R1 1528  14.401   7.895   5.973 -0.0111 -0.1540  0.0632
  170CHOL    R2 1529  14.508   7.664   6.082 -0.0889 -0.1824  0.0808
  170CHOL    R3 1530  14.591   7.834   6.277 -0.0746 -0.2032  0.0929
  170CHOL    R4 1531  14.661   7.567   6.376  0.1759 -0.1949 -0.0570
  170CHOL    R5 1532  14.543   7.718   6.481  0.1413 -0.3169  0.0810
  170CHOL    C1 1533  14.827   7.670   6.731  0.3434 -0.2217 -0.1259
  170CHOL    C2 1534  14.910   7.906   6.921  0.2608 -0.1069  0.0526
  171XCA    COO 1535   4.082  11.278   5.217  0.0626 -0.0031  0.0280
  171XCA     C1 1536   4.312  11.054   5.609  0.1641 -0.0871 -0.0178
  171XCA     C2 1537   4.417  11.009   5.919  0.0545 -0.0827  0.1386
  171XCA     C3 1538   4.478  11.214   6.292  0.0842 -0.2615 -0.2498
  171XCA     C4 1539   4.528  11.304   6.768  0.1126 -0.1520  0.0476
  171XCA     C5 1540   4.734  11.212   7.032 -0.0506  0.3200 -0.2902
  171XCA     C6 1541   5.063  11.388   7.300  0.2809 -0.0501 -0.1246
  172PNCE   AM1 1542   8.444  12.193   9.261  0.0925  0.2081  0.2058
  172PNCE   AM2 1543   8.610  12.388   9.499  0.4593  0.0278  0.0556
  172PNCE   T1A 1544   8.685  12.544   9.064  0.1227  0.1662 -0.0744
  172PNCE   C2A 1545   8.698  12.897   8.870 -0.1992  0.3466 -0.0466
  172PNCE   C3A 1546   8.923  13.180   8.598 -0.1064  0.1395  0.2220
  172PNCE   C1B 1547   8.941  12.139   9.272 -0.3258  0.0000  0.1914
  172PNCE   C2B 1548   8.883  11.870   8.921 -0.0815 -0.2341  0.0195
  172PNCE   C3B 1549   8.785  11.754   8.509 -0.1399 -0.1984 -0.3514
  172PNCE   D4B 1550   8.890  12.075   8.213 -0.1919  0.0023 -0.0018
  172PNCE   C5B 1551   8.716  12.393   7.822  0.0305  0.0056  0.0657
  172PNCE   C6B 1552   8.522  12.821   7.928  0.3469 -0.0530  0.1129
  173PNCE   AM1 1553  12.936   3.504   7.584  0.1198  0.0726  0.2871
  173PNCE   AM2 1554  12.725   3.424   7.845 -0.3202 -0.0706  0.1517
  173PNCE   T1A 1555  12.695   3.508   7.171 -0.0735  0.0269 -0.4651
  173PNCE   C2A 1556  12.518   3.463   6.773 -0.0968  0.1404 -0.2723
  173PNCE   C3A 1557  12.451   3.406   6.350  0.0169 -0.3393 -0.1243
  173PNCE   C1B 1558  12.506   3.114   7.560  0.0376  0.0185 -0.0714
  173PNCE   C2B 1559  12.543   3.031   7.083  0.0793  0.0459  0.1317
  173PNCE   C3B 1560  12.642   2.991   6.642 -0.1559  0.2491 -0.0500
  173PNCE   D4B 1561  12.772   2.754   6.302  0.0189  0.2013 -0.1338
  173PNCE   C5B 1562  13.132   2.790   6.167  0.0658 -0.0910  0.2883
  173PNCE   C6B 1563  13.479   2.623   6.057 -0.1408  0.0663  0.0354
  174CHOL   ROH 1564   4.702   9.804   7.749  0.3658  0.0111  0.0861
  174CHOL    R1 1565   4.619   9.673   7.512 -0.0473  0.0509  0.2022
  174CHOL    R2 1566   4.792   9.527   7.354 -0.2560  0.2843 -0.2602
  174CHOL    R3 1567   4.607   9.331   7.389 -0.0063  0.0975  0.0670
  174CHOL    R4 1568   4.734   9.269   7.131 -0.5203  0.3416 -0.2611
  174CHOL    R5 1569   4.520   9.292   7.169 -0.4688  0.1296  0.2335
  174CHOL    C1 1570   4.526   8.935   7.035 -0.4398  0.1999  0.0455
  174CHOL    C2 1571   4.682   8.918   6.661  0.2020 -0.0652  0.1979
  175XCA    COO 1572   0.314   5.396   8.760  0.1780 -0.0797  0.1195
  175XCA     C1 1573   0.541   5.343   8.468 -0.1005  0.1551 -0.0846
  175XCA     C2 1574   0.926   5.389   8.439  0.2971  0.1312  0.1098
  175XCA     C3 1575   1.054   5.893   8.397  0.0790 -0.0958 -0.0907
  175XCA     C4 1576   0.962   6.360   8.451 -0.2369 -0.0895 -0.1281
  175XCA     C5 1577   0.974   6.709   8.306 -0.0673 -0.1184 -0.0467
  175XCA     C6 1578   0.968   7.036   8.071 -0.1887 -0.1004  0.2088
  176CHOL   ROH 1579   9.053  14.684   7.961 -0.1459 -0.0497 -0.1637
  176CHOL    R1 1580   9.181  14.543   7.751  0.0269 -0.0393 -0.0676
  176CHOL    R2 1581   9.330  14.314   7.794 -0.1188 -0.1179  0.0287
  176CHOL    R3 1582   9.162  14.210   7.607  0.0397  0.0126 -0.1911
  176CHOL    R4 1583   9.354  13.996   7.661 -0.1166 -0.0907 -0.0357
  176CHOL    R5 1584   9.304  14.079   7.466  0.1384 -0.0107 -0.0715
  176CHOL    C1 1585   9.211  13.713   7.408  0.0334  0.0477 -0.2796
  176CHOL    C2 1586   9.193  13.352   7.179  0.1670 -0.0290  0.0480
  177CHOL   ROH 1587   0.334   7.478   5.664  0.1035  0.0138 -0.0882
  177CHOL    R1 1588   0.282   7.511   5.940  0.1625  0.0740 -0.0837
  177CHOL    R2 1589   0.141   7.726   6.041  0.0843  0.0379 -0.1127
  177CHOL    R3 1590  -0.012   7.532   6.153  0.2088 -0.0036 -0.0118
  177CHOL    R4 1591  -0.080   7.775   6.301  0.1217  0.0099 -0.0756
  177CHOL    R5 1592  -0.015   7.585   6.386  0.2378  0.0706 -0.0288
  177CHOL    C1 1593  -0.354   7.622   6.559  0.2604 -0.0454  0.0408
  177CHOL    C2 1594  -0.518   7.662   6.935  0.1673 -0.1386  0.0859
  178CHOL   ROH 1595   5.241  11.749   5.201  0.0497 -0.1985 -0.0176
  178CHOL    R1 1596   5.318  11.537   5.373  0.2006 -0.1053  0.0335
  178CHOL    R2 1597   5.471  11.577   5.599 -0.0247  0.0945  0.1602
  178CHOL    R3 1598   5.266  11.447   5.721  0.0444 -0.1836 -0.0100
  178CHOL    R4 1599   5.497  11.399   5.894 -0.0355  0.1389  0.1874
  178CHOL    R5 1600   5.365  11.248   5.809  0.2412 -0.0465  0.0793
  178CHOL    C1 1601   5.320  11.174   6.181  0.0231 -0.0963  0.0434
  178CHOL    C2 1602   5.332  10.827   6.389 -0.1710  0.0936 -0.0563
  179XCA    COO 1603  11.921  12.569   8.565  0.0722 -0.0181  0.1024
  179XCA     C1 1604  11.795  12.777   8.140  0.2011 -0.0138  0.1202
  179XCA     C2 1605  11.845  12.769   7.680  0.2351 -0.0078 -0.2561
  179XCA     C3 1606  11.932  12.452   7.260  0.2533 -0.2422  0.3334
  179XCA     C4 1607  12.097  12.191   6.947  0.0864 -0.2823 -0.0127
  179XCA     C5 1608  12.038  12.022   6.591  0.0643  0.0690  0.5042
  179XCA     C6 1609  12.079  11.852   6.204 -0.0134 -0.0675  0.0297
  180XCA    COO 1610  10.660  15.796   8.005  0.1151  0.0550 -0.2314
  180XCA     C1 1611  10.805  15.924   7.571  0.3417 -0.0330  0.3712
  180XCA     C2 1612  10.733  16.189   7.164  0.1086 -0.0944  0.3071
  180XCA     C3 1613  10.523  16.269   6.792  0.4650 -0.1154  0.1272
  180XCA     C4 1614  10.409  16.298   6.310 -0.0616 -0.1024 -0.1041
  180XCA     C5 1615  10.426  16.325   5.837  0.2598  0.0106 -0.0842
  180XCA     C6 1616  10.230  16.286   5.364 -0.3519 -0.0626 -0.2197
  181CHOL   ROH 1617   3.951   4.057   4.401 -0.1135 -0.0773 -0.0816
  181CHOL    R1 1618   3.879   3.950   4.653  0.0093 -0.0626 -0.0397
  181CHOL    R2 1619   3.630   3.992   4.765  0.0405 -0.1184  0.0441
  181CHOL    R3 1620   3.627   3.721   4.779  0.1216 -0.1180  0.0878
  181CHOL    R4 1621   3.478   3.809   5.016  0.0665 -0.1193  0.0597
  181CHOL    R5 1622   3.648   3.673   5.013  0.1108 -0.0703  0.1009
  181CHOL    C1 1623   3.387   3.447   5.175  0.1576 -0.1194  0.1097
  181CHOL    C2 1624   3.209   3.619   5.567  0.0831 -0.1644  0.3301
  182CHOL   ROH 1625  11.722   2.543   4.574 -0.0123  0.1530 -0.0201
  182CHOL    R1 1626  11.654   2.594   4.844  0.1391  0.1401  0.0224
  182CHOL    R2 1627  11.677   2.401   5.041 -0.0140  0.0409 -0.0481
  182CHOL    R3 1628  11.826   2.592   5.165  0.2540 -0.1715 -0.0391
  182CHOL    R4 1629  11.860   2.351   5.330 -0.2117 -0.1806  0.0418
  182CHOL    R5 1630  11.796   2.548   5.399  0.0865 -0.0554 -0.0416
  182CHOL    C1 1631  12.108   2.501   5.614 -0.0753 -0.5089  0.1026
  182CHOL    C2 1632  12.086   2.220   5.932 -0.1532 -0.2558  0.4555
  183PNCE   AM1 1633  13.733   1.344   7.703  0.2041  0.1954  0.0094
  183PNCE   AM2 1634  14.010   1.523   7.855  0.0088  0.0262 -0.0363
  183PNCE   T1A 1635  13.913   1.508   7.301 -0.4308 -0.0458 -0.3460
  183PNCE   C2A 1636  14.281   1.810   7.013 -0.0751 -0.1576 -0.1121
  183PNCE   C3A 1637  14.508   2.155   6.874  0.0763  0.0443  0.1368
  183PNCE   C1B 1638  14.245   1.165   7.656 -0.2173  0.0904  0.3904
  183PNCE   C2B 1639  14.325   1.115   7.201 -0.2961  0.1216 -0.1438
  183PNCE   C3B 1640  14.078   1.173   6.956  0.2975  0.1246  0.2834
  183PNCE   D4B 1641  14.139   1.512   6.590 -0.1213  0.0339 -0.1796
  183PNCE   C5B 1642  14.226   1.344   6.172  0.1596  0.1193  0.4053
  183PNCE   C6B 1643  14.469   1.472   5.898  0.0662  0.0764  0.0806
  184PNCE   AM1 1644  10.424   2.314   8.702 -0.0186 -0.0088  0.1920
  184PNCE   AM2 1645  10.493   2.048   8.669  0.1449 -0.2591 -0.0704
  184PNCE   T1A 1646  10.105   2.544   8.649 -0.0100 -0.1221  0.0005
  184PNCE   C2A 1647   9.699   2.585   8.517 -0.2462 -0.4641  0.1102
  184PNCE   C3A 1648   9.588   2.917   8.203  0.0762  0.0400 -0.1699
  184PNCE   C1B 1649  10.297   2.239   8.212  0.0064  0.1501 -0.1075
  184PNCE   C2B 1650  10.121   2.477   7.864 -0.1633  0.0516 -0.5365
  184PNCE   C3B 1651  10.046   2.524   7.474 -0.0587  0.1582 -0.1439
  184PNCE   D4B 1652   9.839   2.527   7.167  0.4115  0.1369 -0.0584
  184PNCE   C5B 1653   9.398   2.410   7.310 -0.1109  0.1456 -0.0202
  184PNCE   C6B 1654   9.055   2.449   7.364 -0.0331 -0.0142  0.0331
  185PNCE   AM1 1655  10.091  15.616   8.664 -0.2571 -0.0829  0.1353
  185PNCE   AM2 1656   9.833  15.587   8.466 -0.4255  0.1732 -0.2958
  185PNCE   T1A 1657  10.195  15.727   8.174 -0.1790  0.1413  0.0153
  185PNCE   C2A 1658  10.153  15.890   7.756 -0.1776 -0.0067 -0.1472
  185PNCE   C3A 1659  10.336  16.075   7.436  0.1325 -0.2443  0.2201
  185PNCE   C1B 1660   9.760  15.547   8.011 -0.2034 -0.0230  0.0568
  185PNCE   C2B 1661   9.834  15.566   7.485  0.1792 -0.2661  0.1592
  185PNCE   C3B 1662   9.573  15.707   7.058 -0.0596  0.1269 -0.0038
  185PNCE   D4B 1663   9.530  15.574   6.683  0.0595  0.2040 -0.0837
  185PNCE   C5B 1664   9.643  15.745   6.272  0.1841  0.0270 -0.2133
  185PNCE   C6B 1665   9.760  15.908   5.857 -0.1494 -0.0023 -0.0470
  186PNCE   AM1 1666   7.993  12.413   9.362  0.0320 -0.0693  0.0708
  186PNCE   AM2 1667   7.817  12.684   9.129 -0.1753 -0.0019 -0.0667
  186PNCE   T1A 1668   8.014  12.102   9.069 -0.0327 -0.0454 -0.0649
  186PNCE   C2A 1669   7.874  11.899   8.740 -0.2265 -0.1307  0.0938
  186PNCE   C3A 1670   7.546  12.000   8.326  0.0923 -0.2734  0.0133
  186PNCE   C1B 1671   7.861  12.788   8.695  0.0087 -0.1888 -0.2512
  186PNCE   C2B 1672   8.101  12.975   8.272 -0.0925 -0.0628 -0.2414
  186PNCE   C3B 1673   7.991  12.998   7.805  0.2175 -0.0770  0.0754
  186PNCE   D4B 1674   7.998  12.879   7.363  0.0992  0.0349 -0.0935
  186PNCE   C5B 1675   7.778  13.036   6.962  0.0869 -0.1324 -0.1259
  186PNCE   C6B 1676   7.615  13.189   6.548 -0.0108 -0.0198  0.1292
  187PNCE   AM1 1677  13.854  11.206   7.833  0.0491 -0.3812  0.0291
  187PNCE   AM2 1678  14.007  10.967   8.026 -0.0070 -0.1411  0.1213
  187PNCE   T1A 1679  13.848  11.132   7.394 -0.2366 -0.2022  0.0067
  187PNCE   C2A 1680  13.977  11.091   6.913 -0.1130 -0.1710  0.0059
  187PNCE   C3A 1681  13.874  11.219   6.475  0.0005  0.0031 -0.1101
  187PNCE   C1B 1682  13.853  10.715   7.646  0.0447 -0.2362  0.3498
  187PNCE   C2B 1683  13.499  10.811   7.499  0.1354 -0.1608 -0.2216
  187PNCE   C3B 1684  13.411  11.019   7.129 -0.1097  0.0716 -0.1476
  187PNCE   D4B 1685  13.318  11.252   6.748  0.0136 -0.3991  0.1888
  187PNCE   C5B 1686  13.419  11.008   6.312 -0.4888 -0.1650  0.0692
  187PNCE   C6B 1687  13.705  10.993   5.946 -0.1063 -0.0062 -0.2742
  188XCA    COO 1688   4.976   5.215   5.180 -0.1424 -0.3345 -0.0130
  188XCA     C1 1689   4.836   5.149   5.633 -0.0710 -0.0529  0.1001
  188XCA     C2 1690   5.055   5.301   6.004  0.1049  0.0590  0.0495
  188XCA     C3 1691   5.392   5.379   6.253  0.0294 -0.0561 -0.1399
  188XCA     C4 1692   5.502   5.189   6.536 -0.1394 -0.1637  0.0671
  188XCA     C5 1693   5.856   5.045   6.765  0.0215  0.0228  0.0808
  188XCA     C6 1694   6.238   5.194   6.925  0.3963 -0.1858  0.0250
  189PNCE   AM1 1695   2.885   3.994   8.511  0.1074  0.0007 -0.0127
  189PNCE   AM2 1696   2.704   4.286   8.441 -0.0612 -0.0321  0.1519
  189PNCE   T1A 1697   3.152   4.346   8.330 -0.0241 -0.2220  0.3561
  189PNCE   C2A 1698   3.284   4.637   8.088 -0.3482  0.2223  0.1003
  189PNCE   C3A 1699   3.506   4.926   7.832 -0.0047 -0.0362 -0.2623
  189PNCE   C1B 1700   2.732   4.632   8.035  0.2533  0.0379 -0.2449
  189PNCE   C2B 1701   2.573   4.820   7.688  0.2976  0.0372 -0.0136
  189PNCE   C3B 1702   2.367   4.755   7.278  0.1729  0.0789  0.2431
  189PNCE   D4B 1703   2.283   4.374   6.992  0.1537 -0.3126  0.0952
  189PNCE   C5B 1704   1.789   4.266   7.097 -0.1442 -0.2888  0.0677
  189PNCE   C6B 1705   1.683   3.841   7.173  0.1208  0.1251 -0.0201
  190PNCE   AM1 1706   3.398   2.977   7.477  0.2332  0.4162  0.0661
  190PNCE   AM2 1707   3.439   2.702   7.705  0.0510 -0.2158 -0.0280
  190PNCE   T1A 1708   3.500   3.128   7.151  0.0120  0.0483 -0.3643
  190PNCE   C2A 1709   3.832   3.274   6.818  0.0979  0.0831  0.2199
  190PNCE   C3A 1710   3.770   3.246   6.354  0.2954 -0.0423  0.0562
  190PNCE   C1B 1711   3.897   2.994   7.548 -0.1466 -0.0553 -0.0510
  190PNCE   C2B 1712   4.018   3.340   7.375 -0.3187 -0.1110  0.0203
  190PNCE   C3B 1713   4.295   3.362   7.102 -0.1126  0.0476 -0.2001
  190PNCE   D4B 1714   4.683   3.611   7.153 -0.1121 -0.0762 -0.2036
  190PNCE   C5B 1715   4.662   3.948   7.007  0.3969  0.3480  0.2336
  190PNCE   C6B 1716   4.665   4.165   6.611 -0.0580 -0.3393 -0.0006
  191CHOL   ROH 1717   6.474   2.606   7.965 -0.3031  0.0458  0.0784
  191CHOL    R1 1718   6.606   2.667   7.723 -0.1736  0.2170  0.1895
  191CHOL    R2 1719   6.527   2.562   7.479  0.1070  0.1894  0.1065
  191CHOL    R3 1720   6.520   2.824   7.406 -0.0805  0.1988  0.1545
  191CHOL    R4 1721   6.584   2.680   7.159  0.0941  0.2937  0.1425
  191CHOL    R5 1722   6.696   2.846   7.246 -0.0567  0.3666  0.2015
  191CHOL    C1 1723   6.611   2.994   6.905 -0.0895  0.3632  0.2082
  191CHOL    C2 1724   6.687   3.032   6.558  0.3131  0.0761  0.0120
  192CHOL   ROH 1725  11.402  15.173   3.406  0.0966  0.0119 -0.1062
  192CHOL    R1 1726  11.425  14.983   3.615  0.0675 -0.0256 -0.1374
  192CHOL    R2 1727  11.658  14.947   3.759  0.0233  0.0017 -0.0618
  192CHOL    R3 1728  11.494  14.990   3.972 -0.0626 -0.0833 -0.1100
  192CHOL    R4 1729  11.722  14.846   4.083 -0.0591 -0.0454 -0.0597
  192CHOL    R5 1730  11.513  14.791   4.103 -0.0537 -0.1061 -0.1429
  192CHOL    C1 1731  11.606  14.827   4.472 -0.1879 -0.1527 -0.1037
  192CHOL    C2 1732  11.388  14.854   4.912 -0.1103 -0.2590 -0.2741
  193XCA    COO 1733   7.587   6.805   5.166  0.0165  0.2310 -0.0762
  193XCA     C1 1734   7.800   6.831   5.620 -0.1554  0.0414 -0.0350
  193XCA     C2 1735   7.813   7.006   6.016  0.0471  0.0288  0.0338
  193XCA     C3 1736   8.052   6.656   6.231  0.3148 -0.1092 -0.0272
  193XCA     C4 1737   8.179   6.404   6.530  0.2451 -0.1211 -0.2961
  193XCA     C5 1738   8.288   6.031   6.845  0.2310  0.2812 -0.2896
  193XCA     C6 1739   8.264   5.960   7.291 -0.1379 -0.0710  0.1329
  194CHOL   ROH 1740   4.892  11.805   6.876  0.1462  0.0702 -0.2297
  194CHOL    R1 1741   4.659  11.714   7.009  0.2108  0.0105 -0.1570
  194CHOL    R2 1742   4.460  11.886   7.094  0.2070 -0.0386 -0.0713
  194CHOL    R3 1743   4.300  11.722   6.949  0.1869 -0.0564 -0.0301
  194CHOL    R4 1744   4.116  11.870   7.121  0.2043  0.0139 -0.0676
  194CHOL    R5 1745   4.129  11.653   7.101  0.1769  0.0054 -0.0115
  194CHOL    C1 1746   3.766  11.706   6.999  0.1839  0.0278 -0.0268
  194CHOL    C2 1747   3.575  11.515   6.736  0.1713  0.0135  0.2148
  195PNCE   AM1 1748  12.459   5.205   7.737 -0.0875  0.2635 -0.0027
  195PNCE   AM2 1749  12.388   5.405   7.550  0.3456  0.1710 -0.3099
  195PNCE   T1A 1750  12.753   5.102   7.462 -0.2434  0.2954  0.0319
  195PNCE   C2A 1751  12.812   4.811   7.161  0.1227 -0.0389 -0.2363
  195PNCE   C3A 1752  13.067   4.775   6.718  0.1192 -0.1788 -0.3494
  195PNCE   C1B 1753  12.488   5.445   7.140 -0.3158  0.1105 -0.0870
  195PNCE   C2B 1754  12.902   5.278   6.997  0.2851  0.2425 -0.0930
  195PNCE   C3B 1755  13.304   5.380   6.746 -0.5744  0.0513  0.1643
  195PNCE   D4B 1756  13.834   5.421   6.711 -0.0247 -0.0469 -0.1535
  195PNCE   C5B 1757  13.781   5.715   6.432  0.1160  0.0396 -0.2853
  195PNCE   C6B 1758  14.114   5.946   6.180 -0.1313  0.0633 -0.0890
  196XCA    COO 1759  15.569   9.414   8.402  0.1953 -0.3829 -0.0988
  196XCA     C1 1760  15.884   9.475   8.196  0.0276  0.0089 -0.0088
  196XCA     C2 1761  15.935   9.568   7.786  0.1481  0.3257 -0.1812
  196XCA     C3 1762  16.315   9.546   7.445  0.0497 -0.0289  0.0783
  196XCA     C4 1763  16.627   9.207   7.270  0.1429  0.3194  0.3314
  196XCA     C5 1764  17.045   9.184   7.222 -0.1846  0.2245  0.0072
  196XCA     C6 1765  17.453   9.001   7.003  0.3243 -0.2901 -0.2255
  197CHOL   ROH 1766  13.231   8.156   5.643  0.1106 -0.1133  0.0291
  197CHOL    R1 1767  13.225   7.923   5.805  0.1469 -0.1345 -0.0024
  197CHOL    R2 1768  13.039   7.886   6.006  0.0606 -0.2558 -0.1132
  197CHOL    R3 1769  12.990   7.654   5.873  0.2552 -0.2734 -0.1605
  197CHOL    R4 1770  12.958   7.586   6.156 -0.4303 -0.1698 -0.1843
  197CHOL    R5 1771  13.087   7.485   6.012 -0.1335 -0.2779  0.1303
  197CHOL    C1 1772  12.866   7.193   6.119 -0.5334 -0.1362 -0.2701
  197CHOL    C2 1773  13.019   6.835   6.222 -0.2043  0.1804  0.0256
  198CHOL   ROH 1774   4.145  13.911   7.629  0.2298  0.2513  0.2370
  198CHOL    R1 1775   4.242  13.968   7.370  0.1433  0.2645  0.2076
  198CHOL    R2 1776   4.123  13.867   7.141  0.2374  0.0421  0.2550
  198CHOL    R3 1777   4.114  14.129   7.069 -0.0679  0.0077  0.1559
  198CHOL    R4 1778   3.995  13.985   6.843  0.1249 -0.2219  0.1959
  198CHOL    R5 1779   4.160  14.128   6.834 -0.0417 -0.0261  0.1607
  198CHOL    C1 1780   3.912  14.300   6.601 -0.2272 -0.4081  0.0684
  198CHOL    C2 1781   3.836  14.420   6.296  0.0265 -0.1490  0.0573
  199PNCE   AM1 1782   5.184   0.134   8.375  0.2043 -0.0302 -0.1613
  199PNCE   AM2 1783   5.352   0.017   8.489 -0.0111  0.0685  0.0404
  199PNCE   T1A 1784   5.338   0.146   7.908 -0.0871  0.0011 -0.1050
  199PNCE   C2A 1785   5.514   0.040   7.412 -0.1544 -0.0968 -0.0077
  199PNCE   C3A 1786   5.563   0.349   7.085 -0.0840  0.4435  0.0159
  199PNCE   C1B 1787   5.477  -0.252   8.134 -0.3335 -0.0690  0.1197
  199PNCE   C2B 1788   5.647  -0.301   7.748  0.1149  0.2757 -0.2244
  199PNCE   C3B 1789   5.935  -0.273   7.561  0.0805  0.0922  0.0963
  199PNCE   D4B 1790   6.343  -0.449   7.457  0.0817  0.0344 -0.2197
  199PNCE   C5B 1791   6.739  -0.358   7.363  0.0040  0.2860 -0.1540
  199PNCE   C6B 1792   7.005  -0.469   7.006 -0.0467  0.2156 -0.0594
  200PNCE   AM1 1793   5.121   7.270   9.206  0.0851  0.1910  0.0140
  200PNCE   AM2 1794   5.113   7.074   9.372 -0.2952 -0.0040 -0.0800
  200PNCE   T1A 1795   5.391   7.265   8.852  0.1969  0.2154  0.2880
  200PNCE   C2A 1796   5.541   7.337   8.451 -0.0786  0.0960  0.1062
  200PNCE   C3A 1797   5.684   7.670   8.178  0.1390  0.0704  0.1100
  200PNCE   C1B 1798   5.105   6.845   8.927 -0.1831  0.1316  0.0348
  200PNCE   C2B 1799   4.885   6.725   8.466 -0.4522 -0.1554  0.0870
  200PNCE   C3B 1800   4.742   6.545   8.046  0.0612  0.1412  0.0552
  200PNCE   D4B 1801   4.692   6.769   7.668  0.0641 -0.5070  0.0020
  200PNCE   C5B 1802   4.523   6.454   7.312 -0.2525  0.0396 -0.1319
  200PNCE   C6B 1803   4.277   6.200   6.984 -0.1545  0.5829  0.2097
  201CHOL   ROH 1804   5.135   7.376   5.042 -0.1428  0.0733  0.0047
  201CHOL    R1 1805   5.240   7.387   5.305 -0.0948 -0.1165 -0.0031
  201CHOL    R2 1806   5.291   7.626   5.435  0.3396 -0.1941  0.0040
  201CHOL    R3 1807   5.132   7.517   5.627  0.1563  0.0717  0.0054
  201CHOL    R4 1808   5.372   7.604   5.770  0.4302 -0.5957 -0.0401
  201CHOL    R5 1809   5.284   7.405   5.774 -0.0508 -0.3886 -0.1236
  201CHOL    C1 1810   5.271   7.490   6.145  0.3107 -0.5799 -0.0643
  201CHOL    C2 1811   5.285   7.704   6.344 -0.1805  0.1519 -0.0612
  202CHOL   ROH 1812  11.961  11.799   4.405 -0.0802 -0.1723  0.0823
  202CHOL    R1 1813  11.957  11.891   4.672 -0.0070 -0.1781  0.0851
  202CHOL    R2 1814  11.725  11.970   4.799  0.0223 -0.2231  0.1635
  202CHOL    R3 1815  11.803  11.788   4.985  0.1171 -0.2115  0.1364
  202CHOL    R4 1816  11.652  11.989   5.137 -0.0087 -0.3213  0.1631
  202CHOL    R5 1817  11.854  11.919   5.179  0.0311 -0.2132  0.1622
  202CHOL    C1 1818  11.683  11.829   5.508  0.0621 -0.3679  0.1374
  202CHOL    C2 1819  11.649  12.030   5.773  0.3229 -0.1962  0.0678
  203CHOL   ROH 1820   1.696   0.542   7.838 -0.2163  0.1207 -0.3370
  203CHOL    R1 1821   1.797   0.427   7.600  0.0110 -0.0584 -0.1583
  203CHOL    R2 1822   2.044   0.304   7.587 -0.0216 -0.1695  0.1958
  203CHOL    R3 1823   1.900   0.096   7.490  0.0041 -0.1663  0.1496
  203CHOL    R4 1824   2.173   0.048   7.394  0.0304 -0.1575  0.2138
  203CHOL    R5 1825   1.992   0.056   7.273  0.0588 -0.1531  0.1691
  203CHOL    C1 1826   2.111  -0.297   7.190  0.0848 -0.1475  0.1808
  203CHOL    C2 1827   1.995  -0.596   7.011  0.3070 -0.0369  0.0218
  204PNCE   AM1 1828  15.760  13.512   8.433 -0.1733 -0.1783 -0.3636
  204PNCE   AM2 1829  15.993  13.590   8.462  0.2117  0.1643  0.2931
  204PNCE   T1A 1830  15.650  13.155   8.250 -0.1104 -0.0899 -0.0533
  204PNCE   C2A 1831  15.557  12.844   8.013 -0.2159  0.0732 -0.0088
  204PNCE   C3A 1832  15.307  12.727   7.685  0.3120 -0.0337  0.1928
  204PNCE   C1B 1833  16.177  13.240   8.246 -0.0890  0.2186 -0.1400
  204PNCE   C2B 1834  16.376  12.975   7.941  0.2906 -0.1899  0.0137
  204PNCE   C3B 1835  16.571  12.852   7.516  0.2919  0.0632  0.1551
  204PNCE   D4B 1836  17.005  12.954   7.434 -0.2209 -0.0402  0.2824
  204PNCE   C5B 1837  17.128  12.668   7.235  0.0449 -0.2287 -0.3081
  204PNCE   C6B 1838  16.827  12.609   6.967 -0.0396 -0.0501  0.1126
  205CHOL   ROH 1839   3.717  11.931   5.073 -0.1254  0.0325 -0.0672
  205CHOL    R1 1840   3.769  11.832   5.333 -0.2490 -0.1567 -0.1136
  205CHOL    R2 1841   3.889  11.985   5.529  0.0345 -0.4292 -0.0749
  205CHOL    R3 1842   3.669  11.915   5.672 -0.0616 -0.1228 -0.0632
  205CHOL    R4 1843   3.825  12.085   5.854  0.2448 -0.3983 -0.0403
  205CHOL    R5 1844   3.750  11.884   5.895 -0.0670 -0.3049 -0.0791
  205CHOL    C1 1845   3.581  12.077   6.177  0.2769 -0.0929 -0.0093
  205CHOL    C2 1846   3.294  12.066   6.336 -0.0445  0.0124 -0.0245
  206XCA    COO 1847   4.529   5.560   5.470  0.2437 -0.3520  0.2017
  206XCA     C1 1848   4.335   5.476   5.831 -0.4158 -0.2659  0.0009
  206XCA     C2 1849   4.430   5.143   5.952  0.0640 -0.1294  0.0280
  206XCA     C3 1850   4.651   5.079   6.301 -0.0998  0.0545  0.1822
  206XCA     C4 1851   5.002   5.147   6.547  0.0948 -0.1001 -0.1445
  206XCA     C5 1852   5.217   5.104   6.975 -0.0196  0.3508  0.1137
  206XCA     C6 1853   5.575   5.259   7.076 -0.0521 -0.2199 -0.3674
  207CHOL   ROH 1854   8.077   1.070   8.450  0.0301  0.0314 -0.0208
  207CHOL    R1 1855   7.987   0.873   8.268  0.1276 -0.0903  0.0627
  207CHOL    R2 1856   7.945   0.925   8.000 -0.0779 -0.1747  0.0819
  207CHOL    R3 1857   8.113   0.714   7.965  0.1164 -0.0130  0.0154
  207CHOL    R4 1858   8.014   0.777   7.696 -0.1772 -0.1908  0.0663
  207CHOL    R5 1859   8.008   0.582   7.795  0.1050 -0.1748  0.1388
  207CHOL    C1 1860   8.212   0.492   7.486 -0.0528 -0.0484 -0.0053
  207CHOL    C2 1861   8.338   0.515   7.088  0.1222 -0.0359  0.0806
  208CHOL   ROH 1862  10.450   3.432   8.176 -0.0543 -0.1533 -0.0917
  208CHOL    R1 1863  10.644   3.357   7.984  0.0257 -0.0504 -0.0520
  208CHOL    R2 1864  10.577   3.231   7.748  0.1450 -0.1183 -0.0481
  208CHOL    R3 1865  10.716   3.437   7.637  0.0327 -0.0422 -0.0493
  208CHOL    R4 1866  10.668   3.252   7.415  0.2247 -0.1283 -0.0273
  208CHOL    R5 1867  10.860   3.332   7.477  0.1535  0.0218  0.0135
  208CHOL    C1 1868  10.850   3.457   7.117  0.1657 -0.0628 -0.0164
  208CHOL    C2 1869  10.931   3.348   6.744 -0.4238 -0.2810  0.2437
  209PNCE   AM1 1870   2.988   2.685   7.404  0.3423 -0.0561 -0.1133
  209PNCE   AM2 1871   3.152   2.464   7.336  0.0010 -0.0004  0.1312
  209PNCE   T1A 1872   2.655   2.690   7.021 -0.0700  0.0167 -0.0150
  209PNCE   C2A 1873   2.622   2.546   6.682 -0.1480 -0.1763  0.0486
  209PNCE   C3A 1874   2.678   2.393   6.189  0.1172  0.0020  0.2772
  209PNCE   C1B 1875   3.117   2.445   6.835  0.0909 -0.2056 -0.1536
  209PNCE   C2B 1876   3.053   2.646   6.376 -0.4453  0.0855 -0.0192
  209PNCE   C3B 1877   3.244   2.916   6.038 -0.4219  0.1242  0.1186
  209PNCE   D4B 1878   2.950   3.143   5.697  0.1193  0.1753 -0.4566
  209PNCE   C5B 1879   2.842   3.432   5.890 -0.1496  0.0847 -0.1572
  209PNCE   C6B 1880   2.760   3.581   6.269 -0.3212  0.1162  0.1100
  210CHOL   ROH 1881   7.187  10.287   6.205 -0.2365  0.1204 -0.1249
  210CHOL    R1 1882   6.994  10.129   6.339 -0.2360 -0.0141 -0.2792
  210CHOL    R2 1883   6.865   9.916   6.217  0.0468 -0.1438 -0.3691
  210CHOL    R3 1884   6.958   9.779   6.432 -0.0365 -0.0291 -0.2588
  210CHOL    R4 1885   6.776   9.593   6.299 -0.0549 -0.0659 -0.1659
  210CHOL    R5 1886   6.770   9.652   6.508 -0.0818  0.0728 -0.2100
  210CHOL    C1 1887   6.811   9.275   6.549 -0.1923  0.0873  0.0561
  210CHOL    C2 1888   6.666   9.135   6.916  0.1588  0.4504 -0.2498
  211PNCE   AM1 1889   2.165  12.804   8.490 -0.0508 -0.1577  0.0644
  211PNCE   AM2 1890   2.498  13.013   8.506  0.3880 -0.3582 -0.0079
  211PNCE   T1A 1891   2.094  12.761   8.038 -0.0221 -0.3016  0.0638
  211PNCE   C2A 1892   1.878  12.589   7.691 -0.0288  0.2118 -0.1736
  211PNCE   C3A 1893   1.497  12.545   7.604  0.2848  0.2485 -0.0546
  211PNCE   C1B 1894   2.811  12.904   8.332  0.0273 -0.0170 -0.0086
  211PNCE   C2B 1895   3.087  12.832   7.989  0.0366  0.0422 -0.1401
  211PNCE   C3B 1896   3.266  12.895   7.588 -0.2757  0.1490 -0.4351
  211PNCE   D4B 1897   3.479  12.666   7.315  0.2657 -0.1366 -0.1263
  211PNCE   C5B 1898   3.418  12.833   6.898  0.0391  0.1395  0.0300
  211PNCE   C6B 1899   3.267  13.207   6.839 -0.2050  0.1233 -0.0080
  212CHOL   ROH 1900   3.678  15.716   4.279  0.3833 -0.0788 -0.0172
  212CHOL    R1 1901   3.482  15.773   4.475  0.3145 -0.1317 -0.0723
  212CHOL    R2 1902   3.342  15.575   4.607  0.3770 -0.1677 -0.0723
  212CHOL    R3 1903   3.433  15.702   4.829  0.2636 -0.0879 -0.0688
  212CHOL    R4 1904   3.223  15.524   4.928  0.4130 -0.2838 -0.0757
  212CHOL    R5 1905   3.237  15.738   4.962  0.2227 -0.2643 -0.0717
  212CHOL    C1 1906   3.239  15.614   5.322  0.3276 -0.2764 -0.0743
  212CHOL    C2 1907   3.385  15.447   5.621  0.1528  0.0263 -0.3349
  213PNCE   AM1 1908   0.816  11.315   8.371  0.0165  0.2915  0.1826
  213PNCE   AM2 1909   0.955  11.577   8.449  0.1358 -0.0530 -0.1522
  213PNCE   T1A 1910   0.735  11.062   8.160 -0.0465 -0.1711  0.0601
  213PNCE   C2A 1911   0.636  10.894   7.767 -0.2587  0.1634  0.0051
  213PNCE   C3A 1912   0.522  10.369   7.704  0.1423 -0.3781 -0.0422
  213PNCE   C1B 1913   0.827  11.502   7.958 -0.1915  0.0407 -0.1407
  213PNCE   C2B 1914   0.815  11.689   7.507  0.0136 -0.0331 -0.1058
  213PNCE   C3B 1915   0.510  11.675   7.138  0.2899 -0.0942 -0.1559
  213PNCE   D4B 1916   0.192  11.986   6.816  0.0196  0.0826  0.1624
  213PNCE   C5B 1917  -0.242  11.888   6.776 -0.0558  0.2707 -0.0174
  213PNCE   C6B 1918  -0.601  11.673   6.915 -0.0978  0.1315  0.1484
  214CHOL   ROH 1919   4.897  13.869   6.386 -0.0043 -0.0397  0.0291
  214CHOL    R1 1920   4.722  13.669   6.483 -0.0821 -0.0546 -0.1405
  214CHOL    R2 1921   4.627  13.668   6.742 -0.0262 -0.2742 -0.1241
  214CHOL    R3 1922   4.385  13.657   6.620 -0.0613 -0.0317 -0.0829
  214CHOL    R4 1923   4.332  13.581   6.899 -0.0330 -0.2587 -0.1274
  214CHOL    R5 1924   4.276  13.468   6.720 -0.1360 -0.0711 -0.2249
  214CHOL    C1 1925   3.932  13.521   6.875 -0.0699 -0.0220 -0.0907
  214CHOL    C2 1926   3.575  13.539   7.137  0.2593  0.3916 -0.0237
  215CHOL   ROH 1927  10.354   6.377   5.342  0.0880 -0.3512 -0.2348
  215CHOL    R1 1928  10.569   6.227   5.450  0.1436 -0.1881 -0.1145
  215CHOL    R2 1929  10.807   6.344   5.528  0.0749 -0.0281 -0.1351
  215CHOL    R3 1930  10.754   6.219   5.763  0.0941  0.0747 -0.0761
  215CHOL    R4 1931  11.036   6.293   5.782  0.1882 -0.2151 -0.2727
  215CHOL    R5 1932  10.952   6.095   5.811 -0.0020 -0.1237 -0.1805
  215CHOL    C1 1933  11.119   6.146   6.150  0.2721 -0.2275 -0.2974
  215CHOL    C2 1934  11.396   5.910   6.270  0.1720  0.1219  0.0268
  216PNCE   AM1 1935  15.533   2.612   7.905 -0.0881  0.0110 -0.0211
  216PNCE   AM2 1936  15.809   2.473   7.814  0.1731  0.1431 -0.0606
  216PNCE   T1A 1937  15.803   3.056   7.903 -0.1329  0.1429  0.2442
  216PNCE   C2A 1938  16.101   3.366   8.084  0.2192  0.0521 -0.2139
  216PNCE   C3A 1939  16.539   3.615   8.109  0.0870 -0.0679 -0.1005
  216PNCE   C1B 1940  16.054   2.546   7.390 -0.0400 -0.0078  0.1903
  216PNCE   C2B 1941  16.196   2.609   6.945 -0.0350 -0.3292 -0.0937
  216PNCE   C3B 1942  16.075   2.539   6.536  0.0672  0.1242 -0.1743
  216PNCE   D4B 1943  15.599   2.489   6.370 -0.1214  0.2363 -0.0647
  216PNCE   C5B 1944  15.313   2.637   6.613  0.2430  0.1902 -0.3951
  216PNCE   C6B 1945  14.997   2.747   6.795  0.2183  0.1537 -0.1687
  217PNCE   AM1 1946  11.733   7.948   8.764  0.0581  0.1127  0.1938
  217PNCE   AM2 1947  11.635   7.762   8.512 -0.0615  0.3514 -0.3429
  217PNCE   T1A 1948  11.817   8.409   8.694 -0.1759 -0.0343 -0.2736
  217PNCE   C2A 1949  11.498   8.686   8.685  0.2764  0.0155 -0.0405
  217PNCE   C3A 1950  11.056   8.810   8.593 -0.0487  0.1799 -0.0655
  217PNCE   C1B 1951  11.819   8.007   8.134 -0.1252 -0.1569  0.2673
  217PNCE   C2B 1952  11.774   8.006   7.669  0.2896 -0.0186  0.0668
  217PNCE   C3B 1953  12.127   7.844   7.435  0.0184 -0.2396  0.2141
  217PNCE   D4B 1954  12.174   7.870   6.945 -0.1721 -0.0587  0.1212
  217PNCE   C5B 1955  12.466   7.569   6.800  0.0387 -0.0119 -0.1747
  217PNCE   C6B 1956  12.606   7.450   6.454  0.0703 -0.2356 -0.1578
  218PNCE   AM1 1957   2.350   4.508   4.331 -0.0061  0.1134  0.1252
  218PNCE   AM2 1958   2.634   4.505   4.550  0.0784  0.0825  0.1577
  218PNCE   T1A 1959   2.218   4.196   4.543  0.1126  0.0309  0.0650
  218PNCE   C2A 1960   2.096   3.864   4.711  0.0745  0.1153  0.1768
  218PNCE   C3A 1961   2.392   3.540   5.026 -0.0707  0.0672  0.0425
  218PNCE   C1B 1962   3.041   4.254   4.522  0.1290 -0.4932  0.1141
  218PNCE   C2B 1963   3.095   3.891   4.691  0.1668  0.1903  0.3904
  218PNCE   C3B 1964   3.011   3.619   5.012  0.0164  0.3481 -0.1795
  218PNCE   D4B 1965   2.735   3.484   5.359  0.3665  0.0626 -0.2711
  218PNCE   C5B 1966   2.436   3.220   5.429 -0.2373 -0.2455 -0.0777
  218PNCE   C6B 1967   2.252   2.917   5.629  0.0121 -0.0001  0.0693
  219CHOL   ROH 1968   8.401   9.423   9.015  0.1449  0.2354  0.0772
  219CHOL    R1 1969   8.460   9.613   8.814  0.0940  0.1496 -0.0192
  219CHOL    R2 1970   8.643   9.564   8.612  0.0993  0.0922  0.0008
  219CHOL    R3 1971   8.434   9.630   8.451  0.0793 -0.0365 -0.0281
  219CHOL    R4 1972   8.644   9.542   8.267  0.0736 -0.1416  0.0136
  219CHOL    R5 1973   8.536   9.731   8.259  0.0546 -0.1555 -0.1056
  219CHOL    C1 1974   8.448   9.591   7.915  0.0399 -0.3985 -0.0060
  219CHOL    C2 1975   8.278   9.726   7.663 -0.3764  0.2530  0.0198
  220PNCE   AM1 1976   0.156   0.247   8.298  0.0559 -0.0824 -0.4995
  220PNCE   AM2 1977   0.058   0.561   8.307 -0.0488  0.1295 -0.1942
  220PNCE   T1A 1978   0.398   0.274   7.919 -0.1926 -0.0448 -0.0007
  220PNCE   C2A 1979   0.293   0.277   7.479  0.2418  0.0143 -0.3877
  220PNCE   C3A 1980   0.359   0.235   7.048  0.2689  0.0334  0.2117
  220PNCE   C1B 1981  -0.024   0.529   7.947 -0.3088  0.0562  0.1398
  220PNCE   C2B 1982  -0.129   0.675   7.541  0.2021  0.3435 -0.0497
  220PNCE   C3B 1983  -0.322   0.796   7.201 -0.2116 -0.0068 -0.1216
  220PNCE   D4B 1984  -0.384   0.798   6.776  0.2631 -0.0866 -0.0607
  220PNCE   C5B 1985  -0.472   1.151   6.567 -0.3144 -0.0954 -0.1164
  220PNCE   C6B 1986  -0.782   1.374   6.282  0.1548  0.0573  0.1724
  221CHOL   ROH 1987  11.488   8.074   5.364  0.1139  0.3998  0.0463
  221CHOL    R1 1988  11.538   7.982   5.627  0.1758  0.4384  0.0474
  221CHOL    R2 1989  11.622   7.724   5.681 -0.0895  0.3598  0.0852
  221CHOL    R3 1990  11.824   7.851   5.811  0.1462  0.1738 -0.0882
  221CHOL    R4 1991  11.786   7.601   5.959 -0.1554  0.3282  0.1111
  221CHOL    R5 1992  11.786   7.803   6.042  0.1629  0.3975 -0.0345
  221CHOL    C1 1993  12.071   7.649   6.243  0.0274  0.1352 -0.0365
  221CHOL    C2 1994  12.024   7.501   6.617  0.1119  0.1497 -0.0626
  222CHOL   ROH 1995   7.770   1.884   7.980  0.0160 -0.2230 -0.0783
  222CHOL    R1 1996   7.700   2.021   7.743  0.0361 -0.0703  0.0021
  222CHOL    R2 1997   7.888   2.119   7.566  0.0504 -0.0722  0.0146
  222CHOL    R3 1998   7.748   1.972   7.385 -0.0546  0.0836 -0.0319
  222CHOL    R4 1999   7.940   2.125   7.224  0.1458 -0.1017  0.0282
  222CHOL    R5 2000   7.723   2.118   7.197  0.1440  0.1225 -0.0289
  222CHOL    C1 2001   7.838   1.991   6.856  0.1026  0.0273 -0.0075
  222CHOL    C2 2002   7.681   1.936   6.572 -0.2356 -0.2440  0.0361
  223PNCE   AM1 2003  11.674  14.424   7.337 -0.4234  0.0632  0.0210
  223PNCE   AM2 2004  11.390  14.459   7.247  0.0753  0.0179  0.1662
  223PNCE   T1A 2005  11.649  14.392   6.840 -0.1614 -0.0347  0.0073
  223PNCE   C2A 2006  11.860  14.379   6.375 -0.1249 -0.1115  0.3385
  223PNCE   C3A 2007  12.171  14.144   6.441 -0.0015  0.1398  0.2212
  223PNCE   C1B 2008  11.174  14.396   6.859  0.1856  0.0004  0.1242
  223PNCE   C2B 2009  11.210  14.187   6.538 -0.0348 -0.3229 -0.0330
  223PNCE   C3B 2010  11.119  14.180   6.100 -0.0654  0.2558 -0.0295
  223PNCE   D4B 2011  10.792  14.066   5.840 -0.0296 -0.1677 -0.1835
  223PNCE   C5B 2012  10.826  13.545   5.690 -0.3418  0.0751 -0.0287
  223PNCE   C6B 2013  11.132  13.381   5.402  0.0438 -0.1355 -0.2783
  224XCA    COO 2014   0.283   7.055   8.624 -0.1224  0.1320 -0.4128
  224XCA     C1 2015   0.531   6.910   8.290  0.1392  0.0793 -0.0996
  224XCA     C2 2016   0.610   6.575   7.978  0.0015 -0.2333 -0.0143
  224XCA     C3 2017   0.928   6.665   7.663  0.1134 -0.2138 -0.1941
  224XCA     C4 2018   1.320   6.782   7.772 -0.1762 -0.0339 -0.0539
  224XCA     C5 2019   1.698   6.648   7.581 -0.0426  0.0295  0.1936
  224XCA     C6 2020   1.947   6.744   7.323  0.2407 -0.1201 -0.3546
  225CHOL   ROH 2021  15.430   4.442   4.401  0.1225 -0.4063 -0.4002
  225CHOL    R1 2022  15.386   4.168   4.453  0.2055 -0.3790 -0.1664
  225CHOL    R2 2023  15.467   4.045   4.686 -0.0137 -0.0932  0.0705
  225CHOL    R3 2024  15.206   3.971   4.700  0.0039 -0.2097 -0.1757
  225CHOL    R4 2025  15.347   3.777   4.869 -0.0690 -0.1391 -0.0332
  225CHOL    R5 2026  15.212   3.731   4.704  0.1074 -0.2065 -0.1612
  225CHOL    C1 2027  15.032   3.552   4.989 -0.0845 -0.2752 -0.3246
  225CHOL    C2 2028  14.745   3.385   4.949 -0.1700  0.2278 -0.1412
  226PNCE   AM1 2029  11.612   6.890   7.898  0.1631 -0.1297 -0.3446
  226PNCE   AM2 2030  11.302   6.796   7.846 -0.0799 -0.0996 -0.3968
  226PNCE   T1A 2031  11.686   7.007   7.453  0.1611 -0.0191  0.1185
  226PNCE   C2A 2032  11.657   7.121   7.081 -0.2139 -0.2542  0.3407
  226PNCE   C3A 2033  11.521   7.471   6.823  0.1540  0.0880  0.5767
  226PNCE   C1B 2034  11.033   6.492   7.547 -0.1060  0.1397 -0.1618
  226PNCE   C2B 2035  10.884   6.617   7.191  0.1908  0.0273 -0.2378
  226PNCE   C3B 2036  10.444   6.663   6.964 -0.1000  0.1078  0.2928
  226PNCE   D4B 2037  10.048   6.884   6.649 -0.2123 -0.2230 -0.0256
  226PNCE   C5B 2038   9.848   7.171   6.325 -0.0640  0.0056  0.0031
  226PNCE   C6B 2039   9.567   7.325   6.125  0.0335  0.1603  0.0178
  227XCA    COO 2040   4.435   1.925   7.329 -0.3351 -0.2059  0.2002
  227XCA     C1 2041   4.380   2.026   6.960  0.2534  0.0737  0.3123
  227XCA     C2 2042   4.506   1.861   6.453  0.0172  0.3078 -0.1318
  227XCA     C3 2043   4.652   1.509   6.132  0.1841 -0.1825 -0.1150
  227XCA     C4 2044   5.018   1.368   5.968  0.0840 -0.0810 -0.0140
  227XCA     C5 2045   5.304   1.332   6.046 -0.1857  0.1236 -0.1183
  227XCA     C6 2046   5.654   1.553   6.169  0.0677  0.1618  0.0660
  228PNCE   AM1 2047   8.961  15.158   7.809  0.0260 -0.2412  0.0157
  228PNCE   AM2 2048   9.328  15.136   7.762 -0.0119  0.1581 -0.0333
  228PNCE   T1A 2049   8.986  14.913   7.415 -0.2221  0.0061 -0.2246
  228PNCE   C2A 2050   8.843  14.954   7.008  0.0747 -0.0534 -0.1635
  228PNCE   C3A 2051   8.543  14.978   6.658 -0.0222  0.2626  0.2169
  228PNCE   C1B 2052   9.489  15.119   7.277 -0.0620  0.0924  0.1903
  228PNCE   C2B 2053   9.303  15.169   6.886 -0.4060 -0.0692 -0.1242
  228PNCE   C3B 2054   8.997  15.104   6.526  0.0879 -0.2779 -0.4056
  228PNCE   D4B 2055   8.967  15.056   6.099 -0.2137 -0.1386  0.2263
  228PNCE   C5B 2056   9.381  14.994   5.872 -0.1689  0.1891  0.0456
  228PNCE   C6B 2057   9.785  15.063   5.883 -0.2402 -0.1352  0.2092
  229CHOL   ROH 2058   0.938   1.046   7.760 -0.0508  0.1479  0.0693
  229CHOL    R1 2059   0.745   1.020   7.555 -0.1079  0.2538  0.1096
  229CHOL    R2 2060   0.616   1.237   7.443  0.2018  0.3504 -0.0632
  229CHOL    R3 2061   0.708   1.131   7.210  0.0279  0.0131  0.0139
  229CHOL    R4 2062   0.503   1.325   7.128  0.2665  0.2218 -0.1239
  229CHOL    R5 2063   0.513   1.114   7.072 -0.0231  0.1478  0.0628
  229CHOL    C1 2064   0.524   1.277   6.727  0.1410 -0.1698 -0.0868
  229CHOL    C2 2065   0.253   1.586   6.578 -0.1726  0.0409 -0.0160
  230XCA    COO 2066   2.271   1.665   7.752  0.1180 -0.0041 -0.0046
  230XCA     C1 2067   2.001   1.524   7.460  0.3132  0.1795 -0.1545
  230XCA     C2 2068   1.937   1.047   7.542  0.0814 -0.0875  0.1839
  230XCA     C3 2069   1.939   0.690   7.276  0.0188 -0.1015  0.1946
  230XCA     C4 2070   2.010   0.452   6.990 -0.2188  0.1163 -0.1261
  230XCA     C5 2071   2.115   0.487   6.550 -0.0042  0.1710  0.1564
  230XCA     C6 2072   2.417   0.588   6.235  0.0302  0.0794  0.0739
  231CHOL   ROH 2073   2.704  15.746   7.110 -0.0350  0.0098  0.0594
  231CHOL    R1 2074   2.499  15.691   6.923  0.0295 -0.0187 -0.0046
  231CHOL    R2 2075   2.550  15.590   6.671  0.1129 -0.1133  0.0477
  231CHOL    R3 2076   2.373  15.398   6.746  0.0516 -0.0575  0.0438
  231CHOL    R4 2077   2.361  15.399   6.453  0.1518 -0.1381  0.0369
  231CHOL    R5 2078   2.193  15.419   6.590  0.1086 -0.0669 -0.0245
  231CHOL    C1 2079   2.085  15.108   6.398  0.1169 -0.1004  0.0269
  231CHOL    C2 2080   2.025  14.809   6.296  0.1481 -0.0033 -0.0340
  232PNCE   AM1 2081   6.392  14.457   9.542 -0.1744 -0.1841 -0.0451
  232PNCE   AM2 2082   6.273  14.116   9.486  0.1391 -0.1145 -0.1644
  232PNCE   T1A 2083   6.717  14.505   9.191 -0.0374  0.1131  0.0291
  232PNCE   C2A 2084   7.017  14.472   8.907  0.0524 -0.1141  0.0510
  232PNCE   C3A 2085   6.856  14.520   8.515  0.2390 -0.1500  0.2417
  232PNCE   C1B 2086   5.879  13.898   9.223  0.2698 -0.0511 -0.0143
  232PNCE   C2B 2087   5.547  13.645   9.243 -0.3652 -0.1944 -0.1102
  232PNCE   C3B 2088   5.222  13.410   9.335  0.0572 -0.0300 -0.1749
  232PNCE   D4B 2089   5.214  13.076   9.163 -0.1788 -0.0476  0.0501
  232PNCE   C5B 2090   5.503  12.883   8.865 -0.0708 -0.0232  0.0041
  232PNCE   C6B 2091   5.842  12.797   8.467 -0.0949 -0.0107  0.2399
  233PNCE   AM1 2092  11.498   3.485   7.962 -0.2769 -0.0722 -0.2437
  233PNCE   AM2 2093  11.830   3.392   7.894 -0.0048 -0.1133 -0.5681
  233PNCE   T1A 2094  11.324   3.342   7.619 -0.0199  0.1128 -0.4857
  233PNCE   C2A 2095  11.174   3.038   7.345  0.0098  0.2190  0.0228
  233PNCE   C3A 2096  11.068   2.943   6.899 -0.1526  0.0495 -0.0016
  233PNCE   C1B 2097  11.783   3.274   7.460 -0.0937  0.0102  0.1626
  233PNCE   C2B 2098  12.056   2.931   7.429 -0.1933  0.0280  0.0884
  233PNCE   C3B 2099  12.005   2.552   7.752 -0.1507  0.3016 -0.4075
  233PNCE   D4B 2100  11.680   2.342   8.031 -0.1798 -0.1489  0.0186
  233PNCE   C5B 2101  11.205   2.339   7.967  0.3284 -0.0362 -0.1280
  233PNCE   C6B 2102  10.798   2.302   8.262  0.2332  0.2161 -0.3286
  234CHOL   ROH 2103  12.637   5.263   4.198 -0.2140 -0.0340 -0.0076
  234CHOL    R1 2104  12.574   5.249   4.474  0.0009 -0.0064  0.0433
  234CHOL    R2 2105  12.446   5.031   4.587  0.0382  0.0351  0.1501
  234CHOL    R3 2106  12.661   5.034   4.754  0.1682 -0.0142 -0.0105
  234CHOL    R4 2107  12.475   4.842   4.874  0.1650  0.0791  0.1682
  234CHOL    R5 2108  12.566   5.013   4.973  0.3127  0.0710  0.0683
  234CHOL    C1 2109  12.693   4.733   5.198  0.3609  0.0585  0.0279
  234CHOL    C2 2110  12.907   4.701   5.506 -0.4137 -0.2271 -0.2380
  235PNCE   AM1 2111  13.030  12.133   8.326 -0.0101  0.3678 -0.1439
  235PNCE   AM2 2112  13.283  12.378   8.401 -0.2883  0.0628 -0.1456
  235PNCE   T1A 2113  12.863  12.248   7.935  0.0423 -0.0530 -0.0905
  235PNCE   C2A 2114  12.685  12.322   7.552  0.0581 -0.2291  0.4859
  235PNCE   C3A 2115  12.435  12.503   7.218  0.0347  0.0616 -0.0917
  235PNCE   C1B 2116  13.411  12.125   8.020 -0.1433 -0.0611 -0.0648
  235PNCE   C2B 2117  13.533  12.230   7.552 -0.0110  0.1554  0.2670
  235PNCE   C3B 2118  13.527  12.156   7.076 -0.2088 -0.2137 -0.2555
  235PNCE   D4B 2119  13.869  12.173   6.772  0.1160 -0.1513 -0.2766
  235PNCE   C5B 2120  13.917  12.002   6.351  0.1034  0.0354  0.0167
  235PNCE   C6B 2121  14.253  11.838   6.118 -0.2367 -0.0158 -0.3283
  236XCA    COO 2122  12.175   9.305   4.592 -0.0280  0.0620  0.2392
  236XCA     C1 2123  12.104   9.095   5.079 -0.2523 -0.0424 -0.3336
  236XCA     C2 2124  12.110   8.992   5.452  0.2017 -0.0071  0.2548
  236XCA     C3 2125  12.119   8.625   5.834  0.1107  0.1262 -0.1565
  236XCA     C4 2126  12.252   8.645   6.224 -0.0355 -0.0370  0.0330
  236XCA     C5 2127  12.414   9.000   6.468  0.0282  0.3426 -0.1908
  236XCA     C6 2128  12.441   9.066   6.945  0.0262  0.1512  0.1200
  237CHOL   ROH 2129  15.786  10.008   4.960 -0.0893  0.0683 -0.0422
  237CHOL    R1 2130  15.508  10.026   5.010 -0.1135  0.1698 -0.2039
  237CHOL    R2 2131  15.405  10.162   5.227 -0.1730 -0.0222 -0.1103
  237CHOL    R3 2132  15.260  10.292   5.036  0.0245  0.2867 -0.0582
  237CHOL    R4 2133  15.191  10.427   5.287 -0.1720 -0.0641  0.0862
  237CHOL    R5 2134  15.052  10.341   5.143 -0.0629  0.1699 -0.1708
  237CHOL    C1 2135  14.931  10.703   5.143  0.0140  0.2013  0.2493
  237CHOL    C2 2136  14.470  10.732   5.126 -0.2185 -0.2295  0.2237
  238CHOL   ROH 2137  15.754  15.741   4.374 -0.1678 -0.0900 -0.0026
  238CHOL    R1 2138  15.774  15.850   4.634 -0.0352 -0.1114 -0.0028
  238CHOL    R2 2139  15.553  15.936   4.777  0.0558  0.0673  0.0370
  238CHOL    R3 2140  15.649  15.766   4.966 -0.0502 -0.0186  0.0143
  238CHOL    R4 2141  15.438  15.917   5.102  0.2351  0.2918  0.1167
  238CHOL    R5 2142  15.644  15.894   5.169  0.2472  0.0338 -0.0089
  238CHOL    C1 2143  15.460  15.746   5.469  0.2398  0.3421  0.1418
  238CHOL    C2 2144  15.261  15.712   5.783  0.0511 -0.0257  0.0376
  239CHOL   ROH 2145  11.711  15.350   3.826 -0.1032 -0.1490  0.0291
  239CHOL    R1 2146  11.818  15.316   4.086  0.0464  0.1280  0.0108
  239CHOL    R2 2147  11.755  15.485   4.296 -0.1262  0.1483 -0.0340
  239CHOL    R3 2148  11.687  15.253   4.420  0.2499  0.0942  0.0800
  239CHOL    R4 2149  11.741  15.442   4.638 -0.0774  0.2618 -0.0188
  239CHOL    R5 2150  11.830  15.244   4.612  0.2428  0.4069  0.0870
  239CHOL    C1 2151  11.668  15.199   4.955  0.3040  0.2773  0.0970
  239CHOL    C2 2152  11.719  15.190   5.320 -0.2016  0.0608 -0.0298
  240XCA    COO 2153  14.528   0.840   8.008  0.1709  0.1528  0.0922
  240XCA     C1 2154  14.737   0.976   7.644  0.1993 -0.1150  0.1023
  240XCA     C2 2155  14.762   1.311   7.394  0.1886 -0.2953  0.0809
  240XCA     C3 2156  14.625   1.459   6.988  0.2182  0.0654 -0.0058
  240XCA     C4 2157  14.927   1.764   6.755 -0.1510 -0.2703 -0.1291
  240XCA     C5 2158  15.148   1.907   6.503 -0.2014 -0.1231  0.0079
  240XCA     C6 2159  15.154   2.205   6.344 -0.1309 -0.0362 -0.2513
  241PNCE   AM1 2160  12.873   9.731   8.673 -0.0992  0.2142 -0.0043
  241PNCE   AM2 2161  13.197   9.717   8.614  0.2642 -0.4159 -0.0088
  241PNCE   T1A 2162  12.883   9.376   8.248  0.1257 -0.0579  0.2877
  241PNCE   C2A 2163  12.993   9.279   7.781 -0.0644 -0.1093 -0.0466
  241PNCE   C3A 2164  13.060   9.354   7.430 -0.1541  0.0128 -0.0765
  241PNCE   C1B 2165  13.071   9.815   8.200 -0.1088 -0.0888 -0.0335
  241PNCE   C2B 2166  12.988   9.801   7.768  0.0939 -0.2693  0.2487
  241PNCE   C3B 2167  12.759   9.946   7.418 -0.2688  0.2119 -0.1037
  241PNCE   D4B 2168  12.437   9.983   7.097  0.0007 -0.0164  0.2833
  241PNCE   C5B 2169  12.050   9.829   7.076  0.1617 -0.3418  0.2606
  241PNCE   C6B 2170  12.055   9.407   7.135 -0.1846  0.0448  0.2814
  242CHOL   ROH 2171  14.760   6.506   5.836 -0.0243 -0.2485 -0.2084
  242CHOL    R1 2172  14.694   6.405   6.092  0.0994 -0.1139 -0.1224
  242CHOL    R2 2173  14.578   6.158   6.130  0.0451 -0.0628  0.0587
  242CHOL    R3 2174  14.789   6.119   6.296  0.1350 -0.0518 -0.0515
  242CHOL    R4 2175  14.554   6.051   6.458  0.2279 -0.1210  0.0543
  242CHOL    R5 2176  14.711   6.193   6.510  0.2277 -0.1013 -0.0001
  242CHOL    C1 2177  14.739   5.953   6.805  0.4188 -0.1445 -0.0517
  242CHOL    C2 2178  14.929   5.988   7.244  0.1613  0.0526 -0.1050
  243XCA    COO 2179  13.818  13.638   7.555 -0.0899  0.3855  0.0661
  243XCA     C1 2180  13.761  13.431   7.174  0.0708  0.1013 -0.0013
  243XCA     C2 2181  14.012  13.462   6.877 -0.0413 -0.0474  0.0495
  243XCA     C3 2182  14.122  13.221   6.552 -0.1333  0.0902 -0.2390
  243XCA     C4 2183  13.852  13.149   6.203  0.0888  0.0063 -0.2026
  243XCA     C5 2184  13.609  13.421   6.132  0.2331 -0.1500 -0.1560
  243XCA     C6 2185  13.389  13.783   5.772 -0.2522 -0.0393 -0.0166
  244PNCE   AM1 2186   8.901   9.836   9.096 -0.0232 -0.0045  0.1383
  244PNCE   AM2 2187   8.470   9.893   9.179 -0.2933  0.0333  0.1100
  244PNCE   T1A 2188   9.128   9.493   8.794 -0.1850  0.2235  0.0902
  244PNCE   C2A 2189   9.319   9.228   8.311  0.0365  0.0695  0.2554
  244PNCE   C3A 2190   9.306   9.123   7.937  0.1358 -0.3000 -0.0500
  244PNCE   C1B 2191   8.625  10.009   8.746  0.2131  0.1331 -0.0474
  244PNCE   C2B 2192   8.673  10.167   8.340  0.6362 -0.2940 -0.0773
  244PNCE   C3B 2193   8.582  10.097   7.887 -0.2665 -0.1602  0.0807
  244PNCE   D4B 2194   8.700  10.065   7.514  0.0518 -0.1254  0.0851
  244PNCE   C5B 2195   8.501  10.354   7.247 -0.0330  0.0175  0.0892
  244PNCE   C6B 2196   8.683  10.604   7.029 -0.1494  0.1985  0.0083
  245PNCE   AM1 2197   2.141   4.177   8.642 -0.0692 -0.2228 -0.3412
  245PNCE   AM2 2198   2.294   4.014   8.388  0.1104  0.0384  0.1221
  245PNCE   T1A 2199   1.901   4.343   8.245 -0.1159 -0.0177  0.0441
  245PNCE   C2A 2200   1.715   4.535   7.823 -0.2764  0.0634 -0.1595
  245PNCE   C3A 2201   1.640   4.953   7.658  0.0954 -0.0115  0.1729
  245PNCE   C1B 2202   2.361   4.283   8.056 -0.3377 -0.3899 -0.0975
  245PNCE   C2B 2203   2.248   4.414   7.630  0.2225 -0.0547 -0.1622
  245PNCE   C3B 2204   1.931   4.637   7.420  0.1494 -0.1429  0.0491
  245PNCE   D4B 2205   1.590   4.772   7.224  0.0334 -0.0797 -0.1036
  245PNCE   C5B 2206   1.568   5.219   7.254 -0.0157 -0.2206 -0.0136
  245PNCE   C6B 2207   1.642   5.613   7.063 -0.1825 -0.1116 -0.0673
  246CHOL   ROH 2208   5.910  11.306   8.876  0.1186 -0.0925  0.0705
  246CHOL    R1 2209   6.081  11.471   8.722  0.1372 -0.0424  0.1456
  246CHOL    R2 2210   6.356  11.437   8.717  0.1080 -0.2254 -0.0519
  246CHOL    R3 2211   6.316  11.424   8.448 -0.0554  0.0926 -0.0491
  246CHOL    R4 2212   6.602  11.478   8.478 -0.0145 -0.0071 -0.1450
  246CHOL    R5 2213   6.461  11.592   8.358 -0.0654  0.1698  0.0638
  246CHOL    C1 2214   6.709  11.489   8.087 -0.2393  0.4187 -0.1964
  246CHOL    C2 2215   6.846  11.139   7.844 -0.1656 -0.0347 -0.0815
  247XCA    COO 2216  11.739   2.102   4.149 -0.0586 -0.0833 -0.0126
  247XCA     C1 2217  11.677   2.065   4.551  0.0420  0.1093 -0.3072
  247XCA     C2 2218  11.422   1.854   4.946  0.1104 -0.2658 -0.0846
  247XCA     C3 2219  11.528   2.058   5.339  0.3092  0.0862 -0.1734
  247XCA     C4 2220  11.229   2.405   5.564 -0.1525  0.5053 -0.0454
  247XCA     C5 2221  10.980   2.774   5.702  0.1511 -0.0263  0.0353
  247XCA     C6 2222  10.659   3.117   5.893 -0.2867  0.0876 -0.1852
  248CHOL   ROH 2223  10.784   3.402   4.660 -0.2099  0.0659  0.0994
  248CHOL    R1 2224  10.802   3.306   4.926  0.0695 -0.2598 -0.0278
  248CHOL    R2 2225  11.006   3.139   5.011  0.4427  0.0132 -0.3192
  248CHOL    R3 2226  11.039   3.331   5.201  0.1232 -0.1551 -0.0876
  248CHOL    R4 2227  11.211   3.112   5.288  0.2386 -0.0762 -0.1770
  248CHOL    R5 2228  11.057   3.210   5.406  0.0642 -0.3395 -0.1990
  248CHOL    C1 2229  11.360   3.276   5.628 -0.1800 -0.2863  0.1232
  248CHOL    C2 2230  11.597   3.364   5.922 -0.1227 -0.1710  0.3678
  249XCA    COO 2231   5.761  15.791   4.410  0.2230  0.0158  0.1709
  249XCA     C1 2232   6.092  15.792   4.657 -0.0891 -0.0643  0.0822
  249XCA     C2 2233   5.956  15.885   5.022  0.1167  0.3906 -0.3963
  249XCA     C3 2234   5.818  15.852   5.408  0.1167 -0.0655  0.1837
  249XCA     C4 2235   5.791  15.778   5.792  0.2265  0.0670  0.0749
  249XCA     C5 2236   6.046  15.882   6.079 -0.0463  0.2893 -0.0166
  249XCA     C6 2237   6.213  16.317   6.123 -0.1660 -0.0321  0.0894
  250CHOL   ROH 2238   3.767   4.315   5.040 -0.1533 -0.1411 -0.0194
  250CHOL    R1 2239   3.796   4.360   5.317  0.1959 -0.0242 -0.0705
  250CHOL    R2 2240   3.897   4.595   5.420 -0.1414  0.2228 -0.2877
  250CHOL    R3 2241   3.666   4.594   5.563  0.0721 -0.2510  0.0847
  250CHOL    R4 2242   3.844   4.777   5.709 -0.1862  0.4874 -0.4595
  250CHOL    R5 2243   3.738   4.605   5.792  0.4306  0.2750 -0.0335
  250CHOL    C1 2244   3.595   4.883   6.011 -0.0118  0.1966 -0.2098
  250CHOL    C2 2245   3.485   5.051   6.408 -0.5652 -0.2895 -0.3604
  251XCA    COO 2246   0.704   2.682   4.486  0.1521 -0.1412 -0.1848
  251XCA     C1 2247   0.671   2.728   4.853  0.1929  0.2668 -0.0364
  251XCA     C2 2248   0.506   2.833   5.288 -0.0062  0.0266 -0.0440
  251XCA     C3 2249   0.761   2.947   5.574  0.0639 -0.0587 -0.0541
  251XCA     C4 2250   1.195   2.921   5.684 -0.1094  0.3504  0.2353
  251XCA     C5 2251   1.480   3.098   6.053  0.0858 -0.0203  0.0374
  251XCA     C6 2252   1.627   3.466   6.291  0.2374 -0.0476 -0.2319
  252XCA    COO 2253   9.372  11.236   9.180 -0.0099  0.0792 -0.2041
  252XCA     C1 2254   9.591  11.177   8.718  0.6137 -0.0115 -0.2273
  252XCA     C2 2255   9.549  11.401   8.276  0.1930 -0.1787  0.0771
  252XCA     C3 2256   9.680  11.390   7.977  0.1772  0.4799  0.1549
  252XCA     C4 2257   9.351  11.249   7.724 -0.2045 -0.1172  0.0668
  252XCA     C5 2258   8.981  11.262   7.628  0.1026 -0.1474  0.0266
  252XCA     C6 2259   8.705  11.212   7.887  0.2308 -0.2285 -0.3300
  253PNCE   AM1 2260  10.954   7.443   8.389  0.0347 -0.1313 -0.0229
  253PNCE   AM2 2261  11.107   7.671   8.413 -0.0503  0.0201  0.1664
  253PNCE   T1A 2262  10.839   7.518   7.989  0.0865  0.1554  0.0686
  253PNCE   C2A 2263  10.759   7.683   7.608 -0.1426 -0.1664  0.1369
  253PNCE   C3A 2264  10.821   7.947   7.264 -0.2073  0.0846 -0.1354
  253PNCE   C1B 2265  11.168   8.084   8.264 -0.3141  0.2880  0.0514
  253PNCE   C2B 2266  11.244   8.556   8.236 -0.0095  0.0486 -0.3069
  253PNCE   C3B 2267  10.941   8.985   8.148  0.2640  0.1363  0.0143
  253PNCE   D4B 2268  11.065   9.462   8.275 -0.0828 -0.2943 -0.2492
  253PNCE   C5B 2269  10.854   9.645   7.946  0.2139 -0.1713  0.0892
  253PNCE   C6B 2270  11.069   9.824   7.605  0.0699 -0.0903  0.1516
  254XCA    COO 2271  10.665   4.338   8.261  0.1211 -0.1014  0.2823
  254XCA     C1 2272  11.017   4.163   8.005 -0.1166  0.1082 -0.1447
  254XCA     C2 2273  11.125   3.796   7.687 -0.2464 -0.1259  0.1638
  254XCA     C3 2274  11.175   3.732   7.289 -0.1686 -0.1233  0.1012
  254XCA     C4 2275  11.320   3.402   7.066 -0.1438 -0.2028 -0.3291
  254XCA     C5 2276  11.401   3.177   6.599 -0.1283  0.1057 -0.1692
  254XCA     C6 2277  11.728   2.950   6.397  0.0217 -0.0218  0.2485
  255CHOL   ROH 2278   8.289  14.801   8.501  0.0266 -0.2309  0.0231
  255CHOL    R1 2279   8.307  14.732   8.227  0.0235 -0.0744 -0.0176
  255CHOL    R2 2280   8.507  14.827   8.062  0.1409 -0.1412  0.0842
  255CHOL    R3 2281   8.547  14.563   8.012 -0.0756 -0.1464 -0.0726
  255CHOL    R4 2282   8.646  14.701   7.772  0.0912 -0.0786  0.0330
  255CHOL    R5 2283   8.499  14.540   7.778 -0.0497  0.0416 -0.0983
  255CHOL    C1 2284   8.765  14.380   7.556 -0.1410 -0.0470 -0.1439
  255CHOL    C2 2285   8.795  14.433   7.193  0.2726 -0.2727 -0.0999
  256PNCE   AM1 2286   5.892   9.854   8.933  0.0551 -0.0312  0.1995
  256PNCE   AM2 2287   6.077  10.073   9.001 -0.0967 -0.0171  0.2336
  256PNCE   T1A 2288   5.629   9.913   8.523  0.0465 -0.0439 -0.0522
  256PNCE   C2A 2289   5.563  10.113   8.226 -0.1293  0.3120 -0.1820
  256PNCE   C3A 2290   5.677  10.059   7.740  0.1941 -0.2949  0.1307
  256PNCE   C1B 2291   5.909  10.279   8.561 -0.0647  0.0216  0.1661
  256PNCE   C2B 2292   6.048  10.275   8.112  0.2451 -0.0894  0.2464
  256PNCE   C3B 2293   6.038  10.378   7.674  0.3055 -0.4100 -0.2140
  256PNCE   D4B 2294   6.009  10.519   7.267  0.1831 -0.0390  0.1176
  256PNCE   C5B 2295   5.847  10.319   6.906  0.1119 -0.0063 -0.0701
  256PNCE   C6B 2296   6.063  10.099   6.630  0.0080 -0.2371  0.0679
  257PNCE   AM1 2297  15.654  11.828   8.469  0.0059  0.2571  0.0771
  257PNCE   AM2 2298  15.691  11.579   8.367  0.0438  0.0803 -0.0044
  257PNCE   T1A 2299  16.094  11.960   8.308  0.0932  0.4237 -0.1644
  257PNCE   C2A 2300  16.061  12.061   7.882 -0.1611 -0.0494  0.2700
  257PNCE   C3A 2301  15.710  11.903   7.699 -0.2064  0.0284  0.0976
  257PNCE   C1B 2302  16.051  11.507   8.099  0.0141  0.1948 -0.0985
  257PNCE   C2B 2303  16.316  11.414   7.667  0.0652 -0.0984 -0.3474
  257PNCE   C3B 2304  16.104  11.298   7.237  0.5214  0.0831  0.0434
  257PNCE   D4B 2305  16.312  11.293   6.830  0.3112  0.1367 -0.0010
  257PNCE   C5B 2306  16.166  10.989   6.546 -0.2500 -0.4510  0.0176
  257PNCE   C6B 2307  16.238  10.523   6.788 -0.0703 -0.2138  0.3133
  258PNCE   AM1 2308   1.658   0.057   8.030 -0.1586  0.1526  0.2951
  258PNCE   AM2 2309   2.020  -0.063   7.929  0.0286 -0.0069  0.1127
  258PNCE   T1A 2310   1.489   0.075   7.636  0.1441  0.0590 -0.1202
  258PNCE   C2A 2311   1.398   0.374   7.462  0.3601 -0.3854 -0.1024
  258PNCE   C3A 2312   1.472   0.833   7.462 -0.3628 -0.0143  0.1072
  258PNCE   C1B 2313   2.130  -0.330   7.663 -0.1989  0.0450 -0.2943
  258PNCE   C2B 2314   2.470  -0.352   7.453  0.3490  0.1743 -0.0147
  258PNCE   C3B 2315   2.523  -0.619   7.164  0.1483  0.1051 -0.1868
  258PNCE   D4B 2316   2.827  -0.920   7.109  0.0082  0.0285  0.2085
  258PNCE   C5B 2317   2.847  -0.799   6.729 -0.0940  0.1091  0.1210
  258PNCE   C6B 2318   2.595  -0.860   6.317  0.2034 -0.0108 -0.0557
  259CHOL   ROH 2319   3.531  14.132   4.387  0.1769  0.0293 -0.0230
  259CHOL    R1 2320   3.581  14.409   4.422  0.2573 -0.0255  0.3363
  259CHOL    R2 2321   3.383  14.599   4.398  0.4431  0.1193 -0.1563
  259CHOL    R3 2322   3.465  14.672   4.646 -0.2848 -0.1214  0.1852
  259CHOL    R4 2323   3.345  14.915   4.532  0.5576  0.1534 -0.2039
  259CHOL    R5 2324   3.546  14.896   4.618  0.2523 -0.2527  0.5141
  259CHOL    C1 2325   3.402  15.168   4.844 -0.0591 -0.0529  0.0889
  259CHOL    C2 2326   3.560  15.325   5.134  0.0141  0.0684  0.2238
  260XCA    COO 2327  11.366  13.555   3.501 -0.1557 -0.0222  0.0990
  260XCA     C1 2328  11.482  13.409   4.035  0.1891 -0.0954 -0.1195
  260XCA     C2 2329  11.799  13.295   4.465 -0.0532 -0.0584 -0.1684
  260XCA     C3 2330  12.040  13.386   4.700  0.1339 -0.0568 -0.2456
  260XCA     C4 2331  12.238  13.436   5.023 -0.2160 -0.2811 -0.1152
  260XCA     C5 2332  12.592  13.530   5.355  0.1129 -0.1489  0.4851
  260XCA     C6 2333  13.032  13.501   5.478 -0.2018  0.0449 -0.1434
  261PNCE   AM1 2334   1.436   4.947   9.000  0.0362 -0.1798  0.1175
  261PNCE   AM2 2335   1.371   4.658   8.984 -0.1803  0.0646 -0.0113
  261PNCE   T1A 2336   1.465   5.175   8.665 -0.0262  0.0644 -0.0839
  261PNCE   C2A 2337   1.340   5.391   8.252  0.0424  0.1072  0.1780
  261PNCE   C3A 2338   1.254   5.455   7.907 -0.1247 -0.2025  0.0104
  261PNCE   C1B 2339   1.535   4.649   8.503 -0.0780  0.1542  0.1129
  261PNCE   C2B 2340   1.388   4.819   8.073  0.1209  0.3401 -0.1100
  261PNCE   C3B 2341   0.970   5.104   8.003 -0.1931 -0.1126  0.2987
  261PNCE   D4B 2342   0.749   5.418   7.934 -0.4364 -0.0951  0.2168
  261PNCE   C5B 2343   0.868   5.834   7.882  0.0312  0.1494 -0.0971
  261PNCE   C6B 2344   1.070   6.236   7.958  0.0556 -0.0541  0.0066
  262CHOL   ROH 2345  14.447  12.093   4.331 -0.1024 -0.0320 -0.0563
  262CHOL    R1 2346  14.534  12.176   4.587 -0.0652 -0.0343 -0.0682
  262CHOL    R2 2347  14.360  12.266   4.782 -0.0283  0.0377 -0.0690
  262CHOL    R3 2348  14.479  12.073   4.932 -0.0811  0.0159 -0.0554
  262CHOL    R4 2349  14.243  12.154   5.087  0.0152  0.1916  0.0051
  262CHOL    R5 2350  14.449  12.148   5.158  0.0381  0.0993 -0.0656
  262CHOL    C1 2351  14.286  11.908   5.406 -0.0091  0.2609  0.0610
  262CHOL    C2 2352  13.995  11.838   5.715 -0.2533  0.0101  0.2669
  263PNCE   AM1 2353   2.724  12.497   8.576 -0.2364  0.0945 -0.1442
  263PNCE   AM2 2354   2.676  12.287   8.645  0.1434  0.0822 -0.2124
  263PNCE   T1A 2355   2.849  12.339   8.115  0.1595 -0.1311  0.0576
  263PNCE   C2A 2356   2.716  11.993   7.790 -0.1505  0.4054  0.4109
  263PNCE   C3A 2357   2.852  12.068   7.333 -0.1053  0.1099  0.0237
  263PNCE   C1B 2358   2.540  11.948   8.418 -0.0650  0.3327 -0.1397
  263PNCE   C2B 2359   2.295  11.814   8.197  0.1421  0.2457 -0.1204
  263PNCE   C3B 2360   2.157  11.705   7.681  0.0506 -0.0121 -0.3007
  263PNCE   D4B 2361   2.362  11.572   7.216  0.2287  0.0066  0.3153
  263PNCE   C5B 2362   2.723  11.699   6.913 -0.0269  0.1542  0.2233
  263PNCE   C6B 2363   2.852  11.995   6.532  0.0074 -0.1571  0.0006
  264CHOL   ROH 2364   5.720   1.631   7.821  0.0696 -0.0553  0.0664
  264CHOL    R1 2365   5.791   1.557   7.557 -0.1168 -0.0904  0.0237
  264CHOL    R2 2366   6.053   1.559   7.468 -0.1800 -0.0720 -0.1728
  264CHOL    R3 2367   5.998   1.301   7.401 -0.1992 -0.0900 -0.0860
  264CHOL    R4 2368   6.117   1.416   7.159 -0.2344 -0.1718 -0.1379
  264CHOL    R5 2369   5.926   1.312   7.173 -0.2337 -0.1599 -0.0767
  264CHOL    C1 2370   6.103   1.091   6.918 -0.2842 -0.2468 -0.0360
  264CHOL    C2 2371   6.175   0.920   6.658 -0.2178  0.3628 -0.0660
  265XCA    COO 2372   7.840   1.372   8.112 -0.1796  0.2506  0.1614
  265XCA     C1 2373   7.874   1.247   7.604  0.1187  0.0121 -0.2409
  265XCA     C2 2374   7.698   1.235   7.150  0.1982  0.0175 -0.4616
  265XCA     C3 2375   8.040   1.299   6.877 -0.1246  0.0017 -0.0554
  265XCA     C4 2376   8.188   1.622   6.690 -0.1986 -0.1607 -0.1248
  265XCA     C5 2377   8.160   2.053   6.466  0.1453 -0.1190  0.2653
  265XCA     C6 2378   8.635   2.069   6.160 -0.0743  0.1470 -0.1727
  266PNCE   AM1 2379   2.807   8.566   9.166  0.4971  0.0124 -0.0675
  266PNCE   AM2 2380   2.555   8.803   9.198 -0.2351 -0.1602 -0.2037
  266PNCE   T1A 2381   2.769   8.792   8.726 -0.0454  0.1189 -0.2054
  266PNCE   C2A 2382   2.791   8.816   8.274  0.5563 -0.0379  0.1539
  266PNCE   C3A 2383   2.526   9.021   7.906  0.0345 -0.0934 -0.1054
  266PNCE   C1B 2384   2.307   8.995   8.827 -0.0532 -0.4108  0.7585
  266PNCE   C2B 2385   2.300   8.936   8.348  0.0161 -0.0380  0.2311
  266PNCE   C3B 2386   2.134   8.718   8.031  0.0804 -0.1477 -0.0324
  266PNCE   D4B 2387   2.072   8.333   7.654  0.0686  0.0622  0.2479
  266PNCE   C5B 2388   1.932   7.890   7.736 -0.0634 -0.0223 -0.1106
  266PNCE   C6B 2389   2.267   7.593   7.662  0.0863 -0.0371  0.3895
  267PNCE   AM1 2390  10.063  11.805   8.938 -0.1369  0.1411  0.0421
  267PNCE   AM2 2391  10.262  11.836   8.686 -0.1775  0.2960  0.3064
  267PNCE   T1A 2392   9.713  12.160   8.878 -0.0022  0.0089 -0.3941
  267PNCE   C2A 2393   9.250  12.231   8.839  0.0282  0.3273 -0.0614
  267PNCE   C3A 2394   8.889  12.299   8.692 -0.0736  0.0876  0.1189
  267PNCE   C1B 2395  10.478  11.874   8.337 -0.0831  0.0148 -0.3518
  267PNCE   C2B 2396  10.646  11.675   8.028  0.2305 -0.0363  0.2336
  267PNCE   C3B 2397  10.622  11.491   7.701  0.0036  0.0644  0.0272
  267PNCE   D4B 2398  10.661  11.091   7.694  0.2109 -0.0834  0.4531
  267PNCE   C5B 2399  10.358  11.031   7.461 -0.0247  0.0501  0.0515
  267PNCE   C6B 2400  10.099  10.785   7.150 -0.1512  0.0763 -0.0155
  268CHOL   ROH 2401   3.139   8.109   5.446  0.0787 -0.0514  0.2146
  268CHOL    R1 2402   3.158   8.147   5.725  0.0875 -0.2178  0.2363
  268CHOL    R2 2403   2.950   8.246   5.876  0.2276  0.0842  0.2314
  268CHOL    R3 2404   2.990   8.020   6.022 -0.2072 -0.0630  0.1413
  268CHOL    R4 2405   2.883   8.216   6.214  0.2843  0.1217  0.2473
  268CHOL    R5 2406   3.068   8.100   6.235  0.0523 -0.2941  0.1421
  268CHOL    C1 2407   2.882   7.986   6.548 -0.0909  0.0054  0.1719
  268CHOL    C2 2408   2.793   8.308   6.706  0.1402  0.0728  0.0750
  269XCA    COO 2409  10.061   1.810   8.368  0.1419  0.0615 -0.1795
  269XCA     C1 2410   9.802   1.922   8.005  0.0261 -0.1007 -0.1439
  269XCA     C2 2411   9.758   2.161   7.692  0.0587 -0.1842  0.2914
  269XCA     C3 2412   9.747   1.962   7.286  0.3138  0.0904 -0.0190
  269XCA     C4 2413   9.725   1.889   6.928 -0.2477 -0.2026  0.0875
  269XCA     C5 2414   9.463   1.589   6.675 -0.0687 -0.0541 -0.3953
  269XCA     C6 2415   9.424   1.123   6.698 -0.2107  0.2272  0.1149
  270CHOL   ROH 2416   1.689  14.926   4.548 -0.1259 -0.2567  0.0894
  270CHOL    R1 2417   1.719  15.047   4.803 -0.1983 -0.1139  0.0299
  270CHOL    R2 2418   1.513  15.182   4.929 -0.3191 -0.3015  0.0222
  270CHOL    R3 2419   1.569  15.010   5.132 -0.0673 -0.1477  0.0885
  270CHOL    R4 2420   1.503  15.260   5.266 -0.2560 -0.1285 -0.0144
  270CHOL    R5 2421   1.683  15.143   5.294 -0.1232  0.0549 -0.0275
  270CHOL    C1 2422   1.550  15.145   5.652  0.0170  0.1167  0.0266
  270CHOL    C2 2423   1.691  15.086   6.039  0.4336  0.1981 -0.0249
  271XCA    COO 2424   3.790  14.355   4.048  0.2200  0.0863  0.1423
  271XCA     C1 2425   4.008  14.639   4.378 -0.0867 -0.0630 -0.1040
  271XCA     C2 2426   3.978  14.861   4.807 -0.3729  0.1924 -0.0650
  271XCA     C3 2427   3.746  14.874   5.078 -0.1842 -0.1862  0.1989
  271XCA     C4 2428   3.927  14.588   5.410 -0.1831  0.0715  0.0443
  271XCA     C5 2429   3.960  14.744   5.880  0.2717  0.0710  0.1845
  271XCA     C6 2430   4.033  15.136   6.143  0.3141  0.0636 -0.2480
  272PNCE   AM1 2431   0.656  15.646   8.390 -0.0924  0.1736  0.0315
  272PNCE   AM2 2432   0.538  15.813   8.209 -0.2094 -0.2821 -0.1087
  272PNCE   T1A 2433   0.675  15.345   7.933 -0.2237 -0.3060  0.0176
  272PNCE   C2A 2434   0.604  15.233   7.608  0.1122 -0.0717  0.0206
  272PNCE   C3A 2435   0.518  15.334   7.086 -0.1323 -0.0650  0.1462
  272PNCE   C1B 2436   0.471  15.733   7.726 -0.1065  0.0912 -0.2587
  272PNCE   C2B 2437   0.290  15.733   7.337 -0.1871 -0.3142 -0.1605
  272PNCE   C3B 2438   0.034  15.793   6.988 -0.0837 -0.0652 -0.2986
  272PNCE   D4B 2439   0.196  16.084   6.620 -0.2055 -0.0979 -0.1800
  272PNCE   C5B 2440   0.654  16.056   6.429  0.4470  0.2990 -0.2915
  272PNCE   C6B 2441   0.733  15.724   6.171  0.1164  0.2791  0.3740
  273CHOL   ROH 2442   1.317  15.056   8.080  0.0986  0.0095 -0.1928
  273CHOL    R1 2443   1.468  15.068   7.841 -0.0086 -0.0324 -0.2635
  273CHOL    R2 2444   1.419  14.902   7.626 -0.1847  0.0106 -0.2608
  273CHOL    R3 2445   1.402  15.136   7.489 -0.1464  0.0344 -0.2246
  273CHOL    R4 2446   1.495  14.941   7.291 -0.2215  0.0457 -0.2649
  273CHOL    R5 2447   1.589  15.132   7.340 -0.1700  0.0137 -0.2504
  273CHOL    C1 2448   1.522  15.185   6.968 -0.2069  0.0885 -0.2332
  273CHOL    C2 2449   1.694  15.363   6.616  0.0050 -0.3331 -0.0074
  274CHOL   ROH 2450   1.771   9.853   5.546  0.0060  0.0494  0.1861
  274CHOL    R1 2451   1.712   9.696   5.774 -0.1052  0.0414  0.1518
  274CHOL    R2 2452   1.904   9.623   5.958 -0.1693 -0.0819  0.1683
  274CHOL    R3 2453   1.731   9.736   6.135 -0.1407 -0.0272  0.1620
  274CHOL    R4 2454   1.924   9.591   6.302 -0.1455 -0.0287  0.1722
  274CHOL    R5 2455   1.707   9.572   6.308 -0.1500  0.0028  0.1915
  274CHOL    C1 2456   1.773   9.679   6.668 -0.1048  0.0537  0.1684
  274CHOL    C2 2457   1.596   9.547   7.005 -0.0359 -0.3592 -0.0770
  275CHOL   ROH 2458  15.083   6.225   6.019 -0.0885 -0.1451  0.0896
  275CHOL    R1 2459  15.189   6.319   6.264 -0.0404 -0.0621  0.0373
  275CHOL    R2 2460  15.119   6.209   6.508  0.0038  0.0248  0.0866
  275CHOL    R3 2461  15.388   6.182   6.536  0.0083  0.0299  0.0497
  275CHOL    R4 2462  15.286   6.200   6.810  0.0357  0.0149  0.0686
  275CHOL    R5 2463  15.443   6.322   6.722  0.0244  0.0254  0.0523
  275CHOL    C1 2464  15.635   6.168   7.013  0.0586  0.0139  0.0236
  275CHOL    C2 2465  15.867   5.856   7.028 -0.2235  0.2858 -0.3074
  276PNCE   AM1 2466   2.893  11.789   8.861 -0.1200 -0.3269  0.1787
  276PNCE   AM2 2467   2.911  11.490   8.915  0.1907 -0.1355 -0.0877
  276PNCE   T1A 2468   2.912  11.640   8.369 -0.0005 -0.0068 -0.0745
  276PNCE   C2A 2469   2.851  11.534   8.004  0.6392 -0.1360 -0.2914
  276PNCE   C3A 2470   2.623  11.536   7.586 -0.0653  0.3209 -0.0731
  276PNCE   C1B 2471   2.809  11.114   8.601 -0.1895  0.3775  0.2663
  276PNCE   C2B 2472   3.071  11.130   8.336 -0.1075 -0.0681  0.1507
  276PNCE   C3B 2473   3.371  11.529   8.114 -0.1288 -0.2175 -0.4344
  276PNCE   D4B 2474   3.705  11.782   8.420  0.2162  0.1799  0.3573
  276PNCE   C5B 2475   3.737  12.311   8.490 -0.0480  0.1112  0.1079
  276PNCE   C6B 2476   3.628  12.722   8.309  0.1488 -0.0886  0.3740
  277PNCE   AM1 2477   4.540   4.862   9.252 -0.1181  0.1394 -0.1789
  277PNCE   AM2 2478   4.918   4.955   9.193 -0.1771 -0.3424  0.1979
  277PNCE   T1A 2479   4.334   4.842   8.826 -0.0997 -0.1015  0.0068
  277PNCE   C2A 2480   4.130   4.900   8.500 -0.0971 -0.0441  0.1965
  277PNCE   C3A 2481   4.228   4.993   7.999  0.1936  0.3687  0.2097
  277PNCE   C1B 2482   4.838   4.852   8.750  0.2875  0.1860 -0.1114
  277PNCE   C2B 2483   4.888   4.449   8.525 -0.2308  0.1379 -0.2582
  277PNCE   C3B 2484   5.180   4.186   8.524 -0.0143 -0.1142  0.0723
  277PNCE   D4B 2485   5.481   4.070   8.260 -0.0076 -0.1524  0.2306
  277PNCE   C5B 2486   5.360   3.765   7.978 -0.0014 -0.0419  0.4610
  277PNCE   C6B 2487   5.511   3.409   7.735  0.1739 -0.2381  0.1615
  278PNCE   AM1 2488   4.625   7.187   9.070  0.1661  0.1178 -0.0060
  278PNCE   AM2 2489   4.714   7.403   8.920  0.1004 -0.1005  0.1943
  278PNCE   T1A 2490   4.507   7.012   8.752  0.1267  0.1441 -0.2764
  278PNCE   C2A 2491   4.407   6.773   8.462 -0.3535  0.1998  0.1104
  278PNCE   C3A 2492   4.284   6.801   8.093  0.2253  0.0132 -0.1091
  278PNCE   C1B 2493   4.673   7.522   8.481 -0.1571 -0.2946  0.2110
  278PNCE   C2B 2494   5.156   7.482   8.188 -0.0691 -0.2690 -0.0517
  278PNCE   C3B 2495   5.379   7.250   7.999  0.0613 -0.1905 -0.1298
  278PNCE   D4B 2496   5.773   7.326   7.821  0.3796 -0.2979 -0.2085
  278PNCE   C5B 2497   5.918   7.112   7.492 -0.1634 -0.1193 -0.0074
  278PNCE   C6B 2498   5.930   7.114   6.983  0.2629 -0.0660 -0.0149
  279CHOL   ROH 2499  12.317  10.421   6.341 -0.0605 -0.0721  0.1245
  279CHOL    R1 2500  12.113  10.613   6.299 -0.1742 -0.1684  0.2287
  279CHOL    R2 2501  11.933  10.683   6.496  0.0898 -0.0266  0.4259
  279CHOL    R3 2502  12.020  10.935   6.441 -0.0529 -0.0522  0.0506
  279CHOL    R4 2503  11.812  10.971   6.645  0.3555  0.0638  0.4719
  279CHOL    R5 2504  11.822  11.070   6.450 -0.0629 -0.0780  0.3636
  279CHOL    C1 2505  11.824  11.375   6.680  0.3762  0.0925  0.1463
  279CHOL    C2 2506  12.003  11.707   7.019 -0.1221  0.1518 -0.0380
  280PNCE   AM1 2507  15.016   3.721   8.240  0.0951  0.0640  0.1104
  280PNCE   AM2 2508  15.323   3.598   8.422 -0.1584 -0.0251 -0.0205
  280PNCE   T1A 2509  14.770   3.826   7.969  0.1128 -0.2134 -0.2246
  280PNCE   C2A 2510  14.734   3.974   7.561  0.0016  0.0488 -0.0942
  280PNCE   C3A 2511  14.818   3.990   7.174 -0.1196  0.1934  0.0898
  280PNCE   C1B 2512  15.604   3.521   8.135 -0.1881  0.0675  0.3124
  280PNCE   C2B 2513  15.772   3.414   7.621  0.0200 -0.0808 -0.1051
  280PNCE   C3B 2514  15.900   3.445   7.184  0.0944 -0.1112 -0.0552
  280PNCE   D4B 2515  16.030   3.374   6.780 -0.0682 -0.0944  0.0139
  280PNCE   C5B 2516  16.380   3.499   6.644  0.0537 -0.2728  0.1824
  280PNCE   C6B 2517  16.847   3.632   6.660  0.0301 -0.1788  0.0500
  281XCA    COO 2518  13.632  14.363   3.916  0.1554  0.1731 -0.2788
  281XCA     C1 2519  13.423  14.335   4.329  0.3922 -0.0066  0.3255
  281XCA     C2 2520  13.329  14.192   4.740 -0.1177 -0.0533 -0.1667
  281XCA     C3 2521  13.502  14.272   5.155  0.0725 -0.1741 -0.1062
  281XCA     C4 2522  13.763  14.105   5.515  0.0229 -0.5012 -0.2614
  281XCA     C5 2523  13.890  13.892   5.865  0.0566  0.1793  0.0531
  281XCA     C6 2524  13.503  13.900   6.244 -0.1853  0.1140  0.1086
  282CHOL   ROH 2525   4.162  12.915   5.072  0.0152  0.1325  0.0824
  282CHOL    R1 2526   4.120  13.041   5.322 -0.1275  0.1197  0.0648
  282CHOL    R2 2527   3.905  13.206   5.372 -0.3721 -0.2025  0.0732
  282CHOL    R3 2528   3.864  13.037   5.581 -0.0733 -0.2221  0.1213
  282CHOL    R4 2529   3.821  13.305   5.692 -0.0864 -0.2272  0.1593
  282CHOL    R5 2530   3.957  13.153   5.770  0.0740 -0.1671  0.0242
  282CHOL    C1 2531   3.734  13.204   6.075  0.3604 -0.2600  0.2548
  282CHOL    C2 2532   4.034  13.454   6.297 -0.0175  0.3146 -0.0241
  283CHOL   ROH 2533   8.073   7.818   5.071 -0.4000  0.1061  0.0779
  283CHOL    R1 2534   8.181   7.716   5.311 -0.3878 -0.0067  0.0247
  283CHOL    R2 2535   8.375   7.850   5.456 -0.1525 -0.2213 -0.0870
  283CHOL    R3 2536   8.198   7.820   5.660 -0.0783 -0.0037  0.0124
  283CHOL    R4 2537   8.461   7.831   5.790  0.0200 -0.3616 -0.1373
  283CHOL    R5 2538   8.310   7.676   5.815 -0.1758 -0.1678 -0.0654
  283CHOL    C1 2539   8.344   7.793   6.176  0.1901 -0.2390 -0.0732
  283CHOL    C2 2540   8.512   7.920   6.510 -0.1200 -0.0489  0.1962
  284CHOL   ROH 2541  13.077   2.162   7.543  0.2109  0.0634  0.1194
  284CHOL    R1 2542  13.112   2.193   7.264  0.1090  0.1714  0.1174
  284CHOL    R2 2543  13.331   2.322   7.154  0.1817  0.0220  0.0833
  284CHOL    R3 2544  13.358   2.090   7.016 -0.1006  0.0637 -0.0492
  284CHOL    R4 2545  13.420   2.299   6.821  0.4262  0.1019  0.1409
  284CHOL    R5 2546  13.273   2.140   6.798  0.1657  0.3621 -0.0919
  284CHOL    C1 2547  13.497   2.068   6.497  0.3035  0.1875  0.0501
  284CHOL    C2 2548  13.528   2.048   6.148 -0.1224 -0.1117  0.0131
  285PNCE   AM1 2549   7.155  10.221   9.089  0.3240  0.0706  0.0655
  285PNCE   AM2 2550   7.086  10.435   9.028 -0.1423  0.0849 -0.0006
  285PNCE   T1A 2551   7.398  10.195   8.643  0.2704 -0.0444  0.1396
  285PNCE   C2A 2552   7.613   9.891   8.464 -0.0550  0.1109  0.0430
  285PNCE   C3A 2553   7.948   9.554   8.463 -0.1111  0.0279  0.1186
  285PNCE   C1B 2554   7.062  10.513   8.546  0.1082  0.0602  0.2118
  285PNCE   C2B 2555   6.931  10.520   8.195  0.0670 -0.0064 -0.0125
  285PNCE   C3B 2556   6.964  10.647   7.796 -0.2756 -0.1314  0.0776
  285PNCE   D4B 2557   7.238  10.835   7.516 -0.2275  0.1133 -0.2089
  285PNCE   C5B 2558   7.386  11.101   7.174 -0.2561  0.1611 -0.2951
  285PNCE   C6B 2559   7.756  11.172   7.046  0.2110  0.3554  0.3258
  286CHOL   ROH 2560   3.680  11.328   8.561 -0.0580  0.4200 -0.3498
  286CHOL    R1 2561   3.922  11.204   8.482 -0.0576  0.3063 -0.1775
  286CHOL    R2 2562   3.937  10.937   8.413 -0.1097  0.2690 -0.0584
  286CHOL    R3 2563   4.049  11.036   8.185  0.0343  0.1401 -0.0448
  286CHOL    R4 2564   4.141  10.758   8.199 -0.3290  0.0185 -0.0615
  286CHOL    R5 2565   4.266  10.935   8.177 -0.0949 -0.1431 -0.0419
  286CHOL    C1 2566   4.364  10.746   7.861 -0.3215 -0.2481 -0.0506
  286CHOL    C2 2567   4.178  10.399   7.786 -0.0535  0.1430 -0.0058
  287PNCE   AM1 2568  12.638  14.405   7.374  0.0563  0.1453  0.2737
  287PNCE   AM2 2569  12.733  14.660   7.472  0.1918 -0.0941  0.0627
  287PNCE   T1A 2570  12.468  14.224   7.009  0.0861  0.0025  0.1779
  287PNCE   C2A 2571  12.534  13.914   6.698  0.0315 -0.1065 -0.0347
  287PNCE   C3A 2572  12.427  13.680   6.432 -0.2260  0.1912 -0.1052
  287PNCE   C1B 2573  12.576  14.808   7.030  0.0840 -0.2219 -0.0304
  287PNCE   C2B 2574  12.358  15.119   6.741  0.0580  0.2063  0.0196
  287PNCE   C3B 2575  12.264  15.495   6.541  0.4069 -0.0120 -0.3537
  287PNCE   D4B 2576  12.327  15.670   6.134  0.3301  0.3588  0.0883
  287PNCE   C5B 2577  12.567  16.080   5.939 -0.1425  0.2075  0.1784
  287PNCE   C6B 2578  12.737  16.288   5.612  0.2092 -0.1234 -0.1067
  288XCA    COO 2579  13.682   7.606   5.385 -0.0353 -0.3070 -0.1772
  288XCA     C1 2580  13.279   7.499   5.492  0.0686  0.0508 -0.1603
  288XCA     C2 2581  12.928   7.267   5.655 -0.0429  0.1373  0.1592
  288XCA     C3 2582  12.505   7.239   5.819 -0.1564 -0.0809  0.1812
  288XCA     C4 2583  12.429   6.927   6.178 -0.1083 -0.1963 -0.0453
  288XCA     C5 2584  12.293   7.026   6.612  0.1632 -0.0241 -0.1209
  288XCA     C6 2585  12.415   7.156   6.982 -0.0510  0.2717 -0.0783
  289CHOL   ROH 2586   5.618   3.916   4.704 -0.1647  0.0627  0.0298
  289CHOL    R1 2587   5.774   3.846   4.929 -0.0037 -0.0465 -0.1110
  289CHOL    R2 2588   6.021   3.958   4.980 -0.0324  0.0467 -0.1494
  289CHOL    R3 2589   5.909   4.018   5.220  0.0582 -0.2167 -0.0396
  289CHOL    R4 2590   6.195   3.980   5.278  0.0996 -0.1284 -0.2133
  289CHOL    R5 2591   6.028   3.880   5.376  0.1999 -0.2936 -0.2166
  289CHOL    C1 2592   6.191   4.048   5.677  0.2615 -0.4777 -0.1473
  289CHOL    C2 2593   6.588   3.998   5.644  0.0554 -0.1177 -0.3201
  290PNCE   AM1 2594   4.128  12.629   9.370  0.1475  0.1592  0.0542
  290PNCE   AM2 2595   3.923  12.378   9.221  0.2922 -0.0091 -0.2504
  290PNCE   T1A 2596   4.354  12.809   9.087  0.0219 -0.0901  0.1128
  290PNCE   C2A 2597   4.511  12.819   8.660  0.1114  0.0151 -0.0439
  290PNCE   C3A 2598   4.584  12.869   8.259  0.2520 -0.0395 -0.3203
  290PNCE   C1B 2599   4.117  12.504   8.793  0.1043 -0.1668 -0.1349
  290PNCE   C2B 2600   4.125  12.570   8.304 -0.1660  0.1828 -0.1310
  290PNCE   C3B 2601   4.443  12.502   7.936  0.1555  0.2848  0.1236
  290PNCE   D4B 2602   4.451  12.710   7.516  0.0493  0.0945  0.0418
  290PNCE   C5B 2603   4.295  13.032   7.240 -0.2423 -0.3961  0.3083
  290PNCE   C6B 2604   4.135  13.420   7.351  0.0227  0.2354 -0.1672
  291XCA    COO 2605  15.561   3.352   5.034 -0.0887 -0.2416 -0.0580
  291XCA     C1 2606  15.158   3.144   5.177 -0.1400  0.0003 -0.1709
  291XCA     C2 2607  14.920   3.403   5.442  0.0070 -0.2263  0.1467
  291XCA     C3 2608  14.776   3.493   5.859  0.2629 -0.2444 -0.2332
  291XCA     C4 2609  14.714   3.558   6.316 -0.5698 -0.0632  0.2134
  291XCA     C5 2610  14.502   3.663   6.730 -0.0910  0.1736 -0.1457
  291XCA     C6 2611  14.419   3.683   7.270 -0.1215 -0.2205  0.1933
  292CHOL   ROH 2612   2.345   6.588   5.431  0.0055  0.1392  0.0129
  292CHOL    R1 2613   2.327   6.523   5.706  0.0106  0.1166  0.0082
  292CHOL    R2 2614   2.541   6.548   5.879  0.0376  0.0264 -0.0094
  292CHOL    R3 2615   2.366   6.698   6.023  0.1019  0.0717  0.0217
  292CHOL    R4 2616   2.586   6.642   6.209  0.1207  0.0232 -0.0197
  292CHOL    R5 2617   2.374   6.604   6.243  0.1197  0.0758  0.0214
  292CHOL    C1 2618   2.448   6.838   6.535  0.2294  0.0638  0.0034
  292CHOL    C2 2619   2.451   7.166   6.829 -0.1949 -0.0766 -0.0691
  293CHOL   ROH 2620  14.689  15.227   7.752  0.0198 -0.2265 -0.2526
  293CHOL    R1 2621  14.660  15.199   7.472  0.1856 -0.0414 -0.2902
  293CHOL    R2 2622  14.416  15.223   7.344  0.2457 -0.0577 -0.4059
  293CHOL    R3 2623  14.548  15.408   7.195  0.2475  0.1058 -0.2059
  293CHOL    R4 2624  14.309  15.344   7.039  0.2617  0.2479 -0.2935
  293CHOL    R5 2625  14.515  15.337   6.969  0.2704  0.3327 -0.2844
  293CHOL    C1 2626  14.371  15.589   6.721  0.2726  0.5794 -0.0404
  293CHOL    C2 2627  14.360  15.495   6.401 -0.5373 -0.1372  0.1389
  294PNCE   AM1 2628   8.149   4.383   8.559  0.1342  0.0648  0.2323
  294PNCE   AM2 2629   8.472   4.354   8.336  0.1777 -0.0461 -0.0964
  294PNCE   T1A 2630   7.978   4.060   8.253 -0.1304 -0.2370  0.0194
  294PNCE   C2A 2631   7.666   3.820   7.951  0.0232 -0.2214 -0.0873
  294PNCE   C3A 2632   7.716   3.557   7.653  0.3527  0.0967  0.1110
  294PNCE   C1B 2633   8.284   4.302   7.954  0.1912  0.2592  0.2444
  294PNCE   C2B 2634   8.317   4.376   7.438  0.0301  0.1061  0.1941
  294PNCE   C3B 2635   8.034   4.420   7.165 -0.0316 -0.0363 -0.0861
  294PNCE   D4B 2636   7.787   4.722   6.991  0.3080  0.1801 -0.2716
  294PNCE   C5B 2637   7.838   4.877   6.556  0.2300 -0.0217 -0.0095
  294PNCE   C6B 2638   7.885   5.200   6.469  0.3765 -0.2244  0.1982
  295CHOL   ROH 2639  12.145  15.812   5.747 -0.1528 -0.0317 -0.0723
  295CHOL    R1 2640  11.932  15.983   5.821 -0.0468 -0.0083  0.1900
  295CHOL    R2 2641  11.972  16.217   5.961  0.1666  0.0475  0.0438
  295CHOL    R3 2642  11.834  16.327   5.754 -0.1543 -0.0362  0.2063
  295CHOL    R4 2643  11.807  16.520   5.974  0.1793  0.0501  0.1704
  295CHOL    R5 2644  11.645  16.431   5.858  0.0005  0.0030  0.4534
  295CHOL    C1 2645  11.581  16.800   5.786 -0.1148 -0.0270  0.3966
  295CHOL    C2 2646  11.477  17.248   5.879  0.1953  0.1079  0.0923
  296PNCE   AM1 2647  11.179   5.123   8.162 -0.0308 -0.1169 -0.2090
  296PNCE   AM2 2648  11.422   5.141   8.403  0.1353 -0.0182  0.0243
  296PNCE   T1A 2649  11.030   5.423   7.969  0.2029  0.2806 -0.3695
  296PNCE   C2A 2650  10.639   5.673   7.779 -0.1974 -0.4075  0.0435
  296PNCE   C3A 2651  10.248   5.753   7.894  0.1268  0.0380 -0.3498
  296PNCE   C1B 2652  11.736   5.095   8.061  0.0078 -0.0748 -0.0025
  296PNCE   C2B 2653  11.881   5.083   7.641 -0.0706  0.1376  0.0687
  296PNCE   C3B 2654  11.788   4.991   7.176 -0.2068 -0.0006  0.2401
  296PNCE   D4B 2655  11.440   4.773   6.985  0.1343  0.1716 -0.3411
  296PNCE   C5B 2656  11.404   4.583   6.616  0.1826  0.0743 -0.0499
  296PNCE   C6B 2657  11.351   4.294   6.298  0.0252  0.0629 -0.2157
  297XCA    COO 2658   9.623   9.076   9.243  0.1721  0.0376 -0.2313
  297XCA     C1 2659   9.202   8.979   8.994  0.0788  0.2549 -0.3334
  297XCA     C2 2660   9.113   8.755   8.530  0.2806 -0.3334  0.0448
  297XCA     C3 2661   9.044   8.732   8.174  0.3681  0.1113  0.0808
  297XCA     C4 2662   8.932   8.777   7.688  0.2084 -0.1917 -0.0321
  297XCA     C5 2663   8.705   8.840   7.428  0.0986 -0.0894  0.3054
  297XCA     C6 2664   8.467   8.920   7.069 -0.1694  0.1269  0.0318
  298CHOL   ROH 2665  10.618  14.695   7.702 -0.2755 -0.1408  0.0575
  298CHOL    R1 2666  10.591  14.602   7.436 -0.2427 -0.2057  0.0761
  298CHOL    R2 2667  10.368  14.463   7.349 -0.3370 -0.0264  0.0244
  298CHOL    R3 2668  10.361  14.658   7.159 -0.0681 -0.0815 -0.0462
  298CHOL    R4 2669  10.237  14.425   7.031 -0.2381 -0.0103 -0.0183
  298CHOL    R5 2670  10.404  14.542   6.954 -0.0891 -0.1948  0.0117
  298CHOL    C1 2671  10.154  14.585   6.668  0.0721 -0.0527 -0.1096
  298CHOL    C2 2672  10.147  14.262   6.524 -0.1772 -0.0574  0.2448
  299PNCE   AM1 2673   9.312   3.658   8.785  0.0571 -0.1596  0.0380
  299PNCE   AM2 2674   9.140   3.370   8.924 -0.2064 -0.0389  0.2766
  299PNCE   T1A 2675   9.435   3.968   8.402 -0.0543  0.0212 -0.3342
  299PNCE   C2A 2676   9.429   4.352   8.154  0.0907  0.1751  0.0005
  299PNCE   C3A 2677   9.272   4.691   8.051  0.2837  0.0323  0.1994
  299PNCE   C1B 2678   9.035   3.244   8.484 -0.0979  0.1080  0.1637
  299PNCE   C2B 2679   9.118   3.070   8.132 -0.1299 -0.0260 -0.1207
  299PNCE   C3B 2680   9.187   3.275   7.750  0.1552 -0.0054  0.1092
  299PNCE   D4B 2681   9.563   3.339   7.628  0.0178  0.2197 -0.1083
  299PNCE   C5B 2682   9.890   3.361   7.981  0.1817  0.1929  0.1125
  299PNCE   C6B 2683  10.082   3.164   8.214 -0.0020 -0.1388  0.1633
  300XCA    COO 2684  11.740   7.787   4.752 -0.0364 -0.2764 -0.0565
  300XCA     C1 2685  12.160   7.585   4.933  0.1306  0.0172  0.0104
  300XCA     C2 2686  12.094   7.284   5.175  0.3596  0.0331  0.1650
  300XCA     C3 2687  12.243   6.998   5.400 -0.0315  0.1896  0.0903
  300XCA     C4 2688  12.185   6.751   5.729  0.0355  0.1412 -0.3412
  300XCA     C5 2689  12.063   6.283   5.691 -0.1653 -0.0989  0.0974
  300XCA     C6 2690  11.808   5.876   5.434 -0.0926 -0.0781  0.1534
  301CHOL   ROH 2691  11.103   4.189   5.460 -0.1828 -0.2580  0.2242
  301CHOL    R1 2692  11.365   4.210   5.563 -0.1287 -0.1700  0.0711
  301CHOL    R2 2693  11.420   4.208   5.834  0.0202 -0.0316  0.0452
  301CHOL    R3 2694  11.588   4.006   5.766  0.0104 -0.0408  0.0499
  301CHOL    R4 2695  11.636   4.049   6.051  0.0761  0.0186  0.0267
  301CHOL    R5 2696  11.786   4.046   5.894  0.0385 -0.0102 -0.0059
  301CHOL    C1 2697  11.919   3.765   6.114  0.0995  0.0393  0.0202
  301CHOL    C2 2698  11.948   3.390   6.351  0.2126 -0.1627 -0.0384
  302CHOL   ROH 2699  12.281   8.029   8.107 -0.1427  0.0324  0.0310
  302CHOL    R1 2700  12.437   8.048   7.871 -0.0712  0.1626  0.0874
  302CHOL    R2 2701  12.671   7.907   7.836 -0.0995  0.1265  0.0528
  302CHOL    R3 2702  12.549   7.821   7.609 -0.0569  0.3218 -0.0471
  302CHOL    R4 2703  12.829   7.738   7.579 -0.1160  0.0457  0.0954
  302CHOL    R5 2704  12.711   7.855   7.437  0.0842  0.2119  0.0597
  302CHOL    C1 2705  12.805   7.558   7.216 -0.0856  0.1820  0.0264
  302CHOL    C2 2706  13.046   7.254   7.136 -0.0160 -0.0475  0.0064
  303XCA    COO 2707  14.944   7.281   8.388 -0.2555  0.3417 -0.3567
  303XCA     C1 2708  15.106   7.447   8.032  0.0664 -0.1941  0.2105
  303XCA     C2 2709  15.371   7.741   7.877 -0.2010 -0.2136  0.1020
  303XCA     C3 2710  15.594   7.698   7.569 -0.0887 -0.1628 -0.0509
  303XCA     C4 2711  15.700   7.407   7.203 -0.0012 -0.1114  0.2882
  303XCA     C5 2712  15.829   7.379   6.854  0.0652  0.3308  0.2184
  303XCA     C6 2713  15.979   7.163   6.567  0.0325  0.3457  0.0175
  304PNCE   AM1 2714   1.940   2.430   7.882  0.0361 -0.0988  0.0191
  304PNCE   AM2 2715   1.722   2.614   7.792  0.1070  0.0034 -0.0929
  304PNCE   T1A 2716   2.112   2.580   7.420 -0.0903 -0.2453  0.5561
  304PNCE   C2A 2717   2.149   2.474   6.936  0.1340  0.1121 -0.0027
  304PNCE   C3A 2718   2.240   2.825   6.625 -0.4698  0.0026 -0.0661
  304PNCE   C1B 2719   1.700   2.253   7.452  0.0137 -0.2536  0.1916
  304PNCE   C2B 2720   1.673   2.152   7.016  0.1653  0.2019  0.3691
  304PNCE   C3B 2721   1.472   2.009   6.639  0.3106  0.1761 -0.0492
  304PNCE   D4B 2722   1.351   1.912   6.205  0.0141  0.4871  0.2604
  304PNCE   C5B 2723   0.972   1.872   6.158 -0.0451  0.3057  0.1199
  304PNCE   C6B 2724   0.597   1.979   6.427 -0.2693  0.0738  0.1571
  305CHOL   ROH 2725   0.591   1.847   5.853 -0.0483  0.2542  0.0886
  305CHOL    R1 2726   0.692   2.106   5.803 -0.0227  0.2250 -0.0103
  305CHOL    R2 2727   0.963   2.163   5.806 -0.0144  0.1800 -0.1201
  305CHOL    R3 2728   0.911   2.262   5.558 -0.0836  0.1314 -0.1259
  305CHOL    R4 2729   1.148   2.409   5.648 -0.2114  0.3387 -0.1090
  305CHOL    R5 2730   0.962   2.495   5.574 -0.2846  0.1786 -0.1237
  305CHOL    C1 2731   1.207   2.644   5.323 -0.3911  0.3854 -0.1079
  305CHOL    C2 2732   1.037   2.941   5.123  0.1808 -0.1343 -0.1616
  306CHOL   ROH 2733   1.669   1.809   4.466  0.0215 -0.3956 -0.0469
  306CHOL    R1 2734   1.700   1.693   4.722  0.0818 -0.1410  0.0640
  306CHOL    R2 2735   1.730   1.844   4.952 -0.1546  0.0944 -0.0566
  306CHOL    R3 2736   1.518   1.697   5.037 -0.0135 -0.0741  0.0089
  306CHOL    R4 2737   1.665   1.763   5.281 -0.1632  0.3225 -0.0002
  306CHOL    R5 2738   1.606   1.564   5.216  0.0867  0.1889  0.1611
  306CHOL    C1 2739   1.429   1.577   5.554 -0.0358  0.2971  0.0942
  306CHOL    C2 2740   1.349   1.419   5.947  0.1514 -0.1857 -0.1423
  307CHOL   ROH 2741   9.246  11.666   5.642 -0.1106  0.1523  0.0767
  307CHOL    R1 2742   9.176  11.755   5.901 -0.1068  0.0050  0.1292
  307CHOL    R2 2743   9.253  11.620   6.130  0.0602 -0.0225  0.0612
  307CHOL    R3 2744   9.354  11.863   6.200 -0.1040  0.0301  0.1175
  307CHOL    R4 2745   9.342  11.712   6.451 -0.1000  0.0066  0.0976
  307CHOL    R5 2746   9.255  11.909   6.414 -0.2003 -0.0424  0.0869
  307CHOL    C1 2747   9.487  11.994   6.704 -0.3473  0.0730  0.1716
  307CHOL    C2 2748   9.838  11.990   6.861 -0.3372  0.1068 -0.0384
  308XCA    COO 2749  14.852  12.966   4.415 -0.0069 -0.1913  0.0340
  308XCA     C1 2750  14.587  13.134   4.768  0.1419  0.0679  0.0934
  308XCA     C2 2751  14.521  12.981   5.127  0.1660  0.0955 -0.0415
  308XCA     C3 2752  14.644  12.926   5.538 -0.1078  0.0325 -0.2010
  308XCA     C4 2753  14.815  12.617   5.758  0.0663 -0.4024  0.0322
  308XCA     C5 2754  15.200  12.367   5.565 -0.0091 -0.2542 -0.0334
  308XCA     C6 2755  15.540  12.344   5.427  0.0317  0.1520 -0.0913
  309CHOL   ROH 2756   7.016   0.518   7.795 -0.0992 -0.0545  0.0306
  309CHOL    R1 2757   7.170   0.556   7.561 -0.1123 -0.0385  0.0251
  309CHOL    R2 2758   7.247   0.347   7.397 -0.0105 -0.0410  0.0795
  309CHOL    R3 2759   7.129   0.497   7.204 -0.0756 -0.1445  0.0373
  309CHOL    R4 2760   7.304   0.314   7.058  0.0604 -0.0679  0.0934
  309CHOL    R5 2761   7.300   0.531   7.041 -0.0688 -0.0692  0.0565
  309CHOL    C1 2762   7.225   0.436   6.679  0.0407 -0.1807  0.0619
  309CHOL    C2 2763   7.084   0.330   6.372 -0.0940 -0.2015 -0.0604
  310CHOL   ROH 2764   3.798  10.886   5.401  0.3677  0.0959 -0.1954
  310CHOL    R1 2765   3.867  11.068   5.606  0.1220  0.0428 -0.0616
  310CHOL    R2 2766   3.694  11.133   5.812 -0.0233 -0.2267 -0.0935
  310CHOL    R3 2767   3.903  11.057   5.968 -0.0188 -0.1313 -0.0519
  310CHOL    R4 2768   3.730  11.212   6.146 -0.0760 -0.1274 -0.1109
  310CHOL    R5 2769   3.943  11.245   6.111 -0.0807 -0.0826 -0.0985
  310CHOL    C1 2770   3.946  11.186   6.488 -0.1024  0.0201 -0.0820
  310CHOL    C2 2771   3.985  11.325   6.791 -0.2413 -0.0543 -0.1794
  311XCA    COO 2772   4.088  13.332   4.758  0.0314  0.2345 -0.0688
  311XCA     C1 2773   4.163  13.630   5.061 -0.1835 -0.0960  0.0648
  311XCA     C2 2774   3.849  13.699   5.419 -0.3060  0.3735 -0.0977
  311XCA     C3 2775   4.099  13.667   5.802 -0.0692 -0.0202 -0.1706
  311XCA     C4 2776   4.375  13.369   5.935  0.3356  0.0405 -0.1463
  311XCA     C5 2777   4.462  13.247   6.321  0.2762 -0.1393  0.0627
  311XCA     C6 2778   4.651  13.167   6.680 -0.1862  0.1093  0.2931
  312PNCE   AM1 2779   9.933   7.692   8.471 -0.0548 -0.0184 -0.0404
  312PNCE   AM2 2780   9.895   7.418   8.469  0.0183  0.0796 -0.5648
  312PNCE   T1A 2781   9.760   7.843   8.083  0.0986 -0.0088  0.0834
  312PNCE   C2A 2782   9.856   8.180   7.836  0.4627  0.0301 -0.1124
  312PNCE   C3A 2783   9.996   8.292   7.456  0.1447 -0.2587  0.0454
  312PNCE   C1B 2784   9.907   7.307   8.006 -0.1819  0.0004  0.1752
  312PNCE   C2B 2785   9.759   7.160   7.687 -0.0284  0.1701  0.0191
  312PNCE   C3B 2786   9.754   7.187   7.245 -0.1460 -0.1025 -0.2582
  312PNCE   D4B 2787   9.781   7.280   6.830 -0.1021 -0.1748  0.2992
  312PNCE   C5B 2788  10.066   7.608   6.568  0.1631 -0.0449  0.1154
  312PNCE   C6B 2789  10.022   8.124   6.575 -0.0366 -0.0942 -0.0653
  313PNCE   AM1 2790   1.072   5.310   8.960  0.3829 -0.0198 -0.1527
  313PNCE   AM2 2791   0.724   5.091   8.919 -0.2231  0.0422 -0.3701
  313PNCE   T1A 2792   1.293   5.664   8.848 -0.0725  0.0342  0.0411
  313PNCE   C2A 2793   1.248   6.086   8.789  0.0263  0.0159  0.0567
  313PNCE   C3A 2794   1.505   6.423   8.749  0.2666 -0.2089 -0.1552
  313PNCE   C1B 2795   1.010   4.864   8.597  0.1712 -0.2347 -0.3039
  313PNCE   C2B 2796   0.975   4.511   8.296  0.0112  0.3551 -0.2673
  313PNCE   C3B 2797   0.892   4.173   8.241 -0.0711  0.1357  0.0982
  313PNCE   D4B 2798   1.038   3.890   7.917  0.1251 -0.3522 -0.1754
  313PNCE   C5B 2799   0.886   3.923   7.488 -0.1982  0.3744 -0.0903
  313PNCE   C6B 2800   0.931   4.019   7.130  0.0784  0.0479 -0.0399
  314PNCE   AM1 2801   6.010   1.210   7.990 -0.4048  0.1239  0.1214
  314PNCE   AM2 2802   6.100   1.539   8.089 -0.2121 -0.1395 -0.0764
  314PNCE   T1A 2803   6.368   1.268   7.655  0.2555 -0.0546 -0.0999
  314PNCE   C2A 2804   6.581   1.455   7.280  0.0189  0.0219  0.1041
  314PNCE   C3A 2805   6.805   1.831   7.295  0.2749 -0.1328 -0.2050
  314PNCE   C1B 2806   6.363   1.759   7.801  0.2373 -0.0150  0.0824
  314PNCE   C2B 2807   6.693   1.952   7.754  0.1209 -0.2057 -0.0880
  314PNCE   C3B 2808   6.896   2.301   7.589  0.0692  0.0439 -0.1073
  314PNCE   D4B 2809   7.046   2.676   7.467 -0.1001 -0.1216  0.0601
  314PNCE   C5B 2810   7.100   3.032   7.231  0.0214 -0.1623 -0.0945
  314PNCE   C6B 2811   7.162   3.033   6.732  0.0269  0.0001 -0.1998
  315XCA    COO 2812  11.222   4.279   8.433  0.1099 -0.1770 -0.0198
  315XCA     C1 2813  11.244   4.621   8.111  0.0377  0.0680 -0.0943
  315XCA     C2 2814  11.488   4.619   7.754 -0.1414  0.1189  0.2647
  315XCA     C3 2815  11.726   4.304   7.551 -0.0135 -0.0238 -0.0647
  315XCA     C4 2816  11.634   3.823   7.527  0.1110  0.2101 -0.0593
  315XCA     C5 2817  11.654   3.806   7.145 -0.0949  0.0028 -0.1638
  315XCA     C6 2818  11.740   3.480   6.764  0.2721 -0.1487 -0.1875
  316PNCE   AM1 2819   0.583   7.915   9.266  0.0308 -0.2001 -0.0336
  316PNCE   AM2 2820   0.893   8.018   9.114  0.3059  0.1217  0.0091
  316PNCE   T1A 2821   0.505   7.833   8.712 -0.1686  0.1509 -0.1196
  316PNCE   C2A 2822   0.527   7.787   8.294  0.1925  0.1514  0.0224
  316PNCE   C3A 2823   0.946   7.702   8.274  0.1374  0.2094  0.2557
  316PNCE   C1B 2824   1.004   7.634   8.816  0.4202 -0.1498  0.2560
  316PNCE   C2B 2825   1.257   7.421   8.481  0.0619  0.2495 -0.2562
  316PNCE   C3B 2826   1.458   7.201   8.233  0.1792  0.0277  0.0954
  316PNCE   D4B 2827   1.810   6.921   8.052 -0.1310 -0.3823  0.0328
  316PNCE   C5B 2828   2.052   7.060   7.749  0.0947 -0.0680 -0.2142
  316PNCE   C6B 2829   2.256   7.158   7.337 -0.4569  0.2187 -0.2114
  317XCA    COO 2830  10.979   7.745   4.389 -0.0642  0.0491 -0.0351
  317XCA     C1 2831  10.997   7.714   4.792 -0.1721 -0.1688 -0.1266
  317XCA     C2 2832  11.297   7.705   5.152  0.1578  0.0400 -0.0931
  317XCA     C3 2833  11.144   7.699   5.599 -0.0934 -0.1434 -0.4326
  317XCA     C4 2834  11.213   7.668   5.999  0.1133 -0.1022  0.1621
  317XCA     C5 2835  10.981   7.813   6.359 -0.1179 -0.0462  0.0431
  317XCA     C6 2836  10.783   8.326   6.235  0.2020 -0.2594 -0.1042
  318PNCE   AM1 2837   9.096   7.712   8.778 -0.0946 -0.0457  0.5852
  318PNCE   AM2 2838   9.404   7.443   8.769 -0.3986  0.1399  0.1340
  318PNCE   T1A 2839   9.530   7.910   8.688  0.0456 -0.2498 -0.2030
  318PNCE   C2A 2840   9.894   8.194   8.407  0.1119 -0.0107 -0.1739
  318PNCE   C3A 2841  10.225   8.281   8.130 -0.1504  0.0698 -0.1209
  318PNCE   C1B 2842   9.099   7.310   8.468  0.2072  0.0183  0.0229
  318PNCE   C2B 2843   8.823   7.109   8.178  0.1457 -0.2035  0.3868
  318PNCE   C3B 2844   8.798   6.869   7.753  0.0530  0.0666  0.1334
  318PNCE   D4B 2845   9.002   6.616   7.420 -0.1399 -0.0654 -0.1768
  318PNCE   C5B 2846   8.896   6.391   7.111 -0.2530 -0.0456 -0.1094
  318PNCE   C6B 2847   8.533   6.436   6.906  0.0199  0.1409 -0.0905
  319PNCE   AM1 2848   8.555  14.327   4.095 -0.3052  0.1233  0.1235
  319PNCE   AM2 2849   8.642  14.653   4.124  0.2699  0.0059 -0.0087
  319PNCE   T1A 2850   8.417  14.211   4.479 -0.0334  0.0530  0.1138
  319PNCE   C2A 2851   8.189  14.273   4.880  0.0155 -0.0218  0.0980
  319PNCE   C3A 2852   8.272  14.194   5.331 -0.0858  0.1959 -0.0275
  319PNCE   C1B 2853   8.688  14.629   4.518  0.0450  0.3161 -0.6895
  319PNCE   C2B 2854   8.699  14.412   4.874  0.0745  0.3264 -0.1885
  319PNCE   C3B 2855   8.598  13.974   5.054 -0.2154 -0.1312  0.0768
  319PNCE   D4B 2856   8.693  13.951   5.598  0.2956 -0.0762 -0.1787
  319PNCE   C5B 2857   8.944  14.196   5.843  0.2325 -0.1130 -0.1713
  319PNCE   C6B 2858   9.197  14.376   6.123  0.0705 -0.0473 -0.0613
  320CHOL   ROH 2859  12.981  14.120   7.211 -0.0924 -0.0402  0.0418
  320CHOL    R1 2860  12.934  13.993   6.962 -0.1316  0.0115  0.0229
  320CHOL    R2 2861  13.022  14.100   6.723 -0.0877  0.0143  0.0400
  320CHOL    R3 2862  13.137  13.855   6.693 -0.1742 -0.0233  0.0089
  320CHOL    R4 2863  13.063  13.936   6.421 -0.0015  0.1064  0.0008
  320CHOL    R5 2864  13.009  13.749   6.521 -0.1297  0.0921 -0.0954
  320CHOL    C1 2865  13.195  13.610   6.218 -0.0325  0.1246 -0.0512
  320CHOL    C2 2866  13.008  13.412   6.005 -0.1168  0.2617  0.0827
  321CHOL   ROH 2867  12.768   5.662   7.428 -0.0711 -0.0328 -0.0110
  321CHOL    R1 2868  12.799   5.862   7.230 -0.1012 -0.0509 -0.0345
  321CHOL    R2 2869  12.870   6.122   7.290 -0.0753 -0.0485 -0.0711
  321CHOL    R3 2870  13.068   6.076   7.110 -0.1146 -0.0745 -0.1071
  321CHOL    R4 2871  12.998   6.359   7.074  0.0962  0.0064  0.0884
  321CHOL    R5 2872  13.005   6.206   6.919 -0.0237  0.1059 -0.0174
  321CHOL    C1 2873  13.258   6.454   6.778  0.1592  0.0140  0.1475
  321CHOL    C2 2874  13.349   6.740   6.610 -0.0331 -0.1451  0.3434
  322CHOL   ROH 2875  14.321  13.018   8.752  0.2377  0.0051  0.2644
  322CHOL    R1 2876  14.508  12.844   8.628  0.1618  0.0483  0.0870
  322CHOL    R2 2877  14.431  12.637   8.462  0.0550  0.0644  0.1167
  322CHOL    R3 2878  14.601  12.757   8.288 -0.0999  0.1127 -0.0042
  322CHOL    R4 2879  14.524  12.506   8.157  0.1890 -0.1074  0.2299
  322CHOL    R5 2880  14.727  12.575   8.195  0.1120  0.1736  0.1546
  322CHOL    C1 2881  14.739  12.541   7.815  0.1215 -0.1623  0.1824
  322CHOL    C2 2882  14.798  12.760   7.510 -0.1344 -0.3794 -0.2337
  323XCA    COO 2883   3.525   9.525   8.988 -0.2113 -0.0095  0.0371
  323XCA     C1 2884   3.645   9.281   8.602  0.0410 -0.2056  0.0718
  323XCA     C2 2885   3.796   9.084   8.148  0.0259 -0.0709 -0.1828
  323XCA     C3 2886   4.249   8.962   8.021  0.1516 -0.2042  0.7178
  323XCA     C4 2887   4.425   8.578   7.786  0.1993 -0.3011 -0.0719
  323XCA     C5 2888   4.556   8.139   7.714 -0.1508 -0.0142  0.1842
  323XCA     C6 2889   4.544   7.694   7.489  0.0427  0.2538 -0.1262
  324XCA    COO 2890   4.927  10.803   4.915  0.0931  0.1397 -0.1020
  324XCA     C1 2891   4.996  10.435   5.203 -0.1166 -0.1886  0.2879
  324XCA     C2 2892   4.671  10.157   5.328 -0.1831  0.1232 -0.2972
  324XCA     C3 2893   4.465  10.391   5.686  0.0920  0.1865 -0.0111
  324XCA     C4 2894   4.554  10.573   6.082 -0.0898 -0.2813  0.0981
  324XCA     C5 2895   4.490  10.763   6.472  0.1479 -0.2123  0.0069
  324XCA     C6 2896   4.517  10.817   6.881 -0.1039  0.0791 -0.2823
  325CHOL   ROH 2897   6.519  13.575   5.498  0.4227 -0.0058 -0.0180
  325CHOL    R1 2898   6.508  13.574   5.781  0.2986 -0.1319 -0.0226
  325CHOL    R2 2899   6.733  13.598   5.938  0.2056  0.0381  0.0854
  325CHOL    R3 2900   6.593  13.803   6.050 -0.0572 -0.1494  0.1116
  325CHOL    R4 2901   6.703  13.655   6.278  0.3282  0.0829  0.0891
  325CHOL    R5 2902   6.494  13.707   6.246  0.2158 -0.2598  0.2024
  325CHOL    C1 2903   6.555  13.880   6.580  0.1528 -0.0670  0.1157
  325CHOL    C2 2904   6.809  13.837   6.817 -0.0243  0.1096 -0.0259
  326PNCE   AM1 2905   9.748   0.744   8.503 -0.2695  0.3575 -0.4231
  326PNCE   AM2 2906   9.942   1.008   8.411  0.0667 -0.2006 -0.2205
  326PNCE   T1A 2907   9.482   0.565   8.107 -0.0376 -0.0946  0.1107
  326PNCE   C2A 2908   9.447   0.689   7.576  0.3831  0.1913  0.3025
  326PNCE   C3A 2909   9.310   0.864   7.139 -0.0401  0.0843 -0.4158
  326PNCE   C1B 2910   9.797   0.977   8.013 -0.0119 -0.0060  0.2685
  326PNCE   C2B 2911   9.812   1.077   7.507 -0.1363 -0.1096 -0.2023
  326PNCE   C3B 2912   9.848   0.925   7.098 -0.0169  0.1284 -0.1689
  326PNCE   D4B 2913   9.699   0.735   6.770 -0.2627  0.1977  0.1814
  326PNCE   C5B 2914   9.671   0.855   6.303 -0.0924 -0.0770  0.0207
  326PNCE   C6B 2915   9.534   0.918   5.864 -0.0561  0.1578  0.3790
  327PNCE   AM1 2916   8.198  11.480   8.946  0.2704 -0.1037 -0.1474
  327PNCE   AM2 2917   8.317  11.297   9.164  0.1417 -0.0777 -0.0429
  327PNCE   T1A 2918   8.398  11.942   8.770 -0.2827 -0.1266  0.0014
  327PNCE   C2A 2919   8.480  12.151   8.441 -0.1891 -0.2089  0.1921
  327PNCE   C3A 2920   8.298  12.413   8.133  0.2303  0.1628 -0.1546
  327PNCE   C1B 2921   8.800  11.388   9.084  0.2930 -0.5105  0.1783
  327PNCE   C2B 2922   8.987  11.374   8.796 -0.0286  0.0837 -0.1596
  327PNCE   C3B 2923   9.148  11.091   8.463  0.3335 -0.1058 -0.1471
  327PNCE   D4B 2924   9.177  10.985   8.047 -0.1871 -0.0840 -0.1363
  327PNCE   C5B 2925   9.382  10.725   7.944  0.1530  0.0086  0.1912
  327PNCE   C6B 2926   9.167  10.288   7.885  0.0486 -0.2666  0.1304
  328CHOL   ROH 2927  11.777   1.485   8.134  0.1714 -0.1448 -0.1931
  328CHOL    R1 2928  11.750   1.723   7.983  0.1434 -0.0804 -0.0872
  328CHOL    R2 2929  11.738   1.723   7.707  0.1238  0.0393 -0.0852
  328CHOL    R3 2930  11.508   1.863   7.750  0.1167  0.0056 -0.0092
  328CHOL    R4 2931  11.602   1.953   7.487 -0.0633 -0.0935 -0.1111
  328CHOL    R5 2932  11.552   2.079   7.658  0.0117 -0.0256 -0.1375
  328CHOL    C1 2933  11.307   2.218   7.400 -0.1787 -0.2026 -0.0549
  328CHOL    C2 2934  11.286   2.562   7.140  0.0492 -0.0818  0.0587
  329CHOL   ROH 2935   4.271  10.106   5.910 -0.2244  0.1170 -0.0743
  329CHOL    R1 2936   4.159  10.266   6.115 -0.2425 -0.0489  0.0487
  329CHOL    R2 2937   4.075  10.161   6.356 -0.0134 -0.2070  0.0691
  329CHOL    R3 2938   4.240  10.351   6.459 -0.1088 -0.1025  0.0291
  329CHOL    R4 2939   4.031  10.314   6.663 -0.1032 -0.1258  0.0158
  329CHOL    R5 2940   4.092  10.503   6.572 -0.1789 -0.1320 -0.0328
  329CHOL    C1 2941   4.160  10.581   6.939 -0.2450  0.0196 -0.0529
  329CHOL    C2 2942   4.311  10.728   7.291  0.0952 -0.1793 -0.0915
  330PNCE   AM1 2943   8.026   7.251   9.284 -0.3373 -0.0654  0.0421
  330PNCE   AM2 2944   8.270   7.036   9.076  0.0915 -0.0868  0.1976
  330PNCE   T1A 2945   8.051   7.429   8.770 -0.0512  0.0876 -0.0780
  330PNCE   C2A 2946   8.078   7.792   8.530 -0.3745  0.0019  0.1699
  330PNCE   C3A 2947   8.118   7.871   8.079  0.0054  0.0322  0.1233
  330PNCE   C1B 2948   7.970   6.785   8.693  0.1033  0.0282 -0.2096
  330PNCE   C2B 2949   7.868   6.745   8.265 -0.5082 -0.1652 -0.0126
  330PNCE   C3B 2950   7.845   6.905   7.855  0.2364  0.0564 -0.3133
  330PNCE   D4B 2951   7.803   6.970   7.580  0.0895  0.0240  0.1664
  330PNCE   C5B 2952   8.134   6.811   7.203  0.0519 -0.0990 -0.0420
  330PNCE   C6B 2953   8.566   6.863   7.149 -0.3351 -0.0570 -0.2969
  331PNCE   AM1 2954  10.742   0.274   8.402  0.0061  0.1239 -0.3260
  331PNCE   AM2 2955  10.590   0.643   8.432 -0.1716 -0.1765  0.0701
  331PNCE   T1A 2956  10.514   0.377   8.003  0.0717  0.3401 -0.2448
  331PNCE   C2A 2957  10.409   0.670   7.579 -0.0220  0.0759 -0.3645
  331PNCE   C3A 2958  10.253   0.685   7.216 -0.0172 -0.0165 -0.0513
  331PNCE   C1B 2959  10.498   0.953   8.128 -0.0956 -0.1037  0.4394
  331PNCE   C2B 2960  10.261   1.144   7.764  0.0017 -0.0417 -0.1199
  331PNCE   C3B 2961  10.354   1.202   7.393 -0.0049  0.1440 -0.0796
  331PNCE   D4B 2962  10.302   1.102   6.926  0.2367 -0.0786 -0.0785
  331PNCE   C5B 2963   9.950   1.205   6.698  0.1023  0.1499 -0.1297
  331PNCE   C6B 2964   9.884   1.581   6.410  0.3227 -0.1519 -0.3418
  332PNCE   AM1 2965   6.789   8.118   5.190  0.1864  0.2756 -0.0388
  332PNCE   AM2 2966   7.031   8.007   5.358 -0.0330 -0.0367  0.2798
  332PNCE   T1A 2967   6.715   8.544   5.153  0.2840 -0.1468  0.0510
  332PNCE   C2A 2968   6.426   8.855   5.291 -0.2115 -0.0249 -0.0063
  332PNCE   C3A 2969   6.465   9.246   5.335 -0.1536  0.1195  0.3017
  332PNCE   C1B 2970   6.923   8.332   5.589  0.2473 -0.1420  0.2703
  332PNCE   C2B 2971   6.525   8.601   5.699 -0.2718 -0.2565  0.1010
  332PNCE   C3B 2972   6.366   9.044   5.757 -0.0720  0.1692  0.2942
  332PNCE   D4B 2973   6.164   9.454   5.789 -0.0771 -0.1410  0.1762
  332PNCE   C5B 2974   5.960   9.685   5.990 -0.1134 -0.0366  0.0804
  332PNCE   C6B 2975   5.844  10.127   6.179  0.2320  0.2247 -0.0679
  333PNCE   AM1 2976   5.865   5.706   9.014  0.0720 -0.1326 -0.2802
  333PNCE   AM2 2977   5.979   6.035   9.160 -0.2687 -0.0441  0.1571
  333PNCE   T1A 2978   5.589   5.555   8.796 -0.1492  0.1722  0.0797
  333PNCE   C2A 2979   5.185   5.468   8.775 -0.0695 -0.1913  0.1738
  333PNCE   C3A 2980   4.936   5.683   8.927  0.1127 -0.1616 -0.2293
  333PNCE   C1B 2981   5.644   6.149   8.931  0.3424 -0.0929  0.2474
  333PNCE   C2B 2982   5.389   5.925   8.573  0.2018 -0.2607 -0.0504
  333PNCE   C3B 2983   5.159   5.976   8.309  0.1828  0.0392  0.2547
  333PNCE   D4B 2984   5.108   5.676   7.968 -0.2655  0.2107  0.1036
  333PNCE   C5B 2985   5.308   5.258   7.963 -0.2353 -0.1184 -0.0568
  333PNCE   C6B 2986   5.648   4.952   7.856 -0.0609  0.1147 -0.2628
  334PNCE   AM1 2987  11.361   7.242   8.189 -0.1214  0.2537 -0.0917
  334PNCE   AM2 2988  11.519   7.374   8.092 -0.1262 -0.2116  0.3672
  334PNCE   T1A 2989  11.310   7.281   7.652  0.1028  0.0418 -0.3283
  334PNCE   C2A 2990  11.171   7.016   7.304 -0.1288 -0.0286  0.1306
  334PNCE   C3A 2991  11.263   6.991   6.853 -0.0731 -0.0013 -0.0824
  334PNCE   C1B 2992  11.370   7.713   7.907  0.0603  0.1705 -0.0713
  334PNCE   C2B 2993  11.169   7.939   7.616 -0.2557 -0.0534 -0.3022
  334PNCE   C3B 2994  11.344   8.210   7.323  0.1397 -0.5967 -0.1612
  334PNCE   D4B 2995  11.047   8.402   7.132  0.1616  0.0125 -0.0556
  334PNCE   C5B 2996  10.980   8.231   6.768  0.0158  0.4899  0.0509
  334PNCE   C6B 2997  11.205   7.913   6.897  0.0244 -0.2646  0.0964
  335PNCE   AM1 2998  14.264   7.279   8.655 -0.2529  0.2801 -0.2277
  335PNCE   AM2 2999  14.481   7.575   8.747  0.2327  0.0797 -0.0689
  335PNCE   T1A 3000  14.196   7.266   8.116  0.0350  0.0549 -0.0211
  335PNCE   C2A 3001  14.283   7.316   7.711 -0.0033  0.1033  0.1134
  335PNCE   C3A 3002  14.340   7.139   7.255 -0.2325  0.1061 -0.1599
  335PNCE   C1B 3003  14.225   7.706   8.441  0.2379  0.1595  0.0514
  335PNCE   C2B 3004  13.847   7.651   8.128  0.3255  0.3156 -0.0005
  335PNCE   C3B 3005  13.727   7.638   7.697 -0.2653  0.1889  0.1348
  335PNCE   D4B 3006  13.969   7.586   7.346 -0.2326 -0.2608 -0.2619
  335PNCE   C5B 3007  13.849   7.826   6.990  0.2815  0.1906  0.1036
  335PNCE   C6B 3008  13.602   7.653   6.711  0.1675  0.1264 -0.0933
  336CHOL   ROH 3009  14.685  15.206   6.607  0.0340  0.0358 -0.1033
  336CHOL    R1 3010  14.809  15.458   6.571  0.1193 -0.0048 -0.0966
  336CHOL    R2 3011  15.028  15.494   6.406  0.1001 -0.0641 -0.1382
  336CHOL    R3 3012  14.871  15.685   6.293  0.1447  0.0066 -0.0807
  336CHOL    R4 3013  15.143  15.756   6.212  0.1530 -0.0433 -0.0789
  336CHOL    R5 3014  15.000  15.886   6.312  0.1954 -0.0318 -0.0388
  336CHOL    C1 3015  15.063  16.089   5.995  0.2257  0.0349  0.0096
  336CHOL    C2 3016  15.148  16.370   5.751  0.3548 -0.0323 -0.0887
  337XCA    COO 3017   4.038  14.069   9.059  0.0303 -0.2104 -0.2420
  337XCA     C1 3018   3.750  14.040   8.722  0.0803  0.1283 -0.1231
  337XCA     C2 3019   3.495  13.872   8.358 -0.0454  0.1330 -0.0128
  337XCA     C3 3020   3.385  13.748   7.973 -0.0985  0.2787  0.0034
  337XCA     C4 3021   3.373  13.443   7.645 -0.0131 -0.0584 -0.3608
  337XCA     C5 3022   3.109  13.292   7.342 -0.0979  0.1760  0.0483
  337XCA     C6 3023   2.936  12.854   7.267  0.1458 -0.2542  0.0910
  338PNCE   AM1 3024  10.532   6.210   7.973 -0.2358  0.2004 -0.1565
  338PNCE   AM2 3025  10.844   6.483   8.026 -0.1611  0.2355  0.2075
  338PNCE   T1A 3026  10.254   6.453   8.204 -0.2719  0.1092  0.1409
  338PNCE   C2A 3027  10.098   6.865   8.341  0.1622  0.0912  0.0024
  338PNCE   C3A 3028   9.612   7.008   8.342  0.2086 -0.1543 -0.1916
  338PNCE   C1B 3029  10.518   6.615   7.652 -0.1407  0.0118 -0.0725
  338PNCE   C2B 3030  10.255   6.678   7.410 -0.0335  0.0921 -0.1437
  338PNCE   C3B 3031   9.864   6.628   7.427 -0.0895  0.0663 -0.1753
  338PNCE   D4B 3032   9.451   6.831   7.388 -0.1761 -0.1624  0.0326
  338PNCE   C5B 3033   9.177   6.867   7.063 -0.2657 -0.2010 -0.0273
  338PNCE   C6B 3034   8.916   6.806   6.735 -0.1040  0.2039 -0.0656
  339CHOL   ROH 3035   2.133  13.924   7.659 -0.1649 -0.2481 -0.0681
  339CHOL    R1 3036   2.326  13.752   7.545 -0.1575 -0.2273 -0.0869
  339CHOL    R2 3037   2.306  13.656   7.286 -0.0300 -0.0059 -0.1824
  339CHOL    R3 3038   2.555  13.762   7.262  0.0280 -0.0780  0.0657
  339CHOL    R4 3039   2.533  13.572   7.040  0.0578  0.1871 -0.1690
  339CHOL    R5 3040   2.691  13.579   7.190 -0.0131 -0.0524 -0.0795
  339CHOL    C1 3041   2.899  13.623   6.873  0.1634  0.2317  0.0718
  339CHOL    C2 3042   3.227  13.735   6.767  0.1050 -0.1566 -0.1606
  340PNCE   AM1 3043  11.091  13.621   7.806 -0.2079 -0.0721 -0.1839
  340PNCE   AM2 3044  11.385  13.622   7.748 -0.0973  0.0354  0.1468
  340PNCE   T1A 3045  11.155  13.208   7.713 -0.2115 -0.2818  0.1594
  340PNCE   C2A 3046  11.321  12.680   7.713 -0.2681 -0.0126  0.0530
  340PNCE   C3A 3047  11.002  12.297   7.494 -0.1165  0.2046 -0.0593
  340PNCE   C1B 3048  11.305  13.559   7.238  0.0840 -0.0012 -0.2540
  340PNCE   C2B 3049  11.096  13.297   7.013 -0.0575 -0.0419  0.0213
  340PNCE   C3B 3050  10.791  13.252   6.786  0.3404  0.0861 -0.3193
  340PNCE   D4B 3051  10.389  13.378   6.769  0.2062  0.2133  0.3132
  340PNCE   C5B 3052  10.135  13.430   6.998 -0.1572  0.1986  0.0448
  340PNCE   C6B 3053  10.249  13.625   7.452 -0.2429 -0.0576 -0.2174
  341PNCE   AM1 3054   3.679   7.203   9.420 -0.0782  0.1056 -0.4894
  341PNCE   AM2 3055   3.434   7.473   9.445 -0.0162  0.1353  0.0770
  341PNCE   T1A 3056   3.670   7.110   8.953  0.2297  0.1403 -0.0210
  341PNCE   C2A 3057   3.526   6.781   8.735  0.0356 -0.2024  0.1441
  341PNCE   C3A 3058   3.265   6.467   8.871  0.0621  0.2229  0.0242
  341PNCE   C1B 3059   3.210   7.267   9.079  0.1253 -0.0719 -0.0338
  341PNCE   C2B 3060   3.127   7.030   8.742  0.1850  0.1219  0.0296
  341PNCE   C3B 3061   3.175   6.800   8.288  0.1358 -0.1631  0.1279
  341PNCE   D4B 3062   3.366   6.615   7.934 -0.0744  0.2289  0.0126
  341PNCE   C5B 3063   3.120   6.265   7.716  0.3146  0.2596  0.0338
  341PNCE   C6B 3064   2.795   6.370   7.385 -0.0992  0.2509  0.0150
  342PNCE   AM1 3065  14.835  13.272   8.074  0.0307  0.1991  0.3015
  342PNCE   AM2 3066  14.794  13.484   7.856  0.2509  0.0552 -0.1856
  342PNCE   T1A 3067  15.064  12.912   8.047  0.0412  0.0971 -0.0081
  342PNCE   C2A 3068  15.173  12.475   8.178  0.0921 -0.0338 -0.0087
  342PNCE   C3A 3069  15.192  12.124   8.461 -0.1794 -0.0954 -0.0420
  342PNCE   C1B 3070  15.031  13.152   7.644 -0.1981 -0.0064 -0.2242
  342PNCE   C2B 3071  15.076  13.034   7.235  0.1559 -0.1278  0.1782
  342PNCE   C3B 3072  15.120  13.233   6.944  0.0395 -0.2877  0.1835
  342PNCE   D4B 3073  15.178  13.723   6.912 -0.3777  0.0331 -0.2221
  342PNCE   C5B 3074  14.992  14.070   6.775  0.0524 -0.0941  0.0127
  342PNCE   C6B 3075  14.730  14.108   6.470 -0.0248  0.2315  0.1338
  343CHOL   ROH 3076   9.930   6.083   8.250 -0.3196 -0.0379  0.0291
  343CHOL    R1 3077   9.748   6.067   8.034 -0.2208 -0.0116 -0.0561
  343CHOL    R2 3078   9.596   6.283   7.951 -0.2059 -0.0125 -0.0767
  343CHOL    R3 3079   9.709   6.227   7.709 -0.0946  0.0529 -0.0412
  343CHOL    R4 3080   9.478   6.396   7.646 -0.2817 -0.2159 -0.1248
  343CHOL    R5 3081   9.522   6.201   7.561 -0.0436 -0.1932 -0.0700
  343CHOL    C1 3082   9.514   6.410   7.243 -0.2213 -0.2729 -0.1196
  343CHOL    C2 3083   9.412   6.391   6.861 -0.1511  0.0245  0.3039
  344CHOL   ROH 3084   9.427   7.901   5.048  0.1404  0.0846  0.2670
  344CHOL    R1 3085   9.321   7.796   5.289  0.0989 -0.1121  0.1649
  344CHOL    R2 3086   9.478   7.679   5.482  0.0948 -0.0715  0.1934
  344CHOL    R3 3087   9.358   7.861   5.645 -0.1396 -0.2416  0.2150
  344CHOL    R4 3088   9.484   7.667   5.828  0.5467  0.1644  0.2026
  344CHOL    R5 3089   9.274   7.729   5.827  0.3874 -0.3290  0.4106
  344CHOL    C1 3090   9.374   7.830   6.182  0.5896  0.1420  0.2283
  344CHOL    C2 3091   9.602   7.742   6.479 -0.1126 -0.2692  0.3273
  345PNCE   AM1 3092   8.501   0.866   8.708  0.2875 -0.0159 -0.3101
  345PNCE   AM2 3093   8.123   0.705   8.834 -0.0130 -0.1119  0.0217
  345PNCE   T1A 3094   8.389   0.655   8.393  0.1184  0.1725  0.0677
  345PNCE   C2A 3095   8.226   0.257   8.139 -0.0309 -0.1778  0.0376
  345PNCE   C3A 3096   8.135   0.158   7.789 -0.0021 -0.0737 -0.1228
  345PNCE   C1B 3097   7.911   0.524   8.555  0.0874  0.0927 -0.1266
  345PNCE   C2B 3098   7.683   0.433   8.119 -0.1348 -0.1490  0.0758
  345PNCE   C3B 3099   7.551   0.258   7.726  0.0493  0.3697 -0.4711
  345PNCE   D4B 3100   7.746  -0.073   7.553  0.3762 -0.1210  0.0154
  345PNCE   C5B 3101   7.518  -0.143   7.214  0.0178 -0.1386  0.0303
  345PNCE   C6B 3102   7.040  -0.001   7.215 -0.1670 -0.1035  0.1643
  346PNCE   AM1 3103   1.753  12.343   8.448  0.2870 -0.0473 -0.1024
  346PNCE   AM2 3104   1.469  12.412   8.599  0.5566  0.2408  0.0970
  346PNCE   T1A 3105   1.831  12.154   8.017 -0.0158  0.0860  0.1150
  346PNCE   C2A 3106   1.835  12.084   7.613 -0.0941  0.0635 -0.1387
  346PNCE   C3A 3107   1.771  11.805   7.270  0.0578  0.2214  0.1791
  346PNCE   C1B 3108   1.566  12.765   8.235  0.1666  0.2357 -0.0249
  346PNCE   C2B 3109   1.764  13.091   7.938  0.1923 -0.1670 -0.0364
  346PNCE   C3B 3110   2.166  13.069   7.584 -0.1933 -0.1316 -0.1687
  346PNCE   D4B 3111   2.353  12.734   7.416  0.0046 -0.0182 -0.1223
  346PNCE   C5B 3112   2.685  12.513   7.619 -0.1574 -0.0831 -0.0774
  346PNCE   C6B 3113   3.125  12.398   7.648 -0.0459 -0.1086  0.0501
  347PNCE   AM1 3114  10.871   9.125   9.338  0.0181  0.1210 -0.0206
  347PNCE   AM2 3115  10.625   9.255   9.358  0.0406 -0.1528 -0.3125
  347PNCE   T1A 3116  10.990   9.276   8.886 -0.1166  0.0197  0.1265
  347PNCE   C2A 3117  11.216   9.607   8.708 -0.1823 -0.1668  0.0218
  347PNCE   C3A 3118  11.559   9.733   8.552  0.1923 -0.5164  0.1630
  347PNCE   C1B 3119  10.536   9.326   8.961  0.3291 -0.1021  0.0316
  347PNCE   C2B 3120  10.650   9.499   8.638  0.2265 -0.3806  0.0215
  347PNCE   C3B 3121  10.433   9.642   8.225 -0.0786 -0.2492  0.1334
  347PNCE   D4B 3122  10.062   9.709   8.103  0.3101  0.2011  0.0872
  347PNCE   C5B 3123  10.002   9.935   7.679  0.0430  0.0856  0.0314
  347PNCE   C6B 3124  10.015  10.233   7.355 -0.0683 -0.2295  0.0130
  348XCA    COO 3125   0.150  15.169   7.877 -0.0443  0.2645 -0.1501
  348XCA     C1 3126   0.064  15.325   7.488  0.0327 -0.1370 -0.0065
  348XCA     C2 3127  -0.350  15.404   7.323 -0.0509 -0.1350  0.1025
  348XCA     C3 3128  -0.586  15.120   7.199 -0.3181  0.0147  0.0551
  348XCA     C4 3129  -0.949  15.111   7.030  0.2004 -0.1774  0.0200
  348XCA     C5 3130  -1.281  14.853   6.968 -0.0811  0.0763 -0.1639
  348XCA     C6 3131  -1.401  14.491   6.854 -0.0058  0.2941 -0.2326
  349XCA    COO 3132   2.132   6.929   5.650 -0.1172 -0.0688 -0.2238
  349XCA     C1 3133   2.012   7.039   6.084  0.0385  0.0770 -0.3721
  349XCA     C2 3134   2.024   7.019   6.523 -0.0898  0.1286  0.0646
  349XCA     C3 3135   1.864   7.108   6.974 -0.0506  0.1376 -0.1711
  349XCA     C4 3136   1.902   7.529   7.235  0.0775 -0.1085 -0.0638
  349XCA     C5 3137   1.635   7.852   7.340 -0.1730 -0.0191  0.0939
  349XCA     C6 3138   1.524   8.272   7.510 -0.1249  0.1978 -0.2261
  350XCA    COO 3139  10.199  15.760   3.646  0.2279 -0.1118 -0.0855
  350XCA     C1 3140   9.952  15.778   4.091  0.3020 -0.1077  0.1697
  350XCA     C2 3141   9.835  15.603   4.532  0.1376 -0.0708  0.1972
  350XCA     C3 3142   9.938  15.477   4.958  0.0468  0.0028  0.0510
  350XCA     C4 3143  10.185  15.294   5.250 -0.3900  0.0114 -0.1417
  350XCA     C5 3144  10.452  15.289   5.634  0.1594 -0.0314  0.0877
  350XCA     C6 3145  10.527  15.001   6.015 -0.2517  0.3026 -0.1494
  351CHOL   ROH 3146   3.573   8.274   5.524  0.0065 -0.1958 -0.1082
  351CHOL    R1 3147   3.577   8.360   5.794  0.1013 -0.0741 -0.1475
  351CHOL    R2 3148   3.422   8.242   5.990 -0.0897  0.2338 -0.1060
  351CHOL    R3 3149   3.661   8.215   6.117 -0.1362 -0.0474 -0.0709
  351CHOL    R4 3150   3.462   8.227   6.333 -0.1515  0.3329 -0.0942
  351CHOL    R5 3151   3.640   8.353   6.312  0.0337  0.0762 -0.1350
  351CHOL    C1 3152   3.710   8.193   6.652 -0.2312  0.1266 -0.0544
  351CHOL    C2 3153   3.852   8.305   6.984  0.2261 -0.0272  0.2525
  352PNCE   AM1 3154   5.593  15.547   8.771 -0.1122  0.3085 -0.1047
  352PNCE   AM2 3155   5.324  15.444   8.604 -0.4721 -0.1863 -0.1257
  352PNCE   T1A 3156   5.971  15.407   8.487  0.0700 -0.1552 -0.0696
  352PNCE   C2A 3157   6.283  15.109   8.396 -0.0461 -0.3057  0.0347
  352PNCE   C3A 3158   6.397  14.642   8.232  0.2932  0.0529 -0.2315
  352PNCE   C1B 3159   5.025  15.409   8.231  0.0781 -0.0599 -0.0260
  352PNCE   C2B 3160   5.260  15.251   7.753  0.0655 -0.1801 -0.0200
  352PNCE   C3B 3161   5.022  15.118   7.450  0.1800  0.0036 -0.0858
  352PNCE   D4B 3162   4.897  15.312   7.016 -0.0872 -0.1052  0.3992
  352PNCE   C5B 3163   4.461  15.464   6.945  0.1476  0.0323  0.1526
  352PNCE   C6B 3164   4.033  15.657   6.984 -0.0890  0.2695 -0.0802
  353PNCE   AM1 3165  15.345   3.043   7.854  0.5138  0.1508  0.2542
  353PNCE   AM2 3166  15.268   3.146   8.046  0.0926 -0.0831 -0.0466
  353PNCE   T1A 3167  15.567   2.835   7.472  0.1627 -0.0317  0.1012
  353PNCE   C2A 3168  15.762   2.897   7.057 -0.2314 -0.0227 -0.1033
  353PNCE   C3A 3169  15.721   2.935   6.633 -0.0387  0.2908 -0.2985
  353PNCE   C1B 3170  15.235   3.691   7.792 -0.1149  0.2266 -0.0581
  353PNCE   C2B 3171  15.221   3.858   7.529 -0.3491 -0.1732  0.0189
  353PNCE   C3B 3172  15.298   4.091   7.088 -0.1581 -0.2245  0.0928
  353PNCE   D4B 3173  15.144   4.392   6.833  0.0648  0.1176 -0.1106
  353PNCE   C5B 3174  14.997   4.447   6.515  0.1078  0.1096 -0.0584
  353PNCE   C6B 3175  14.853   4.396   6.034  0.1525 -0.0663 -0.0472
  354PNCE   AM1 3176  12.613   9.894   8.286  0.0486 -0.0002  0.0890
  354PNCE   AM2 3177  12.255   9.990   8.399 -0.2214  0.4171  0.2300
  354PNCE   T1A 3178  12.486   9.564   8.044  0.1292 -0.0754  0.0649
  354PNCE   C2A 3179  12.500   9.141   7.766 -0.1792 -0.0230  0.1872
  354PNCE   C3A 3180  12.691   9.045   7.361  0.2800 -0.0080 -0.2008
  354PNCE   C1B 3181  12.023   9.971   7.985 -0.2343  0.2204  0.0804
  354PNCE   C2B 3182  12.074   9.577   7.760 -0.0398  0.2197 -0.0703
  354PNCE   C3B 3183  12.429   9.563   7.474 -0.4129  0.0187 -0.0545
  354PNCE   D4B 3184  12.653   9.537   7.134 -0.1442  0.2937  0.0104
  354PNCE   C5B 3185  12.386   9.552   6.766  0.0604  0.0755  0.0278
  354PNCE   C6B 3186  12.096   9.373   6.602  0.1945 -0.3772 -0.2650
  355XCA    COO 3187   6.935   7.220   8.611  0.2749 -0.2745 -0.0552
  355XCA     C1 3188   6.540   7.184   8.394  0.1480  0.1005 -0.3976
  355XCA     C2 3189   6.418   7.193   7.897 -0.0071 -0.0969  0.1584
  355XCA     C3 3190   6.443   7.049   7.542 -0.1954 -0.0949  0.0532
  355XCA     C4 3191   6.724   6.802   7.327  0.1890  0.1691 -0.0233
  355XCA     C5 3192   6.996   6.399   7.195  0.2940 -0.0136 -0.0058
  355XCA     C6 3193   6.863   5.959   6.910  0.2849  0.2120  0.1645
  356CHOL   ROH 3194   1.887   8.800   5.460  0.2979  0.3365  0.0384
  356CHOL    R1 3195   1.772   8.683   5.690 -0.1464  0.2997 -0.1928
  356CHOL    R2 3196   1.905   8.666   5.932 -0.3138 -0.4039 -0.1315
  356CHOL    R3 3197   1.684   8.792   6.026 -0.0452  0.0560 -0.0833
  356CHOL    R4 3198   1.820   8.695   6.265 -0.2676 -0.3886 -0.1203
  356CHOL    R5 3199   1.613   8.659   6.211 -0.3605  0.1077 -0.1576
  356CHOL    C1 3200   1.562   8.830   6.548  0.0116  0.0520 -0.0687
  356CHOL    C2 3201   1.856   8.718   6.795 -0.2154 -0.1470  0.1815
  357PNCE   AM1 3202   3.652   2.547   7.212 -0.1390  0.1255 -0.2419
  357PNCE   AM2 3203   3.538   2.219   6.981 -0.2100  0.3015 -0.2132
  357PNCE   T1A 3204   4.032   2.705   7.052 -0.0138  0.1147  0.4029
  357PNCE   C2A 3205   4.445   2.902   6.813  0.0599  0.2118 -0.1366
  357PNCE   C3A 3206   4.585   3.336   6.668 -0.1277  0.2999  0.0682
  357PNCE   C1B 3207   3.563   2.310   6.566  0.0902  0.0033  0.1409
  357PNCE   C2B 3208   3.662   2.667   6.140 -0.1125 -0.1282 -0.1352
  357PNCE   C3B 3209   3.864   3.119   5.836 -0.2319  0.0554  0.1972
  357PNCE   D4B 3210   3.771   3.480   5.380  0.0500 -0.2914  0.1090
  357PNCE   C5B 3211   3.616   3.938   5.432  0.1275 -0.2530  0.0190
  357PNCE   C6B 3212   3.518   4.154   5.813 -0.0165 -0.0929  0.1361
  358CHOL   ROH 3213   3.439  10.739   8.585 -0.0394 -0.0063  0.0648
  358CHOL    R1 3214   3.556  10.820   8.340  0.0025  0.0510  0.1047
  358CHOL    R2 3215   3.405  10.910   8.126  0.0298 -0.0399  0.0530
  358CHOL    R3 3216   3.570  11.126   8.143 -0.0940  0.0540  0.0994
  358CHOL    R4 3217   3.465  11.135   7.870 -0.0921  0.0378  0.0904
  358CHOL    R5 3218   3.675  11.138   7.928 -0.0914  0.1484  0.1017
  358CHOL    C1 3219   3.655  11.468   7.737 -0.2794  0.1711  0.1559
  358CHOL    C2 3220   3.800  11.728   7.473 -0.1281 -0.0335 -0.1163
  359XCA    COO 3221   9.060  15.480   3.940 -0.1160 -0.1548 -0.0046
  359XCA     C1 3222   9.323  15.647   4.330  0.1872  0.3038 -0.2004
  359XCA     C2 3223   9.449  15.871   4.686  0.1822 -0.0429 -0.2005
  359XCA     C3 3224   9.318  15.941   5.129 -0.0246  0.0184  0.0002
  359XCA     C4 3225   9.356  16.004   5.549 -0.0547  0.0721 -0.0868
  359XCA     C5 3226   9.223  15.879   5.999 -0.1934  0.1389 -0.0050
  359XCA     C6 3227   9.081  15.555   6.242  0.1327 -0.0123  0.3105
  360PNCE   AM1 3228   8.445   6.186   9.159 -0.0400  0.1817 -0.1315
  360PNCE   AM2 3229   8.412   5.928   9.036 -0.1189 -0.1452  0.1371
  360PNCE   T1A 3230   8.798   6.491   8.949  0.3432  0.2942 -0.1910
  360PNCE   C2A 3231   9.073   6.713   8.699  0.2853  0.0553  0.0082
  360PNCE   C3A 3232   9.479   6.560   8.429  0.1779 -0.0999 -0.0981
  360PNCE   C1B 3233   8.684   6.010   8.682  0.2873  0.1127 -0.3634
  360PNCE   C2B 3234   8.691   6.373   8.492 -0.1958  0.0542  0.1824
  360PNCE   C3B 3235   8.948   6.583   8.240  0.1965  0.0053 -0.1106
  360PNCE   D4B 3236   9.296   6.727   7.997 -0.3902  0.0393 -0.0075
  360PNCE   C5B 3237   9.693   6.748   7.942 -0.0746  0.1685 -0.1657
  360PNCE   C6B 3238  10.074   6.715   7.874  0.2740 -0.0041  0.0542
  361XCA    COO 3239   7.026  13.337   5.171  0.1471  0.2970 -0.2899
  361XCA     C1 3240   7.097  13.539   5.609  0.1041 -0.0208 -0.0028
  361XCA     C2 3241   7.145  13.845   5.928 -0.0870 -0.2531  0.1394
  361XCA     C3 3242   7.001  14.016   6.380 -0.0747 -0.3466 -0.1320
  361XCA     C4 3243   6.979  14.439   6.652 -0.2373  0.0011  0.4200
  361XCA     C5 3244   6.884  14.809   7.000 -0.2936 -0.1380 -0.1310
  361XCA     C6 3245   6.533  15.083   7.193 -0.1254  0.5968  0.3876
  362CHOL   ROH 3246   8.256  12.924   8.795  0.1075 -0.0517  0.2250
  362CHOL    R1 3247   8.353  12.780   8.572  0.0386  0.0783  0.1096
  362CHOL    R2 3248   8.573  12.863   8.425  0.0847  0.0847  0.1825
  362CHOL    R3 3249   8.663  12.612   8.480 -0.0452 -0.0081 -0.0184
  362CHOL    R4 3250   8.876  12.735   8.321 -0.0249 -0.0255 -0.0070
  362CHOL    R5 3251   8.777  12.545   8.280 -0.1520  0.0596 -0.1041
  362CHOL    C1 3252   9.138  12.425   8.311 -0.2107 -0.1766 -0.3062
  362CHOL    C2 3253   9.400  12.177   8.219  0.0188 -0.2024  0.1005
  363CHOL   ROH 3254   0.541  12.499   6.577 -0.1889 -0.0066  0.0578
  363CHOL    R1 3255   0.605  12.282   6.746 -0.0728 -0.0508 -0.0397
  363CHOL    R2 3256   0.580  12.019   6.666  0.0264 -0.0324 -0.1442
  363CHOL    R3 3257   0.840  12.004   6.744  0.0440  0.0490 -0.1897
  363CHOL    R4 3258   0.776  11.735   6.646  0.0226 -0.0553  0.1132
  363CHOL    R5 3259   0.861  11.786   6.840  0.0680  0.1516  0.0384
  363CHOL    C1 3260   1.135  11.556   6.706  0.0369  0.0077  0.2202
  363CHOL    C2 3261   1.147  11.248   6.365  0.0070  0.0352 -0.0388
  364CHOL   ROH 3262   0.728   2.252   4.675 -0.2786 -0.1309 -0.1392
  364CHOL    R1 3263   0.569   2.026   4.731 -0.2776 -0.1072 -0.0371
  364CHOL    R2 3264   0.615   1.861   4.948 -0.1692 -0.1101 -0.0603
  364CHOL    R3 3265   0.354   1.914   5.004 -0.1282 -0.0698  0.0965
  364CHOL    R4 3266   0.394   1.637   5.091 -0.1415 -0.1009 -0.0033
  364CHOL    R5 3267   0.240   1.710   4.955 -0.1996 -0.0298  0.1012
  364CHOL    C1 3268   0.020   1.557   5.227 -0.0870 -0.0577  0.1770
  364CHOL    C2 3269  -0.273   1.293   5.493 -0.0806  0.1222  0.1602
  365CHOL   ROH 3270   4.660  12.250   5.697  0.1502  0.1648  0.0064
  365CHOL    R1 3271   4.685  12.125   5.950  0.0047  0.0994 -0.0106
  365CHOL    R2 3272   4.922  12.124   6.092 -0.0422 -0.0466  0.0686
  365CHOL    R3 3273   4.767  12.230   6.289 -0.0568 -0.0108  0.0383
  365CHOL    R4 3274   4.991  12.103   6.430 -0.2062 -0.2106  0.0940
  365CHOL    R5 3275   4.778  12.069   6.466 -0.2446 -0.0799 -0.0113
  365CHOL    C1 3276   4.885  12.191   6.811 -0.3153 -0.2726  0.0803
  365CHOL    C2 3277   4.774  12.218   7.234 -0.4337 -0.0460  0.2711
  366PNCE   AM1 3278  12.199   2.099   8.739 -0.0183 -0.0613  0.0206
  366PNCE   AM2 3279  12.376   2.016   8.423 -0.0884  0.0966 -0.0459
  366PNCE   T1A 3280  11.849   2.029   8.505  0.0006  0.3335 -0.1485
  366PNCE   C2A 3281  11.358   1.963   8.377  0.0651 -0.2829  0.1831
  366PNCE   C3A 3282  11.177   1.772   8.027  0.0440  0.4956 -0.1057
  366PNCE   C1B 3283  12.142   1.942   8.081  0.0569  0.0343  0.1903
  366PNCE   C2B 3284  12.027   2.051   7.715  0.1986  0.0739  0.2170
  366PNCE   C3B 3285  11.992   2.165   7.278  0.0003 -0.0123  0.1736
  366PNCE   D4B 3286  11.578   2.176   7.026  0.0253 -0.0479  0.2879
  366PNCE   C5B 3287  11.639   2.235   6.610 -0.0989  0.0398  0.1632
  366PNCE   C6B 3288  12.054   2.473   6.401  0.0374 -0.0080 -0.0311
  367CHOL   ROH 3289   7.545  10.578   8.966  0.0870  0.2827  0.1573
  367CHOL    R1 3290   7.523  10.808   8.803 -0.0206  0.2528  0.1309
  367CHOL    R2 3291   7.467  10.794   8.533  0.1941  0.1810  0.0901
  367CHOL    R3 3292   7.264  10.963   8.599 -0.0270 -0.0130 -0.0682
  367CHOL    R4 3293   7.315  11.014   8.314  0.4124  0.3079  0.0608
  367CHOL    R5 3294   7.311  11.162   8.474  0.0553  0.1463  0.2101
  367CHOL    C1 3295   7.036  11.301   8.248  0.3320  0.1995 -0.1049
  367CHOL    C2 3296   7.120  11.743   8.162 -0.0031  0.1776  0.2246
  368CHOL   ROH 3297  10.198   2.888   6.575 -0.1428 -0.0153 -0.1341
  368CHOL    R1 3298  10.058   3.046   6.764 -0.0079  0.0188 -0.0622
  368CHOL    R2 3299   9.868   3.231   6.690 -0.0270  0.0358  0.0380
  368CHOL    R3 3300   9.712   3.093   6.865  0.0578  0.0738  0.1461
  368CHOL    R4 3301   9.619   3.370   6.886 -0.1233  0.0383 -0.0848
  368CHOL    R5 3302   9.683   3.242   7.050 -0.0429  0.2107  0.0252
  368CHOL    C1 3303   9.327   3.321   7.163 -0.0998  0.0754 -0.0548
  368CHOL    C2 3304   9.154   3.634   7.401 -0.1542  0.2013 -0.1101
  369PNCE   AM1 3305   4.509  10.886   9.087 -0.2328 -0.0224 -0.1777
  369PNCE   AM2 3306   4.145  10.754   9.014  0.2102 -0.0576  0.0017
  369PNCE   T1A 3307   4.435  10.707   8.612  0.1618 -0.1113 -0.2104
  369PNCE   C2A 3308   4.504  10.417   8.345  0.0571  0.3407 -0.0927
  369PNCE   C3A 3309   4.624  10.353   7.984  0.1572  0.1567  0.1244
  369PNCE   C1B 3310   4.232  11.133   8.822 -0.0118  0.0678  0.0167
  369PNCE   C2B 3311   4.262  11.464   8.503  0.0002  0.1037 -0.1131
  369PNCE   C3B 3312   3.960  11.546   8.105  0.0711 -0.0395 -0.1402
  369PNCE   D4B 3313   3.767  11.856   7.936  0.2631 -0.4074 -0.1724
  369PNCE   C5B 3314   4.002  12.291   7.867 -0.1059 -0.1247 -0.0187
  369PNCE   C6B 3315   3.873  12.573   7.559 -0.0633 -0.4799 -0.0181
  370PNCE   AM1 3316   2.401  14.440   8.258  0.3284 -0.1015 -0.0380
  370PNCE   AM2 3317   2.516  14.124   8.382 -0.2926  0.1353 -0.3068
  370PNCE   T1A 3318   2.136  14.362   7.921 -0.0748 -0.1643 -0.0353
  370PNCE   C2A 3319   1.983  14.432   7.521 -0.0061  0.5044 -0.1715
  370PNCE   C3A 3320   1.722  14.398   7.150  0.0058  0.0561 -0.0893
  370PNCE   C1B 3321   2.487  13.912   8.030 -0.1603  0.0838  0.0654
  370PNCE   C2B 3322   2.623  13.601   7.889  0.0357 -0.3362  0.2436
  370PNCE   C3B 3323   2.934  13.789   7.569  0.1895 -0.0285 -0.0879
  370PNCE   D4B 3324   3.176  13.854   7.275 -0.2346 -0.0233 -0.0711
  370PNCE   C5B 3325   3.115  14.183   7.131 -0.0471  0.1310  0.0160
  370PNCE   C6B 3326   3.162  14.608   7.238  0.1464 -0.0989  0.3109
  371CHOL   ROH 3327  12.985   2.746   7.608 -0.2191 -0.0018 -0.0587
  371CHOL    R1 3328  12.966   2.608   7.362 -0.2460 -0.0202 -0.0468
  371CHOL    R2 3329  12.816   2.702   7.150 -0.0393  0.1126 -0.1391
  371CHOL    R3 3330  13.050   2.674   7.014  0.0029 -0.1633 -0.0161
  371CHOL    R4 3331  12.843   2.594   6.823 -0.0089  0.2367 -0.1777
  371CHOL    R5 3332  13.018   2.478   6.881 -0.2099 -0.0525 -0.1315
  371CHOL    C1 3333  13.078   2.505   6.505  0.0484  0.0500 -0.0848
  371CHOL    C2 3334  13.132   2.161   6.352 -0.0191 -0.2000 -0.0516
  372CHOL   ROH 3335  14.621   7.955   8.443  0.2900 -0.0336 -0.0669
  372CHOL    R1 3336  14.466   8.087   8.246  0.1395 -0.3376 -0.1572
  372CHOL    R2 3337  14.525   8.341   8.156 -0.4265 -0.1239  0.0421
  372CHOL    R3 3338  14.520   8.220   7.912  0.1427 -0.0220 -0.0357
  372CHOL    R4 3339  14.501   8.508   7.854 -0.3397 -0.0094  0.0969
  372CHOL    R5 3340  14.365   8.352   7.785  0.0487 -0.2533 -0.1741
  372CHOL    C1 3341  14.482   8.492   7.450  0.2453  0.1530  0.0558
  372CHOL    C2 3342  14.383   8.751   7.163  0.2088  0.2852 -0.0426
  373CHOL   ROH 3343  13.278   3.078   7.619  0.0843  0.0226  0.0998
  373CHOL    R1 3344  13.204   2.994   7.359  0.1335 -0.0840  0.1199
  373CHOL    R2 3345  13.005   3.118   7.213  0.0496 -0.2452  0.0953
  373CHOL    R3 3346  13.200   3.139   7.025  0.0329 -0.1611  0.0869
  373CHOL    R4 3347  12.956   3.225   6.888 -0.0123 -0.2695  0.0965
  373CHOL    R5 3348  13.095   3.070   6.821  0.0535 -0.2099  0.0921
  373CHOL    C1 3349  13.111   3.306   6.522 -0.0639 -0.2047  0.0894
  373CHOL    C2 3350  12.887   3.257   6.265  0.0929  0.3191  0.2749
  374XCA    COO 3351  13.909   8.571   8.778  0.1364  0.3086  0.1273
  374XCA     C1 3352  13.488   8.390   8.445  0.1888  0.2339  0.1151
  374XCA     C2 3353  13.243   8.434   8.135  0.1506 -0.0652 -0.1347
  374XCA     C3 3354  12.983   8.186   7.770  0.1741 -0.2005  0.1171
  374XCA     C4 3355  12.657   8.379   7.600  0.0099  0.0135 -0.0840
  374XCA     C5 3356  12.300   8.557   7.570 -0.1211 -0.2700  0.0539
  374XCA     C6 3357  11.998   8.973   7.672  0.1181  0.0357  0.0195
  375CHOL   ROH 3358   7.686   5.558   4.992  0.2419  0.0054  0.0534
  375CHOL    R1 3359   7.826   5.544   5.238  0.1110  0.0853  0.1328
  375CHOL    R2 3360   7.831   5.754   5.418 -0.0709  0.1048  0.1135
  375CHOL    R3 3361   7.742   5.565   5.592 -0.0923  0.0890  0.0861
  375CHOL    R4 3362   7.819   5.791   5.762 -0.1783  0.1055  0.1102
  375CHOL    R5 3363   7.886   5.585   5.781 -0.1496  0.1140  0.1299
  375CHOL    C1 3364   7.727   5.635   6.124 -0.2610  0.0910  0.0826
  375CHOL    C2 3365   7.868   5.709   6.444  0.0147 -0.0403 -0.2337
  376PNCE   AM1 3366  14.036   9.204   8.518  0.2855  0.0972 -0.1030
  376PNCE   AM2 3367  13.817   9.011   8.486  0.1036 -0.0019 -0.3500
  376PNCE   T1A 3368  14.176   9.127   8.143  0.1728 -0.2281  0.1882
  376PNCE   C2A 3369  14.447   8.939   7.745  0.2327  0.0146  0.2346
  376PNCE   C3A 3370  14.785   9.019   7.480  0.0015 -0.5378  0.0566
  376PNCE   C1B 3371  13.661   9.101   8.008  0.4327  0.1082 -0.2250
  376PNCE   C2B 3372  13.533   9.329   7.668  0.0153  0.2880  0.0153
  376PNCE   C3B 3373  13.456   8.937   7.443 -0.1699 -0.0465 -0.1530
  376PNCE   D4B 3374  13.538   8.524   7.228  0.2604 -0.1270 -0.0392
  376PNCE   C5B 3375  13.615   8.710   6.846  0.2384 -0.0772 -0.0926
  376PNCE   C6B 3376  13.592   8.914   6.559 -0.1873  0.0859  0.3235
  377XCA    COO 3377   0.597   8.496   9.250 -0.1799 -0.2739 -0.2038
  377XCA     C1 3378   0.463   8.408   8.875 -0.1786 -0.0697  0.0525
  377XCA     C2 3379   0.519   8.243   8.440 -0.2020  0.2265 -0.1604
  377XCA     C3 3380   0.662   8.231   8.051  0.2903 -0.1220  0.0369
  377XCA     C4 3381   1.042   8.467   7.724  0.1481 -0.0992  0.0101
  377XCA     C5 3382   1.253   8.735   7.407  0.0200 -0.0689  0.0559
  377XCA     C6 3383   1.381   8.570   7.083 -0.0905 -0.0002  0.2036
  378PNCE   AM1 3384   1.052  11.121   4.341  0.0300  0.0156  0.1203
  378PNCE   AM2 3385   0.830  10.850   4.260 -0.0852  0.0542  0.4281
  378PNCE   T1A 3386   0.619  11.129   4.598 -0.2604  0.1153 -0.2933
  378PNCE   C2A 3387   0.238  11.324   4.777  0.0965 -0.2162  0.1793
  378PNCE   C3A 3388   0.193  11.513   5.199  0.1250  0.0600 -0.0853
  378PNCE   C1B 3389   0.954  10.786   4.653 -0.0296 -0.0755  0.1788
  378PNCE   C2B 3390   0.962  11.051   5.009  0.2299 -0.1411  0.3927
  378PNCE   C3B 3391   0.945  11.015   5.418 -0.2523  0.1193  0.0336
  378PNCE   D4B 3392   1.063  10.651   5.726  0.0632  0.2745  0.0588
  378PNCE   C5B 3393   1.322  10.552   5.963 -0.0627 -0.0303 -0.1418
  378PNCE   C6B 3394   1.803  10.638   5.912  0.0358  0.1902  0.0887
  379CHOL   ROH 3395   3.561   8.820   8.783 -0.1871  0.1607 -0.1773
  379CHOL    R1 3396   3.661   8.726   8.535 -0.1350  0.2634 -0.1978
  379CHOL    R2 3397   3.586   8.484   8.426  0.2776  0.0563 -0.0677
  379CHOL    R3 3398   3.523   8.637   8.210 -0.1506 -0.1329 -0.0846
  379CHOL    R4 3399   3.541   8.363   8.106  0.3670 -0.1212 -0.0129
  379CHOL    R5 3400   3.647   8.538   8.030 -0.0365  0.0787 -0.1158
  379CHOL    C1 3401   3.456   8.436   7.716  0.0171 -0.4021  0.0033
  379CHOL    C2 3402   3.418   8.375   7.291 -0.4463 -0.0134  0.2139
  380CHOL   ROH 3403   9.211   7.393   7.122  0.1986 -0.2015  0.0718
  380CHOL    R1 3404   9.446   7.541   7.175  0.1071 -0.0076 -0.0529
  380CHOL    R2 3405   9.599   7.655   6.975 -0.0964  0.1269 -0.1330
  380CHOL    R3 3406   9.562   7.882   7.120 -0.2032  0.0934 -0.1062
  380CHOL    R4 3407   9.774   7.949   6.928 -0.0472  0.1317  0.0707
  380CHOL    R5 3408   9.783   7.972   7.145 -0.2158  0.0799  0.0869
  380CHOL    C1 3409   9.841   8.333   7.037 -0.1187  0.1031  0.2145
  380CHOL    C2 3410  10.070   8.540   6.886 -0.0055 -0.1111 -0.0405
  381CHOL   ROH 3411  11.583   9.107   6.921 -0.0330  0.0711 -0.0828
  381CHOL    R1 3412  11.686   9.312   6.756  0.0091  0.0165 -0.1242
  381CHOL    R2 3413  11.537   9.533   6.682  0.0097 -0.0326 -0.2773
  381CHOL    R3 3414  11.748   9.670   6.786 -0.0506  0.0366 -0.2437
  381CHOL    R4 3415  11.633   9.851   6.586 -0.2506  0.1206 -0.0473
  381CHOL    R5 3416  11.841   9.787   6.598 -0.2011  0.2613 -0.1792
  381CHOL    C1 3417  11.886  10.164   6.627 -0.4588  0.2748  0.1181
  381CHOL    C2 3418  12.113  10.412   6.859  0.0623  0.2158  0.0343
  382PNCE   AM1 3419  14.671   2.885   8.134  0.2362  0.1402 -0.3852
  382PNCE   AM2 3420  14.869   2.803   7.886 -0.0948  0.0808 -0.3176
  382PNCE   T1A 3421  14.367   2.757   7.891 -0.1038  0.1494 -0.0184
  382PNCE   C2A 3422  14.301   2.687   7.470  0.0141  0.1657  0.1191
  382PNCE   C3A 3423  14.045   2.788   7.075 -0.1294 -0.0870  0.0358
  382PNCE   C1B 3424  14.761   2.974   7.594  0.0235 -0.3507 -0.0578
  382PNCE   C2B 3425  14.672   3.085   7.096  0.3621 -0.3153 -0.1444
  382PNCE   C3B 3426  14.755   3.197   6.700 -0.1952 -0.1665  0.0166
  382PNCE   D4B 3427  15.064   3.143   6.385 -0.0358 -0.0245  0.5090
  382PNCE   C5B 3428  15.230   3.410   6.103  0.0589 -0.1264 -0.2606
  382PNCE   C6B 3429  15.369   3.455   5.667  0.1148  0.2478  0.0379
  383PNCE   AM1 3430  15.666   5.777   8.447  0.0050 -0.0332  0.0733
  383PNCE   AM2 3431  15.575   5.566   8.211  0.1319  0.0428 -0.0900
  383PNCE   T1A 3432  15.847   5.849   7.976 -0.1785 -0.1410 -0.2171
  383PNCE   C2A 3433  15.850   5.982   7.496 -0.0791  0.1398 -0.2606
  383PNCE   C3A 3434  16.006   6.286   7.314 -0.0290  0.0830  0.1870
  383PNCE   C1B 3435  15.475   5.595   7.744 -0.0172 -0.0828 -0.2231
  383PNCE   C2B 3436  15.348   6.017   7.637 -0.5340  0.3090  0.2123
  383PNCE   C3B 3437  15.284   6.250   7.295 -0.1627  0.1449  0.1538
  383PNCE   D4B 3438  15.267   6.679   7.084  0.1273 -0.5009  0.1261
  383PNCE   C5B 3439  15.183   6.687   6.594  0.1184  0.1126  0.0179
  383PNCE   C6B 3440  15.006   6.730   6.167 -0.2544 -0.2289  0.0079
  384PNCE   AM1 3441   4.787  11.834   9.333 -0.1564 -0.1238 -0.0081
  384PNCE   AM2 3442   5.046  12.082   9.323  0.0080  0.0655 -0.0298
  384PNCE   T1A 3443   4.620  11.758   8.949 -0.2620  0.1317  0.2100
  384PNCE   C2A 3444   4.737  11.834   8.555 -0.2533 -0.0115  0.1479
  384PNCE   C3A 3445   4.863  11.852   8.138  0.0105 -0.0050 -0.1954
  384PNCE   C1B 3446   5.066  12.148   8.850  0.1624 -0.5061 -0.1324
  384PNCE   C2B 3447   5.323  12.213   8.488  0.2832  0.0327  0.2338
  384PNCE   C3B 3448   5.210  12.209   8.030 -0.4103 -0.0832 -0.0894
  384PNCE   D4B 3449   5.195  12.236   7.618  0.2841  0.2462  0.0726
  384PNCE   C5B 3450   5.655  12.048   7.466  0.0807 -0.0734  0.2051
  384PNCE   C6B 3451   6.080  11.942   7.422 -0.0882 -0.0427  0.1500
  385CHOL   ROH 3452   5.405  10.609   9.042 -0.0936 -0.1010  0.0600
  385CHOL    R1 3453   5.437  10.695   8.775 -0.0973 -0.0024  0.0912
  385CHOL    R2 3454   5.666  10.646   8.628 -0.0683  0.1189  0.0951
  385CHOL    R3 3455   5.491  10.539   8.450 -0.0183  0.1214  0.0437
  385CHOL    R4 3456   5.721  10.620   8.288  0.1083 -0.0500  0.1340
  385CHOL    R5 3457   5.512  10.676   8.256  0.1499  0.0295 -0.0042
  385CHOL    C1 3458   5.588  10.505   7.923  0.2580 -0.1461  0.1084
  385CHOL    C2 3459   5.496  10.484   7.523  0.3118 -0.1938 -0.0259
  386PNCE   AM1 3460   3.618   0.535   8.024  0.1299  0.0279  0.0781
  386PNCE   AM2 3461   3.902   0.425   8.010 -0.2432  0.0085  0.0693
  386PNCE   T1A 3462   3.409   0.486   7.645 -0.4421 -0.1778  0.0504
  386PNCE   C2A 3463   3.271   0.389   7.237  0.2111  0.2387 -0.2953
  386PNCE   C3A 3464   3.213   0.584   6.813 -0.0762  0.0373  0.0141
  386PNCE   C1B 3465   4.343   0.638   7.787  0.2646 -0.2809  0.1653
  386PNCE   C2B 3466   4.669   0.909   7.790 -0.0937 -0.0949 -0.0689
  386PNCE   C3B 3467   4.976   1.231   7.526 -0.2425 -0.1524  0.4582
  386PNCE   D4B 3468   5.002   1.464   7.078 -0.1530 -0.0293  0.3593
  386PNCE   C5B 3469   5.367   1.909   7.092  0.2547  0.0913 -0.1154
  386PNCE   C6B 3470   5.621   2.200   6.853 -0.2190 -0.0454  0.1201
  387CHOL   ROH 3471   1.307  15.880   4.286  0.1602  0.0272  0.1085
  387CHOL    R1 3472   1.494  15.954   4.486  0.0896  0.1074  0.1474
  387CHOL    R2 3473   1.422  16.089   4.715 -0.0151  0.0794  0.1365
  387CHOL    R3 3474   1.547  15.882   4.838  0.0453  0.1296  0.1575
  387CHOL    R4 3475   1.538  16.095   5.041  0.1370  0.1999  0.0806
  387CHOL    R5 3476   1.715  15.987   4.974  0.1052  0.1799  0.0407
  387CHOL    C1 3477   1.723  15.903   5.346  0.2824  0.3172  0.0678
  387CHOL    C2 3478   1.878  16.207   5.474  0.0165 -0.2796 -0.0664
  388CHOL   ROH 3479   7.783   9.137   5.462  0.2172  0.2379  0.1267
  388CHOL    R1 3480   7.619   8.989   5.639  0.1819  0.0244 -0.0788
  388CHOL    R2 3481   7.705   8.907   5.888  0.0788 -0.1297 -0.0908
  388CHOL    R3 3482   7.481   9.036   5.973 -0.0285 -0.2941 -0.1181
  388CHOL    R4 3483   7.597   8.920   6.216  0.1891  0.0523 -0.0602
  388CHOL    R5 3484   7.393   8.894   6.145  0.1892 -0.2332  0.0438
  388CHOL    C1 3485   7.325   9.049   6.487  0.1525  0.0037 -0.0680
  388CHOL    C2 3486   7.164   9.142   6.781  0.0307 -0.1541 -0.0409
  389PNCE   AM1 3487   8.982   4.242   8.633  0.2257 -0.2095  0.1515
  389PNCE   AM2 3488   8.929   3.905   8.554 -0.3202  0.3210  0.0992
  389PNCE   T1A 3489   8.905   4.240   8.189 -0.1713  0.1468 -0.2084
  389PNCE   C2A 3490   8.670   4.062   7.808  0.2438 -0.2135 -0.0155
  389PNCE   C3A 3491   8.684   3.904   7.391 -0.1127 -0.0857 -0.1888
  389PNCE   C1B 3492   8.944   3.665   8.159  0.0255 -0.1068 -0.1536
  389PNCE   C2B 3493   8.747   3.570   7.818  0.1438  0.1908 -0.0450
  389PNCE   C3B 3494   8.732   3.357   7.538  0.0843 -0.0671  0.0173
  389PNCE   D4B 3495   8.464   2.984   7.305  0.0632  0.3010 -0.4523
  389PNCE   C5B 3496   8.540   2.526   7.366  0.1296 -0.2092  0.1407
  389PNCE   C6B 3497   8.376   2.165   7.473 -0.1073  0.1858  0.1642
  390CHOL   ROH 3498   8.962  15.332   4.414 -0.0467 -0.0413  0.0182
  390CHOL    R1 3499   9.100  15.282   4.656  0.0842 -0.0372 -0.0530
  390CHOL    R2 3500   9.332  15.417   4.726  0.0029  0.1307 -0.0731
  390CHOL    R3 3501   9.192  15.473   4.952  0.0270 -0.0917 -0.0023
  390CHOL    R4 3502   9.473  15.471   5.036  0.0445  0.0843 -0.0853
  390CHOL    R5 3503   9.310  15.357   5.125  0.1634 -0.0840 -0.0950
  390CHOL    C1 3504   9.424  15.555   5.430  0.0914 -0.1514 -0.0259
  390CHOL    C2 3505   9.453  15.462   5.864 -0.2599 -0.1321 -0.0358
  391XCA    COO 3506   0.972   0.165   8.184  0.0345  0.0396  0.3562
  391XCA     C1 3507   0.960   0.106   7.741  0.1983  0.0483 -0.2923
  391XCA     C2 3508   0.779   0.057   7.371  0.0230  0.0874  0.3522
  391XCA     C3 3509   0.792  -0.042   6.929 -0.5641 -0.0050 -0.0564
  391XCA     C4 3510   0.560  -0.260   6.704  0.2709  0.0134 -0.2735
  391XCA     C5 3511   0.496  -0.651   6.552  0.0600 -0.1706 -0.1676
  391XCA     C6 3512   0.269  -0.693   6.160  0.3289  0.1651 -0.1709
  392CHOL   ROH 3513   8.043   3.275   8.658  0.1269  0.4045 -0.1723
  392CHOL    R1 3514   7.958   3.072   8.480 -0.0594  0.3106  0.0182
  392CHOL    R2 3515   7.780   3.119   8.273 -0.0264  0.2773 -0.0213
  392CHOL    R3 3516   7.977   3.009   8.122 -0.1248 -0.0378  0.0730
  392CHOL    R4 3517   7.737   2.991   7.955 -0.0945  0.2414  0.0026
  392CHOL    R5 3518   7.871   2.828   8.008 -0.3344  0.0729  0.0922
  392CHOL    C1 3519   7.897   2.813   7.628 -0.2265 -0.0754  0.1050
  392CHOL    C2 3520   8.038   2.597   7.375 -0.0614  0.2501 -0.2709
  393XCA    COO 3521   5.486   3.298   8.337  0.0128 -0.1395 -0.2146
  393XCA     C1 3522   5.365   2.985   7.903  0.2465 -0.1824  0.0991
  393XCA     C2 3523   5.543   2.916   7.411  0.2564 -0.0995 -0.1629
  393XCA     C3 3524   5.759   3.187   7.122  0.0629 -0.2491  0.0167
  393XCA     C4 3525   6.058   3.111   6.706  0.0926 -0.1085 -0.1621
  393XCA     C5 3526   6.110   2.918   6.340 -0.0300 -0.0396 -0.2333
  393XCA     C6 3527   6.251   2.638   6.253  0.2452  0.0524 -0.0873
  394PNCE   AM1 3528  10.027  14.372   8.713 -0.0273 -0.2421  0.1005
  394PNCE   AM2 3529  10.237  14.112   8.839 -0.0932 -0.3461 -0.1338
  394PNCE   T1A 3530  10.233  14.231   8.333 -0.4308  0.2371 -0.0513
  394PNCE   C2A 3531  10.430  13.898   8.133 -0.1138 -0.0388  0.0106
  394PNCE   C3A 3532  10.595  13.698   7.801  0.1633 -0.1301  0.1933
  394PNCE   C1B 3533  10.049  13.889   8.554  0.2297  0.0624 -0.0985
  394PNCE   C2B 3534   9.906  13.861   8.047  0.0590  0.0521  0.2532
  394PNCE   C3B 3535   9.788  14.053   7.691  0.2051  0.0230 -0.0302
  394PNCE   D4B 3536   9.687  14.257   7.325 -0.0930  0.0961  0.0230
  394PNCE   C5B 3537   9.780  14.159   6.897 -0.2734  0.2607  0.0531
  394PNCE   C6B 3538   9.746  14.515   6.443  0.0826  0.4317 -0.0108
  395CHOL   ROH 3539   0.060   8.118   8.540 -0.0848  0.2546  0.0626
  395CHOL    R1 3540   0.089   7.982   8.293 -0.0932  0.0901  0.1508
  395CHOL    R2 3541  -0.024   8.075   8.059 -0.0120 -0.0091  0.0738
  395CHOL    R3 3542   0.231   8.056   7.966 -0.0027 -0.1702  0.1286
  395CHOL    R4 3543   0.069   7.906   7.772 -0.1100  0.2048 -0.0874
  395CHOL    R5 3544   0.245   7.833   7.879 -0.2116 -0.0960 -0.1112
  395CHOL    C1 3545   0.362   7.789   7.518 -0.1585  0.1781 -0.1299
  395CHOL    C2 3546   0.562   7.414   7.391  0.2470  0.0763  0.5629
  396CHOL   ROH 3547   0.270  10.970   8.204 -0.3051  0.0333  0.1408
  396CHOL    R1 3548   0.208  10.874   7.945 -0.3399  0.0182  0.1549
  396CHOL    R2 3549   0.018  10.993   7.783 -0.1521  0.1874  0.0588
  396CHOL    R3 3550   0.223  11.002   7.605 -0.0864 -0.1131  0.1142
  396CHOL    R4 3551  -0.000  10.883   7.456 -0.1794  0.0641  0.1014
  396CHOL    R5 3552   0.200  10.799   7.478 -0.2719 -0.1474  0.1964
  396CHOL    C1 3553   0.181  10.826   7.098 -0.1337 -0.2897  0.1782
  396CHOL    C2 3554  -0.136  10.704   6.862  0.0388  0.3589 -0.0933
  397PNCE   AM1 3555   9.042   2.443   8.874  0.2496  0.1600  0.0298
  397PNCE   AM2 3556   9.275   2.421   8.669 -0.2107  0.0793  0.0370
  397PNCE   T1A 3557   8.831   2.057   8.744 -0.1882  0.2383 -0.0342
  397PNCE   C2A 3558   8.571   1.789   8.529 -0.3857 -0.1257  0.0006
  397PNCE   C3A 3559   8.278   1.709   8.265  0.0099  0.0277  0.0305
  397PNCE   C1B 3560   9.181   2.649   8.369  0.1223  0.0082 -0.0839
  397PNCE   C2B 3561   8.739   2.745   8.211  0.0501  0.0847 -0.2053
  397PNCE   C3B 3562   8.326   2.743   8.323  0.0051  0.1914  0.0882
  397PNCE   D4B 3563   7.983   2.547   8.443 -0.3028  0.0009  0.3068
  397PNCE   C5B 3564   7.553   2.711   8.399  0.1409  0.2031  0.0190
  397PNCE   C6B 3565   7.356   3.152   8.469 -0.0910  0.1348 -0.2853
  398CHOL   ROH 3566  13.140   0.854   4.232 -0.0427 -0.0068 -0.0077
  398CHOL    R1 3567  13.025   0.904   4.485 -0.0323  0.0406 -0.0125
  398CHOL    R2 3568  12.833   0.739   4.596 -0.0003  0.0409  0.0409
  398CHOL    R3 3569  13.006   0.733   4.806  0.0146  0.1188  0.0329
  398CHOL    R4 3570  12.740   0.733   4.929  0.0065 -0.3766  0.0409
  398CHOL    R5 3571  12.903   0.871   4.972 -0.1916 -0.1674  0.1534
  398CHOL    C1 3572  12.848   0.724   5.319  0.0244 -0.5466  0.0334
  398CHOL    C2 3573  13.118   0.742   5.568  0.1086  0.2145  0.1603
  399CHOL   ROH 3574   6.230   6.414   9.006 -0.0706  0.0654 -0.0818
  399CHOL    R1 3575   5.996   6.566   8.958 -0.0259  0.1388 -0.0736
  399CHOL    R2 3576   5.987   6.770   8.771 -0.0279  0.0054 -0.2268
  399CHOL    R3 3577   5.775   6.628   8.676 -0.1423  0.0253 -0.0071
  399CHOL    R4 3578   5.703   6.909   8.633 -0.0431  0.0190 -0.1806
  399CHOL    R5 3579   5.584   6.759   8.737 -0.0527  0.1515 -0.0048
  399CHOL    C1 3580   5.338   6.858   8.462 -0.1593  0.0456  0.0526
  399CHOL    C2 3581   5.212   6.828   8.078 -0.2213 -0.0792 -0.3023
  400XCA    COO 3582  13.663   4.327   4.169  0.1660 -0.0435  0.0937
  400XCA     C1 3583  13.617   4.306   4.607 -0.0705  0.2816 -0.1812
  400XCA     C2 3584  13.495   4.459   4.903  0.0669  0.0787  0.1152
  400XCA     C3 3585  13.044   4.410   5.122  0.0091 -0.0103  0.1136
  400XCA     C4 3586  12.818   4.161   5.417 -0.0385  0.2238  0.3245
  400XCA     C5 3587  12.914   3.719   5.356 -0.1580  0.1670  0.0557
  400XCA     C6 3588  13.004   3.246   5.648 -0.1829 -0.2367  0.2508
  401CHOL   ROH 3589  13.381   3.416   7.400 -0.0457  0.0882  0.0730
  401CHOL    R1 3590  13.232   3.537   7.192 -0.0969 -0.0651  0.0185
  401CHOL    R2 3591  13.346   3.711   7.010 -0.2270  0.1357  0.1228
  401CHOL    R3 3592  13.239   3.539   6.828  0.1079  0.0264  0.0216
  401CHOL    R4 3593  13.231   3.800   6.696 -0.3298  0.0789  0.1440
  401CHOL    R5 3594  13.063   3.663   6.724 -0.0978 -0.2336  0.0498
  401CHOL    C1 3595  13.063   3.690   6.343 -0.0753 -0.0567  0.0614
  401CHOL    C2 3596  12.997   3.641   5.945 -0.0623  0.1798 -0.1141
  402CHOL   ROH 3597   6.584  15.798   8.469 -0.0217  0.0926 -0.0158
  402CHOL    R1 3598   6.697  15.743   8.215 -0.1050 -0.0509 -0.0244
  402CHOL    R2 3599   6.889  15.549   8.177 -0.0326 -0.0030  0.0401
  402CHOL    R3 3600   6.714  15.458   7.990 -0.0809 -0.2174  0.1882
  402CHOL    R4 3601   6.975  15.355   7.904 -0.0519  0.0272  0.0139
  402CHOL    R5 3602   6.835  15.471   7.783 -0.2550 -0.1407  0.0958
  402CHOL    C1 3603   6.860  15.156   7.569 -0.1084 -0.1564  0.1377
  402CHOL    C2 3604   7.235  14.987   7.292  0.0525 -0.0043 -0.1674
  403XCA    COO 3605   7.925   6.141   9.118 -0.0877 -0.0810 -0.0175
  403XCA     C1 3606   7.713   6.300   8.667 -0.2646  0.0514  0.2100
  403XCA     C2 3607   7.608   6.354   8.230  0.0234 -0.0130 -0.2714
  403XCA     C3 3608   7.658   6.483   7.816  0.3528  0.1595 -0.0048
  403XCA     C4 3609   7.345   6.733   7.660  0.0015  0.3707  0.1379
  403XCA     C5 3610   6.935   6.955   7.735  0.1792 -0.1434  0.0650
  403XCA     C6 3611   6.880   7.247   8.061  0.0858  0.0244 -0.1493
  404XCA    COO 3612   1.786   8.278   9.332  0.2294  0.0934  0.2432
  404XCA     C1 3613   1.755   8.170   8.870  0.1648 -0.0434 -0.1896
  404XCA     C2 3614   1.810   8.241   8.373  0.5110  0.5047 -0.3048
  404XCA     C3 3615   1.674   8.547   8.130  0.0769 -0.1732 -0.0808
  404XCA     C4 3616   1.578   8.757   7.793 -0.2340 -0.0970  0.0781
  404XCA     C5 3617   1.778   8.747   7.360 -0.0425 -0.2927 -0.0907
  404XCA     C6 3618   2.111   8.743   7.187  0.1027 -0.0324 -0.2148
  405PNCE   AM1 3619  11.188  13.992   7.437 -0.3033 -0.0930  0.1982
  405PNCE   AM2 3620  10.939  14.043   7.546 -0.3065 -0.0128  0.2356
  405PNCE   T1A 3621  11.463  13.932   7.003  0.0875 -0.1603  0.0136
  405PNCE   C2A 3622  11.471  13.722   6.605  0.0629  0.3393 -0.0092
  405PNCE   C3A 3623  11.603  13.984   6.236  0.1293  0.0073  0.1703
  405PNCE   C1B 3624  10.816  14.324   7.175  0.1825 -0.3096 -0.1567
  405PNCE   C2B 3625  10.618  14.226   6.771  0.2383  0.2460 -0.1175
  405PNCE   C3B 3626  10.621  14.142   6.326  0.1381  0.4865 -0.3124
  405PNCE   D4B 3627  10.329  14.151   6.022  0.0519 -0.2101 -0.1156
  405PNCE   C5B 3628   9.913  14.136   6.148  0.0771  0.2505 -0.0918
  405PNCE   C6B 3629   9.504  14.108   6.511 -0.0371 -0.2896  0.0541
  406PNCE   AM1 3630  13.380  12.596   7.949  0.0029  0.1173 -0.3166
  406PNCE   AM2 3631  13.658  12.717   8.093 -0.1869 -0.1458 -0.1469
  406PNCE   T1A 3632  13.165  12.501   7.581  0.2306  0.0573 -0.0424
  406PNCE   C2A 3633  12.975  12.561   7.175  0.2286  0.1483 -0.3578
  406PNCE   C3A 3634  13.121  12.327   6.826 -0.5238 -0.0102 -0.1117
  406PNCE   C1B 3635  13.885  12.579   7.725 -0.1620 -0.0504  0.1095
  406PNCE   C2B 3636  13.884  12.512   7.257 -0.1540  0.1287 -0.0460
  406PNCE   C3B 3637  13.986  12.148   7.285 -0.1868  0.1517 -0.2632
  406PNCE   D4B 3638  13.957  12.105   7.710  0.1540  0.2500 -0.0006
  406PNCE   C5B 3639  14.262  12.136   7.796 -0.0062  0.1282 -0.3128
  406PNCE   C6B 3640  14.416  11.830   8.048  0.1666 -0.1851 -0.0852
  407PNCE   AM1 3641  13.538   5.755   7.982 -0.1553 -0.1686  0.1984
  407PNCE   AM2 3642  13.237   5.952   8.164 -0.1051 -0.0627 -0.6054
  407PNCE   T1A 3643  13.724   5.574   7.549  0.0578  0.1140  0.0176
  407PNCE   C2A 3644  13.656   5.370   7.145  0.1197  0.4296 -0.0780
  407PNCE   C3A 3645  13.302   5.023   7.119  0.2041  0.1172  0.0763
  407PNCE   C1B 3646  13.457   6.267   7.936 -0.1398 -0.0827  0.2180
  407PNCE   C2B 3647  13.797   6.588   7.852 -0.0396  0.3455 -0.0921
  407PNCE   C3B 3648  14.156   6.826   7.623 -0.3724  0.0949  0.1173
  407PNCE   D4B 3649  14.280   6.589   7.145 -0.2367 -0.3011  0.1229
  407PNCE   C5B 3650  14.247   6.393   6.726  0.3866 -0.0364  0.0473
  407PNCE   C6B 3651  14.174   6.403   6.363  0.0664 -0.2083  0.0436
  408XCA    COO 3652  10.555   8.567   4.867  0.0829 -0.1346 -0.0135
  408XCA     C1 3653  10.415   8.182   5.009 -0.1962  0.2000 -0.1952
  408XCA     C2 3654  10.468   7.627   4.996  0.0018  0.1492  0.5471
  408XCA     C3 3655  10.701   7.329   5.204 -0.2902 -0.0504  0.2491
  408XCA     C4 3656  10.823   7.195   5.655 -0.1368 -0.0029  0.2222
  408XCA     C5 3657  10.717   7.491   6.010  0.1760 -0.0119 -0.3848
  408XCA     C6 3658  10.630   7.489   6.388  0.0875  0.3272 -0.1506
  409XCA    COO 3659  12.545   4.660   7.610  0.0563 -0.2813  0.1542
  409XCA     C1 3660  12.342   4.981   7.289  0.0089  0.0114 -0.1571
  409XCA     C2 3661  12.148   5.294   6.818 -0.0372  0.0926 -0.0481
  409XCA     C3 3662  12.067   5.667   6.653 -0.3017  0.0984 -0.1221
  409XCA     C4 3663  11.614   5.777   6.757  0.0416  0.0303  0.0537
  409XCA     C5 3664  11.483   6.001   7.104  0.1083  0.0185 -0.0740
  409XCA     C6 3665  11.085   6.219   7.093 -0.0055  0.0888  0.2654
  410CHOL   ROH 3666   4.142  14.709   6.388  0.2315  0.0534  0.3219
  410CHOL    R1 3667   4.299  14.488   6.305 -0.0566 -0.0445  0.0140
  410CHOL    R2 3668   4.258  14.359   6.064 -0.2034  0.3683 -0.1928
  410CHOL    R3 3669   4.523  14.412   6.029 -0.1218  0.0647 -0.0693
  410CHOL    R4 3670   4.461  14.208   5.828 -0.2946  0.2219 -0.1780
  410CHOL    R5 3671   4.620  14.200   5.977 -0.3581 -0.0334 -0.1203
  410CHOL    C1 3672   4.827  14.170   5.658 -0.2711 -0.1484 -0.0534
  410CHOL    C2 3673   5.019  13.858   5.506 -0.2404  0.1616  0.0980
  411PNCE   AM1 3674   3.301  10.027   8.852  0.1168  0.1354  0.1349
  411PNCE   AM2 3675   3.414  10.175   8.556  0.2362  0.0317  0.0031
  411PNCE   T1A 3676   3.267   9.615   8.550  0.2179 -0.1373  0.0080
  411PNCE   C2A 3677   3.443   9.517   8.159 -0.2913  0.2193 -0.1486
  411PNCE   C3A 3678   3.860   9.478   7.888 -0.3360 -0.0440  0.0320
  411PNCE   C1B 3679   3.267  10.484   8.256 -0.0362  0.1206 -0.0944
  411PNCE   C2B 3680   2.886  10.409   7.964 -0.0609 -0.1136 -0.1275
  411PNCE   C3B 3681   2.328  10.337   8.004 -0.0734  0.0192  0.1783
  411PNCE   D4B 3682   2.078  10.034   7.785 -0.1851  0.2505 -0.0404
  411PNCE   C5B 3683   1.927   9.718   7.972  0.0835  0.4092 -0.1034
  411PNCE   C6B 3684   1.878   9.681   8.294 -0.2594  0.1699 -0.1030
  412CHOL   ROH 3685   1.592   5.562   5.424  0.1648  0.0579 -0.0840
  412CHOL    R1 3686   1.461   5.477   5.660  0.1648 -0.0752 -0.1318
  412CHOL    R2 3687   1.596   5.429   5.896  0.1344  0.0125 -0.0997
  412CHOL    R3 3688   1.415   5.604   5.998 -0.0426 -0.1484 -0.1303
  412CHOL    R4 3689   1.507   5.449   6.230  0.0899 -0.0476 -0.1074
  412CHOL    R5 3690   1.300   5.479   6.167  0.0614 -0.2484 -0.1288
  412CHOL    C1 3691   1.285   5.626   6.519 -0.1023 -0.2335 -0.1407
  412CHOL    C2 3692   1.631   5.751   6.590 -0.1933  0.1170 -0.2696
  413CHOL   ROH 3693   5.277  12.143   5.520 -0.0156 -0.0902 -0.0301
  413CHOL    R1 3694   5.412  12.062   5.755  0.0733 -0.1603 -0.1045
  413CHOL    R2 3695   5.294  12.068   6.005  0.2760  0.0908 -0.0076
  413CHOL    R3 3696   5.368  11.806   6.011 -0.0431 -0.0029  0.0340
  413CHOL    R4 3697   5.282  11.864   6.284  0.1338  0.1760  0.0494
  413CHOL    R5 3698   5.472  11.778   6.224  0.0055 -0.0757 -0.0010
  413CHOL    C1 3699   5.344  11.501   6.452 -0.2486  0.1377  0.1216
  413CHOL    C2 3700   5.181  11.470   6.837  0.0049  0.2466  0.3313
  414CHOL   ROH 3701  14.669  10.221   5.060 -0.0835  0.2796  0.0912
  414CHOL    R1 3702  14.660  10.354   5.309  0.0040  0.1053  0.1895
  414CHOL    R2 3703  14.678  10.220   5.551  0.2490 -0.0491  0.0895
  414CHOL    R3 3704  14.881  10.395   5.596  0.1746  0.0438  0.0682
  414CHOL    R4 3705  14.814  10.289   5.861  0.1348  0.1433  0.0986
  414CHOL    R5 3706  14.825  10.499   5.804  0.0770  0.1215  0.0041
  414CHOL    C1 3707  15.085  10.494   6.083 -0.0018  0.3428  0.0839
  414CHOL    C2 3708  15.093  10.839   6.266 -0.0816 -0.0959  0.1685
  415XCA    COO 3709   6.400   2.682   3.823 -0.1323 -0.2275 -0.0300
  415XCA     C1 3710   6.406   2.622   4.228  0.1565  0.5885 -0.1825
  415XCA     C2 3711   6.211   2.716   4.654 -0.0027 -0.3319 -0.3641
  415XCA     C3 3712   6.120   2.991   5.092  0.0385  0.0012  0.0792
  415XCA     C4 3713   6.106   3.084   5.503  0.0881  0.2547 -0.1081
  415XCA     C5 3714   5.983   2.859   5.812  0.0302 -0.1909 -0.1804
  415XCA     C6 3715   5.597   2.797   6.047 -0.0358  0.1220  0.0211
  416PNCE   AM1 3716   7.500   3.720   8.885  0.0783 -0.0303  0.4302
  416PNCE   AM2 3717   7.581   4.125   8.720 -0.3863 -0.0101  0.4243
  416PNCE   T1A 3718   7.774   3.614   8.485 -0.1913  0.0570 -0.1961
  416PNCE   C2A 3719   8.068   3.448   8.178 -0.4336 -0.1192  0.0871
  416PNCE   C3A 3720   8.103   3.259   7.692  0.1074 -0.3445 -0.3623
  416PNCE   C1B 3721   7.477   4.174   8.297  0.0254  0.0785 -0.0240
  416PNCE   C2B 3722   7.399   4.299   7.890 -0.1437  0.0469 -0.1802
  416PNCE   C3B 3723   7.092   4.297   7.524  0.0882  0.3424  0.1460
  416PNCE   D4B 3724   6.795   4.203   7.123 -0.2133  0.2063 -0.1481
  416PNCE   C5B 3725   6.425   4.372   6.998 -0.1406  0.0453 -0.3445
  416PNCE   C6B 3726   6.262   4.719   6.883 -0.0406  0.2097 -0.1574
  417CHOL   ROH 3727  15.723  12.720   4.545 -0.2168  0.3257 -0.0474
  417CHOL    R1 3728  15.796  12.759   4.815 -0.0496 -0.1647 -0.0124
  417CHOL    R2 3729  15.676  12.949   4.976  0.4162 -0.0818  0.2449
  417CHOL    R3 3730  15.632  12.737   5.139 -0.0147 -0.1924  0.0058
  417CHOL    R4 3731  15.536  12.968   5.291  0.2613 -0.1761  0.1847
  417CHOL    R5 3732  15.680  12.819   5.359 -0.0025 -0.4833  0.1235
  417CHOL    C1 3733  15.414  12.779   5.628 -0.2334 -0.3349 -0.0749
  417CHOL    C2 3734  15.576  12.809   5.781 -0.2008 -0.0308  0.0696
  418CHOL   ROH 3735  14.917  13.542   7.408 -0.1951  0.2867 -0.2674
  418CHOL    R1 3736  15.196  13.580   7.374 -0.1747  0.1844 -0.2098
  418CHOL    R2 3737  15.378  13.373   7.398 -0.2538  0.1306 -0.1204
  418CHOL    R3 3738  15.453  13.454   7.150 -0.1603  0.0489 -0.1206
  418CHOL    R4 3739  15.694  13.333   7.264 -0.2097  0.0516  0.0037
  418CHOL    R5 3740  15.678  13.532   7.178 -0.1582  0.0321 -0.0628
  418CHOL    C1 3741  15.949  13.385   6.954 -0.0963 -0.0712  0.0757
  418CHOL    C2 3742  16.203  13.402   6.863  0.2234  0.1172 -0.1858
  419XCA    COO 3743   9.480  11.492   9.713  0.1958 -0.2556  0.1455
  419XCA     C1 3744   9.210  11.711   9.338  0.2145  0.3259 -0.1445
  419XCA     C2 3745   9.371  11.795   8.968 -0.2468 -0.0149 -0.0158
  419XCA     C3 3746   9.239  11.844   8.534 -0.0896 -0.2429 -0.1792
  419XCA     C4 3747   9.132  11.591   8.177  0.1475  0.1250  0.0997
  419XCA     C5 3748   8.929  11.812   7.745 -0.1956  0.0031 -0.1477
  419XCA     C6 3749   8.886  12.113   7.317 -0.0549  0.2578  0.0607
  420PNCE   AM1 3750   5.984   3.359   8.560  0.3516 -0.0092 -0.1277
  420PNCE   AM2 3751   5.683   3.468   8.768  0.0780 -0.1623 -0.0512
  420PNCE   T1A 3752   5.913   3.588   8.191  0.2099 -0.3420 -0.2043
  420PNCE   C2A 3753   6.102   3.529   7.830 -0.0153  0.0130 -0.2045
  420PNCE   C3A 3754   6.026   3.440   7.490  0.3257  0.0239 -0.1507
  420PNCE   C1B 3755   5.734   3.861   8.678  0.1774  0.2843  0.0584
  420PNCE   C2B 3756   5.965   4.107   8.386  0.1129 -0.1401  0.1908
  420PNCE   C3B 3757   6.008   4.009   7.885  0.3274 -0.2863 -0.1498
  420PNCE   D4B 3758   5.623   3.970   7.550  0.0389  0.4104 -0.2455
  420PNCE   C5B 3759   5.431   4.150   7.164 -0.0248 -0.1414  0.0916
  420PNCE   C6B 3760   5.207   4.234   6.753 -0.3251 -0.3777  0.0140
  421CHOL   ROH 3761   9.447   6.031   8.361  0.1512  0.0674 -0.0934
  421CHOL    R1 3762   9.263   5.971   8.154  0.2272 -0.1999 -0.0875
  421CHOL    R2 3763   9.156   6.165   7.990 -0.2054 -0.3215  0.0382
  421CHOL    R3 3764   9.252   6.005   7.792  0.0892 -0.0259 -0.0683
  421CHOL    R4 3765   9.063   6.184   7.657 -0.3318 -0.3482  0.0714
  421CHOL    R5 3766   9.063   5.966   7.650  0.1275 -0.3546 -0.0369
  421CHOL    C1 3767   9.099   6.044   7.278 -0.1288 -0.0862 -0.0093
  421CHOL    C2 3768   8.772   5.831   7.121 -0.2557  0.0092 -0.1310
  422PNCE   AM1 3769  13.984   5.506   8.451  0.0635 -0.0754  0.0395
  422PNCE   AM2 3770  14.154   5.312   8.596 -0.0517  0.0935 -0.2278
  422PNCE   T1A 3771  13.936   5.377   8.003  0.2006  0.0598  0.0247
  422PNCE   C2A 3772  14.173   5.369   7.545  0.1123  0.1899 -0.3131
  422PNCE   C3A 3773  14.117   5.657   7.176  0.0544  0.0880 -0.1666
  422PNCE   C1B 3774  14.489   5.521   8.295  0.2120 -0.3065 -0.3540
  422PNCE   C2B 3775  14.669   5.463   7.840  0.1287  0.0078 -0.2110
  422PNCE   C3B 3776  15.053   5.488   7.450 -0.0154  0.1952  0.3619
  422PNCE   D4B 3777  15.377   5.759   7.215  0.0524  0.3372  0.1890
  422PNCE   C5B 3778  15.466   5.695   6.776  0.0971  0.1102  0.0561
  422PNCE   C6B 3779  15.742   5.775   6.408  0.1873 -0.1408 -0.4573
  423PNCE   AM1 3780   5.414  11.722   9.400 -0.0613  0.1787 -0.1174
  423PNCE   AM2 3781   5.670  11.542   9.241 -0.2028  0.0299 -0.1222
  423PNCE   T1A 3782   5.504  12.058   9.144  0.0171  0.2267  0.0051
  423PNCE   C2A 3783   5.650  12.396   8.886  0.1720 -0.2021  0.2923
  423PNCE   C3A 3784   5.953  12.757   9.068 -0.1658 -0.0500  0.4445
  423PNCE   C1B 3785   5.777  11.827   8.774  0.1609  0.0686  0.0036
  423PNCE   C2B 3786   6.004  11.841   8.331 -0.1544 -0.4143  0.1194
  423PNCE   C3B 3787   6.251  11.801   7.983 -0.2510 -0.2041 -0.2459
  423PNCE   D4B 3788   6.550  12.041   7.744 -0.0605  0.0495  0.2456
  423PNCE   C5B 3789   6.602  11.848   7.317  0.0291 -0.3433  0.0064
  423PNCE   C6B 3790   6.793  11.895   6.987  0.2454  0.0721 -0.0421
  424CHOL   ROH 3791   2.338   9.423   8.202 -0.3403  0.2152 -0.1289
  424CHOL    R1 3792   2.289   9.455   7.925 -0.1543  0.1846 -0.1659
  424CHOL    R2 3793   2.454   9.604   7.761  0.0571  0.0141 -0.1071
  424CHOL    R3 3794   2.462   9.375   7.615 -0.0360 -0.0277 -0.0483
  424CHOL    R4 3795   2.588   9.576   7.443  0.0712 -0.1210 -0.0905
  424CHOL    R5 3796   2.421   9.446   7.390  0.0128 -0.0613 -0.0708
  424CHOL    C1 3797   2.673   9.345   7.121 -0.0079 -0.2391 -0.0257
  424CHOL    C2 3798   2.937   9.255   6.902  0.0752 -0.2873  0.0762
  425PNCE   AM1 3799   1.638   4.156   4.164  0.0186 -0.0501  0.0308
  425PNCE   AM2 3800   1.792   4.479   4.187  0.1136  0.0553  0.0605
  425PNCE   T1A 3801   1.978   3.775   4.218  0.2530  0.1666  0.0968
  425PNCE   C2A 3802   2.482   3.811   4.164  0.1171 -0.1452  0.0086
  425PNCE   C3A 3803   2.871   3.852   4.209 -0.4891  0.0425 -0.0116
  425PNCE   C1B 3804   1.808   4.473   4.675 -0.0023 -0.0045  0.1997
  425PNCE   C2B 3805   1.653   4.278   5.040  0.1386 -0.0594 -0.1225
  425PNCE   C3B 3806   1.654   4.416   5.465  0.0814  0.3263  0.0640
  425PNCE   D4B 3807   1.871   4.477   5.946  0.3032  0.1753  0.1663
  425PNCE   C5B 3808   2.246   4.738   6.068 -0.0039 -0.3401 -0.2598
  425PNCE   C6B 3809   2.270   5.055   6.463  0.0667 -0.0031  0.0888
  426PNCE   AM1 3810   0.277  10.567   8.537 -0.3672 -0.1556 -0.0242
  426PNCE   AM2 3811  -0.018  10.420   8.523 -0.1356 -0.1833  0.0159
  426PNCE   T1A 3812   0.525  10.611   8.288 -0.0840  0.0604 -0.2548
  426PNCE   C2A 3813   0.953  10.597   8.055  0.2427 -0.0743  0.2992
  426PNCE   C3A 3814   0.991  10.581   7.618 -0.4105 -0.0820  0.3612
  426PNCE   C1B 3815  -0.096  10.406   8.121 -0.0593 -0.0090 -0.1565
  426PNCE   C2B 3816   0.017  10.410   7.649  0.1479 -0.2619 -0.1974
  426PNCE   C3B 3817  -0.106  10.446   7.301 -0.1013 -0.1466 -0.2011
  426PNCE   D4B 3818  -0.499  10.628   7.179  0.1362  0.1281  0.0175
  426PNCE   C5B 3819  -0.805  10.364   7.189  0.2676  0.0079 -0.1844
  426PNCE   C6B 3820  -1.094  10.208   6.893 -0.2425 -0.1951 -0.1928
  427PNCE   AM1 3821  15.284   6.179   8.112 -0.2164  0.0490 -0.2861
  427PNCE   AM2 3822  15.147   6.440   8.217 -0.0153 -0.4411 -0.0782
  427PNCE   T1A 3823  15.071   6.379   7.730  0.0037 -0.0133 -0.3793
  427PNCE   C2A 3824  15.001   6.843   7.546 -0.0344 -0.0054 -0.1373
  427PNCE   C3A 3825  14.811   6.908   7.098 -0.2936  0.2262  0.3011
  427PNCE   C1B 3826  15.008   6.894   8.091  0.0423  0.0165  0.0427
  427PNCE   C2B 3827  14.714   7.162   7.895 -0.2873 -0.2725 -0.2941
  427PNCE   C3B 3828  14.736   7.399   7.547 -0.1000  0.1809  0.2199
  427PNCE   D4B 3829  14.643   7.483   7.114 -0.0799  0.3847 -0.2263
  427PNCE   C5B 3830  14.477   7.299   6.736 -0.1808  0.2069 -0.1387
  427PNCE   C6B 3831  14.301   6.921   6.723  0.1577  0.0217 -0.0038
  428PNCE   AM1 3832   4.982   2.357   7.519  0.0633  0.5123 -0.0787
  428PNCE   AM2 3833   5.104   2.748   7.576 -0.1536  0.3371 -0.1509
  428PNCE   T1A 3834   4.926   2.035   7.275 -0.1004  0.0904  0.0785
  428PNCE   C2A 3835   4.901   1.850   6.812 -0.0600  0.0290  0.3754
  428PNCE   C3A 3836   5.078   1.567   6.474  0.1689 -0.0069 -0.0867
  428PNCE   C1B 3837   5.050   2.740   7.257 -0.2826 -0.2553  0.0003
  428PNCE   C2B 3838   5.312   2.909   6.971  0.1328  0.0348 -0.2897
  428PNCE   C3B 3839   5.719   2.712   6.993 -0.0209  0.1827 -0.1206
  428PNCE   D4B 3840   6.091   2.781   7.047 -0.2441  0.3137 -0.0045
  428PNCE   C5B 3841   6.162   2.393   7.058  0.0984  0.1423  0.1884
  428PNCE   C6B 3842   6.641   2.223   7.098 -0.1357  0.1290  0.2763
  429CHOL   ROH 3843  12.036  12.405   4.316 -0.1652 -0.0808 -0.0904
  429CHOL    R1 3844  12.139  12.334   4.570 -0.0141  0.2498 -0.0531
  429CHOL    R2 3845  12.122  12.501   4.789 -0.4421  0.2966 -0.1100
  429CHOL    R3 3846  12.005  12.285   4.905  0.0598  0.0400 -0.0537
  429CHOL    R4 3847  12.061  12.468   5.128 -0.5394  0.3270 -0.1242
  429CHOL    R5 3848  12.122  12.258   5.113  0.0251  0.4648  0.0263
  429CHOL    C1 3849  11.916  12.245   5.434 -0.1249  0.1035 -0.0797
  429CHOL    C2 3850  12.007  12.302   5.889  0.1563 -0.3179  0.0588
  430PNCE   AM1 3851   8.128   4.959   8.600  0.2347  0.2277 -0.0513
  430PNCE   AM2 3852   7.905   5.237   8.610 -0.1063  0.2325  0.0122
  430PNCE   T1A 3853   8.378   4.803   8.205  0.0420  0.2974 -0.2020
  430PNCE   C2A 3854   8.687   4.607   7.863  0.0351 -0.0329 -0.0678
  430PNCE   C3A 3855   8.852   4.435   7.457  0.1080  0.0495  0.2491
  430PNCE   C1B 3856   8.341   5.408   8.446 -0.0221  0.1396  0.2860
  430PNCE   C2B 3857   8.561   5.460   8.062  0.1528 -0.0489  0.0154
  430PNCE   C3B 3858   8.765   5.497   7.627  0.0693  0.0072  0.2998
  430PNCE   D4B 3859   8.460   5.496   7.235  0.0403 -0.1062 -0.0766
  430PNCE   C5B 3860   8.047   5.495   7.481 -0.1039 -0.0534 -0.0246
  430PNCE   C6B 3861   7.789   5.537   7.825 -0.4281 -0.0436  0.1249
  431PNCE   AM1 3862  11.831   6.000   7.899  0.1338  0.0298 -0.1849
  431PNCE   AM2 3863  11.992   6.025   7.628 -0.0889 -0.1729 -0.1251
  431PNCE   T1A 3864  11.493   5.916   7.569 -0.0756 -0.0001 -0.1719
  431PNCE   C2A 3865  11.195   5.779   7.415 -0.0725  0.0673 -0.2991
  431PNCE   C3A 3866  10.852   5.477   7.340  0.0426  0.1728  0.0826
  431PNCE   C1B 3867  11.945   6.160   7.273 -0.0209 -0.1902 -0.0615
  431PNCE   C2B 3868  12.163   6.095   6.944 -0.1392  0.1808  0.5070
  431PNCE   C3B 3869  12.565   5.981   6.777  0.0650 -0.1152  0.1128
  431PNCE   D4B 3870  12.909   5.724   6.793 -0.0127 -0.0088 -0.0901
  431PNCE   C5B 3871  13.307   5.903   6.679 -0.2495 -0.1870 -0.0712
  431PNCE   C6B 3872  13.528   6.157   6.394 -0.0685  0.1279 -0.0580
  432XCA    COO 3873  11.457   1.770   3.782 -0.0536  0.1769 -0.1221
  432XCA     C1 3874  11.306   1.824   4.164  0.1383 -0.2154 -0.1460
  432XCA     C2 3875  11.177   1.966   4.533  0.0722  0.0576 -0.1260
  432XCA     C3 3876  10.952   1.912   4.938 -0.3443 -0.2413 -0.1341
  432XCA     C4 3877  11.087   1.855   5.472  0.1693  0.2402 -0.1058
  432XCA     C5 3878  11.380   1.909   5.817 -0.0830  0.2992  0.3854
  432XCA     C6 3879  11.691   1.843   6.162 -0.3281  0.0389  0.1265
  433XCA    COO 3880   7.925   0.697   4.677 -0.0727 -0.1842 -0.1900
  433XCA     C1 3881   7.692   0.866   5.045  0.1928  0.0466  0.0153
  433XCA     C2 3882   7.429   0.652   5.253 -0.0574 -0.1896 -0.4538
  433XCA     C3 3883   7.043   0.395   5.449 -0.1074 -0.1337  0.0948
  433XCA     C4 3884   6.823   0.542   5.798  0.0826 -0.2191 -0.1295
  433XCA     C5 3885   6.671   0.625   6.205  0.1638 -0.0483 -0.0259
  433XCA     C6 3886   6.661   0.744   6.686  0.1960 -0.1068  0.0812
  434CHOL   ROH 3887  15.305   2.906   4.311 -0.1361  0.1443 -0.0662
  434CHOL    R1 3888  15.052   2.891   4.436 -0.0830 -0.0841  0.0182
  434CHOL    R2 3889  15.005   2.733   4.658  0.1542 -0.0630  0.0878
  434CHOL    R3 3890  14.914   2.966   4.765 -0.0589 -0.1207  0.0361
  434CHOL    R4 3891  14.891   2.770   4.982  0.1412 -0.0867  0.0858
  434CHOL    R5 3892  14.733   2.900   4.906  0.0136 -0.2553  0.0651
  434CHOL    C1 3893  14.740   3.011   5.271 -0.0663 -0.1546  0.0360
  434CHOL    C2 3894  14.453   3.128   5.302 -0.2542 -0.1487 -0.1710
  435CHOL   ROH 3895  15.713   9.001   6.014 -0.1324  0.3281 -0.2321
  435CHOL    R1 3896  15.595   8.815   6.191  0.0104  0.3157 -0.1460
  435CHOL    R2 3897  15.382   8.879   6.354 -0.0026  0.2443 -0.1212
  435CHOL    R3 3898  15.268   8.662   6.236  0.1072  0.1414 -0.0357
  435CHOL    R4 3899  15.119   8.697   6.486 -0.1766  0.4070 -0.2422
  435CHOL    R5 3900  15.218   8.515   6.418 -0.1205  0.3281  0.0520
  435CHOL    C1 3901  14.860   8.387   6.452 -0.1749  0.4052 -0.2324
  435CHOL    C2 3902  14.633   8.203   6.600 -0.0267  0.1978 -0.2342
  436XCA    COO 3903   4.705  13.584   9.401 -0.0093  0.0084  0.4367
  436XCA     C1 3904   4.755  13.385   8.964 -0.2837 -0.1169 -0.2712
  436XCA     C2 3905   4.887  13.265   8.517 -0.0091  0.0723 -0.0306
  436XCA     C3 3906   4.996  13.086   8.121  0.2070  0.1185  0.1808
  436XCA     C4 3907   4.770  13.115   7.696  0.3956 -0.0524 -0.0632
  436XCA     C5 3908   4.831  12.975   7.273  0.3252 -0.0465 -0.2176
  436XCA     C6 3909   4.554  12.712   6.834  0.0346  0.1208  0.0017
  437CHOL   ROH 3910   9.500   9.590   5.457 -0.1250  0.0930 -0.0622
  437CHOL    R1 3911   9.426   9.403   5.655 -0.0267  0.0411 -0.0741
  437CHOL    R2 3912   9.598   9.321   5.855  0.0746 -0.0151 -0.1829
  437CHOL    R3 3913   9.395   9.399   6.018  0.1579 -0.0551 -0.0585
  437CHOL    R4 3914   9.584   9.261   6.195  0.2419 -0.1088 -0.1911
  437CHOL    R5 3915   9.371   9.219   6.174  0.2305 -0.0968 -0.0962
  437CHOL    C1 3916   9.385   9.300   6.546  0.4174 -0.2008 -0.0792
  437CHOL    C2 3917   9.384   9.129   6.954  0.2458  0.0032  0.1363
  438PNCE   AM1 3918  12.601  13.927   7.571 -0.3119  0.0040 -0.0096
  438PNCE   AM2 3919  12.335  14.146   7.647  0.0370  0.2098 -0.2163
  438PNCE   T1A 3920  12.831  13.627   7.213 -0.2923 -0.0911 -0.3197
  438PNCE   C2A 3921  12.844  13.487   6.867 -0.0176  0.0617 -0.2711
  438PNCE   C3A 3922  12.781  13.358   6.506  0.0026  0.0755  0.2712
  438PNCE   C1B 3923  12.092  14.112   7.342 -0.4831  0.0233  0.0570
  438PNCE   C2B 3924  11.970  14.011   6.971  0.1138 -0.3152 -0.1285
  438PNCE   C3B 3925  11.925  13.803   6.613  0.0771 -0.3537  0.2910
  438PNCE   D4B 3926  11.941  13.556   6.244  0.0255  0.0750 -0.1494
  438PNCE   C5B 3927  11.799  13.664   5.839 -0.0426 -0.1915  0.1389
  438PNCE   C6B 3928  11.726  14.166   5.734 -0.0567  0.0928  0.1922
  439XCA    COO 3929   9.110  14.464   4.268 -0.1237 -0.0002 -0.0565
  439XCA     C1 3930   9.143  14.293   4.665 -0.1127 -0.1871 -0.0070
  439XCA     C2 3931   9.065  14.033   5.152  0.0760 -0.2068  0.0065
  439XCA     C3 3932   9.250  13.952   5.507  0.1718 -0.0138  0.0398
  439XCA     C4 3933   9.517  14.190   5.746 -0.0848  0.0882 -0.1779
  439XCA     C5 3934   9.647  14.553   5.954  0.2087 -0.1418 -0.0985
  439XCA     C6 3935  10.088  14.609   6.063 -0.0957  0.4444 -0.1911
  440CHOL   ROH 3936   6.161  11.651   9.174 -0.0592 -0.0815 -0.0542
  440CHOL    R1 3937   6.271  11.847   9.002  0.1639 -0.0975  0.0679
  440CHOL    R2 3938   6.527  11.829   8.900  0.0895 -0.4094 -0.0690
  440CHOL    R3 3939   6.400  11.859   8.662  0.0167  0.0018  0.0141
  440CHOL    R4 3940   6.682  11.917   8.604  0.1250 -0.5613 -0.0969
  440CHOL    R5 3941   6.511  12.045   8.559  0.3616 -0.1635  0.0689
  440CHOL    C1 3942   6.652  11.997   8.208  0.0772 -0.2637 -0.0353
  440CHOL    C2 3943   6.937  12.188   8.058  0.2223 -0.0708  0.2171
  441CHOL   ROH 3944   7.869   4.230   7.732 -0.3401  0.0275 -0.0241
  441CHOL    R1 3945   7.705   4.171   7.509 -0.2698 -0.0392 -0.0593
  441CHOL    R2 3946   7.695   3.919   7.395 -0.1443 -0.0458 -0.0634
  441CHOL    R3 3947   7.428   3.946   7.437 -0.1634 -0.1527 -0.1168
  441CHOL    R4 3948   7.449   3.829   7.170 -0.0523  0.2099 -0.2712
  441CHOL    R5 3949   7.340   4.009   7.224 -0.1024  0.1183 -0.0643
  441CHOL    C1 3950   7.055   3.801   7.079 -0.0167  0.2583 -0.4423
  441CHOL    C2 3951   6.955   3.498   6.943  0.0093  0.1583  0.0025
  442CHOL   ROH 3952   4.658  15.331   4.403 -0.0979 -0.2060 -0.0240
  442CHOL    R1 3953   4.700  15.440   4.661  0.1136 -0.2578 -0.0351
  442CHOL    R2 3954   4.516  15.603   4.786  0.3968  0.0645 -0.0240
  442CHOL    R3 3955   4.537  15.421   4.986  0.1124  0.0355 -0.0161
  442CHOL    R4 3956   4.446  15.665   5.119  0.3251  0.1334 -0.0515
  442CHOL    R5 3957   4.620  15.546   5.173  0.1724 -0.0591  0.0204
  442CHOL    C1 3958   4.425  15.530   5.500  0.0163  0.1464 -0.0599
  442CHOL    C2 3959   4.187  15.408   5.767  0.1258 -0.1141  0.1906
  443CHOL   ROH 3960  10.123   0.597   8.230  0.0025 -0.0893 -0.0727
  443CHOL    R1 3961  10.110   0.647   7.951 -0.0102 -0.1351 -0.0809
  443CHOL    R2 3962  10.079   0.446   7.766 -0.1483 -0.1560 -0.0397
  443CHOL    R3 3963   9.867   0.596   7.685 -0.0782 -0.0541 -0.0342
  443CHOL    R4 3964   9.910   0.404   7.467 -0.0398  0.0730 -0.1352
  443CHOL    R5 3965   9.899   0.621   7.449  0.0219  0.0856 -0.0053
  443CHOL    C1 3966   9.613   0.520   7.217  0.0892  0.3020 -0.1856
  443CHOL    C2 3967   9.333   0.347   6.979  0.1153 -0.1879 -0.0007
  444CHOL   ROH 3968   9.046   1.718   5.611  0.0348  0.0305  0.0830
  444CHOL    R1 3969   9.210   1.700   5.841 -0.0175  0.0396  0.1213
  444CHOL    R2 3970   9.474   1.780   5.841  0.0070 -0.0412  0.1542
  444CHOL    R3 3971   9.395   1.932   6.053  0.0103  0.0380  0.0991
  444CHOL    R4 3972   9.685   1.901   6.088 -0.0281 -0.1783  0.2522
  444CHOL    R5 3973   9.530   1.855   6.235 -0.1410 -0.0492  0.1770
  444CHOL    C1 3974   9.733   2.113   6.430 -0.0454 -0.1836  0.2576
  444CHOL    C2 3975  10.094   2.003   6.300 -0.0792  0.0168  0.1617
  445CHOL   ROH 3976   9.139  13.341   8.203  0.1284  0.0198 -0.1233
  445CHOL    R1 3977   9.044  13.470   7.969  0.1426  0.0134 -0.1328
  445CHOL    R2 3978   9.019  13.339   7.727 -0.0156 -0.0433 -0.0879
  445CHOL    R3 3979   8.763  13.429   7.741  0.0468  0.1290 -0.0364
  445CHOL    R4 3980   8.805  13.368   7.457 -0.0880 -0.0109 -0.0269
  445CHOL    R5 3981   8.734  13.557   7.540  0.0623  0.0689 -0.0768
  445CHOL    C1 3982   8.439  13.469   7.314 -0.0717  0.1696  0.0568
  445CHOL    C2 3983   8.033  13.355   7.328  0.0124  0.2328 -0.2024
  446XCA    COO 3984   6.344  15.370   4.436 -0.0481 -0.2203  0.0393
  446XCA     C1 3985   6.476  15.514   4.890  0.1695 -0.2691 -0.1468
  446XCA     C2 3986   6.448  15.614   5.315  0.0770 -0.0526  0.2040
  446XCA     C3 3987   6.304  15.646   5.734  0.1710 -0.2814  0.1732
  446XCA     C4 3988   6.414  15.511   6.166  0.1149  0.0518  0.2591
  446XCA     C5 3989   6.170  15.462   6.470  0.2983  0.2183 -0.4690
  446XCA     C6 3990   6.148  15.099   6.807  0.0816 -0.2536  0.3390
  447PNCE   AM1 3991   4.969   6.094   9.192  0.2030 -0.1365 -0.0071
  447PNCE   AM2 3992   4.697   6.130   9.269  0.1105 -0.1853  0.2065
  447PNCE   T1A 3993   5.124   6.241   8.909  0.0133 -0.0875 -0.0019
  447PNCE   C2A 3994   5.314   6.393   8.536 -0.1126 -0.1011 -0.0215
  447PNCE   C3A 3995   5.346   6.328   8.003 -0.0419  0.0287 -0.4225
  447PNCE   C1B 3996   4.494   5.908   8.835 -0.0287  0.0778  0.2779
  447PNCE   C2B 3997   4.527   5.744   8.509  0.1301  0.1565  0.2885
  447PNCE   C3B 3998   4.891   5.487   8.309  0.0347 -0.1218  0.0370
  447PNCE   D4B 3999   5.056   5.179   8.420 -0.3098  0.0727  0.0119
  447PNCE   C5B 4000   5.522   5.243   8.414 -0.2746  0.0872  0.2431
  447PNCE   C6B 4001   5.887   5.353   8.177 -0.1139 -0.3475  0.0182
  448PNCE   AM1 4002   8.015  10.698   8.865 -0.0755 -0.0492  0.1478
  448PNCE   AM2 4003   7.888  11.034   9.012 -0.1587 -0.0700 -0.2280
  448PNCE   T1A 4004   7.831  10.419   8.550  0.0958 -0.2172 -0.1091
  448PNCE   C2A 4005   7.673  10.247   8.129  0.1299  0.4051 -0.3059
  448PNCE   C3A 4006   7.582   9.966   7.804  0.1680 -0.1400 -0.1175
  448PNCE   C1B 4007   7.757  11.363   8.640  0.1601  0.0263 -0.2846
  448PNCE   C2B 4008   7.677  11.562   8.285  0.0955  0.1169  0.2870
  448PNCE   C3B 4009   7.524  11.777   7.854  0.0984  0.2220  0.0852
  448PNCE   D4B 4010   7.196  12.001   7.665  0.1775  0.2231 -0.1836
  448PNCE   C5B 4011   6.864  11.700   7.721 -0.1371  0.2227 -0.3749
  448PNCE   C6B 4012   6.538  11.481   7.580 -0.1746  0.2122  0.1852
  449CHOL   ROH 4013   0.988  10.843   6.579 -0.0570 -0.1507  0.1582
  449CHOL    R1 4014   1.264  10.788   6.607 -0.0208  0.0007  0.1052
  449CHOL    R2 4015   1.405  10.637   6.424  0.0004 -0.0149  0.1361
  449CHOL    R3 4016   1.568  10.855   6.418 -0.1077  0.0642 -0.0135
  449CHOL    R4 4017   1.748  10.627   6.378  0.0234  0.1116  0.2718
  449CHOL    R5 4018   1.767  10.784   6.529 -0.1102  0.2698  0.1312
  449CHOL    C1 4019   2.100  10.826   6.347 -0.0647  0.2595  0.2104
  449CHOL    C2 4020   2.411  11.011   6.204 -0.0651 -0.0737 -0.2582
  450PNCE   AM1 4021  14.358  11.685   8.564  0.2156 -0.1491  0.0912
  450PNCE   AM2 4022  14.071  11.719   8.472  0.0837 -0.2984 -0.2929
  450PNCE   T1A 4023  14.695  12.020   8.603  0.3466  0.1270  0.2530
  450PNCE   C2A 4024  14.824  12.442   8.606  0.0704 -0.1968  0.0865
  450PNCE   C3A 4025  14.962  12.783   8.620 -0.3864 -0.2232  0.0481
  450PNCE   C1B 4026  13.891  11.699   7.988  0.1973 -0.2157  0.1544
  450PNCE   C2B 4027  13.756  11.681   7.611 -0.0736  0.1890 -0.1856
  450PNCE   C3B 4028  13.640  11.653   7.187 -0.1491  0.1539  0.0228
  450PNCE   D4B 4029  13.776  11.675   6.728  0.0606  0.0986  0.0245
  450PNCE   C5B 4030  14.186  11.775   6.681 -0.2620  0.1436  0.0547
  450PNCE   C6B 4031  14.406  12.157   6.580 -0.2450 -0.1698  0.1457
  451PNCE   AM1 4032   7.536  14.011   8.999 -0.3223 -0.1939 -0.2471
  451PNCE   AM2 4033   7.512  14.398   8.927 -0.0070  0.0953  0.1699
  451PNCE   T1A 4034   7.086  13.932   8.861  0.3192 -0.0421 -0.2445
  451PNCE   C2A 4035   6.904  13.644   8.568  0.0129 -0.2032  0.1010
  451PNCE   C3A 4036   7.199  13.346   8.387 -0.4115 -0.0771 -0.1197
  451PNCE   C1B 4037   7.290  14.276   8.558  0.0304 -0.2887  0.4824
  451PNCE   C2B 4038   7.038  14.012   8.231  0.0436 -0.2149 -0.2676
  451PNCE   C3B 4039   6.768  13.711   8.051  0.2210  0.3830 -0.0832
  451PNCE   D4B 4040   6.428  13.676   7.691 -0.0213 -0.3228 -0.1513
  451PNCE   C5B 4041   6.104  13.374   7.679  0.2598  0.0369 -0.0360
  451PNCE   C6B 4042   5.844  13.059   7.547  0.1891 -0.0898  0.1356
  452PNCE   AM1 4043   2.431  10.700   9.058  0.0622  0.1363  0.2267
  452PNCE   AM2 4044   2.088  10.786   9.176 -0.1014 -0.0213  0.3788
  452PNCE   T1A 4045   2.494  10.245   8.957 -0.2254  0.0376 -0.0149
  452PNCE   C2A 4046   2.671  10.143   8.528  0.1420 -0.3544  0.0138
  452PNCE   C3A 4047   3.081   9.997   8.253  0.4437  0.1502  0.0286
  452PNCE   C1B 4048   1.917  10.770   8.771 -0.2538  0.2669  0.3235
  452PNCE   C2B 4049   1.831  10.611   8.376  0.1783 -0.0783 -0.1782
  452PNCE   C3B 4050   1.445  10.537   8.226 -0.1561 -0.1337  0.1721
  452PNCE   D4B 4051   1.335  10.798   7.842 -0.1159 -0.1629 -0.0741
  452PNCE   C5B 4052   1.529  10.788   7.400 -0.1755 -0.2727 -0.3541
  452PNCE   C6B 4053   1.744  10.790   6.998  0.0847 -0.3373  0.2156
  453PNCE   AM1 4054  12.907   0.147   7.383  0.6081 -0.2537  0.0314
  453PNCE   AM2 4055  12.640   0.064   7.282  0.0335  0.1641 -0.0232
  453PNCE   T1A 4056  12.926   0.315   6.973 -0.2318 -0.0654  0.2355
  453PNCE   C2A 4057  12.737   0.613   6.582  0.2356 -0.0360 -0.0125
  453PNCE   C3A 4058  12.360   0.814   6.526 -0.0809 -0.2920  0.1382
  453PNCE   C1B 4059  12.349  -0.133   6.947  0.2638  0.2948  0.2485
  453PNCE   C2B 4060  11.976  -0.437   6.955 -0.0923 -0.2278  0.0724
  453PNCE   C3B 4061  11.804  -0.758   6.650 -0.4019  0.0588 -0.2222
  453PNCE   D4B 4062  11.653  -1.094   6.437  0.1286 -0.1800  0.0866
  453PNCE   C5B 4063  11.813  -1.157   6.037  0.0133  0.0713 -0.1309
  453PNCE   C6B 4064  11.808  -1.244   5.663 -0.0664  0.1976 -0.0363
  454CHOL   ROH 4065   6.689  10.409   6.294  0.0369  0.0875  0.0074
  454CHOL    R1 4066   6.435  10.498   6.381  0.0458  0.0949  0.0259
  454CHOL    R2 4067   6.351  10.478   6.644  0.0375  0.0339  0.0195
  454CHOL    R3 4068   6.307  10.745   6.616  0.0711  0.0470  0.0896
  454CHOL    R4 4069   6.164  10.672   6.861  0.1070  0.0140  0.0979
  454CHOL    R5 4070   6.082  10.776   6.689  0.0905  0.0652  0.1388
  454CHOL    C1 4071   6.015  11.035   6.961  0.1791  0.0145  0.2094
  454CHOL    C2 4072   5.843  10.975   7.183  0.1937  0.0298  0.1306
  455PNCE   AM1 4073  14.847   8.959   8.736 -0.0807  0.0934  0.0190
  455PNCE   AM2 4074  14.504   9.325   8.603  0.0463  0.1823  0.0115
  455PNCE   T1A 4075  15.111   9.286   8.441  0.0932 -0.2216  0.2852
  455PNCE   C2A 4076  15.196   9.684   8.220 -0.0568  0.0477 -0.1364
  455PNCE   C3A 4077  15.531   9.879   8.043 -0.0144 -0.0434  0.4079
  455PNCE   C1B 4078  14.703   9.303   8.139  0.1641  0.0167  0.0765
  455PNCE   C2B 4079  14.835   9.414   7.770  0.0775  0.0075  0.0669
  455PNCE   C3B 4080  14.704   9.581   7.439 -0.3075 -0.0118 -0.1787
  455PNCE   D4B 4081  14.337   9.755   7.307  0.0369 -0.0187 -0.0921
  455PNCE   C5B 4082  14.233   9.890   6.946 -0.2098  0.1917  0.1069
  455PNCE   C6B 4083  14.508   9.986   6.566 -0.0152 -0.0481 -0.2007
  456PNCE   AM1 4084  15.404   0.623   8.313 -0.2053  0.2382 -0.2015
  456PNCE   AM2 4085  15.546   0.945   8.381 -0.0967 -0.0368 -0.0880
  456PNCE   T1A 4086  15.452   0.230   8.194  0.2197  0.0390 -0.1232
  456PNCE   C2A 4087  15.359  -0.130   7.899  0.2667 -0.1025  0.2967
  456PNCE   C3A 4088  15.547  -0.402   7.838  0.3211  0.2384  0.2179
  456PNCE   C1B 4089  15.525   0.997   7.882  0.2909 -0.0475  0.2157
  456PNCE   C2B 4090  15.274   1.033   7.509  0.0083 -0.0729  0.0849
  456PNCE   C3B 4091  15.102   0.811   7.189  0.1268  0.0017  0.1204
  456PNCE   D4B 4092  15.146   0.508   6.918 -0.1680  0.0425 -0.0851
  456PNCE   C5B 4093  15.277   0.434   6.473  0.0714  0.0816 -0.0191
  456PNCE   C6B 4094  15.505   0.230   6.257 -0.2374  0.3123 -0.1610
  457PNCE   AM1 4095   7.345   6.684   8.926 -0.1354 -0.2321 -0.1299
  457PNCE   AM2 4096   7.153   6.886   8.893  0.1052 -0.2708 -0.1383
  457PNCE   T1A 4097   7.167   6.362   8.630  0.1564 -0.0588 -0.1474
  457PNCE   C2A 4098   7.101   6.158   8.258  0.0940  0.1868  0.0040
  457PNCE   C3A 4099   6.720   5.970   7.970 -0.3305 -0.1014 -0.1453
  457PNCE   C1B 4100   7.398   6.872   8.464  0.1483  0.2823  0.0827
  457PNCE   C2B 4101   7.378   7.003   8.087 -0.0975 -0.3273 -0.1604
  457PNCE   C3B 4102   7.387   7.263   7.749  0.0944  0.0307 -0.1050
  457PNCE   D4B 4103   7.523   7.338   7.350 -0.1378 -0.4678 -0.1014
  457PNCE   C5B 4104   7.303   7.709   7.180 -0.0618  0.4626 -0.2327
  457PNCE   C6B 4105   6.850   7.748   7.113  0.1073 -0.0176  0.0431
  458PNCE   AM1 4106  14.439  10.136   7.673 -0.0486  0.1409 -0.2709
  458PNCE   AM2 4107  14.503  10.100   8.046  0.2194 -0.3892 -0.2628
  458PNCE   T1A 4108  14.212  10.400   7.513 -0.0676  0.1299  0.2813
  458PNCE   C2A 4109  13.893  10.293   7.323  0.2211  0.0696  0.3786
  458PNCE   C3A 4110  13.790   9.958   7.174  0.2852  0.1605 -0.1079
  458PNCE   C1B 4111  14.849   9.882   7.854  0.1139 -0.1778  0.3213
  458PNCE   C2B 4112  15.167   9.845   7.571  0.0792 -0.2521  0.1539
  458PNCE   C3B 4113  15.405   9.764   7.163  0.1486 -0.0072 -0.0205
  458PNCE   D4B 4114  15.615   9.579   6.752  0.3626 -0.0376 -0.2102
  458PNCE   C5B 4115  16.008   9.546   6.751  0.0984  0.1956  0.2275
  458PNCE   C6B 4116  16.221   9.271   6.985 -0.1584 -0.3057 -0.4886
  459XCA    COO 4117  12.833   7.786   4.275 -0.0388  0.1315  0.0325
  459XCA     C1 4118  12.693   7.598   4.659 -0.0935  0.0422  0.0665
  459XCA     C2 4119  12.669   7.547   5.065 -0.0431  0.0836  0.1745
  459XCA     C3 4120  12.519   7.451   5.393 -0.1701  0.1892 -0.0453
  459XCA     C4 4121  12.096   7.559   5.618  0.0070  0.1751  0.1337
  459XCA     C5 4122  11.869   7.248   5.663 -0.0650 -0.0009  0.1504
  459XCA     C6 4123  11.684   6.836   5.827 -0.1329  0.3047 -0.1305
  460CHOL   ROH 4124   0.225   5.736   8.377 -0.1166  0.1662  0.0750
  460CHOL    R1 4125   0.390   5.656   8.162  0.1145  0.4323  0.1479
  460CHOL    R2 4126   0.289   5.559   7.924  0.3728  0.1122  0.1630
  460CHOL    R3 4127   0.442   5.756   7.816 -0.0190  0.4076  0.1193
  460CHOL    R4 4128   0.299   5.641   7.588  0.3644 -0.0968  0.1102
  460CHOL    R5 4129   0.514   5.667   7.606  0.3087  0.4203  0.2182
  460CHOL    C1 4130   0.448   5.873   7.291 -0.0082  0.0588  0.0385
  460CHOL    C2 4131   0.524   5.868   6.923  0.1140  0.2195  0.0915
  461CHOL   ROH 4132   4.314   9.986   7.608 -0.0458 -0.1644  0.0021
  461CHOL    R1 4133   4.502  10.160   7.487 -0.0926 -0.1283 -0.0196
  461CHOL    R2 4134   4.763  10.182   7.575 -0.0961 -0.0480 -0.0231
  461CHOL    R3 4135   4.821  10.127   7.315 -0.0850 -0.0647 -0.0168
  461CHOL    R4 4136   5.078  10.204   7.434 -0.0786 -0.1289  0.0028
  461CHOL    R5 4137   4.986  10.289   7.255 -0.0395 -0.1086 -0.0048
  461CHOL    C1 4138   5.315  10.165   7.107 -0.0580 -0.1918  0.0238
  461CHOL    C2 4139   5.592   9.898   7.198 -0.3965  0.4520 -0.2155
  462CHOL   ROH 4140  13.200   4.496   4.490 -0.1206  0.0316  0.0983
  462CHOL    R1 4141  13.151   4.286   4.673 -0.1279 -0.0475  0.0079
  462CHOL    R2 4142  13.220   4.023   4.622 -0.0303 -0.0119 -0.0570
  462CHOL    R3 4143  13.350   4.045   4.859 -0.1257 -0.0524 -0.0015
  462CHOL    R4 4144  13.296   3.759   4.831 -0.1305 -0.0450 -0.0633
  462CHOL    R5 4145  13.244   3.884   5.001 -0.1920 -0.0659 -0.0675
  462CHOL    C1 4146  13.462   3.625   5.175 -0.2784 -0.1022 -0.0149
  462CHOL    C2 4147  13.480   3.489   5.562 -0.0020  0.6823  0.0634
  463CHOL   ROH 4148   4.442   7.906   6.673  0.0747  0.1425  0.0625
  463CHOL    R1 4149   4.698   7.785   6.676  0.1076  0.2076 -0.0559
  463CHOL    R2 4150   4.927   7.921   6.602  0.0713  0.3421  0.0707
  463CHOL    R3 4151   5.014   7.841   6.847  0.0933  0.1303 -0.0042
  463CHOL    R4 4152   5.254   7.943   6.712  0.0597  0.3505  0.1032
  463CHOL    R5 4153   5.231   7.748   6.805  0.1279  0.2490 -0.0910
  463CHOL    C1 4154   5.526   7.882   7.006  0.0737  0.1567  0.0518
  463CHOL    C2 4155   5.829   8.179   7.204 -0.0479  0.0807 -0.1026
  464CHOL   ROH 4156  14.799  11.707   5.853  0.0963  0.1628 -0.0042
  464CHOL    R1 4157  14.790  11.622   6.122  0.1026  0.0622 -0.0347
  464CHOL    R2 4158  14.929  11.750   6.324  0.0551  0.0288  0.0224
  464CHOL    R3 4159  14.684  11.763   6.441  0.0433 -0.0812  0.0093
  464CHOL    R4 4160  14.873  11.743   6.665  0.0336 -0.0689  0.0166
  464CHOL    R5 4161  14.700  11.615   6.628  0.0801 -0.1183 -0.0242
  464CHOL    C1 4162  14.610  11.751   6.973  0.0098 -0.2290  0.0009
  464CHOL    C2 4163  14.812  11.472   7.187 -0.3715  0.0204 -0.0028
  465XCA    COO 4164   3.064   1.488   7.533  0.1761  0.1140  0.2119
  465XCA     C1 4165   2.945   1.390   7.083 -0.1213  0.1129 -0.0542
  465XCA     C2 4166   2.677   1.407   6.748 -0.0218 -0.1227  0.0107
  465XCA     C3 4167   2.184   1.276   6.615  0.0629  0.1141 -0.1078
  465XCA     C4 4168   1.721   1.515   6.334  0.0630  0.2080 -0.3486
  465XCA     C5 4169   1.802   1.749   5.938  0.0823  0.3920  0.1518
  465XCA     C6 4170   1.922   1.952   5.599 -0.0114  0.0989  0.0740
  466PNCE   AM1 4171   4.025   8.961   8.763  0.4014 -0.3056 -0.0608
  466PNCE   AM2 4172   4.129   9.233   8.486 -0.0505  0.1486 -0.0597
  466PNCE   T1A 4173   4.072   8.639   8.336  0.1525 -0.0116 -0.2275
  466PNCE   C2A 4174   4.455   8.375   8.249 -0.1529 -0.1000  0.3087
  466PNCE   C3A 4175   4.686   8.752   8.132  0.0139  0.3295 -0.0219
  466PNCE   C1B 4176   4.329   9.508   8.222  0.3116 -0.0008  0.0257
  466PNCE   C2B 4177   4.341   9.504   7.805 -0.1842  0.3230 -0.0657
  466PNCE   C3B 4178   4.170   9.160   7.531 -0.1705  0.0350 -0.1510
  466PNCE   D4B 4179   4.351   8.877   7.460 -0.1075  0.0946  0.0224
  466PNCE   C5B 4180   4.264   8.435   7.365 -0.2508  0.0358  0.2708
  466PNCE   C6B 4181   4.070   8.017   7.316 -0.0671 -0.0436  0.2405
  467PNCE   AM1 4182   9.974  10.685   5.617 -0.3100 -0.0773 -0.0989
  467PNCE   AM2 4183   9.609  10.526   5.543 -0.0827 -0.0469  0.1483
  467PNCE   T1A 4184  10.128  10.660   6.052 -0.0780  0.4258  0.2235
  467PNCE   C2A 4185  10.217  10.366   6.275  0.3842  0.0611  0.0857
  467PNCE   C3A 4186  10.182   9.954   6.351  0.0916 -0.2344 -0.3544
  467PNCE   C1B 4187   9.594  10.323   5.849  0.0993 -0.0431  0.1409
  467PNCE   C2B 4188   9.397  10.317   6.272 -0.0663  0.1148 -0.2556
  467PNCE   C3B 4189   9.643  10.417   6.630  0.0066 -0.1629  0.0774
  467PNCE   D4B 4190  10.035  10.283   6.810  0.1482 -0.3331 -0.0165
  467PNCE   C5B 4191  10.064   9.900   6.868 -0.1045 -0.1450  0.0866
  467PNCE   C6B 4192  10.050   9.524   7.171 -0.0008 -0.1432  0.0795
  468XCA    COO 4193   1.015   3.033   4.358  0.1608 -0.0396 -0.0496
  468XCA     C1 4194   0.760   3.200   4.699  0.1065  0.0043 -0.0069
  468XCA     C2 4195   0.555   3.295   5.149  0.1424  0.1198  0.2503
  468XCA     C3 4196   0.160   3.211   5.395 -0.3728  0.2048  0.4148
  468XCA     C4 4197  -0.231   3.052   5.451 -0.3174 -0.1307  0.0072
  468XCA     C5 4198  -0.614   2.989   5.719  0.2605  0.3687 -0.0209
  468XCA     C6 4199  -1.077   2.968   5.780 -0.1329 -0.0092 -0.0802
  469PNCE   AM1 4200  12.000  13.188   7.836 -0.3152  0.2543 -0.0020
  469PNCE   AM2 4201  12.317  13.141   7.798  0.1836 -0.0679  0.0937
  469PNCE   T1A 4202  11.661  13.256   7.609 -0.1401 -0.0277  0.1214
  469PNCE   C2A 4203  11.429  13.022   7.307  0.2787 -0.0440 -0.1613
  469PNCE   C3A 4204  11.391  12.563   7.191 -0.1060  0.1211 -0.1371
  469PNCE   C1B 4205  12.419  12.638   7.829  0.0159 -0.2579  0.1361
  469PNCE   C2B 4206  12.193  12.198   7.645  0.0399  0.3053  0.2123
  469PNCE   C3B 4207  11.880  12.001   7.383  0.3143  0.1787 -0.2649
  469PNCE   D4B 4208  11.599  12.038   7.043  0.2335  0.0239 -0.1418
  469PNCE   C5B 4209  11.624  11.788   6.679  0.0061 -0.3246  0.1139
  469PNCE   C6B 4210  11.719  11.547   6.285  0.0136 -0.1451 -0.2468
  470XCA    COO 4211   2.477  13.296   4.880 -0.1562 -0.1456 -0.2908
  470XCA     C1 4212   2.387  13.402   5.302  0.1023  0.2383  0.0920
  470XCA     C2 4213   2.303  13.751   5.675 -0.3509 -0.0237  0.0518
  470XCA     C3 4214   1.890  13.952   5.915 -0.0361  0.2218 -0.1832
  470XCA     C4 4215   1.564  14.028   6.211  0.1048  0.1165  0.1279
  470XCA     C5 4216   1.154  14.167   6.149 -0.0697 -0.1272  0.1235
  470XCA     C6 4217   0.719  14.253   6.026  0.4533  0.0522 -0.1394
  471XCA    COO 4218   0.054  13.111   4.350  0.0478 -0.0312 -0.0700
  471XCA     C1 4219   0.181  13.189   4.752 -0.1324 -0.4612 -0.4097
  471XCA     C2 4220   0.040  13.215   5.155 -0.1266 -0.0910  0.0675
  471XCA     C3 4221   0.136  13.016   5.554  0.1970  0.1555 -0.1306
  471XCA     C4 4222   0.077  13.127   5.966 -0.3538  0.0780  0.0144
  471XCA     C5 4223  -0.073  12.812   6.202 -0.2584 -0.0080 -0.4238
  471XCA     C6 4224   0.130  12.628   6.570  0.3171 -0.1508 -0.0481
  472PNCE   AM1 4225  14.670   3.354   7.888 -0.2920 -0.1646 -0.0141
  472PNCE   AM2 4226  14.359   3.273   7.900 -0.2294  0.0708  0.0231
  472PNCE   T1A 4227  14.821   3.490   7.510 -0.0405  0.1099  0.1836
  472PNCE   C2A 4228  14.941   3.487   7.098  0.1520  0.2117  0.1809
  472PNCE   C3A 4229  15.266   3.228   6.860  0.1132  0.1183 -0.1328
  472PNCE   C1B 4230  14.277   3.206   7.352 -0.2715  0.1853 -0.4993
  472PNCE   C2B 4231  14.198   3.265   6.873  0.0928  0.0816  0.2031
  472PNCE   C3B 4232  14.027   2.860   6.589  0.0928 -0.3826 -0.0947
  472PNCE   D4B 4233  14.269   2.384   6.509 -0.0896  0.2941 -0.4044
  472PNCE   C5B 4234  14.148   2.268   6.103  0.2533  0.0827 -0.2313
  472PNCE   C6B 4235  14.347   1.943   5.936  0.0043 -0.1709  0.0811
  473PNCE   AM1 4236  11.117  11.925   8.885 -0.1716 -0.0772  0.1868
  473PNCE   AM2 4237  10.838  11.657   8.854  0.1733 -0.0557 -0.0995
  473PNCE   T1A 4238  11.157  11.850   8.334  0.1632  0.0471  0.1075
  473PNCE   C2A 4239  11.077  11.760   7.863  0.2882  0.1498 -0.0914
  473PNCE   C3A 4240  11.200  11.465   7.573  0.0502  0.0475  0.1302
  473PNCE   C1B 4241  10.935  11.421   8.518 -0.0572 -0.1793 -0.0721
  473PNCE   C2B 4242  11.244  11.028   8.473 -0.2734 -0.0737  0.1793
  473PNCE   C3B 4243  11.395  10.828   8.011 -0.2118 -0.2330 -0.0668
  473PNCE   D4B 4244  11.568  11.018   7.629  0.2056 -0.6104  0.0553
  473PNCE   C5B 4245  11.917  11.119   7.584 -0.1308  0.1568  0.1090
  473PNCE   C6B 4246  12.436  11.105   7.481 -0.1046  0.4029  0.0380
  474PNCE   AM1 4247   4.342   2.865   7.390  0.0186 -0.0785  0.0548
  474PNCE   AM2 4248   4.609   2.851   7.636 -0.2773  0.0096 -0.0116
  474PNCE   T1A 4249   4.707   3.082   7.229 -0.0925  0.0093  0.1604
  474PNCE   C2A 4250   5.088   3.310   7.131 -0.0220  0.2362 -0.0327
  474PNCE   C3A 4251   5.451   3.510   7.248 -0.0869  0.0639  0.1075
  474PNCE   C1B 4252   5.022   3.216   7.602 -0.2398  0.0293  0.2324
  474PNCE   C2B 4253   5.050   3.744   7.553  0.0260  0.0740  0.1792
  474PNCE   C3B 4254   4.961   4.143   7.323  0.0164  0.0137  0.0073
  474PNCE   D4B 4255   4.747   4.430   6.993  0.0357  0.2359 -0.0374
  474PNCE   C5B 4256   4.918   4.637   6.602  0.1593  0.0433  0.0573
  474PNCE   C6B 4257   5.095   4.780   6.300  0.0972  0.0069 -0.1585
  475XCA    COO 4258  12.947   0.058   3.490  0.0590 -0.2844  0.1939
  475XCA     C1 4259  12.778  -0.273   3.768 -0.2251 -0.0623 -0.0426
  475XCA     C2 4260  12.550  -0.328   4.070 -0.0776  0.0251 -0.1908
  475XCA     C3 4261  12.310  -0.473   4.229 -0.1387  0.2189 -0.0601
  475XCA     C4 4262  12.344  -0.626   4.721  0.4608 -0.0760 -0.0463
  475XCA     C5 4263  12.218  -0.859   5.123  0.3258 -0.2494  0.0611
  475XCA     C6 4264  12.462  -1.104   5.439 -0.1191  0.2705  0.0632
  476PNCE   AM1 4265   8.992   7.951   4.857 -0.0800  0.2933 -0.1388
  476PNCE   AM2 4266   9.076   8.136   5.142 -0.0401 -0.2362 -0.1571
  476PNCE   T1A 4267   8.889   7.583   5.092 -0.0242 -0.0723  0.5640
  476PNCE   C2A 4268   8.998   7.251   5.298 -0.0062  0.1735 -0.0927
  476PNCE   C3A 4269   9.247   7.240   5.704 -0.4285 -0.1526  0.0155
  476PNCE   C1B 4270   8.827   7.914   5.407 -0.0044 -0.0435 -0.1091
  476PNCE   C2B 4271   8.793   7.560   5.641 -0.3944  0.0588  0.1241
  476PNCE   C3B 4272   8.828   7.528   6.058 -0.0719  0.1490 -0.2180
  476PNCE   D4B 4273   8.945   7.819   6.326 -0.2368 -0.2003 -0.2524
  476PNCE   C5B 4274   8.914   8.194   6.538  0.1647 -0.1073  0.1203
  476PNCE   C6B 4275   8.737   8.483   6.891  0.0303 -0.1378  0.1245
  477CHOL   ROH 4276  10.678   8.867   8.848 -0.0819 -0.0944 -0.2120
  477CHOL    R1 4277  10.573   8.891   8.586 -0.0497 -0.0491 -0.2215
  477CHOL    R2 4278  10.365   9.062   8.524 -0.0489 -0.0432 -0.2170
  477CHOL    R3 4279  10.540   9.154   8.338 -0.0264 -0.0035 -0.1756
  477CHOL    R4 4280  10.277   9.191   8.216 -0.0173  0.1650 -0.1397
  477CHOL    R5 4281  10.446   9.087   8.128 -0.0635  0.1513 -0.2086
  477CHOL    C1 4282  10.389   9.354   7.862  0.0219  0.3234 -0.0558
  477CHOL    C2 4283  10.459   9.696   7.589  0.0576  0.0474 -0.2254
  478CHOL   ROH 4284   6.552   9.919   5.553 -0.1524 -0.0592  0.1324
  478CHOL    R1 4285   6.664   9.752   5.753 -0.0971 -0.0240  0.1316
  478CHOL    R2 4286   6.516   9.658   5.967 -0.0699 -0.0815  0.1288
  478CHOL    R3 4287   6.604   9.416   5.879  0.0176 -0.0472  0.1219
  478CHOL    R4 4288   6.469   9.358   6.133 -0.1884 -0.1439 -0.0155
  478CHOL    R5 4289   6.672   9.302   6.078 -0.1422 -0.1123  0.1368
  478CHOL    C1 4290   6.524   8.957   6.147 -0.1753 -0.1480 -0.1061
  478CHOL    C2 4291   6.363   8.611   6.217 -0.2218 -0.1362 -0.1308
  479XCA    COO 4292  14.313   0.697   7.503  0.1209 -0.0258  0.0401
  479XCA     C1 4293  14.615   0.735   7.142 -0.0313 -0.4512  0.1100
  479XCA     C2 4294  14.696   0.530   6.741 -0.0807  0.1069 -0.0635
  479XCA     C3 4295  14.780   0.486   6.324  0.1886  0.3201  0.0675
  479XCA     C4 4296  14.672   0.444   5.886  0.1384  0.0099 -0.2384
  479XCA     C5 4297  14.337   0.472   5.667  0.0667  0.0709 -0.1230
  479XCA     C6 4298  14.425   0.289   5.223  0.4676  0.0138 -0.0584
  480CHOL   ROH 4299   3.747   3.626   8.012  0.0940 -0.0216  0.0053
  480CHOL    R1 4300   3.810   3.600   7.738  0.1757 -0.0054  0.0221
  480CHOL    R2 4301   3.621   3.537   7.546  0.2428 -0.0531 -0.0309
  480CHOL    R3 4302   3.713   3.763   7.427  0.2189 -0.0292 -0.0036
  480CHOL    R4 4303   3.625   3.593   7.205 -0.0309  0.1076 -0.0107
  480CHOL    R5 4304   3.821   3.686   7.228  0.0211  0.0276 -0.1347
  480CHOL    C1 4305   3.714   3.838   6.895 -0.2127  0.2237  0.0268
  480CHOL    C2 4306   3.677   3.695   6.556  0.1642  0.0958 -0.1703
  481CHOL   ROH 4307  14.467   1.479   8.048 -0.1879  0.1100  0.2935
  481CHOL    R1 4308  14.629   1.541   7.824 -0.2424 -0.0367  0.2120
  481CHOL    R2 4309  14.524   1.625   7.583 -0.2897  0.0659  0.2620
  481CHOL    R3 4310  14.695   1.833   7.617 -0.0789 -0.0924  0.1878
  481CHOL    R4 4311  14.669   1.805   7.326 -0.2336 -0.0506  0.2113
  481CHOL    R5 4312  14.855   1.808   7.440 -0.1826 -0.2263  0.1199
  481CHOL    C1 4313  14.914   2.105   7.208 -0.0031 -0.2670  0.1121
  481CHOL    C2 4314  15.041   2.222   6.888 -0.1493 -0.3490  0.1277
  482PNCE   AM1 4315  12.188   7.722   8.947 -0.2739 -0.2688 -0.1247
  482PNCE   AM2 4316  12.429   7.767   9.259 -0.3141 -0.1649  0.3167
  482PNCE   T1A 4317  12.217   7.783   8.538 -0.0355 -0.1654  0.1280
  482PNCE   C2A 4318  12.618   7.698   8.254  0.2021 -0.2434 -0.3458
  482PNCE   C3A 4319  13.038   7.616   8.560 -0.6116 -0.0393  0.0754
  482PNCE   C1B 4320  12.700   7.794   8.904  0.1685  0.0473  0.2875
  482PNCE   C2B 4321  12.640   8.065   8.612  0.0283 -0.1472 -0.3021
  482PNCE   C3B 4322  12.756   8.172   8.243 -0.0001 -0.2454 -0.0679
  482PNCE   D4B 4323  12.721   8.495   8.107  0.0824 -0.0893 -0.1289
  482PNCE   C5B 4324  12.634   8.944   8.213  0.1338  0.1395 -0.0001
  482PNCE   C6B 4325  12.177   9.144   8.148 -0.1286 -0.3730 -0.1125
  483PNCE   AM1 4326  13.126   8.830   8.572  0.4800  0.0792 -0.1641
  483PNCE   AM2 4327  13.330   8.964   8.393 -0.1086 -0.0451 -0.0775
  483PNCE   T1A 4328  13.076   8.417   8.652  0.0778  0.3088  0.1640
  483PNCE   C2A 4329  13.234   8.042   8.709  0.0506 -0.2297  0.1005
  483PNCE   C3A 4330  13.307   7.755   9.005  0.1511  0.1457  0.2078
  483PNCE   C1B 4331  13.201   8.935   8.076  0.0893  0.0405  0.0746
  483PNCE   C2B 4332  13.082   8.714   7.759 -0.1056 -0.1053 -0.0670
  483PNCE   C3B 4333  13.063   8.578   7.387  0.1917 -0.1149  0.0383
  483PNCE   D4B 4334  12.735   8.600   7.042  0.0696 -0.1221 -0.1835
  483PNCE   C5B 4335  12.383   8.233   7.133 -0.1923  0.0654  0.0535
  483PNCE   C6B 4336  11.942   8.350   7.301 -0.0047  0.1004  0.2666
  484PNCE   AM1 4337   2.728   9.731   8.709 -0.0903 -0.2305 -0.2186
  484PNCE   AM2 4338   2.865   9.336   8.763  0.1087 -0.0787  0.2543
  484PNCE   T1A 4339   2.547   9.818   8.193 -0.0238 -0.0139 -0.2535
  484PNCE   C2A 4340   2.609  10.066   7.661 -0.1713 -0.0945  0.2482
  484PNCE   C3A 4341   2.842   9.913   7.334 -0.2005 -0.3058  0.0171
  484PNCE   C1B 4342   3.220   9.084   8.503  0.2633 -0.0419  0.0601
  484PNCE   C2B 4343   3.301   9.059   8.126 -0.2146  0.0520  0.0495
  484PNCE   C3B 4344   3.514   8.886   7.754  0.1080  0.0849 -0.3873
  484PNCE   D4B 4345   3.828   8.682   7.603 -0.3459  0.0535 -0.1831
  484PNCE   C5B 4346   4.005   8.291   7.780 -0.2527 -0.2145  0.0724
  484PNCE   C6B 4347   3.706   8.042   7.664  0.0789 -0.0798  0.1063
  485PNCE   AM1 4348   6.320   4.483   9.023 -0.1321 -0.2032 -0.0109
  485PNCE   AM2 4349   6.692   4.622   9.110 -0.2198 -0.2364  0.0788
  485PNCE   T1A 4350   6.208   4.653   8.674  0.0641 -0.2393  0.0085
  485PNCE   C2A 4351   6.182   4.894   8.255 -0.0478 -0.2249  0.1286
  485PNCE   C3A 4352   6.154   5.085   7.822 -0.1509 -0.2096 -0.2863
  485PNCE   C1B 4353   6.905   4.989   8.788 -0.0133 -0.2569  0.1924
  485PNCE   C2B 4354   7.035   4.994   8.350 -0.2174  0.2630  0.0738
  485PNCE   C3B 4355   7.204   5.256   7.961 -0.0547 -0.2384  0.0212
  485PNCE   D4B 4356   7.297   5.528   7.638 -0.2843 -0.1845 -0.0139
  485PNCE   C5B 4357   7.545   5.549   7.291  0.3961 -0.0545 -0.0484
  485PNCE   C6B 4358   7.927   5.739   7.012  0.1161  0.2665 -0.0302
  486PNCE   AM1 4359   0.403   3.829   8.646 -0.2772  0.0113 -0.0019
  486PNCE   AM2 4360   0.563   4.105   8.901 -0.1640 -0.0572  0.1003
  486PNCE   T1A 4361   0.407   4.050   8.306  0.0581 -0.0262 -0.0377
  486PNCE   C2A 4362   0.255   4.473   8.155  0.0457  0.2507  0.0464
  486PNCE   C3A 4363  -0.017   4.775   7.999  0.1340  0.2051  0.2851
  486PNCE   C1B 4364   0.539   4.468   8.556  0.0649  0.1207 -0.3731
  486PNCE   C2B 4365   0.538   4.868   8.432  0.0556 -0.0005 -0.4082
  486PNCE   C3B 4366   0.449   5.090   8.077  0.0776  0.0760  0.1486
  486PNCE   D4B 4367   0.534   4.891   7.797  0.0648 -0.0899 -0.0608
  486PNCE   C5B 4368   0.650   4.496   7.895  0.1221  0.0858  0.2441
  486PNCE   C6B 4369   0.499   4.037   7.812 -0.1048 -0.2245 -0.0090
  487PNCE   AM1 4370   1.618  14.427   8.288 -0.2133 -0.3727 -0.0279
  487PNCE   AM2 4371   1.634  14.058   8.283  0.1031  0.0637 -0.1465
  487PNCE   T1A 4372   1.574  14.530   7.851  0.1009 -0.0498  0.0008
  487PNCE   C2A 4373   1.324  14.506   7.459 -0.1477 -0.1655  0.1429
  487PNCE   C3A 4374   1.281  14.628   6.975 -0.0037  0.1474  0.2567
  487PNCE   C1B 4375   1.691  14.018   7.870  0.1508  0.3153  0.2884
  487PNCE   C2B 4376   1.619  14.123   7.548 -0.0081  0.3726 -0.0823
  487PNCE   C3B 4377   1.887  13.904   7.242 -0.0850  0.0298 -0.1317
  487PNCE   D4B 4378   2.204  13.904   6.859 -0.1785 -0.2554  0.0890
  487PNCE   C5B 4379   2.636  14.142   6.837  0.1071 -0.0242  0.0396
  487PNCE   C6B 4380   2.809  14.598   6.870 -0.1662  0.3098  0.1864
  488PNCE   AM1 4381  14.704   8.506   8.526  0.2957  0.2783 -0.2872
  488PNCE   AM2 4382  15.058   8.402   8.731  0.0316 -0.1948 -0.1395
  488PNCE   T1A 4383  14.306   8.704   8.335  0.0171 -0.2690 -0.0469
  488PNCE   C2A 4384  14.030   8.663   8.007 -0.1495  0.1752 -0.1797
  488PNCE   C3A 4385  13.990   8.602   7.631  0.0782 -0.1167 -0.4157
  488PNCE   C1B 4386  15.151   8.740   8.331  0.1601  0.1903  0.3868
  488PNCE   C2B 4387  15.294   9.101   8.022  0.0726  0.0184 -0.1212
  488PNCE   C3B 4388  15.310   9.013   7.595  0.1815 -0.1848  0.3343
  488PNCE   D4B 4389  15.430   8.809   7.170  0.2838 -0.1219  0.0370
  488PNCE   C5B 4390  15.527   8.701   6.755 -0.2203  0.2594  0.1538
  488PNCE   C6B 4391  15.714   8.436   6.518 -0.0878 -0.2371 -0.0038
  489XCA    COO 4392   4.134   7.800   8.637 -0.0908 -0.0214  0.0531
  489XCA     C1 4393   4.357   7.819   8.224 -0.0334  0.0085  0.2003
  489XCA     C2 4394   4.679   7.649   8.005  0.0286 -0.1257 -0.0402
  489XCA     C3 4395   5.020   7.728   7.757  0.1488 -0.1077  0.0023
  489XCA     C4 4396   5.135   7.503   7.307 -0.2747  0.0850  0.4376
  489XCA     C5 4397   5.427   7.367   6.990 -0.3792  0.1216  0.1458
  489XCA     C6 4398   5.617   7.410   6.666 -0.1125  0.1949 -0.0289
  490CHOL   ROH 4399   6.751   0.809   7.943  0.0856 -0.0021 -0.0338
  490CHOL    R1 4400   6.742   0.815   7.660  0.0310 -0.0071 -0.0321
  490CHOL    R2 4401   6.810   1.039   7.514  0.0665 -0.0311 -0.0512
  490CHOL    R3 4402   6.979   0.867   7.389 -0.0081 -0.0830 -0.0814
  490CHOL    R4 4403   6.887   1.047   7.177  0.0917  0.0155 -0.0446
  490CHOL    R5 4404   6.878   0.829   7.175 -0.0135  0.0184 -0.0980
  490CHOL    C1 4405   7.090   0.889   6.863  0.0363 -0.0061 -0.0690
  490CHOL    C2 4406   7.418   1.144   6.772  0.0586  0.2614  0.1877
  491CHOL   ROH 4407   4.595  14.173   7.556  0.0368 -0.0379 -0.0888
  491CHOL    R1 4408   4.346  14.254   7.664 -0.0323 -0.2057 -0.1207
  491CHOL    R2 4409   4.228  14.495   7.599  0.0739 -0.0453  0.2691
  491CHOL    R3 4410   4.016  14.337   7.534  0.0859  0.1234 -0.2230
  491CHOL    R4 4411   3.900  14.602   7.582  0.1093  0.0618  0.2468
  491CHOL    R5 4412   3.839  14.415   7.675 -0.0027 -0.1323 -0.1850
  491CHOL    C1 4413   3.510  14.517   7.510  0.1412  0.2826 -0.2281
  491CHOL    C2 4414   3.225  14.704   7.772  0.1503 -0.1341  0.0128
  492CHOL   ROH 4415   1.105   8.606   5.212  0.3210  0.0989 -0.0833
  492CHOL    R1 4416   1.139   8.681   5.482  0.1292 -0.0453 -0.0181
  492CHOL    R2 4417   0.957   8.613   5.679  0.0448 -0.2414 -0.1661
  492CHOL    R3 4418   1.177   8.510   5.801  0.0180 -0.2143 -0.0923
  492CHOL    R4 4419   0.992   8.568   6.020 -0.0855 -0.2696 -0.1555
  492CHOL    R5 4420   1.198   8.636   6.004 -0.0871 -0.2280 -0.0687
  492CHOL    C1 4421   1.218   8.445   6.333 -0.1865 -0.2607 -0.0801
  492CHOL    C2 4422   1.496   8.398   6.675 -0.0940  0.2243 -0.1552
  493PNCE   AM1 4423   0.372   2.012   7.677  0.1507  0.2646 -0.1412
  493PNCE   AM2 4424   0.333   1.732   7.430 -0.0973 -0.2230  0.1095
  493PNCE   T1A 4425   0.515   2.192   7.300  0.2641  0.1554  0.2494
  493PNCE   C2A 4426   0.781   2.283   6.914  0.2175 -0.2960 -0.1292
  493PNCE   C3A 4427   0.644   2.525   6.558  0.1182  0.2036 -0.3992
  493PNCE   C1B 4428   0.116   1.542   7.052 -0.2842 -0.0054 -0.0383
  493PNCE   C2B 4429   0.064   1.131   6.765  0.0814 -0.2812 -0.4730
  493PNCE   C3B 4430   0.251   1.057   6.402  0.3076 -0.4394 -0.2821
  493PNCE   D4B 4431   0.366   0.706   6.176 -0.0119 -0.0460 -0.0757
  493PNCE   C5B 4432   0.207   0.308   6.110 -0.0647  0.1125 -0.0051
  493PNCE   C6B 4433   0.205  -0.085   6.236  0.1544 -0.2209  0.2814
  494XCA    COO 4434   8.289  13.813   8.997 -0.2408 -0.0056  0.1900
  494XCA     C1 4435   8.296  13.717   8.667 -0.0798  0.2156 -0.0413
  494XCA     C2 4436   7.990  13.603   8.393  0.0909 -0.1464 -0.1376
  494XCA     C3 4437   7.863  13.529   7.952  0.0327  0.0579 -0.1074
  494XCA     C4 4438   7.563  13.429   7.661 -0.0324 -0.0925 -0.0129
  494XCA     C5 4439   7.445  13.736   7.386 -0.0194  0.0182 -0.1192
  494XCA     C6 4440   7.372  14.151   7.332 -0.2075  0.2068 -0.0819
  495CHOL   ROH 4441   9.877   3.855   8.305  0.1743  0.3653 -0.2142
  495CHOL    R1 4442   9.708   3.851   8.078  0.0528  0.1102 -0.1246
  495CHOL    R2 4443   9.750   4.013   7.857 -0.3244  0.2027 -0.1440
  495CHOL    R3 4444   9.743   3.776   7.723 -0.0127  0.1916 -0.1467
  495CHOL    R4 4445   9.650   3.975   7.529 -0.3519  0.0542 -0.1181
  495CHOL    R5 4446   9.547   3.792   7.586 -0.0687 -0.0968 -0.0975
  495CHOL    C1 4447   9.584   3.731   7.212 -0.0752 -0.0427 -0.1055
  495CHOL    C2 4448   9.313   3.889   6.972  0.0877 -0.0060  0.3899
  496XCA    COO 4449   4.019   2.136   3.903  0.0654  0.1456 -0.0171
  496XCA     C1 4450   3.892   2.040   4.323  0.0528 -0.2112 -0.0408
  496XCA     C2 4451   4.181   1.995   4.646  0.1430 -0.2606 -0.2183
  496XCA     C3 4452   4.236   1.987   5.015 -0.0752  0.2017 -0.1418
  496XCA     C4 4453   4.047   2.159   5.419  0.1137  0.1952  0.1036
  496XCA     C5 4454   4.032   2.397   5.847  0.1363  0.0908  0.2941
  496XCA     C6 4455   4.127   2.627   6.101 -0.0787 -0.1905  0.1816
  497PNCE   AM1 4456   4.841   8.496   9.215  0.1863  0.0223 -0.2185
  497PNCE   AM2 4457   4.509   8.476   9.273  0.1010  0.3586  0.2937
  497PNCE   T1A 4458   4.897   8.658   8.782 -0.1892 -0.0621  0.2223
  497PNCE   C2A 4459   5.143   8.859   8.473  0.0504 -0.0099  0.1552
  497PNCE   C3A 4460   5.348   9.099   8.163  0.1561 -0.0300 -0.1155
  497PNCE   C1B 4461   4.496   8.314   8.817  0.4381  0.0010  0.1301
  497PNCE   C2B 4462   4.749   8.016   8.425 -0.0609  0.2063 -0.0194
  497PNCE   C3B 4463   4.920   8.088   8.055 -0.0992 -0.2131  0.1553
  497PNCE   D4B 4464   5.029   8.335   7.646  0.1139  0.0369 -0.3087
  497PNCE   C5B 4465   4.978   8.766   7.728  0.0703  0.4800  0.0556
  497PNCE   C6B 4466   4.762   9.064   7.738  0.2156 -0.1506  0.4421
  498CHOL   ROH 4467   7.067  10.047   5.774  0.0340  0.0256  0.0756
  498CHOL    R1 4468   7.163   9.787   5.836  0.1044  0.0977  0.2764
  498CHOL    R2 4469   7.171   9.689   6.093 -0.3679  0.1088  0.3005
  498CHOL    R3 4470   7.028   9.484   5.986  0.0099 -0.0059 -0.0079
  498CHOL    R4 4471   7.126   9.381   6.243 -0.5936  0.1445  0.3105
  498CHOL    R5 4472   7.151   9.288   6.046 -0.0309  0.0796  0.3921
  498CHOL    C1 4473   6.965   9.009   6.229 -0.3704  0.0577  0.0268
  498CHOL    C2 4474   6.793   8.822   6.521  0.0782 -0.1558  0.0239
  499PNCE   AM1 4475  12.622   0.727   7.557 -0.1766 -0.0874  0.2614
  499PNCE   AM2 4476  12.903   0.672   7.419  0.0022  0.0642 -0.1532
  499PNCE   T1A 4477  12.328   0.632   7.225  0.1265 -0.0704  0.2522
  499PNCE   C2A 4478  12.377   0.380   6.823  0.1282  0.2403 -0.3886
  499PNCE   C3A 4479  12.518   0.052   6.450 -0.0616 -0.0542  0.0138
  499PNCE   C1B 4480  12.724   0.807   7.026 -0.0451 -0.0614 -0.0345
  499PNCE   C2B 4481  12.422   1.096   6.932  0.2447  0.0864  0.1121
  499PNCE   C3B 4482  12.065   1.244   6.744  0.2691 -0.2966  0.0737
  499PNCE   D4B 4483  11.811   1.369   6.287  0.0821  0.0699  0.3987
  499PNCE   C5B 4484  12.155   1.681   6.038  0.0154 -0.1423  0.0780
  499PNCE   C6B 4485  12.304   1.482   5.630 -0.2302 -0.1453  0.2674
  500PNCE   AM1 4486   7.083   0.805   8.271 -0.1310 -0.0207  0.1304
  500PNCE   AM2 4487   6.939   1.079   8.362 -0.0092  0.1353 -0.0216
  500PNCE   T1A 4488   7.196   1.034   7.876 -0.1167 -0.0363  0.2055
  500PNCE   C2A 4489   7.553   0.815   7.541 -0.0843 -0.1495 -0.0599
  500PNCE   C3A 4490   7.708   0.496   7.363  0.3104  0.0338  0.0203
  500PNCE   C1B 4491   6.747   1.279   7.922  0.0446 -0.1307 -0.1564
  500PNCE   C2B 4492   6.916   1.529   7.615  0.0476 -0.0402 -0.1976
  500PNCE   C3B 4493   7.309   1.784   7.502  0.0221  0.2608 -0.3055
  500PNCE   D4B 4494   7.289   2.162   7.261 -0.0574 -0.0512 -0.4652
  500PNCE   C5B 4495   7.414   2.228   6.822 -0.2656 -0.1251 -0.1256
  500PNCE   C6B 4496   7.282   2.277   6.420  0.3009  0.5443 -0.1430
  501PNCE   AM1 4497   3.186  12.087   8.528 -0.2005 -0.0676 -0.0800
  501PNCE   AM2 4498   3.271  12.423   8.450 -0.0275  0.0774 -0.1976
  501PNCE   T1A 4499   3.137  11.976   8.116 -0.0003 -0.0510  0.0634
  501PNCE   C2A 4500   3.180  11.804   7.678 -0.0811 -0.0957 -0.2662
  501PNCE   C3A 4501   3.173  11.355   7.606 -0.0669  0.0177 -0.1603
  501PNCE   C1B 4502   3.494  12.350   8.023  0.1047  0.0951 -0.0294
  501PNCE   C2B 4503   3.587  12.163   7.602  0.2064 -0.1157 -0.3493
  501PNCE   C3B 4504   3.724  12.268   7.114  0.0112 -0.0672  0.1207
  501PNCE   D4B 4505   3.852  12.546   6.763  0.1990  0.0796 -0.3244
  501PNCE   C5B 4506   3.747  12.866   6.497  0.0878 -0.3417 -0.1117
  501PNCE   C6B 4507   3.663  13.239   6.562 -0.1787 -0.1799 -0.1641
  502PNCE   AM1 4508  11.706  13.800   7.417 -0.1526  0.0001  0.2211
  502PNCE   AM2 4509  12.045  13.700   7.541  0.0290 -0.3641 -0.2319
  502PNCE   T1A 4510  11.826  13.486   7.084 -0.2398 -0.0946 -0.0538
  502PNCE   C2A 4511  11.629  13.216   6.822  0.0429 -0.0703 -0.2819
  502PNCE   C3A 4512  11.334  12.850   6.744  0.0967  0.2656 -0.0227
  502PNCE   C1B 4513  12.338  13.725   7.145  0.0095  0.1985 -0.1025
  502PNCE   C2B 4514  12.339  13.391   6.836 -0.1130  0.0060 -0.1146
  502PNCE   C3B 4515  12.087  13.132   6.573  0.2029  0.0767 -0.0474
  502PNCE   D4B 4516  11.996  12.844   6.198  0.3123 -0.1576 -0.2388
  502PNCE   C5B 4517  11.645  12.903   6.395 -0.1706 -0.0611 -0.3821
  502PNCE   C6B 4518  11.277  13.237   6.434 -0.0444  0.1680  0.1326
  503CHOL   ROH 4519   8.592  10.006   5.726 -0.0119 -0.0718  0.0903
  503CHOL    R1 4520   8.464   9.759   5.672 -0.1772  0.0163  0.0764
  503CHOL    R2 4521   8.565   9.517   5.757 -0.2480 -0.0691 -0.0860
  503CHOL    R3 4522   8.318   9.489   5.867 -0.1926  0.0149  0.0645
  503CHOL    R4 4523   8.409   9.215   5.820 -0.3123 -0.0195 -0.0026
  503CHOL    R5 4524   8.222   9.302   5.751 -0.3269  0.0497  0.1131
  503CHOL    C1 4525   8.086   9.013   5.959 -0.2978  0.0882  0.1873
  503CHOL    C2 4526   8.163   8.640   6.142 -0.1497  0.0869 -0.0410
  504CHOL   ROH 4527   4.298   3.712   4.690  0.1093 -0.0400  0.0052
  504CHOL    R1 4528   4.056   3.605   4.790  0.1015 -0.1021 -0.0789
  504CHOL    R2 4529   3.924   3.396   4.668  0.2521 -0.2056 -0.0676
  504CHOL    R3 4530   3.941   3.283   4.914  0.1723 -0.1030 -0.0144
  504CHOL    R4 4531   3.733   3.129   4.775  0.3575 -0.2908 -0.0901
  504CHOL    R5 4532   3.714   3.227   4.969  0.1721 -0.2296 -0.1365
  504CHOL    C1 4533   3.637   2.867   5.070  0.3440 -0.2442 -0.0532
  504CHOL    C2 4534   3.323   2.670   5.248 -0.1228  0.0686  0.1368
  505CHOL   ROH 4535   4.816   0.782   7.325  0.0959  0.0674 -0.0306
  505CHOL    R1 4536   4.831   0.556   7.156 -0.0212  0.0425 -0.0089
  505CHOL    R2 4537   4.608   0.437   7.046 -0.0762  0.2202 -0.0946
  505CHOL    R3 4538   4.742   0.475   6.813  0.0548  0.0955 -0.0412
  505CHOL    R4 4539   4.555   0.256   6.756 -0.1158  0.2578 -0.1109
  505CHOL    R5 4540   4.771   0.255   6.724 -0.1027  0.0666 -0.0222
  505CHOL    C1 4541   4.651   0.187   6.368 -0.0159  0.1626 -0.0704
  505CHOL    C2 4542   4.977  -0.029   6.161  0.0343  0.1776 -0.0503
  506CHOL   ROH 4543   0.470   8.362   5.539 -0.1894 -0.1775  0.0132
  506CHOL    R1 4544   0.613   8.379   5.783 -0.1693 -0.2783  0.0053
  506CHOL    R2 4545   0.600   8.600   5.947  0.2216 -0.1515 -0.1483
  506CHOL    R3 4546   0.531   8.416   6.135 -0.1146  0.0984 -0.0131
  506CHOL    R4 4547   0.678   8.622   6.283  0.6210 -0.2063 -0.2306
  506CHOL    R5 4548   0.720   8.408   6.283  0.0360 -0.3519 -0.1953
  506CHOL    C1 4549   0.659   8.462   6.655  0.5379 -0.0037 -0.1517
  506CHOL    C2 4550   0.986   8.260   6.839  0.1900 -0.3456 -0.0043
  507CHOL   ROH 4551   1.607  13.883   4.725 -0.1123 -0.3610 -0.1722
  507CHOL    R1 4552   1.463  13.766   4.938 -0.0735 -0.1242 -0.0144
  507CHOL    R2 4553   1.506  13.506   5.022 -0.1604 -0.0733  0.1696
  507CHOL    R3 4554   1.542  13.624   5.264 -0.0014  0.0958  0.0677
  507CHOL    R4 4555   1.489  13.342   5.326 -0.0290  0.1363  0.2934
  507CHOL    R5 4556   1.384  13.515   5.408  0.0477  0.2232  0.2315
  507CHOL    C1 4557   1.513  13.358   5.731  0.1967  0.4170  0.2699
  507CHOL    C2 4558   1.432  13.438   6.058  0.1228 -0.1246 -0.1777
  508PNCE   AM1 4559  13.154   4.746   7.573  0.0126  0.0315  0.2196
  508PNCE   AM2 4560  13.046   4.345   7.509  0.1116 -0.0601 -0.1210
  508PNCE   T1A 4561  13.602   5.089   7.566 -0.0840 -0.1310 -0.1253
  508PNCE   C2A 4562  14.008   5.022   7.270 -0.4196  0.4839 -0.1861
  508PNCE   C3A 4563  14.399   5.000   7.197 -0.0538 -0.0910  0.0542
  508PNCE   C1B 4564  13.209   4.387   7.087 -0.0863  0.0755 -0.0050
  508PNCE   C2B 4565  13.155   4.310   6.620  0.0298 -0.0475 -0.0117
  508PNCE   C3B 4566  13.057   4.612   6.259 -0.0333  0.1278  0.1214
  508PNCE   D4B 4567  12.833   4.868   6.037  0.2654 -0.0223 -0.1336
  508PNCE   C5B 4568  13.100   5.143   5.752  0.0156  0.0486  0.0533
  508PNCE   C6B 4569  12.918   5.163   5.285  0.2094 -0.3328 -0.2024
  509CHOL   ROH 4570  11.041   5.863   7.842 -0.1148 -0.0184  0.0648
  509CHOL    R1 4571  10.877   6.040   7.694  0.0302  0.0120 -0.0605
  509CHOL    R2 4572  10.885   6.054   7.418 -0.0019 -0.2372 -0.0711
  509CHOL    R3 4573  10.617   6.010   7.441 -0.0451  0.0436  0.0096
  509CHOL    R4 4574  10.643   6.219   7.235  0.1443 -0.1532 -0.1913
  509CHOL    R5 4575  10.520   6.228   7.415  0.1716  0.1300 -0.1724
  509CHOL    C1 4576  10.251   6.273   7.149  0.1889  0.1594 -0.1854
  509CHOL    C2 4577   9.978   6.455   6.971 -0.1944 -0.1009  0.1378
  510PNCE   AM1 4578  10.820   3.744   8.343 -0.1362  0.1647  0.2739
  510PNCE   AM2 4579  11.064   3.712   8.175  0.2466  0.2800  0.2592
  510PNCE   T1A 4580  10.583   3.907   7.984 -0.3689  0.2873  0.1549
  510PNCE   C2A 4581  10.590   3.962   7.565 -0.2627 -0.0397  0.0512
  510PNCE   C3A 4582  10.751   4.134   7.238 -0.0872  0.2967 -0.1668
  510PNCE   C1B 4583  11.058   3.195   8.148  0.0108  0.2417  0.1149
  510PNCE   C2B 4584  10.919   2.914   7.768 -0.0535  0.0548 -0.2355
  510PNCE   C3B 4585  11.028   2.635   7.565  0.2120 -0.0166 -0.0806
  510PNCE   D4B 4586  10.875   2.270   7.211 -0.1632  0.1639 -0.1706
  510PNCE   C5B 4587  10.661   2.267   6.832  0.3838  0.3801  0.0510
  510PNCE   C6B 4588  10.450   2.354   6.518 -0.1850  0.0530  0.2891
  511PNCE   AM1 4589   2.342   2.160   7.629 -0.0756  0.0028 -0.2820
  511PNCE   AM2 4590   2.632   2.250   7.471  0.1866  0.2367 -0.0518
  511PNCE   T1A 4591   2.130   2.029   7.279  0.0253  0.1819  0.2231
  511PNCE   C2A 4592   2.106   1.969   6.700 -0.0840 -0.0604 -0.1159
  511PNCE   C3A 4593   2.220   2.221   6.345 -0.0229 -0.4058 -0.1035
  511PNCE   C1B 4594   2.772   2.204   7.063 -0.1230  0.0630 -0.0202
  511PNCE   C2B 4595   2.877   2.021   6.675 -0.0488 -0.0717 -0.1325
  511PNCE   C3B 4596   3.131   2.133   6.356 -0.2912  0.0534  0.1911
  511PNCE   D4B 4597   3.142   2.064   5.978 -0.0143 -0.0355 -0.0355
  511PNCE   C5B 4598   2.922   1.738   5.697  0.0343  0.1587 -0.0139
  511PNCE   C6B 4599   2.764   1.684   5.339 -0.1041  0.0363  0.1602
  512CHOL   ROH 4600   1.089   1.080   4.382  0.1816 -0.1425  0.0332
  512CHOL    R1 4601   1.120   1.073   4.663  0.1295 -0.0299  0.0409
  512CHOL    R2 4602   1.259   1.266   4.802  0.0005  0.0855 -0.0011
  512CHOL    R3 4603   1.028   1.285   4.944 -0.0337  0.0188 -0.0451
  512CHOL    R4 4604   1.240   1.349   5.137 -0.0545 -0.1828  0.0651
  512CHOL    R5 4605   1.084   1.197   5.160 -0.0991 -0.1748 -0.0980
  512CHOL    C1 4606   1.012   1.414   5.466 -0.1185 -0.4017  0.0625
  512CHOL    C2 4607   1.000   1.712   5.679 -0.1642 -0.2540  0.0928
  513CHOL   ROH 4608  10.873  15.124   6.285 -0.2402  0.2672 -0.0321
  513CHOL    R1 4609  11.076  15.320   6.302 -0.2341  0.2727 -0.1626
  513CHOL    R2 4610  11.022  15.591   6.296 -0.2750  0.2727  0.1450
  513CHOL    R3 4611  11.163  15.592   6.528  0.0683  0.0923 -0.0548
  513CHOL    R4 4612  11.184  15.866   6.427 -0.1136  0.1849  0.1317
  513CHOL    R5 4613  11.349  15.736   6.484 -0.0088  0.1497 -0.2158
  513CHOL    C1 4614  11.411  16.027   6.722  0.3027 -0.0355 -0.0636
  513CHOL    C2 4615  11.606  16.320   6.432  0.1039  0.0542  0.0841
  514PNCE   AM1 4616  12.261  11.485   4.107  0.3376 -0.2418  0.1338
  514PNCE   AM2 4617  12.357  11.246   4.073  0.0901  0.1461 -0.2185
  514PNCE   T1A 4618  12.086  11.383   4.565  0.0477  0.1263  0.2055
  514PNCE   C2A 4619  12.096  11.380   5.072 -0.4001  0.1286  0.0604
  514PNCE   C3A 4620  11.960  11.448   5.420  0.0505 -0.2543 -0.1321
  514PNCE   C1B 4621  12.330  10.856   4.380  0.0965 -0.1310  0.3854
  514PNCE   C2B 4622  12.344  10.949   4.765 -0.1756  0.1100 -0.2705
  514PNCE   C3B 4623  12.476  10.980   5.095  0.0885 -0.0232 -0.0586
  514PNCE   D4B 4624  12.579  10.796   5.437 -0.2096  0.1637  0.1585
  514PNCE   C5B 4625  12.796  11.034   5.676 -0.3703  0.1420  0.1757
  514PNCE   C6B 4626  12.790  11.085   6.156 -0.1028  0.5419  0.0490
  515CHOL   ROH 4627   3.034   6.712   7.609  0.1691 -0.0768  0.3717
  515CHOL    R1 4628   2.923   6.924   7.761  0.0695 -0.1015  0.3347
  515CHOL    R2 4629   2.731   7.095   7.659  0.3064  0.0668  0.1505
  515CHOL    R3 4630   2.592   7.019   7.880 -0.0558  0.0102 -0.0881
  515CHOL    R4 4631   2.491   7.287   7.817  0.3631  0.2062  0.0699
  515CHOL    R5 4632   2.570   7.220   8.009  0.0526 -0.0982  0.0968
  515CHOL    C1 4633   2.221   7.326   8.117  0.0562  0.2344 -0.2010
  515CHOL    C2 4634   2.120   7.776   8.138 -0.1735  0.5072  0.0934
  516CHOL   ROH 4635  10.114   3.943   5.855 -0.0559 -0.1225  0.2736
  516CHOL    R1 4636  10.130   3.746   6.058 -0.0684 -0.0938  0.3026
  516CHOL    R2 4637  10.334   3.741   6.244  0.0122 -0.1628  0.2155
  516CHOL    R3 4638  10.128   3.740   6.422  0.0869 -0.0236  0.3050
  516CHOL    R4 4639  10.337   3.578   6.549  0.0107 -0.2028  0.1943
  516CHOL    R5 4640  10.130   3.519   6.513 -0.0502 -0.0354  0.2762
  516CHOL    C1 4641  10.145   3.481   6.892  0.0798 -0.0954  0.2659
  516CHOL    C2 4642  10.467   3.175   6.945 -0.1164  0.0203 -0.0326
  517PNCE   AM1 4643   4.425  14.302   9.213  0.0370  0.0638  0.1090
  517PNCE   AM2 4644   4.593  14.062   9.500 -0.2376  0.0973 -0.0248
  517PNCE   T1A 4645   4.634  14.379   8.805 -0.0619  0.0951 -0.1595
  517PNCE   C2A 4646   4.790  14.435   8.388  0.0000 -0.2274  0.0918
  517PNCE   C3A 4647   4.718  14.516   8.002 -0.0377 -0.0783 -0.2939
  517PNCE   C1B 4648   4.493  13.843   9.060  0.0596  0.1085  0.2092
  517PNCE   C2B 4649   4.564  13.878   8.617 -0.1162  0.0175  0.0634
  517PNCE   C3B 4650   4.935  13.865   8.457  0.0566  0.0720  0.1000
  517PNCE   D4B 4651   5.312  13.609   8.358  0.2065  0.1560 -0.1334
  517PNCE   C5B 4652   5.393  13.403   7.892 -0.1927  0.0966 -0.4604
  517PNCE   C6B 4653   5.331  13.000   7.704 -0.0172 -0.0940  0.2319
  518PNCE   AM1 4654  14.021  10.094   8.201 -0.1224  0.0458 -0.0085
  518PNCE   AM2 4655  14.079  10.450   8.043 -0.2629  0.0200 -0.0131
  518PNCE   T1A 4656  14.020   9.942   7.776 -0.0332  0.2747 -0.0001
  518PNCE   C2A 4657  13.907   9.701   7.568  0.4449 -0.0002 -0.0900
  518PNCE   C3A 4658  13.813   9.389   7.152  0.2598 -0.2746 -0.2761
  518PNCE   C1B 4659  13.623  10.375   7.896  0.0761  0.0608  0.2865
  518PNCE   C2B 4660  13.322  10.373   7.552  0.1609 -0.2939  0.0222
  518PNCE   C3B 4661  13.300  10.504   7.098  0.0538  0.1238  0.0893
  518PNCE   D4B 4662  13.127  10.317   6.833 -0.1794 -0.0233 -0.1159
  518PNCE   C5B 4663  12.741  10.264   6.749 -0.1044  0.2853 -0.0114
  518PNCE   C6B 4664  12.378  10.044   6.636 -0.3498  0.1148 -0.2692
  519XCA    COO 4665  12.250   1.490   8.289  0.2190  0.0741  0.3175
  519XCA     C1 4666  12.118   1.465   7.815  0.1587 -0.1768 -0.0734
  519XCA     C2 4667  11.753   1.212   7.668  0.0341  0.0675 -0.1202
  519XCA     C3 4668  11.559   1.226   7.180  0.0512  0.0686  0.4829
  519XCA     C4 4669  11.515   1.237   6.696 -0.1242  0.1040  0.1185
  519XCA     C5 4670  11.289   1.580   6.460  0.1122  0.0989 -0.2996
  519XCA     C6 4671  11.246   2.017   6.303 -0.1527  0.0407  0.3077
  520XCA    COO 4672   3.101  10.759   5.088 -0.0492 -0.3560 -0.0469
  520XCA     C1 4673   3.373  10.818   5.569  0.1595  0.1199  0.1183
  520XCA     C2 4674   3.325  11.033   6.065  0.0324 -0.1149 -0.2253
  520XCA     C3 4675   3.407  11.084   6.528 -0.0414  0.1307 -0.2352
  520XCA     C4 4676   3.249  11.246   6.994  0.4076  0.1411  0.0369
  520XCA     C5 4677   3.067  11.046   7.202 -0.0974 -0.2972  0.0133
  520XCA     C6 4678   2.649  11.005   7.486 -0.1186 -0.2007  0.3281
  521XCA    COO 4679   2.494   1.035   3.830 -0.2553  0.1957  0.1007
  521XCA     C1 4680   2.675   0.900   4.178 -0.0723 -0.2388  0.2424
  521XCA     C2 4681   2.622   0.804   4.651  0.2748  0.3696  0.3027
  521XCA     C3 4682   2.726   0.860   5.056 -0.0195 -0.2697  0.0190
  521XCA     C4 4683   3.142   0.814   5.174  0.2749 -0.0168 -0.0614
  521XCA     C5 4684   3.255   0.508   5.541  0.1308 -0.1295  0.0040
  521XCA     C6 4685   3.681   0.432   5.683  0.3010 -0.1110  0.0780
  522PNCE   AM1 4686  10.147   9.892   8.987 -0.1239  0.0181  0.1635
  522PNCE   AM2 4687  10.476   9.894   8.979  0.0307  0.0897  0.1786
  522PNCE   T1A 4688  10.133   9.558   8.669  0.0394  0.1988  0.1064
  522PNCE   C2A 4689   9.866   9.327   8.465 -0.0958 -0.0555  0.2195
  522PNCE   C3A 4690   9.597   8.917   8.566 -0.3199  0.0507 -0.0063
  522PNCE   C1B 4691  10.677   9.997   8.598 -0.0737  0.3476 -0.0710
  522PNCE   C2B 4692  10.655  10.072   8.209 -0.0587  0.1466 -0.1207
  522PNCE   C3B 4693  10.548  10.105   7.866 -0.0538 -0.1268  0.0468
  522PNCE   D4B 4694  10.623  10.245   7.379  0.0012 -0.2073 -0.3041
  522PNCE   C5B 4695  10.764  10.513   7.192 -0.4018  0.0756  0.2306
  522PNCE   C6B 4696  11.089  10.728   6.946 -0.0326  0.3576  0.1599
  523CHOL   ROH 4697  10.546  14.206   7.729  0.0792  0.1541  0.0405
  523CHOL    R1 4698  10.457  14.039   7.519  0.0729  0.1072  0.0808
  523CHOL    R2 4699  10.242  14.103   7.358 -0.0472 -0.0181  0.1947
  523CHOL    R3 4700  10.421  14.064   7.158 -0.1287  0.0958  0.0982
  523CHOL    R4 4701  10.173  13.941   7.061 -0.1304 -0.0007  0.2040
  523CHOL    R5 4702  10.369  13.846   7.073 -0.0774  0.0831  0.0908
  523CHOL    C1 4703  10.301  13.810   6.700 -0.2553  0.1165  0.1189
  523CHOL    C2 4704  10.395  13.705   6.300 -0.0966 -0.1690  0.1034
  524XCA    COO 4705  15.306   5.137   8.578 -0.2846 -0.2373  0.0129
  524XCA     C1 4706  15.448   4.990   8.188 -0.1051  0.2532 -0.1383
  524XCA     C2 4707  15.491   4.922   7.741 -0.1292 -0.2012  0.2157
  524XCA     C3 4708  15.503   5.132   7.434 -0.1611 -0.0400  0.0431
  524XCA     C4 4709  15.798   5.402   7.349 -0.0160  0.1096 -0.2240
  524XCA     C5 4710  16.115   5.415   7.148 -0.0358  0.2829  0.0483
  524XCA     C6 4711  16.041   5.429   6.712  0.2978  0.0146  0.0071
  525CHOL   ROH 4712   4.753  15.016   4.704 -0.1095 -0.1855 -0.0279
  525CHOL    R1 4713   4.620  14.927   4.937  0.0782  0.1009  0.1972
  525CHOL    R2 4714   4.584  15.088   5.159 -0.1808  0.5596 -0.1556
  525CHOL    R3 4715   4.322  15.022   5.124 -0.0750  0.0051  0.0041
  525CHOL    R4 4716   4.337  15.122   5.399 -0.1751  0.3679 -0.1220
  525CHOL    R5 4717   4.255  14.931   5.334  0.1709  0.1236  0.1357
  525CHOL    C1 4718   3.948  15.080   5.505 -0.0724 -0.2642  0.0474
  525CHOL    C2 4719   3.621  15.054   5.774 -0.1104  0.2265  0.2327
  526PNCE   AM1 4720   4.552  14.893   8.582 -0.0350  0.0685  0.0973
  526PNCE   AM2 4721   4.613  15.249   8.420  0.0532  0.3233 -0.0397
  526PNCE   T1A 4722   4.353  14.647   8.278 -0.2190  0.0059 -0.3369
  526PNCE   C2A 4723   4.123  14.409   8.086  0.2038 -0.0573  0.2078
  526PNCE   C3A 4724   3.921  14.055   7.999 -0.2955  0.2205 -0.2430
  526PNCE   C1B 4725   4.719  15.111   7.862  0.2239 -0.1450  0.0960
  526PNCE   C2B 4726   4.708  14.758   7.589  0.0319 -0.2051 -0.0972
  526PNCE   C3B 4727   4.559  14.487   7.288 -0.0512 -0.2577 -0.1318
  526PNCE   D4B 4728   4.550  14.023   7.032  0.1465  0.0359  0.1554
  526PNCE   C5B 4729   4.651  13.587   7.230 -0.0790 -0.0915 -0.4244
  526PNCE   C6B 4730   4.498  13.620   7.641  0.3163 -0.1757  0.2424
  527XCA    COO 4731   9.884   8.394   9.050 -0.1909  0.2423  0.1128
  527XCA     C1 4732   9.590   8.421   8.740  0.2560  0.0763 -0.1403
  527XCA     C2 4733   9.351   8.303   8.403 -0.0672  0.1936  0.1821
  527XCA     C3 4734   9.196   7.930   8.324  0.1137  0.1833 -0.0023
  527XCA     C4 4735   9.089   7.602   8.087  0.1612 -0.2305  0.0824
  527XCA     C5 4736   8.752   7.388   7.703  0.0451  0.1904 -0.0447
  527XCA     C6 4737   8.443   7.164   7.552 -0.0490 -0.0855  0.1724
  528CHOL   ROH 4738   1.686   0.341   4.203 -0.0446  0.1781 -0.0310
  528CHOL    R1 4739   1.805   0.379   4.457 -0.0555  0.0291 -0.0022
  528CHOL    R2 4740   1.820   0.628   4.578  0.1403 -0.0034  0.0437
  528CHOL    R3 4741   1.698   0.499   4.784 -0.0111  0.0661 -0.0012
  528CHOL    R4 4742   1.798   0.748   4.902  0.0382  0.0341  0.0231
  528CHOL    R5 4743   1.836   0.546   4.974 -0.0807  0.0246  0.0595
  528CHOL    C1 4744   1.670   0.696   5.283 -0.1634  0.1211 -0.0311
  528CHOL    C2 4745   1.604   0.715   5.649  0.2225  0.0149  0.0128
  529XCA    COO 4746   0.483  14.641   7.989  0.5625 -0.0821  0.0269
  529XCA     C1 4747   0.303  14.808   7.513  0.0464 -0.0069 -0.2015
  529XCA     C2 4748   0.500  14.828   7.199 -0.1183 -0.5274 -0.0128
  529XCA     C3 4749   0.540  14.710   6.779  0.0646  0.2193  0.0858
  529XCA     C4 4750   0.864  14.483   6.589  0.0007  0.0392  0.0634
  529XCA     C5 4751   1.222  14.202   6.631 -0.3450  0.0982  0.4137
  529XCA     C6 4752   1.244  13.811   6.524 -0.0064  0.2168  0.0726
  530PNCE   AM1 4753  13.346  15.342   7.091  0.0394  0.1910  0.0833
  530PNCE   AM2 4754  13.606  15.435   7.274 -0.1309  0.2856 -0.0320
  530PNCE   T1A 4755  13.431  15.345   6.649  0.0945  0.2916  0.1392
  530PNCE   C2A 4756  13.355  15.536   6.275  0.2902 -0.0542 -0.0056
  530PNCE   C3A 4757  13.551  15.894   5.980  0.2113 -0.1441  0.0311
  530PNCE   C1B 4758  13.979  15.146   7.316  0.0275  0.1176  0.0754
  530PNCE   C2B 4759  14.257  14.803   7.434 -0.0861  0.1312 -0.3026
  530PNCE   C3B 4760  14.502  14.585   7.320  0.1109  0.3206  0.0102
  530PNCE   D4B 4761  14.812  14.307   7.213 -0.4678 -0.0133  0.1644
  530PNCE   C5B 4762  15.190  14.067   7.379 -0.2593  0.0794  0.0390
  530PNCE   C6B 4763  15.647  13.909   7.432 -0.2858  0.1371 -0.1244
  531CHOL   ROH 4764  13.538   9.930   8.368 -0.1505 -0.2468 -0.0511
  531CHOL    R1 4765  13.584   9.940   8.089 -0.0366 -0.0448 -0.0261
  531CHOL    R2 4766  13.470   9.760   7.913  0.0772  0.0508 -0.1956
  531CHOL    R3 4767  13.383   9.986   7.790  0.0786  0.1157 -0.0812
  531CHOL    R4 4768  13.404   9.788   7.575  0.0318  0.2072 -0.1756
  531CHOL    R5 4769  13.495   9.986   7.578  0.0504  0.2002 -0.0988
  531CHOL    C1 4770  13.284  10.016   7.262  0.0065  0.3591 -0.0567
  531CHOL    C2 4771  13.113   9.803   7.017 -0.2053  0.0667 -0.1707
  532PNCE   AM1 4772   7.074   7.802   9.156  0.0521 -0.1312 -0.1542
  532PNCE   AM2 4773   7.245   7.747   9.357 -0.0063 -0.0663 -0.0174
  532PNCE   T1A 4774   7.041   7.726   8.783  0.0856 -0.0424  0.1469
  532PNCE   C2A 4775   7.243   7.431   8.352  0.0028  0.1605  0.0239
  532PNCE   C3A 4776   7.796   7.273   8.300 -0.1326 -0.0600 -0.3428
  532PNCE   C1B 4777   7.560   7.812   9.047 -0.0091  0.1302  0.1476
  532PNCE   C2B 4778   7.590   7.757   8.635  0.0890  0.1011  0.0829
  532PNCE   C3B 4779   7.658   7.668   8.124 -0.1519 -0.0908 -0.0743
  532PNCE   D4B 4780   7.871   7.555   7.804 -0.0603 -0.0626 -0.0819
  532PNCE   C5B 4781   8.303   7.327   8.063  0.2516 -0.0631  0.0371
  532PNCE   C6B 4782   8.456   7.408   8.463 -0.2668 -0.0694 -0.2623
  533PNCE   AM1 4783   0.780  10.211   8.660 -0.2570 -0.2042 -0.1780
  533PNCE   AM2 4784   0.454  10.151   8.649 -0.0771 -0.1671 -0.0534
  533PNCE   T1A 4785   0.613  10.107   8.179  0.1931 -0.2762  0.1340
  533PNCE   C2A 4786   0.505   9.674   7.917 -0.1468 -0.0399  0.0778
  533PNCE   C3A 4787   0.484   9.225   7.888  0.2057 -0.1023 -0.0323
  533PNCE   C1B 4788   0.427   9.744   8.521 -0.2846  0.0685 -0.1539
  533PNCE   C2B 4789   0.589   9.354   8.418  0.0301  0.2487  0.0399
  533PNCE   C3B 4790   0.925   9.106   8.164  0.0952 -0.0121 -0.1927
  533PNCE   D4B 4791   1.097   8.974   7.823 -0.2727  0.1174  0.0944
  533PNCE   C5B 4792   1.407   9.166   7.631  0.1581 -0.0533  0.2118
  533PNCE   C6B 4793   1.545   9.371   7.451 -0.3610  0.1444 -0.1986
  534PNCE   AM1 4794   6.841   9.753   9.035 -0.0965 -0.3349 -0.0846
  534PNCE   AM2 4795   6.600  10.055   9.138 -0.1311 -0.1824  0.3346
  534PNCE   T1A 4796   6.713   9.735   8.496 -0.0246  0.3044 -0.0137
  534PNCE   C2A 4797   6.563   9.561   8.104 -0.2995 -0.1115  0.1049
  534PNCE   C3A 4798   6.628   9.613   7.596  0.0083 -0.1221 -0.1562
  534PNCE   C1B 4799   6.645  10.214   8.699  0.1214 -0.3186  0.1892
  534PNCE   C2B 4800   6.536  10.166   8.305  0.0705  0.5288 -0.1711
  534PNCE   C3B 4801   6.446  10.016   7.868  0.1379  0.2062  0.0510
  534PNCE   D4B 4802   6.137   9.897   7.611  0.0494 -0.2334  0.0358
  534PNCE   C5B 4803   5.891   9.521   7.408  0.3981  0.1109  0.3271
  534PNCE   C6B 4804   5.520   9.340   7.014 -0.4375  0.4392  0.3691
  535PNCE   AM1 4805   2.500  14.968   8.486 -0.2026  0.1370 -0.0254
  535PNCE   AM2 4806   2.567  15.249   8.358  0.0223 -0.1053 -0.1736
  535PNCE   T1A 4807   2.152  14.838   8.132 -0.0445 -0.1672 -0.1602
  535PNCE   C2A 4808   1.739  14.893   8.185 -0.0602 -0.0100  0.0494
  535PNCE   C3A 4809   1.405  14.969   8.508 -0.1411  0.0084 -0.0496
  535PNCE   C1B 4810   2.927  15.142   7.999  0.2684 -0.1504  0.1155
  535PNCE   C2B 4811   2.880  15.237   7.566 -0.2946  0.2481  0.3149
  535PNCE   C3B 4812   3.012  15.426   7.255 -0.1435 -0.1806 -0.0093
  535PNCE   D4B 4813   3.186  15.850   7.150 -0.1173  0.1803  0.0945
  535PNCE   C5B 4814   3.598  15.908   7.343 -0.1785  0.0898  0.0997
  535PNCE   C6B 4815   4.045  15.899   7.499 -0.0036 -0.0188  0.2100
  536CHOL   ROH 4816   5.109   8.179   8.784  0.0508  0.0220  0.1183
  536CHOL    R1 4817   5.130   8.359   8.567  0.1151  0.0204  0.1234
  536CHOL    R2 4818   5.372   8.457   8.476  0.1572 -0.1415  0.0638
  536CHOL    R3 4819   5.285   8.360   8.238  0.0260 -0.0677  0.0800
  536CHOL    R4 4820   5.466   8.580   8.168  0.1419 -0.1687  0.0479
  536CHOL    R5 4821   5.260   8.554   8.100  0.1035 -0.0371  0.1063
  536CHOL    C1 4822   5.440   8.561   7.763  0.0097 -0.1151  0.0538
  536CHOL    C2 4823   5.789   8.527   7.514  0.0811  0.2475 -0.1482
  537CHOL   ROH 4824  13.711  15.805   4.896  0.1017  0.1220  0.0665
  537CHOL    R1 4825  13.696  15.960   5.132 -0.0105  0.1386  0.0484
  537CHOL    R2 4826  13.535  16.184   5.154 -0.0693  0.0995 -0.0222
  537CHOL    R3 4827  13.438  16.053   5.371 -0.1081  0.0990 -0.0391
  537CHOL    R4 4828  13.422  16.337   5.442  0.2082  0.0953  0.0919
  537CHOL    R5 4829  13.519  16.180   5.558  0.1032 -0.0580 -0.0165
  537CHOL    C1 4830  13.266  16.304   5.815  0.3333  0.0923  0.1423
  537CHOL    C2 4831  13.605  16.673   5.788 -0.0508 -0.2079 -0.3063
  538PNCE   AM1 4832   2.026  13.331   8.703  0.4271  0.0799 -0.3613
  538PNCE   AM2 4833   1.996  13.720   8.642  0.1494  0.1310  0.0676
  538PNCE   T1A 4834   2.042  13.283   8.320 -0.1454  0.1105  0.0685
  538PNCE   C2A 4835   2.397  13.205   8.027 -0.0874 -0.2723  0.1952
  538PNCE   C3A 4836   2.568  12.854   7.929  0.2129 -0.0880 -0.1987
  538PNCE   C1B 4837   1.997  13.756   8.203  0.1482  0.2718 -0.2037
  538PNCE   C2B 4838   2.085  13.537   7.908  0.3047 -0.1934  0.1431
  538PNCE   C3B 4839   1.916  13.498   7.537 -0.0328  0.1722  0.1230
  538PNCE   D4B 4840   1.913  13.293   7.222 -0.0249 -0.1006 -0.0179
  538PNCE   C5B 4841   2.058  13.483   6.819 -0.3596 -0.2699  0.1667
  538PNCE   C6B 4842   2.423  13.479   6.617  0.3608 -0.1643  0.0924
  539XCA    COO 4843  10.026   7.986   8.922 -0.0765 -0.2374  0.3698
  539XCA     C1 4844  10.367   8.052   8.585 -0.1815 -0.0867  0.0117
  539XCA     C2 4845  10.700   7.891   8.335  0.1103  0.1253  0.1920
  539XCA     C3 4846  10.706   8.027   8.016  0.1879 -0.3350  0.0540
  539XCA     C4 4847  10.560   8.190   7.651 -0.0379 -0.0872 -0.3510
  539XCA     C5 4848  10.580   8.367   7.326 -0.2606  0.4372  0.0228
  539XCA     C6 4849  10.545   8.475   6.825 -0.1310 -0.0785 -0.0480
  540CHOL   ROH 4850   0.529   3.038   8.014  0.0376  0.2801  0.0397
  540CHOL    R1 4851   0.354   2.988   7.797 -0.0065  0.0481  0.1265
  540CHOL    R2 4852   0.302   3.176   7.601 -0.2711 -0.0565  0.0934
  540CHOL    R3 4853   0.379   2.976   7.434 -0.1473 -0.0308  0.1184
  540CHOL    R4 4854   0.380   3.217   7.267 -0.3723 -0.0608  0.0685
  540CHOL    R5 4855   0.276   3.030   7.225 -0.2348 -0.1536  0.1278
  540CHOL    C1 4856   0.499   3.054   6.916 -0.3151 -0.0393  0.0775
  540CHOL    C2 4857   0.352   3.008   6.512 -0.5407 -0.1439 -0.0577
  541PNCE   AM1 4858   7.759   5.669   8.774  0.3480  0.3433  0.1307
  541PNCE   AM2 4859   7.507   5.689   9.013  0.2214 -0.2989  0.0785
  541PNCE   T1A 4860   7.962   5.908   8.496  0.0177  0.0514  0.0116
  541PNCE   C2A 4861   8.173   5.793   8.162  0.1875 -0.1920 -0.1657
  541PNCE   C3A 4862   8.368   5.777   7.720 -0.1036 -0.3417  0.3490
  541PNCE   C1B 4863   7.250   5.797   8.716  0.1666  0.0807 -0.1721
  541PNCE   C2B 4864   7.472   5.880   8.385 -0.0589 -0.4002 -0.1717
  541PNCE   C3B 4865   7.441   5.915   7.997  0.1662 -0.1348 -0.1229
  541PNCE   D4B 4866   7.480   5.986   7.654  0.0396  0.0072  0.0091
  541PNCE   C5B 4867   7.721   6.046   7.362  0.1149 -0.0170  0.4387
  541PNCE   C6B 4868   7.949   6.337   7.150 -0.0623  0.1745 -0.0008
  542PNCE   AM1 4869   4.415   9.870   8.652  0.0203  0.1284  0.2237
  542PNCE   AM2 4870   4.051   9.723   8.675 -0.3298  0.1018 -0.2221
  542PNCE   T1A 4871   4.710   9.547   8.551  0.1165  0.0003  0.1730
  542PNCE   C2A 4872   4.784   9.292   8.171  0.3909 -0.0411 -0.0456
  542PNCE   C3A 4873   5.065   9.444   7.830 -0.0697  0.1373  0.2874
  542PNCE   C1B 4874   3.708   9.792   8.441 -0.3989  0.2916 -0.0785
  542PNCE   C2B 4875   3.515   9.949   8.005 -0.1056 -0.0727 -0.2914
  542PNCE   C3B 4876   3.758  10.005   7.601  0.2083 -0.3069  0.0079
  542PNCE   D4B 4877   3.721   9.880   7.222 -0.1973  0.2632 -0.0125
  542PNCE   C5B 4878   3.557   9.858   6.814  0.1761 -0.1527 -0.0064
  542PNCE   C6B 4879   3.590   9.741   6.362 -0.0816 -0.1877 -0.0614
  543PNCE   AM1 4880  10.271  14.967   7.725  0.1310  0.3031 -0.0398
  543PNCE   AM2 4881   9.977  14.952   7.820  0.1283 -0.0763 -0.1533
  543PNCE   T1A 4882  10.130  15.235   7.314 -0.1114 -0.1196 -0.1458
  543PNCE   C2A 4883   9.967  15.453   6.917 -0.1823  0.1114 -0.2120
  543PNCE   C3A 4884  10.007  15.450   6.502  0.0699  0.2594 -0.1400
  543PNCE   C1B 4885   9.661  14.678   7.591  0.0632  0.2304  0.3630
  543PNCE   C2B 4886   9.313  14.538   7.322  0.2344  0.1355  0.0567
  543PNCE   C3B 4887   9.352  14.628   6.920 -0.0693  0.1530 -0.0061
  543PNCE   D4B 4888   9.279  14.728   6.486 -0.1112  0.0232 -0.1801
  543PNCE   C5B 4889   8.818  14.472   6.605  0.1214 -0.3915  0.1991
  543PNCE   C6B 4890   8.460  14.494   6.850  0.1436  0.0349 -0.1050
  544CHOL   ROH 4891   8.012   8.025   7.692  0.0767  0.0438 -0.1026
  544CHOL    R1 4892   8.275   7.964   7.607  0.0828  0.0648 -0.0988
  544CHOL    R2 4893   8.341   7.721   7.493  0.1468 -0.0112  0.0948
  544CHOL    R3 4894   8.438   7.878   7.293  0.0535 -0.1446 -0.0582
  544CHOL    R4 4895   8.618   7.647   7.300  0.0720 -0.1256  0.0304
  544CHOL    R5 4896   8.676   7.856   7.311  0.0620 -0.1135 -0.1425
  544CHOL    C1 4897   8.870   7.751   7.000 -0.0593 -0.3175 -0.1509
  544CHOL    C2 4898   9.175   7.729   6.716  0.1337  0.0138 -0.2782
  545PNCE   AM1 4899   6.243   5.077   9.124  0.1328 -0.0306 -0.0824
  545PNCE   AM2 4900   6.586   5.119   9.160  0.4960 -0.2493 -0.0174
  545PNCE   T1A 4901   6.393   5.130   8.649 -0.0882 -0.0929 -0.0445
  545PNCE   C2A 4902   6.575   5.306   8.317 -0.1628  0.0560 -0.2011
  545PNCE   C3A 4903   7.033   5.601   8.236  0.0876  0.1327  0.0398
  545PNCE   C1B 4904   6.789   5.464   8.973  0.3060  0.1177  0.0441
  545PNCE   C2B 4905   6.754   5.706   8.619 -0.1306 -0.2114  0.0305
  545PNCE   C3B 4906   6.446   5.894   8.372 -0.2972 -0.0645  0.0235
  545PNCE   D4B 4907   6.348   5.662   8.003 -0.0539 -0.0175 -0.0942
  545PNCE   C5B 4908   6.218   5.502   7.601 -0.2858 -0.0116  0.1265
  545PNCE   C6B 4909   6.454   5.193   7.357  0.2147  0.0082  0.2119
  546PNCE   AM1 4910  10.806   6.972   8.115  0.1396 -0.2385 -0.0592
  546PNCE   AM2 4911  10.670   7.080   8.335 -0.0677 -0.2658  0.0152
  546PNCE   T1A 4912  10.850   6.973   7.708  0.2408  0.1910 -0.0464
  546PNCE   C2A 4913  10.664   7.032   7.326  0.0708 -0.0330  0.3660
  546PNCE   C3A 4914  10.580   7.481   7.222  0.0419 -0.1920 -0.1904
  546PNCE   C1B 4915  10.401   7.183   7.940 -0.2531 -0.0661  0.0768
  546PNCE   C2B 4916  10.303   7.214   7.600  0.0903 -0.1111  0.2981
  546PNCE   C3B 4917  10.230   7.091   7.102 -0.2712  0.0207 -0.0607
  546PNCE   D4B 4918  10.508   7.138   6.845  0.1742  0.0881  0.1995
  546PNCE   C5B 4919  10.857   6.935   6.562  0.1202  0.4309  0.5968
  546PNCE   C6B 4920  10.839   6.911   6.125 -0.1050  0.1295 -0.0261
  547PNCE   AM1 4921   1.156   2.947   8.381  0.2398  0.1722  0.1614
  547PNCE   AM2 4922   1.071   3.231   8.570 -0.0664  0.0817 -0.0675
  547PNCE   T1A 4923   1.413   2.942   7.888 -0.2659 -0.0568 -0.2713
  547PNCE   C2A 4924   1.768   3.052   7.506  0.2038  0.0287  0.0934
  547PNCE   C3A 4925   1.789   3.331   7.154  0.1064 -0.0420  0.0750
  547PNCE   C1B 4926   1.322   3.527   8.265 -0.1588 -0.0054  0.0470
  547PNCE   C2B 4927   1.488   3.777   7.859 -0.2504 -0.1196  0.0533
  547PNCE   C3B 4928   1.474   4.103   7.559 -0.1609  0.0303 -0.3241
  547PNCE   D4B 4929   1.274   4.292   7.224  0.0027  0.0115  0.0492
  547PNCE   C5B 4930   1.405   4.112   6.799  0.2098 -0.1982  0.0896
  547PNCE   C6B 4931   1.412   3.932   6.371 -0.4924  0.1188  0.0516
  548PNCE   AM1 4932  14.525   5.563   8.865  0.0138  0.1286  0.3024
  548PNCE   AM2 4933  14.254   5.799   8.751 -0.1675 -0.2892  0.2136
  548PNCE   T1A 4934  14.686   5.152   8.684  0.0920 -0.2539  0.0925
  548PNCE   C2A 4935  14.859   4.960   8.368  0.2757 -0.2069 -0.0088
  548PNCE   C3A 4936  14.954   4.696   8.011  0.0591  0.2136  0.0097
  548PNCE   C1B 4937  14.229   5.961   8.366 -0.1177  0.2113  0.0174
  548PNCE   C2B 4938  14.376   5.916   7.980  0.0113 -0.1346 -0.0316
  548PNCE   C3B 4939  14.587   5.911   7.612  0.0350  0.1764 -0.0780
  548PNCE   D4B 4940  14.599   5.516   7.310 -0.0301  0.1734 -0.0212
  548PNCE   C5B 4941  14.464   5.501   6.854 -0.2243 -0.1921 -0.1149
  548PNCE   C6B 4942  14.225   5.770   6.707  0.1393  0.4704 -0.0167
  549CHOL   ROH 4943   0.071   8.442   5.413  0.0539 -0.1159  0.1206
  549CHOL    R1 4944   0.036   8.369   5.685 -0.0735  0.0620  0.1529
  549CHOL    R2 4945  -0.162   8.480   5.843 -0.3485 -0.0560 -0.0982
  549CHOL    R3 4946  -0.228   8.220   5.886 -0.0493 -0.1107  0.0583
  549CHOL    R4 4947  -0.340   8.364   6.116 -0.4647 -0.0503 -0.1711
  549CHOL    R5 4948  -0.207   8.191   6.123 -0.2408  0.1245  0.1081
  549CHOL    C1 4949  -0.506   8.052   6.314 -0.2514 -0.0981 -0.0666
  549CHOL    C2 4950  -0.809   7.869   6.334 -0.3138  0.1116  0.1566
  550XCA    COO 4951  12.114  10.243   4.610 -0.0753 -0.0946  0.2135
  550XCA     C1 4952  12.268  10.405   4.905  0.0740  0.0568 -0.1711
  550XCA     C2 4953  12.625  10.343   5.276  0.0067 -0.1312 -0.2030
  550XCA     C3 4954  12.921  10.396   5.609  0.1439  0.0171 -0.0208
  550XCA     C4 4955  13.111  10.305   5.986  0.2164  0.0152 -0.1172
  550XCA     C5 4956  13.060  10.502   6.323 -0.0038 -0.1833 -0.1054
  550XCA     C6 4957  13.125  10.769   6.686 -0.2410 -0.3196 -0.3277
  551PNCE   AM1 4958  15.579   8.154   8.811  0.3889 -0.0676  0.2109
  551PNCE   AM2 4959  15.444   7.920   8.681  0.0008  0.0510  0.1285
  551PNCE   T1A 4960  15.585   8.366   8.365 -0.3220  0.2928  0.0964
  551PNCE   C2A 4961  15.594   8.689   7.929  0.1328 -0.2622 -0.0770
  551PNCE   C3A 4962  15.701   8.635   7.543  0.0769 -0.1877 -0.0420
  551PNCE   C1B 4963  15.550   7.816   8.315  0.2223  0.3859  0.1786
  551PNCE   C2B 4964  15.804   7.569   8.042  0.1981 -0.1038  0.0486
  551PNCE   C3B 4965  15.821   7.311   7.779 -0.1375 -0.3466  0.1016
  551PNCE   D4B 4966  15.605   6.944   7.490 -0.2273 -0.0893 -0.0455
  551PNCE   C5B 4967  15.699   6.910   7.056 -0.1485 -0.0573 -0.0514
  551PNCE   C6B 4968  15.727   6.702   6.661 -0.1327 -0.5918  0.2023
  552XCA    COO 4969  15.157  11.204   8.402 -0.0352  0.0048  0.2368
  552XCA     C1 4970  15.575  11.207   8.044 -0.2072  0.2002 -0.0229
  552XCA     C2 4971  15.780  11.361   7.587  0.0759 -0.0935 -0.0066
  552XCA     C3 4972  15.744  11.648   7.254 -0.1176  0.3334 -0.1740
  552XCA     C4 4973  15.850  11.444   6.758  0.2085 -0.2493 -0.1855
  552XCA     C5 4974  16.175  11.650   6.437  0.2663 -0.2533  0.0015
  552XCA     C6 4975  16.259  11.764   6.052  0.0010 -0.1744  0.0081
  553PNCE   AM1 4976   0.829  14.936   8.224  0.1605  0.0536 -0.2426
  553PNCE   AM2 4977   0.910  14.894   8.482 -0.2786  0.4950 -0.1096
  553PNCE   T1A 4978   0.931  14.932   7.794 -0.0002  0.0090 -0.2223
  553PNCE   C2A 4979   0.976  14.936   7.431 -0.0754 -0.3215 -0.3296
  553PNCE   C3A 4980   0.936  15.024   6.978  0.1633  0.0551 -0.0452
  553PNCE   C1B 4981   1.155  14.577   8.133  0.0303 -0.0345 -0.3830
  553PNCE   C2B 4982   1.196  14.142   7.812 -0.0185  0.3352 -0.2261
  553PNCE   C3B 4983   1.185  14.007   7.395  0.1691  0.1941  0.1293
  553PNCE   D4B 4984   1.425  13.982   6.993 -0.0081  0.0985  0.2158
  553PNCE   C5B 4985   1.521  13.624   6.895 -0.1484  0.2966 -0.1517
  553PNCE   C6B 4986   1.538  13.364   6.512  0.2168  0.0795 -0.4089
  554CHOL   ROH 4987   4.733   0.058   8.283  0.0851 -0.1244  0.1668
  554CHOL    R1 4988   4.870  -0.094   8.087  0.0875 -0.0363  0.0998
  554CHOL    R2 4989   4.738  -0.233   7.888  0.0771 -0.1406  0.1799
  554CHOL    R3 4990   4.902  -0.090   7.724 -0.1135 -0.0308  0.0809
  554CHOL    R4 4991   4.895  -0.358   7.607 -0.0343 -0.0274  0.0655
  554CHOL    R5 4992   5.073  -0.245   7.661 -0.0626  0.0732 -0.0438
  554CHOL    C1 4993   5.140  -0.297   7.290 -0.2781  0.1414 -0.0940
  554CHOL    C2 4994   5.450  -0.529   7.276 -0.0079 -0.1243 -0.0207
  555CHOL   ROH 4995   6.711  11.212   5.432  0.1932 -0.0374  0.1240
  555CHOL    R1 4996   6.594  11.240   5.689  0.1294 -0.0726  0.0998
  555CHOL    R2 4997   6.663  11.443   5.862  0.1097 -0.1106  0.1604
  555CHOL    R3 4998   6.396  11.491   5.863  0.1154 -0.0810  0.0924
  555CHOL    R4 4999   6.496  11.628   6.102  0.1129  0.2284 -0.0916
  555CHOL    R5 5000   6.334  11.482   6.094  0.1029  0.2368  0.1006
  555CHOL    C1 5001   6.148  11.780   6.242  0.1201  0.4534 -0.3023
  555CHOL    C2 5002   5.941  11.993   6.559  0.1797 -0.1488  0.2912
  556CHOL   ROH 5003  10.980   8.983   5.083 -0.0654  0.0632 -0.0334
  556CHOL    R1 5004  11.138   9.000   5.317  0.0406  0.0046 -0.1001
  556CHOL    R2 5005  11.081   9.174   5.524  0.1758  0.0066 -0.0611
  556CHOL    R3 5006  11.090   8.947   5.673  0.1793 -0.0076 -0.0830
  556CHOL    R4 5007  11.137   9.164   5.865  0.1266 -0.0270 -0.0539
  556CHOL    R5 5008  11.262   8.989   5.834  0.1494 -0.0079 -0.0533
  556CHOL    C1 5009  11.178   8.945   6.203  0.1011 -0.0599 -0.0702
  556CHOL    C2 5010  11.099   9.096   6.489  0.1049 -0.0846  0.0113
  557PNCE   AM1 5011   2.331   1.136   7.859  0.1494 -0.0315 -0.0523
  557PNCE   AM2 5012   2.643   1.269   7.760  0.1940  0.2689 -0.0184
  557PNCE   T1A 5013   2.359   0.771   7.611 -0.1434 -0.1166  0.2589
  557PNCE   C2A 5014   2.478   0.462   7.321  0.0281 -0.0330  0.1469
  557PNCE   C3A 5015   2.780   0.277   7.094 -0.0772  0.0703 -0.2569
  557PNCE   C1B 5016   2.503   1.219   7.339  0.0785 -0.2353  0.2187
  557PNCE   C2B 5017   2.315   1.555   7.025 -0.2190  0.3350 -0.2949
  557PNCE   C3B 5018   1.845   1.601   6.905 -0.0303  0.1915 -0.1734
  557PNCE   D4B 5019   1.422   1.492   6.887 -0.0622  0.1480  0.2769
  557PNCE   C5B 5020   1.399   1.153   6.852 -0.2896 -0.0310 -0.0674
  557PNCE   C6B 5021   1.578   0.697   6.940  0.2988 -0.0457 -0.2155
  558CHOL   ROH 5022   2.435  15.359   7.881 -0.0315  0.0967  0.0202
  558CHOL    R1 5023   2.354  15.150   7.708  0.0863  0.1018 -0.0466
  558CHOL    R2 5024   2.098  15.043   7.713  0.1853 -0.1655  0.0343
  558CHOL    R3 5025   2.102  15.105   7.449 -0.0103 -0.0091  0.0693
  558CHOL    R4 5026   1.937  14.864   7.466  0.0439 -0.0331  0.0329
  558CHOL    R5 5027   2.110  14.894   7.338 -0.0572  0.0677 -0.0674
  558CHOL    C1 5028   1.846  14.819   7.073 -0.2221  0.1909  0.0650
  558CHOL    C2 5029   1.768  14.828   6.731  0.2260 -0.2081  0.2904
  559PNCE   AM1 5030  12.535   2.558   8.284 -0.2571 -0.1717  0.0754
  559PNCE   AM2 5031  12.812   2.323   8.351  0.1931  0.2065  0.2578
  559PNCE   T1A 5032  12.480   2.611   7.748  0.0558 -0.1279  0.0008
  559PNCE   C2A 5033  12.376   2.567   7.331  0.0995  0.1420  0.1128
  559PNCE   C3A 5034  12.403   2.539   6.863 -0.1034 -0.2265  0.0792
  559PNCE   C1B 5035  12.570   2.150   7.923 -0.0888 -0.2094  0.0971
  559PNCE   C2B 5036  12.627   2.197   7.475  0.0432 -0.1668  0.0281
  559PNCE   C3B 5037  12.671   2.162   7.093  0.0232 -0.0037  0.3466
  559PNCE   D4B 5038  12.830   2.041   6.740  0.0214  0.2450  0.0097
  559PNCE   C5B 5039  12.576   2.253   6.443 -0.0029 -0.2401 -0.0024
  559PNCE   C6B 5040  12.553   2.049   5.976  0.0202  0.0300  0.0059
  560PNCE   AM1 5041   3.925  14.677   8.772 -0.0658 -0.1368  0.4282
  560PNCE   AM2 5042   4.114  14.483   8.734  0.0981  0.0794 -0.1460
  560PNCE   T1A 5043   3.732  14.382   8.418  0.0495  0.0850 -0.1129
  560PNCE   C2A 5044   3.580  14.451   8.043 -0.2567  0.2525  0.3315
  560PNCE   C3A 5045   3.394  14.197   7.773 -0.2412 -0.0203 -0.2003
  560PNCE   C1B 5046   4.183  14.093   8.485  0.2981 -0.0704 -0.0465
  560PNCE   C2B 5047   4.460  14.029   8.144 -0.1714  0.0585  0.1341
  560PNCE   C3B 5048   4.803  13.978   7.972 -0.1623 -0.0482 -0.0821
  560PNCE   D4B 5049   4.961  13.867   7.559  0.1569 -0.1881 -0.3457
  560PNCE   C5B 5050   5.111  13.458   7.486 -0.0427  0.1343 -0.1970
  560PNCE   C6B 5051   5.431  13.348   7.320  0.2552 -0.2561  0.1022
  561PNCE   AM1 5052  10.218   4.316   7.997  0.1412 -0.2277 -0.1156
  561PNCE   AM2 5053   9.949   4.310   8.226 -0.2272  0.2732  0.0713
  561PNCE   T1A 5054  10.119   4.175   7.599  0.1058 -0.2131 -0.0322
  561PNCE   C2A 5055  10.126   3.837   7.326  0.2228  0.0976 -0.0027
  561PNCE   C3A 5056  10.438   3.603   7.206  0.1536  0.2852 -0.0421
  561PNCE   C1B 5057   9.784   4.518   7.792 -0.2729  0.0295  0.1403
  561PNCE   C2B 5058   9.743   4.412   7.392  0.1072 -0.2346  0.1286
  561PNCE   C3B 5059   9.412   4.359   7.130  0.2533 -0.1208 -0.3041
  561PNCE   D4B 5060   9.030   4.307   6.973 -0.0927 -0.0165 -0.3018
  561PNCE   C5B 5061   9.046   4.395   6.498  0.1061  0.3901  0.1344
  561PNCE   C6B 5062   9.275   4.464   6.166  0.0894 -0.0063  0.2048
  562PNCE   AM1 5063   9.914  13.128   4.131 -0.0444  0.0078  0.0177
  562PNCE   AM2 5064  10.224  12.937   4.021  0.1476 -0.1280  0.1479
  562PNCE   T1A 5065   9.727  13.396   4.549 -0.1369  0.1981  0.1231
  562PNCE   C2A 5066   9.349  13.364   4.748  0.1745 -0.0627  0.2475
  562PNCE   C3A 5067   9.007  13.188   4.648  0.1307 -0.0825  0.3661
  562PNCE   C1B 5068  10.331  12.734   4.388  0.0329 -0.1540  0.0679
  562PNCE   C2B 5069  10.783  12.785   4.517 -0.0400 -0.1017  0.0836
  562PNCE   C3B 5070  11.142  12.719   4.689  0.1268 -0.1150 -0.0772
  562PNCE   D4B 5071  11.469  12.992   4.941 -0.0331 -0.1983  0.0025
  562PNCE   C5B 5072  11.955  12.928   4.934  0.1340 -0.0995 -0.1802
  562PNCE   C6B 5073  12.255  12.877   4.516 -0.2496  0.0909  0.2805
  563PNCE   AM1 5074   6.458   5.739   9.562  0.0052 -0.2163 -0.0018
  563PNCE   AM2 5075   6.381   5.589   9.271 -0.0612  0.4836  0.3306
  563PNCE   T1A 5076   6.578   5.959   9.151 -0.2384  0.2154  0.0999
  563PNCE   C2A 5077   6.625   6.207   8.703  0.1825  0.0311 -0.0705
  563PNCE   C3A 5078   6.652   6.353   8.294 -0.0043 -0.0463  0.1410
  563PNCE   C1B 5079   6.343   5.697   8.837  0.1050 -0.0471  0.1612
  563PNCE   C2B 5080   6.114   6.065   8.693 -0.3766 -0.2958 -0.0194
  563PNCE   C3B 5081   5.762   6.262   8.412 -0.0947 -0.0294  0.0535
  563PNCE   D4B 5082   5.703   6.638   8.225  0.0559  0.0996 -0.0400
  563PNCE   C5B 5083   5.585   6.800   7.761  0.0882  0.4411 -0.3199
  563PNCE   C6B 5084   5.365   7.107   7.495 -0.1950  0.2009  0.1266
  564PNCE   AM1 5085  10.113  11.087   8.628 -0.1372  0.1242 -0.0801
  564PNCE   AM2 5086  10.348  11.312   8.715 -0.1676  0.1572 -0.0620
  564PNCE   T1A 5087  10.320  10.688   8.337  0.2221 -0.2587  0.1712
  564PNCE   C2A 5088  10.732  10.514   8.380  0.2710  0.1422 -0.0105
  564PNCE   C3A 5089  11.142  10.571   8.639 -0.0755  0.0722 -0.0401
  564PNCE   C1B 5090  10.197  11.452   8.238  0.4530 -0.4617  0.1955
  564PNCE   C2B 5091  10.163  11.321   7.848 -0.3754 -0.0688 -0.2024
  564PNCE   C3B 5092   9.844  11.404   7.496 -0.0522  0.2448 -0.1853
  564PNCE   D4B 5093   9.739  11.483   7.009  0.1747  0.1441 -0.2248
  564PNCE   C5B 5094   9.377  11.590   6.870 -0.0939 -0.0364 -0.2895
  564PNCE   C6B 5095   8.987  11.563   6.701  0.1445  0.0197  0.1638
  565CHOL   ROH 5096  15.007   3.963   6.689  0.1614  0.1841  0.0050
  565CHOL    R1 5097  15.215   3.773   6.716  0.0357  0.0371 -0.0508
  565CHOL    R2 5098  15.235   3.550   6.553  0.0058  0.1851 -0.2566
  565CHOL    R3 5099  15.486   3.646   6.508  0.0924  0.0848 -0.0077
  565CHOL    R4 5100  15.503   3.359   6.447  0.0280  0.0771 -0.0149
  565CHOL    R5 5101  15.630   3.471   6.584 -0.0544  0.0134  0.1204
  565CHOL    C1 5102  15.894   3.338   6.342  0.1222 -0.0799  0.3595
  565CHOL    C2 5103  16.136   3.403   6.078  0.0763  0.1703 -0.2138
  566CHOL   ROH 5104   7.062  12.520   8.980  0.1965 -0.1116 -0.1906
  566CHOL    R1 5105   6.893  12.710   8.855  0.1096 -0.1730 -0.1656
  566CHOL    R2 5106   6.956  12.979   8.842 -0.0714 -0.1262 -0.0234
  566CHOL    R3 5107   6.918  12.942   8.576  0.0472 -0.0310 -0.0555
  566CHOL    R4 5108   6.817  13.212   8.628 -0.1693 -0.1237  0.0406
  566CHOL    R5 5109   6.709  13.050   8.530 -0.0197 -0.1602 -0.0731
  566CHOL    C1 5110   6.700  13.313   8.253 -0.1149 -0.0330  0.0478
  566CHOL    C2 5111   6.355  13.600   8.347  0.1959  0.1376  0.3431
  567PNCE   AM1 5112   2.098   6.799   9.253  0.1210 -0.0672  0.1390
  567PNCE   AM2 5113   2.162   7.098   9.326 -0.0451 -0.5452 -0.0870
  567PNCE   T1A 5114   1.900   6.840   8.882 -0.0400  0.0621  0.0148
  567PNCE   C2A 5115   1.818   7.045   8.516 -0.0010 -0.0467  0.0895
  567PNCE   C3A 5116   1.824   7.461   8.360 -0.1120 -0.0900 -0.0552
  567PNCE   C1B 5117   2.211   7.250   8.851 -0.0318  0.2565 -0.0945
  567PNCE   C2B 5118   2.256   7.182   8.555  0.0120  0.1160 -0.1623
  567PNCE   C3B 5119   2.383   6.850   8.279  0.0415 -0.2743  0.0958
  567PNCE   D4B 5120   2.723   6.649   8.131 -0.2065 -0.0606 -0.0770
  567PNCE   C5B 5121   2.671   6.312   7.914 -0.1918  0.2944  0.1256
  567PNCE   C6B 5122   2.662   5.996   7.683  0.0987 -0.0223 -0.0116
  568PNCE   AM1 5123  13.463   2.607   7.508  0.0536  0.2172  0.0899
  568PNCE   AM2 5124  13.576   2.318   7.642  0.0258  0.0765 -0.1794
  568PNCE   T1A 5125  13.511   2.753   7.060 -0.1871 -0.0288 -0.0829
  568PNCE   C2A 5126  13.474   2.723   6.667 -0.0265 -0.0699  0.0272
  568PNCE   C3A 5127  13.574   2.992   6.421  0.0107  0.0834 -0.3730
  568PNCE   C1B 5128  13.758   2.390   7.220 -0.0269 -0.0654 -0.0538
  568PNCE   C2B 5129  13.912   2.393   6.878 -0.2406  0.3064  0.2287
  568PNCE   C3B 5130  13.808   2.466   6.435  0.1621  0.0980  0.2901
  568PNCE   D4B 5131  13.968   2.762   6.124 -0.0847 -0.1090  0.1025
  568PNCE   C5B 5132  13.721   3.120   5.945 -0.3286 -0.1041 -0.0801
  568PNCE   C6B 5133  13.350   3.197   5.980  0.1319  0.0990  0.2838
  569PNCE   AM1 5134   6.937   3.752   8.764  0.1745  0.2974  0.0138
  569PNCE   AM2 5135   7.084   3.983   8.567 -0.4054  0.0548  0.3245
  569PNCE   T1A 5136   7.220   3.577   8.337 -0.1409 -0.1000 -0.0764
  569PNCE   C2A 5137   7.433   3.353   8.020  0.0869  0.2183 -0.0321
  569PNCE   C3A 5138   7.491   3.051   7.592 -0.0816 -0.2290 -0.1928
  569PNCE   C1B 5139   7.042   4.051   8.168  0.3330  0.1639 -0.0427
  569PNCE   C2B 5140   7.102   3.808   7.785 -0.2375 -0.2026  0.2208
  569PNCE   C3B 5141   7.210   3.513   7.460  0.0241  0.0305  0.0202
  569PNCE   D4B 5142   7.477   3.409   7.006  0.3064 -0.0208 -0.0441
  569PNCE   C5B 5143   7.649   2.976   6.824  0.0877  0.0718  0.0933
  569PNCE   C6B 5144   7.563   2.702   6.594 -0.2027 -0.2050  0.0137
  570CHOL   ROH 5145   2.672   4.865   5.211 -0.3249  0.0663  0.0452
  570CHOL    R1 5146   2.445   4.697   5.193 -0.2629 -0.0084 -0.0563
  570CHOL    R2 5147   2.396   4.536   4.974 -0.1588  0.0405 -0.1184
  570CHOL    R3 5148   2.381   4.340   5.163 -0.1304 -0.0219 -0.1810
  570CHOL    R4 5149   2.168   4.276   4.972 -0.1204  0.0077 -0.1985
  570CHOL    R5 5150   2.146   4.300   5.188 -0.1231 -0.0647 -0.1922
  570CHOL    C1 5151   2.021   3.941   5.147 -0.0715 -0.0702 -0.3038
  570CHOL    C2 5152   1.921   3.616   5.294  0.0672 -0.3224  0.2504
  571XCA    COO 5153   1.307  12.349   7.988 -0.0128 -0.1064  0.0278
  571XCA     C1 5154   1.399  11.839   7.868  0.3596  0.0544  0.3234
  571XCA     C2 5155   1.267  11.549   7.547 -0.1931 -0.2373  0.1732
  571XCA     C3 5156   1.205  11.297   7.131 -0.0358 -0.0379  0.3747
  571XCA     C4 5157   0.918  11.175   6.829 -0.2895  0.1905 -0.2262
  571XCA     C5 5158   0.660  10.859   6.868 -0.1305 -0.0705  0.0767
  571XCA     C6 5159   0.615  10.575   7.278 -0.2800  0.3583  0.2268
  572PNCE   AM1 5160  12.155   7.155   7.817  0.1358  0.1156  0.3402
  572PNCE   AM2 5161  12.061   6.798   8.067 -0.0804  0.2543 -0.1104
  572PNCE   T1A 5162  12.274   6.912   7.411  0.0134 -0.0082  0.2734
  572PNCE   C2A 5163  12.101   6.760   7.062  0.1698 -0.2183  0.2232
  572PNCE   C3A 5164  12.015   6.472   6.675 -0.0098 -0.0146 -0.1345
  572PNCE   C1B 5165  12.448   6.798   7.906  0.0743  0.2662 -0.0650
  572PNCE   C2B 5166  12.724   6.733   7.592  0.1413 -0.0223 -0.0694
  572PNCE   C3B 5167  12.819   6.825   7.298 -0.2798  0.0096  0.1904
  572PNCE   D4B 5168  12.907   6.815   6.863  0.1399  0.1645 -0.0228
  572PNCE   C5B 5169  12.948   7.140   6.613  0.1486 -0.1034  0.2630
  572PNCE   C6B 5170  13.105   7.488   6.603  0.1315  0.0534  0.1910
  573CHOL   ROH 5171  14.785  11.655   4.313 -0.1869 -0.3495 -0.0940
  573CHOL    R1 5172  14.609  11.703   4.530 -0.1540 -0.2724 -0.0845
  573CHOL    R2 5173  14.571  11.520   4.734 -0.0994 -0.1852  0.0014
  573CHOL    R3 5174  14.637  11.732   4.892 -0.0960 -0.1094 -0.1004
  573CHOL    R4 5175  14.566  11.519   5.080 -0.0987 -0.0252  0.0030
  573CHOL    R5 5176  14.483  11.720   5.075 -0.0980 -0.0233 -0.0931
  573CHOL    C1 5177  14.625  11.717   5.429 -0.0949  0.1391 -0.0917
  573CHOL    C2 5178  14.433  11.477   5.761  0.2402 -0.2613  0.1826
  574PNCE   AM1 5179   6.639   4.714   8.443 -0.3740 -0.0860 -0.1310
  574PNCE   AM2 5180   6.670   4.411   8.661 -0.0371  0.2451 -0.2898
  574PNCE   T1A 5181   6.607   4.896   7.952 -0.0496 -0.0853 -0.1942
  574PNCE   C2A 5182   6.678   5.263   7.782 -0.0127  0.2953 -0.2985
  574PNCE   C3A 5183   6.777   5.617   7.572  0.0988  0.2410 -0.0054
  574PNCE   C1B 5184   6.477   4.270   8.330  0.1246  0.1216  0.1861
  574PNCE   C2B 5185   6.276   4.506   7.946  0.0816  0.1149 -0.0179
  574PNCE   C3B 5186   6.363   4.617   7.458 -0.0284 -0.0256  0.2260
  574PNCE   D4B 5187   6.799   4.683   7.200 -0.2299 -0.0768  0.0984
  574PNCE   C5B 5188   6.787   5.031   6.851 -0.0336  0.0785  0.3681
  574PNCE   C6B 5189   6.682   5.441   6.814 -0.1028 -0.1883  0.4069
  575PNCE   AM1 5190   4.745  11.328   9.288  0.1838 -0.3528 -0.1337
  575PNCE   AM2 5191   5.020  11.286   9.424 -0.0021 -0.2366  0.1077
  575PNCE   T1A 5192   4.837  11.200   8.790  0.1013  0.2421 -0.1475
  575PNCE   C2A 5193   4.667  11.147   8.382 -0.0432  0.3145 -0.2094
  575PNCE   C3A 5194   4.707  10.831   8.155 -0.2202  0.0563  0.0564
  575PNCE   C1B 5195   5.073  11.539   9.031 -0.0108  0.1540  0.0463
  575PNCE   C2B 5196   5.170  11.529   8.559  0.0835  0.1632 -0.1127
  575PNCE   C3B 5197   5.392  11.698   8.288 -0.2217  0.2042 -0.5256
  575PNCE   D4B 5198   5.262  11.780   7.809  0.0127  0.0975 -0.1300
  575PNCE   C5B 5199   4.851  11.840   7.619 -0.1851  0.2206 -0.3398
  575PNCE   C6B 5200   4.693  12.216   7.675 -0.0827 -0.0017 -0.0622
  576XCA    COO 5201  11.053   5.349   4.872  0.0750 -0.2638 -0.0667
  576XCA     C1 5202  11.395   5.007   5.160 -0.1412  0.2472  0.5091
  576XCA     C2 5203  11.740   4.699   5.310 -0.3116  0.3227  0.0716
  576XCA     C3 5204  11.958   4.467   5.694 -0.0089  0.0884  0.2239
  576XCA     C4 5205  11.908   4.488   6.144 -0.0783 -0.1632 -0.2847
  576XCA     C5 5206  12.033   4.219   6.383 -0.3240 -0.2874 -0.0633
  576XCA     C6 5207  12.130   3.839   6.594 -0.2882 -0.0752  0.2165
  577XCA    COO 5208  13.146   7.051   8.293 -0.0180 -0.3352  0.1378
  577XCA     C1 5209  12.812   7.068   8.086  0.2452 -0.0558  0.0082
  577XCA     C2 5210  12.406   7.301   8.147  0.0455 -0.2633 -0.0845
  577XCA     C3 5211  12.170   7.615   7.918  0.0624  0.1921 -0.1373
  577XCA     C4 5212  11.817   7.472   7.611  0.2799  0.1011  0.5055
  577XCA     C5 5213  11.542   7.603   7.335 -0.2372  0.0081  0.0740
  577XCA     C6 5214  11.110   7.537   7.231 -0.4332  0.0083 -0.1949
  578PNCE   AM1 5215   3.508   1.737   7.222  0.1619 -0.0746  0.0307
  578PNCE   AM2 5216   3.236   1.799   7.172  0.2952  0.0087  0.2847
  578PNCE   T1A 5217   3.450   1.386   6.975  0.0799  0.4463 -0.0873
  578PNCE   C2A 5218   3.272   1.092   6.780  0.2361 -0.1761  0.0757
  578PNCE   C3A 5219   3.234   0.914   6.344 -0.0618 -0.1642  0.1282
  578PNCE   C1B 5220   3.346   1.784   6.687  0.0306 -0.3302  0.1010
  578PNCE   C2B 5221   3.621   1.860   6.267 -0.2580  0.1317 -0.3262
  578PNCE   C3B 5222   3.906   1.512   6.171  0.2205  0.0150  0.1781
  578PNCE   D4B 5223   4.287   1.243   6.393  0.2646  0.0498 -0.1257
  578PNCE   C5B 5224   4.598   0.987   6.044 -0.2794 -0.1062  0.5291
  578PNCE   C6B 5225   4.541   0.754   5.776 -0.0012 -0.0700 -0.2821
  579CHOL   ROH 5226  14.128   7.144   4.684  0.0260  0.0073 -0.0607
  579CHOL    R1 5227  14.307   6.944   4.774  0.1235  0.1491  0.0706
  579CHOL    R2 5228  14.477   6.980   4.988 -0.0861  0.2748  0.2228
  579CHOL    R3 5229  14.359   6.753   5.079  0.0244  0.1660  0.0975
  579CHOL    R4 5230  14.574   6.807   5.271 -0.0592  0.2102  0.1735
  579CHOL    R5 5231  14.540   6.621   5.163  0.0784  0.2370  0.0878
  579CHOL    C1 5232  14.519   6.493   5.521  0.0603  0.0704  0.0273
  579CHOL    C2 5233  14.328   6.207   5.753  0.1789 -0.1223 -0.1423
  580PNCE   AM1 5234   7.989  10.227   9.227 -0.2138  0.0170  0.2558
  580PNCE   AM2 5235   7.752  10.007   9.121  0.0172 -0.0858 -0.0177
  580PNCE   T1A 5236   8.338  10.338   8.894 -0.3948 -0.0461  0.0029
  580PNCE   C2A 5237   8.351  10.510   8.428  0.0813 -0.1646  0.1557
  580PNCE   C3A 5238   8.155  10.383   8.025 -0.2290 -0.0502  0.2742
  580PNCE   C1B 5239   7.987   9.959   8.793  0.0115 -0.0034  0.1072
  580PNCE   C2B 5240   8.172  10.023   8.427  0.0577  0.3193  0.0346
  580PNCE   C3B 5241   8.103   9.924   8.053  0.2666 -0.0137  0.1568
  580PNCE   D4B 5242   7.818   9.595   7.948 -0.1988 -0.2499 -0.0706
  580PNCE   C5B 5243   7.774   9.531   7.526 -0.0084 -0.2736  0.0235
  580PNCE   C6B 5244   7.864   9.657   7.160 -0.0532  0.1144 -0.2001
  581CHOL   ROH 5245   0.007   5.262   8.130 -0.1462 -0.3836  0.0874
  581CHOL    R1 5246  -0.045   5.226   7.855 -0.0591 -0.3552  0.0668
  581CHOL    R2 5247   0.155   5.189   7.668  0.0067 -0.2244  0.1106
  581CHOL    R3 5248   0.011   4.967   7.606  0.1269 -0.2810  0.0301
  581CHOL    R4 5249   0.227   4.974   7.407  0.1513 -0.1195  0.0622
  581CHOL    R5 5250   0.013   4.960   7.366  0.1639 -0.2161  0.0285
  581CHOL    C1 5251   0.133   4.640   7.197  0.3483 -0.1115 -0.0416
  581CHOL    C2 5252  -0.013   4.340   6.903 -0.1404  0.0123 -0.0278
  582CHOL   ROH 5253   5.715  11.649   6.738 -0.0134  0.1124  0.0437
  582CHOL    R1 5254   5.729  11.491   6.973  0.0263  0.1340  0.0551
  582CHOL    R2 5255   5.680  11.594   7.225 -0.2081  0.0954  0.0249
  582CHOL    R3 5256   5.500  11.391   7.238 -0.0110 -0.0899 -0.0589
  582CHOL    R4 5257   5.535  11.476   7.516 -0.2470 -0.0319 -0.0446
  582CHOL    R5 5258   5.556  11.274   7.438  0.0014 -0.0194 -0.0197
  582CHOL    C1 5259   5.281  11.216   7.696 -0.0847 -0.2801 -0.1637
  582CHOL    C2 5260   5.414  10.953   7.896  0.0520  0.1865  0.2687
  583CHOL   ROH 5261   8.810   9.502   7.477 -0.1482 -0.0006  0.0291
  583CHOL    R1 5262   8.669   9.545   7.235 -0.2150  0.1385  0.0916
  583CHOL    R2 5263   8.738   9.420   6.999 -0.1197  0.4672 -0.0604
  583CHOL    R3 5264   8.477   9.342   7.001 -0.0480  0.2154 -0.1152
  583CHOL    R4 5265   8.578   9.256   6.740  0.0997  0.2812 -0.0812
  583CHOL    R5 5266   8.402   9.379   6.777 -0.0300  0.1169 -0.1378
  583CHOL    C1 5267   8.240   9.087   6.592  0.2948 -0.0634 -0.1447
  583CHOL    C2 5268   7.918   8.995   6.525  0.3811 -0.1034 -0.2090
  584XCA    COO 5269   5.045   7.179   8.505 -0.1198 -0.0548  0.2199
  584XCA     C1 5270   4.800   7.137   8.100  0.1780 -0.1156 -0.0534
  584XCA     C2 5271   4.942   7.189   7.687 -0.2826  0.0738  0.0786
  584XCA     C3 5272   4.655   7.168   7.336 -0.0919  0.1562 -0.1921
  584XCA     C4 5273   4.423   6.933   7.204 -0.1198 -0.1703  0.1292
  584XCA     C5 5274   4.371   6.749   6.876 -0.4508 -0.0585 -0.2034
  584XCA     C6 5275   4.283   6.629   6.425  0.0764 -0.4949  0.0271
  585PNCE   AM1 5276   4.572   6.678   9.197 -0.0844 -0.2008 -0.0437
  585PNCE   AM2 5277   4.624   6.536   8.793  0.0639  0.2475 -0.2415
  585PNCE   T1A 5278   5.007   6.554   9.346  0.3203 -0.0143 -0.2224
  585PNCE   C2A 5279   5.472   6.591   9.162  0.1833  0.1237 -0.3187
  585PNCE   C3A 5280   5.791   6.925   9.127  0.0334  0.2092 -0.1274
  585PNCE   C1B 5281   4.746   6.196   8.467 -0.0353  0.1178 -0.1871
  585PNCE   C2B 5282   4.688   5.982   8.118  0.0624 -0.0797  0.0535
  585PNCE   C3B 5283   4.773   5.680   7.636  0.2222  0.1002  0.0919
  585PNCE   D4B 5284   4.876   5.752   7.262  0.1147  0.1886 -0.1751
  585PNCE   C5B 5285   4.752   6.005   7.013 -0.2989 -0.0399 -0.1377
  585PNCE   C6B 5286   4.764   6.430   6.820 -0.2173 -0.3093 -0.1500
  586PNCE   AM1 5287   7.033   0.353   8.530  0.0207  0.1567  0.2381
  586PNCE   AM2 5288   7.064  -0.078   8.514 -0.1333 -0.5127 -0.0713
  586PNCE   T1A 5289   7.052   0.254   8.111  0.1237  0.0061  0.1940
  586PNCE   C2A 5290   7.156  -0.011   7.693 -0.0279  0.1129  0.2421
  586PNCE   C3A 5291   7.245  -0.422   7.474 -0.0482 -0.0580 -0.1264
  586PNCE   C1B 5292   7.320  -0.140   8.151 -0.2451 -0.6028 -0.3486
  586PNCE   C2B 5293   7.465  -0.469   7.975 -0.1355  0.1274  0.0769
  586PNCE   C3B 5294   7.336  -0.862   7.889 -0.0216 -0.3045  0.1403
  586PNCE   D4B 5295   6.991  -1.118   7.912 -0.1467  0.0044  0.2382
  586PNCE   C5B 5296   6.975  -1.597   7.870 -0.1549 -0.0155 -0.1499
  586PNCE   C6B 5297   7.028  -1.919   7.697  0.0338  0.4448  0.3875
  587CHOL   ROH 5298   7.877  13.925   5.317  0.0500 -0.0411 -0.0822
  587CHOL    R1 5299   7.949  13.809   5.565 -0.0993 -0.0482 -0.0416
  587CHOL    R2 5300   8.156  13.907   5.720 -0.0801 -0.1602  0.0001
  587CHOL    R3 5301   7.963  13.916   5.912 -0.1289 -0.0007 -0.0540
  587CHOL    R4 5302   8.210  13.995   6.050 -0.0725 -0.3106  0.0397
  587CHOL    R5 5303   8.072  13.836   6.110 -0.2695 -0.1795 -0.0434
  587CHOL    C1 5304   8.061  14.054   6.422 -0.1137 -0.2482  0.0120
  587CHOL    C2 5305   8.265  14.104   6.659 -0.2472  0.0943  0.1889
  588PNCE   AM1 5306   7.278   9.177   9.115  0.0586  0.0122  0.0710
  588PNCE   AM2 5307   7.032   9.294   9.114  0.2468  0.3764 -0.2224
  588PNCE   T1A 5308   7.436   8.779   8.896  0.2575  0.0704  0.0171
  588PNCE   C2A 5309   7.611   8.427   8.627 -0.1858 -0.2003 -0.0761
  588PNCE   C3A 5310   7.781   8.230   8.274 -0.0963  0.2981 -0.3254
  588PNCE   C1B 5311   6.916   9.355   8.737 -0.1024  0.4662  0.0506
  588PNCE   C2B 5312   6.855   9.221   8.295 -0.3779 -0.2118  0.0960
  588PNCE   C3B 5313   6.919   9.157   7.933 -0.1402  0.1310  0.2020
  588PNCE   D4B 5314   6.731   9.173   7.462  0.0291  0.0229  0.0866
  588PNCE   C5B 5315   6.327   9.211   7.256  0.5550 -0.3586  0.1230
  588PNCE   C6B 5316   5.992   9.139   6.923  0.2422 -0.1180  0.2322
  589CHOL   ROH 5317  10.800  12.833   6.424 -0.0310 -0.0610  0.0007
  589CHOL    R1 5318  11.063  12.850   6.319 -0.0385  0.0080 -0.0064
  589CHOL    R2 5319  11.228  12.629   6.296  0.0659  0.0738  0.1132
  589CHOL    R3 5320  11.244  12.709   6.037  0.0301 -0.0574  0.0692
  589CHOL    R4 5321  11.503  12.584   6.092  0.0471 -0.0081  0.1046
  589CHOL    R5 5322  11.470  12.784   6.011  0.0217 -0.0511  0.0055
  589CHOL    C1 5323  11.679  12.634   5.730  0.0026 -0.1791  0.0583
  589CHOL    C2 5324  11.753  12.786   5.351  0.2325  0.0702 -0.1704
  590XCA    COO 5325   3.880  11.844   9.241  0.1929 -0.2549 -0.0304
  590XCA     C1 5326   4.205  12.008   8.894  0.2352  0.1491 -0.2400
  590XCA     C2 5327   4.189  12.074   8.451  0.2587 -0.0921  0.2338
  590XCA     C3 5328   4.389  11.985   8.105  0.1483 -0.0569  0.0382
  590XCA     C4 5329   4.252  11.871   7.777 -0.0862  0.0424 -0.2013
  590XCA     C5 5330   4.213  12.225   7.418 -0.0506  0.0997  0.0891
  590XCA     C6 5331   4.224  12.468   7.150  0.0957 -0.0771 -0.2323
  591CHOL   ROH 5332  10.504   4.536   5.624 -0.0551 -0.0185 -0.0492
  591CHOL    R1 5333  10.339   4.354   5.764  0.0798 -0.0862  0.0247
  591CHOL    R2 5334  10.427   4.211   5.983  0.2012  0.0334  0.0571
  591CHOL    R3 5335  10.210   4.321   6.103  0.1445 -0.0709  0.0506
  591CHOL    R4 5336  10.333   4.156   6.311  0.2153 -0.0098  0.0538
  591CHOL    R5 5337  10.125   4.148   6.244  0.2223 -0.1094  0.0482
  591CHOL    C1 5338  10.073   4.227   6.614  0.1702 -0.1329  0.0457
  591CHOL    C2 5339   9.912   4.238   6.970 -0.1157 -0.3564 -0.0398
  592CHOL   ROH 5340   4.409  12.322   9.114 -0.2363 -0.3133 -0.1060
  592CHOL    R1 5341   4.612  12.274   8.922 -0.1876 -0.1779 -0.0896
  592CHOL    R2 5342   4.556  12.221   8.657 -0.1256 -0.1165 -0.1157
  592CHOL    R3 5343   4.726  12.429   8.613 -0.1964 -0.0385 -0.0239
  592CHOL    R4 5344   4.670  12.320   8.346  0.0449 -0.1024 -0.0497
  592CHOL    R5 5345   4.867  12.353   8.435 -0.0328  0.0067  0.0846
  592CHOL    C1 5346   4.896  12.573   8.124  0.0777 -0.0212  0.0749
  592CHOL    C2 5347   5.002  12.685   7.809 -0.0710 -0.0242 -0.1805
  593CHOL   ROH 5348   6.161  14.974   4.630  0.0851 -0.2156 -0.0354
  593CHOL    R1 5349   6.274  14.932   4.887 -0.0420 -0.0896  0.0425
  593CHOL    R2 5350   6.363  15.139   5.046 -0.0163 -0.0189 -0.0642
  593CHOL    R3 5351   6.195  15.028   5.229 -0.1434  0.1835 -0.0541
  593CHOL    R4 5352   6.407  15.153   5.389  0.0479 -0.1067 -0.0685
  593CHOL    R5 5353   6.341  14.946   5.401 -0.2257 -0.0254 -0.0803
  593CHOL    C1 5354   6.275  15.056   5.760 -0.0339  0.0321 -0.0615
  593CHOL    C2 5355   6.158  15.011   6.254  0.0582  0.2457  0.0806
  594CHOL   ROH 5356   3.677   6.549   5.555  0.0530 -0.1081 -0.0149
  594CHOL    R1 5357   3.748   6.401   5.785  0.1050 -0.0947 -0.0217
  594CHOL    R2 5358   4.002   6.408   5.894  0.1029 -0.0071 -0.0176
  594CHOL    R3 5359   3.869   6.476   6.121  0.0741 -0.0675 -0.0169
  594CHOL    R4 5360   4.069   6.279   6.208  0.3753  0.2531  0.0353
  594CHOL    R5 5361   3.854   6.271   6.244  0.3941 -0.0251  0.1007
  594CHOL    C1 5362   3.982   6.268   6.603  0.5069  0.3479  0.0666
  594CHOL    C2 5363   3.759   6.347   6.855 -0.1059  0.0181 -0.0051
  595CHOL   ROH 5364  15.151   1.114   4.340 -0.0018  0.1173  0.0858
  595CHOL    R1 5365  15.118   1.184   4.612 -0.0685  0.1457  0.0701
  595CHOL    R2 5366  15.320   1.160   4.798 -0.1517  0.0491  0.1464
  595CHOL    R3 5367  15.266   1.422   4.844 -0.0338  0.0795  0.1174
  595CHOL    R4 5368  15.431   1.339   5.072 -0.3830 -0.0782  0.3269
  595CHOL    R5 5369  15.236   1.436   5.081 -0.3360  0.0548  0.0861
  595CHOL    C1 5370  15.445   1.690   5.275 -0.4072 -0.1238  0.4047
  595CHOL    C2 5371  15.382   1.962   5.599  0.0962 -0.3207 -0.0174
  596CHOL   ROH 5372  12.965   1.333   4.168  0.0011 -0.0645 -0.1450
  596CHOL    R1 5373  13.074   1.372   4.426  0.0694  0.0615 -0.1918
  596CHOL    R2 5374  12.921   1.453   4.642  0.1250  0.1591 -0.1892
  596CHOL    R3 5375  13.025   1.230   4.758  0.1625  0.2171 -0.1101
  596CHOL    R4 5376  12.932   1.394   4.982 -0.0373  0.1992 -0.1764
  596CHOL    R5 5377  13.131   1.311   4.957  0.0165  0.2866 -0.0580
  596CHOL    C1 5378  13.035   1.151   5.289 -0.0964  0.2771 -0.0948
  596CHOL    C2 5379  12.807   1.339   5.534  0.0036 -0.2149 -0.0380
  597PNCE   AM1 5380  10.143  12.396   8.701 -0.0421 -0.1393  0.3107
  597PNCE   AM2 5381  10.515  12.356   8.682 -0.2941  0.0617 -0.2806
  597PNCE   T1A 5382   9.734  12.553   8.489  0.0649 -0.0753  0.1400
  597PNCE   C2A 5383   9.683  12.642   8.114  0.0562  0.2221 -0.3573
  597PNCE   C3A 5384   9.920  12.909   7.811  0.1149 -0.0930 -0.1754
  597PNCE   C1B 5385  10.379  12.362   8.196 -0.0861  0.3254  0.0870
  597PNCE   C2B 5386  10.397  12.555   7.785 -0.1032  0.2366  0.2950
  597PNCE   C3B 5387  10.585  12.429   7.389 -0.2152  0.0764  0.0428
  597PNCE   D4B 5388  10.750  12.246   7.036  0.2769 -0.0353 -0.4982
  597PNCE   C5B 5389  10.562  11.969   6.853  0.1944 -0.1230  0.1800
  597PNCE   C6B 5390  10.213  11.770   6.732  0.1399 -0.2963  0.2708
  598XCA    COO 5391   1.565   1.361   7.639 -0.0889 -0.3535  0.1133
  598XCA     C1 5392   1.565   1.772   7.383  0.0088 -0.1205  0.1655
  598XCA     C2 5393   1.233   2.121   7.420  0.1615  0.4820 -0.0319
  598XCA     C3 5394   1.299   2.574   7.468  0.0536 -0.0367 -0.0089
  598XCA     C4 5395   1.283   2.990   7.256  0.0080  0.0846  0.1103
  598XCA     C5 5396   1.355   3.074   6.849  0.1482 -0.0767  0.0949
  598XCA     C6 5397   1.372   2.894   6.515 -0.2410  0.2033  0.1229
  599CHOL   ROH 5398   2.231   0.534   4.459 -0.0559  0.0594 -0.0146
  599CHOL    R1 5399   2.193   0.571   4.737  0.0351  0.0509 -0.0001
  599CHOL    R2 5400   2.216   0.364   4.919  0.0717  0.0392 -0.0140
  599CHOL    R3 5401   2.394   0.531   5.038  0.1267  0.0164 -0.0657
  599CHOL    R4 5402   2.235   0.423   5.259  0.0514  0.1845 -0.0383
  599CHOL    R5 5403   2.270   0.633   5.216  0.1474  0.1492 -0.1282
  599CHOL    C1 5404   2.413   0.615   5.569  0.0912  0.2477 -0.1010
  599CHOL    C2 5405   2.259   0.928   5.850 -0.0337 -0.2573 -0.2173
  600PNCE   AM1 5406  15.445   7.318   8.456 -0.0298  0.0051  0.0862
  600PNCE   AM2 5407  15.657   7.451   8.622 -0.2166  0.3394  0.2208
  600PNCE   T1A 5408  15.438   7.123   8.068 -0.4363 -0.3000  0.1198
  600PNCE   C2A 5409  15.433   6.649   7.844 -0.0201 -0.2331 -0.0528
  600PNCE   C3A 5410  15.683   6.416   7.716  0.0931  0.1423  0.2242
  600PNCE   C1B 5411  16.056   7.509   8.534 -0.0363  0.2165 -0.0676
  600PNCE   C2B 5412  16.584   7.344   8.521  0.0457 -0.2825  0.1740
  600PNCE   C3B 5413  16.753   6.983   8.711  0.2570 -0.0084 -0.1214
  600PNCE   D4B 5414  17.263   6.918   8.760  0.1712  0.1301 -0.2389
  600PNCE   C5B 5415  17.345   6.732   8.358  0.0958  0.0761  0.3346
  600PNCE   C6B 5416  17.479   6.480   8.066  0.0353  0.2329  0.1444
  601XCA    COO 5417  12.667  14.164   3.813  0.3804 -0.1115 -0.0289
  601XCA     C1 5418  12.493  14.013   4.307  0.0965 -0.1919  0.2031
  601XCA     C2 5419  12.432  13.774   4.689  0.1217  0.0750  0.0929
  601XCA     C3 5420  12.485  13.995   5.118  0.2096  0.2463  0.0800
  601XCA     C4 5421  12.617  14.351   5.230 -0.2994 -0.0971 -0.0587
  601XCA     C5 5422  12.981  14.535   4.999 -0.3749 -0.2112  0.2222
  601XCA     C6 5423  13.185  14.661   5.313 -0.3387 -0.1788  0.0098
  602CHOL   ROH 5424   9.625   6.840   5.179 -0.0397  0.0124 -0.0548
  602CHOL    R1 5425   9.770   6.755   5.406 -0.1611  0.0009  0.0192
  602CHOL    R2 5426   9.712   6.520   5.539 -0.0895 -0.1208 -0.1597
  602CHOL    R3 5427   9.976   6.468   5.496 -0.0095  0.1115  0.0287
  602CHOL    R4 5428   9.915   6.335   5.750 -0.2196 -0.4006 -0.2756
  602CHOL    R5 5429  10.075   6.478   5.714 -0.2550 -0.2349  0.1652
  602CHOL    C1 5430  10.280   6.178   5.832 -0.2203 -0.3455 -0.1662
  602CHOL    C2 5431  10.136   6.138   6.163 -0.0386 -0.0023 -0.0455
  603PNCE   AM1 5432   5.763   5.276   9.262  0.2908 -0.2518  0.0338
  603PNCE   AM2 5433   5.440   5.222   9.154  0.2182 -0.1631 -0.0483
  603PNCE   T1A 5434   5.834   5.110   8.778 -0.0453  0.3253  0.2739
  603PNCE   C2A 5435   5.798   4.892   8.600  0.0144 -0.1732 -0.2841
  603PNCE   C3A 5436   5.792   4.507   8.262  0.0804  0.0881  0.3768
  603PNCE   C1B 5437   5.371   4.986   8.850 -0.0001 -0.0676 -0.2388
  603PNCE   C2B 5438   5.335   4.698   8.552 -0.0293 -0.0762  0.0984
  603PNCE   C3B 5439   5.273   4.596   8.230 -0.1496 -0.1089  0.1341
  603PNCE   D4B 5440   5.202   4.750   7.792  0.0436  0.0957 -0.3137
  603PNCE   C5B 5441   5.337   5.080   7.519  0.0553  0.2895  0.0631
  603PNCE   C6B 5442   5.254   5.450   7.412  0.2455 -0.0809  0.0215
  604XCA    COO 5443   8.416  13.458   9.364 -0.0161  0.0363 -0.0890
  604XCA     C1 5444   8.500  13.331   8.964  0.1381 -0.0707  0.2275
  604XCA     C2 5445   8.460  13.282   8.451  0.0397  0.1768  0.1876
  604XCA     C3 5446   8.672  13.222   8.119 -0.1295  0.1727  0.1524
  604XCA     C4 5447   8.994  12.916   7.948 -0.1042 -0.1256  0.0384
  604XCA     C5 5448   9.150  12.601   7.898  0.2352 -0.0393  0.1414
  604XCA     C6 5449   9.220  12.261   7.640 -0.1367  0.0812  0.4442
  605PNCE   AM1 5450  12.619  11.148   8.322 -0.1998 -0.1893 -0.0812
  605PNCE   AM2 5451  12.530  10.824   8.283 -0.0151 -0.0632 -0.2184
  605PNCE   T1A 5452  12.731  11.293   7.847 -0.0294 -0.1012 -0.1438
  605PNCE   C2A 5453  12.692  11.586   7.543 -0.1996 -0.0971  0.3362
  605PNCE   C3A 5454  12.466  11.942   7.225  0.1111  0.1037  0.0004
  605PNCE   C1B 5455  12.425  10.345   7.992  0.1471 -0.2655  0.0805
  605PNCE   C2B 5456  12.361  10.065   7.621 -0.0457 -0.0711  0.0428
  605PNCE   C3B 5457  11.881  10.222   7.422 -0.1334 -0.0533  0.0366
  605PNCE   D4B 5458  11.640  10.100   7.134 -0.2546 -0.3820 -0.1572
  605PNCE   C5B 5459  11.137  10.114   7.188  0.0439 -0.0611 -0.3223
  605PNCE   C6B 5460  10.888   9.809   7.156 -0.1830  0.0795 -0.1393
  606CHOL   ROH 5461  11.058   0.611   8.253 -0.4658  0.2693  0.1720
  606CHOL    R1 5462  10.933   0.818   8.107 -0.2435  0.3113  0.0381
  606CHOL    R2 5463  11.041   0.923   7.875 -0.1230  0.0541 -0.0219
  606CHOL    R3 5464  10.798   0.861   7.772 -0.1860  0.2466  0.0053
  606CHOL    R4 5465  10.959   0.940   7.540 -0.0646 -0.1095 -0.0460
  606CHOL    R5 5466  10.765   1.021   7.597  0.0147  0.1558 -0.1237
  606CHOL    C1 5467  10.682   0.892   7.248 -0.0898 -0.0239 -0.0344
  606CHOL    C2 5468  10.768   0.769   6.822 -0.2398 -0.0641  0.2262
  607XCA    COO 5469  12.874   0.779   3.297  0.1055  0.0819 -0.2155
  607XCA     C1 5470  12.604   0.618   3.625  0.0699 -0.0158 -0.3360
  607XCA     C2 5471  12.423   0.557   4.063  0.1487  0.2477  0.0284
  607XCA     C3 5472  12.282   0.104   4.342  0.2336 -0.0342  0.0606
  607XCA     C4 5473  12.079  -0.183   4.654  0.2082  0.1389  0.1550
  607XCA     C5 5474  12.020  -0.403   5.005 -0.0654  0.1013  0.2423
  607XCA     C6 5475  12.170  -0.444   5.375 -0.1217 -0.0462  0.0790
  608XCA    COO 5476   9.435   3.665   5.078  0.0134 -0.1218  0.0875
  608XCA     C1 5477   9.107   3.614   5.388 -0.0446 -0.0096 -0.3149
  608XCA     C2 5478   8.727   3.408   5.581  0.0339  0.0765 -0.2283
  608XCA     C3 5479   8.443   3.427   5.968 -0.0871  0.0340  0.0628
  608XCA     C4 5480   8.380   3.179   6.258  0.1623  0.0810 -0.3646
  608XCA     C5 5481   8.280   3.197   6.710  0.0028 -0.0597  0.0512
  608XCA     C6 5482   7.973   3.104   7.169 -0.1602 -0.0973 -0.4031
  609XCA    COO 5483   7.361   4.814   4.523 -0.2877 -0.2713  0.1092
  609XCA     C1 5484   7.565   4.667   4.796 -0.3800 -0.0757 -0.1344
  609XCA     C2 5485   7.476   4.341   5.118 -0.0518  0.2371 -0.1872
  609XCA     C3 5486   7.353   4.225   5.417 -0.1087  0.1765 -0.2076
  609XCA     C4 5487   7.187   4.142   5.808 -0.0265  0.2009  0.0954
  609XCA     C5 5488   6.886   4.256   6.050  0.1141 -0.0067  0.1764
  609XCA     C6 5489   6.767   4.649   6.314 -0.0696  0.0370 -0.1001
  610CHOL   ROH 5490  11.070  14.747   7.113 -0.3098  0.0674  0.2468
  610CHOL    R1 5491  10.830  14.708   6.967 -0.2448  0.2450  0.0881
  610CHOL    R2 5492  10.765  14.859   6.746  0.1270  0.1375 -0.1031
  610CHOL    R3 5493  10.740  14.615   6.627 -0.0844  0.0602  0.0940
  610CHOL    R4 5494  10.633  14.805   6.431  0.0742 -0.0041 -0.0573
  610CHOL    R5 5495  10.532  14.628   6.509 -0.0771  0.1431  0.0895
  610CHOL    C1 5496  10.533  14.545   6.136 -0.1550 -0.1590  0.1543
  610CHOL    C2 5497  10.600  14.617   5.754  0.0455 -0.0378 -0.0396
  611CHOL   ROH 5498   6.727   5.720   5.152 -0.0487 -0.0539 -0.0711
  611CHOL    R1 5499   6.671   5.675   5.426  0.0335 -0.1183 -0.0645
  611CHOL    R2 5500   6.795   5.476   5.572  0.1932 -0.0526 -0.1082
  611CHOL    R3 5501   6.858   5.682   5.738  0.0903 -0.0272 -0.1001
  611CHOL    R4 5502   6.837   5.449   5.914  0.0921 -0.0222 -0.0931
  611CHOL    R5 5503   6.732   5.638   5.938  0.0380 -0.0463 -0.1370
  611CHOL    C1 5504   6.920   5.626   6.269 -0.0632  0.0194 -0.0766
  611CHOL    C2 5505   6.702   5.871   6.460 -0.0567  0.1517  0.0561
  612CHOL   ROH 5506   2.286   6.103   5.410 -0.3960  0.0297 -0.0343
  612CHOL    R1 5507   2.213   6.081   5.683 -0.0943 -0.0026  0.0474
  612CHOL    R2 5508   2.394   6.016   5.882  0.1457  0.0732 -0.1502
  612CHOL    R3 5509   2.302   6.245   5.995  0.1708  0.0321 -0.0422
  612CHOL    R4 5510   2.350   6.066   6.221 -0.0168 -0.1574 -0.1334
  612CHOL    R5 5511   2.166   6.172   6.177  0.0404 -0.0533 -0.1647
  612CHOL    C1 5512   2.239   6.311   6.524 -0.0878 -0.3303 -0.0223
  612CHOL    C2 5513   2.069   6.206   6.856  0.0068  0.4250  0.1054
  613CHOL   ROH 5514   7.063   9.926   8.713 -0.0545  0.1070  0.0360
  613CHOL    R1 5515   7.018  10.053   8.464  0.0350  0.1563  0.0441
  613CHOL    R2 5516   7.185  10.018   8.246  0.0125  0.0541  0.0416
  613CHOL    R3 5517   6.953   9.948   8.121 -0.0373  0.2233  0.0373
  613CHOL    R4 5518   7.108  10.091   7.917  0.0088  0.2312  0.0808
  613CHOL    R5 5519   6.904  10.134   7.980  0.0389  0.3075  0.1218
  613CHOL    C1 5520   6.847  10.068   7.608 -0.0401  0.4931  0.0997
  613CHOL    C2 5521   6.845  10.079   7.207  0.0839  0.1323 -0.3724
  614CHOL   ROH 5522  14.942  14.203   4.565 -0.1072 -0.0074 -0.0639
  614CHOL    R1 5523  14.864  14.011   4.758 -0.1529  0.0435 -0.0325
  614CHOL    R2 5524  15.000  13.976   4.996 -0.0555 -0.0695 -0.1084
  614CHOL    R3 5525  14.754  14.015   5.105  0.0299  0.1104  0.0275
  614CHOL    R4 5526  14.902  13.864   5.309 -0.0480 -0.2679 -0.1751
  614CHOL    R5 5527  14.708  13.811   5.224 -0.1512  0.0372 -0.1543
  614CHOL    C1 5528  14.614  13.836   5.592  0.0365 -0.2146 -0.0863
  614CHOL    C2 5529  14.465  13.901   5.950 -0.2425  0.1582 -0.1857
  615PNCE   AM1 5530   5.672  14.412   9.667 -0.1343  0.1886  0.2445
  615PNCE   AM2 5531   5.388  14.297   9.646  0.1263 -0.1063 -0.3728
  615PNCE   T1A 5532   5.828  14.434   9.260  0.3963 -0.1437  0.3481
  615PNCE   C2A 5533   6.164  14.243   9.006  0.5099 -0.1678 -0.4091
  615PNCE   C3A 5534   6.174  13.962   8.793 -0.1055  0.4936  0.0851
  615PNCE   C1B 5535   5.452  14.166   9.200 -0.4628  0.0731  0.2966
  615PNCE   C2B 5536   5.608  13.988   8.785  0.0006  0.1248  0.1319
  615PNCE   C3B 5537   5.578  14.064   8.349  0.1567 -0.3860 -0.0151
  615PNCE   D4B 5538   5.665  14.148   7.887 -0.1600  0.0607  0.0004
  615PNCE   C5B 5539   5.516  13.817   7.545  0.2546  0.1027  0.1969
  615PNCE   C6B 5540   5.355  13.853   7.184 -0.1586 -0.0478  0.0475
  616CHOL   ROH 5541   2.469  11.566   8.612 -0.1041 -0.1324 -0.1200
  616CHOL    R1 5542   2.422  11.387   8.398 -0.3623 -0.1011 -0.0936
  616CHOL    R2 5543   2.189  11.390   8.249 -0.2977  0.3234 -0.2048
  616CHOL    R3 5544   2.362  11.411   8.040 -0.1468 -0.0691 -0.1283
  616CHOL    R4 5545   2.118  11.296   7.924 -0.3225  0.3798 -0.2151
  616CHOL    R5 5546   2.320  11.215   7.909 -0.4681 -0.0250 -0.0961
  616CHOL    C1 5547   2.238  11.261   7.539 -0.1953  0.0439 -0.1492
  616CHOL    C2 5548   2.085  10.979   7.404  0.0675 -0.0656  0.1019
  617CHOL   ROH 5549  15.119   9.397   7.410  0.0306  0.0912 -0.2972
  617CHOL    R1 5550  15.135   9.236   7.178  0.0965 -0.0089 -0.2251
  617CHOL    R2 5551  15.086   9.336   6.925  0.1172 -0.1287 -0.2792
  617CHOL    R3 5552  15.332   9.233   6.872  0.1449 -0.1060 -0.1924
  617CHOL    R4 5553  15.237   9.333   6.614  0.2124 -0.1535 -0.2325
  617CHOL    R5 5554  15.310   9.132   6.656  0.2235 -0.1372 -0.1846
  617CHOL    C1 5555  15.556   9.234   6.383  0.2938 -0.1467 -0.1239
  617CHOL    C2 5556  15.948   9.366   6.270  0.0753  0.1301 -0.3573
  618CHOL   ROH 5557   2.397   4.554   8.722  0.0048  0.0538  0.0633
  618CHOL    R1 5558   2.293   4.549   8.459  0.0289  0.0736  0.0556
  618CHOL    R2 5559   2.115   4.737   8.365 -0.0105  0.0347  0.0809
  618CHOL    R3 5560   2.298   4.766   8.167 -0.0110  0.1262  0.0904
  618CHOL    R4 5561   2.042   4.847   8.046 -0.0215  0.2346  0.1490
  618CHOL    R5 5562   2.182   4.697   7.969 -0.0386  0.2534  0.0528
  618CHOL    C1 5563   2.173   4.939   7.673 -0.0284  0.4370  0.1977
  618CHOL    C2 5564   2.029   5.165   7.495 -0.3048 -0.3046 -0.0255
  619CHOL   ROH 5565   1.008  13.682   8.385 -0.1080  0.0655 -0.0228
  619CHOL    R1 5566   1.038  13.486   8.183  0.0623  0.0793 -0.0155
  619CHOL    R2 5567   0.823  13.349   8.074  0.1775 -0.1816  0.0450
  619CHOL    R3 5568   0.926  13.441   7.840  0.0185 -0.0687  0.0216
  619CHOL    R4 5569   0.707  13.266   7.759  0.0681 -0.1166  0.0700
  619CHOL    R5 5570   0.912  13.255   7.691  0.0243 -0.0106 -0.0346
  619CHOL    C1 5571   0.736  13.304   7.356 -0.1448  0.0271  0.0627
  619CHOL    C2 5572   0.645  13.088   7.042 -0.0514 -0.0147 -0.1761
  620PNCE   AM1 5573  13.033  13.661   7.712 -0.0057  0.0697  0.2809
  620PNCE   AM2 5574  12.874  13.284   7.725 -0.0140 -0.1443 -0.2986
  620PNCE   T1A 5575  13.288  13.358   7.374  0.2091 -0.1134 -0.3375
  620PNCE   C2A 5576  13.195  13.047   7.091  0.3046 -0.1841  0.1652
  620PNCE   C3A 5577  13.045  13.010   6.689 -0.3917  0.1212 -0.0880
  620PNCE   C1B 5578  12.762  12.998   7.399 -0.2389 -0.0881 -0.0896
  620PNCE   C2B 5579  12.592  12.981   6.981 -0.0025  0.2399  0.2352
  620PNCE   C3B 5580  12.333  12.683   6.798 -0.0096  0.0079  0.0901
  620PNCE   D4B 5581  12.182  12.467   6.452  0.0896  0.1517  0.1727
  620PNCE   C5B 5582  12.465  12.122   6.325 -0.1509 -0.1856 -0.0253
  620PNCE   C6B 5583  12.866  11.995   6.480 -0.0622 -0.0991  0.0558
  621XCA    COO 5584   3.896   5.109   8.831 -0.0065  0.2744 -0.0849
  621XCA     C1 5585   4.047   5.510   8.630  0.2449 -0.0622  0.0333
  621XCA     C2 5586   4.029   5.824   8.327 -0.3903 -0.0096  0.0445
  621XCA     C3 5587   3.708   5.815   8.056  0.2778  0.0869  0.1092
  621XCA     C4 5588   3.497   5.967   7.823 -0.3100 -0.0180  0.0120
  621XCA     C5 5589   3.488   6.291   7.435  0.1520  0.0628  0.0579
  621XCA     C6 5590   3.398   6.673   7.337 -0.2770 -0.1258  0.0094
  622PNCE   AM1 5591  14.814   2.344   8.014  0.4632 -0.1744  0.0067
  622PNCE   AM2 5592  15.074   2.339   8.175  0.0312 -0.2926  0.1133
  622PNCE   T1A 5593  14.741   2.393   7.622  0.1809 -0.0362 -0.0024
  622PNCE   C2A 5594  14.811   2.623   7.292  0.2366 -0.2817  0.0329
  622PNCE   C3A 5595  14.488   2.676   6.910 -0.0136 -0.1700  0.2359
  622PNCE   C1B 5596  15.279   2.196   7.744  0.2211  0.1038 -0.1967
  622PNCE   C2B 5597  15.602   2.251   7.443  0.3169  0.0266  0.2284
  622PNCE   C3B 5598  15.886   2.055   7.172 -0.1064 -0.0535 -0.0192
  622PNCE   D4B 5599  16.218   2.061   6.812 -0.3046 -0.2489 -0.2359
  622PNCE   C5B 5600  16.516   1.761   6.907 -0.1555 -0.0623 -0.0845
  622PNCE   C6B 5601  16.829   1.457   6.941 -0.1285  0.0643  0.1956
  623CHOL   ROH 5602  10.259  12.504   6.260  0.0264 -0.0012  0.3600
  623CHOL    R1 5603  10.481  12.503   6.435  0.0566 -0.2268  0.3235
  623CHOL    R2 5604  10.610  12.271   6.510  0.1537 -0.3201 -0.1005
  623CHOL    R3 5605  10.830  12.401   6.418  0.0905 -0.0781  0.0826
  623CHOL    R4 5606  10.937  12.171   6.565  0.2034 -0.2539 -0.2683
  623CHOL    R5 5607  10.990  12.380   6.596  0.1081 -0.2710  0.0442
  623CHOL    C1 5608  11.333  12.235   6.512  0.1729  0.0119 -0.1941
  623CHOL    C2 5609  11.640  12.158   6.269 -0.1782 -0.2671  0.0723
  624XCA    COO 5610   7.454  11.459   9.047  0.0662  0.0065  0.2162
  624XCA     C1 5611   7.385  11.837   8.887  0.2838 -0.0352  0.0119
  624XCA     C2 5612   7.137  12.094   8.563  0.0052  0.0919  0.2111
  624XCA     C3 5613   6.886  12.544   8.387 -0.1337 -0.1062  0.2550
  624XCA     C4 5614   6.891  12.861   8.088  0.2860  0.0750  0.0030
  624XCA     C5 5615   7.155  13.217   7.901  0.3278 -0.0517  0.1752
  624XCA     C6 5616   7.305  13.669   7.982 -0.2839 -0.0115 -0.1839
  625XCA    COO 5617   1.473   7.762   9.100  0.0904  0.1178  0.0223
  625XCA     C1 5618   1.459   7.850   8.583  0.0954 -0.3734 -0.2678
  625XCA     C2 5619   1.586   7.800   8.072 -0.1493 -0.2005 -0.2023
  625XCA     C3 5620   1.685   7.481   7.838  0.1817  0.0998  0.1212
  625XCA     C4 5621   1.366   7.349   7.747 -0.4138 -0.2249 -0.0605
  625XCA     C5 5622   0.981   7.133   7.537 -0.0085  0.1733 -0.0291
  625XCA     C6 5623   0.562   7.057   7.744 -0.0866  0.3131 -0.4387
  626CHOL   ROH 5624  14.057   3.949   4.065  0.2737 -0.2015 -0.0433
  626CHOL    R1 5625  14.071   3.786   4.296  0.1887 -0.1637 -0.0106
  626CHOL    R2 5626  14.311   3.701   4.404  0.1547 -0.0789  0.1413
  626CHOL    R3 5627  14.212   3.813   4.631 -0.0106 -0.0718  0.0665
  626CHOL    R4 5628  14.416   3.625   4.724  0.0619  0.0842  0.2114
  626CHOL    R5 5629  14.209   3.634   4.789  0.0308 -0.0234  0.1190
  626CHOL    C1 5630  14.384   3.686   5.124 -0.1473  0.1859  0.1820
  626CHOL    C2 5631  14.362   3.634   5.465  0.2055  0.3436  0.0678
  627CHOL   ROH 5632   8.144  15.549   8.395 -0.2143  0.1283 -0.1190
  627CHOL    R1 5633   8.125  15.300   8.262 -0.1265  0.0425  0.0235
  627CHOL    R2 5634   7.895  15.148   8.264 -0.1250  0.0292 -0.0118
  627CHOL    R3 5635   7.924  15.158   7.994  0.0293 -0.1302 -0.0021
  627CHOL    R4 5636   7.797  14.898   8.046  0.1376 -0.1582  0.0800
  627CHOL    R5 5637   7.980  14.933   7.932  0.1833 -0.1373  0.1693
  627CHOL    C1 5638   7.766  14.763   7.665  0.4354 -0.4167  0.1427
  627CHOL    C2 5639   7.455  14.514   7.672  0.2807  0.2252 -0.0826
  628CHOL   ROH 5640  11.006  15.102   5.892 -0.1441 -0.0119  0.0448
  628CHOL    R1 5641  10.932  14.990   5.643 -0.0270 -0.0209  0.0144
  628CHOL    R2 5642  10.807  15.137   5.444  0.0669 -0.0302 -0.0464
  628CHOL    R3 5643  11.014  15.046   5.293  0.1357 -0.0356  0.0484
  628CHOL    R4 5644  10.788  15.062   5.107  0.2552  0.1323 -0.0957
  628CHOL    R5 5645  10.914  14.888   5.144  0.1709  0.0666 -0.0902
  628CHOL    C1 5646  10.971  14.933   4.769  0.4294  0.2218 -0.0356
  628CHOL    C2 5647  11.116  14.786   4.411 -0.3316 -0.1724 -0.2251
  629XCA    COO 5648  10.616  15.551   3.797 -0.3403  0.2688 -0.2895
  629XCA     C1 5649  10.418  15.871   4.193 -0.1063  0.1870  0.0338
  629XCA     C2 5650  10.616  16.084   4.532  0.2814  0.1293  0.2469
  629XCA     C3 5651  10.823  16.249   4.796 -0.0818 -0.2918  0.0546
  629XCA     C4 5652  11.078  16.581   4.704 -0.3345  0.3484 -0.1179
  629XCA     C5 5653  11.276  16.903   4.983 -0.4377  0.0240  0.1613
  629XCA     C6 5654  11.601  16.926   5.339  0.0060 -0.1105 -0.1537
  630PNCE   AM1 5655   1.400  11.521   8.249 -0.0444 -0.2216  0.0113
  630PNCE   AM2 5656   1.477  11.375   8.501 -0.3435 -0.0811 -0.2240
  630PNCE   T1A 5657   1.209  11.247   7.961  0.0807  0.0187 -0.2169
  630PNCE   C2A 5658   1.028  11.148   7.560 -0.0780  0.2873  0.0823
  630PNCE   C3A 5659   0.737  11.211   7.302  0.3908  0.3000 -0.0633
  630PNCE   C1B 5660   1.793  11.152   8.248 -0.1525 -0.0763 -0.2486
  630PNCE   C2B 5661   1.772  10.961   7.900 -0.1801 -0.5469 -0.2018
  630PNCE   C3B 5662   1.880  10.627   7.726  0.2369 -0.1393 -0.0860
  630PNCE   D4B 5663   1.915  10.380   7.280 -0.1123 -0.0396  0.3970
  630PNCE   C5B 5664   1.416  10.364   7.128  0.0491  0.2619 -0.3322
  630PNCE   C6B 5665   1.086  10.795   7.095 -0.0481  0.3825 -0.2705
  631PNCE   AM1 5666   0.055  14.400   8.079 -0.2731  0.0084  0.0572
  631PNCE   AM2 5667  -0.158  14.656   8.111 -0.1022 -0.4673 -0.0086
  631PNCE   T1A 5668   0.226  14.136   7.820 -0.1349 -0.0372 -0.4176
  631PNCE   C2A 5669   0.338  14.009   7.407 -0.0353  0.0755 -0.3039
  631PNCE   C3A 5670   0.260  13.621   7.297  0.1411 -0.0059 -0.0060
  631PNCE   C1B 5671  -0.169  14.833   7.678  0.3155  0.3725  0.1928
  631PNCE   C2B 5672  -0.166  14.815   7.201  0.0359 -0.0503 -0.1403
  631PNCE   C3B 5673   0.112  15.056   6.935  0.2352 -0.0147  0.2783
  631PNCE   D4B 5674   0.050  15.411   6.612  0.1480  0.3380  0.1650
  631PNCE   C5B 5675  -0.253  15.777   6.584 -0.0597  0.0622  0.0018
  631PNCE   C6B 5676  -0.513  15.969   6.821  0.0967 -0.3161  0.3175
  632CHOL   ROH 5677   9.476   7.511   8.277 -0.0102  0.1938 -0.1365
  632CHOL    R1 5678   9.477   7.383   8.024 -0.0937 -0.0685 -0.0102
  632CHOL    R2 5679   9.314   7.167   7.965 -0.3101  0.0280  0.1792
  632CHOL    R3 5680   9.238   7.324   7.757 -0.1094 -0.0934  0.0129
  632CHOL    R4 5681   9.153   7.056   7.681 -0.1297 -0.1058  0.1292
  632CHOL    R5 5682   9.276   7.190   7.563 -0.0075 -0.2278  0.1322
  632CHOL    C1 5683   8.987   7.138   7.320  0.1638 -0.2976 -0.0560
  632CHOL    C2 5684   8.768   7.292   6.983 -0.1348  0.0903  0.2172
  633CHOL   ROH 5685   7.774  15.767   4.520 -0.0180 -0.0718  0.1059
  633CHOL    R1 5686   8.017  15.856   4.635  0.0330 -0.1679  0.0744
  633CHOL    R2 5687   8.040  15.924   4.902  0.0515 -0.0109  0.0348
  633CHOL    R3 5688   8.242  15.743   4.898 -0.0752 -0.1581  0.1719
  633CHOL    R4 5689   8.239  15.845   5.173  0.1886  0.2821  0.0237
  633CHOL    R5 5690   8.410  15.839   5.039  0.0917 -0.0450 -0.0962
  633CHOL    C1 5691   8.545  15.628   5.327  0.1494  0.3146  0.1459
  633CHOL    C2 5692   8.476  15.872   5.614  0.1714  0.3765 -0.1054
  634CHOL   ROH 5693  13.887  10.274   4.554  0.2104  0.2015 -0.2182
  634CHOL    R1 5694  13.862  10.504   4.717  0.2369  0.1542 -0.1465
  634CHOL    R2 5695  13.786  10.491   4.983 -0.0032  0.0995 -0.2155
  634CHOL    R3 5696  14.016  10.631   5.022  0.0676 -0.0816  0.0415
  634CHOL    R4 5697  13.845  10.704   5.249 -0.2269  0.2271 -0.2657
  634CHOL    R5 5698  13.943  10.841   5.111  0.1128  0.0472 -0.2149
  634CHOL    C1 5699  14.095  10.959   5.440 -0.2908  0.1313 -0.0537
  634CHOL    C2 5700  14.201  11.001   5.787 -0.0399  0.3676  0.2157
  635PNCE   AM1 5701  10.547   9.433   4.927 -0.1185 -0.1408 -0.2220
  635PNCE   AM2 5702  10.474   9.757   5.100 -0.2480 -0.2468  0.3144
  635PNCE   T1A 5703  10.707   9.300   5.279 -0.1832 -0.0156 -0.2958
  635PNCE   C2A 5704  10.637   9.079   5.667  0.0844 -0.1811  0.1220
  635PNCE   C3A 5705  10.643   9.159   6.065 -0.4141  0.1213 -0.0382
  635PNCE   C1B 5706  10.496   9.700   5.567  0.1390 -0.6076  0.0334
  635PNCE   C2B 5707  10.542   9.592   5.942 -0.0705 -0.2033  0.4288
  635PNCE   C3B 5708  10.529   9.531   6.418  0.2852 -0.2402  0.0558
  635PNCE   D4B 5709  10.604   9.227   6.734  0.1438  0.0063 -0.1216
  635PNCE   C5B 5710  10.748   9.315   7.194 -0.2686  0.0513  0.0016
  635PNCE   C6B 5711  10.880   9.295   7.636  0.0230  0.4175  0.0149
  636XCA    COO 5712   7.579   5.069   8.200 -0.1099 -0.1690  0.0755
  636XCA     C1 5713   7.994   5.103   7.977  0.0911 -0.1736  0.0970
  636XCA     C2 5714   8.346   5.160   7.723  0.1653  0.0093 -0.0069
  636XCA     C3 5715   8.642   4.971   7.422 -0.0554 -0.0968  0.1330
  636XCA     C4 5716   8.545   4.721   7.108  0.2477  0.0543 -0.0610
  636XCA     C5 5717   8.264   4.655   6.783 -0.0041 -0.1033  0.2954
  636XCA     C6 5718   7.994   4.379   6.628 -0.2134  0.2059  0.1108
  637PNCE   AM1 5719  10.982  13.907   3.408  0.3404 -0.1750  0.1177
  637PNCE   AM2 5720  10.729  13.795   3.497  0.0855 -0.3844  0.0146
  637PNCE   T1A 5721  11.227  13.853   3.956  0.1861  0.1803 -0.2105
  637PNCE   C2A 5722  11.294  13.837   4.422  0.2086 -0.4436  0.0190
  637PNCE   C3A 5723  11.414  14.014   4.803 -0.1977 -0.2519  0.1102
  637PNCE   C1B 5724  10.774  13.659   3.943 -0.1654 -0.1577 -0.2025
  637PNCE   C2B 5725  10.839  13.565   4.375  0.2046  0.3937  0.2616
  637PNCE   C3B 5726  10.929  13.533   4.735  0.2441 -0.0852  0.1704
  637PNCE   D4B 5727  10.832  13.173   4.866  0.3538  0.3892 -0.1147
  637PNCE   C5B 5728  10.624  13.209   5.317 -0.3044 -0.1465 -0.0770
  637PNCE   C6B 5729  10.724  12.958   5.645 -0.0725 -0.0922 -0.1117
  638CHOL   ROH 5730   1.720   5.594   8.692 -0.0072  0.0241  0.0261
  638CHOL    R1 5731   1.893   5.601   8.468 -0.0424  0.0387 -0.0006
  638CHOL    R2 5732   1.813   5.693   8.220 -0.1128 -0.0450 -0.0093
  638CHOL    R3 5733   2.028   5.857   8.247 -0.1685  0.0404 -0.0758
  638CHOL    R4 5734   1.954   5.877   7.964 -0.2548  0.0061 -0.0526
  638CHOL    R5 5735   2.151   5.827   8.043 -0.2136  0.0853 -0.1085
  638CHOL    C1 5736   2.239   6.137   7.839 -0.3896  0.1160 -0.1402
  638CHOL    C2 5737   2.317   6.310   7.411 -0.2268 -0.1779 -0.0334
  639XCA    COO 5738   5.914   6.554   5.285 -0.0985 -0.1868  0.1632
  639XCA     C1 5739   5.936   6.383   5.731 -0.1526 -0.0759 -0.1074
  639XCA     C2 5740   6.200   6.334   6.060  0.0459  0.2526 -0.0059
  639XCA     C3 5741   6.469   6.318   6.395 -0.0016  0.1704  0.0793
  639XCA     C4 5742   6.407   6.158   6.761 -0.2930  0.2115 -0.1210
  639XCA     C5 5743   6.372   6.318   7.104 -0.2068  0.4366 -0.1664
  639XCA     C6 5744   6.217   6.653   7.237 -0.1366 -0.0770 -0.2980
  640XCA    COO 5745   7.061   7.945   5.993 -0.0522  0.0149 -0.2002
  640XCA     C1 5746   7.211   8.173   6.329  0.2294  0.1074 -0.1677
  640XCA     C2 5747   7.166   8.558   6.518  0.2864  0.2686  0.1130
  640XCA     C3 5748   7.469   8.703   6.857  0.0630 -0.0442 -0.1438
  640XCA     C4 5749   7.667   8.832   7.239 -0.1152 -0.3341  0.0496
  640XCA     C5 5750   7.739   9.068   7.670 -0.3423 -0.1284 -0.0049
  640XCA     C6 5751   7.454   9.309   7.888 -0.2406 -0.0262 -0.1165
  641XCA    COO 5752   6.014   1.346   4.798  0.1523 -0.2071 -0.0116
  641XCA     C1 5753   6.032   1.382   5.179 -0.0697 -0.0349 -0.5206
  641XCA     C2 5754   6.087   1.611   5.451 -0.3560 -0.3960 -0.1775
  641XCA     C3 5755   6.228   1.489   5.848  0.2176 -0.1396 -0.1023
  641XCA     C4 5756   6.151   1.328   6.185  0.2853 -0.4446  0.0931
  641XCA     C5 5757   5.789   1.253   6.574  0.1362  0.3457 -0.3820
  641XCA     C6 5758   5.592   0.984   6.867  0.1178 -0.0296 -0.0236
  642PNCE   AM1 5759  11.634   7.135   4.451 -0.1617  0.1078  0.0497
  642PNCE   AM2 5760  11.438   7.447   4.482 -0.1244 -0.1505  0.1785
  642PNCE   T1A 5761  11.893   7.025   4.774 -0.2695 -0.1298  0.2030
  642PNCE   C2A 5762  12.133   6.625   4.810  0.1427  0.0653 -0.0637
  642PNCE   C3A 5763  12.221   6.236   4.956  0.1414 -0.1495 -0.0048
  642PNCE   C1B 5764  11.579   7.360   4.936  0.1680  0.3444 -0.0878
  642PNCE   C2B 5765  11.801   7.684   5.220 -0.1534  0.1645 -0.0211
  642PNCE   C3B 5766  11.974   8.076   5.355 -0.0192 -0.1960 -0.0594
  642PNCE   D4B 5767  12.269   8.131   5.644 -0.1274  0.0591 -0.0805
  642PNCE   C5B 5768  12.178   8.141   6.093  0.3292  0.3542 -0.1403
  642PNCE   C6B 5769  12.254   8.120   6.465  0.1805 -0.3128 -0.0924
  643CHOL   ROH 5770  14.575   6.414   8.674 -0.1900 -0.1221  0.0435
  643CHOL    R1 5771  14.606   6.220   8.470 -0.1176 -0.0538 -0.0106
  643CHOL    R2 5772  14.714   6.280   8.223  0.0077  0.0197  0.0637
  643CHOL    R3 5773  14.882   6.075   8.283 -0.0467 -0.0243  0.0688
  643CHOL    R4 5774  14.845   6.059   7.992  0.3604  0.3033 -0.0168
  643CHOL    R5 5775  14.814   5.898   8.136  0.1766  0.1299 -0.2364
  643CHOL    C1 5776  15.079   5.738   7.913  0.5147  0.4272 -0.0589
  643CHOL    C2 5777  15.145   5.265   7.877 -0.0278  0.0728  0.0429
  644PNCE   AM1 5778   8.243   8.719   5.282  0.2431  0.1528 -0.0841
  644PNCE   AM2 5779   8.425   8.817   5.013 -0.0940  0.0576  0.1968
  644PNCE   T1A 5780   8.391   8.787   5.704  0.0025  0.1787  0.0320
  644PNCE   C2A 5781   8.632   8.868   6.085  0.1133 -0.0723 -0.2998
  644PNCE   C3A 5782   8.628   8.766   6.470  0.0951  0.1433  0.2426
  644PNCE   C1B 5783   8.763   8.768   5.243  0.0663  0.0710 -0.3436
  644PNCE   C2B 5784   8.873   8.651   5.623  0.4984  0.1857  0.0620
  644PNCE   C3B 5785   9.060   8.621   6.133 -0.0748 -0.1519  0.2042
  644PNCE   D4B 5786   9.221   8.682   6.591 -0.0020  0.1168  0.1777
  644PNCE   C5B 5787   8.923   8.958   6.841 -0.0634  0.1486  0.0522
  644PNCE   C6B 5788   9.010   9.151   7.231  0.0474  0.1505 -0.2797
  645CHOL   ROH 5789   9.864  11.549   8.659  0.0767  0.2783  0.0245
  645CHOL    R1 5790   9.807  11.768   8.489  0.1505  0.3666  0.1124
  645CHOL    R2 5791   9.959  11.999   8.487  0.5539  0.1069 -0.1700
  645CHOL    R3 5792   9.976  11.947   8.221 -0.0106  0.0535 -0.2078
  645CHOL    R4 5793   9.959  12.239   8.238  0.4867  0.1013 -0.1751
  645CHOL    R5 5794   9.832  12.108   8.119  0.0505  0.2870  0.0519
  645CHOL    C1 5795   9.975  12.329   7.843 -0.0823  0.0478 -0.2135
  645CHOL    C2 5796  10.029  12.493   7.482 -0.2551  0.0876 -0.0990
  646PNCE   AM1 5797   9.472  10.047   5.362  0.5432 -0.1596  0.0808
  646PNCE   AM2 5798   9.118   9.829   5.167  0.1051  0.1625 -0.0425
  646PNCE   T1A 5799   9.426   9.857   5.841 -0.3087 -0.0636 -0.0029
  646PNCE   C2A 5800   9.421   9.769   6.359  0.0267 -0.1289  0.0205
  646PNCE   C3A 5801   9.649   9.663   6.742 -0.3358 -0.1758  0.1828
  646PNCE   C1B 5802   9.024   9.656   5.628 -0.0314 -0.1546  0.2652
  646PNCE   C2B 5803   8.962   9.552   6.097 -0.2105  0.1550 -0.2180
  646PNCE   C3B 5804   8.589   9.365   6.227  0.1288 -0.0894 -0.0445
  646PNCE   D4B 5805   8.158   9.411   6.263  0.2970 -0.4681  0.0762
  646PNCE   C5B 5806   7.984   9.537   6.676 -0.0093 -0.0078 -0.1421
  646PNCE   C6B 5807   8.037   9.201   7.018 -0.3135 -0.1394  0.0190
  647XCA    COO 5808   7.434  11.367   5.780 -0.1581 -0.3166 -0.0370
  647XCA     C1 5809   7.070  11.206   6.034  0.1874  0.1705  0.0366
  647XCA     C2 5810   6.800  11.321   6.311 -0.0404 -0.0227  0.0840
  647XCA     C3 5811   6.897  11.451   6.784 -0.1105  0.0110 -0.0468
  647XCA     C4 5812   7.000  11.589   7.272  0.5358 -0.1965 -0.2321
  647XCA     C5 5813   7.236  11.316   7.634  0.1419 -0.2558  0.0033
  647XCA     C6 5814   7.368  11.270   7.907  0.0848  0.0804  0.1717
  648CHOL   ROH 5815   2.313  12.281   5.101  0.1694 -0.0272  0.1667
  648CHOL    R1 5816   2.439  12.314   5.353  0.0896 -0.0064  0.2046
  648CHOL    R2 5817   2.468  12.560   5.475  0.0883  0.0102  0.1750
  648CHOL    R3 5818   2.343  12.436   5.682 -0.0033  0.0631  0.1518
  648CHOL    R4 5819   2.522  12.631   5.809  0.1178 -0.0728  0.1876
  648CHOL    R5 5820   2.513  12.417   5.850 -0.0247 -0.0718  0.1577
  648CHOL    C1 5821   2.438  12.555   6.198  0.0490 -0.0715  0.1731
  648CHOL    C2 5822   2.571  12.589   6.520  0.4863  0.1117  0.0165
  649PNCE   AM1 5823   0.605   3.383   4.295  0.3075  0.0395  0.1094
  649PNCE   AM2 5824   0.522   3.061   4.225 -0.2211 -0.2205 -0.2734
  649PNCE   T1A 5825   0.085   3.406   4.384  0.0611 -0.3144  0.2084
  649PNCE   C2A 5826  -0.270   3.312   4.541  0.4425 -0.0150  0.0325
  649PNCE   C3A 5827  -0.641   3.266   4.670 -0.0927  0.0270  0.1191
  649PNCE   C1B 5828   0.204   2.780   4.460 -0.3360 -0.1576 -0.2874
  649PNCE   C2B 5829  -0.210   2.805   4.539  0.0320 -0.0104  0.3197
  649PNCE   C3B 5830  -0.307   2.460   4.787 -0.3118  0.0337 -0.1590
  649PNCE   D4B 5831  -0.602   2.194   5.115 -0.2379  0.0572 -0.0068
  649PNCE   C5B 5832  -0.960   2.322   5.017  0.3130 -0.2265 -0.1801
  649PNCE   C6B 5833  -1.255   2.449   5.234  0.0150 -0.1364  0.0025
  650CHOL   ROH 5834  13.150  11.685   4.098  0.0347 -0.0830  0.1460
  650CHOL    R1 5835  13.130  11.649   4.378 -0.1410 -0.2053  0.1189
  650CHOL    R2 5836  13.112  11.862   4.554  0.0309 -0.2739  0.2184
  650CHOL    R3 5837  12.889  11.732   4.639 -0.1688 -0.0517  0.0461
  650CHOL    R4 5838  12.966  11.902   4.865 -0.0829 -0.2385  0.1614
  650CHOL    R5 5839  12.930  11.687   4.870 -0.3389 -0.2031  0.0503
  650CHOL    C1 5840  12.671  11.803   5.125 -0.3365 -0.0092 -0.0335
  650CHOL    C2 5841  12.314  11.863   5.342 -0.1833  0.1119 -0.0876
  651PNCE   AM1 5842  14.569  10.638   3.978 -0.1050 -0.0061  0.0114
  651PNCE   AM2 5843  14.277  10.603   3.919  0.1253 -0.0356 -0.0416
  651PNCE   T1A 5844  14.579  10.907   4.266 -0.2034 -0.0646  0.1894
  651PNCE   C2A 5845  14.450  11.239   4.390  0.1312  0.3491  0.1162
  651PNCE   C3A 5846  14.091  11.360   4.503  0.2261 -0.2529 -0.1506
  651PNCE   C1B 5847  14.124  10.996   4.144 -0.0980 -0.0785 -0.1917
  651PNCE   C2B 5848  14.186  10.888   4.615  0.2594 -0.1097  0.1241
  651PNCE   C3B 5849  14.166  11.222   5.022  0.0649  0.1107 -0.3045
  651PNCE   D4B 5850  14.118  11.493   5.319  0.2106  0.0281 -0.0710
  651PNCE   C5B 5851  13.728  11.382   5.606  0.5362 -0.0857  0.0363
  651PNCE   C6B 5852  13.250  11.306   5.774 -0.1287  0.1708  0.1720
  652PNCE   AM1 5853  15.076   8.554   5.213  0.1200 -0.0678  0.0036
  652PNCE   AM2 5854  15.326   8.599   5.210  0.2177 -0.1504 -0.1779
  652PNCE   T1A 5855  14.916   8.621   5.588  0.1105  0.1931 -0.3076
  652PNCE   C2A 5856  14.868   8.753   5.949 -0.0449 -0.1890 -0.2475
  652PNCE   C3A 5857  14.772   8.890   6.286  0.1306 -0.1676 -0.0830
  652PNCE   C1B 5858  15.350   8.394   5.543 -0.1154  0.0818  0.0680
  652PNCE   C2B 5859  15.133   8.315   5.897 -0.1727 -0.0364 -0.2653
  652PNCE   C3B 5860  14.720   8.244   6.032  0.1087 -0.2827  0.1784
  652PNCE   D4B 5861  14.426   8.545   6.260 -0.3355  0.1791 -0.1632
  652PNCE   C5B 5862  14.555   8.650   6.691 -0.1035 -0.0369 -0.0541
  652PNCE   C6B 5863  14.893   8.831   6.997  0.3039 -0.0974 -0.0118
  653PNCE   AM1 5864  14.871  13.045   3.692  0.0056 -0.0167 -0.0906
  653PNCE   AM2 5865  14.467  12.953   3.784 -0.0672  0.1618  0.1092
  653PNCE   T1A 5866  15.062  13.192   4.003  0.1811  0.1478 -0.1642
  653PNCE   C2A 5867  15.241  13.387   4.308 -0.1381  0.1993  0.1694
  653PNCE   C3A 5868  15.562  13.208   4.598  0.0227 -0.4004 -0.0170
  653PNCE   C1B 5869  14.417  13.145   4.109 -0.0854 -0.3459  0.0863
  653PNCE   C2B 5870  14.423  13.467   4.483 -0.1480  0.3045  0.2543
  653PNCE   C3B 5871  14.295  13.797   4.750 -0.0076  0.1287  0.2142
  653PNCE   D4B 5872  14.267  14.116   4.982  0.0008  0.0589 -0.0140
  653PNCE   C5B 5873  14.267  14.036   5.371  0.2025  0.0307 -0.1870
  653PNCE   C6B 5874  14.204  14.226   5.704 -0.0043 -0.2285 -0.2207
  654PNCE   AM1 5875  13.340  13.583   3.853 -0.3429 -0.2796 -0.2370
  654PNCE   AM2 5876  13.478  13.381   4.164 -0.2135 -0.0005 -0.0278
  654PNCE   T1A 5877  13.111  13.801   4.165  0.5268 -0.2652 -0.1958
  654PNCE   C2A 5878  12.933  13.744   4.613  0.1806 -0.0320  0.2350
  654PNCE   C3A 5879  12.881  13.448   4.934 -0.3071  0.2653 -0.0250
  654PNCE   C1B 5880  13.491  13.288   4.552 -0.0929 -0.0876  0.0949
  654PNCE   C2B 5881  13.582  12.928   4.756  0.1532  0.3511 -0.0293
  654PNCE   C3B 5882  13.583  12.772   5.231  0.1161 -0.2385 -0.1380
  654PNCE   D4B 5883  13.340  12.685   5.622 -0.1499 -0.0963  0.0700
  654PNCE   C5B 5884  13.250  12.304   5.907  0.0861  0.1376 -0.0404
  654PNCE   C6B 5885  13.042  11.930   5.985  0.2557 -0.2075  0.0704
  655CHOL   ROH 5886   2.764  13.629   4.699  0.0321  0.0260 -0.0114
  655CHOL    R1 5887   2.531  13.776   4.766  0.0857  0.1449 -0.0841
  655CHOL    R2 5888   2.429  13.784   5.023 -0.0718  0.0768 -0.1449
  655CHOL    R3 5889   2.448  14.053   4.987  0.1283  0.0859  0.0071
  655CHOL    R4 5890   2.345  14.021   5.260  0.1647  0.0062  0.0135
  655CHOL    R5 5891   2.257  14.142   5.101  0.2206  0.1683  0.1015
  655CHOL    C1 5892   2.314  14.412   5.364  0.4903 -0.0267  0.2484
  655CHOL    C2 5893   2.105  14.402   5.694 -0.1875 -0.1163  0.1681
  656PNCE   AM1 5894  14.729   1.072   4.005 -0.0475 -0.0173  0.0518
  656PNCE   AM2 5895  14.754   0.754   4.109 -0.0956  0.2147  0.1024
  656PNCE   T1A 5896  14.604   1.266   4.329  0.4066  0.4435 -0.2398
  656PNCE   C2A 5897  14.427   1.664   4.493  0.0740 -0.4923  0.1152
  656PNCE   C3A 5898  14.676   2.031   4.654 -0.0367  0.0476  0.0829
  656PNCE   C1B 5899  14.741   0.851   4.555 -0.0533  0.1004  0.2781
  656PNCE   C2B 5900  14.890   1.008   4.965  0.3159  0.2614  0.1143
  656PNCE   C3B 5901  14.617   1.331   5.317 -0.1592  0.0429  0.0889
  656PNCE   D4B 5902  14.232   1.253   5.461  0.2034 -0.2033 -0.0860
  656PNCE   C5B 5903  14.027   0.886   5.463  0.0135  0.2819 -0.1843
  656PNCE   C6B 5904  13.471   0.838   5.205 -0.0461  0.1048 -0.3512
  657CHOL   ROH 5905   6.989   6.781   8.454 -0.0521 -0.0657 -0.0056
  657CHOL    R1 5906   6.989   6.744   8.174 -0.0113  0.0154 -0.0161
  657CHOL    R2 5907   7.173   6.584   8.045 -0.0412 -0.0070 -0.0257
  657CHOL    R3 5908   6.951   6.465   7.944 -0.0605  0.0946 -0.1060
  657CHOL    R4 5909   7.175   6.326   7.815 -0.0648 -0.1420  0.1237
  657CHOL    R5 5910   7.006   6.421   7.715  0.0671 -0.0755 -0.0468
  657CHOL    C1 5911   6.967   6.064   7.586 -0.0966 -0.1254  0.1352
  657CHOL    C2 5912   7.134   5.897   7.322 -0.0817 -0.0276  0.1466
  658CHOL   ROH 5913   4.377  15.040   6.712 -0.0760  0.0840  0.0198
  658CHOL    R1 5914   4.314  15.269   6.558 -0.0622  0.1582  0.1224
  658CHOL    R2 5915   4.498  15.467   6.502 -0.0031  0.0913  0.0742
  658CHOL    R3 5916   4.427  15.416   6.245 -0.1748  0.1965  0.0995
  658CHOL    R4 5917   4.584  15.664   6.231 -0.0592  0.1204  0.0775
  658CHOL    R5 5918   4.383  15.632   6.151 -0.1201  0.2428  0.1823
  658CHOL    C1 5919   4.567  15.731   5.832 -0.2530  0.2360  0.1032
  658CHOL    C2 5920   4.901  15.705   5.640  0.0360 -0.0711 -0.0003
  659PNCE   AM1 5921   5.605   2.807   4.115  0.2745  0.1956  0.2282
  659PNCE   AM2 5922   5.292   2.830   4.092  0.1974  0.3074 -0.1483
  659PNCE   T1A 5923   5.617   3.196   4.245  0.1206 -0.0008 -0.1496
  659PNCE   C2A 5924   5.975   3.440   4.213 -0.1241 -0.0382  0.1350
  659PNCE   C3A 5925   6.042   3.803   4.476  0.1062 -0.0432  0.3894
  659PNCE   C1B 5926   5.159   2.351   4.244 -0.1559  0.1481 -0.0192
  659PNCE   C2B 5927   4.885   2.167   4.541  0.3577  0.1471  0.1468
  659PNCE   C3B 5928   4.754   1.990   4.858 -0.2096  0.2118 -0.1136
  659PNCE   D4B 5929   5.066   1.784   5.207 -0.3935 -0.0689  0.3064
  659PNCE   C5B 5930   5.168   2.128   5.475 -0.0771 -0.1178 -0.2164
  659PNCE   C6B 5931   5.025   2.285   5.840  0.1389 -0.2639  0.5744
  660CHOL   ROH 5932  11.981   9.952   8.807 -0.0412  0.0135 -0.0889
  660CHOL    R1 5933  11.844  10.162   8.675 -0.2309  0.0360  0.1325
  660CHOL    R2 5934  11.836  10.183   8.399 -0.0030  0.4768  0.1441
  660CHOL    R3 5935  11.568  10.190   8.440 -0.0584 -0.0023 -0.0765
  660CHOL    R4 5936  11.608  10.340   8.192 -0.0930  0.2869  0.0995
  660CHOL    R5 5937  11.502  10.409   8.369 -0.3613 -0.0457  0.0703
  660CHOL    C1 5938  11.223  10.438   8.110 -0.1974 -0.2733 -0.1336
  660CHOL    C2 5939  11.005  10.251   7.766 -0.0023 -0.2961 -0.2281
  661PNCE   AM1 5940   4.792  11.998   5.283 -0.1831 -0.1599 -0.1954
  661PNCE   AM2 5941   4.549  12.245   4.990  0.0048  0.1408  0.0155
  661PNCE   T1A 5942   4.931  11.830   5.704  0.3404 -0.3105  0.1604
  661PNCE   C2A 5943   4.914  11.594   6.112  0.2435  0.3888 -0.1187
  661PNCE   C3A 5944   4.868  11.570   6.484  0.2404  0.0857 -0.2330
  661PNCE   C1B 5945   4.190  12.354   5.265  0.0166 -0.2838  0.2355
  661PNCE   C2B 5946   3.855  12.545   5.580 -0.1933  0.1696 -0.1877
  661PNCE   C3B 5947   3.733  12.508   5.933 -0.0115  0.0836 -0.1619
  661PNCE   D4B 5948   3.996  12.389   6.305 -0.0676  0.0858 -0.1732
  661PNCE   C5B 5949   4.275  12.038   6.294 -0.0474 -0.0383  0.0596
  661PNCE   C6B 5950   4.351  11.707   6.531  0.1121 -0.3675 -0.3417
  662PNCE   AM1 5951   7.497   8.868   5.079 -0.1128  0.0376  0.1120
  662PNCE   AM2 5952   7.741   8.681   5.258  0.1962 -0.0702 -0.0558
  662PNCE   T1A 5953   7.293   8.777   5.433 -0.2020 -0.2359  0.0939
  662PNCE   C2A 5954   6.976   8.918   5.754  0.0781 -0.2591 -0.3057
  662PNCE   C3A 5955   6.938   8.582   6.033 -0.0518  0.1075 -0.3879
  662PNCE   C1B 5956   7.920   8.593   5.645  0.4327 -0.3426 -0.3596
  662PNCE   C2B 5957   8.021   8.211   5.880  0.1331  0.2008 -0.1768
  662PNCE   C3B 5958   7.948   8.007   6.298  0.0469 -0.0554  0.0733
  662PNCE   D4B 5959   7.978   7.639   6.479  0.1494  0.2344 -0.2528
  662PNCE   C5B 5960   7.972   7.247   6.594  0.0292 -0.2772  0.2425
  662PNCE   C6B 5961   8.297   6.933   6.667  0.1320  0.3633  0.0503
  663CHOL   ROH 5962   1.644   7.278   9.016 -0.0402 -0.0349 -0.3058
  663CHOL    R1 5963   1.807   7.396   8.816 -0.0800  0.1597 -0.2279
  663CHOL    R2 5964   1.805   7.667   8.763 -0.0040  0.2388  0.1140
  663CHOL    R3 5965   2.073   7.644   8.804  0.0030  0.0807 -0.0169
  663CHOL    R4 5966   2.044   7.881   8.634  0.0654  0.1152  0.0377
  663CHOL    R5 5967   2.171   7.708   8.596 -0.0546  0.0529 -0.0471
  663CHOL    C1 5968   2.434   7.985   8.598  0.1125 -0.1053 -0.1297
  663CHOL    C2 5969   2.347   8.225   8.276 -0.3039 -0.1155 -0.0945
  664XCA    COO 5970   8.532  11.085   8.705  0.0889 -0.1371  0.0669
  664XCA     C1 5971   8.677  10.911   8.333 -0.1305 -0.3077 -0.0978
  664XCA     C2 5972   8.715  10.568   8.068  0.0024 -0.0563  0.0054
  664XCA     C3 5973   8.867  10.500   7.592  0.1255 -0.0561 -0.0831
  664XCA     C4 5974   9.157  10.815   7.457 -0.2248 -0.2008 -0.1598
  664XCA     C5 5975   9.382  11.242   7.251  0.0849 -0.1296  0.0677
  664XCA     C6 5976   9.300  11.744   7.381 -0.1072  0.0259 -0.1154
  665XCA    COO 5977  12.382  12.342   8.522 -0.0096 -0.0416  0.1092
  665XCA     C1 5978  12.462  11.985   8.155 -0.1360 -0.0195 -0.1391
  665XCA     C2 5979  12.294  11.756   7.892 -0.0103 -0.1181  0.0936
  665XCA     C3 5980  12.178  11.661   7.511 -0.1433 -0.1212 -0.2238
  665XCA     C4 5981  12.386  11.432   7.148  0.0206  0.0886  0.1653
  665XCA     C5 5982  12.340  11.247   6.749 -0.0863 -0.1821  0.1251
  665XCA     C6 5983  12.216  11.350   6.307  0.1026 -0.1261 -0.0048
  666XCA    COO 5984  10.316  11.804   4.748  0.0814 -0.0027 -0.0038
  666XCA     C1 5985  10.375  11.920   5.071 -0.0435  0.5161  0.1764
  666XCA     C2 5986  10.572  12.262   5.308 -0.1954 -0.0695 -0.0406
  666XCA     C3 5987  10.835  12.420   5.577  0.1052 -0.2571 -0.0848
  666XCA     C4 5988  10.771  12.649   6.001 -0.1356  0.3147  0.2169
  666XCA     C5 5989  10.483  12.946   6.139  0.1437  0.2072  0.0752
  666XCA     C6 5990  10.440  13.357   5.940 -0.2246 -0.2067 -0.0629
  667CHOL   ROH 5991  15.650   2.229   5.989 -0.1040 -0.1994  0.1138
  667CHOL    R1 5992  15.905   2.338   5.932 -0.1169 -0.2306 -0.0049
  667CHOL    R2 5993  16.033   2.513   6.103 -0.1588  0.0092 -0.2144
  667CHOL    R3 5994  16.235   2.332   6.084 -0.1272  0.0150  0.0325
  667CHOL    R4 5995  16.368   2.594   6.078 -0.1760  0.0379 -0.3724
  667CHOL    R5 5996  16.391   2.433   5.933 -0.1629 -0.1791 -0.1390
  667CHOL    C1 5997  16.753   2.472   6.047 -0.1564  0.0600 -0.2326
  667CHOL    C2 5998  16.900   2.878   6.196  0.0460 -0.1535 -0.2741
  668PNCE   AM1 5999   3.635   9.961   5.472  0.0631  0.0041  0.1797
  668PNCE   AM2 6000   3.757   9.640   5.420 -0.0615 -0.1071 -0.3832
  668PNCE   T1A 6001   3.792  10.030   5.905 -0.1395  0.0155 -0.0695
  668PNCE   C2A 6002   3.625  10.235   6.312  0.0530  0.0553  0.1811
  668PNCE   C3A 6003   3.612  10.408   6.717 -0.1545 -0.1682 -0.0077
  668PNCE   C1B 6004   3.765   9.544   5.896 -0.3368  0.1598 -0.0503
  668PNCE   C2B 6005   3.757   9.249   6.214 -0.0650 -0.2193  0.0739
  668PNCE   C3B 6006   3.648   9.261   6.612  0.2907  0.0305  0.3155
  668PNCE   D4B 6007   3.506   9.375   7.015  0.1516 -0.0413  0.2042
  668PNCE   C5B 6008   3.698   9.355   7.345  0.1991  0.0404  0.2299
  668PNCE   C6B 6009   4.085   9.658   7.437  0.0424  0.4511 -0.0554
  669CHOL   ROH 6010  14.755   4.968   4.710 -0.1746 -0.0113  0.0397
  669CHOL    R1 6011  14.855   4.865   4.954 -0.0473  0.0580  0.0181
  669CHOL    R2 6012  14.917   5.027   5.169 -0.0769  0.1060 -0.0079
  669CHOL    R3 6013  14.748   4.861   5.302  0.0532  0.0181  0.0485
  669CHOL    R4 6014  14.909   4.988   5.512 -0.0277  0.1980  0.0036
  669CHOL    R5 6015  14.880   4.774   5.482  0.1287  0.1671  0.0664
  669CHOL    C1 6016  14.745   4.810   5.837  0.1229  0.1691  0.0633
  669CHOL    C2 6017  14.937   4.851   6.173 -0.1026  0.0916  0.0143
  670XCA    COO 6018  11.596   0.518   8.258  0.1019 -0.1237 -0.1184
  670XCA     C1 6019  11.485   0.790   7.896 -0.0788 -0.0726 -0.0194
  670XCA     C2 6020  11.403   0.776   7.439 -0.0353 -0.1318 -0.0904
  670XCA     C3 6021  11.512   0.507   7.049 -0.3202  0.0614 -0.0525
  670XCA     C4 6022  11.080   0.436   6.767 -0.1074  0.2531  0.0954
  670XCA     C5 6023  10.948   0.364   6.406  0.0135 -0.5330  0.1734
  670XCA     C6 6024  11.157   0.597   6.077 -0.0006  0.1719 -0.2913
  671PNCE   AM1 6025   3.267   7.469   5.226 -0.0576 -0.0921  0.1668
  671PNCE   AM2 6026   3.609   7.595   5.341  0.0449  0.0661  0.0206
  671PNCE   T1A 6027   2.928   7.624   5.509  0.0226  0.1845  0.2364
  671PNCE   C2A 6028   2.744   7.602   5.863 -0.0890 -0.1975 -0.1411
  671PNCE   C3A 6029   2.986   7.651   6.300  0.3565  0.0132  0.2006
  671PNCE   C1B 6030   3.361   7.683   5.804  0.1563  0.3348  0.1511
  671PNCE   C2B 6031   3.457   7.733   6.214  0.1203 -0.1053 -0.1818
  671PNCE   C3B 6032   3.430   7.703   6.758  0.3583 -0.0160  0.0235
  671PNCE   D4B 6033   3.499   7.397   7.094 -0.0445  0.1123  0.2841
  671PNCE   C5B 6034   3.437   7.117   6.923 -0.1776 -0.2915  0.4088
  671PNCE   C6B 6035   3.347   6.728   6.833  0.0737  0.2937 -0.0246
  672PNCE   AM1 6036   4.564   6.404   5.383 -0.0881  0.3035  0.0574
  672PNCE   AM2 6037   4.639   6.726   5.607  0.1592 -0.1535 -0.0616
  672PNCE   T1A 6038   4.432   6.312   5.804  0.2131  0.2229  0.1656
  672PNCE   C2A 6039   4.500   6.163   6.202 -0.0969 -0.2509 -0.0743
  672PNCE   C3A 6040   4.532   6.066   6.545  0.2589  0.0936 -0.2640
  672PNCE   C1B 6041   4.631   6.740   6.010  0.4088  0.0168 -0.0945
  672PNCE   C2B 6042   4.752   6.876   6.406  0.2556 -0.1202 -0.0123
  672PNCE   C3B 6043   4.879   6.939   6.897  0.3200 -0.0099  0.4161
  672PNCE   D4B 6044   5.017   6.706   7.261  0.2017  0.1874 -0.0022
  672PNCE   C5B 6045   5.110   6.399   7.545 -0.2702 -0.0588  0.1125
  672PNCE   C6B 6046   4.819   6.179   7.696 -0.0018 -0.1351 -0.0355
  673CHOL   ROH 6047   5.804  11.958   7.006 -0.0674 -0.0688 -0.0239
  673CHOL    R1 6048   5.866  12.232   6.978 -0.1849 -0.0353  0.0448
  673CHOL    R2 6049   5.822  12.416   7.179 -0.0589 -0.1465  0.1704
  673CHOL    R3 6050   6.085  12.472   7.143 -0.1100 -0.0370 -0.0490
  673CHOL    R4 6051   5.994  12.669   7.341  0.0127 -0.2090  0.1942
  673CHOL    R5 6052   6.097  12.712   7.153 -0.1825 -0.0359  0.1174
  673CHOL    C1 6053   6.341  12.869   7.400  0.0065 -0.1428  0.0022
  673CHOL    C2 6054   6.482  13.248   7.372  0.1500  0.1007  0.1144
  674CHOL   ROH 6055   2.631   9.212   8.387  0.1488 -0.0626  0.0484
  674CHOL    R1 6056   2.817   9.298   8.192  0.2658 -0.0900  0.1490
  674CHOL    R2 6057   2.743   9.440   7.967  0.3551 -0.4053 -0.0791
  674CHOL    R3 6058   2.930   9.617   8.057  0.0958 -0.1217 -0.0766
  674CHOL    R4 6059   2.874   9.701   7.782  0.3416 -0.5338 -0.2739
  674CHOL    R5 6060   3.070   9.657   7.867  0.2896 -0.2562  0.0278
  674CHOL    C1 6061   3.125  10.018   7.758  0.0903 -0.3423 -0.3851
  674CHOL    C2 6062   3.306  10.337   7.650  0.0124  0.0430  0.1760
  675CHOL   ROH 6063   5.121  12.398   5.254 -0.0509 -0.0490  0.0423
  675CHOL    R1 6064   4.951  12.406   5.480 -0.0181 -0.0450  0.0673
  675CHOL    R2 6065   5.047  12.432   5.738  0.0135  0.0771  0.0460
  675CHOL    R3 6066   4.876  12.643   5.746 -0.0696  0.0111  0.0023
  675CHOL    R4 6067   4.916  12.570   6.027  0.0008  0.1233  0.0179
  675CHOL    R5 6068   4.725  12.590   5.925 -0.0214  0.0127  0.0413
  675CHOL    C1 6069   4.679  12.848   6.202 -0.0845  0.0882 -0.0395
  675CHOL    C2 6070   4.433  12.569   6.367  0.1400 -0.0208  0.2259
  676PNCE   AM1 6071   0.857   4.539   4.949 -0.1576  0.0813  0.0315
  676PNCE   AM2 6072   0.570   4.724   4.826  0.2670  0.0341 -0.0211
  676PNCE   T1A 6073   0.649   4.479   5.330  0.0572  0.0253 -0.1304
  676PNCE   C2A 6074   0.417   4.309   5.680 -0.1385 -0.0119  0.1648
  676PNCE   C3A 6075   0.096   4.050   5.835  0.0506 -0.3008  0.0378
  676PNCE   C1B 6076   0.238   4.592   5.054 -0.2820 -0.2208  0.2504
  676PNCE   C2B 6077   0.051   4.327   5.337  0.2590  0.1100 -0.0873
  676PNCE   C3B 6078  -0.297   4.319   5.661 -0.0172 -0.3115  0.1109
  676PNCE   D4B 6079  -0.502   3.939   5.808 -0.1037 -0.0256  0.1019
  676PNCE   C5B 6080  -0.247   3.759   6.115 -0.1596  0.3838  0.1516
  676PNCE   C6B 6081   0.124   3.766   6.366  0.1402  0.0190  0.3271
  677PNCE   AM1 6082  12.301  15.471   3.250  0.0647  0.1966  0.1711
  677PNCE   AM2 6083  12.633  15.307   3.414  0.2059  0.2584  0.2958
  677PNCE   T1A 6084  12.195  15.467   3.689 -0.1854 -0.1162  0.2304
  677PNCE   C2A 6085  12.011  15.802   3.959 -0.0662  0.0234 -0.1486
  677PNCE   C3A 6086  11.834  16.164   4.148 -0.1809  0.0592  0.1618
  677PNCE   C1B 6087  12.625  15.110   3.815  0.0824  0.0450 -0.2295
  677PNCE   C2B 6088  12.604  14.953   4.141 -0.3330 -0.2166  0.1739
  677PNCE   C3B 6089  12.649  14.764   4.606 -0.1955  0.0494 -0.2067
  677PNCE   D4B 6090  12.694  14.957   4.963  0.1550 -0.1409  0.3229
  677PNCE   C5B 6091  13.104  15.057   4.940 -0.2291 -0.1369 -0.1791
  677PNCE   C6B 6092  13.410  14.667   4.786 -0.4043 -0.0739 -0.0628
  678XCA    COO 6093  13.486   1.719   7.900 -0.1051  0.0089  0.0205
  678XCA     C1 6094  13.507   1.893   7.385  0.1168  0.0540 -0.0155
  678XCA     C2 6095  13.765   1.856   6.984 -0.0107 -0.1059 -0.1242
  678XCA     C3 6096  13.975   1.986   6.566 -0.0465  0.1164 -0.0112
  678XCA     C4 6097  14.337   1.936   6.396 -0.0049  0.3677  0.0689
  678XCA     C5 6098  14.682   2.062   6.393  0.1327 -0.1233 -0.1942
  678XCA     C6 6099  14.736   2.449   6.503 -0.0470 -0.0837  0.1685
  679CHOL   ROH 6100   6.937   1.983   5.150  0.0802  0.1936 -0.0733
  679CHOL    R1 6101   6.669   2.045   5.215  0.0760  0.1516 -0.0531
  679CHOL    R2 6102   6.525   1.903   5.403  0.1080  0.1178 -0.0596
  679CHOL    R3 6103   6.487   2.148   5.513  0.0757  0.1024 -0.0347
  679CHOL    R4 6104   6.307   1.972   5.662  0.0303  0.0720 -0.1116
  679CHOL    R5 6105   6.252   2.157   5.561  0.0580  0.0901 -0.1026
  679CHOL    C1 6106   6.144   2.243   5.916 -0.0452  0.0308 -0.1185
  679CHOL    C2 6107   5.885   2.321   6.134  0.1154 -0.2529 -0.0578
  680XCA    COO 6108   5.373  14.651   9.250  0.3178 -0.0913  0.4289
  680XCA     C1 6109   5.416  14.837   8.790 -0.4521  0.0967 -0.0238
  680XCA     C2 6110   5.628  14.966   8.488  0.0498 -0.1329  0.2716
  680XCA     C3 6111   5.776  15.013   8.064  0.1152 -0.2552 -0.0722
  680XCA     C4 6112   5.969  15.141   7.665  0.0851  0.0111  0.0018
  680XCA     C5 6113   5.918  15.220   7.252 -0.2270  0.2373 -0.0165
  680XCA     C6 6114   5.848  15.620   7.036 -0.4462 -0.1862 -0.0402
  681CHOL   ROH 6115   5.387  12.337   7.068 -0.1665 -0.2023 -0.0766
  681CHOL    R1 6116   5.498  12.467   6.842 -0.0270 -0.0881  0.0545
  681CHOL    R2 6117   5.753  12.572   6.841  0.0534 -0.2661  0.1973
  681CHOL    R3 6118   5.782  12.416   6.621 -0.0169 -0.1054  0.0736
  681CHOL    R4 6119   6.050  12.522   6.672  0.0121 -0.2170  0.1108
  681CHOL    R5 6120   5.940  12.533   6.484 -0.0096 -0.0466  0.1386
  681CHOL    C1 6121   6.250  12.346   6.366 -0.0781 -0.0375 -0.0557
  681CHOL    C2 6122   6.556  12.702   6.441  0.0051  0.0825 -0.4700
  682PNCE   AM1 6123   1.011   0.334   3.972 -0.0720  0.0808  0.0603
  682PNCE   AM2 6124   0.853   0.067   4.251 -0.2891  0.6827  0.1109
  682PNCE   T1A 6125   0.565   0.451   4.334 -0.0103 -0.0737  0.0130
  682PNCE   C2A 6126   0.275   0.686   4.534 -0.1443 -0.1802  0.1394
  682PNCE   C3A 6127   0.319   0.759   4.973  0.0027  0.0100  0.1120
  682PNCE   C1B 6128   0.944   0.195   4.684  0.1663 -0.1338 -0.0428
  682PNCE   C2B 6129   1.050   0.261   5.137  0.2033  0.3747 -0.2563
  682PNCE   C3B 6130   1.314   0.316   5.503  0.1213 -0.2317 -0.0718
  682PNCE   D4B 6131   1.212   0.393   5.925 -0.1211  0.0885 -0.0455
  682PNCE   C5B 6132   1.224   0.212   6.345 -0.1232 -0.2518  0.0647
  682PNCE   C6B 6133   1.305  -0.135   6.587 -0.3052  0.0119  0.0544
  683CHOL   ROH 6134   5.677  13.100   5.426  0.0741 -0.0635  0.0282
  683CHOL    R1 6135   5.607  13.074   5.699 -0.0644  0.0293  0.0024
  683CHOL    R2 6136   5.794  13.082   5.903 -0.1312 -0.1798  0.0744
  683CHOL    R3 6137   5.632  13.277   6.000  0.0554  0.0156  0.0018
  683CHOL    R4 6138   5.778  13.178   6.234 -0.1733 -0.1645  0.0685
  683CHOL    R5 6139   5.562  13.195   6.214 -0.1454  0.0961 -0.0321
  683CHOL    C1 6140   5.617  13.418   6.518 -0.0225  0.0279 -0.0031
  683CHOL    C2 6141   5.649  13.531   6.782  0.1261 -0.1580 -0.4580
  684PNCE   AM1 6142   8.576   3.193   4.943 -0.0760  0.0001 -0.0349
  684PNCE   AM2 6143   8.897   3.269   5.080  0.0474 -0.2964 -0.0529
  684PNCE   T1A 6144   8.506   3.006   5.344  0.0147 -0.1530  0.0985
  684PNCE   C2A 6145   8.495   2.977   5.712  0.0221 -0.0115  0.1532
  684PNCE   C3A 6146   8.319   2.711   5.973  0.0427 -0.0070 -0.0274
  684PNCE   C1B 6147   9.139   2.975   5.442  0.0124  0.1261  0.3373
  684PNCE   C2B 6148   9.176   2.640   5.655  0.0021  0.1474 -0.0931
  684PNCE   C3B 6149   9.233   2.447   5.953 -0.1515  0.2784 -0.2762
  684PNCE   D4B 6150   9.283   2.294   6.323 -0.0323 -0.0138  0.0615
  684PNCE   C5B 6151   9.047   2.523   6.560  0.1034  0.0662  0.0887
  684PNCE   C6B 6152   8.823   2.697   6.943  0.1563 -0.0730  0.1690
  685CHOL   ROH 6153  13.775   7.846   5.852 -0.3316 -0.2161  0.1305
  685CHOL    R1 6154  13.849   7.797   6.121 -0.1108 -0.2703  0.0624
  685CHOL    R2 6155  14.034   7.605   6.192  0.1158 -0.1297 -0.1435
  685CHOL    R3 6156  14.153   7.813   6.319  0.0056 -0.0766 -0.1257
  685CHOL    R4 6157  14.164   7.592   6.512 -0.0956 -0.0297 -0.0515
  685CHOL    R5 6158  14.083   7.791   6.548 -0.1468 -0.0240 -0.1626
  685CHOL    C1 6159  14.352   7.779   6.818 -0.3220  0.0783  0.0188
  685CHOL    C2 6160  14.374   7.910   7.083  0.1656  0.1179 -0.1134
  686XCA    COO 6161  10.918   3.883   4.690  0.0416  0.0797  0.0415
  686XCA     C1 6162  10.888   3.741   5.147 -0.0080 -0.1103  0.0333
  686XCA     C2 6163  11.097   3.684   5.463  0.0527  0.0750 -0.0080
  686XCA     C3 6164  10.915   3.577   5.772 -0.0596  0.0913 -0.1992
  686XCA     C4 6165  10.593   3.661   5.887  0.1319 -0.2336 -0.1860
  686XCA     C5 6166  10.265   3.341   6.062 -0.2491  0.2235  0.0607
  686XCA     C6 6167   9.954   3.040   6.232 -0.1282  0.3319  0.0466
  687PNCE   AM1 6168   2.659   7.425   5.128 -0.1136 -0.0126 -0.0299
  687PNCE   AM2 6169   2.271   7.420   5.061  0.0553 -0.3383  0.2529
  687PNCE   T1A 6170   2.552   7.183   5.473  0.2744  0.4360 -0.1027
  687PNCE   C2A 6171   2.576   7.107   5.888 -0.3067 -0.0551  0.1515
  687PNCE   C3A 6172   2.689   7.218   6.294  0.2050  0.2708 -0.0867
  687PNCE   C1B 6173   2.068   7.390   5.515 -0.0783 -0.0902  0.0243
  687PNCE   C2B 6174   2.241   7.498   5.897 -0.0426  0.1112  0.0611
  687PNCE   C3B 6175   2.193   7.435   6.327  0.0328 -0.1022  0.0551
  687PNCE   D4B 6176   2.175   7.660   6.793 -0.0565 -0.1487 -0.0643
  687PNCE   C5B 6177   2.380   7.598   7.116 -0.1976  0.2363  0.0662
  687PNCE   C6B 6178   2.650   7.490   7.381 -0.0717  0.1740  0.1162
  688CHOL   ROH 6179  10.141  11.408   5.780  0.0900 -0.3072  0.2480
  688CHOL    R1 6180  10.281  11.588   5.947  0.0573 -0.1261  0.0868
  688CHOL    R2 6181  10.218  11.856   5.964 -0.1039 -0.1473 -0.0278
  688CHOL    R3 6182  10.203  11.803   6.231  0.0497 -0.0237  0.0046
  688CHOL    R4 6183  10.201  12.097   6.212 -0.2800 -0.0445 -0.1393
  688CHOL    R5 6184  10.337  11.975   6.332 -0.1068  0.1711 -0.1264
  688CHOL    C1 6185  10.177  12.187   6.606 -0.2384  0.1314 -0.1737
  688CHOL    C2 6186  10.268  12.423   6.929  0.1036  0.1030 -0.1399
  689CHOL   ROH 6187   9.023   3.120   5.871  0.0656  0.2636 -0.1671
  689CHOL    R1 6188   8.882   3.064   6.110  0.1041  0.1460 -0.1712
  689CHOL    R2 6189   9.004   2.952   6.332  0.1574  0.1075 -0.2185
  689CHOL    R3 6190   8.899   3.169   6.458  0.1082  0.0379 -0.1386
  689CHOL    R4 6191   8.988   2.992   6.675  0.0735 -0.0554 -0.2024
  689CHOL    R5 6192   8.789   3.079   6.650  0.0721 -0.0627 -0.2069
  689CHOL    C1 6193   8.880   3.219   6.993 -0.0214 -0.2155 -0.1180
  689CHOL    C2 6194   9.061   3.002   7.328  0.1644 -0.0469  0.3514
  690PNCE   AM1 6195  15.002   1.101   8.153 -0.1785 -0.0061 -0.2391
  690PNCE   AM2 6196  14.995   0.784   8.074  0.0623 -0.1921 -0.0120
  690PNCE   T1A 6197  15.109   1.405   7.776  0.1366 -0.0707 -0.0738
  690PNCE   C2A 6198  15.311   1.710   7.485  0.4248 -0.1347 -0.2679
  690PNCE   C3A 6199  15.441   1.895   7.061  0.3091  0.1617  0.0162
  690PNCE   C1B 6200  15.300   0.584   7.796 -0.2042  0.1491  0.1516
  690PNCE   C2B 6201  15.355   0.360   7.485  0.1373 -0.1785 -0.1418
  690PNCE   C3B 6202  15.345  -0.071   7.379  0.0096  0.3117  0.2522
  690PNCE   D4B 6203  15.113  -0.260   7.046  0.1504  0.0604 -0.1258
  690PNCE   C5B 6204  15.357  -0.495   6.703  0.2992  0.1541  0.1958
  690PNCE   C6B 6205  15.511  -0.911   6.718  0.1677  0.0506  0.0916
  691PNCE   AM1 6206   8.742  11.597   5.777  0.1268  0.1173  0.3613
  691PNCE   AM2 6207   8.467  11.435   5.776 -0.2777  0.1987  0.1486
  691PNCE   T1A 6208   8.784  11.741   6.236  0.4348 -0.4383  0.4017
  691PNCE   C2A 6209   8.571  11.889   6.566  0.3209  0.0609  0.0985
  691PNCE   C3A 6210   8.560  11.813   6.974 -0.0623 -0.0631 -0.0086
  691PNCE   C1B 6211   8.410  11.378   6.202 -0.1078 -0.0947  0.1701
  691PNCE   C2B 6212   8.382  11.429   6.688 -0.1101  0.0136  0.0217
  691PNCE   C3B 6213   8.442  11.220   7.139 -0.4743 -0.0088  0.1377
  691PNCE   D4B 6214   8.598  10.920   7.510  0.0821  0.2530 -0.0134
  691PNCE   C5B 6215   8.358  10.587   7.633 -0.1661  0.2526  0.0569
  691PNCE   C6B 6216   8.135  10.212   7.598 -0.0215 -0.1138 -0.0897
  692PNCE   AM1 6217   3.033   8.510   5.183 -0.0658 -0.3865  0.0271
  692PNCE   AM2 6218   2.781   8.798   5.075 -0.2172  0.2619 -0.0447
  692PNCE   T1A 6219   2.722   8.451   5.525 -0.1617  0.2397 -0.0949
  692PNCE   C2A 6220   2.592   8.568   5.973 -0.0569 -0.1453  0.1193
  692PNCE   C3A 6221   2.559   8.550   6.296  0.0380  0.2502  0.0258
  692PNCE   C1B 6222   2.851   8.904   5.673 -0.1218 -0.1407 -0.3536
  692PNCE   C2B 6223   2.779   9.222   6.027  0.1034  0.0112  0.2616
  692PNCE   C3B 6224   2.777   9.073   6.401 -0.0233 -0.1021 -0.2366
  692PNCE   D4B 6225   2.797   8.801   6.757 -0.2577  0.0165 -0.1614
  692PNCE   C5B 6226   2.871   8.615   7.058 -0.1540 -0.0838  0.1336
  692PNCE   C6B 6227   2.966   8.408   7.505  0.3018 -0.0114 -0.2436
  693CHOL   ROH 6228   3.870   7.766   9.329 -0.0109  0.2987 -0.1381
  693CHOL    R1 6229   3.800   7.649   9.081  0.0932  0.2361 -0.1382
  693CHOL    R2 6230   3.549   7.673   8.969  0.0664  0.0044 -0.1338
  693CHOL    R3 6231   3.688   7.766   8.755 -0.0217  0.1362 -0.1352
  693CHOL    R4 6232   3.572   7.512   8.664  0.0919  0.0995 -0.1824
  693CHOL    R5 6233   3.782   7.569   8.656  0.0618  0.2111 -0.2072
  693CHOL    C1 6234   3.716   7.505   8.286  0.0241  0.2786 -0.2122
  693CHOL    C2 6235   3.821   7.396   7.918 -0.3550 -0.2764 -0.3326
  694PNCE   AM1 6236  14.625  14.299   4.214  0.1079  0.1484  0.1180
  694PNCE   AM2 6237  14.457  14.324   3.892 -0.0756  0.0621 -0.0487
  694PNCE   T1A 6238  14.421  14.508   4.602  0.1814 -0.0502 -0.1120
  694PNCE   C2A 6239  14.253  14.850   4.878 -0.1448 -0.0043 -0.1919
  694PNCE   C3A 6240  14.530  15.279   4.983  0.0204  0.0471 -0.0630
  694PNCE   C1B 6241  14.160  14.192   4.234  0.1743 -0.1283  0.1111
  694PNCE   C2B 6242  13.931  14.072   4.554  0.2147 -0.2229 -0.0195
  694PNCE   C3B 6243  13.831  13.851   5.013  0.1637  0.2281  0.0622
  694PNCE   D4B 6244  13.783  13.576   5.270 -0.2760  0.0848 -0.1364
  694PNCE   C5B 6245  13.512  13.235   5.173 -0.0466 -0.3383  0.2700
  694PNCE   C6B 6246  13.117  13.061   5.257 -0.2303  0.2466 -0.2109
  695PNCE   AM1 6247   8.264   1.187   5.168 -0.1310 -0.0996  0.0391
  695PNCE   AM2 6248   8.519   1.002   5.139 -0.2520  0.1422 -0.0736
  695PNCE   T1A 6249   8.212   1.510   5.504 -0.3089  0.1297 -0.3596
  695PNCE   C2A 6250   8.230   1.658   5.947 -0.1649 -0.1917 -0.0201
  695PNCE   C3A 6251   8.380   1.591   6.241  0.0343  0.3542  0.1776
  695PNCE   C1B 6252   8.413   0.812   5.534  0.2371 -0.0975  0.0342
  695PNCE   C2B 6253   8.256   0.657   5.847  0.2838 -0.2936 -0.1000
  695PNCE   C3B 6254   8.172   0.772   6.288 -0.1524 -0.0199  0.2525
  695PNCE   D4B 6255   8.176   1.129   6.322 -0.0585 -0.2100 -0.0211
  695PNCE   C5B 6256   8.449   1.181   6.643 -0.0662  0.0844 -0.1057
  695PNCE   C6B 6257   8.520   1.013   7.049  0.2146  0.0740 -0.0326
  696PNCE   AM1 6258   7.434   9.935   5.451 -0.2016  0.0538 -0.2012
  696PNCE   AM2 6259   7.660  10.114   5.558  0.2506  0.0610  0.2059
  696PNCE   T1A 6260   7.191   9.627   5.395 -0.3470  0.1641 -0.1265
  696PNCE   C2A 6261   6.902   9.328   5.515 -0.1768 -0.0806  0.0404
  696PNCE   C3A 6262   6.880   9.020   5.222 -0.0404 -0.1672 -0.1192
  696PNCE   C1B 6263   7.624   9.959   5.976  0.2159 -0.0530 -0.1002
  696PNCE   C2B 6264   7.395   9.876   6.406 -0.0712 -0.0576 -0.2181
  696PNCE   C3B 6265   7.111   9.757   6.860 -0.2435 -0.1510  0.0931
  696PNCE   D4B 6266   6.801   9.588   7.107 -0.0757 -0.1969  0.2117
  696PNCE   C5B 6267   6.430   9.549   6.877  0.0977 -0.0334 -0.2928
  696PNCE   C6B 6268   6.269   9.662   6.461  0.2691 -0.0788  0.1175
  697PNCE   AM1 6269   6.220   7.754   5.827  0.1759  0.2678  0.0639
  697PNCE   AM2 6270   6.125   7.789   5.463 -0.0023  0.0408  0.3228
  697PNCE   T1A 6271   5.982   7.998   6.077 -0.1052 -0.0165  0.0573
  697PNCE   C2A 6272   6.020   8.310   6.429 -0.2358 -0.1096 -0.0066
  697PNCE   C3A 6273   6.157   8.316   6.781  0.0134 -0.0735 -0.0870
  697PNCE   C1B 6274   5.868   8.035   5.575  0.0422  0.1597  0.0997
  697PNCE   C2B 6275   5.709   8.404   5.728 -0.0874  0.0663 -0.0707
  697PNCE   C3B 6276   5.993   8.743   5.679  0.0644 -0.1289  0.1685
  697PNCE   D4B 6277   5.935   9.122   5.461 -0.2772 -0.0200  0.0430
  697PNCE   C5B 6278   5.618   9.430   5.640  0.1270  0.1710 -0.1437
  697PNCE   C6B 6279   5.625   9.888   5.699  0.1451  0.0999 -0.0711
  698PNCE   AM1 6280   7.791   4.335   4.556 -0.3637  0.1815  0.2433
  698PNCE   AM2 6281   7.836   4.633   4.381 -0.1708  0.0963  0.0743
  698PNCE   T1A 6282   7.354   4.196   4.686  0.2434 -0.1098  0.1153
  698PNCE   C2A 6283   6.869   3.947   4.633  0.1772  0.1207  0.1842
  698PNCE   C3A 6284   6.480   4.075   4.664  0.1468 -0.2831 -0.0488
  698PNCE   C1B 6285   7.874   5.020   4.654 -0.0485  0.0834  0.1428
  698PNCE   C2B 6286   8.078   5.295   4.769  0.1949 -0.1055  0.0686
  698PNCE   C3B 6287   8.213   5.576   4.994  0.3690  0.0163  0.0951
  698PNCE   D4B 6288   8.553   5.726   5.107 -0.0390 -0.2731 -0.1053
  698PNCE   C5B 6289   8.691   5.842   5.482 -0.0171  0.0325 -0.1162
  698PNCE   C6B 6290   9.092   5.787   5.682 -0.0731 -0.0237  0.3615
  699XCA    COO 6291   1.545   1.050   4.111 -0.1475 -0.0582  0.1664
  699XCA     C1 6292   1.716   1.149   4.538  0.1543  0.0635 -0.0129
  699XCA     C2 6293   1.699   1.210   4.806 -0.2151 -0.1376 -0.2768
  699XCA     C3 6294   1.686   1.146   5.311 -0.0724  0.0371  0.3233
  699XCA     C4 6295   1.811   1.147   5.762  0.2272 -0.1480 -0.3148
  699XCA     C5 6296   1.981   1.130   6.147 -0.1082 -0.1128 -0.0413
  699XCA     C6 6297   1.835   0.900   6.508 -0.0757  0.2788  0.0916
  700XCA    COO 6298  10.007   9.747   5.381  0.0221  0.0745  0.0491
  700XCA     C1 6299   9.896   9.673   5.803 -0.0649 -0.0438 -0.0407
  700XCA     C2 6300   9.977   9.526   6.267  0.0298 -0.1794  0.1746
  700XCA     C3 6301  10.107   9.483   6.682 -0.1220 -0.1345  0.0708
  700XCA     C4 6302   9.946   9.105   6.957  0.2612  0.1376 -0.2054
  700XCA     C5 6303   9.957   8.746   7.345 -0.1648 -0.1272 -0.0150
  700XCA     C6 6304   9.803   8.699   7.746  0.1929  0.1468  0.3025
  701PNCE   AM1 6305  11.744  13.932   3.408 -0.2512  0.1346 -0.1278
  701PNCE   AM2 6306  11.481  14.120   3.566  0.0118  0.0738 -0.0575
  701PNCE   T1A 6307  11.761  13.771   3.830 -0.3323 -0.0701 -0.2458
  701PNCE   C2A 6308  11.773  13.748   4.317 -0.2627 -0.0544  0.0602
  701PNCE   C3A 6309  11.922  13.857   4.602  0.0865 -0.2006 -0.2824
  701PNCE   C1B 6310  11.728  14.381   3.805 -0.0067  0.0498  0.2078
  701PNCE   C2B 6311  11.790  14.411   4.271  0.0384  0.1413 -0.1834
  701PNCE   C3B 6312  11.743  14.430   4.724 -0.1624  0.0914 -0.1199
  701PNCE   D4B 6313  11.580  14.396   5.172 -0.1990 -0.0692  0.0061
  701PNCE   C5B 6314  11.402  14.759   5.430 -0.0693  0.2959 -0.1664
  701PNCE   C6B 6315  11.513  15.053   5.824 -0.2282  0.0935  0.2652
  702PNCE   AM1 6316   7.621   8.080   5.632 -0.1782 -0.1881  0.0115
  702PNCE   AM2 6317   7.480   8.268   5.430 -0.2421  0.2730  0.0585
  702PNCE   T1A 6318   7.581   7.958   6.013 -0.1324  0.0033 -0.0895
  702PNCE   C2A 6319   7.466   7.801   6.501 -0.0294 -0.0673  0.0695
  702PNCE   C3A 6320   7.222   8.072   6.858  0.1445 -0.0081 -0.1629
  702PNCE   C1B 6321   7.404   8.457   5.827  0.3066 -0.0371  0.0961
  702PNCE   C2B 6322   7.661   8.455   6.205  0.1955 -0.1593 -0.0472
  702PNCE   C3B 6323   7.609   8.292   6.639 -0.0083  0.1191 -0.2591
  702PNCE   D4B 6324   7.875   7.989   6.789 -0.1217 -0.1554  0.0591
  702PNCE   C5B 6325   7.745   7.549   6.899 -0.2645  0.3222 -0.1026
  702PNCE   C6B 6326   7.441   7.268   6.870 -0.2277  0.4789  0.0064
  703CHOL   ROH 6327   6.449  13.069   5.594 -0.2868 -0.1542 -0.1468
  703CHOL    R1 6328   6.367  13.089   5.864 -0.2139 -0.0992 -0.1297
  703CHOL    R2 6329   6.547  13.090   6.074 -0.1747 -0.3444 -0.1665
  703CHOL    R3 6330   6.420  13.321   6.140  0.1098 -0.2015 -0.0987
  703CHOL    R4 6331   6.520  13.216   6.395 -0.2680 -0.5748 -0.0810
  703CHOL    R5 6332   6.314  13.273   6.350 -0.1539 -0.2276 -0.2274
  703CHOL    C1 6333   6.385  13.506   6.643 -0.0553 -0.5748  0.0325
  703CHOL    C2 6334   6.113  13.739   6.849  0.2090 -0.6437 -0.0397
  704PNCE   AM1 6335   4.969   9.409   5.241  0.0947 -0.3321 -0.1597
  704PNCE   AM2 6336   5.024   9.581   5.435  0.0790 -0.2088  0.0529
  704PNCE   T1A 6337   5.249   8.993   5.195  0.0892 -0.1032  0.1642
  704PNCE   C2A 6338   5.572   8.780   5.409  0.3462  0.0320 -0.0879
  704PNCE   C3A 6339   5.965   8.712   5.102 -0.0344  0.0240 -0.3857
  704PNCE   C1B 6340   5.245   9.628   5.866 -0.0258 -0.2992  0.0857
  704PNCE   C2B 6341   5.526   9.703   6.208  0.0335 -0.2380  0.1715
  704PNCE   C3B 6342   5.430   9.827   6.643  0.0204 -0.2970  0.1253
  704PNCE   D4B 6343   5.171   9.685   6.999  0.0971  0.3159 -0.0681
  704PNCE   C5B 6344   5.224   9.788   7.484 -0.0190 -0.0492  0.1928
  704PNCE   C6B 6345   5.115  10.039   7.913 -0.2007 -0.1198  0.0918
  705PNCE   AM1 6346   5.196  15.891   4.453  0.0516 -0.0773 -0.0328
  705PNCE   AM2 6347   5.121  15.612   4.345  0.1009 -0.1685 -0.0822
  705PNCE   T1A 6348   5.022  15.727   4.831  0.0475  0.2710  0.0164
  705PNCE   C2A 6349   4.920  15.884   5.171  0.1640  0.1357 -0.0717
  705PNCE   C3A 6350   4.536  16.087   5.407 -0.0452  0.0700 -0.2210
  705PNCE   C1B 6351   5.106  15.248   4.592 -0.2722  0.1433  0.1897
  705PNCE   C2B 6352   5.075  15.211   5.010 -0.0182 -0.1443  0.0646
  705PNCE   C3B 6353   4.916  15.264   5.402  0.0599 -0.1769  0.1559
  705PNCE   D4B 6354   4.685  15.296   5.771 -0.2848 -0.0205  0.0492
  705PNCE   C5B 6355   4.891  15.247   6.166  0.2824  0.1970 -0.0976
  705PNCE   C6B 6356   4.934  15.584   6.602  0.0465  0.1206 -0.3395
  706CHOL   ROH 6357  14.369   9.672   7.790  0.0297 -0.0074  0.0023
  706CHOL    R1 6358  14.316   9.403   7.717  0.0751 -0.0086 -0.0277
  706CHOL    R2 6359  14.059   9.304   7.692  0.0893 -0.1197  0.2196
  706CHOL    R3 6360  14.145   9.233   7.444 -0.1435  0.0050  0.0990
  706CHOL    R4 6361  13.926   9.047   7.503 -0.0632 -0.0453  0.2239
  706CHOL    R5 6362  14.129   8.994   7.442 -0.1169  0.0053  0.0011
  706CHOL    C1 6363  13.930   8.830   7.161 -0.3707  0.1153  0.1134
  706CHOL    C2 6364  14.013   8.332   7.180 -0.1540 -0.1471  0.0335
  707XCA    COO 6365   4.957   4.307   4.830  0.0223 -0.0205  0.0895
  707XCA     C1 6366   5.273   4.092   5.060 -0.1008  0.2531  0.1838
  707XCA     C2 6367   5.207   3.844   5.407  0.1000  0.0191 -0.0982
  707XCA     C3 6368   5.104   3.975   5.787 -0.1925 -0.0545  0.0658
  707XCA     C4 6369   4.804   3.865   6.212 -0.0464 -0.3472 -0.0078
  707XCA     C5 6370   4.941   3.753   6.657  0.3756 -0.0342  0.1362
  707XCA     C6 6371   5.138   3.791   6.973  0.0291  0.2014 -0.0316
  708XCA    COO 6372   7.598  14.540   4.779 -0.0912 -0.3096  0.1911
  708XCA     C1 6373   7.767  14.384   5.226 -0.1331  0.1048  0.2875
  708XCA     C2 6374   7.907  14.400   5.618  0.0231  0.0586 -0.3929
  708XCA     C3 6375   8.021  14.399   6.043  0.0099  0.0740 -0.1206
  708XCA     C4 6376   8.172  14.550   6.415  0.1556  0.2415  0.0686
  708XCA     C5 6377   8.024  14.602   6.767  0.0647 -0.0389 -0.0788
  708XCA     C6 6378   7.804  14.199   7.059 -0.1970 -0.1743  0.4064
  709CHOL   ROH 6379   1.862   5.171   5.421  0.1609  0.0850  0.1453
  709CHOL    R1 6380   1.750   5.125   5.677  0.0695 -0.0331  0.0856
  709CHOL    R2 6381   1.826   4.913   5.837  0.0876 -0.0474  0.0580
  709CHOL    R3 6382   1.872   5.109   6.020 -0.0703 -0.0800  0.1339
  709CHOL    R4 6383   1.785   4.878   6.178  0.1345 -0.2212  0.0465
  709CHOL    R5 6384   1.700   5.079   6.183 -0.0377 -0.2938  0.1317
  709CHOL    C1 6385   1.804   5.041   6.549  0.0136 -0.3529  0.1110
  709CHOL    C2 6386   2.043   4.857   6.872 -0.2637  0.1414 -0.0268
  710CHOL   ROH 6387   3.792   7.981   5.775  0.1099 -0.0542  0.1312
  710CHOL    R1 6388   3.831   7.855   6.025 -0.0572 -0.0684  0.1510
  710CHOL    R2 6389   4.033   7.928   6.199  0.0604 -0.3236  0.1277
  710CHOL    R3 6390   3.827   7.955   6.375  0.1021  0.0009  0.1338
  710CHOL    R4 6391   4.053   7.866   6.539  0.0099 -0.1984  0.1542
  710CHOL    R5 6392   3.856   7.774   6.529 -0.1039  0.0317  0.2115
  710CHOL    C1 6393   3.871   7.855   6.901  0.0196  0.1792  0.1754
  710CHOL    C2 6394   3.581   7.874   7.203  0.3966 -0.1127 -0.1796
  711CHOL   ROH 6395   0.308   7.887   5.574 -0.2839 -0.2010 -0.1010
  711CHOL    R1 6396   0.391   8.041   5.796 -0.2230 -0.0854 -0.2014
  711CHOL    R2 6397   0.212   8.153   5.975 -0.1744 -0.0483 -0.1690
  711CHOL    R3 6398   0.362   8.020   6.158 -0.0641  0.0609 -0.1800
  711CHOL    R4 6399   0.133   8.124   6.310 -0.1162 -0.0975 -0.1602
  711CHOL    R5 6400   0.345   8.153   6.357 -0.1349  0.0500 -0.1826
  711CHOL    C1 6401   0.229   7.983   6.678  0.0212 -0.0236 -0.1656
  711CHOL    C2 6402  -0.086   7.978   6.714 -0.0256 -0.0232 -0.1438
  712CHOL   ROH 6403  15.382   9.503   7.819  0.0143  0.1172 -0.1195
  712CHOL    R1 6404  15.544   9.487   7.587  0.1759 -0.0852  0.0053
  712CHOL    R2 6405  15.687   9.260   7.522 -0.2464 -0.3550 -0.0037
  712CHOL    R3 6406  15.554   9.284   7.286 -0.0066  0.0673 -0.1072
  712CHOL    R4 6407  15.814   9.168   7.213 -0.1476 -0.3784  0.0426
  712CHOL    R5 6408  15.723   9.348   7.128  0.2602 -0.1355  0.0838
  712CHOL    C1 6409  15.763   9.138   6.812  0.1351  0.0046 -0.0275
  712CHOL    C2 6410  15.909   8.973   6.520  0.0004 -0.0208  0.1112
  713XCA    COO 6411   7.065  10.869   5.657  0.0190  0.1732 -0.2188
  713XCA     C1 6412   6.989  10.717   6.084  0.0784  0.0809 -0.1903
  713XCA     C2 6413   6.775  10.853   6.498 -0.0389  0.3830 -0.3337
  713XCA     C3 6414   6.535  11.143   6.699 -0.1731 -0.2506 -0.0086
  713XCA     C4 6415   6.500  11.393   7.039 -0.2088 -0.1218  0.0388
  713XCA     C5 6416   6.160  11.475   7.211  0.0797 -0.1242 -0.0034
  713XCA     C6 6417   5.979  11.429   7.572  0.1019 -0.0268 -0.3410
  714CHOL   ROH 6418   1.626   7.417   5.454 -0.1091  0.3720 -0.1027
  714CHOL    R1 6419   1.653   7.296   5.708  0.0978  0.3319 -0.1443
  714CHOL    R2 6420   1.760   7.428   5.926 -0.1291  0.4438 -0.1114
  714CHOL    R3 6421   1.527   7.355   6.045 -0.0068  0.0020 -0.1181
  714CHOL    R4 6422   1.719   7.381   6.265 -0.0886  0.6222 -0.0787
  714CHOL    R5 6423   1.594   7.207   6.221  0.3057  0.2827  0.0204
  714CHOL    C1 6424   1.477   7.285   6.575  0.0497  0.3114 -0.0659
  714CHOL    C2 6425   1.573   7.506   6.820 -0.0575 -0.0218  0.0862
  715CHOL   ROH 6426  10.842   4.867   8.124  0.0556 -0.1154  0.0480
  715CHOL    R1 6427  10.818   4.709   7.890  0.1101 -0.0898  0.0240
  715CHOL    R2 6428  10.974   4.752   7.665  0.1989 -0.0830  0.0818
  715CHOL    R3 6429  11.035   4.489   7.697  0.1503 -0.1052  0.0823
  715CHOL    R4 6430  11.166   4.565   7.447  0.2901 -0.0795  0.1588
  715CHOL    R5 6431  11.028   4.399   7.476  0.2500 -0.0748  0.0638
  715CHOL    C1 6432  11.334   4.210   7.349  0.2975 -0.0983  0.2040
  715CHOL    C2 6433  11.317   4.248   6.973 -0.3744 -0.2789 -0.1336
  716PNCE   AM1 6434   2.126  14.679   4.412 -0.0856  0.1676  0.0562
  716PNCE   AM2 6435   1.914  14.447   4.371 -0.2677  0.1351  0.0344
  716PNCE   T1A 6436   2.582  14.788   4.511  0.2159  0.2552 -0.1606
  716PNCE   C2A 6437   2.801  14.933   4.324  0.1784 -0.3315  0.0917
  716PNCE   C3A 6438   3.185  14.790   4.018 -0.1004 -0.0443 -0.2593
  716PNCE   C1B 6439   1.973  14.075   4.607 -0.1357  0.1960 -0.3032
  716PNCE   C2B 6440   1.914  13.809   5.041  0.3384 -0.1946  0.1959
  716PNCE   C3B 6441   1.862  13.992   5.449  0.1736 -0.0108 -0.0731
  716PNCE   D4B 6442   1.537  14.201   5.729 -0.2439  0.1724  0.2018
  716PNCE   C5B 6443   1.350  13.812   5.758  0.0064  0.1143 -0.0582
  716PNCE   C6B 6444   0.949  13.553   5.845 -0.1293 -0.1096  0.0402
  717CHOL   ROH 6445   8.776   4.694   4.884  0.0760 -0.1253 -0.0156
  717CHOL    R1 6446   8.726   4.836   5.124  0.1887 -0.0436 -0.0390
  717CHOL    R2 6447   8.617   4.715   5.348  0.0039  0.0993 -0.0474
  717CHOL    R3 6448   8.838   4.817   5.470  0.1001 -0.1405 -0.0158
  717CHOL    R4 6449   8.651   4.762   5.688 -0.0380  0.1741 -0.0534
  717CHOL    R5 6450   8.751   4.951   5.648  0.2179  0.0338 -0.0887
  717CHOL    C1 6451   8.878   4.885   6.001  0.0280 -0.0074 -0.0271
  717CHOL    C2 6452   9.049   4.860   6.279 -0.1049 -0.1255 -0.1082
  718PNCE   AM1 6453   3.746   9.175   5.230  0.1445 -0.3017 -0.3911
  718PNCE   AM2 6454   3.512   9.146   5.440 -0.0004 -0.2067  0.0012
  718PNCE   T1A 6455   4.052   9.139   5.599  0.0718 -0.1013  0.2498
  718PNCE   C2A 6456   4.147   9.251   5.987 -0.1955 -0.1126  0.2379
  718PNCE   C3A 6457   4.300   9.235   6.499  0.0015 -0.1340  0.0482
  718PNCE   C1B 6458   3.390   9.090   5.859  0.1258  0.1739  0.0063
  718PNCE   C2B 6459   3.293   9.019   6.359  0.2309  0.1077  0.0849
  718PNCE   C3B 6460   3.255   8.929   6.803 -0.0388  0.0857 -0.1556
  718PNCE   D4B 6461   3.203   8.992   7.250 -0.1098  0.0879  0.0208
  718PNCE   C5B 6462   3.104   9.429   7.412 -0.0509  0.0485 -0.0979
  718PNCE   C6B 6463   3.340   9.711   7.501 -0.0384 -0.0733 -0.0478
  719PNCE   AM1 6464  13.866  12.929   3.911  0.3287 -0.1642 -0.1260
  719PNCE   AM2 6465  14.130  12.684   4.045 -0.0427 -0.2111  0.0676
  719PNCE   T1A 6466  13.932  13.106   4.338  0.1391 -0.4237  0.1027
  719PNCE   C2A 6467  14.109  12.915   4.750 -0.2799  0.1720 -0.0160
  719PNCE   C3A 6468  14.007  13.032   5.172  0.0964 -0.2442 -0.1397
  719PNCE   C1B 6469  14.397  12.613   4.412 -0.1186  0.4818  0.2303
  719PNCE   C2B 6470  14.597  12.633   4.742 -0.2998  0.0080  0.3042
  719PNCE   C3B 6471  14.631  12.546   5.235 -0.2833  0.0086  0.0859
  719PNCE   D4B 6472  14.326  12.522   5.571  0.0121 -0.2787  0.0549
  719PNCE   C5B 6473  13.918  12.720   5.553  0.0341 -0.0379  0.1011
  719PNCE   C6B 6474  13.646  12.720   5.986  0.2320 -0.0141 -0.1432
  720PNCE   AM1 6475  10.213   6.302   4.865 -0.0362  0.1961 -0.1207
  720PNCE   AM2 6476  10.279   5.987   5.073  0.0728  0.0019  0.1716
  720PNCE   T1A 6477  10.136   6.738   5.067 -0.1977  0.2070 -0.5013
  720PNCE   C2A 6478  10.134   7.074   5.389 -0.0146 -0.1922 -0.0887
  720PNCE   C3A 6479  10.373   7.165   5.797  0.2568 -0.1865 -0.1081
  720PNCE   C1B 6480  10.326   5.787   5.495  0.1628  0.0344 -0.1434
  720PNCE   C2B 6481  10.568   5.756   5.871  0.0657 -0.1888  0.0580
  720PNCE   C3B 6482  11.019   5.682   5.974  0.4261 -0.0029 -0.2624
  720PNCE   D4B 6483  11.297   5.815   5.753  0.0580 -0.0219  0.0887
  720PNCE   C5B 6484  11.685   5.595   5.774 -0.2416 -0.0835  0.0174
  720PNCE   C6B 6485  12.039   5.523   5.744  0.1559 -0.1669  0.0104
  721XCA    COO 6486   1.088  10.304   4.785  0.1526  0.4846  0.0509
  721XCA     C1 6487   0.749  10.318   4.977 -0.2905 -0.0934  0.0440
  721XCA     C2 6488   0.713  10.639   5.254  0.0655  0.0643 -0.4510
  721XCA     C3 6489   0.473  11.089   5.306  0.1263  0.0723 -0.0657
  721XCA     C4 6490   0.084  11.006   5.222 -0.1799  0.2497 -0.0173
  721XCA     C5 6491  -0.079  10.932   5.617 -0.2359 -0.0040 -0.1677
  721XCA     C6 6492  -0.245  10.732   5.976 -0.1397  0.0882 -0.2869
  722PNCE   AM1 6493  11.558   6.389   4.418  0.1995  0.0804 -0.0880
  722PNCE   AM2 6494  11.868   6.177   4.396 -0.1133 -0.3654 -0.2796
  722PNCE   T1A 6495  11.502   6.725   4.673 -0.0107 -0.2146 -0.2226
  722PNCE   C2A 6496  11.420   6.762   4.962  0.2744 -0.0898  0.0190
  722PNCE   C3A 6497  11.677   6.975   5.260  0.2579 -0.1832  0.1347
  722PNCE   C1B 6498  11.807   5.855   4.773 -0.1676  0.2844  0.1041
  722PNCE   C2B 6499  12.053   5.596   5.020 -0.1040  0.1185  0.0447
  722PNCE   C3B 6500  12.357   5.389   5.324  0.0742 -0.0121 -0.2063
  722PNCE   D4B 6501  12.590   5.234   5.639 -0.1278 -0.5139 -0.0772
  722PNCE   C5B 6502  12.415   5.203   5.986  0.1181 -0.0583 -0.0580
  722PNCE   C6B 6503  12.103   5.387   6.235 -0.2956 -0.3168 -0.1763
  723PNCE   AM1 6504   3.889   7.156   5.426 -0.0827  0.3384 -0.0197
  723PNCE   AM2 6505   3.618   7.137   5.475  0.2699  0.0072 -0.0127
  723PNCE   T1A 6506   4.307   7.160   5.541  0.2235 -0.2525 -0.1681
  723PNCE   C2A 6507   4.625   7.310   5.909  0.0676  0.3039  0.2652
  723PNCE   C3A 6508   4.828   7.689   6.195  0.0634 -0.2600  0.1127
  723PNCE   C1B 6509   3.750   7.354   5.884 -0.2424 -0.1097  0.1514
  723PNCE   C2B 6510   3.806   7.358   6.264  0.0636 -0.0421  0.1173
  723PNCE   C3B 6511   3.889   7.330   6.707  0.1471  0.2419  0.1446
  723PNCE   D4B 6512   3.922   7.065   7.088 -0.1359 -0.0435 -0.1441
  723PNCE   C5B 6513   3.717   7.052   7.485  0.0384 -0.2388 -0.1398
  723PNCE   C6B 6514   3.358   7.092   7.832  0.1430 -0.2632  0.0786
  724PNCE   AM1 6515   1.996  12.953   4.758 -0.1609 -0.2351  0.2990
  724PNCE   AM2 6516   1.828  12.938   4.541  0.0178 -0.0834  0.0728
  724PNCE   T1A 6517   1.910  13.244   5.109  0.2096 -0.2039  0.0770
  724PNCE   C2A 6518   1.900  13.503   5.494  0.0141 -0.1511 -0.1340
  724PNCE   C3A 6519   2.108  13.355   5.854  0.0326  0.0234 -0.2612
  724PNCE   C1B 6520   1.512  13.066   4.863 -0.3644  0.0514  0.0504
  724PNCE   C2B 6521   1.351  12.840   5.143  0.3168  0.1267 -0.0077
  724PNCE   C3B 6522   1.251  12.872   5.623 -0.1668 -0.0628  0.0546
  724PNCE   D4B 6523   1.096  13.118   5.906  0.0948  0.2566  0.1204
  724PNCE   C5B 6524   0.668  13.155   5.935  0.2371 -0.1271 -0.1622
  724PNCE   C6B 6525   0.547  13.600   6.199  0.2006 -0.1307 -0.1998
  725PNCE   AM1 6526   1.979  10.272   5.244  0.2642  0.1315 -0.1185
  725PNCE   AM2 6527   2.127  10.353   5.510  0.1673  0.1023  0.1481
  725PNCE   T1A 6528   1.579  10.447   5.542 -0.1310  0.1732  0.0783
  725PNCE   C2A 6529   1.338  10.091   5.769 -0.1861  0.0220 -0.0704
  725PNCE   C3A 6530   0.948   9.965   6.018 -0.1672 -0.3111 -0.2225
  725PNCE   C1B 6531   1.857  10.144   5.831  0.3724  0.0200  0.1610
  725PNCE   C2B 6532   1.576  10.173   6.206 -0.0027 -0.2752  0.1931
  725PNCE   C3B 6533   1.172  10.181   6.423  0.0277  0.3048  0.0341
  725PNCE   D4B 6534   1.080  10.379   6.701 -0.0213  0.1202  0.2311
  725PNCE   C5B 6535   0.697  10.155   6.916  0.0689  0.0196 -0.4773
  725PNCE   C6B 6536   0.570   9.775   7.015  0.0068  0.0682 -0.3866
  726PNCE   AM1 6537   9.988   4.920   8.100  0.1480  0.0550  0.0371
  726PNCE   AM2 6538   9.672   4.784   8.332 -0.0587  0.0081 -0.1035
  726PNCE   T1A 6539   9.997   5.266   7.842  0.2203  0.0124 -0.2802
  726PNCE   C2A 6540  10.328   5.356   7.427 -0.3568 -0.1773  0.1048
  726PNCE   C3A 6541  10.299   5.755   7.272 -0.0402  0.0237 -0.1307
  726PNCE   C1B 6542   9.552   5.140   8.038  0.0907  0.1098  0.0963
  726PNCE   C2B 6543   9.353   5.562   7.823 -0.0923  0.0939 -0.0704
  726PNCE   C3B 6544   9.306   5.625   7.413 -0.0378 -0.0648  0.0259
  726PNCE   D4B 6545   9.542   5.863   7.154 -0.3502 -0.0196  0.1643
  726PNCE   C5B 6546   9.904   6.040   7.317  0.1746 -0.1964 -0.0347
  726PNCE   C6B 6547  10.142   6.158   7.665  0.1587  0.0197  0.0968
  727CHOL   ROH 6548  13.879   3.677   7.024 -0.0704  0.0018 -0.0011
  727CHOL    R1 6549  13.914   3.706   6.745 -0.1603  0.0148 -0.0116
  727CHOL    R2 6550  13.804   3.916   6.602  0.0442  0.1923  0.0843
  727CHOL    R3 6551  14.061   3.953   6.521  0.0608 -0.1252 -0.0236
  727CHOL    R4 6552  13.900   4.098   6.324  0.1545  0.0522  0.0292
  727CHOL    R5 6553  14.050   3.946   6.282 -0.0440 -0.1355 -0.0184
  727CHOL    C1 6554  14.196   4.239   6.087  0.2345 -0.3275 -0.1042
  727CHOL    C2 6555  14.428   4.561   6.038 -0.0341 -0.3023 -0.5580
  728XCA    COO 6556   7.398  12.216   9.291 -0.0262 -0.0574  0.2188
  728XCA     C1 6557   7.602  12.297   8.870 -0.0477  0.1484  0.0941
  728XCA     C2 6558   7.866  12.338   8.451 -0.0264  0.1219  0.1547
  728XCA     C3 6559   7.814  12.521   8.069  0.2005  0.0272 -0.4602
  728XCA     C4 6560   7.816  12.500   7.650 -0.3503  0.0073  0.0798
  728XCA     C5 6561   7.747  12.456   7.136  0.2662 -0.2719  0.3377
  728XCA     C6 6562   7.473  12.306   6.808  0.0692  0.4036 -0.0177
  729PNCE   AM1 6563  12.702  11.490   3.746 -0.0590  0.0512 -0.0273
  729PNCE   AM2 6564  12.842  11.344   4.049 -0.0764 -0.1192  0.0718
  729PNCE   T1A 6565  12.670  11.858   4.065 -0.0287 -0.0080  0.0860
  729PNCE   C2A 6566  12.481  11.959   4.423  0.0644  0.1377  0.0898
  729PNCE   C3A 6567  12.419  12.023   4.841  0.2537  0.1845  0.1148
  729PNCE   C1B 6568  12.695  11.348   4.474  0.2195 -0.0817  0.2004
  729PNCE   C2B 6569  12.563  11.392   4.911 -0.3114  0.0907 -0.0121
  729PNCE   C3B 6570  12.438  11.381   5.398 -0.1614 -0.0280 -0.1108
  729PNCE   D4B 6571  12.361  11.368   5.752  0.2062 -0.1468 -0.2802
  729PNCE   C5B 6572  12.578  11.587   6.176 -0.0771  0.0222  0.0520
  729PNCE   C6B 6573  12.360  11.693   6.562 -0.0072  0.1014 -0.1912
  730XCA    COO 6574   1.952   7.575   9.244 -0.1311 -0.1885 -0.2206
  730XCA     C1 6575   2.422   7.654   9.122 -0.1685 -0.2619  0.0430
  730XCA     C2 6576   2.603   7.577   8.739 -0.0532  0.0047 -0.2548
  730XCA     C3 6577   2.654   7.634   8.251  0.2604  0.0899 -0.0011
  730XCA     C4 6578   2.592   7.976   7.900 -0.0246 -0.0715  0.0130
  730XCA     C5 6579   2.660   8.438   7.941  0.4560 -0.2701  0.1534
  730XCA     C6 6580   3.116   8.627   7.956 -0.1197  0.1400  0.0101
  731PNCE   AM1 6581   7.944   2.232   5.381 -0.0470 -0.4167  0.2681
  731PNCE   AM2 6582   8.010   1.941   5.517 -0.2240 -0.1852  0.1734
  731PNCE   T1A 6583   7.593   2.241   5.750 -0.1085 -0.0152  0.3550
  731PNCE   C2A 6584   7.480   1.944   6.002 -0.0406 -0.1710  0.1640
  731PNCE   C3A 6585   7.299   1.702   6.300  0.1741 -0.1640  0.1010
  731PNCE   C1B 6586   7.768   1.625   5.758 -0.0825 -0.3236  0.4123
  731PNCE   C2B 6587   7.824   1.621   6.242 -0.1678  0.2226  0.3443
  731PNCE   C3B 6588   7.782   1.362   6.487 -0.1327  0.1564 -0.0394
  731PNCE   D4B 6589   7.689   0.943   6.447  0.0959  0.2619 -0.1444
  731PNCE   C5B 6590   7.766   0.755   6.867 -0.1866 -0.2340  0.0527
  731PNCE   C6B 6591   8.036   0.870   7.196  0.0567  0.1159  0.0273
  732PNCE   AM1 6592   1.343  15.160   4.441 -0.1679  0.0656 -0.3535
  732PNCE   AM2 6593   1.054  15.147   4.333  0.0861  0.0551  0.1570
  732PNCE   T1A 6594   1.610  15.478   4.567  0.1890  0.1146 -0.0292
  732PNCE   C2A 6595   1.738  15.539   5.034  0.2014  0.4211 -0.1050
  732PNCE   C3A 6596   1.935  15.471   5.469 -0.1916 -0.0426 -0.2414
  732PNCE   C1B 6597   1.013  15.293   4.809 -0.2309  0.1191 -0.1119
  732PNCE   C2B 6598   1.087  15.188   5.302  0.0659  0.1839 -0.1253
  732PNCE   C3B 6599   1.118  15.246   5.732  0.2376 -0.0590  0.2936
  732PNCE   D4B 6600   0.795  15.230   6.039 -0.1737 -0.1090 -0.0957
  732PNCE   C5B 6601   0.503  15.444   5.746 -0.1143  0.5469 -0.0556
  732PNCE   C6B 6602  -0.010  15.390   5.674 -0.1293 -0.2524 -0.0057
  733PNCE   AM1 6603  12.725   3.500   3.779  0.0667  0.1887  0.1982
  733PNCE   AM2 6604  12.888   3.735   3.632  0.1144 -0.4087  0.1763
  733PNCE   T1A 6605  12.832   3.723   4.166  0.0330 -0.0078 -0.1377
  733PNCE   C2A 6606  12.796   4.154   4.440 -0.0121 -0.0811 -0.2630
  733PNCE   C3A 6607  12.698   4.458   4.711  0.0633 -0.2553 -0.1078
  733PNCE   C1B 6608  12.739   4.077   3.766 -0.0170  0.2003  0.2387
  733PNCE   C2B 6609  12.436   4.287   4.036  0.0606 -0.2380  0.0028
  733PNCE   C3B 6610  12.192   4.268   4.401 -0.2108  0.2007 -0.0454
  733PNCE   D4B 6611  12.326   4.113   4.835 -0.2759 -0.2347 -0.0761
  733PNCE   C5B 6612  12.452   4.353   5.187  0.0772 -0.1350  0.0831
  733PNCE   C6B 6613  12.249   4.658   5.310  0.0894 -0.1471  0.0596
  734CHOL   ROH 6614   6.770  13.950   9.137 -0.2722  0.0390 -0.0218
  734CHOL    R1 6615   6.638  13.966   8.887 -0.2065  0.0525 -0.0555
  734CHOL    R2 6616   6.592  14.205   8.759 -0.0920  0.0514 -0.0976
  734CHOL    R3 6617   6.719  14.083   8.552 -0.0855 -0.0195 -0.0523
  734CHOL    R4 6618   6.510  14.247   8.425  0.1584  0.2362 -0.1387
  734CHOL    R5 6619   6.544  14.033   8.396 -0.0430  0.2067 -0.1787
  734CHOL    C1 6620   6.583  14.156   8.037  0.3104  0.2773 -0.1201
  734CHOL    C2 6621   6.516  14.181   7.677  0.0679 -0.0234  0.2354
  735CHOL   ROH 6622  14.980  11.476   4.697  0.2828 -0.2250 -0.0245
  735CHOL    R1 6623  15.043  11.677   4.886  0.2244 -0.1394 -0.0967
  735CHOL    R2 6624  14.997  11.647   5.156  0.0022  0.0430 -0.1159
  735CHOL    R3 6625  15.261  11.709   5.176  0.0157 -0.0586  0.0548
  735CHOL    R4 6626  15.153  11.759   5.444 -0.1695  0.0813 -0.0357
  735CHOL    R5 6627  15.267  11.899   5.322 -0.0197 -0.0058 -0.0064
  735CHOL    C1 6628  15.491  11.882   5.629 -0.2571  0.0083  0.1713
  735CHOL    C2 6629  15.741  11.892   5.954  0.0542  0.2400 -0.2260
  736XCA    COO 6630   3.433  12.327   4.977 -0.0131 -0.2237 -0.1150
  736XCA     C1 6631   3.439  12.314   5.493  0.0451 -0.1833  0.2118
  736XCA     C2 6632   3.305  12.348   5.828  0.1832  0.0710 -0.1887
  736XCA     C3 6633   3.313  12.601   6.194 -0.1057  0.0201  0.1886
  736XCA     C4 6634   3.274  13.044   6.339  0.1425 -0.0582 -0.2124
  736XCA     C5 6635   3.137  13.415   6.401 -0.3506 -0.2197  0.2123
  736XCA     C6 6636   2.842  13.695   6.364  0.0319  0.2711  0.2331
  737PNCE   AM1 6637  14.282   0.283   8.294 -0.1083 -0.1363 -0.1115
  737PNCE   AM2 6638  14.016   0.009   8.188  0.0154  0.2407  0.3012
  737PNCE   T1A 6639  14.778   0.339   8.083  0.2562 -0.1824  0.1101
  737PNCE   C2A 6640  14.960   0.124   7.747 -0.1466 -0.1265  0.0111
  737PNCE   C3A 6641  14.744  -0.210   7.488 -0.2553 -0.2087  0.1760
  737PNCE   C1B 6642  14.215   0.192   7.774 -0.2819 -0.2118  0.2401
  737PNCE   C2B 6643  14.541   0.276   7.477  0.1249  0.1456  0.3156
  737PNCE   C3B 6644  14.888   0.179   7.198  0.4487 -0.0117 -0.4608
  737PNCE   D4B 6645  14.887   0.014   6.735  0.0949 -0.0417 -0.1764
  737PNCE   C5B 6646  14.525   0.078   6.461 -0.2394  0.0686 -0.1510
  737PNCE   C6B 6647  14.396   0.006   6.054  0.1774  0.1658 -0.1197
  738PNCE   AM1 6648   5.727   2.228   4.289 -0.0509  0.0747  0.2521
  738PNCE   AM2 6649   5.545   2.523   4.470 -0.1630 -0.0749 -0.1095
  738PNCE   T1A 6650   5.920   2.302   4.707  0.1351 -0.0012  0.0392
  738PNCE   C2A 6651   5.918   2.522   5.157 -0.1326  0.1296 -0.1100
  738PNCE   C3A 6652   5.912   2.438   5.586 -0.1850  0.0967 -0.0379
  738PNCE   C1B 6653   5.143   2.614   4.710  0.3258 -0.2718  0.3733
  738PNCE   C2B 6654   4.917   2.458   5.092  0.0337 -0.1652 -0.1076
  738PNCE   C3B 6655   4.932   2.638   5.549 -0.1375 -0.1477 -0.0164
  738PNCE   D4B 6656   4.551   2.579   5.885  0.0014  0.0505  0.4027
  738PNCE   C5B 6657   4.444   2.241   6.083  0.1518 -0.2836  0.1389
  738PNCE   C6B 6658   4.032   2.136   6.241 -0.0166  0.4763 -0.0426
  739CHOL   ROH 6659   3.000   7.131   5.439 -0.2083  0.0334  0.0743
  739CHOL    R1 6660   3.094   7.074   5.700 -0.1084  0.0927  0.0523
  739CHOL    R2 6661   3.274   7.237   5.832 -0.1747  0.2076  0.0083
  739CHOL    R3 6662   3.083   7.237   6.025 -0.1301  0.0897  0.0521
  739CHOL    R4 6663   3.337   7.256   6.171 -0.1041  0.0132  0.0067
  739CHOL    R5 6664   3.179   7.109   6.203 -0.0894 -0.0085 -0.0427
  739CHOL    C1 6665   3.194   7.266   6.550 -0.0212 -0.2106  0.0469
  739CHOL    C2 6666   3.023   7.396   6.922 -0.0410  0.0051  0.0364
  740PNCE   AM1 6667  11.119  14.483   3.632 -0.0642 -0.0735 -0.0056
  740PNCE   AM2 6668  10.998  14.835   3.800 -0.1280  0.0333 -0.1907
  740PNCE   T1A 6669  11.241  14.324   4.060  0.0608 -0.1038  0.3094
  740PNCE   C2A 6670  11.352  14.351   4.420  0.0636  0.0583 -0.1301
  740PNCE   C3A 6671  11.158  14.441   4.828  0.1289  0.0275 -0.0735
  740PNCE   C1B 6672  10.904  15.172   4.123  0.2232 -0.0592 -0.0566
  740PNCE   C2B 6673  10.657  15.080   4.501 -0.1309  0.1204  0.0163
  740PNCE   C3B 6674  10.391  15.082   4.896  0.0826  0.0841  0.4656
  740PNCE   D4B 6675  10.087  14.808   5.076 -0.1531  0.0734 -0.5317
  740PNCE   C5B 6676  10.171  14.420   5.319 -0.1752 -0.0929 -0.0598
  740PNCE   C6B 6677  10.007  14.316   5.633  0.3910  0.0438  0.0142
  741PNCE   AM1 6678   3.002  12.688   4.891  0.1172 -0.2079  0.2894
  741PNCE   AM2 6679   2.673  12.548   4.968 -0.0899  0.4358 -0.1246
  741PNCE   T1A 6680   3.011  12.601   5.321 -0.0622  0.1240  0.1131
  741PNCE   C2A 6681   2.971  12.715   5.755 -0.3019 -0.1213 -0.1579
  741PNCE   C3A 6682   2.810  12.846   6.175 -0.0891  0.0227 -0.0754
  741PNCE   C1B 6683   2.344  12.804   5.047  0.0943 -0.0183 -0.0026
  741PNCE   C2B 6684   2.213  12.926   5.478  0.3790 -0.2669 -0.0420
  741PNCE   C3B 6685   2.109  12.809   5.835  0.2500 -0.3645 -0.3045
  741PNCE   D4B 6686   2.103  12.879   6.260 -0.2317 -0.1186  0.0276
  741PNCE   C5B 6687   2.054  13.307   6.343  0.1929 -0.0365 -0.2063
  741PNCE   C6B 6688   1.923  13.810   6.447 -0.0958 -0.2578 -0.0753
  742CHOL   ROH 6689   9.790   2.236   8.316  0.0164  0.1242 -0.1224
  742CHOL    R1 6690   9.518   2.229   8.239 -0.0052 -0.0380 -0.0354
  742CHOL    R2 6691   9.419   2.375   8.025 -0.1857  0.0057  0.0737
  742CHOL    R3 6692   9.329   2.131   7.943 -0.0284 -0.0199 -0.0259
  742CHOL    R4 6693   9.158   2.323   7.804 -0.0610 -0.0762 -0.0560
  742CHOL    R5 6694   9.092   2.157   7.928 -0.0337 -0.1373 -0.1269
  742CHOL    C1 6695   8.922   2.064   7.599  0.1590 -0.1480 -0.2249
  742CHOL    C2 6696   8.807   1.856   7.234  0.0497 -0.1533 -0.0062
  743CHOL   ROH 6697  11.637  10.214   6.294  0.0004 -0.0053  0.3279
  743CHOL    R1 6698  11.598  10.442   6.130 -0.1003 -0.0082  0.3482
  743CHOL    R2 6699  11.575  10.697   6.232  0.0888  0.0069  0.3517
  743CHOL    R3 6700  11.777  10.751   6.059 -0.0752 -0.0701  0.1316
  743CHOL    R4 6701  11.639  11.007   6.093  0.0244 -0.0273  0.2438
  743CHOL    R5 6702  11.683  10.907   5.904 -0.1980 -0.0659  0.2074
  743CHOL    C1 6703  11.866  11.238   5.849 -0.1671 -0.1195 -0.0256
  743CHOL    C2 6704  11.503  11.434   5.788  0.0309  0.0674 -0.2081
  744XCA    COO 6705   8.992   0.705   8.557  0.0024 -0.1414 -0.0632
  744XCA     C1 6706   8.831   0.850   8.129  0.1777  0.2747 -0.2216
  744XCA     C2 6707   8.910   0.866   7.628  0.0661 -0.1004  0.2508
  744XCA     C3 6708   8.866   1.184   7.302 -0.1454 -0.2617 -0.2118
  744XCA     C4 6709   8.683   1.469   6.962 -0.2191  0.3191  0.1004
  744XCA     C5 6710   8.869   1.766   6.628 -0.0642 -0.0163  0.0540
  744XCA     C6 6711   9.057   1.819   6.347  0.1032  0.1126  0.0635
  745PNCE   AM1 6712  12.098   9.804   4.878  0.3539 -0.1362 -0.0529
  745PNCE   AM2 6713  12.320   9.959   5.066  0.0430 -0.1799 -0.0958
  745PNCE   T1A 6714  12.077   9.598   5.337 -0.2483 -0.2295 -0.2299
  745PNCE   C2A 6715  11.971   9.491   5.715 -0.0922 -0.0484 -0.0798
  745PNCE   C3A 6716  11.870   9.549   6.211  0.2057 -0.1258  0.1151
  745PNCE   C1B 6717  12.601   9.814   5.389  0.2952  0.2168 -0.0253
  745PNCE   C2B 6718  12.506   9.378   5.645  0.1855  0.2304 -0.0810
  745PNCE   C3B 6719  12.287   9.186   6.055 -0.1514  0.1388  0.1002
  745PNCE   D4B 6720  11.966   9.027   6.287  0.3774  0.2169 -0.0138
  745PNCE   C5B 6721  11.977   8.820   6.785  0.0588  0.0032 -0.0373
  745PNCE   C6B 6722  11.940   8.942   7.181  0.0871  0.0424  0.0578
  746PNCE   AM1 6723  14.144   7.935   5.217 -0.1193  0.1206 -0.2501
  746PNCE   AM2 6724  14.426   7.927   5.142 -0.1515  0.2743  0.0782
  746PNCE   T1A 6725  14.225   7.658   5.568 -0.0915 -0.1268  0.2848
  746PNCE   C2A 6726  14.223   7.367   5.889 -0.1407 -0.1378 -0.0400
  746PNCE   C3A 6727  14.306   7.174   6.261 -0.2251  0.0734 -0.1996
  746PNCE   C1B 6728  14.645   7.624   5.318 -0.2702  0.2493 -0.3289
  746PNCE   C2B 6729  14.709   7.313   5.595  0.1084  0.1341  0.0967
  746PNCE   C3B 6730  14.537   6.924   5.800 -0.1188 -0.0649 -0.0744
  746PNCE   D4B 6731  14.272   6.662   5.979 -0.0241  0.1109  0.1792
  746PNCE   C5B 6732  13.870   6.545   5.953 -0.1612  0.2718  0.1695
  746PNCE   C6B 6733  13.485   6.545   6.125 -0.2413  0.0784  0.0662
  747XCA    COO 6734  12.700  14.691   3.246  0.1772 -0.1853 -0.1002
  747XCA     C1 6735  12.525  14.632   3.639  0.0439 -0.0360  0.2362
  747XCA     C2 6736  12.277  14.551   4.004  0.1723 -0.1606  0.0039
  747XCA     C3 6737  12.314  14.458   4.460  0.2044 -0.1101 -0.1088
  747XCA     C4 6738  12.246  14.411   4.875  0.4391  0.1503  0.0230
  747XCA     C5 6739  12.069  14.451   5.298 -0.4077  0.2337 -0.5313
  747XCA     C6 6740  12.266  14.330   5.618 -0.1766  0.2396 -0.0292
  748CHOL   ROH 6741   6.345   9.772   8.798  0.0231 -0.0869  0.0298
  748CHOL    R1 6742   6.181   9.869   8.589  0.2442 -0.0101 -0.1112
  748CHOL    R2 6743   6.245   9.838   8.322  0.2238 -0.4761 -0.0702
  748CHOL    R3 6744   5.997   9.727   8.309 -0.0089  0.0016  0.0464
  748CHOL    R4 6745   6.087   9.743   8.030  0.0191 -0.4517  0.0297
  748CHOL    R5 6746   5.900   9.822   8.111  0.1728  0.0039 -0.0404
  748CHOL    C1 6747   5.762   9.584   7.847 -0.3186  0.0111  0.1972
  748CHOL    C2 6748   5.577   9.274   7.751 -0.3212  0.0363  0.0899
  749PNCE   AM1 6749  15.021   9.371   5.094 -0.2259  0.1840  0.0782
  749PNCE   AM2 6750  15.088   9.069   5.396 -0.0006 -0.1425 -0.0428
  749PNCE   T1A 6751  15.329   9.679   5.292 -0.0847 -0.0882  0.1932
  749PNCE   C2A 6752  15.481   9.928   5.628 -0.1436  0.4618 -0.0483
  749PNCE   C3A 6753  15.347  10.238   5.767 -0.0936  0.0200 -0.1567
  749PNCE   C1B 6754  15.045   9.446   5.612  0.2514  0.4769 -0.1831
  749PNCE   C2B 6755  15.039   9.649   5.916 -0.0272 -0.2477 -0.2664
  749PNCE   C3B 6756  14.870   9.946   6.160  0.0059  0.2025 -0.1946
  749PNCE   D4B 6757  15.104  10.165   6.445 -0.1791 -0.0799  0.1442
  749PNCE   C5B 6758  15.532  10.306   6.305  0.0949 -0.1241  0.2260
  749PNCE   C6B 6759  15.939  10.507   6.424 -0.2533  0.1312  0.1864
  750XCA    COO 6760  10.931   3.386   4.188 -0.1895 -0.0914 -0.0865
  750XCA     C1 6761  11.182   3.246   4.535  0.1842 -0.0313  0.1636
  750XCA     C2 6762  11.389   2.980   4.858 -0.0652  0.1467  0.1716
  750XCA     C3 6763  11.408   2.749   5.206  0.2802  0.0862  0.3860
  750XCA     C4 6764  11.477   2.807   5.652 -0.0988  0.0223  0.0791
  750XCA     C5 6765  11.379   2.954   6.026  0.2591  0.0391 -0.0751
  750XCA     C6 6766  11.062   3.133   6.246  0.2846 -0.1270  0.0204
  751XCA    COO 6767  14.257   3.810   7.851 -0.0199  0.1366 -0.0548
  751XCA     C1 6768  14.380   4.244   7.788 -0.2790  0.0446 -0.3493
  751XCA     C2 6769  14.665   4.480   7.487  0.0296 -0.0606  0.2532
  751XCA     C3 6770  14.652   4.466   7.099 -0.1862  0.2041  0.0905
  751XCA     C4 6771  14.737   4.854   6.790  0.0689 -0.1718 -0.5685
  751XCA     C5 6772  14.708   5.289   6.458  0.1284 -0.1246 -0.2701
  751XCA     C6 6773  14.381   5.567   6.264 -0.1510 -0.4180  0.0707
  752PNCE   AM1 6774   4.663   9.092   5.517 -0.1072 -0.0039 -0.0157
  752PNCE   AM2 6775   4.866   8.887   5.624 -0.0576 -0.2937 -0.1801
  752PNCE   T1A 6776   4.610   9.439   5.792 -0.2122  0.2019  0.2018
  752PNCE   C2A 6777   4.583   9.529   6.209  0.0118 -0.0822  0.2205
  752PNCE   C3A 6778   4.792   9.582   6.571  0.0929  0.0860  0.2001
  752PNCE   C1B 6779   5.205   9.120   5.788  0.2315  0.0692  0.0773
  752PNCE   C2B 6780   5.535   9.016   6.070 -0.0533 -0.1250 -0.1878
  752PNCE   C3B 6781   5.388   8.843   6.476  0.1007 -0.0661  0.0709
  752PNCE   D4B 6782   5.134   8.775   6.847  0.4790  0.0161  0.2640
  752PNCE   C5B 6783   5.142   8.952   7.148  0.0133 -0.1785 -0.0809
  752PNCE   C6B 6784   5.142   9.206   7.418 -0.1238 -0.1098  0.1180
  753PNCE   AM1 6785   1.758   9.614   5.064  0.4575  0.3181  0.0169
  753PNCE   AM2 6786   2.123   9.612   5.070  0.0660  0.3373  0.1510
  753PNCE   T1A 6787   1.608   9.329   5.459  0.2868 -0.1446  0.4812
  753PNCE   C2A 6788   1.403   8.992   5.741 -0.1991 -0.0720 -0.0416
  753PNCE   C3A 6789   1.387   9.118   6.139  0.1312  0.0904  0.1065
  753PNCE   C1B 6790   2.093   9.394   5.537  0.0886  0.3615 -0.0986
  753PNCE   C2B 6791   1.919   9.149   5.748  0.1980 -0.1310  0.1662
  753PNCE   C3B 6792   1.932   9.125   6.201  0.1234 -0.3106 -0.2228
  753PNCE   D4B 6793   1.835   9.175   6.624 -0.0126  0.0907  0.4396
  753PNCE   C5B 6794   1.406   9.266   6.623 -0.3225 -0.2363 -0.2539
  753PNCE   C6B 6795   0.943   9.384   6.845 -0.1735 -0.1324  0.1067
  754XCA    COO 6796   3.626   1.259   7.537 -0.1646 -0.0456 -0.1248
  754XCA     C1 6797   3.967   0.899   7.499 -0.0967  0.4438 -0.0434
  754XCA     C2 6798   4.135   0.490   7.329  0.0585 -0.1896 -0.1937
  754XCA     C3 6799   4.217   0.231   7.046 -0.0932 -0.1867  0.0721
  754XCA     C4 6800   4.173  -0.002   6.575 -0.0561 -0.3384 -0.0018
  754XCA     C5 6801   3.959  -0.284   6.434  0.2992  0.2176 -0.0125
  754XCA     C6 6802   3.757  -0.514   6.619  0.1812 -0.4492  0.3174
  755PNCE   AM1 6803   1.480  11.317   4.829  0.0817 -0.0040  0.0247
  755PNCE   AM2 6804   1.183  11.526   4.765  0.4327 -0.0872  0.1427
  755PNCE   T1A 6805   1.360  11.386   5.321 -0.0062 -0.1248 -0.1485
  755PNCE   C2A 6806   0.987  11.448   5.728  0.5838 -0.1666 -0.1725
  755PNCE   C3A 6807   0.527  11.362   5.725  0.3659 -0.1405  0.0212
  755PNCE   C1B 6808   1.174  11.807   5.126 -0.0271 -0.2044  0.1795
  755PNCE   C2B 6809   1.416  11.938   5.494 -0.2326 -0.1286 -0.0285
  755PNCE   C3B 6810   1.642  12.016   5.893 -0.1826  0.3885  0.1488
  755PNCE   D4B 6811   1.533  12.249   6.367 -0.0608  0.0659  0.0848
  755PNCE   C5B 6812   1.645  12.181   6.653  0.2731  0.1119 -0.3743
  755PNCE   C6B 6813   1.627  12.288   7.128 -0.0802  0.0293 -0.1099
  756CHOL   ROH 6814   0.303   8.825   7.092 -0.1094  0.0537 -0.1608
  756CHOL    R1 6815   0.050   8.699   7.111 -0.1003  0.0391 -0.1410
  756CHOL    R2 6816  -0.027   8.494   6.943 -0.1143  0.0589 -0.1579
  756CHOL    R3 6817  -0.074   8.364   7.177 -0.0743  0.0244 -0.1684
  756CHOL    R4 6818  -0.287   8.273   6.998 -0.1194  0.0699 -0.1343
  756CHOL    R5 6819  -0.312   8.360   7.197 -0.0697  0.0394 -0.1158
  756CHOL    C1 6820  -0.483   8.023   7.250 -0.0847  0.0439 -0.1305
  756CHOL    C2 6821  -0.778   7.771   7.357 -0.3100 -0.2610 -0.1730
  757CHOL   ROH 6822   0.966   0.695   4.395  0.1594  0.0309 -0.0216
  757CHOL    R1 6823   0.823   0.782   4.623  0.1672  0.1275 -0.0535
  757CHOL    R2 6824   0.793   0.625   4.849 -0.0305  0.1255 -0.0798
  757CHOL    R3 6825   0.896   0.844   4.974  0.1199  0.0255 -0.0248
  757CHOL    R4 6826   0.744   0.703   5.182 -0.2351  0.2330 -0.1333
  757CHOL    R5 6827   0.723   0.913   5.125  0.0631  0.2537 -0.1878
  757CHOL    C1 6828   0.812   0.954   5.494 -0.2130  0.2017 -0.1128
  757CHOL    C2 6829   0.896   0.689   5.723 -0.1687  0.0463 -0.0489
  758CHOL   ROH 6830   0.890  12.622   5.769  0.3051 -0.1762 -0.0441
  758CHOL    R1 6831   0.980  12.655   6.035  0.1678 -0.0926 -0.0060
  758CHOL    R2 6832   0.845  12.551   6.252  0.0597 -0.0407 -0.0377
  758CHOL    R3 6833   1.087  12.439   6.308  0.0411 -0.0102  0.1061
  758CHOL    R4 6834   0.941  12.433   6.563 -0.0308  0.1028  0.0461
  758CHOL    R5 6835   1.139  12.517   6.528 -0.0304  0.0852  0.0808
  758CHOL    C1 6836   1.223  12.258   6.795 -0.1010  0.2149  0.2299
  758CHOL    C2 6837   1.263  11.940   6.994  0.3219 -0.0424  0.0967
  759CHOL   ROH 6838  10.826  14.209   3.848  0.1875 -0.0551 -0.0713
  759CHOL    R1 6839  10.743  14.123   4.104 -0.0485  0.0760 -0.0993
  759CHOL    R2 6840  10.916  14.008   4.286 -0.3073 -0.2885 -0.0587
  759CHOL    R3 6841  10.825  14.205   4.450  0.0300 -0.1122 -0.0755
  759CHOL    R4 6842  10.885  13.981   4.629 -0.0963 -0.0785 -0.0209
  759CHOL    R5 6843  10.696  14.089   4.615  0.0216  0.1199  0.0721
  759CHOL    C1 6844  10.780  14.149   4.983  0.3431  0.2093 -0.0147
  759CHOL    C2 6845  10.857  13.796   5.248  0.2404 -0.1046 -0.0175
  760CHOL   ROH 6846   0.201   0.083   4.366 -0.2204  0.2167 -0.1100
  760CHOL    R1 6847   0.242   0.166   4.633  0.0230 -0.1452 -0.0265
  760CHOL    R2 6848   0.076   0.348   4.759  0.5561  0.2672  0.1209
  760CHOL    R3 6849   0.057   0.151   4.946 -0.0609  0.1344 -0.0609
  760CHOL    R4 6850  -0.013   0.397   5.090  0.7051  0.2410  0.1654
  760CHOL    R5 6851   0.139   0.252   5.147  0.2630 -0.3026  0.0383
  760CHOL    C1 6852  -0.083   0.242   5.457  0.2127  0.1012  0.0207
  760CHOL    C2 6853  -0.132   0.018   5.831  0.0840 -0.0527  0.2132
  761CHOL   ROH 6854   2.771   4.101   8.032 -0.0400  0.0221  0.0393
  761CHOL    R1 6855   2.844   4.168   7.767  0.0089  0.0509  0.0599
  761CHOL    R2 6856   2.722   4.373   7.626 -0.0683 -0.0293  0.0077
  761CHOL    R3 6857   2.978   4.459   7.595 -0.1088  0.1230  0.0897
  761CHOL    R4 6858   2.832   4.583   7.375 -0.0755 -0.1110 -0.0644
  761CHOL    R5 6859   3.012   4.463   7.359  0.0139 -0.0008  0.1050
  761CHOL    C1 6860   3.135   4.787   7.200 -0.1177 -0.0156 -0.0296
  761CHOL    C2 6861   3.143   4.990   6.942  0.1816  0.2915 -0.2291
  762PNCE   AM1 6862   0.928   4.130   4.460 -0.1536  0.2881  0.1228
  762PNCE   AM2 6863   0.630   3.943   4.465 -0.0004 -0.1251 -0.2035
  762PNCE   T1A 6864   1.206   4.219   4.802  0.1118 -0.0783  0.0075
  762PNCE   C2A 6865   1.079   4.039   5.168  0.2389  0.1246 -0.0803
  762PNCE   C3A 6866   0.811   4.022   5.528 -0.0198  0.0362 -0.1048
  762PNCE   C1B 6867   0.510   3.673   4.701 -0.1424 -0.1548  0.2823
  762PNCE   C2B 6868   0.209   3.515   4.869  0.1384 -0.0643 -0.0757
  762PNCE   C3B 6869   0.056   3.042   4.915 -0.0922  0.1672 -0.0287
  762PNCE   D4B 6870   0.027   2.658   5.130  0.1108  0.1908  0.5082
  762PNCE   C5B 6871   0.202   2.590   5.584 -0.1585 -0.4213 -0.0777
  762PNCE   C6B 6872   0.265   2.967   5.800 -0.1050  0.3327 -0.2553
  763PNCE   AM1 6873   7.637  10.945   5.444 -0.3921  0.0059  0.1835
  763PNCE   AM2 6874   7.704  10.626   5.468 -0.3268 -0.2041 -0.4825
  763PNCE   T1A 6875   7.524  10.938   5.955 -0.1806  0.1494 -0.3184
  763PNCE   C2A 6876   7.452  10.836   6.322 -0.3962  0.0563  0.1415
  763PNCE   C3A 6877   7.216  10.636   6.539 -0.1698 -0.1331 -0.0297
  763PNCE   C1B 6878   7.469  10.452   5.912  0.2663 -0.0543 -0.0491
  763PNCE   C2B 6879   7.651  10.421   6.293 -0.1642 -0.2346  0.0545
  763PNCE   C3B 6880   7.964  10.463   6.702  0.2024 -0.0208 -0.0649
  763PNCE   D4B 6881   8.044  10.330   7.071 -0.0128  0.0281 -0.0396
  763PNCE   C5B 6882   7.694  10.074   7.340 -0.2336 -0.1192  0.2807
  763PNCE   C6B 6883   7.327   9.950   7.289 -0.0608  0.0382 -0.0874
  764CHOL   ROH 6884  10.947  15.148   7.021  0.3559 -0.3259 -0.2631
  764CHOL    R1 6885  10.769  15.312   6.874  0.2745 -0.2354 -0.0676
  764CHOL    R2 6886  10.813  15.380   6.610  0.2331  0.0906  0.0056
  764CHOL    R3 6887  10.564  15.278   6.575  0.2784  0.0147 -0.1010
  764CHOL    R4 6888  10.620  15.422   6.326  0.1972  0.3420  0.0647
  764CHOL    R5 6889  10.446  15.448   6.454  0.1919  0.1074  0.1091
  764CHOL    C1 6890  10.274  15.350   6.128  0.2188  0.4170 -0.0009
  764CHOL    C2 6891   9.957  15.498   5.961 -0.4654 -0.1120 -0.1813
  765PNCE   AM1 6892  12.195   2.084   4.480 -0.3605 -0.0682  0.1095
  765PNCE   AM2 6893  12.204   2.399   4.445 -0.1288  0.1142 -0.2573
  765PNCE   T1A 6894  12.088   1.771   4.488 -0.0441 -0.1586 -0.0619
  765PNCE   C2A 6895  11.777   1.524   4.547 -0.1426 -0.1493  0.2829
  765PNCE   C3A 6896  11.595   1.369   4.903  0.2608  0.2973  0.4100
  765PNCE   C1B 6897  12.274   2.402   4.845 -0.0439 -0.2226 -0.3369
  765PNCE   C2B 6898  12.288   2.237   5.177  0.0541 -0.0346  0.0375
  765PNCE   C3B 6899  12.093   1.962   5.496 -0.1699  0.0681 -0.3345
  765PNCE   D4B 6900  11.813   1.627   5.670  0.1028 -0.0856 -0.2530
  765PNCE   C5B 6901  11.415   1.491   5.368  0.0765 -0.3471  0.0601
  765PNCE   C6B 6902  11.071   1.123   5.396 -0.0616  0.0424 -0.1354
  766PNCE   AM1 6903   4.648   7.368   5.104 -0.2411 -0.0872  0.1094
  766PNCE   AM2 6904   4.697   7.714   5.107 -0.0704  0.0113  0.0126
  766PNCE   T1A 6905   4.810   7.254   5.365 -0.0450  0.0076  0.3439
  766PNCE   C2A 6906   5.077   6.981   5.582 -0.0500 -0.1508  0.1818
  766PNCE   C3A 6907   5.008   7.034   6.005 -0.2324 -0.0220  0.3765
  766PNCE   C1B 6908   4.748   7.698   5.533  0.2175 -0.0876 -0.1904
  766PNCE   C2B 6909   4.961   7.926   5.820  0.2468 -0.1113  0.0831
  766PNCE   C3B 6910   5.053   8.152   6.179  0.0496  0.3039  0.0187
  766PNCE   D4B 6911   5.137   8.374   6.552 -0.1532  0.0475  0.1915
  766PNCE   C5B 6912   4.806   8.328   6.926 -0.0090  0.3158  0.0387
  766PNCE   C6B 6913   4.799   8.490   7.251  0.1003 -0.0327 -0.1179
  767CHOL   ROH 6914   1.239   8.098   5.288  0.1872  0.1414 -0.0240
  767CHOL    R1 6915   1.184   8.189   5.551  0.1783  0.0717 -0.0010
  767CHOL    R2 6916   0.935   8.164   5.667  0.1713  0.0456 -0.0169
  767CHOL    R3 6917   1.076   8.040   5.865  0.1618 -0.0121 -0.0468
  767CHOL    R4 6918   0.821   8.115   5.990  0.1857  0.0100 -0.0175
  767CHOL    R5 6919   1.021   8.164   6.063  0.1972 -0.0377 -0.0225
  767CHOL    C1 6920   0.887   7.971   6.363  0.1852 -0.0648 -0.0459
  767CHOL    C2 6921   0.669   7.982   6.609  0.0021  0.0877  0.0093
  768XCA    COO 6922  14.109  14.581   3.689  0.0781 -0.0661  0.1461
  768XCA     C1 6923  13.955  14.673   4.059 -0.1253 -0.1165 -0.0534
  768XCA     C2 6924  13.852  14.570   4.556 -0.1636 -0.1189 -0.1333
  768XCA     C3 6925  13.917  14.465   4.997 -0.0614 -0.1686  0.1622
  768XCA     C4 6926  14.095  14.573   5.348 -0.3439  0.2140 -0.0031
  768XCA     C5 6927  14.440  14.735   5.528 -0.0975 -0.1394 -0.0487
  768XCA     C6 6928  14.820  14.849   5.777 -0.1980 -0.0572  0.1514
  769XCA    COO 6929   8.688   4.889   4.257 -0.1844 -0.2518 -0.3509
  769XCA     C1 6930   8.371   4.930   4.471 -0.2788  0.2009 -0.1491
  769XCA     C2 6931   8.297   4.717   4.875  0.2465 -0.1351 -0.1895
  769XCA     C3 6932   7.986   4.693   5.159  0.0581 -0.1246 -0.2429
  769XCA     C4 6933   8.114   4.754   5.634  0.2438  0.0892 -0.1641
  769XCA     C5 6934   8.353   5.050   5.903 -0.0650 -0.0813  0.0340
  769XCA     C6 6935   8.185   5.330   6.067  0.1840  0.2157  0.0619
  770PNCE   AM1 6936   5.032   8.398   5.151 -0.0384 -0.2255  0.0157
  770PNCE   AM2 6937   5.006   8.099   5.251 -0.1702  0.0366 -0.2390
  770PNCE   T1A 6938   5.144   8.543   5.553  0.1886  0.0540  0.1088
  770PNCE   C2A 6939   5.280   8.508   5.954 -0.0218 -0.2680 -0.1722
  770PNCE   C3A 6940   5.640   8.505   6.196  0.0972 -0.3413  0.0520
  770PNCE   C1B 6941   5.333   8.105   5.582  0.2317  0.2109 -0.0252
  770PNCE   C2B 6942   5.482   8.030   5.935 -0.2808 -0.1673  0.0657
  770PNCE   C3B 6943   5.522   8.093   6.356  0.1368 -0.2032 -0.0941
  770PNCE   D4B 6944   5.584   8.320   6.703  0.0994 -0.1173  0.4174
  770PNCE   C5B 6945   5.901   8.742   6.576 -0.0849  0.1107 -0.2257
  770PNCE   C6B 6946   6.287   8.848   6.641  0.3845  0.4099  0.0068
  771PNCE   AM1 6947  15.485   6.268   4.568  0.0028  0.2711  0.1455
  771PNCE   AM2 6948  15.118   6.428   4.553 -0.0024 -0.2611 -0.1778
  771PNCE   T1A 6949  15.454   6.081   4.923  0.0788  0.2443 -0.0778
  771PNCE   C2A 6950  15.228   5.930   5.263 -0.0294  0.2697 -0.1007
  771PNCE   C3A 6951  15.260   5.780   5.621 -0.0000  0.2422  0.3404
  771PNCE   C1B 6952  14.877   6.362   5.006  0.0987 -0.0946  0.0429
  771PNCE   C2B 6953  14.960   6.265   5.455 -0.0051  0.2650  0.0288
  771PNCE   C3B 6954  14.766   5.991   5.707  0.2117 -0.0793  0.0706
  771PNCE   D4B 6955  14.808   5.709   6.051 -0.0903  0.1059 -0.0048
  771PNCE   C5B 6956  15.003   5.338   6.072 -0.2380 -0.0033  0.3465
  771PNCE   C6B 6957  15.221   5.182   5.759  0.3332 -0.2241  0.2811
  772CHOL   ROH 6958   4.674   7.588   7.081 -0.0453 -0.1357  0.1790
  772CHOL    R1 6959   4.814   7.399   6.924 -0.1862 -0.0378 -0.0687
  772CHOL    R2 6960   4.812   7.404   6.647 -0.0821  0.4040 -0.0662
  772CHOL    R3 6961   5.082   7.406   6.677 -0.0859  0.0738  0.0412
  772CHOL    R4 6962   5.036   7.262   6.426 -0.1549  0.4254 -0.1556
  772CHOL    R5 6963   5.152   7.192   6.596 -0.2908  0.0887 -0.1923
  772CHOL    C1 6964   5.421   7.182   6.325 -0.2009  0.1279 -0.1070
  772CHOL    C2 6965   5.535   7.023   6.060 -0.0063 -0.0472  0.0243
  773PNCE   AM1 6966   3.857   8.652   5.218 -0.2897 -0.2112 -0.0940
  773PNCE   AM2 6967   3.479   8.762   5.141  0.0225  0.1189 -0.1447
  773PNCE   T1A 6968   3.819   8.718   5.708  0.0312  0.1029  0.3506
  773PNCE   C2A 6969   3.670   8.739   6.059  0.0880 -0.0182 -0.0286
  773PNCE   C3A 6970   3.732   8.777   6.524  0.0846  0.1365  0.1883
  773PNCE   C1B 6971   3.241   8.662   5.567 -0.3183  0.1647 -0.1209
  773PNCE   C2B 6972   3.195   8.625   5.976 -0.2505  0.0469  0.0842
  773PNCE   C3B 6973   3.110   8.596   6.390  0.0124  0.4214  0.1010
  773PNCE   D4B 6974   3.305   8.376   6.758  0.1149  0.1375 -0.0161
  773PNCE   C5B 6975   3.120   8.072   6.961  0.2086  0.0418 -0.1552
  773PNCE   C6B 6976   3.074   7.826   7.336  0.0338 -0.0132  0.0702
  774CHOL   ROH 6977   1.631  13.469   8.498 -0.2440 -0.3665 -0.0780
  774CHOL    R1 6978   1.510  13.447   8.243 -0.0733 -0.4060 -0.1582
  774CHOL    R2 6979   1.451  13.667   8.087 -0.2856 -0.4019 -0.0801
  774CHOL    R3 6980   1.597  13.533   7.901  0.0066 -0.1147 -0.0667
  774CHOL    R4 6981   1.403  13.690   7.746 -0.1421 -0.3306 -0.0960
  774CHOL    R5 6982   1.437  13.475   7.732  0.1769 -0.2772 -0.1730
  774CHOL    C1 6983   1.511  13.578   7.372  0.2158 -0.0194 -0.0929
  774CHOL    C2 6984   1.188  13.496   7.293  0.0074  0.0737 -0.0990
  775CHOL   ROH 6985  10.575   9.630   6.879 -0.0817  0.0252  0.1972
  775CHOL    R1 6986  10.520   9.881   6.760 -0.1678  0.0324  0.2549
  775CHOL    R2 6987  10.479  10.110   6.909  0.2849  0.0872  0.2956
  775CHOL    R3 6988  10.677  10.210   6.751  0.0284 -0.0634 -0.1407
  775CHOL    R4 6989  10.500  10.438   6.800  0.3575  0.1140  0.3848
  775CHOL    R5 6990  10.565  10.364   6.606 -0.1738  0.1123  0.1794
  775CHOL    C1 6991  10.697  10.722   6.589  0.1588 -0.0121  0.0272
  775CHOL    C2 6992  10.820  11.159   6.547  0.0137  0.2845 -0.1143
  776CHOL   ROH 6993  13.366  10.849   8.010  0.2737 -0.0547 -0.0374
  776CHOL    R1 6994  13.265  11.079   7.880  0.0304 -0.1232  0.0261
  776CHOL    R2 6995  13.410  11.220   7.692 -0.0936  0.1142  0.1049
  776CHOL    R3 6996  13.189  11.179   7.538 -0.0182 -0.0876  0.0468
  776CHOL    R4 6997  13.325  11.407   7.414 -0.2195  0.0726  0.1143
  776CHOL    R5 6998  13.117  11.399   7.478 -0.2292 -0.1494  0.0649
  776CHOL    C1 6999  13.068  11.477   7.108 -0.2218 -0.1410  0.0652
  776CHOL    C2 7000  12.762  11.657   6.951 -0.0050  0.0833 -0.3098
  777CHOL   ROH 7001   8.371   2.290   8.970  0.1117 -0.1612 -0.0065
  777CHOL    R1 7002   8.259   2.300   8.710 -0.0236 -0.1020  0.0531
  777CHOL    R2 7003   8.411   2.350   8.484 -0.1841  0.2322  0.0126
  777CHOL    R3 7004   8.300   2.118   8.397  0.0382  0.1638 -0.0966
  777CHOL    R4 7005   8.349   2.272   8.154 -0.0824  0.3148 -0.0264
  777CHOL    R5 7006   8.160   2.184   8.215 -0.0070  0.1123 -0.0802
  777CHOL    C1 7007   8.208   2.009   7.879  0.1854  0.2987 -0.1518
  777CHOL    C2 7008   8.045   1.676   7.639 -0.2247  0.0670  0.3061
  778PNCE   AM1 7009   2.586   5.771   5.377  0.0599 -0.4654  0.0219
  778PNCE   AM2 7010   2.913   5.709   5.298 -0.1733 -0.3733  0.0640
  778PNCE   T1A 7011   2.610   5.607   5.748 -0.2379  0.4583 -0.0292
  778PNCE   C2A 7012   2.687   5.748   6.231  0.2248  0.1252  0.0833
  778PNCE   C3A 7013   2.581   5.461   6.595  0.3153 -0.4172 -0.1272
  778PNCE   C1B 7014   3.065   5.835   5.782  0.0007 -0.0413 -0.4688
  778PNCE   C2B 7015   3.176   5.913   6.289  0.1941  0.0133  0.0030
  778PNCE   C3B 7016   2.955   5.861   6.719  0.1244  0.1871 -0.0456
  778PNCE   D4B 7017   2.730   5.993   7.048  0.2151 -0.1251 -0.1749
  778PNCE   C5B 7018   2.530   6.311   6.959  0.1060 -0.1109  0.3113
  778PNCE   C6B 7019   2.410   6.695   7.131 -0.1672 -0.2586 -0.0450
  779XCA    COO 7020   1.664   4.145   9.031 -0.0374  0.1750  0.0286
  779XCA     C1 7021   1.637   4.153   8.606 -0.1628  0.0752 -0.3345
  779XCA     C2 7022   1.456   4.179   8.226 -0.1621 -0.2754 -0.1716
  779XCA     C3 7023   1.200   4.418   7.835  0.0318 -0.1525  0.1418
  779XCA     C4 7024   1.180   4.797   7.515 -0.1625 -0.1516 -0.0508
  779XCA     C5 7025   0.926   5.149   7.492  0.1819  0.1159 -0.1441
  779XCA     C6 7026   0.760   5.398   7.220 -0.2322  0.0526  0.2339
  780PNCE   AM1 7027  14.278  15.703   4.525 -0.0196  0.0232  0.3162
  780PNCE   AM2 7028  14.017  15.625   4.454  0.2597 -0.2222 -0.0499
  780PNCE   T1A 7029  14.542  16.050   4.689  0.3539 -0.3154  0.1585
  780PNCE   C2A 7030  14.758  16.388   4.869 -0.0271 -0.1157  0.0649
  780PNCE   C3A 7031  14.918  16.461   5.296 -0.2810 -0.2330 -0.1019
  780PNCE   C1B 7032  14.004  15.435   4.890  0.0549  0.0161 -0.1193
  780PNCE   C2B 7033  14.064  15.107   5.270 -0.2375 -0.3737 -0.0852
  780PNCE   C3B 7034  13.974  14.893   5.694 -0.1254  0.1430  0.1863
  780PNCE   D4B 7035  14.020  14.626   5.969 -0.2052  0.0857 -0.0853
  780PNCE   C5B 7036  14.169  14.754   6.402 -0.2380 -0.0789 -0.2176
  780PNCE   C6B 7037  14.153  14.870   6.897  0.0620 -0.0041 -0.0683
  781PNCE   AM1 7038   2.588   1.634   3.987 -0.0128  0.1672  0.0633
  781PNCE   AM2 7039   2.713   1.370   4.101 -0.0708 -0.4867 -0.1813
  781PNCE   T1A 7040   2.601   1.802   4.434 -0.2391  0.2067 -0.2108
  781PNCE   C2A 7041   2.813   1.785   4.866  0.1256 -0.0154  0.1045
  781PNCE   C3A 7042   3.151   1.897   5.087  0.1011  0.1450  0.0380
  781PNCE   C1B 7043   2.558   1.331   4.522 -0.1812  0.0621 -0.1222
  781PNCE   C2B 7044   2.589   1.347   5.002  0.3075 -0.0172  0.1353
  781PNCE   C3B 7045   2.760   1.158   5.436 -0.0386  0.0394 -0.0749
  781PNCE   D4B 7046   2.899   0.815   5.644  0.2512 -0.0545 -0.2270
  781PNCE   C5B 7047   2.887   0.707   6.022 -0.1814 -0.1697  0.3232
  781PNCE   C6B 7048   2.905   0.493   6.388 -0.0420  0.1393 -0.0191
  782PNCE   AM1 7049   0.471  14.657   4.363 -0.0807 -0.0269 -0.3399
  782PNCE   AM2 7050   0.565  14.901   4.234  0.0274 -0.2405  0.2605
  782PNCE   T1A 7051   0.343  14.697   4.835  0.0345  0.2382  0.1537
  782PNCE   C2A 7052   0.224  14.627   5.230  0.1642  0.2447 -0.0106
  782PNCE   C3A 7053   0.078  14.245   5.297 -0.0399  0.1251  0.3099
  782PNCE   C1B 7054   0.549  15.139   4.670 -0.1883 -0.0231  0.0832
  782PNCE   C2B 7055   0.589  15.397   5.033 -0.3254  0.0140 -0.1110
  782PNCE   C3B 7056   0.669  15.778   5.268 -0.1236 -0.1799 -0.0753
  782PNCE   D4B 7057   0.849  15.960   5.641  0.0881  0.1016 -0.0477
  782PNCE   C5B 7058   1.146  15.721   5.913  0.0750 -0.2987  0.3268
  782PNCE   C6B 7059   1.313  15.426   6.195  0.0492  0.0745 -0.0835
  783PNCE   AM1 7060  13.043   9.365   5.189  0.0332 -0.3435  0.0115
  783PNCE   AM2 7061  13.071   9.070   5.266  0.0980 -0.2043 -0.2529
  783PNCE   T1A 7062  13.017   9.608   5.614  0.1437 -0.1561 -0.2890
  783PNCE   C2A 7063  12.914   9.873   5.982 -0.1955  0.4518  0.2016
  783PNCE   C3A 7064  12.647  10.109   6.223 -0.0709 -0.2130  0.0692
  783PNCE   C1B 7065  13.263   8.744   5.558  0.0572  0.1571 -0.1678
  783PNCE   C2B 7066  13.171   8.653   6.023  0.1567  0.0347 -0.0818
  783PNCE   C3B 7067  13.270   8.560   6.451  0.3277  0.3583 -0.0336
  783PNCE   D4B 7068  13.187   8.479   6.873  0.3149 -0.0655  0.0860
  783PNCE   C5B 7069  13.053   8.943   6.973  0.4004  0.0164 -0.2160
  783PNCE   C6B 7070  13.386   9.243   6.946  0.3413  0.0560 -0.0315
  784CHOL   ROH 7071   5.234  11.066   8.916  0.1535  0.0046  0.1529
  784CHOL    R1 7072   5.454  11.196   8.794  0.1055 -0.0187  0.0399
  784CHOL    R2 7073   5.608  11.076   8.599 -0.0365 -0.0173 -0.0750
  784CHOL    R3 7074   5.546  11.300   8.458 -0.0792  0.0183 -0.0006
  784CHOL    R4 7075   5.670  11.121   8.262  0.1432  0.1849 -0.0177
  784CHOL    R5 7076   5.729  11.326   8.305  0.0005  0.1990  0.1209
  784CHOL    C1 7077   5.648  11.357   7.933  0.2078  0.3360  0.0854
  784CHOL    C2 7078   5.756  11.759   7.902 -0.0684 -0.1363  0.2412
  785PNCE   AM1 7079  14.288   0.829   4.266  0.2752  0.1027  0.2132
  785PNCE   AM2 7080  14.380   0.577   4.405 -0.3332  0.4472 -0.1208
  785PNCE   T1A 7081  14.097   1.202   4.508  0.0577 -0.1422  0.0178
  785PNCE   C2A 7082  14.029   1.589   4.781  0.0259 -0.0646  0.1158
  785PNCE   C3A 7083  14.377   1.699   5.031  0.1298  0.1289  0.0261
  785PNCE   C1B 7084  14.294   0.674   4.784 -0.2779 -0.1586  0.0516
  785PNCE   C2B 7085  14.439   0.775   5.180 -0.3490  0.0240  0.0123
  785PNCE   C3B 7086  14.598   0.933   5.565 -0.0407  0.3497 -0.0085
  785PNCE   D4B 7087  14.453   0.949   5.871  0.2967 -0.0891 -0.0405
  785PNCE   C5B 7088  14.689   1.064   6.237  0.0632 -0.2633  0.1020
  785PNCE   C6B 7089  14.657   1.492   6.394 -0.2360  0.2114  0.1718
  786XCA    COO 7090   7.315   5.785   4.718 -0.0296  0.1553  0.3154
  786XCA     C1 7091   7.276   5.764   5.176  0.2447 -0.1112  0.3049
  786XCA     C2 7092   7.258   5.640   5.587  0.0912  0.0476  0.1106
  786XCA     C3 7093   7.286   5.616   5.997 -0.1405  0.1704 -0.0837
  786XCA     C4 7094   7.433   5.347   6.331 -0.1178  0.3633  0.2408
  786XCA     C5 7095   7.600   5.417   6.770  0.2196 -0.1387 -0.1005
  786XCA     C6 7096   7.879   5.190   6.971  0.0944 -0.0218 -0.2306
  787CHOL   ROH 7097  14.770  12.140   8.181 -0.0556  0.0361 -0.0641
  787CHOL    R1 7098  14.943  12.122   7.958  0.1380  0.0255  0.0840
  787CHOL    R2 7099  14.857  12.163   7.698  0.3099 -0.2167 -0.0170
  787CHOL    R3 7100  15.058  12.345   7.694  0.1668 -0.0563  0.0274
  787CHOL    R4 7101  15.008  12.284   7.412  0.3019 -0.1251  0.0182
  787CHOL    R5 7102  15.200  12.274   7.515  0.2791  0.0381  0.0782
  787CHOL    C1 7103  15.285  12.526   7.242  0.1628  0.0788  0.0803
  787CHOL    C2 7104  15.411  12.516   6.862  0.0415 -0.1654  0.1603
  788CHOL   ROH 7105   3.620   8.691   6.939  0.3692 -0.2768 -0.1383
  788CHOL    R1 7106   3.697   8.964   6.934  0.1659 -0.2161 -0.0743
  788CHOL    R2 7107   3.888   9.068   7.103  0.0857 -0.1097 -0.0454
  788CHOL    R3 7108   4.002   9.151   6.871  0.0289  0.0273 -0.0241
  788CHOL    R4 7109   4.122   9.321   7.079 -0.1662  0.1311  0.0046
  788CHOL    R5 7110   4.022   9.389   6.897 -0.2141  0.0464 -0.0003
  788CHOL    C1 7111   4.365   9.548   6.847 -0.3662  0.4001  0.0537
  788CHOL    C2 7112   4.621   9.789   6.975 -0.0297  0.1249  0.0662
  789XCA    COO 7113   6.276  13.838   5.190 -0.2541  0.0112 -0.5148
  789XCA     C1 7114   6.214  13.933   5.655 -0.1157 -0.3700  0.4273
  789XCA     C2 7115   6.199  14.084   6.041  0.0683  0.1286 -0.1840
  789XCA     C3 7116   6.100  14.143   6.453 -0.1236 -0.0435  0.1082
  789XCA     C4 7117   6.291  14.198   6.857 -0.2079  0.3402 -0.1850
  789XCA     C5 7118   6.332  14.053   7.252  0.0692 -0.0540  0.0131
  789XCA     C6 7119   6.014  14.067   7.578  0.1037 -0.1897 -0.0418
  790XCA    COO 7120   6.968   6.062   4.921  0.1554  0.1030  0.0804
  790XCA     C1 7121   6.921   6.274   5.378 -0.0733  0.1638  0.1059
  790XCA     C2 7122   6.952   6.459   5.762  0.3965  0.0125  0.3191
  790XCA     C3 7123   6.927   6.453   6.177 -0.2213 -0.4031 -0.0653
  790XCA     C4 7124   7.049   6.311   6.556  0.0606  0.1683  0.1371
  790XCA     C5 7125   7.427   6.349   6.907  0.4325  0.0241 -0.0750
  790XCA     C6 7126   7.505   6.523   7.282  0.2028 -0.1761 -0.1178
  791CHOL   ROH 7127   0.976   4.062   6.164  0.2155 -0.1910  0.1202
  791CHOL    R1 7128   1.050   4.249   6.363 -0.0070 -0.0103  0.0392
  791CHOL    R2 7129   0.867   4.418   6.484 -0.2369 -0.2475  0.0464
  791CHOL    R3 7130   0.967   4.309   6.712  0.0069 -0.0329  0.0446
  791CHOL    R4 7131   0.809   4.538   6.802 -0.1021 -0.1089  0.0186
  791CHOL    R5 7132   1.017   4.498   6.851 -0.0404  0.0833 -0.1012
  791CHOL    C1 7133   0.869   4.507   7.202  0.2053  0.1733  0.0007
  791CHOL    C2 7134   0.590   4.685   7.340  0.0752  0.0932 -0.1310
  792PNCE   AM1 7135   2.141   1.324   4.031  0.1284 -0.0395  0.2953
  792PNCE   AM2 7136   2.138   1.633   4.272  0.1643  0.0977  0.2636
  792PNCE   T1A 7137   2.183   1.067   4.379  0.1939 -0.0453 -0.1413
  792PNCE   C2A 7138   2.187   0.998   4.833  0.0812  0.0682 -0.1713
  792PNCE   C3A 7139   2.286   1.040   5.340 -0.1924 -0.1136 -0.1530
  792PNCE   C1B 7140   2.124   1.477   4.665  0.0024 -0.0690 -0.0093
  792PNCE   C2B 7141   2.060   1.524   5.115  0.2390  0.0314 -0.0114
  792PNCE   C3B 7142   2.259   1.492   5.561 -0.0903 -0.1866  0.2070
  792PNCE   D4B 7143   2.559   1.346   5.872 -0.2258 -0.0023  0.1604
  792PNCE   C5B 7144   2.970   1.267   5.918 -0.3326  0.0611 -0.1919
  792PNCE   C6B 7145   3.362   1.094   5.888  0.2023 -0.0222  0.2815
  793XCA    COO 7146  10.493   3.085   8.479 -0.0920 -0.0675 -0.0067
  793XCA     C1 7147  10.491   2.853   8.112 -0.0141 -0.2053 -0.1601
  793XCA     C2 7148  10.452   2.815   7.585  0.1707  0.3036  0.2550
  793XCA     C3 7149  10.713   2.781   7.210 -0.1294 -0.0255 -0.1249
  793XCA     C4 7150  10.640   2.776   6.740 -0.1235 -0.2204  0.1255
  793XCA     C5 7151  10.585   3.089   6.474 -0.0854 -0.2765  0.0426
  793XCA     C6 7152  10.721   3.475   6.355  0.0271  0.0129 -0.0543
  794CHOL   ROH 7153  15.855   8.064   5.270 -0.0045  0.2433  0.2509
  794CHOL    R1 7154  15.759   8.061   5.537 -0.1393  0.1668  0.2026
  794CHOL    R2 7155  15.519   7.944   5.607 -0.0686 -0.0562  0.0845
  794CHOL    R3 7156  15.674   7.807   5.784 -0.0297  0.0971  0.1697
  794CHOL    R4 7157  15.398   7.742   5.860 -0.0104 -0.0196  0.1416
  794CHOL    R5 7158  15.553   7.821   5.991 -0.0775  0.1162  0.1406
  794CHOL    C1 7159  15.473   7.496   6.173  0.0602  0.1457  0.2548
  794CHOL    C2 7160  15.562   7.105   6.306 -0.2692 -0.2130  0.0027
  795PNCE   AM1 7161   3.698  13.215   4.984  0.0205  0.0725 -0.1190
  795PNCE   AM2 7162   3.421  13.360   4.942 -0.3476 -0.1337  0.0026
  795PNCE   T1A 7163   3.618  12.865   5.232  0.1041 -0.3500 -0.1251
  795PNCE   C2A 7164   3.411  12.873   5.673 -0.0456 -0.1684  0.0718
  795PNCE   C3A 7165   3.089  13.254   5.917  0.1146 -0.0080 -0.1777
  795PNCE   C1B 7166   3.473  13.363   5.375 -0.2075 -0.0012  0.0566
  795PNCE   C2B 7167   3.453  13.512   5.763  0.2880 -0.0512  0.0361
  795PNCE   C3B 7168   3.544  13.662   6.167  0.1192 -0.1041  0.0966
  795PNCE   D4B 7169   3.945  13.973   6.274  0.0371  0.3196 -0.0329
  795PNCE   C5B 7170   4.321  13.893   6.190 -0.4364  0.1758 -0.0329
  795PNCE   C6B 7171   4.532  14.126   6.485 -0.0488  0.1381  0.1633
  796XCA    COO 7172  13.590  11.349   8.226  0.1880  0.1821  0.0123
  796XCA     C1 7173  13.301  11.638   7.932  0.0869 -0.0551 -0.0023
  796XCA     C2 7174  13.177  11.885   7.499 -0.0879 -0.0889  0.1903
  796XCA     C3 7175  12.972  12.026   7.211 -0.3088 -0.1641  0.1176
  796XCA     C4 7176  12.669  12.208   6.894  0.1291  0.1448 -0.1863
  796XCA     C5 7177  12.782  12.520   6.585  0.0417  0.0831 -0.0138
  796XCA     C6 7178  13.118  12.522   6.360  0.0111  0.3722  0.0776
  797XCA    COO 7179   3.271  13.795   8.771 -0.1273 -0.2536  0.1035
  797XCA     C1 7180   3.479  13.402   8.478  0.1108  0.1948 -0.0025
  797XCA     C2 7181   3.578  13.277   8.152 -0.0172 -0.0426  0.4465
  797XCA     C3 7182   3.650  12.976   7.857 -0.0641  0.1462  0.0648
  797XCA     C4 7183   3.772  13.089   7.466 -0.0031  0.0589 -0.2873
  797XCA     C5 7184   3.834  13.089   7.024  0.0001 -0.0630  0.0066
  797XCA     C6 7185   4.168  13.018   6.653 -0.1289 -0.0183 -0.0314
  798PNCE   AM1 7186   4.684   3.194   4.426 -0.1717 -0.1731  0.0735
  798PNCE   AM2 7187   4.907   3.175   4.151 -0.4681 -0.1197 -0.0100
  798PNCE   T1A 7188   4.581   3.384   4.706  0.1630 -0.0991  0.0415
  798PNCE   C2A 7189   4.411   3.485   5.134 -0.1108 -0.0252  0.2457
  798PNCE   C3A 7190   4.289   3.355   5.553  0.0324  0.0529 -0.3530
  798PNCE   C1B 7191   5.230   3.065   4.577 -0.0166  0.1050 -0.0044
  798PNCE   C2B 7192   5.635   2.925   4.868 -0.3640  0.1504  0.4113
  798PNCE   C3B 7193   5.597   2.943   5.393 -0.1738  0.1658 -0.3491
  798PNCE   D4B 7194   5.656   3.202   5.731 -0.1224 -0.4061 -0.0172
  798PNCE   C5B 7195   5.962   3.372   5.993  0.2376 -0.1455  0.1209
  798PNCE   C6B 7196   6.290   3.418   6.188  0.2020  0.0480  0.4601
  799CHOL   ROH 7197   0.654   0.889   4.244 -0.0023 -0.0941 -0.0078
  799CHOL    R1 7198   0.625   1.102   4.427 -0.0394 -0.1288  0.0269
  799CHOL    R2 7199   0.456   1.089   4.645  0.0922 -0.2589  0.1209
  799CHOL    R3 7200   0.681   1.156   4.783  0.1265 -0.1221  0.0013
  799CHOL    R4 7201   0.459   1.226   4.962  0.1671 -0.0933  0.0496
  799CHOL    R5 7202   0.622   1.357   4.899  0.1080 -0.0767 -0.0814
  799CHOL    C1 7203   0.673   1.368   5.276  0.2429  0.1315 -0.1041
  799CHOL    C2 7204   0.481   1.485   5.635  0.0754  0.3326 -0.1061
  800PNCE   AM1 7205   6.534  10.385   5.173 -0.0877 -0.1363  0.0733
  800PNCE   AM2 7206   6.256  10.254   5.008  0.3331 -0.1459 -0.0033
  800PNCE   T1A 7207   6.488  10.728   5.551 -0.1550  0.0117  0.2005
  800PNCE   C2A 7208   6.499  10.948   6.003 -0.0302 -0.1440 -0.3178
  800PNCE   C3A 7209   6.177  11.070   6.345  0.2016 -0.4491 -0.2895
  800PNCE   C1B 7210   6.123  10.440   5.386  0.2340  0.0374 -0.2978
  800PNCE   C2B 7211   6.131  10.669   5.851 -0.3940 -0.4138 -0.2881
  800PNCE   C3B 7212   5.995  10.600   6.204  0.0016 -0.2423 -0.3066
  800PNCE   D4B 7213   5.695  10.543   6.527 -0.3047 -0.1448 -0.0722
  800PNCE   C5B 7214   5.365  10.297   6.624 -0.0620 -0.0675  0.1603
  800PNCE   C6B 7215   4.989  10.035   6.753  0.2532  0.1267  0.0348
  801CHOL   ROH 7216  13.277  13.795   7.336 -0.0689 -0.1351  0.1871
  801CHOL    R1 7217  13.241  13.701   7.071  0.0556 -0.0207  0.1281
  801CHOL    R2 7218  13.448  13.683   6.890  0.1691 -0.0707  0.2598
  801CHOL    R3 7219  13.365  13.425   6.869  0.0385 -0.0181  0.1144
  801CHOL    R4 7220  13.440  13.502   6.596  0.4210 -0.0141  0.2162
  801CHOL    R5 7221  13.250  13.417   6.659  0.2892  0.0881 -0.0318
  801CHOL    C1 7222  13.358  13.154   6.405  0.4453  0.0682  0.0541
  801CHOL    C2 7223  13.193  12.980   6.183 -0.0013 -0.1725  0.0363
  802CHOL   ROH 7224   9.792  13.957   5.258 -0.1163 -0.3037  0.1302
  802CHOL    R1 7225   9.793  13.793   5.489 -0.1373 -0.1692  0.2268
  802CHOL    R2 7226  10.008  13.782   5.663 -0.1169 -0.1379  0.2003
  802CHOL    R3 7227   9.819  13.843   5.849 -0.0688  0.0323  0.1962
  802CHOL    R4 7228  10.033  13.711   6.000 -0.1789 -0.1560  0.2014
  802CHOL    R5 7229   9.822  13.656   5.999 -0.2318  0.0278  0.1992
  802CHOL    C1 7230   9.870  13.727   6.371 -0.1699 -0.0067  0.1982
  802CHOL    C2 7231   9.818  13.727   6.758 -0.1268  0.4033 -0.0644
  803PNCE   AM1 7232   6.889   5.014   4.556 -0.0500  0.1129 -0.0369
  803PNCE   AM2 7233   6.664   4.867   4.524 -0.1989 -0.1353 -0.2895
  803PNCE   T1A 7234   7.082   4.846   4.977 -0.0512 -0.0175  0.2765
  803PNCE   C2A 7235   7.255   4.734   5.370  0.0870 -0.0307 -0.3114
  803PNCE   C3A 7236   7.096   4.649   5.763  0.0978 -0.3010 -0.0979
  803PNCE   C1B 7237   6.551   4.826   4.953 -0.2649  0.2770  0.0002
  803PNCE   C2B 7238   6.760   4.952   5.388 -0.0746  0.0241 -0.1836
  803PNCE   C3B 7239   6.581   4.994   5.865 -0.1039  0.0778 -0.1385
  803PNCE   D4B 7240   6.339   5.247   5.993  0.1476  0.1674  0.0194
  803PNCE   C5B 7241   6.341   5.591   6.200  0.1141  0.1867 -0.0101
  803PNCE   C6B 7242   6.285   5.710   6.690 -0.0205  0.2070  0.0861
  804PNCE   AM1 7243   8.921   0.820   5.378  0.1389  0.0167  0.0454
  804PNCE   AM2 7244   9.094   1.074   5.328 -0.2599  0.2737 -0.1210
  804PNCE   T1A 7245   9.059   0.772   5.803 -0.0802 -0.2026 -0.4246
  804PNCE   C2A 7246   9.265   0.463   6.025 -0.2757  0.3876 -0.2179
  804PNCE   C3A 7247   9.378   0.314   6.360 -0.0156 -0.1436 -0.1122
  804PNCE   C1B 7248   9.364   1.299   5.580 -0.0793  0.0934  0.0920
  804PNCE   C2B 7249   9.727   1.380   5.803 -0.2587 -0.3028 -0.0434
  804PNCE   C3B 7250  10.019   1.131   5.992 -0.1190 -0.0159  0.1062
  804PNCE   D4B 7251  10.395   0.941   5.967  0.5105  0.3345  0.0313
  804PNCE   C5B 7252  10.739   0.843   6.213  0.1219 -0.1078  0.2659
  804PNCE   C6B 7253  11.069   1.190   6.081 -0.2543  0.0204  0.0892
  805XCA    COO 7254  13.893   5.452   3.870 -0.0860  0.3187 -0.0176
  805XCA     C1 7255  13.866   5.323   4.333  0.1655  0.2214 -0.2719
  805XCA     C2 7256  13.612   5.319   4.691  0.0109  0.0547  0.0635
  805XCA     C3 7257  13.288   5.438   5.038  0.0687 -0.0399  0.1157
  805XCA     C4 7258  13.164   5.557   5.432  0.0903 -0.0392  0.0490
  805XCA     C5 7259  12.817   5.660   5.655  0.2093 -0.0032 -0.1029
  805XCA     C6 7260  12.494   5.740   5.895  0.1269  0.1823 -0.1516
  806PNCE   AM1 7261  13.040   0.706   3.777 -0.2426 -0.1924  0.4258
  806PNCE   AM2 7262  13.162   0.400   3.832 -0.1775 -0.0093 -0.0683
  806PNCE   T1A 7263  12.715   0.954   4.092 -0.2231 -0.1613 -0.3213
  806PNCE   C2A 7264  12.481   1.008   4.576 -0.0007 -0.4148 -0.0926
  806PNCE   C3A 7265  12.130   1.137   4.719  0.0788  0.2322 -0.1361
  806PNCE   C1B 7266  13.027   0.417   4.320  0.0347  0.2300  0.2909
  806PNCE   C2B 7267  12.747   0.276   4.666 -0.1320 -0.3537 -0.1208
  806PNCE   C3B 7268  12.563   0.360   5.120  0.0044 -0.0734 -0.0606
  806PNCE   D4B 7269  12.207   0.383   5.520  0.2784  0.1348  0.3480
  806PNCE   C5B 7270  12.056   0.818   5.623  0.0408 -0.1175  0.2215
  806PNCE   C6B 7271  11.966   1.149   5.799  0.0811 -0.0762 -0.1400
  807PNCE   AM1 7272  10.931   6.513   4.781 -0.1427  0.0110 -0.3343
  807PNCE   AM2 7273  10.589   6.668   4.826 -0.1734  0.1879  0.1747
  807PNCE   T1A 7274  11.027   6.563   5.174 -0.2800 -0.1884 -0.0157
  807PNCE   C2A 7275  11.046   6.734   5.614  0.0673  0.0496  0.4343
  807PNCE   C3A 7276  11.208   6.600   6.042 -0.0186  0.1042 -0.0342
  807PNCE   C1B 7277  10.634   6.825   5.320 -0.0384  0.0081  0.1398
  807PNCE   C2B 7278  10.595   6.673   5.775 -0.0530  0.0045 -0.1898
  807PNCE   C3B 7279  10.639   6.497   6.158  0.0654 -0.0039  0.1400
  807PNCE   D4B 7280  10.664   6.089   6.265 -0.2997  0.2046  0.1449
  807PNCE   C5B 7281  11.012   5.991   6.594  0.0280  0.0956  0.0286
  807PNCE   C6B 7282  11.176   5.590   6.629 -0.0973  0.2373  0.0357
  808PNCE   AM1 7283   6.564   0.598   4.863 -0.0370 -0.0511 -0.2251
  808PNCE   AM2 7284   6.817   0.436   4.973  0.1649  0.0974  0.0653
  808PNCE   T1A 7285   6.222   0.450   4.991  0.1950  0.1203 -0.2077
  808PNCE   C2A 7286   5.819   0.445   5.140 -0.0384  0.0603 -0.2470
  808PNCE   C3A 7287   5.605   0.666   5.509  0.1799 -0.1363 -0.1766
  808PNCE   C1B 7288   6.583   0.249   5.293 -0.1402  0.0966  0.1395
  808PNCE   C2B 7289   6.364   0.225   5.647  0.0620  0.0691 -0.2528
  808PNCE   C3B 7290   5.994   0.399   5.653  0.0467 -0.0683 -0.2154
  808PNCE   D4B 7291   5.696   0.373   5.933  0.1217 -0.0296 -0.1324
  808PNCE   C5B 7292   5.498   0.057   6.116 -0.0098  0.0283  0.1186
  808PNCE   C6B 7293   5.605  -0.087   6.487  0.0502  0.2041 -0.1326
  809CHOL   ROH 7294  12.770  12.822   4.448 -0.1989 -0.1997  0.0397
  809CHOL    R1 7295  12.667  12.792   4.710 -0.1633 -0.1348  0.0615
  809CHOL    R2 7296  12.741  12.956   4.919 -0.0607 -0.1437  0.0324
  809CHOL    R3 7297  12.473  12.992   4.944 -0.0427 -0.0367  0.0787
  809CHOL    R4 7298  12.581  13.058   5.208  0.0352 -0.0314  0.0467
  809CHOL    R5 7299  12.422  12.915   5.165 -0.0288  0.0213  0.1026
  809CHOL    C1 7300  12.236  13.151   5.399  0.1080  0.1347  0.0985
  809CHOL    C2 7301  12.125  13.356   5.682  0.1576 -0.0861  0.0392
  810PNCE   AM1 7302   9.745   3.080   4.513  0.1969  0.0617  0.3526
  810PNCE   AM2 7303   9.744   3.330   4.766  0.0635 -0.1415  0.3973
  810PNCE   T1A 7304   9.997   2.949   4.968  0.1020  0.0046  0.1449
  810PNCE   C2A 7305  10.105   3.020   5.382 -0.1553  0.2831 -0.0489
  810PNCE   C3A 7306  10.213   2.880   5.828 -0.1125 -0.1796 -0.0617
  810PNCE   C1B 7307   9.569   3.232   5.198 -0.1662 -0.0012  0.1471
  810PNCE   C2B 7308   9.444   3.307   5.660  0.0947  0.2285 -0.0905
  810PNCE   C3B 7309   9.294   3.381   6.074 -0.0659 -0.0343 -0.0047
  810PNCE   D4B 7310   8.925   3.569   6.201  0.1191 -0.1195  0.2448
  810PNCE   C5B 7311   8.593   3.550   6.454 -0.3477  0.1606 -0.2408
  810PNCE   C6B 7312   8.261   3.786   6.670 -0.4095  0.1120 -0.1373
  811PNCE   AM1 7313   1.899  11.087   4.944  0.0395 -0.1365 -0.0119
  811PNCE   AM2 7314   1.947  11.436   5.078 -0.0055  0.0977  0.2313
  811PNCE   T1A 7315   1.554  10.889   5.065 -0.1473  0.0494 -0.1572
  811PNCE   C2A 7316   1.262  10.623   5.251 -0.1765  0.0687 -0.0548
  811PNCE   C3A 7317   1.095  10.264   5.394 -0.0204  0.0158  0.0439
  811PNCE   C1B 7318   1.914  11.360   5.444 -0.0348 -0.0653 -0.3985
  811PNCE   C2B 7319   1.672  11.488   5.800 -0.0408  0.1243 -0.0300
  811PNCE   C3B 7320   1.346  11.606   6.046  0.1444 -0.2493  0.2731
  811PNCE   D4B 7321   1.072  12.022   5.913 -0.1399  0.1053  0.0277
  811PNCE   C5B 7322   0.840  11.915   5.614 -0.3254 -0.2700 -0.2782
  811PNCE   C6B 7323   0.543  11.876   5.278 -0.2894 -0.2093  0.0384
  812CHOL   ROH 7324  11.974   2.096   4.877 -0.0455 -0.0391  0.1132
  812CHOL    R1 7325  12.037   1.866   5.030  0.0502 -0.0105  0.1160
  812CHOL    R2 7326  11.844   1.701   5.138  0.1198 -0.0552  0.1662
  812CHOL    R3 7327  11.980   1.508   5.005  0.1462 -0.0296  0.1542
  812CHOL    R4 7328  11.868   1.372   5.240 -0.0561 -0.1178  0.0149
  812CHOL    R5 7329  12.078   1.374   5.178 -0.0109 -0.1515  0.1538
  812CHOL    C1 7330  12.011   0.998   5.174 -0.1337 -0.1302 -0.0844
  812CHOL    C2 7331  12.187   0.753   5.081 -0.2471 -0.1590 -0.1255
  813PNCE   AM1 7332  11.127  10.264   9.174 -0.0359  0.2178  0.3456
  813PNCE   AM2 7333  11.143  10.019   8.875  0.1108  0.1190 -0.1122
  813PNCE   T1A 7334  10.728  10.409   8.897 -0.0859 -0.2491 -0.0189
  813PNCE   C2A 7335  10.256  10.423   8.803 -0.0169  0.0235 -0.1030
  813PNCE   C3A 7336   9.869  10.512   8.566  0.2773  0.1270  0.1031
  813PNCE   C1B 7337  11.119   9.995   8.348  0.2138 -0.0241  0.1446
  813PNCE   C2B 7338  11.381   9.840   8.066 -0.3263  0.0451  0.0584
  813PNCE   C3B 7339  11.481  10.160   7.752 -0.1381 -0.1843 -0.0792
  813PNCE   D4B 7340  11.328  10.501   7.494 -0.0202 -0.4079 -0.0077
  813PNCE   C5B 7341  11.029  10.756   7.538 -0.1050  0.0096  0.1224
  813PNCE   C6B 7342  10.866  10.680   7.938  0.1218 -0.0359  0.0920
  814CHOL   ROH 7343  12.086  10.675   8.548 -0.0788 -0.0040  0.0646
  814CHOL    R1 7344  12.066  10.608   8.274 -0.1102 -0.0139  0.0691
  814CHOL    R2 7345  11.841  10.662   8.124 -0.1665 -0.1096  0.1169
  814CHOL    R3 7346  12.019  10.788   7.961 -0.2541 -0.0350  0.0782
  814CHOL    R4 7347  11.850  10.631   7.779 -0.1792 -0.1662  0.1218
  814CHOL    R5 7348  12.068  10.626   7.790 -0.1756 -0.0372  0.1030
  814CHOL    C1 7349  12.022  10.730   7.426 -0.2690 -0.1292  0.0884
  814CHOL    C2 7350  11.724  10.660   7.100 -0.3792  0.3373 -0.3463
  815XCA    COO 7351   7.334   2.661   4.876  0.2625  0.0056  0.0739
  815XCA     C1 7352   7.035   2.871   5.087  0.1645 -0.1177 -0.1592
  815XCA     C2 7353   7.010   2.861   5.419 -0.0001 -0.0186  0.1047
  815XCA     C3 7354   6.900   2.792   5.845  0.0617  0.1155 -0.0065
  815XCA     C4 7355   6.830   2.684   6.243 -0.1284 -0.2316  0.1874
  815XCA     C5 7356   6.957   2.560   6.699 -0.0163 -0.1203  0.1970
  815XCA     C6 7357   7.141   2.627   6.995  0.1969 -0.2316 -0.1788
  816PNCE   AM1 7358   7.640  12.404   5.662  0.1506  0.3815  0.0727
  816PNCE   AM2 7359   7.799  12.697   5.782  0.0349  0.4113 -0.0237
  816PNCE   T1A 7360   7.458  12.207   5.978  0.2957 -0.2424  0.0406
  816PNCE   C2A 7361   7.273  12.303   6.359 -0.4024 -0.1947  0.4818
  816PNCE   C3A 7362   6.911  12.287   6.723 -0.0053 -0.1453  0.1925
  816PNCE   C1B 7363   8.036  13.084   5.916 -0.0200 -0.1652 -0.1119
  816PNCE   C2B 7364   8.104  13.384   6.223  0.4295  0.2428  0.1113
  816PNCE   C3B 7365   7.990  13.564   6.599  0.1703  0.1033  0.0443
  816PNCE   D4B 7366   7.812  13.666   7.043  0.0421  0.0085 -0.1730
  816PNCE   C5B 7367   8.006  13.889   7.421  0.0191  0.1073 -0.0443
  816PNCE   C6B 7368   8.327  13.946   7.671 -0.0728  0.0465  0.2240
  817PNCE   AM1 7369  12.654  15.582   7.603 -0.0214  0.5504 -0.1081
  817PNCE   AM2 7370  12.453  15.233   7.664  0.0560 -0.3235 -0.1716
  817PNCE   T1A 7371  12.180  15.719   7.438  0.0436 -0.2599  0.3606
  817PNCE   C2A 7372  11.690  15.799   7.301 -0.1692 -0.0982  0.1059
  817PNCE   C3A 7373  11.449  15.595   6.938 -0.4483  0.4017 -0.3353
  817PNCE   C1B 7374  12.190  15.091   7.229 -0.2897  0.0058 -0.1115
  817PNCE   C2B 7375  11.820  14.922   7.180  0.0590 -0.2068  0.1243
  817PNCE   C3B 7376  11.425  15.116   7.140  0.1458 -0.2567  0.0702
  817PNCE   D4B 7377  11.288  15.177   6.728 -0.1539 -0.1450  0.1701
  817PNCE   C5B 7378  11.176  14.831   6.546 -0.4170  0.0792 -0.0269
  817PNCE   C6B 7379  11.043  14.670   6.200 -0.1262 -0.1342  0.1507
  818CHOL   ROH 7380  10.580   1.842   8.218  0.1157 -0.0244  0.0314
  818CHOL    R1 7381  10.385   1.740   8.040 -0.0149  0.1742  0.0570
  818CHOL    R2 7382  10.270   1.892   7.840  0.3264  0.2168 -0.1113
  818CHOL    R3 7383  10.355   1.688   7.681  0.0154 -0.0790  0.0886
  818CHOL    R4 7384  10.149   1.825   7.523  0.2481  0.1103 -0.0597
  818CHOL    R5 7385  10.156   1.612   7.571 -0.1016  0.1360  0.1448
  818CHOL    C1 7386  10.158   1.595   7.190 -0.0894 -0.2294  0.1582
  818CHOL    C2 7387   9.882   1.449   7.202  0.1678  0.4324 -0.2939
  819CHOL   ROH 7388  10.720  13.704   7.338 -0.0894 -0.0152 -0.0863
  819CHOL    R1 7389  10.802  13.613   7.083  0.2783 -0.0384  0.0372
  819CHOL    R2 7390  10.687  13.705   6.849  0.0758 -0.6163 -0.0917
  819CHOL    R3 7391  10.945  13.762   6.783 -0.0500  0.0933 -0.0626
  819CHOL    R4 7392  10.812  13.710   6.526  0.1906 -0.8068 -0.0544
  819CHOL    R5 7393  10.993  13.614   6.601  0.4944 -0.1117  0.2159
  819CHOL    C1 7394  11.126  13.765   6.277  0.1393 -0.2515 -0.0053
  819CHOL    C2 7395  11.335  13.577   6.056 -0.2137 -0.0685 -0.0340
  820CHOL   ROH 7396   7.409   3.119   4.683  0.2136 -0.1031  0.0111
  820CHOL    R1 7397   7.445   3.150   4.962  0.2044 -0.0093  0.0020
  820CHOL    R2 7398   7.686   3.229   5.073  0.1603  0.1634 -0.0261
  820CHOL    R3 7399   7.532   3.420   5.189  0.0494  0.1022 -0.0694
  820CHOL    R4 7400   7.691   3.309   5.409  0.2381  0.3546 -0.0715
  820CHOL    R5 7401   7.474   3.328   5.403  0.2162  0.1705  0.0079
  820CHOL    C1 7402   7.551   3.536   5.714  0.1793  0.4085 -0.1385
  820CHOL    C2 7403   7.544   3.270   5.982 -0.1834  0.1862 -0.1328
  821CHOL   ROH 7404   5.442   7.616   7.699 -0.0839  0.1565 -0.1678
  821CHOL    R1 7405   5.578   7.654   7.454  0.0131  0.1749 -0.1110
  821CHOL    R2 7406   5.849   7.707   7.440  0.0796 -0.1315 -0.0118
  821CHOL    R3 7407   5.850   7.492   7.274 -0.1359 -0.0166 -0.1687
  821CHOL    R4 7408   6.013   7.694   7.136  0.2827 -0.1558  0.0965
  821CHOL    R5 7409   5.841   7.587   7.054  0.1685  0.1665 -0.1095
  821CHOL    C1 7410   6.110   7.485   6.803  0.1986 -0.0621  0.0122
  821CHOL    C2 7411   6.488   7.364   6.596 -0.2740 -0.1312  0.0093
  822CHOL   ROH 7412   6.875  15.776   5.034 -0.0223  0.0697 -0.0572
  822CHOL    R1 7413   6.877  15.703   5.308  0.0539  0.0896 -0.0520
  822CHOL    R2 7414   7.013  15.848   5.499  0.0828  0.1219 -0.0947
  822CHOL    R3 7415   6.771  15.853   5.622  0.1113  0.0994 -0.0376
  822CHOL    R4 7416   6.958  15.954   5.823  0.1675 -0.0173 -0.0337
  822CHOL    R5 7417   6.817  15.790   5.848  0.1521 -0.0086 -0.0766
  822CHOL    C1 7418   6.698  16.021   6.127  0.2436 -0.1194  0.0553
  822CHOL    C2 7419   6.402  15.983   6.401  0.1067  0.1701  0.1894
  823PNCE   AM1 7420   0.609  13.963   4.153  0.0767  0.0098 -0.2248
  823PNCE   AM2 7421   0.771  14.177   4.314  0.2621  0.1370  0.2401
  823PNCE   T1A 7422   0.541  13.696   4.617 -0.2075 -0.0456 -0.2725
  823PNCE   C2A 7423   0.360  13.685   4.995 -0.2612  0.1329  0.1721
  823PNCE   C3A 7424   0.496  13.896   5.466 -0.0121 -0.0681  0.2068
  823PNCE   C1B 7425   0.565  14.260   4.745 -0.0896 -0.4255  0.1051
  823PNCE   C2B 7426   0.602  14.247   5.194 -0.0130  0.1079  0.1293
  823PNCE   C3B 7427   0.537  14.418   5.565  0.4095 -0.2350 -0.0394
  823PNCE   D4B 7428   0.215  14.261   5.807  0.0695 -0.2702  0.1218
  823PNCE   C5B 7429   0.110  14.579   6.143  0.1523 -0.0704  0.1609
  823PNCE   C6B 7430   0.106  14.874   6.488 -0.2053 -0.1528 -0.0683
  824PNCE   AM1 7431   8.269   2.752   4.984 -0.2130 -0.0663  0.1048
  824PNCE   AM2 7432   8.083   2.981   4.782 -0.0138 -0.3179  0.1785
  824PNCE   T1A 7433   8.111   2.718   5.431 -0.2447  0.0603 -0.1561
  824PNCE   C2A 7434   7.836   2.773   5.659 -0.0657  0.0243  0.4335
  824PNCE   C3A 7435   7.489   2.832   5.541  0.0799  0.2123 -0.2695
  824PNCE   C1B 7436   8.113   3.325   5.074 -0.4956 -0.4209 -0.0083
  824PNCE   C2B 7437   8.194   3.361   5.498  0.1165  0.1474  0.3642
  824PNCE   C3B 7438   8.036   3.173   5.860 -0.0586  0.0146 -0.1921
  824PNCE   D4B 7439   7.769   2.980   6.252  0.1956  0.2684 -0.2981
  824PNCE   C5B 7440   8.079   2.761   6.423  0.1862 -0.0169  0.1062
  824PNCE   C6B 7441   8.246   2.781   6.915  0.2082  0.2069  0.2513
  825XCA    COO 7442   0.134  14.030   4.391  0.0437 -0.1092 -0.2795
  825XCA     C1 7443  -0.071  13.806   4.810 -0.2925 -0.3817 -0.0995
  825XCA     C2 7444  -0.078  13.655   5.323 -0.0724 -0.3825 -0.0369
  825XCA     C3 7445  -0.252  13.459   5.554  0.3310  0.0940  0.1158
  825XCA     C4 7446  -0.607  13.296   5.911  0.0374 -0.4142 -0.2034
  825XCA     C5 7447  -0.796  12.975   5.947 -0.5135 -0.1128 -0.1755
  825XCA     C6 7448  -0.666  12.568   6.251 -0.0487 -0.1693 -0.1395
  826XCA    COO 7449  12.224   5.148   8.193 -0.2025  0.0591  0.4042
  826XCA     C1 7450  12.443   5.642   7.966  0.3595 -0.1479  0.1770
  826XCA     C2 7451  12.534   5.993   7.704  0.0395  0.1046  0.0015
  826XCA     C3 7452  12.438   6.363   7.339  0.0788 -0.2945 -0.0839
  826XCA     C4 7453  12.546   6.470   6.937  0.0298 -0.2475  0.1010
  826XCA     C5 7454  12.735   6.551   6.517  0.1521  0.1969  0.0307
  826XCA     C6 7455  13.099   6.357   6.372  0.4682  0.3052  0.0119
  827XCA    COO 7456   2.375  14.979   4.069 -0.2391  0.1280 -0.1299
  827XCA     C1 7457   2.481  15.310   4.323 -0.3453 -0.0374  0.1108
  827XCA     C2 7458   2.561  15.663   4.677  0.0580  0.3080  0.2237
  827XCA     C3 7459   2.725  15.755   5.065 -0.0793 -0.0868  0.1770
  827XCA     C4 7460   2.810  15.656   5.472 -0.2359 -0.0425 -0.1944
  827XCA     C5 7461   2.825  15.621   5.863 -0.0676  0.2296  0.2144
  827XCA     C6 7462   2.866  15.522   6.277 -0.1621  0.2457  0.2907
  828PNCE   AM1 7463  11.828   0.257   3.070 -0.1536  0.0640  0.0047
  828PNCE   AM2 7464  11.702   0.515   3.223 -0.1883  0.0579  0.0976
  828PNCE   T1A 7465  12.146   0.073   3.282  0.0636 -0.0188 -0.2064
  828PNCE   C2A 7466  12.392   0.065   3.650 -0.0723  0.0379 -0.2653
  828PNCE   C3A 7467  12.746   0.237   3.924  0.2086 -0.0042  0.0684
  828PNCE   C1B 7468  11.626   0.692   3.585  0.0662  0.2370  0.0371
  828PNCE   C2B 7469  11.600   0.935   3.914 -0.0453  0.0101  0.1111
  828PNCE   C3B 7470  11.508   1.271   4.158 -0.0771 -0.4082 -0.1940
  828PNCE   D4B 7471  11.242   1.463   4.484 -0.1890 -0.1588  0.2983
  828PNCE   C5B 7472  11.084   1.446   5.013 -0.0307  0.0474 -0.0184
  828PNCE   C6B 7473  10.624   1.481   5.196 -0.1453 -0.1106 -0.2625
  829PNCE   AM1 7474  14.790   3.378   3.522  0.2375  0.2001  0.1420
  829PNCE   AM2 7475  14.990   3.540   3.738  0.2125  0.2012  0.0023
  829PNCE   T1A 7476  14.504   3.445   3.933  0.0955  0.0096  0.1586
  829PNCE   C2A 7477  14.197   3.250   4.214  0.1980  0.1862 -0.3708
  829PNCE   C3A 7478  14.240   2.814   4.392 -0.2250 -0.0674  0.3592
  829PNCE   C1B 7479  14.934   3.248   4.158 -0.2735 -0.1153  0.0819
  829PNCE   C2B 7480  14.594   3.148   4.462  0.0993 -0.1450  0.1992
  829PNCE   C3B 7481  14.327   3.089   4.782  0.0277  0.1615  0.0942
  829PNCE   D4B 7482  13.990   2.935   4.985  0.1510  0.1307  0.0248
  829PNCE   C5B 7483  13.984   2.718   5.278  0.0135  0.0187 -0.2245
  829PNCE   C6B 7484  13.769   2.676   5.630  0.0042  0.0584  0.0786
  830PNCE   AM1 7485   9.852  12.296   4.385 -0.1117 -0.0019 -0.0067
  830PNCE   AM2 7486  10.007  12.156   4.643  0.0609 -0.1371  0.2586
  830PNCE   T1A 7487   9.576  12.261   4.841 -0.1993 -0.2431  0.0124
  830PNCE   C2A 7488   9.646  12.475   5.218  0.0480  0.2702 -0.0350
  830PNCE   C3A 7489   9.751  12.844   5.529 -0.4397 -0.0296  0.0977
  830PNCE   C1B 7490  10.096  12.307   5.061  0.2144 -0.2898  0.0865
  830PNCE   C2B 7491  10.168  12.555   5.420  0.0129 -0.6163 -0.0314
  830PNCE   C3B 7492  10.394  12.497   5.773 -0.0111  0.0421  0.1455
  830PNCE   D4B 7493  10.552  12.229   5.984 -0.0497 -0.0537 -0.3564
  830PNCE   C5B 7494  10.748  11.888   6.244 -0.1363  0.2473 -0.0931
  830PNCE   C6B 7495  10.828  11.451   6.190 -0.0008  0.2257 -0.2409
  831PNCE   AM1 7496   1.967   6.711   5.123 -0.0011 -0.1934 -0.0922
  831PNCE   AM2 7497   1.967   6.978   5.140  0.0568 -0.1972 -0.2201
  831PNCE   T1A 7498   1.881   6.496   5.446  0.2285  0.3320  0.0849
  831PNCE   C2A 7499   1.916   6.515   5.916 -0.1420 -0.2247 -0.0520
  831PNCE   C3A 7500   1.845   6.582   6.373 -0.0104 -0.1860  0.0583
  831PNCE   C1B 7501   1.625   6.908   5.436  0.0188  0.1310 -0.0954
  831PNCE   C2B 7502   1.508   6.887   5.868  0.0094 -0.1927 -0.3988
  831PNCE   C3B 7503   1.330   6.843   6.323  0.0342 -0.0263 -0.1092
  831PNCE   D4B 7504   1.330   6.867   6.710 -0.1605  0.1778 -0.4501
  831PNCE   C5B 7505   1.132   7.242   6.863 -0.1007 -0.2171  0.0292
  831PNCE   C6B 7506   0.956   7.545   6.506 -0.0514  0.0601  0.1630
  832XCA    COO 7507  14.504   4.594   4.733 -0.0238  0.0623 -0.2251
  832XCA     C1 7508  14.396   4.840   5.020 -0.0454 -0.0341  0.1435
  832XCA     C2 7509  14.203   5.184   4.896 -0.0029  0.1523 -0.0454
  832XCA     C3 7510  14.021   5.513   5.100 -0.1568  0.1432  0.0180
  832XCA     C4 7511  13.673   5.445   5.460  0.0735  0.0331 -0.2280
  832XCA     C5 7512  13.464   5.552   5.903 -0.1292  0.2968 -0.2003
  832XCA     C6 7513  13.214   5.657   6.246 -0.1663 -0.0709  0.2938
  833PNCE   AM1 7514  10.159   4.273   5.378 -0.2789  0.0807 -0.0489
  833PNCE   AM2 7515  10.130   4.587   5.271 -0.2544 -0.2193  0.0754
  833PNCE   T1A 7516   9.819   4.303   5.661 -0.0112 -0.1938  0.1314
  833PNCE   C2A 7517   9.750   4.501   6.007 -0.0594  0.1225 -0.3383
  833PNCE   C3A 7518   9.969   4.668   6.365 -0.0576  0.2662  0.0903
  833PNCE   C1B 7519   9.689   4.775   5.487 -0.0653  0.2230  0.0913
  833PNCE   C2B 7520   9.409   4.931   5.803  0.1356 -0.1413  0.0516
  833PNCE   C3B 7521   9.124   5.249   5.766  0.1673  0.1158  0.6255
  833PNCE   D4B 7522   8.681   5.444   5.866  0.0710 -0.2738  0.0820
  833PNCE   C5B 7523   8.662   5.427   6.349  0.0995 -0.3080  0.1470
  833PNCE   C6B 7524   8.774   5.666   6.663  0.1685 -0.1386 -0.3405
  834PNCE   AM1 7525  13.389  10.427   4.176  0.0292  0.0427 -0.0103
  834PNCE   AM2 7526  13.191  10.718   4.094 -0.2479  0.0976 -0.0180
  834PNCE   T1A 7527  13.400  10.615   4.581 -0.0793  0.0215  0.0694
  834PNCE   C2A 7528  13.495  10.942   4.925  0.3790  0.1772 -0.4313
  834PNCE   C3A 7529  13.607  11.316   5.100 -0.2224  0.3407  0.0505
  834PNCE   C1B 7530  13.239  11.086   4.353 -0.0311  0.2936 -0.0482
  834PNCE   C2B 7531  13.082  11.252   4.761  0.1075 -0.2662  0.1949
  834PNCE   C3B 7532  13.044  11.320   5.231 -0.0603 -0.0713  0.0295
  834PNCE   D4B 7533  12.818  11.624   5.567 -0.0833 -0.0887  0.1232
  834PNCE   C5B 7534  12.911  12.066   5.502  0.1661  0.0402 -0.2071
  834PNCE   C6B 7535  13.118  12.325   5.389  0.2691  0.0794 -0.1481
  835CHOL   ROH 7536  12.295   1.334   6.330 -0.0637  0.0919 -0.1663
  835CHOL    R1 7537  12.522   1.252   6.479 -0.0752 -0.0438 -0.2231
  835CHOL    R2 7538  12.722   1.096   6.370 -0.0555  0.0762 -0.3588
  835CHOL    R3 7539  12.882   1.297   6.458 -0.0750 -0.0010 -0.1386
  835CHOL    R4 7540  13.056   1.060   6.453 -0.0027  0.0503 -0.5757
  835CHOL    R5 7541  13.022   1.193   6.623  0.0379 -0.2070 -0.3567
  835CHOL    C1 7542  13.400   1.228   6.584  0.0098 -0.0374 -0.4953
  835CHOL    C2 7543  13.667   1.362   6.745  0.2254 -0.1277 -0.3006
  836CHOL   ROH 7544   8.047   9.982   5.847 -0.1766 -0.0337 -0.0080
  836CHOL    R1 7545   8.175   9.828   6.047  0.0529  0.0482 -0.0901
  836CHOL    R2 7546   8.433   9.878   6.131 -0.0650  0.4723  0.0255
  836CHOL    R3 7547   8.317   9.887   6.376 -0.1617  0.0605  0.0029
  836CHOL    R4 7548   8.595   9.811   6.429  0.0033  0.6027  0.0198
  836CHOL    R5 7549   8.416   9.705   6.496  0.1925  0.1745 -0.0992
  836CHOL    C1 7550   8.580   9.779   6.833 -0.0478  0.2919 -0.0046
  836CHOL    C2 7551   8.809   9.901   6.937  0.0282  0.0554 -0.2174
  837PNCE   AM1 7552   0.030  15.016   4.420  0.0805  0.2075  0.2464
  837PNCE   AM2 7553  -0.244  15.242   4.442  0.4581 -0.2580 -0.2159
  837PNCE   T1A 7554   0.044  15.081   4.858  0.0044  0.1581 -0.2478
  837PNCE   C2A 7555   0.236  15.174   5.261 -0.2213 -0.0860 -0.2234
  837PNCE   C3A 7556   0.182  14.944   5.693  0.0025 -0.1502  0.0182
  837PNCE   C1B 7557  -0.570  15.546   4.759  0.1502  0.3803 -0.2652
  837PNCE   C2B 7558  -0.737  15.447   5.069 -0.1023 -0.1741 -0.2441
  837PNCE   C3B 7559  -0.956  15.313   5.477 -0.0700 -0.1366  0.0968
  837PNCE   D4B 7560  -1.015  15.432   5.860  0.1097 -0.0451 -0.3735
  837PNCE   C5B 7561  -1.175  15.157   6.167  0.1200  0.0945  0.0089
  837PNCE   C6B 7562  -1.521  14.998   5.953  0.1778 -0.0729 -0.3212
  838PNCE   AM1 7563  10.316  10.188   5.281  0.1193  0.3422 -0.1927
  838PNCE   AM2 7564   9.999  10.245   5.321  0.1039  0.0068  0.1195
  838PNCE   T1A 7565  10.562  10.391   5.621 -0.1177  0.0391 -0.1630
  838PNCE   C2A 7566  10.772  10.545   6.034  0.3282  0.0927  0.2946
  838PNCE   C3A 7567  10.999  10.804   6.272  0.0061 -0.1675 -0.1031
  838PNCE   C1B 7568  10.161  10.109   5.776 -0.1783  0.2753  0.0973
  838PNCE   C2B 7569  10.568  10.084   6.033  0.0736 -0.2518  0.2210
  838PNCE   C3B 7570  10.880   9.968   6.393  0.5102 -0.1717  0.0621
  838PNCE   D4B 7571  11.169   9.940   6.748  0.1177 -0.2689  0.0633
  838PNCE   C5B 7572  11.455  10.194   6.732  0.0729 -0.0239  0.0363
  838PNCE   C6B 7573  11.491  10.582   6.684  0.2538  0.0428  0.0088
  839PNCE   AM1 7574   9.381   7.206   5.002  0.0943  0.0080  0.0131
  839PNCE   AM2 7575   9.232   6.932   4.886 -0.1439  0.1943 -0.1915
  839PNCE   T1A 7576   9.640   7.261   5.402  0.0497  0.6459 -0.0606
  839PNCE   C2A 7577   9.838   7.387   5.757  0.0118  0.2255  0.1381
  839PNCE   C3A 7578  10.148   7.527   6.055  0.2222  0.0477  0.1232
  839PNCE   C1B 7579   9.194   6.772   5.321  0.0765 -0.1238  0.2200
  839PNCE   C2B 7580   9.229   6.708   5.752  0.0037  0.4540  0.1263
  839PNCE   C3B 7581   9.602   6.855   5.977  0.3022  0.2578 -0.2738
  839PNCE   D4B 7582   9.907   6.910   5.796  0.0831 -0.0855 -0.4250
  839PNCE   C5B 7583  10.139   6.825   6.056 -0.0727 -0.1479  0.2613
  839PNCE   C6B 7584  10.377   7.100   6.297 -0.0008  0.1314  0.2963
  840XCA    COO 7585   5.184   7.694   9.033 -0.2714 -0.0378 -0.1439
  840XCA     C1 7586   5.141   7.694   8.664  0.0085  0.3154  0.0873
  840XCA     C2 7587   5.311   7.910   8.352  0.0780 -0.1022  0.2157
  840XCA     C3 7588   5.453   8.030   7.934 -0.2552 -0.2261  0.1639
  840XCA     C4 7589   5.961   7.863   7.832  0.0725  0.0569  0.0885
  840XCA     C5 7590   6.275   7.554   7.602 -0.0309 -0.3048  0.1220
  840XCA     C6 7591   6.393   7.403   7.154  0.0597 -0.0379 -0.2152
  841CHOL   ROH 7592  13.487  14.954   7.374 -0.1180  0.3715 -0.1151
  841CHOL    R1 7593  13.467  14.915   7.095 -0.1416  0.0654 -0.0746
  841CHOL    R2 7594  13.669  14.987   6.920 -0.2793  0.1612 -0.1974
  841CHOL    R3 7595  13.649  14.728   6.841  0.0416  0.0471  0.0679
  841CHOL    R4 7596  13.736  14.872   6.601 -0.3978 -0.0382 -0.1519
  841CHOL    R5 7597  13.563  14.741   6.618 -0.1871 -0.2932  0.1296
  841CHOL    C1 7598  13.756  14.561   6.341 -0.1657 -0.2612  0.1237
  841CHOL    C2 7599  13.633  14.317   5.974  0.0433  0.0024  0.1852
  842PNCE   AM1 7600   9.794   0.302   3.834 -0.2739  0.0676  0.1667
  842PNCE   AM2 7601   9.542   0.404   3.982  0.1568  0.1483  0.1727
  842PNCE   T1A 7602  10.163   0.351   3.937  0.0222 -0.1951  0.0338
  842PNCE   C2A 7603  10.300   0.470   4.291  0.1317 -0.1114  0.0990
  842PNCE   C3A 7604  10.571   0.733   4.613 -0.1587 -0.2379  0.3209
  842PNCE   C1B 7605   9.748   0.319   4.294  0.0410 -0.0212  0.1987
  842PNCE   C2B 7606  10.057   0.153   4.583 -0.0944  0.0467 -0.2430
  842PNCE   C3B 7607  10.366   0.364   4.860  0.0268  0.1070  0.1288
  842PNCE   D4B 7608  10.367   0.860   5.165 -0.0693  0.2507  0.3386
  842PNCE   C5B 7609  10.576   0.932   5.490  0.0292 -0.2453  0.0811
  842PNCE   C6B 7610  10.841   0.713   5.721  0.0258  0.3372  0.2118
  843CHOL   ROH 7611   3.978   1.028   4.053  0.2605  0.0846 -0.0989
  843CHOL    R1 7612   3.946   1.161   4.301  0.2271  0.0600 -0.0903
  843CHOL    R2 7613   3.698   1.221   4.407  0.2140 -0.0070 -0.0890
  843CHOL    R3 7614   3.795   1.086   4.623  0.2429  0.0030 -0.0950
  843CHOL    R4 7615   3.560   1.231   4.724  0.1601 -0.1108 -0.1084
  843CHOL    R5 7616   3.762   1.237   4.806  0.1489 -0.0341 -0.0778
  843CHOL    C1 7617   3.570   1.111   5.111  0.1557 -0.1620 -0.1254
  843CHOL    C2 7618   3.614   0.964   5.422  0.1482  0.0377 -0.0516
  844XCA    COO 7619   8.866  10.329   9.066  0.3041  0.0017  0.1720
  844XCA     C1 7620   8.818  10.486   8.694  0.2902 -0.0652 -0.1709
  844XCA     C2 7621   9.120  10.561   8.357  0.2676 -0.0668  0.1157
  844XCA     C3 7622   9.514  10.337   8.243  0.0428 -0.0425 -0.4466
  844XCA     C4 7623   9.575   9.969   8.078 -0.2114  0.0194  0.0609
  844XCA     C5 7624   9.599   9.644   7.885  0.1918 -0.0258 -0.0381
  844XCA     C6 7625   9.797   9.255   7.991  0.1114  0.0108 -0.0153
  845PNCE   AM1 7626   2.259   2.073   4.092  0.4054 -0.0604 -0.3697
  845PNCE   AM2 7627   1.952   2.190   4.235  0.3594 -0.2177  0.1639
  845PNCE   T1A 7628   2.310   2.500   4.294  0.6556  0.1561 -0.1584
  845PNCE   C2A 7629   2.489   2.695   4.636 -0.0707 -0.1654 -0.0050
  845PNCE   C3A 7630   2.756   2.596   4.901 -0.2371 -0.2464  0.3493
  845PNCE   C1B 7631   2.055   2.030   4.626 -0.0023 -0.1749 -0.0799
  845PNCE   C2B 7632   2.272   1.931   5.014  0.2422  0.0408 -0.0585
  845PNCE   C3B 7633   2.371   1.971   5.438 -0.2533 -0.2088 -0.2357
  845PNCE   D4B 7634   2.711   2.163   5.725  0.0376  0.1559  0.2601
  845PNCE   C5B 7635   3.115   2.225   5.463 -0.1887 -0.0846  0.1696
  845PNCE   C6B 7636   3.515   2.218   5.301  0.0186  0.0458 -0.1059
  846CHOL   ROH 7637   8.757   6.735   5.141  0.0434 -0.0746 -0.1067
  846CHOL    R1 7638   8.700   6.888   5.372 -0.1315  0.0072 -0.2015
  846CHOL    R2 7639   8.694   6.778   5.626 -0.2614  0.1086 -0.1597
  846CHOL    R3 7640   8.874   6.975   5.680 -0.3375  0.1699 -0.1291
  846CHOL    R4 7641   8.841   6.834   5.934 -0.1456  0.0023 -0.1947
  846CHOL    R5 7642   8.818   7.048   5.901 -0.2721  0.0113 -0.0592
  846CHOL    C1 7643   9.094   7.051   6.165 -0.1496 -0.0022 -0.1864
  846CHOL    C2 7644   9.168   7.298   6.509 -0.2781  0.0481  0.2127
  847XCA    COO 7645   6.578  11.645   5.427  0.0448  0.0795 -0.2608
  847XCA     C1 7646   6.091  11.680   5.594 -0.4001 -0.3081 -0.1037
  847XCA     C2 7647   5.858  11.678   5.870  0.0207 -0.2851  0.0390
  847XCA     C3 7648   5.815  11.474   6.250 -0.0335 -0.0477 -0.0800
  847XCA     C4 7649   5.718  11.182   6.565 -0.2087  0.0034  0.0824
  847XCA     C5 7650   5.490  11.043   6.841  0.0575  0.0718 -0.0500
  847XCA     C6 7651   5.511  10.629   6.955  0.1128 -0.2069 -0.0804
  848CHOL   ROH 7652   1.898   4.639   6.485  0.0632  0.1763  0.1746
  848CHOL    R1 7653   1.827   4.391   6.601  0.0792  0.2192  0.2792
  848CHOL    R2 7654   1.821   4.155   6.457 -0.3582  0.2298  0.2564
  848CHOL    R3 7655   1.986   4.068   6.654 -0.0624  0.0934 -0.0420
  848CHOL    R4 7656   1.838   3.829   6.571 -0.3669  0.2064  0.1903
  848CHOL    R5 7657   1.856   3.907   6.774  0.0439  0.1679  0.1704
  848CHOL    C1 7658   2.003   3.558   6.824 -0.0943  0.0648 -0.1283
  848CHOL    C2 7659   1.949   3.266   6.633  0.1057 -0.0858 -0.1647
  849CHOL   ROH 7660  15.618   5.136   6.772  0.0493  0.1564 -0.0919
  849CHOL    R1 7661  15.855   5.062   6.908  0.0479  0.1356 -0.1019
  849CHOL    R2 7662  16.017   4.855   6.824  0.0235  0.1241 -0.1075
  849CHOL    R3 7663  16.211   5.046   6.831  0.0452  0.1034 -0.1135
  849CHOL    R4 7664  16.351   4.796   6.892 -0.0076  0.0984  0.0292
  849CHOL    R5 7665  16.354   4.979   7.010 -0.0254  0.1468 -0.0352
  849CHOL    C1 7666  16.727   4.942   6.937 -0.0053  0.0640  0.1030
  849CHOL    C2 7667  17.030   5.002   7.070 -0.0402  0.1280  0.1145
  850CHOL   ROH 7668   5.772   7.435   5.276  0.2752 -0.1928  0.0268
  850CHOL    R1 7669   5.673   7.491   5.535  0.0719 -0.0692 -0.0752
  850CHOL    R2 7670   5.743   7.342   5.757 -0.1415  0.0038  0.0443
  850CHOL    R3 7671   5.813   7.585   5.857 -0.1745  0.0290  0.0063
  850CHOL    R4 7672   5.742   7.426   6.093 -0.0227  0.0107  0.0432
  850CHOL    R5 7673   5.661   7.621   6.039 -0.1082 -0.0153  0.0719
  850CHOL    C1 7674   5.807   7.702   6.382  0.0156  0.0382  0.0070
  850CHOL    C2 7675   5.874   7.895   6.673  0.2634 -0.2129  0.0580
  851PNCE   AM1 7676   5.057   4.771   5.433 -0.0512 -0.1599 -0.0864
  851PNCE   AM2 7677   5.205   4.562   5.221  0.1971  0.0381  0.1500
  851PNCE   T1A 7678   4.798   4.620   5.736 -0.4773  0.1213 -0.0845
  851PNCE   C2A 7679   4.803   4.375   6.142  0.1807  0.1903 -0.1776
  851PNCE   C3A 7680   5.219   4.315   6.204 -0.1538 -0.1583  0.0054
  851PNCE   C1B 7681   4.801   4.257   5.342 -0.0919 -0.0941 -0.1567
  851PNCE   C2B 7682   4.530   4.069   5.808 -0.1690 -0.1396 -0.1558
  851PNCE   C3B 7683   4.325   4.106   6.206 -0.1488 -0.1776  0.0287
  851PNCE   D4B 7684   4.140   4.220   6.660  0.0887 -0.4463 -0.0465
  851PNCE   C5B 7685   3.726   4.296   6.709 -0.1682 -0.1505 -0.0346
  851PNCE   C6B 7686   3.391   4.552   6.917  0.0615  0.0354 -0.1252
  852XCA    COO 7687   9.558  14.843   4.111  0.3886 -0.2841  0.2861
  852XCA     C1 7688   9.271  14.916   4.385 -0.0328 -0.0194  0.2452
  852XCA     C2 7689   9.167  14.880   4.884  0.1391 -0.2874 -0.0271
  852XCA     C3 7690   9.251  14.513   5.176  0.2696 -0.3279  0.0680
  852XCA     C4 7691   9.256  14.562   5.610  0.0038  0.0999 -0.1818
  852XCA     C5 7692   8.929  14.689   5.787 -0.0535 -0.1003  0.1783
  852XCA     C6 7693   8.615  14.648   6.132  0.0709  0.3491  0.1951
  853PNCE   AM1 7694   6.637  14.571   4.717 -0.1786  0.0741 -0.2795
  853PNCE   AM2 7695   6.271  14.488   4.694 -0.2024  0.1662  0.2536
  853PNCE   T1A 7696   6.892  14.424   5.239  0.0466  0.0560  0.0020
  853PNCE   C2A 7697   7.010  14.401   5.681 -0.0414 -0.0633  0.1036
  853PNCE   C3A 7698   7.048  14.490   6.086  0.1725 -0.0353 -0.1062
  853PNCE   C1B 7699   5.944  14.631   4.970  0.0858 -0.3163  0.0815
  853PNCE   C2B 7700   5.914  14.762   5.433  0.1522  0.2120 -0.0988
  853PNCE   C3B 7701   5.820  14.857   5.881 -0.1280 -0.0038  0.0772
  853PNCE   D4B 7702   5.663  14.936   6.294  0.0167 -0.2952  0.0652
  853PNCE   C5B 7703   5.819  14.680   6.654  0.0421 -0.0913 -0.0616
  853PNCE   C6B 7704   6.050  14.663   7.070 -0.0974 -0.0101  0.2153
  854CHOL   ROH 7705   0.809  14.348   7.831 -0.1747  0.0418  0.0169
  854CHOL    R1 7706   0.724  14.408   7.567  0.0621  0.1997 -0.0274
  854CHOL    R2 7707   0.900  14.436   7.357  0.2308 -0.0043  0.0801
  854CHOL    R3 7708   0.741  14.248   7.241  0.0430  0.2244 -0.0398
  854CHOL    R4 7709   0.966  14.280   7.055  0.3795 -0.2973  0.2605
  854CHOL    R5 7710   0.754  14.296   7.006  0.4710  0.0728 -0.0533
  854CHOL    C1 7711   0.855  14.013   6.771  0.2897 -0.2532  0.2530
  854CHOL    C2 7712   0.797  13.983   6.449  0.0518 -0.0859 -0.1435
  855PNCE   AM1 7713   6.188   9.375   8.986  0.1389 -0.0882  0.2353
  855PNCE   AM2 7714   6.259   9.103   9.093 -0.2457  0.1453 -0.2962
  855PNCE   T1A 7715   6.370   9.381   8.549  0.3948  0.0682 -0.0589
  855PNCE   C2A 7716   6.370   9.056   8.184  0.0622 -0.0938  0.2542
  855PNCE   C3A 7717   6.280   8.627   8.152 -0.3897  0.1818 -0.3759
  855PNCE   C1B 7718   6.066   8.906   8.689 -0.1188  0.0703 -0.1192
  855PNCE   C2B 7719   5.823   8.773   8.380  0.2702  0.0564 -0.0564
  855PNCE   C3B 7720   5.885   8.841   7.943  0.1343 -0.0738  0.0124
  855PNCE   D4B 7721   5.963   8.982   7.598  0.0489  0.3085 -0.4138
  855PNCE   C5B 7722   5.668   8.994   7.352 -0.1372  0.0818  0.0540
  855PNCE   C6B 7723   5.629   8.720   7.022  0.1548  0.0080 -0.1821
  856CHOL   ROH 7724  11.724   6.447   7.883 -0.0177 -0.1163 -0.0229
  856CHOL    R1 7725  11.645   6.400   7.616 -0.0817 -0.0333 -0.0190
  856CHOL    R2 7726  11.493   6.580   7.472 -0.0021  0.0729  0.0287
  856CHOL    R3 7727  11.697   6.559   7.293 -0.0380 -0.0144 -0.0028
  856CHOL    R4 7728  11.476   6.678   7.141 -0.0145  0.0706  0.0287
  856CHOL    R5 7729  11.589   6.500   7.087 -0.0946  0.0229  0.0157
  856CHOL    C1 7730  11.657   6.716   6.780 -0.0555 -0.0126 -0.0009
  856CHOL    C2 7731  11.441   6.825   6.441  0.0990 -0.4149 -0.0554
  857CHOL   ROH 7732   2.296   8.719   7.617  0.2449 -0.0222 -0.0170
  857CHOL    R1 7733   2.493   8.562   7.487  0.1967  0.0343 -0.1605
  857CHOL    R2 7734   2.531   8.295   7.543  0.3995  0.0740 -0.0953
  857CHOL    R3 7735   2.497   8.266   7.275  0.1350 -0.0441 -0.0520
  857CHOL    R4 7736   2.653   8.031   7.356  0.1521 -0.0436 -0.0949
  857CHOL    R5 7737   2.704   8.173   7.199  0.0378 -0.1312 -0.2105
  857CHOL    C1 7738   2.693   7.851   6.995 -0.2403 -0.2229 -0.0542
  857CHOL    C2 7739   2.607   7.592   6.635 -0.1963 -0.0314 -0.0404
  858CHOL   ROH 7740   9.420  12.015   5.194 -0.0310 -0.0459  0.1735
  858CHOL    R1 7741   9.492  12.054   5.465  0.0426  0.1189  0.1332
  858CHOL    R2 7742   9.503  12.305   5.582 -0.0825  0.1852  0.0257
  858CHOL    R3 7743   9.334  12.192   5.763  0.0540  0.1420  0.1251
  858CHOL    R4 7744   9.484  12.393   5.916 -0.0129  0.2571  0.0101
  858CHOL    R5 7745   9.462  12.182   5.965  0.1271  0.2684  0.0776
  858CHOL    C1 7746   9.314  12.338   6.280  0.1558  0.2583  0.0944
  858CHOL    C2 7747   9.302  12.384   6.623  0.0062 -0.2102 -0.1674
  859CHOL   ROH 7748  14.602   7.562   8.051  0.0453 -0.0979  0.0923
  859CHOL    R1 7749  14.419   7.766   7.979  0.0322 -0.0940  0.1354
  859CHOL    R2 7750  14.408   7.873   7.725  0.0907  0.0270  0.1822
  859CHOL    R3 7751  14.145   7.805   7.742  0.0971 -0.0271  0.0710
  859CHOL    R4 7752  14.153   8.022   7.545  0.1006  0.1771  0.2912
  859CHOL    R5 7753  14.028   8.013   7.724  0.0727 -0.0221  0.2643
  859CHOL    C1 7754  13.758   8.045   7.457  0.1125  0.2138  0.2502
  859CHOL    C2 7755  13.412   8.057   7.372  0.4265 -0.0713 -0.2010
  860PNCE   AM1 7756   5.961  11.939   4.681  0.0686  0.2565  0.3241
  860PNCE   AM2 7757   5.975  12.101   4.960  0.0131  0.3112 -0.0043
  860PNCE   T1A 7758   5.707  11.602   4.942 -0.2798 -0.0450  0.4040
  860PNCE   C2A 7759   5.765  11.237   5.377  0.0330 -0.1862 -0.0111
  860PNCE   C3A 7760   5.853  10.874   5.503  0.3079 -0.3485 -0.1171
  860PNCE   C1B 7761   5.800  12.416   5.160 -0.2372 -0.1157 -0.0709
  860PNCE   C2B 7762   5.556  12.557   5.498  0.1814  0.2459  0.1766
  860PNCE   C3B 7763   5.480  12.569   5.935 -0.0318 -0.3180 -0.1504
  860PNCE   D4B 7764   5.593  12.748   6.284  0.1281  0.3140 -0.1348
  860PNCE   C5B 7765   5.397  12.976   6.663  0.0066 -0.0798 -0.2520
  860PNCE   C6B 7766   5.108  13.173   6.934 -0.1860  0.1133 -0.0290
  861PNCE   AM1 7767  13.377   1.053   7.442 -0.2133  0.2111  0.1674
  861PNCE   AM2 7768  13.306   1.412   7.488  0.3216  0.1590  0.0825
  861PNCE   T1A 7769  13.380   0.644   7.315  0.2115  0.1766 -0.0248
  861PNCE   C2A 7770  13.413   0.396   7.053 -0.1967 -0.0411 -0.4003
  861PNCE   C3A 7771  13.874   0.259   6.829  0.1211  0.2257 -0.1544
  861PNCE   C1B 7772  13.328   1.497   7.104  0.2583  0.0771 -0.3381
  861PNCE   C2B 7773  13.182   1.633   6.696  0.4063  0.1002  0.2075
  861PNCE   C3B 7774  13.002   1.715   6.300  0.2739 -0.0685  0.2088
  861PNCE   D4B 7775  13.071   1.949   5.914  0.1824 -0.0037  0.1211
  861PNCE   C5B 7776  12.750   1.852   5.549 -0.2244  0.1945  0.0686
  861PNCE   C6B 7777  12.509   1.741   5.229  0.0631 -0.1095  0.1185
  862XCA    COO 7778  13.469   0.128   4.439 -0.3048 -0.0721 -0.0680
  862XCA     C1 7779  13.340   0.413   4.768  0.1689  0.0457  0.0262
  862XCA     C2 7780  13.070   0.331   5.125 -0.0803  0.1616 -0.2430
  862XCA     C3 7781  12.986   0.008   5.461 -0.3427  0.2791 -0.0963
  862XCA     C4 7782  12.624  -0.222   5.511 -0.0767 -0.1683 -0.2017
  862XCA     C5 7783  12.595  -0.550   5.667  0.3355  0.1112 -0.1189
  862XCA     C6 7784  12.229  -0.905   5.866 -0.2881 -0.2167  0.0861
  863CHOL   ROH 7785  14.328   8.359   8.893 -0.0012  0.3118 -0.1309
  863CHOL    R1 7786  14.272   8.255   8.636  0.0726  0.2654 -0.1274
  863CHOL    R2 7787  14.027   8.148   8.569  0.1645  0.0540 -0.1106
  863CHOL    R3 7788  14.039   8.328   8.366 -0.0088  0.0638 -0.1155
  863CHOL    R4 7789  13.839   8.131   8.279  0.2570 -0.2069 -0.1594
  863CHOL    R5 7790  14.016   8.196   8.168  0.2133  0.0145 -0.1166
  863CHOL    C1 7791  13.742   8.291   7.920  0.1481 -0.3495 -0.1923
  863CHOL    C2 7792  13.451   8.419   7.710  0.0311  0.0134 -0.0802
  864PNCE   AM1 7793  10.772  10.637   4.617 -0.2017  0.0688 -0.1383
  864PNCE   AM2 7794  10.647  10.958   4.738  0.0120 -0.3306 -0.1336
  864PNCE   T1A 7795  11.003  10.578   4.967 -0.3263  0.4493  0.0912
  864PNCE   C2A 7796  11.028  10.515   5.436  0.0524 -0.2574 -0.3545
  864PNCE   C3A 7797  11.245  10.685   5.794 -0.0289  0.4290 -0.2020
  864PNCE   C1B 7798  10.923  11.141   4.991 -0.0391 -0.3845 -0.0976
  864PNCE   C2B 7799  11.139  11.021   5.329 -0.1760 -0.1757 -0.0061
  864PNCE   C3B 7800  11.562  10.993   5.464 -0.4944  0.0374 -0.0836
  864PNCE   D4B 7801  12.069  10.955   5.512 -0.1616 -0.2169  0.0813
  864PNCE   C5B 7802  12.253  10.917   5.990 -0.2596  0.0482  0.3235
  864PNCE   C6B 7803  12.530  10.817   6.511 -0.1108  0.3854 -0.0573
  865PNCE   AM1 7804   6.617   7.683   5.400  0.0558 -0.0913  0.1376
  865PNCE   AM2 7805   6.394   7.465   5.152 -0.3141  0.1685 -0.0334
  865PNCE   T1A 7806   6.760   7.531   5.769 -0.0788  0.6169  0.2915
  865PNCE   C2A 7807   6.750   7.507   6.165 -0.1377 -0.0795 -0.0973
  865PNCE   C3A 7808   6.838   7.803   6.547 -0.0563  0.2657 -0.0653
  865PNCE   C1B 7809   6.107   7.093   5.488 -0.1336 -0.0758  0.1500
  865PNCE   C2B 7810   5.957   6.929   5.868  0.1349  0.1648  0.1819
  865PNCE   C3B 7811   5.801   6.587   6.206  0.0651 -0.2067  0.0770
  865PNCE   D4B 7812   5.591   6.144   6.166 -0.1351  0.2564  0.3141
  865PNCE   C5B 7813   5.505   5.823   6.490  0.0006  0.1616  0.1733
  865PNCE   C6B 7814   5.863   5.551   6.699 -0.0406 -0.2699  0.2757
  866PNCE   AM1 7815   4.016   0.374   3.604  0.0511  0.0097 -0.3063
  866PNCE   AM2 7816   4.125   0.115   3.601  0.1983 -0.1085  0.3227
  866PNCE   T1A 7817   3.857   0.476   3.954  0.4310 -0.0951 -0.1795
  866PNCE   C2A 7818   3.654   0.718   4.298  0.2547  0.2150  0.0684
  866PNCE   C3A 7819   3.408   0.752   4.667 -0.2013  0.0958  0.0475
  866PNCE   C1B 7820   3.872  -0.034   3.893  0.2776  0.0483  0.0821
  866PNCE   C2B 7821   3.518   0.178   4.106 -0.2237 -0.0997  0.1196
  866PNCE   C3B 7822   3.129   0.020   4.094  0.1606  0.1345  0.0378
  866PNCE   D4B 7823   2.910  -0.380   4.196 -0.2167  0.0874  0.2042
  866PNCE   C5B 7824   2.946  -0.573   4.598 -0.0400  0.0390  0.0486
  866PNCE   C6B 7825   2.554  -0.728   4.835  0.0625 -0.2219  0.0449
  867CHOL   ROH 7826   9.265   1.110   8.522 -0.1168 -0.0665  0.0510
  867CHOL    R1 7827   9.288   1.038   8.249 -0.1379 -0.1852  0.0796
  867CHOL    R2 7828   9.139   1.159   8.051 -0.1703 -0.2863  0.0398
  867CHOL    R3 7829   9.382   1.203   7.939 -0.1854 -0.3124 -0.0030
  867CHOL    R4 7830   9.189   1.269   7.727 -0.2215 -0.0745  0.1025
  867CHOL    R5 7831   9.357   1.130   7.712 -0.2871 -0.1376 -0.0491
  867CHOL    C1 7832   9.447   1.375   7.433 -0.2657  0.0243  0.0991
  867CHOL    C2 7833   9.155   1.526   7.132  0.1315 -0.0050  0.5559
  868PNCE   AM1 7834  13.950   4.655   3.995 -0.3979  0.1205  0.1902
  868PNCE   AM2 7835  13.775   4.857   4.109 -0.0661 -0.2796  0.0166
  868PNCE   T1A 7836  14.214   4.847   4.344  0.2194 -0.0097 -0.0159
  868PNCE   C2A 7837  14.402   5.221   4.442 -0.1474 -0.1587  0.1500
  868PNCE   C3A 7838  14.318   5.635   4.619 -0.1141  0.2724 -0.0185
  868PNCE   C1B 7839  13.718   4.880   4.565 -0.1620 -0.3286 -0.0541
  868PNCE   C2B 7840  13.974   4.719   4.808 -0.0606 -0.3820 -0.0755
  868PNCE   C3B 7841  13.917   4.488   5.222  0.0461 -0.0982  0.0716
  868PNCE   D4B 7842  14.059   4.436   5.651  0.1411  0.3777  0.0012
  868PNCE   C5B 7843  13.952   4.098   5.690  0.1705 -0.1456 -0.0092
  868PNCE   C6B 7844  13.759   3.730   5.899 -0.1637  0.1927 -0.2696
  869PNCE   AM1 7845   1.294   5.465   5.091  0.0538  0.1023  0.1042
  869PNCE   AM2 7846   1.119   5.572   5.355 -0.0224 -0.0520 -0.0930
  869PNCE   T1A 7847   1.031   5.057   5.257 -0.0638 -0.2598  0.0713
  869PNCE   C2A 7848   0.882   4.772   5.614  0.3215  0.0656 -0.1598
  869PNCE   C3A 7849   0.986   4.589   6.043 -0.1804 -0.0246  0.0740
  869PNCE   C1B 7850   1.012   5.315   5.723  0.1906 -0.1169 -0.2958
  869PNCE   C2B 7851   0.715   5.077   5.967  0.2133  0.1552  0.0821
  869PNCE   C3B 7852   0.440   4.702   6.013  0.1290 -0.1395  0.0054
  869PNCE   D4B 7853   0.039   4.544   5.996  0.1069 -0.0632  0.2288
  869PNCE   C5B 7854  -0.053   4.222   6.280 -0.0798 -0.2592  0.1217
  869PNCE   C6B 7855  -0.395   4.138   6.534 -0.0723  0.1899  0.3355
  870XCA    COO 7856   9.833   0.221   8.306  0.1907  0.2251  0.2748
  870XCA     C1 7857   9.629   0.157   7.846  0.2285 -0.3351  0.1160
  870XCA     C2 7858   9.453   0.115   7.393 -0.1260 -0.0410 -0.0309
  870XCA     C3 7859   9.038  -0.063   7.198  0.0769  0.0267  0.4285
  870XCA     C4 7860   8.692   0.059   7.009 -0.0624 -0.0044  0.2851
  870XCA     C5 7861   8.467   0.154   6.678 -0.0988 -0.4988 -0.4174
  870XCA     C6 7862   8.109   0.398   6.607 -0.2339 -0.3057  0.2387
  871CHOL   ROH 7863   7.247   4.747   8.023 -0.0242  0.0489  0.0822
  871CHOL    R1 7864   7.174   4.775   7.751 -0.1018  0.1273  0.1102
  871CHOL    R2 7865   6.984   4.957   7.667  0.0096  0.2888  0.1925
  871CHOL    R3 7866   7.183   5.040   7.501  0.0193  0.1402  0.1289
  871CHOL    R4 7867   6.940   5.162   7.392  0.0559  0.1772  0.1014
  871CHOL    R5 7868   7.084   5.039   7.283 -0.0037  0.0762  0.1419
  871CHOL    C1 7869   7.102   5.359   7.077  0.0919 -0.0273 -0.0113
  871CHOL    C2 7870   7.114   5.445   6.663 -0.0555 -0.0825 -0.0451
  872CHOL   ROH 7871  11.804  14.736   5.044 -0.3432 -0.1120 -0.2221
  872CHOL    R1 7872  11.906  14.883   4.825 -0.3788 -0.0899 -0.2243
  872CHOL    R2 7873  12.149  14.825   4.707 -0.2577  0.1073 -0.0816
  872CHOL    R3 7874  12.000  14.813   4.480 -0.1360 -0.1259 -0.1517
  872CHOL    R4 7875  12.246  14.951   4.400 -0.2739  0.1691 -0.0612
  872CHOL    R5 7876  12.042  15.021   4.370 -0.3493 -0.0946 -0.1722
  872CHOL    C1 7877  12.162  15.013   4.008 -0.1691 -0.0138 -0.1152
  872CHOL    C2 7878  12.119  14.884   3.699  0.0723  0.1848 -0.1144
  873XCA    COO 7879  14.039   6.671   4.077  0.1324 -0.2705  0.2127
  873XCA     C1 7880  14.026   6.609   4.515 -0.0939 -0.0633 -0.0809
  873XCA     C2 7881  13.879   6.795   4.976 -0.1558  0.3066 -0.0944
  873XCA     C3 7882  13.754   7.069   5.300 -0.0695  0.0376 -0.1146
  873XCA     C4 7883  13.753   7.235   5.669  0.0347  0.2143 -0.2177
  873XCA     C5 7884  13.880   7.014   6.041  0.2484 -0.1528 -0.0325
  873XCA     C6 7885  13.856   6.772   6.436  0.1705  0.3636 -0.2827
  874CHOL   ROH 7886   2.923  13.868   5.073 -0.0715 -0.1109 -0.0601
  874CHOL    R1 7887   2.749  13.915   5.291 -0.1256 -0.0087 -0.1247
  874CHOL    R2 7888   2.835  13.908   5.554 -0.2597 -0.2275 -0.0860
  874CHOL    R3 7889   2.725  14.156   5.563  0.0214 -0.0999 -0.0282
  874CHOL    R4 7890   2.683  14.046   5.832 -0.2102 -0.1684 -0.0876
  874CHOL    R5 7891   2.530  14.129   5.700 -0.0663  0.0643 -0.1154
  874CHOL    C1 7892   2.490  14.359   6.002  0.0824 -0.0141 -0.0342
  874CHOL    C2 7893   2.495  14.546   6.296 -0.1300 -0.0210  0.2926
  875PNCE   AM1 7894  14.321  10.417   4.434  0.0777 -0.0690 -0.1099
  875PNCE   AM2 7895  14.601  10.265   4.457  0.0814  0.0723  0.1910
  875PNCE   T1A 7896  14.285  10.262   4.881  0.3414 -0.2186  0.1823
  875PNCE   C2A 7897  14.358   9.949   5.241 -0.1030  0.3837  0.2808
  875PNCE   C3A 7898  14.213  10.087   5.720 -0.1228  0.1016  0.1930
  875PNCE   C1B 7899  14.724  10.614   4.750 -0.0959 -0.0079 -0.0328
  875PNCE   C2B 7900  14.747  11.065   4.849  0.1391 -0.0123 -0.0564
  875PNCE   C3B 7901  14.974  11.213   5.071 -0.1135 -0.0826  0.1678
  875PNCE   D4B 7902  14.651  11.233   5.371  0.1793  0.1265  0.0495
  875PNCE   C5B 7903  14.726  10.935   5.664 -0.1921  0.1519  0.0982
  875PNCE   C6B 7904  14.558  10.817   6.032  0.1629 -0.0771  0.0304
  876CHOL   ROH 7905  11.470   9.131   5.076  0.1110  0.1282  0.1511
  876CHOL    R1 7906  11.631   9.025   5.283  0.0481 -0.1067  0.0801
  876CHOL    R2 7907  11.675   9.159   5.522  0.2292 -0.2374  0.1099
  876CHOL    R3 7908  11.584   8.928   5.631  0.0283 -0.1875  0.0584
  876CHOL    R4 7909  11.684   9.082   5.858  0.1115 -0.2776  0.1059
  876CHOL    R5 7910  11.740   8.879   5.806 -0.0304 -0.3246  0.0849
  876CHOL    C1 7911  11.603   8.820   6.157 -0.1456 -0.2542  0.0552
  876CHOL    C2 7912  11.538   8.849   6.559 -0.0030 -0.0508 -0.4021
  877CHOL   ROH 7913  14.915  12.708   6.973 -0.1233 -0.0577 -0.0356
  877CHOL    R1 7914  15.066  12.736   6.736 -0.2224 -0.0169 -0.0952
  877CHOL    R2 7915  15.039  12.952   6.566 -0.0927  0.1589  0.0978
  877CHOL    R3 7916  15.308  12.974   6.602 -0.0487 -0.1512 -0.0217
  877CHOL    R4 7917  15.251  13.133   6.362 -0.0020  0.0983  0.1383
  877CHOL    R5 7918  15.397  12.972   6.380 -0.1622 -0.0685 -0.0654
  877CHOL    C1 7919  15.627  13.258   6.276  0.0922 -0.2281  0.0497
  877CHOL    C2 7920  15.653  13.607   6.015 -0.2501 -0.2194 -0.0580
  878CHOL   ROH 7921  14.667  14.199   5.476  0.0170 -0.3718  0.1840
  878CHOL    R1 7922  14.724  14.385   5.682  0.0343 -0.2099  0.0347
  878CHOL    R2 7923  14.534  14.466   5.866  0.0609 -0.0929  0.0062
  878CHOL    R3 7924  14.721  14.385   6.046  0.1011  0.0660  0.0384
  878CHOL    R4 7925  14.579  14.605   6.180  0.1801  0.2460 -0.1553
  878CHOL    R5 7926  14.794  14.588   6.151  0.1720  0.1725 -0.2053
  878CHOL    C1 7927  14.780  14.610   6.531  0.2873  0.5924 -0.2191
  878CHOL    C2 7928  15.055  14.632   6.878 -0.1741  0.3853 -0.1846
  879CHOL   ROH 7929   8.474  13.528   4.845  0.0636  0.0361  0.0701
  879CHOL    R1 7930   8.601  13.416   5.071 -0.0415 -0.0593  0.0813
  879CHOL    R2 7931   8.832  13.520   5.179 -0.0528 -0.1507  0.1852
  879CHOL    R3 7932   8.685  13.524   5.408 -0.1238 -0.1765  0.1416
  879CHOL    R4 7933   8.958  13.591   5.493 -0.1688 -0.0538  0.2116
  879CHOL    R5 7934   8.832  13.432   5.574 -0.1317 -0.0960  0.1980
  879CHOL    C1 7935   8.893  13.635   5.891 -0.3032 -0.0215  0.1860
  879CHOL    C2 7936   8.966  13.517   6.228  0.0343 -0.3635 -0.0793
  880CHOL   ROH 7937  11.247  15.290   3.933 -0.1293  0.2525 -0.0181
  880CHOL    R1 7938  11.344  15.295   4.199 -0.0742  0.0823 -0.0344
  880CHOL    R2 7939  11.270  15.489   4.380  0.1304  0.0882  0.0397
  880CHOL    R3 7940  11.201  15.275   4.533 -0.0273  0.1000 -0.0120
  880CHOL    R4 7941  11.289  15.480   4.725  0.1249 -0.0010  0.0382
  880CHOL    R5 7942  11.363  15.275   4.710 -0.0230 -0.0567 -0.0107
  880CHOL    C1 7943  11.235  15.273   5.070 -0.0264 -0.0418 -0.0111
  880CHOL    C2 7944  11.317  15.368   5.484  0.0128  0.4453 -0.2785
  881PNCE   AM1 7945   3.103   3.401   4.265 -0.1016  0.2420 -0.1207
  881PNCE   AM2 7946   3.336   3.251   3.987 -0.0698  0.0985  0.3902
  881PNCE   T1A 7947   3.028   3.021   4.320 -0.1083  0.0921 -0.2722
  881PNCE   C2A 7948   2.962   2.589   4.396 -0.2033  0.0681  0.0734
  881PNCE   C3A 7949   2.772   2.308   4.434  0.0766 -0.2413 -0.2331
  881PNCE   C1B 7950   3.534   3.437   4.381  0.1675  0.2771 -0.1132
  881PNCE   C2B 7951   3.287   3.335   4.722 -0.2587  0.0859 -0.0925
  881PNCE   C3B 7952   2.794   3.284   4.691 -0.2662  0.1331 -0.2852
  881PNCE   D4B 7953   2.575   3.093   4.948  0.4182  0.0212 -0.0418
  881PNCE   C5B 7954   2.702   2.817   5.388  0.0267  0.2611  0.2508
  881PNCE   C6B 7955   2.843   2.636   5.660 -0.4204 -0.1594 -0.2396
  882XCA    COO 7956   5.854   9.645   5.219 -0.1953 -0.1273  0.0279
  882XCA     C1 7957   6.050   9.882   5.487  0.2055 -0.2113  0.3128
  882XCA     C2 7958   6.238  10.166   5.811 -0.1147 -0.1603  0.0043
  882XCA     C3 7959   6.419  10.070   6.204  0.0264 -0.3400 -0.0262
  882XCA     C4 7960   6.607  10.049   6.646  0.1133  0.2629  0.0826
  882XCA     C5 7961   6.856  10.432   6.794  0.0428  0.2421 -0.0651
  882XCA     C6 7962   7.231  10.265   6.892  0.0160  0.1622  0.0072
  883XCA    COO 7963   3.334   9.799   5.828  0.0637  0.0992 -0.1381
  883XCA     C1 7964   3.191   9.987   6.278  0.2341  0.1278 -0.2293
  883XCA     C2 7965   3.172  10.172   6.695 -0.2176  0.0213  0.2348
  883XCA     C3 7966   2.780  10.184   6.889 -0.1322 -0.0165  0.1918
  883XCA     C4 7967   2.441  10.163   7.097  0.0896  0.0691 -0.1597
  883XCA     C5 7968   2.244   9.943   7.334  0.1041  0.1925  0.4099
  883XCA     C6 7969   1.983   9.631   7.446 -0.3547 -0.5078 -0.0047
  884PNCE   AM1 7970   8.543  12.422   5.496  0.0724 -0.0191 -0.1292
  884PNCE   AM2 7971   8.282  12.381   5.675  0.0716 -0.0900  0.0638
  884PNCE   T1A 7972   8.762  12.504   5.824  0.0752  0.1244 -0.0962
  884PNCE   C2A 7973   8.916  12.703   6.239 -0.0030  0.1071 -0.0886
  884PNCE   C3A 7974   8.982  12.760   6.632 -0.2212 -0.1432 -0.0221
  884PNCE   C1B 7975   8.295  12.698   5.978  0.3004  0.1868 -0.0706
  884PNCE   C2B 7976   8.517  13.077   6.152  0.0461  0.1113 -0.2136
  884PNCE   C3B 7977   8.513  13.066   6.602 -0.0972  0.0654 -0.3231
  884PNCE   D4B 7978   8.296  13.283   6.897  0.0138  0.1558  0.0927
  884PNCE   C5B 7979   8.275  13.702   7.000  0.1952  0.1590 -0.0437
  884PNCE   C6B 7980   8.372  14.118   7.169  0.4585  0.3323  0.5206
  885CHOL   ROH 7981   7.499  11.714   6.117 -0.1174 -0.0717 -0.0327
  885CHOL    R1 7982   7.432  11.472   6.247 -0.0140 -0.0657  0.0355
  885CHOL    R2 7983   7.496  11.422   6.512 -0.0253  0.0482  0.0673
  885CHOL    R3 7984   7.229  11.372   6.532 -0.0037 -0.0716  0.0381
  885CHOL    R4 7985   7.354  11.190   6.725  0.0508 -0.0812 -0.0235
  885CHOL    R5 7986   7.216  11.135   6.566  0.0865 -0.0833 -0.0432
  885CHOL    C1 7987   7.022  11.008   6.868  0.1154 -0.2691 -0.1039
  885CHOL    C2 7988   6.821  11.090   7.274  0.1479 -0.5528 -0.1184
  886XCA    COO 7989   7.765   2.702   5.112 -0.0023 -0.1079  0.1110
  886XCA     C1 7990   7.442   2.396   5.299 -0.0556  0.0368 -0.0866
  886XCA     C2 7991   7.263   1.986   5.454  0.1406  0.0832 -0.3820
  886XCA     C3 7992   7.266   1.440   5.591  0.2121 -0.0631 -0.2780
  886XCA     C4 7993   7.230   1.023   5.684  0.0870  0.3311 -0.1177
  886XCA     C5 7994   7.383   0.614   5.738  0.0317  0.1007  0.0056
  886XCA     C6 7995   7.320   0.304   5.921 -0.1732 -0.3974  0.3357
  887PNCE   AM1 7996  10.642  11.920   4.207  0.0361 -0.1458  0.0513
  887PNCE   AM2 7997  10.348  12.053   4.290  0.0152 -0.0573 -0.1513
  887PNCE   T1A 7998  10.806  11.824   4.602 -0.1061 -0.0515  0.3973
  887PNCE   C2A 7999  10.811  11.638   5.043 -0.1200  0.0736 -0.1278
  887PNCE   C3A 8000  10.788  11.364   5.411  0.1145  0.1042 -0.0550
  887PNCE   C1B 8001  10.585  12.247   4.684  0.3037 -0.1618 -0.0143
  887PNCE   C2B 8002  10.927  12.355   4.970 -0.2564 -0.0109 -0.4543
  887PNCE   C3B 8003  11.046  12.804   5.254  0.0514  0.0495  0.0712
  887PNCE   D4B 8004  11.329  12.951   5.610 -0.1182 -0.1111  0.1560
  887PNCE   C5B 8005  11.081  13.147   5.967 -0.0046 -0.0943  0.0465
  887PNCE   C6B 8006  10.822  13.319   6.311 -0.2676 -0.0703 -0.1175
  888PNCE   AM1 8007   0.804  12.062   4.602 -0.1868 -0.0333  0.1637
  888PNCE   AM2 8008   0.588  12.186   4.595 -0.1615 -0.0805 -0.2521
  888PNCE   T1A 8009   0.818  12.207   5.029 -0.0311 -0.1501 -0.0619
  888PNCE   C2A 8010   1.045  12.333   5.506 -0.0353  0.1262 -0.1556
  888PNCE   C3A 8011   1.333  12.436   5.894  0.1844 -0.0699 -0.0006
  888PNCE   C1B 8012   0.316  12.359   4.920  0.0482 -0.1577  0.0933
  888PNCE   C2B 8013   0.111  12.496   5.300  0.0523  0.0331  0.0835
  888PNCE   C3B 8014  -0.037  12.437   5.756  0.1996  0.1050  0.1406
  888PNCE   D4B 8015   0.159  12.276   6.179 -0.2424 -0.1735  0.4483
  888PNCE   C5B 8016  -0.261  12.300   6.466  0.0102 -0.0439 -0.1945
  888PNCE   C6B 8017  -0.649  12.024   6.540 -0.2018  0.2950  0.4098
  889PNCE   AM1 8018  12.666   1.834   4.434 -0.1226 -0.1921  0.1064
  889PNCE   AM2 8019  12.552   1.535   4.288 -0.1697  0.0590  0.0233
  889PNCE   T1A 8020  12.740   2.198   4.667 -0.1888 -0.4240 -0.1552
  889PNCE   C2A 8021  12.854   2.303   5.182  0.0450  0.1520 -0.1726
  889PNCE   C3A 8022  12.679   2.312   5.500  0.3359 -0.3539 -0.1343
  889PNCE   C1B 8023  12.406   1.525   4.769 -0.3622  0.1321 -0.0265
  889PNCE   C2B 8024  12.484   1.248   5.093 -0.0629 -0.1735 -0.2950
  889PNCE   C3B 8025  12.485   0.999   5.465  0.0907  0.1188  0.0896
  889PNCE   D4B 8026  12.475   1.065   5.927  0.1448 -0.0680  0.2204
  889PNCE   C5B 8027  12.303   0.648   6.030  0.1660  0.0299 -0.0400
  889PNCE   C6B 8028  12.093   0.345   6.369  0.1039  0.0187  0.1086
  890CHOL   ROH 8029  10.437  15.436   7.692  0.2315  0.2340  0.0760
  890CHOL    R1 8030  10.489  15.576   7.452  0.0911  0.0925 -0.0388
  890CHOL    R2 8031  10.475  15.457   7.203 -0.0509 -0.0534  0.0446
  890CHOL    R3 8032  10.305  15.662   7.150 -0.0819 -0.0867  0.0110
  890CHOL    R4 8033  10.424  15.594   6.890  0.1464  0.0564  0.0582
  890CHOL    R5 8034  10.419  15.791   6.983  0.0111  0.0224  0.1473
  890CHOL    C1 8035  10.234  15.867   6.658  0.2320  0.0890  0.0347
  890CHOL    C2 8036  10.142  15.854   6.268 -0.2379 -0.0679  0.3229
  891PNCE   AM1 8037  13.547   0.804   4.670 -0.0843  0.1617  0.0300
  891PNCE   AM2 8038  13.779   0.525   4.613  0.1281 -0.1558 -0.0526
  891PNCE   T1A 8039  13.527   1.123   4.800 -0.0067  0.0496 -0.3157
  891PNCE   C2A 8040  13.526   1.297   5.188  0.1350 -0.0345  0.0566
  891PNCE   C3A 8041  13.347   1.158   5.627 -0.0356 -0.0215 -0.0266
  891PNCE   C1B 8042  14.054   0.178   4.712  0.0476  0.0048  0.3805
  891PNCE   C2B 8043  14.189  -0.063   5.054 -0.0132  0.0555  0.1207
  891PNCE   C3B 8044  14.523  -0.202   5.270 -0.0434  0.1563  0.0310
  891PNCE   D4B 8045  14.463  -0.628   5.547 -0.3998  0.0154  0.1251
  891PNCE   C5B 8046  14.187  -0.458   5.842  0.0057  0.0129 -0.2252
  891PNCE   C6B 8047  13.759  -0.412   5.875 -0.0075  0.1588  0.0828
  892PNCE   AM1 8048   2.299  15.452   3.810  0.1642 -0.3250  0.4704
  892PNCE   AM2 8049   1.978  15.608   3.787  0.1600  0.2198 -0.0803
  892PNCE   T1A 8050   2.407  15.743   4.041 -0.1115  0.1372  0.0257
  892PNCE   C2A 8051   2.620  15.957   4.269  0.2197 -0.1287 -0.0881
  892PNCE   C3A 8052   2.495  16.126   4.573  0.2022  0.0513  0.0200
  892PNCE   C1B 8053   1.923  15.776   4.256 -0.1366 -0.0939  0.1322
  892PNCE   C2B 8054   2.067  15.862   4.664  0.4245 -0.1449  0.0256
  892PNCE   C3B 8055   2.178  15.865   5.085 -0.1624  0.3292  0.0919
  892PNCE   D4B 8056   2.284  15.906   5.481 -0.1722  0.0458 -0.0860
  892PNCE   C5B 8057   2.644  16.155   5.408  0.0785 -0.2727 -0.3739
  892PNCE   C6B 8058   3.119  16.056   5.282  0.1403 -0.0773  0.0996
  893CHOL   ROH 8059   8.446   7.381   4.987  0.3100  0.1438  0.0958
  893CHOL    R1 8060   8.487   7.397   5.267  0.1885 -0.0138  0.1236
  893CHOL    R2 8061   8.289   7.335   5.450  0.0753 -0.0135  0.0001
  893CHOL    R3 8062   8.479   7.167   5.549 -0.0482 -0.1509  0.0090
  893CHOL    R4 8063   8.260   7.154   5.743 -0.0480  0.0511  0.0285
  893CHOL    R5 8064   8.469   7.199   5.786 -0.0062 -0.1074  0.0065
  893CHOL    C1 8065   8.421   6.892   6.007 -0.2356 -0.0403  0.0535
  893CHOL    C2 8066   8.623   6.764   6.318  0.0775 -0.3016  0.0836
  894XCA    COO 8067   3.364  15.603   8.049 -0.2615 -0.0711  0.1779
  894XCA     C1 8068   3.370  15.341   7.720 -0.1252 -0.2520 -0.2591
  894XCA     C2 8069   3.499  15.036   7.501  0.0625  0.1793 -0.0415
  894XCA     C3 8070   3.657  14.814   7.162  0.2531  0.0243  0.1136
  894XCA     C4 8071   3.676  14.465   6.985  0.1250 -0.2592  0.0301
  894XCA     C5 8072   3.525  14.540   6.659 -0.0314  0.1967 -0.1403
  894XCA     C6 8073   3.537  14.898   6.336 -0.1439  0.3102 -0.2291
  895PNCE   AM1 8074   0.269  11.982   4.193 -0.1595 -0.0171 -0.0005
  895PNCE   AM2 8075   0.147  12.233   4.400 -0.0971  0.1918 -0.0782
  895PNCE   T1A 8076   0.444  11.603   4.415 -0.1161  0.0249  0.2677
  895PNCE   C2A 8077   0.682  11.580   4.820 -0.0684 -0.1801 -0.1519
  895PNCE   C3A 8078   0.782  11.459   5.226 -0.3319  0.1893 -0.1431
  895PNCE   C1B 8079  -0.110  12.287   4.706  0.0759 -0.1304 -0.0661
  895PNCE   C2B 8080  -0.411  12.354   4.926  0.1447  0.2494  0.2140
  895PNCE   C3B 8081  -0.691  12.507   5.059 -0.2036  0.0630  0.3107
  895PNCE   D4B 8082  -0.802  12.746   5.259  0.1447 -0.1390  0.0538
  895PNCE   C5B 8083  -0.778  13.147   5.459 -0.0820 -0.0409  0.1138
  895PNCE   C6B 8084  -0.700  13.624   5.535 -0.0689  0.0520  0.1398
  896XCA    COO 8085   6.786  15.587   8.896  0.0596 -0.0531 -0.3795
  896XCA     C1 8086   6.678  15.373   8.548  0.1105  0.1536 -0.0454
  896XCA     C2 8087   6.805  15.042   8.271  0.0569 -0.3544  0.2956
  896XCA     C3 8088   7.150  14.866   8.400 -0.0329 -0.0834  0.3059
  896XCA     C4 8089   7.416  14.681   8.219 -0.3656  0.0604  0.0056
  896XCA     C5 8090   7.554  14.253   8.147 -0.1597 -0.2124 -0.1293
  896XCA     C6 8091   7.660  13.976   7.758 -0.1188  0.1080 -0.1323
  897CHOL   ROH 8092  14.649   8.991   5.192  0.0566  0.1983  0.0073
  897CHOL    R1 8093  14.604   8.968   5.470 -0.1616  0.0905 -0.0343
  897CHOL    R2 8094  14.744   9.118   5.656 -0.0632 -0.2245  0.1478
  897CHOL    R3 8095  14.495   9.188   5.739 -0.0225  0.0885  0.0270
  897CHOL    R4 8096  14.670   9.255   5.965 -0.0674 -0.4379  0.2433
  897CHOL    R5 8097  14.492   9.130   5.972 -0.2865 -0.1660 -0.0301
  897CHOL    C1 8098  14.394   9.400   6.223 -0.0317 -0.2682  0.1857
  897CHOL    C2 8099  14.722   9.542   6.377  0.0938 -0.2506 -0.1966
  898CHOL   ROH 8100   3.739   1.021   6.183 -0.0239  0.0397  0.0186
  898CHOL    R1 8101   3.647   0.797   6.037 -0.0871  0.1509 -0.1112
  898CHOL    R2 8102   3.612   0.548   6.151  0.1128  0.0317 -0.3184
  898CHOL    R3 8103   3.361   0.572   6.049  0.0011  0.0375 -0.0560
  898CHOL    R4 8104   3.366   0.306   6.173  0.2654 -0.1334 -0.3860
  898CHOL    R5 8105   3.309   0.353   5.968  0.0478  0.1023 -0.2868
  898CHOL    C1 8106   2.988   0.188   6.090  0.2493 -0.2241 -0.1789
  898CHOL    C2 8107   2.600   0.077   6.176 -0.1427  0.0323  0.0419
  899CHOL   ROH 8108  14.499   4.862   7.816 -0.4074  0.1295 -0.1072
  899CHOL    R1 8109  14.642   5.002   7.616 -0.2667  0.0898 -0.0363
  899CHOL    R2 8110  14.914   4.972   7.579 -0.2575 -0.0044  0.0850
  899CHOL    R3 8111  14.841   4.915   7.324 -0.1651  0.0331  0.0501
  899CHOL    R4 8112  15.125   4.984   7.306 -0.1606  0.0258  0.1607
  899CHOL    R5 8113  14.962   5.072   7.190 -0.1137  0.0453  0.1145
  899CHOL    C1 8114  15.179   4.938   6.907 -0.0174  0.0788  0.1720
  899CHOL    C2 8115  15.221   5.143   6.598  0.0473  0.4004 -0.0243
  900CHOL   ROH 8116   1.653   1.182   7.200 -0.0024 -0.1037 -0.1083
  900CHOL    R1 8117   1.875   1.159   7.025  0.0587 -0.1396 -0.0261
  900CHOL    R2 8118   2.124   1.077   7.111 -0.0074 -0.2534  0.0517
  900CHOL    R3 8119   2.096   0.893   6.912  0.0065 -0.1917 -0.0083
  900CHOL    R4 8120   2.377   0.871   6.996  0.0465 -0.1023 -0.1052
  900CHOL    R5 8121   2.304   0.904   6.793 -0.0339 -0.0569 -0.0719
  900CHOL    C1 8122   2.498   0.579   6.742  0.0909  0.0435 -0.2529
  900CHOL    C2 8123   2.582   0.212   6.627 -0.0413 -0.2027 -0.2230
  901CHOL   ROH 8124   7.550  15.673   4.828 -0.0534  0.2392  0.2852
  901CHOL    R1 8125   7.774  15.659   5.001  0.0144  0.2114  0.1951
  901CHOL    R2 8126   7.763  15.741   5.265  0.1252  0.1939  0.2028
  901CHOL    R3 8127   7.856  15.491   5.312  0.1284  0.1846  0.1516
  901CHOL    R4 8128   7.973  15.654   5.525  0.3166  0.1911  0.0503
  901CHOL    R5 8129   8.081  15.523   5.388  0.1947  0.1635 -0.0247
  901CHOL    C1 8130   8.183  15.367   5.721  0.4311  0.1808 -0.0865
  901CHOL    C2 8131   8.273  15.168   6.089  0.2664  0.0716  0.3766
  902PNCE   AM1 8132   7.357  15.154   4.678 -0.0756  0.2202  0.0101
  902PNCE   AM2 8133   7.154  15.410   4.644 -0.2744  0.2047 -0.0898
  902PNCE   T1A 8134   7.685  15.176   5.080 -0.0917 -0.0187  0.0475
  902PNCE   C2A 8135   7.835  14.980   5.494 -0.3854  0.0288  0.1658
  902PNCE   C3A 8136   8.076  14.873   5.760 -0.1664 -0.0833  0.2780
  902PNCE   C1B 8137   7.237  15.394   5.079  0.0738  0.1142  0.0505
  902PNCE   C2B 8138   7.470  15.416   5.528 -0.2904 -0.2238  0.0294
  902PNCE   C3B 8139   7.254  15.585   5.812 -0.1969 -0.0851  0.1966
  902PNCE   D4B 8140   7.148  15.791   6.205  0.0376  0.0922  0.1393
  902PNCE   C5B 8141   6.822  15.614   6.509 -0.0745  0.0146 -0.0460
  902PNCE   C6B 8142   6.543  15.544   6.864 -0.0988 -0.2855 -0.0182
  903CHOL   ROH 8143  11.354   3.687   6.759  0.0275 -0.0025  0.0351
  903CHOL    R1 8144  11.122   3.848   6.769  0.0186 -0.0199  0.1197
  903CHOL    R2 8145  10.917   3.826   6.584  0.0784  0.1543  0.0300
  903CHOL    R3 8146  10.764   3.794   6.806  0.0077 -0.0717 -0.0489
  903CHOL    R4 8147  10.582   3.906   6.606  0.0758  0.1486  0.0081
  903CHOL    R5 8148  10.618   3.984   6.806  0.0179 -0.0619  0.1042
  903CHOL    C1 8149  10.242   3.923   6.827  0.0080 -0.0668 -0.0788
  903CHOL    C2 8150   9.824   3.822   6.769 -0.2098  0.0087 -0.3503
  904PNCE   AM1 8151   4.755   3.753   4.378 -0.0196  0.1645  0.2047
  904PNCE   AM2 8152   4.630   4.021   4.582 -0.0316  0.1016  0.0812
  904PNCE   T1A 8153   5.016   3.566   4.655  0.2014  0.1400  0.1279
  904PNCE   C2A 8154   4.930   3.364   5.060  0.0261  0.2403 -0.2435
  904PNCE   C3A 8155   5.116   2.925   5.172  0.1529 -0.5522  0.1189
  904PNCE   C1B 8156   4.781   3.808   5.001  0.0612  0.1060  0.0322
  904PNCE   C2B 8157   4.709   3.818   5.457 -0.1315 -0.2237 -0.0996
  904PNCE   C3B 8158   4.763   3.566   5.807 -0.0378 -0.1825  0.1783
  904PNCE   D4B 8159   4.827   3.314   6.186 -0.0152  0.2231 -0.3395
  904PNCE   C5B 8160   5.082   3.250   6.495 -0.2030  0.0496  0.0451
  904PNCE   C6B 8161   5.425   3.485   6.729 -0.0465  0.2100 -0.1835
  905CHOL   ROH 8162  11.208   4.261   4.590 -0.0749 -0.2239  0.0188
  905CHOL    R1 8163  11.406   4.074   4.667  0.1187 -0.1117 -0.1936
  905CHOL    R2 8164  11.676   4.116   4.623  0.0979  0.3152  0.0322
  905CHOL    R3 8165  11.694   4.071   4.890 -0.0083 -0.1293 -0.0278
  905CHOL    R4 8166  11.909   3.909   4.773  0.1396  0.1850 -0.2061
  905CHOL    R5 8167  11.752   3.839   4.908  0.1105 -0.1339 -0.3945
  905CHOL    C1 8168  12.061   3.747   5.112  0.0641 -0.3081 -0.4013
  905CHOL    C2 8169  12.397   3.703   5.102  0.1340  0.1221  0.2324
  906PNCE   AM1 8170  15.314  14.331   4.212  0.2268  0.0026  0.2879
  906PNCE   AM2 8171  15.326  14.051   4.286  0.2933 -0.0520  0.0070
  906PNCE   T1A 8172  15.326  14.477   4.591  0.2565  0.1169  0.0340
  906PNCE   C2A 8173  14.959  14.415   4.990 -0.0052 -0.0487 -0.1862
  906PNCE   C3A 8174  14.613  14.475   5.142  0.0955  0.2962  0.0072
  906PNCE   C1B 8175  15.351  13.826   4.672 -0.2953  0.1064  0.0975
  906PNCE   C2B 8176  15.496  13.938   5.151  0.1098  0.0362  0.0465
  906PNCE   C3B 8177  15.654  14.005   5.651 -0.0319 -0.0908 -0.1444
  906PNCE   D4B 8178  15.689  14.231   6.102 -0.0789 -0.0282  0.2208
  906PNCE   C5B 8179  15.563  13.844   6.461  0.0320  0.2570 -0.3121
  906PNCE   C6B 8180  15.577  13.436   6.714  0.1305 -0.3069 -0.0339
  907PNCE   AM1 8181   1.309   6.201   5.194  0.1179  0.1039 -0.1003
  907PNCE   AM2 8182   1.501   6.449   5.156 -0.2039 -0.0932  0.0524
  907PNCE   T1A 8183   1.201   6.020   5.674 -0.0493  0.3565 -0.2252
  907PNCE   C2A 8184   1.095   5.903   6.050  0.0674  0.0803  0.1471
  907PNCE   C3A 8185   0.952   5.910   6.459  0.0284 -0.0427 -0.1464
  907PNCE   C1B 8186   1.365   6.513   5.589  0.0135  0.1635 -0.0830
  907PNCE   C2B 8187   1.436   6.383   5.960  0.1845  0.0387  0.0204
  907PNCE   C3B 8188   1.407   6.323   6.391 -0.3311 -0.3766  0.0360
  907PNCE   D4B 8189   1.066   6.471   6.646 -0.2639 -0.1297 -0.0030
  907PNCE   C5B 8190   0.645   6.321   6.686 -0.1553 -0.1294  0.0629
  907PNCE   C6B 8191   0.375   6.356   6.909  0.3229 -0.0489  0.0372
  908PNCE   AM1 8192   0.016   3.751   4.074  0.5648  0.3564 -0.0087
  908PNCE   AM2 8193   0.272   3.825   4.191 -0.0190  0.1947 -0.1670
  908PNCE   T1A 8194  -0.399   3.859   4.130  0.0969  0.4732 -0.0616
  908PNCE   C2A 8195  -0.773   3.816   4.278  0.3492  0.1163  0.1354
  908PNCE   C3A 8196  -1.108   3.614   4.469  0.1550  0.0523  0.2902
  908PNCE   C1B 8197  -0.019   3.856   4.592  0.2296 -0.0109 -0.2041
  908PNCE   C2B 8198  -0.060   3.872   5.034 -0.0222 -0.1113 -0.1467
  908PNCE   C3B 8199  -0.137   3.662   5.325 -0.0801  0.1543 -0.0469
  908PNCE   D4B 8200   0.008   3.569   5.702  0.0750  0.0805  0.0327
  908PNCE   C5B 8201  -0.203   3.231   5.920  0.0737 -0.1119 -0.2274
  908PNCE   C6B 8202  -0.379   2.975   6.190 -0.1398 -0.1345 -0.0161
  909PNCE   AM1 8203   5.721   0.503   4.587  0.0070  0.1335 -0.1883
  909PNCE   AM2 8204   5.606   0.861   4.563 -0.2028 -0.1308 -0.0549
  909PNCE   T1A 8205   5.473   0.177   4.901 -0.1077  0.1072 -0.0171
  909PNCE   C2A 8206   5.350   0.193   5.376  0.1717 -0.2979  0.1715
  909PNCE   C3A 8207   5.252   0.178   5.729  0.0919  0.1199 -0.0334
  909PNCE   C1B 8208   5.665   1.037   5.109  0.1142  0.0609 -0.1971
  909PNCE   C2B 8209   5.653   1.219   5.574 -0.0350 -0.0395 -0.0451
  909PNCE   C3B 8210   5.696   0.971   5.959  0.0597 -0.0170 -0.3840
  909PNCE   D4B 8211   5.857   0.793   6.336  0.2584  0.1379 -0.4070
  909PNCE   C5B 8212   5.857   0.373   6.481  0.4053  0.0067  0.4030
  909PNCE   C6B 8213   5.949   0.103   6.720 -0.2663 -0.4050 -0.2822
  910XCA    COO 8214   8.635   3.514   8.741 -0.1375  0.1612  0.2751
  910XCA     C1 8215   8.491   3.362   8.397  0.2711 -0.1849 -0.0846
  910XCA     C2 8216   8.522   3.140   7.977 -0.1271 -0.1944 -0.1648
  910XCA     C3 8217   8.844   2.865   7.715  0.0064  0.3231  0.4118
  910XCA     C4 8218   9.240   2.738   7.805  0.1441 -0.1339 -0.4067
  910XCA     C5 8219   9.703   2.665   7.758  0.2624  0.0460  0.1943
  910XCA     C6 8220   9.979   2.929   7.749 -0.1968 -0.1145  0.1040
  911PNCE   AM1 8221  10.411   0.926   4.021  0.1735  0.0238 -0.1048
  911PNCE   AM2 8222  10.685   1.135   3.858  0.1566 -0.1103  0.1219
  911PNCE   T1A 8223  10.850   1.062   4.276 -0.0189  0.3476 -0.0155
  911PNCE   C2A 8224  11.221   0.886   4.320  0.0011 -0.0229  0.3069
  911PNCE   C3A 8225  11.642   0.936   4.484  0.1456 -0.0431  0.1962
  911PNCE   C1B 8226  10.804   0.729   3.863 -0.3138  0.0336  0.2010
  911PNCE   C2B 8227  10.846   0.426   4.142  0.0994  0.0890  0.0926
  911PNCE   C3B 8228  11.058   0.241   4.405 -0.2825 -0.0688  0.0107
  911PNCE   D4B 8229  11.169   0.032   4.685  0.0568  0.2013  0.1428
  911PNCE   C5B 8230  11.298   0.301   5.064  0.0369 -0.0354 -0.1462
  911PNCE   C6B 8231  11.373   0.579   5.508 -0.0243  0.3631 -0.1700
  912CHOL   ROH 8232  10.939   8.569   5.123  0.0929 -0.0181  0.1764
  912CHOL    R1 8233  10.804   8.322   5.152  0.0458  0.0037  0.1468
  912CHOL    R2 8234  10.936   8.079   5.159 -0.0031 -0.0271  0.0751
  912CHOL    R3 8235  10.801   8.049   5.392  0.0286 -0.0450  0.0908
  912CHOL    R4 8236  10.807   7.780   5.275 -0.2316  0.0160 -0.0621
  912CHOL    R5 8237  10.631   7.889   5.342 -0.1219  0.1293  0.0421
  912CHOL    C1 8238  10.605   7.578   5.562 -0.3350  0.0244 -0.1273
  912CHOL    C2 8239  10.261   7.676   5.502  0.2794  0.2154  0.0778
  913CHOL   ROH 8240   3.975   4.818   6.141 -0.0555 -0.1922 -0.0091
  913CHOL    R1 8241   4.145   4.979   6.300 -0.0459 -0.1586 -0.0536
  913CHOL    R2 8242   4.049   5.169   6.476 -0.0359 -0.1453 -0.0654
  913CHOL    R3 8243   4.201   5.033   6.656  0.0012 -0.1084 -0.0680
  913CHOL    R4 8244   4.206   5.311   6.749  0.0153 -0.0865 -0.1247
  913CHOL    R5 8245   4.379   5.184   6.709  0.0105 -0.0934 -0.1339
  913CHOL    C1 8246   4.440   5.267   7.077  0.0798 -0.0175 -0.1618
  913CHOL    C2 8247   4.827   5.244   7.323  0.0031 -0.1033 -0.1581
  914CHOL   ROH 8248  12.544   1.712   7.942 -0.2420  0.0823  0.1992
  914CHOL    R1 8249  12.533   1.761   7.664 -0.1815  0.0644  0.1933
  914CHOL    R2 8250  12.447   1.572   7.482 -0.1613  0.0584  0.1875
  914CHOL    R3 8251  12.277   1.769   7.406 -0.1294  0.0682  0.1419
  914CHOL    R4 8252  12.320   1.611   7.163  0.0525  0.1646  0.1134
  914CHOL    R5 8253  12.347   1.826   7.184  0.0161  0.1581  0.2109
  914CHOL    C1 8254  12.085   1.819   6.906  0.2068  0.2357  0.0275
  914CHOL    C2 8255  12.096   1.907   6.469 -0.3778  0.1072  0.2566
  915XCA    COO 8256  10.363  10.642   5.058  0.0849 -0.0274 -0.1107
  915XCA     C1 8257  10.690  10.823   5.358  0.0984 -0.0850  0.1548
  915XCA     C2 8258  10.788  10.914   5.717 -0.1423  0.1054 -0.1536
  915XCA     C3 8259  11.100  11.115   5.855 -0.2596  0.2960  0.0560
  915XCA     C4 8260  11.271  11.240   6.251 -0.2969 -0.0245  0.0021
  915XCA     C5 8261  11.403  11.124   6.630  0.0073 -0.0493  0.0792
  915XCA     C6 8262  11.343  11.029   7.163  0.0560  0.2887  0.2021
  916PNCE   AM1 8263   9.692  11.403   5.262  0.2003 -0.2024  0.2953
  916PNCE   AM2 8264   9.784  11.136   5.388 -0.0470 -0.1377  0.1371
  916PNCE   T1A 8265   9.685  11.601   5.597  0.1705  0.0645 -0.0804
  916PNCE   C2A 8266   9.765  11.804   5.994  0.3183  0.0500 -0.0487
  916PNCE   C3A 8267   9.752  12.048   6.270 -0.2601  0.1992 -0.1128
  916PNCE   C1B 8268   9.822  11.107   5.793 -0.0669  0.0309  0.1220
  916PNCE   C2B 8269  10.106  11.167   6.192 -0.2149 -0.1339  0.0621
  916PNCE   C3B 8270  10.402  11.369   6.450 -0.1046  0.3077 -0.0770
  916PNCE   D4B 8271  10.466  11.388   6.840 -0.3429  0.1951 -0.2072
  916PNCE   C5B 8272  10.331  11.588   7.222 -0.1112  0.0175  0.3066
  916PNCE   C6B 8273  10.269  12.047   7.305  0.2008 -0.1746 -0.0790
  917CHOL   ROH 8274   7.767  13.338   5.646 -0.3018  0.1851 -0.0413
  917CHOL    R1 8275   7.787  13.546   5.836 -0.2126  0.1564 -0.0202
  917CHOL    R2 8276   7.566  13.668   5.948 -0.1590  0.1578  0.0791
  917CHOL    R3 8277   7.686  13.600   6.182 -0.0764  0.1181  0.0269
  917CHOL    R4 8278   7.517  13.830   6.249 -0.1930 -0.0041  0.1629
  917CHOL    R5 8279   7.730  13.809   6.289 -0.1722  0.0964  0.1129
  917CHOL    C1 8280   7.602  13.860   6.645 -0.1351 -0.1356  0.1627
  917CHOL    C2 8281   7.333  14.103   6.807  0.0523 -0.1094  0.1456
  918CHOL   ROH 8282   3.993  10.382   5.652  0.1794 -0.0480  0.1147
  918CHOL    R1 8283   3.981  10.591   5.842  0.1175 -0.0353  0.0976
  918CHOL    R2 8284   3.753  10.648   5.987  0.0696 -0.0243  0.0191
  918CHOL    R3 8285   3.919  10.620   6.200 -0.0008 -0.0118  0.0756
  918CHOL    R4 8286   3.689  10.767   6.305  0.0823  0.2309 -0.0720
  918CHOL    R5 8287   3.898  10.826   6.320  0.1243  0.0840 -0.0629
  918CHOL    C1 8288   3.807  10.810   6.690  0.0236  0.3912 -0.0720
  918CHOL    C2 8289   3.860  10.934   7.080 -0.1138  0.1388 -0.1334
  919CHOL   ROH 8290   7.221   7.650   5.504  0.0273  0.0774  0.1348
  919CHOL    R1 8291   7.327   7.594   5.760 -0.2095 -0.0931  0.1976
  919CHOL    R2 8292   7.179   7.472   5.959 -0.3153 -0.4646 -0.1062
  919CHOL    R3 8293   7.387   7.298   5.963 -0.1365 -0.2568 -0.0554
  919CHOL    R4 8294   7.318   7.336   6.245  0.0153 -0.0063 -0.0353
  919CHOL    R5 8295   7.515   7.361   6.155 -0.0626  0.0939 -0.2042
  919CHOL    C1 8296   7.594   7.092   6.414  0.3757  0.4556  0.0535
  919CHOL    C2 8297   7.721   6.809   6.725  0.1207  0.2431  0.1490
  920CHOL   ROH 8298   7.864  15.022   4.640  0.0284  0.1968 -0.0058
  920CHOL    R1 8299   7.947  14.828   4.830 -0.0132  0.1242 -0.0584
  920CHOL    R2 8300   8.213  14.779   4.884 -0.0147  0.0239 -0.0942
  920CHOL    R3 8301   8.136  14.827   5.140  0.0188 -0.0031 -0.0809
  920CHOL    R4 8302   8.395  14.692   5.165 -0.0451 -0.0995 -0.1139
  920CHOL    R5 8303   8.208  14.634   5.262 -0.0536 -0.0468 -0.1209
  920CHOL    C1 8304   8.429  14.686   5.569 -0.0314 -0.1967 -0.1129
  920CHOL    C2 8305   8.398  14.381   5.770 -0.0576 -0.2234 -0.1949
  921PNCE   AM1 8306  15.770   8.833   5.146  0.0743 -0.0416 -0.0152
  921PNCE   AM2 8307  15.546   9.072   5.082  0.2868  0.0809 -0.0453
  921PNCE   T1A 8308  15.592   8.828   5.569 -0.0017  0.1249  0.2126
  921PNCE   C2A 8309  15.305   8.993   5.806  0.3997  0.0486 -0.0254
  921PNCE   C3A 8310  15.101   9.226   6.147  0.4529  0.4049  0.0341
  921PNCE   C1B 8311  15.578   9.348   5.573 -0.0686 -0.4401 -0.0134
  921PNCE   C2B 8312  15.504   9.537   6.035  0.0670 -0.0422  0.1437
  921PNCE   C3B 8313  15.302   9.686   6.360 -0.0244 -0.2180  0.0963
  921PNCE   D4B 8314  15.106   9.765   6.752 -0.0915  0.1918 -0.4284
  921PNCE   C5B 8315  14.672   9.616   6.926 -0.1725 -0.1619  0.0703
  921PNCE   C6B 8316  14.502   9.283   7.151 -0.0294  0.0947 -0.1537
  922CHOL   ROH 8317   0.007   5.034   6.481  0.1056 -0.1184  0.0281
  922CHOL    R1 8318   0.253   4.929   6.388  0.1579 -0.0929  0.1362
  922CHOL    R2 8319   0.487   5.076   6.386  0.1298 -0.0486  0.1805
  922CHOL    R3 8320   0.583   4.865   6.528  0.1241  0.0039  0.2628
  922CHOL    R4 8321   0.822   5.006   6.432  0.1288 -0.1132  0.0888
  922CHOL    R5 8322   0.776   4.794   6.405  0.0579 -0.1180  0.2253
  922CHOL    C1 8323   1.108   4.767   6.592  0.1229 -0.1015  0.1126
  922CHOL    C2 8324   1.462   4.659   6.754 -0.1123  0.3106  0.2291
  923PNCE   AM1 8325   6.436  12.210   9.725  0.0456 -0.0156  0.0794
  923PNCE   AM2 8326   6.127  12.172   9.420 -0.0272  0.3053 -0.1668
  923PNCE   T1A 8327   6.421  12.587   9.301  0.1157  0.0951  0.0547
  923PNCE   C2A 8328   6.729  12.858   9.288 -0.1861  0.0654  0.3164
  923PNCE   C3A 8329   6.641  13.267   9.367  0.1550  0.2267  0.4452
  923PNCE   C1B 8330   6.106  12.280   9.013 -0.0607  0.0182  0.0422
  923PNCE   C2B 8331   6.045  12.254   8.531 -0.0270  0.0932 -0.0837
  923PNCE   C3B 8332   6.359  12.380   8.229 -0.1268  0.1947 -0.2310
  923PNCE   D4B 8333   6.540  12.513   7.915  0.1586  0.0326  0.0009
  923PNCE   C5B 8334   6.862  12.640   7.651 -0.1555 -0.2483 -0.0421
  923PNCE   C6B 8335   6.977  12.956   7.451  0.1791 -0.2236  0.1805
  924PNCE   AM1 8336  15.829   4.683   4.562  0.0611  0.0060  0.2246
  924PNCE   AM2 8337  15.764   5.040   4.627  0.2987  0.2356  0.0279
  924PNCE   T1A 8338  15.766   4.328   4.865 -0.2839 -0.1150 -0.1872
  924PNCE   C2A 8339  15.480   4.209   5.164  0.0239  0.2186  0.3971
  924PNCE   C3A 8340  15.290   3.848   5.327  0.1135  0.1874 -0.2064
  924PNCE   C1B 8341  15.300   4.812   4.680 -0.5083  0.0175  0.0155
  924PNCE   C2B 8342  14.989   4.439   4.791 -0.0421 -0.1829 -0.0464
  924PNCE   C3B 8343  14.784   4.411   5.124 -0.2323 -0.0461  0.3391
  924PNCE   D4B 8344  14.611   4.394   5.518  0.1650 -0.0224  0.3069
  924PNCE   C5B 8345  14.565   3.982   5.887  0.2365 -0.0628 -0.0048
  924PNCE   C6B 8346  14.296   3.693   5.986 -0.3224 -0.5004  0.1373
  925CHOL   ROH 8347   0.782   6.428   5.110 -0.0963 -0.2795 -0.0713
  925CHOL    R1 8348   0.800   6.270   5.345 -0.0209 -0.1002  0.0461
  925CHOL    R2 8349   0.926   6.359   5.574 -0.0245  0.1137 -0.0267
  925CHOL    R3 8350   0.688   6.298   5.690  0.0047  0.1239  0.0367
  925CHOL    R4 8351   0.871   6.341   5.915  0.0295  0.2207 -0.0124
  925CHOL    R5 8352   0.747   6.165   5.880  0.0480  0.1979  0.0704
  925CHOL    C1 8353   0.616   6.272   6.222  0.0884  0.2925  0.0555
  925CHOL    C2 8354   0.395   5.948   6.446  0.0378  0.1103  0.0374
  926CHOL   ROH 8355  11.527   5.623   7.956  0.2443  0.0400 -0.2763
  926CHOL    R1 8356  11.525   5.452   7.731  0.0755  0.0132 -0.2575
  926CHOL    R2 8357  11.430   5.194   7.741  0.2129 -0.0410 -0.1196
  926CHOL    R3 8358  11.274   5.276   7.534 -0.0645 -0.1327  0.0486
  926CHOL    R4 8359  11.294   4.984   7.502  0.4038 -0.0674 -0.2065
  926CHOL    R5 8360  11.340   5.135   7.351  0.0494  0.1331 -0.1118
  926CHOL    C1 8361  11.068   4.939   7.169  0.2547 -0.1688 -0.0992
  926CHOL    C2 8362  10.826   4.603   7.081 -0.0082  0.0185 -0.3505
  927PNCE   AM1 8363  10.535   4.524   5.006 -0.0225  0.4033  0.1167
  927PNCE   AM2 8364  10.621   4.172   5.059 -0.0862 -0.1115  0.0328
  927PNCE   T1A 8365  10.852   4.604   5.281  0.2074 -0.2114 -0.1282
  927PNCE   C2A 8366  11.241   4.667   5.507 -0.2234  0.0552 -0.0811
  927PNCE   C3A 8367  11.520   4.692   5.901 -0.0581  0.2447 -0.2898
  927PNCE   C1B 8368  10.691   4.087   5.535 -0.0733 -0.1172 -0.0360
  927PNCE   C2B 8369  10.903   4.171   5.883  0.2221 -0.1527  0.0355
  927PNCE   C3B 8370  10.815   4.154   6.278 -0.0804  0.3805  0.2257
  927PNCE   D4B 8371  10.907   4.332   6.685  0.2254  0.0053 -0.2020
  927PNCE   C5B 8372  10.887   4.763   6.635 -0.1303 -0.0640 -0.0092
  927PNCE   C6B 8373  11.101   5.021   6.430 -0.1574  0.0118  0.0030
  928CHOL   ROH 8374  13.281   6.614   8.222 -0.2045  0.1361  0.2821
  928CHOL    R1 8375  13.298   6.713   7.957 -0.2473 -0.0824  0.1942
  928CHOL    R2 8376  13.093   6.854   7.838 -0.2022 -0.0219  0.1719
  928CHOL    R3 8377  13.288   7.039   7.796 -0.0805 -0.1977 -0.0509
  928CHOL    R4 8378  13.046   7.157   7.679 -0.1379  0.0939  0.3716
  928CHOL    R5 8379  13.238   7.129   7.580 -0.3206 -0.0576  0.0647
  928CHOL    C1 8380  13.201   7.507   7.546  0.0138 -0.0036  0.2786
  928CHOL    C2 8381  13.425   7.574   7.259  0.0740  0.2998  0.3620
  929CHOL   ROH 8382   5.391   9.847   5.179 -0.0198  0.0002 -0.1581
  929CHOL    R1 8383   5.229  10.046   5.299  0.0662 -0.0176 -0.0085
  929CHOL    R2 8384   5.088  10.003   5.532  0.1159 -0.1031  0.0083
  929CHOL    R3 8385   5.220  10.225   5.616  0.2016 -0.1840  0.0903
  929CHOL    R4 8386   4.978  10.215   5.782 -0.1043  0.1770 -0.3177
  929CHOL    R5 8387   5.046  10.384   5.661  0.2804  0.0295 -0.3161
  929CHOL    C1 8388   5.037  10.547   6.006 -0.1522  0.2640 -0.4305
  929CHOL    C2 8389   4.927  10.571   6.422  0.0557 -0.1657 -0.2687
  930CHOL   ROH 8390  15.462   2.570   7.090 -0.1363 -0.0908 -0.0414
  930CHOL    R1 8391  15.563   2.327   6.984 -0.0980 -0.0701 -0.0516
  930CHOL    R2 8392  15.477   2.223   6.744 -0.0748 -0.0683 -0.0600
  930CHOL    R3 8393  15.743   2.224   6.685 -0.0727 -0.0274 -0.0512
  930CHOL    R4 8394  15.628   2.022   6.505 -0.0749  0.1364 -0.2356
  930CHOL    R5 8395  15.795   1.994   6.642 -0.0804  0.0069 -0.2548
  930CHOL    C1 8396  15.964   1.907   6.312 -0.0728  0.2938 -0.3296
  930CHOL    C2 8397  16.173   1.617   6.092  0.0941 -0.0412  0.0225
  931CHOL   ROH 8398  12.004  12.057   8.420 -0.0890  0.0934 -0.1129
  931CHOL    R1 8399  11.940  11.850   8.238 -0.0521  0.0549 -0.0865
  931CHOL    R2 8400  11.685  11.812   8.139 -0.0981 -0.1189  0.0510
  931CHOL    R3 8401  11.812  11.826   7.899 -0.2319 -0.0073 -0.0109
  931CHOL    R4 8402  11.595  11.635   7.856 -0.0584 -0.1940  0.0877
  931CHOL    R5 8403  11.806  11.603   7.814 -0.0627  0.0003 -0.0143
  931CHOL    C1 8404  11.661  11.546   7.466 -0.1610 -0.1330  0.0510
  931CHOL    C2 8405  11.387  11.498   7.090  0.0098  0.0778  0.2534
  932XCA    COO 8406   2.357  12.404   8.291  0.1271  0.5235  0.5418
  932XCA     C1 8407   2.288  12.321   7.874  0.1812  0.0651 -0.2681
  932XCA     C2 8408   2.315  12.153   7.438  0.0214  0.0964 -0.2705
  932XCA     C3 8409   2.126  12.075   7.011 -0.1187 -0.2427  0.3845
  932XCA     C4 8410   2.253  11.697   6.697 -0.2783  0.0210 -0.1654
  932XCA     C5 8411   2.474  11.405   6.476 -0.0719  0.0567  0.0331
  932XCA     C6 8412   3.075  11.444   6.531  0.0437  0.2548  0.0962
  933XCA    COO 8413   6.500   7.369   9.313 -0.0379 -0.0259  0.0648
  933XCA     C1 8414   6.151   7.210   8.997 -0.0943 -0.1759  0.0800
  933XCA     C2 8415   6.016   7.285   8.593 -0.0944 -0.0249  0.0266
  933XCA     C3 8416   5.984   7.109   8.244  0.0017 -0.1409 -0.0385
  933XCA     C4 8417   6.014   6.884   7.905 -0.2528  0.0399  0.3256
  933XCA     C5 8418   5.961   6.534   7.775  0.3860  0.0147 -0.4466
  933XCA     C6 8419   5.678   6.281   7.661  0.3165  0.0751 -0.0862
  934CHOL   ROH 8420   8.176   9.048   8.910 -0.3157  0.0821 -0.0037
  934CHOL    R1 8421   8.195   9.215   8.682  0.0562  0.0055 -0.0332
  934CHOL    R2 8422   8.380   9.171   8.481 -0.0813 -0.4915 -0.0596
  934CHOL    R3 8423   8.160   9.175   8.322 -0.1144  0.0330 -0.0216
  934CHOL    R4 8424   8.386   9.215   8.139 -0.0047 -0.6926 -0.0863
  934CHOL    R5 8425   8.209   9.341   8.157  0.3333 -0.1774 -0.1227
  934CHOL    C1 8426   8.182   9.244   7.790  0.0087 -0.3172 -0.0664
  934CHOL    C2 8427   8.244   9.235   7.477  0.0743  0.2142  0.0621
  935PNCE   AM1 8428  14.914   7.755   4.563  0.0246  0.1994  0.0104
  935PNCE   AM2 8429  15.078   7.422   4.412 -0.1943 -0.1447 -0.0310
  935PNCE   T1A 8430  15.034   7.525   4.922  0.0320  0.0777  0.2962
  935PNCE   C2A 8431  14.920   7.076   5.157 -0.0662 -0.0362 -0.0872
  935PNCE   C3A 8432  14.964   6.822   5.519  0.0023  0.2430 -0.1171
  935PNCE   C1B 8433  14.858   7.153   4.582 -0.0752  0.2388 -0.3102
  935PNCE   C2B 8434  14.818   6.770   4.758  0.1650  0.1545  0.2955
  935PNCE   C3B 8435  14.498   6.461   4.662  0.0945 -0.0834  0.2512
  935PNCE   D4B 8436  14.162   6.116   4.504  0.0925 -0.2629 -0.3506
  935PNCE   C5B 8437  13.784   5.965   4.814 -0.3568  0.2975  0.1335
  935PNCE   C6B 8438  13.524   5.932   5.093  0.2558 -0.1721  0.0509
  936CHOL   ROH 8439  14.554   2.319   5.781 -0.1785 -0.1397 -0.0394
  936CHOL    R1 8440  14.579   2.413   6.047 -0.1402 -0.0824 -0.0631
  936CHOL    R2 8441  14.704   2.651   6.109 -0.0782 -0.0975 -0.1269
  936CHOL    R3 8442  14.470   2.705   6.236 -0.0583 -0.0105 -0.1265
  936CHOL    R4 8443  14.619   2.957   6.245  0.0710 -0.0903 -0.0482
  936CHOL    R5 8444  14.532   2.852   6.415  0.0065 -0.0911 -0.0828
  936CHOL    C1 8445  14.350   3.186   6.443  0.1764 -0.0044 -0.0019
  936CHOL    C2 8446  14.058   3.382   6.382 -0.0234 -0.3614 -0.1825
  937PNCE   AM1 8447   7.341  14.003   5.257 -0.0534 -0.1608  0.2356
  937PNCE   AM2 8448   7.329  14.346   5.131  0.3046 -0.2050  0.1305
  937PNCE   T1A 8449   7.492  14.063   5.615  0.0963 -0.1848 -0.0860
  937PNCE   C2A 8450   7.543  14.224   6.011  0.2723  0.0491 -0.0832
  937PNCE   C3A 8451   7.613  14.296   6.411  0.0267  0.0359 -0.1281
  937PNCE   C1B 8452   7.439  14.574   5.535 -0.0669 -0.0919  0.0828
  937PNCE   C2B 8453   7.558  14.739   5.904  0.0646 -0.1816 -0.0248
  937PNCE   C3B 8454   7.777  15.118   6.024  0.1889 -0.0616 -0.1476
  937PNCE   D4B 8455   7.869  15.489   5.975  0.0783 -0.0962  0.0483
  937PNCE   C5B 8456   8.176  15.814   6.004 -0.0764  0.0430  0.1356
  937PNCE   C6B 8457   8.269  16.135   6.100  0.0936  0.1431  0.2764
  938XCA    COO 8458   1.955   2.794   4.054 -0.0744  0.1951  0.1066
  938XCA     C1 8459   2.325   2.991   4.280 -0.0298 -0.2117  0.1561
  938XCA     C2 8460   2.382   3.427   4.451 -0.0907  0.0679  0.3339
  938XCA     C3 8461   2.649   3.793   4.668  0.3253 -0.1495  0.0181
  938XCA     C4 8462   2.655   4.030   5.014  0.3166 -0.0414  0.0112
  938XCA     C5 8463   2.783   4.385   5.403 -0.1304  0.0088  0.0920
  938XCA     C6 8464   2.721   4.660   5.814 -0.0940 -0.0442  0.2854
  939CHOL   ROH 8465  12.029   2.759   4.851  0.0217 -0.0502 -0.0726
  939CHOL    R1 8466  12.212   2.841   5.051  0.1681 -0.0847 -0.1884
  939CHOL    R2 8467  12.171   2.791   5.320  0.1241  0.2803 -0.1126
  939CHOL    R3 8468  12.418   2.678   5.303 -0.0417 -0.1058 -0.0314
  939CHOL    R4 8469  12.417   2.815   5.562  0.2357  0.2516 -0.2241
  939CHOL    R5 8470  12.564   2.839   5.404  0.2270 -0.1832 -0.2983
  939CHOL    C1 8471  12.791   2.723   5.688  0.1452 -0.1276 -0.2127
  939CHOL    C2 8472  12.898   2.420   5.922 -0.0987 -0.2886 -0.1145
  940CHOL   ROH 8473   3.598  12.973   9.206 -0.1129  0.1120  0.0735
  940CHOL    R1 8474   3.703  13.109   8.981 -0.1656  0.1162  0.0515
  940CHOL    R2 8475   3.953  13.054   8.877 -0.1208  0.2365  0.0957
  940CHOL    R3 8476   3.814  13.019   8.646 -0.0729  0.0958  0.0876
  940CHOL    R4 8477   4.094  13.042   8.562 -0.0761  0.2444  0.1152
  940CHOL    R5 8478   3.926  13.159   8.488 -0.1388  0.1251  0.0666
  940CHOL    C1 8479   4.046  13.002   8.162 -0.0051  0.1170  0.1189
  940CHOL    C2 8480   4.174  13.007   7.791 -0.0082 -0.1378  0.1707
  941CHOL   ROH 8481  10.798   1.054   5.041  0.1592 -0.2001  0.0735
  941CHOL    R1 8482  10.797   0.771   5.040 -0.0508 -0.2001  0.0475
  941CHOL    R2 8483  10.941   0.622   5.222  0.1337 -0.3189 -0.1955
  941CHOL    R3 8484  10.700   0.506   5.270  0.1199 -0.1489  0.1829
  941CHOL    R4 8485  10.893   0.336   5.410  0.2603 -0.3991 -0.2830
  941CHOL    R5 8486  10.744   0.271   5.264 -0.0750 -0.1867 -0.0548
  941CHOL    C1 8487  10.639   0.061   5.564  0.3210 -0.2862  0.0213
  941CHOL    C2 8488  10.389  -0.110   5.759  0.3231 -0.1004 -0.0118
  942PNCE   AM1 8489  13.278   6.402   3.797 -0.4567 -0.3618  0.2525
  942PNCE   AM2 8490  13.615   6.410   3.914 -0.2109  0.1200  0.1039
  942PNCE   T1A 8491  13.120   6.133   4.212 -0.0566  0.0445  0.1992
  942PNCE   C2A 8492  12.817   5.889   4.423 -0.1752 -0.0752  0.0814
  942PNCE   C3A 8493  12.278   5.868   4.548  0.0512 -0.2683  0.0021
  942PNCE   C1B 8494  13.607   6.286   4.406 -0.0267  0.3279  0.0577
  942PNCE   C2B 8495  13.596   6.473   4.770  0.3615 -0.0668 -0.2159
  942PNCE   C3B 8496  13.498   6.569   5.190 -0.0149 -0.0646  0.0589
  942PNCE   D4B 8497  13.548   6.713   5.662  0.4973 -0.2618 -0.0066
  942PNCE   C5B 8498  13.334   7.041   5.869  0.0030  0.1706  0.0277
  942PNCE   C6B 8499  13.335   7.153   6.243 -0.0240 -0.1072  0.1549
  943PNCE   AM1 8500  14.896  14.676   4.445  0.1314 -0.0061  0.3359
  943PNCE   AM2 8501  14.950  14.906   4.222  0.1932  0.0393  0.4308
  943PNCE   T1A 8502  14.770  14.850   4.818  0.2032 -0.0935 -0.0022
  943PNCE   C2A 8503  14.880  14.912   5.202 -0.0455  0.2235 -0.2907
  943PNCE   C3A 8504  15.130  14.805   5.344  0.0761  0.3432 -0.2388
  943PNCE   C1B 8505  15.240  14.974   4.618 -0.1273  0.0808 -0.2878
  943PNCE   C2B 8506  15.516  14.881   4.969 -0.1240 -0.0675  0.0629
  943PNCE   C3B 8507  15.667  14.930   5.427 -0.0508  0.0858 -0.0766
  943PNCE   D4B 8508  15.645  14.612   5.769  0.1623  0.0895  0.0090
  943PNCE   C5B 8509  15.250  14.520   5.966  0.0980  0.0462 -0.2608
  943PNCE   C6B 8510  15.268  14.420   6.294 -0.1691 -0.1521 -0.1418
  944PNCE   AM1 8511   4.684   0.408   4.413  0.1223  0.3025 -0.0682
  944PNCE   AM2 8512   4.755   0.678   4.346 -0.2066 -0.0531  0.0899
  944PNCE   T1A 8513   4.360   0.050   4.512 -0.3549  0.1339 -0.3411
  944PNCE   C2A 8514   4.079  -0.295   4.494  0.1173  0.1875 -0.3877
  944PNCE   C3A 8515   3.768  -0.575   4.598 -0.1195 -0.1174  0.2450
  944PNCE   C1B 8516   4.561   0.643   4.796 -0.0646  0.0302 -0.1212
  944PNCE   C2B 8517   4.333   0.599   5.178 -0.3101 -0.0499 -0.0511
  944PNCE   C3B 8518   4.129   0.570   5.486 -0.1316 -0.0865 -0.2635
  944PNCE   D4B 8519   3.965   0.868   5.736  0.4008  0.1610  0.0955
  944PNCE   C5B 8520   4.147   0.789   6.115  0.0331  0.3990 -0.1287
  944PNCE   C6B 8521   4.393   0.590   6.292 -0.0119  0.2658 -0.2804
  945CHOL   ROH 8522  12.072   0.051   5.087  0.1732  0.0454 -0.0348
  945CHOL    R1 8523  12.116   0.294   4.949  0.2990 -0.0208 -0.1132
  945CHOL    R2 8524  12.246   0.307   4.707  0.0748 -0.1992 -0.2478
  945CHOL    R3 8525  12.022   0.438   4.628  0.1320  0.0295 -0.0421
  945CHOL    R4 8526  12.233   0.542   4.454  0.0760 -0.1803 -0.2310
  945CHOL    R5 8527  12.097   0.660   4.577  0.3055 -0.0445 -0.1054
  945CHOL    C1 8528  12.015   0.802   4.233  0.1305  0.0455 -0.0280
  945CHOL    C2 8529  12.279   1.181   4.113 -0.1635  0.3415 -0.1476
  946CHOL   ROH 8530   3.476  12.416   6.537  0.0122  0.1192  0.1990
  946CHOL    R1 8531   3.424  12.307   6.793 -0.0995  0.0074  0.1309
  946CHOL    R2 8532   3.230  12.114   6.836 -0.0717 -0.0697 -0.0476
  946CHOL    R3 8533   3.437  11.978   6.947 -0.0901 -0.0475  0.0111
  946CHOL    R4 8534   3.197  11.848   7.054 -0.0978  0.0096  0.0442
  946CHOL    R5 8535   3.363  11.928   7.169 -0.1009  0.0346  0.0221
  946CHOL    C1 8536   3.373  11.565   7.286 -0.1304  0.0766  0.1528
  946CHOL    C2 8537   3.599  11.228   7.323  0.1150 -0.2683  0.2373
  947XCA    COO 8538   9.764   7.510   4.778  0.0173 -0.1651 -0.2236
  947XCA     C1 8539   9.850   7.686   5.174  0.1193 -0.2916  0.0090
  947XCA     C2 8540   9.854   7.881   5.623  0.1630 -0.0083 -0.0701
  947XCA     C3 8541   9.883   8.005   6.024 -0.1086  0.0540 -0.1859
  947XCA     C4 8542  10.016   8.385   6.134 -0.0191  0.2811  0.0640
  947XCA     C5 8543  10.313   8.598   6.368  0.0517  0.2012 -0.0196
  947XCA     C6 8544  10.635   8.801   6.409 -0.0382 -0.1589 -0.0503
  948PNCE   AM1 8545  15.103   9.972   4.368  0.1053 -0.0450 -0.1531
  948PNCE   AM2 8546  15.440  10.196   4.368 -0.0586 -0.3054  0.0757
  948PNCE   T1A 8547  14.908  10.051   4.734  0.0464  0.1553 -0.1552
  948PNCE   C2A 8548  14.880   9.851   5.138 -0.3481 -0.0128  0.1674
  948PNCE   C3A 8549  15.009   9.961   5.454  0.1190 -0.0466 -0.1547
  948PNCE   C1B 8550  15.628  10.486   4.689 -0.2666  0.2362  0.3312
  948PNCE   C2B 8551  15.926  10.447   5.072 -0.0974 -0.1387 -0.1563
  948PNCE   C3B 8552  16.137  10.506   5.434 -0.2145 -0.0933 -0.0525
  948PNCE   D4B 8553  16.086  10.558   5.814  0.4461  0.1837 -0.2167
  948PNCE   C5B 8554  15.828  10.239   5.847 -0.5191  0.3482 -0.0087
  948PNCE   C6B 8555  16.034   9.796   5.875 -0.0335  0.0022  0.0292
  949XCA    COO 8556   1.336   3.347   4.750 -0.1128  0.2445  0.1219
  949XCA     C1 8557   1.511   3.269   5.123 -0.0969 -0.1975  0.1725
  949XCA     C2 8558   1.523   3.352   5.605 -0.2196 -0.2242  0.0573
  949XCA     C3 8559   1.863   3.524   5.794 -0.1013  0.1014  0.1871
  949XCA     C4 8560   2.117   3.878   6.107  0.3545 -0.1975  0.0862
  949XCA     C5 8561   2.239   4.259   6.262  0.1530  0.3145 -0.1802
  949XCA     C6 8562   2.453   4.511   6.548 -0.2532 -0.0936 -0.5643
  950CHOL   ROH 8563   5.155   9.626   8.941 -0.0494 -0.0612 -0.1470
  950CHOL    R1 8564   5.118   9.859   8.785  0.0170 -0.0669 -0.1715
  950CHOL    R2 8565   5.118   9.854   8.509 -0.0941 -0.1137 -0.1709
  950CHOL    R3 8566   4.877   9.977   8.539 -0.0156  0.0239 -0.0968
  950CHOL    R4 8567   4.869   9.863   8.268 -0.1240  0.1157 -0.1336
  950CHOL    R5 8568   4.831  10.070   8.323  0.0103  0.1225 -0.0601
  950CHOL    C1 8569   4.499   9.983   8.157 -0.0677  0.3784 -0.0423
  950CHOL    C2 8570   4.124   9.918   8.063  0.4323 -0.3356  0.3330
  951CHOL   ROH 8571  13.718   5.944   8.306 -0.1304  0.0409  0.0314
  951CHOL    R1 8572  13.864   6.039   8.084 -0.0322  0.0236  0.0878
  951CHOL    R2 8573  13.942   5.875   7.876 -0.0606  0.0347  0.0675
  951CHOL    R3 8574  13.814   6.061   7.724  0.0627  0.1308  0.0806
  951CHOL    R4 8575  14.027   5.956   7.551  0.0039  0.0124  0.0790
  951CHOL    R5 8576  13.990   6.166   7.599  0.1347  0.0319  0.0980
  951CHOL    C1 8577  13.957   6.178   7.219  0.1573  0.0896  0.0981
  951CHOL    C2 8578  14.347   6.093   7.150  0.2548 -0.1850 -0.1855
  952XCA    COO 8579   8.545   6.497   4.796 -0.2433  0.0624  0.1605
  952XCA     C1 8580   8.610   6.312   5.138  0.2544 -0.3420 -0.2008
  952XCA     C2 8581   8.725   6.307   5.561  0.1720 -0.0915  0.0320
  952XCA     C3 8582   9.033   6.308   5.940 -0.3547 -0.0464  0.0760
  952XCA     C4 8583   9.044   6.609   6.262  0.1729  0.0210  0.1467
  952XCA     C5 8584   9.370   6.768   6.517  0.0833 -0.1953 -0.5780
  952XCA     C6 8585   9.661   6.792   6.892 -0.3930 -0.1188  0.0238
  953CHOL   ROH 8586   6.852   7.796   8.336 -0.0186  0.0409  0.1062
  953CHOL    R1 8587   6.983   7.699   8.104 -0.0953  0.0962  0.0395
  953CHOL    R2 8588   7.002   7.848   7.872  0.0006  0.2326  0.1348
  953CHOL    R3 8589   7.268   7.800   7.901 -0.0307  0.0247  0.0932
  953CHOL    R4 8590   7.237   7.874   7.619 -0.0395 -0.0830  0.0605
  953CHOL    R5 8591   7.333   7.694   7.696 -0.1699 -0.1296  0.1246
  953CHOL    C1 8592   7.623   7.844   7.500 -0.0922 -0.4621 -0.0219
  953CHOL    C2 8593   7.992   7.869   7.245  0.1041 -0.0272 -0.0305
  954PNCE   AM1 8594   3.173  11.201   5.301 -0.3063  0.2183  0.2033
  954PNCE   AM2 8595   2.911  11.477   5.177  0.1235  0.1179  0.0288
  954PNCE   T1A 8596   3.011  11.267   5.595 -0.0033 -0.0378  0.3599
  954PNCE   C2A 8597   2.951  11.365   6.011 -0.1360 -0.2543 -0.2702
  954PNCE   C3A 8598   2.725  11.716   6.142 -0.0895 -0.0531 -0.2019
  954PNCE   C1B 8599   2.826  11.717   5.638 -0.0411 -0.1786  0.0240
  954PNCE   C2B 8600   2.895  12.074   5.771 -0.0300  0.0738 -0.2664
  954PNCE   C3B 8601   2.855  12.326   6.085 -0.1679 -0.2798 -0.0775
  954PNCE   D4B 8602   3.026  12.473   6.521  0.4206 -0.0362 -0.1603
  954PNCE   C5B 8603   2.894  12.782   6.773 -0.5380  0.2754 -0.0418
  954PNCE   C6B 8604   2.768  13.145   6.618 -0.3277 -0.0847  0.2914
  955XCA    COO 8605   0.498   9.503   4.898 -0.1748 -0.0878  0.0951
  955XCA     C1 8606   0.420   9.785   5.183 -0.3172 -0.3707  0.0318
  955XCA     C2 8607   0.548  10.048   5.592  0.1049 -0.0514 -0.1218
  955XCA     C3 8608   0.692  10.382   5.906  0.1611  0.3501 -0.1268
  955XCA     C4 8609   0.568  10.725   6.276 -0.0635 -0.2047  0.1048
  955XCA     C5 8610   0.598  11.260   6.343 -0.1767 -0.2616  0.1002
  955XCA     C6 8611   0.797  11.626   6.174 -0.0321  0.0434 -0.0942
  956PNCE   AM1 8612  14.938   1.622   4.299  0.1824 -0.2216 -0.1200
  956PNCE   AM2 8613  15.167   1.969   4.212 -0.0667 -0.0452 -0.0271
  956PNCE   T1A 8614  14.802   1.447   4.769 -0.0830 -0.0437  0.0165
  956PNCE   C2A 8615  14.436   1.207   4.869  0.1316  0.3256 -0.3621
  956PNCE   C3A 8616  14.005   1.121   5.026 -0.2661 -0.1735 -0.1042
  956PNCE   C1B 8617  15.472   1.719   4.313 -0.1282 -0.1022 -0.1696
  956PNCE   C2B 8618  15.656   1.690   4.830  0.0567 -0.2407  0.1939
  956PNCE   C3B 8619  15.791   2.019   5.060 -0.1965  0.1691  0.0712
  956PNCE   D4B 8620  15.710   2.365   5.435  0.1337 -0.2349  0.1380
  956PNCE   C5B 8621  15.581   2.639   5.773 -0.0740  0.1224 -0.0308
  956PNCE   C6B 8622  15.142   2.679   6.134 -0.0565 -0.1899  0.2940
  957CHOL   ROH 8623   8.544   8.358   5.347 -0.0839  0.0661  0.1348
  957CHOL    R1 8624   8.510   8.254   5.608 -0.1239  0.0799  0.1348
  957CHOL    R2 8625   8.680   8.318   5.817 -0.0904  0.0036  0.1302
  957CHOL    R3 8626   8.448   8.390   5.940 -0.0561  0.1058  0.1370
  957CHOL    R4 8627   8.624   8.298   6.157 -0.1077 -0.0159  0.1266
  957CHOL    R5 8628   8.422   8.227   6.115 -0.1439  0.0945  0.1133
  957CHOL    C1 8629   8.374   8.353   6.472 -0.0857  0.0686  0.1309
  957CHOL    C2 8630   8.403   8.120   6.910 -0.1361  0.0285 -0.4722
  958PNCE   AM1 8631   5.694  11.306   4.470 -0.1171  0.0791 -0.1752
  958PNCE   AM2 8632   5.424  11.540   4.547  0.2924  0.2204 -0.0345
  958PNCE   T1A 8633   5.637  11.069   4.867 -0.2292 -0.0383 -0.0215
  958PNCE   C2A 8634   5.398  10.829   5.176 -0.0990 -0.1575 -0.0264
  958PNCE   C3A 8635   5.330  10.737   5.689  0.2951 -0.0509  0.1495
  958PNCE   C1B 8636   5.220  11.281   4.939 -0.0784 -0.2102 -0.4278
  958PNCE   C2B 8637   5.024  11.152   5.336 -0.5318 -0.0985  0.1896
  958PNCE   C3B 8638   4.824  11.372   5.664  0.1150  0.2195 -0.1441
  958PNCE   D4B 8639   4.500  11.622   5.599  0.2292  0.1434  0.0589
  958PNCE   C5B 8640   4.336  11.990   5.597  0.2918  0.1428 -0.0785
  958PNCE   C6B 8641   4.231  12.291   5.891 -0.0937  0.0799  0.1564
  959CHOL   ROH 8642   4.109   2.955   4.151 -0.2339  0.2092  0.0462
  959CHOL    R1 8643   4.081   2.823   4.400 -0.2109  0.1157  0.0003
  959CHOL    R2 8644   4.267   2.846   4.603 -0.0770 -0.1387 -0.0858
  959CHOL    R3 8645   4.050   2.920   4.749  0.0636 -0.0191  0.0636
  959CHOL    R4 8646   4.272   2.919   4.940  0.1688 -0.2628 -0.0609
  959CHOL    R5 8647   4.083   2.814   4.961  0.0984 -0.1193  0.0069
  959CHOL    C1 8648   4.072   3.032   5.274  0.4439 -0.2228  0.0938
  959CHOL    C2 8649   4.186   2.798   5.588  0.2127  0.0471  0.0732
  960CHOL   ROH 8650  11.238   0.215   8.227  0.3113  0.0818  0.1383
  960CHOL    R1 8651  11.157   0.250   7.958  0.2255 -0.1163  0.1362
  960CHOL    R2 8652  10.944   0.410   7.886  0.2146 -0.1538  0.0848
  960CHOL    R3 8653  11.128   0.528   7.725  0.1712 -0.2895 -0.0670
  960CHOL    R4 8654  10.891   0.496   7.556 -0.0462  0.0181  0.1687
  960CHOL    R5 8655  11.093   0.427   7.510 -0.1611 -0.1788 -0.0694
  960CHOL    C1 8656  11.033   0.658   7.212 -0.2386 -0.0092  0.0750
  960CHOL    C2 8657  11.215   0.967   6.995 -0.0395 -0.2028 -0.0006
  961PNCE   AM1 8658   7.070  14.769   4.952  0.1262 -0.0511  0.5013
  961PNCE   AM2 8659   7.252  14.906   5.204  0.0649  0.0743  0.1075
  961PNCE   T1A 8660   6.719  14.867   5.203 -0.2049  0.1300  0.0353
  961PNCE   C2A 8661   6.683  14.787   5.672  0.3767  0.1473 -0.0187
  961PNCE   C3A 8662   6.554  14.778   6.070  0.0907 -0.1606  0.2525
  961PNCE   C1B 8663   7.160  15.029   5.645  0.3523  0.2005 -0.1069
  961PNCE   C2B 8664   7.307  15.128   6.091  0.2495 -0.0586 -0.0207
  961PNCE   C3B 8665   7.509  14.835   6.414 -0.1696 -0.0910  0.2423
  961PNCE   D4B 8666   7.522  14.644   6.772  0.0313 -0.0343  0.1658
  961PNCE   C5B 8667   7.292  14.560   7.137  0.1030  0.0214  0.2063
  961PNCE   C6B 8668   6.930  14.572   7.444 -0.1785 -0.0032  0.2260
  962CHOL   ROH 8669   1.479  14.309   4.779 -0.0088  0.1787 -0.0102
  962CHOL    R1 8670   1.694  14.360   4.957  0.0361 -0.0018 -0.0120
  962CHOL    R2 8671   1.826  14.603   4.965  0.1421 -0.0666  0.0885
  962CHOL    R3 8672   1.762  14.592   5.229  0.1757 -0.1630  0.0939
  962CHOL    R4 8673   1.949  14.817   5.207 -0.0422  0.0306  0.0987
  962CHOL    R5 8674   1.966  14.647   5.342  0.1388  0.0257  0.0788
  962CHOL    C1 8675   1.960  14.932   5.595 -0.1181 -0.0035  0.1097
  962CHOL    C2 8676   2.153  15.059   5.828 -0.0137  0.3576 -0.0805
  963PNCE   AM1 8677  13.200  12.422   4.272 -0.0884  0.0328  0.0908
  963PNCE   AM2 8678  12.958  12.320   4.195  0.3318  0.1165  0.0901
  963PNCE   T1A 8679  13.395  12.366   4.622 -0.0174 -0.3794 -0.0262
  963PNCE   C2A 8680  13.541  12.304   5.127  0.1971 -0.0621 -0.0754
  963PNCE   C3A 8681  13.757  11.884   5.248 -0.0699  0.0142  0.1453
  963PNCE   C1B 8682  12.846  12.279   4.656 -0.0753 -0.3071 -0.2643
  963PNCE   C2B 8683  12.596  12.420   5.024 -0.0650 -0.1070  0.1009
  963PNCE   C3B 8684  12.391  12.395   5.519 -0.0630 -0.0653 -0.2010
  963PNCE   D4B 8685  12.370  12.605   5.948  0.0277  0.2660  0.3300
  963PNCE   C5B 8686  12.529  12.910   6.285  0.1292  0.3515 -0.2255
  963PNCE   C6B 8687  12.399  13.288   6.159 -0.0843 -0.2331 -0.1344
  964CHOL   ROH 8688   1.741   5.986   5.343 -0.1047  0.1165  0.1323
  964CHOL    R1 8689   1.675   5.996   5.618 -0.0902 -0.1765  0.1520
  964CHOL    R2 8690   1.769   5.812   5.801  0.2149 -0.1722  0.0161
  964CHOL    R3 8691   1.855   6.034   5.932 -0.1020 -0.1248  0.1505
  964CHOL    R4 8692   1.813   5.834   6.143  0.3261 -0.3576  0.0136
  964CHOL    R5 8693   1.729   6.035   6.136 -0.0160 -0.4926  0.2073
  964CHOL    C1 8694   1.920   6.054   6.465  0.0935 -0.4209  0.1384
  964CHOL    C2 8695   2.288   5.856   6.652 -0.3257 -0.0291 -0.0347
  965XCA    COO 8696  10.176  11.168   5.037 -0.0824 -0.2258 -0.0325
  965XCA     C1 8697  10.120  11.549   5.304 -0.1806 -0.4206  0.1909
  965XCA     C2 8698  10.462  11.786   5.534  0.0779 -0.2949 -0.1842
  965XCA     C3 8699  10.698  11.769   5.782  0.0259  0.3524 -0.1225
  965XCA     C4 8700  11.121  11.762   5.963 -0.0816  0.2512  0.2597
  965XCA     C5 8701  11.221  11.814   6.355  0.1492  0.0100 -0.0447
  965XCA     C6 8702  10.933  11.621   6.693 -0.0636 -0.0532  0.1181
  966XCA    COO 8703   7.997  11.013   5.813  0.0032  0.0037 -0.2665
  966XCA     C1 8704   7.989  10.778   6.151 -0.0878  0.3867  0.2272
  966XCA     C2 8705   8.335  10.918   6.479 -0.0931 -0.2375 -0.2612
  966XCA     C3 8706   8.302  10.822   6.873 -0.1216 -0.0690  0.0088
  966XCA     C4 8707   8.068  10.792   7.277  0.0379 -0.2339 -0.0066
  966XCA     C5 8708   8.011  10.926   7.732  0.2520 -0.0569  0.1117
  966XCA     C6 8709   8.239  10.868   8.027 -0.3439  0.1318 -0.0496
  967PNCE   AM1 8710   1.703   5.103   4.911 -0.0128 -0.1597 -0.0319
  967PNCE   AM2 8711   1.507   4.865   4.744 -0.4264  0.0363 -0.0033
  967PNCE   T1A 8712   1.921   4.805   5.115  0.0778 -0.1458  0.2066
  967PNCE   C2A 8713   2.087   4.712   5.550 -0.3657 -0.1011 -0.2335
  967PNCE   C3A 8714   2.338   4.364   5.775  0.0115 -0.2585  0.3794
  967PNCE   C1B 8715   1.319   4.699   5.037  0.2133 -0.1123 -0.2650
  967PNCE   C2B 8716   1.183   4.510   5.358 -0.2194  0.1181 -0.2655
  967PNCE   C3B 8717   1.267   4.293   5.774 -0.1477  0.1487 -0.2110
  967PNCE   D4B 8718   1.595   3.973   5.898  0.2477  0.0462 -0.1373
  967PNCE   C5B 8719   1.989   4.034   5.592  0.1834  0.0022 -0.1942
  967PNCE   C6B 8720   2.401   3.991   5.474 -0.0385 -0.1676 -0.2789
  968PNCE   AM1 8721  13.796   7.773   4.856 -0.1343  0.0573  0.0288
  968PNCE   AM2 8722  13.961   7.564   4.939 -0.0814 -0.0029  0.2027
  968PNCE   T1A 8723  13.579   7.406   4.657 -0.0218 -0.0028 -0.4026
  968PNCE   C2A 8724  13.443   6.949   4.682  0.1130  0.0358  0.1972
  968PNCE   C3A 8725  13.130   6.641   4.540 -0.0333  0.2692  0.2419
  968PNCE   C1B 8726  14.214   7.409   5.170 -0.0287 -0.0795 -0.1453
  968PNCE   C2B 8727  14.230   7.062   5.453  0.2187 -0.1192  0.3389
  968PNCE   C3B 8728  14.048   6.702   5.492  0.1224  0.1363 -0.2222
  968PNCE   D4B 8729  13.778   6.306   5.502 -0.1892 -0.1612 -0.2469
  968PNCE   C5B 8730  13.972   6.205   5.199  0.0420 -0.0918  0.1745
  968PNCE   C6B 8731  14.378   6.118   5.025  0.1990  0.1712 -0.0913
  969PNCE   AM1 8732   3.434  11.524   5.016 -0.1626 -0.1150 -0.1875
  969PNCE   AM2 8733   3.292  11.810   4.944  0.0242  0.1208 -0.0358
  969PNCE   T1A 8734   3.626  11.438   5.409  0.1525  0.2758 -0.1566
  969PNCE   C2A 8735   4.008  11.513   5.719 -0.3880 -0.1929 -0.1617
  969PNCE   C3A 8736   4.240  11.650   6.014 -0.0359 -0.2932 -0.1977
  969PNCE   C1B 8737   3.269  11.803   5.429  0.0141  0.0469 -0.2603
  969PNCE   C2B 8738   3.302  11.694   5.881 -0.1393 -0.3925 -0.1999
  969PNCE   C3B 8739   3.442  11.547   6.256  0.4189  0.0850  0.1520
  969PNCE   D4B 8740   3.862  11.683   6.374 -0.1135 -0.0286  0.3445
  969PNCE   C5B 8741   4.001  12.050   6.722  0.4671  0.1168  0.0032
  969PNCE   C6B 8742   4.404  12.206   6.793 -0.1655  0.2757 -0.3359
  970CHOL   ROH 8743   1.401   7.668   5.207 -0.0212 -0.1732 -0.0428
  970CHOL    R1 8744   1.376   7.779   5.466 -0.1340 -0.1784 -0.0504
  970CHOL    R2 8745   1.196   7.684   5.653 -0.0560 -0.3333 -0.0507
  970CHOL    R3 8746   1.418   7.664   5.809 -0.0408 -0.1205 -0.0422
  970CHOL    R4 8747   1.194   7.661   5.998 -0.0435 -0.3067 -0.0491
  970CHOL    R5 8748   1.366   7.794   6.003 -0.1632 -0.1504 -0.0549
  970CHOL    C1 8749   1.401   7.628   6.345 -0.0220 -0.0914 -0.0400
  970CHOL    C2 8750   1.330   8.007   6.403  0.1528  0.0303 -0.0368
  971PNCE   AM1 8751   8.462  12.015   5.974 -0.0254 -0.3284  0.1406
  971PNCE   AM2 8752   8.256  11.842   6.069  0.2090  0.0287  0.1419
  971PNCE   T1A 8753   8.463  12.354   6.252 -0.1992  0.3102  0.0815
  971PNCE   C2A 8754   8.563  12.548   6.559 -0.2193  0.0380  0.1846
  971PNCE   C3A 8755   8.467  12.277   6.881  0.0127  0.1645 -0.0918
  971PNCE   C1B 8756   7.952  11.535   6.045 -0.0738 -0.2081  0.2295
  971PNCE   C2B 8757   7.885  11.312   6.310  0.3277 -0.1794  0.2328
  971PNCE   C3B 8758   7.834  11.044   6.598  0.4482  0.1717  0.0954
  971PNCE   D4B 8759   7.576  10.771   6.780 -0.2529  0.0815 -0.2904
  971PNCE   C5B 8760   7.578  10.532   7.109  0.1953 -0.1125  0.0122
  971PNCE   C6B 8761   7.744  10.539   7.543  0.0502  0.1480 -0.1617
  972CHOL   ROH 8762   4.942  14.029   5.084 -0.0122  0.1368  0.3892
  972CHOL    R1 8763   4.705  14.172   5.142 -0.0799  0.1093  0.1925
  972CHOL    R2 8764   4.456  14.051   5.149 -0.0748  0.0771 -0.0047
  972CHOL    R3 8765   4.446  14.160   5.397 -0.2854  0.0835 -0.0156
  972CHOL    R4 8766   4.189  14.022   5.366 -0.0914 -0.2658 -0.0656
  972CHOL    R5 8767   4.218  14.231   5.422 -0.3883 -0.2219 -0.0739
  972CHOL    C1 8768   4.024  14.108   5.726 -0.2987 -0.4594 -0.1113
  972CHOL    C2 8769   3.686  14.010   5.815 -0.0725  0.0783 -0.2359
  973PNCE   AM1 8770   9.783   9.260   5.348 -0.0969  0.1098 -0.1319
  973PNCE   AM2 8771   9.749   9.100   5.045  0.1051 -0.1113  0.0491
  973PNCE   T1A 8772  10.024   8.914   5.595 -0.1189  0.1007 -0.0451
  973PNCE   C2A 8773  10.330   8.659   5.907 -0.0030 -0.2650  0.1637
  973PNCE   C3A 8774  10.794   8.652   5.855  0.0691 -0.0962  0.1063
  973PNCE   C1B 8775   9.549   8.874   5.445  0.1654 -0.2629 -0.2085
  973PNCE   C2B 8776   9.513   8.876   5.881  0.2343 -0.0912  0.0322
  973PNCE   C3B 8777   9.660   8.783   6.206 -0.1506  0.1331 -0.1366
  973PNCE   D4B 8778   9.661   8.812   6.494 -0.0909 -0.2561 -0.0545
  973PNCE   C5B 8779   9.592   8.678   6.922 -0.3560 -0.2407  0.1016
  973PNCE   C6B 8780   9.157   8.610   7.079  0.0661  0.0747 -0.2063
  974XCA    COO 8781   9.330  15.678   7.706  0.0950  0.0095  0.1831
  974XCA     C1 8782   9.054  15.363   7.376  0.0348  0.0751 -0.0902
  974XCA     C2 8783   8.925  15.443   6.923 -0.3335  0.2119  0.0640
  974XCA     C3 8784   8.676  15.595   6.671 -0.0186 -0.1279 -0.1751
  974XCA     C4 8785   8.693  15.844   6.338  0.2565  0.0566  0.4002
  974XCA     C5 8786   8.740  16.081   6.007  0.1114 -0.2401  0.3025
  974XCA     C6 8787   8.813  16.286   5.590  0.0560  0.2441 -0.0315
  975CHOL   ROH 8788  12.578   4.275   7.337 -0.0055  0.0442  0.0106
  975CHOL    R1 8789  12.490   4.425   7.114 -0.0783  0.0383  0.0342
  975CHOL    R2 8790  12.650   4.473   6.895 -0.0932  0.1664  0.0456
  975CHOL    R3 8791  12.441   4.366   6.758 -0.0310  0.0744  0.0224
  975CHOL    R4 8792  12.618   4.476   6.551 -0.0944  0.2106  0.0468
  975CHOL    R5 8793  12.405   4.519   6.577 -0.1162  0.0853  0.0514
  975CHOL    C1 8794  12.402   4.378   6.222 -0.0365  0.1500  0.0258
  975CHOL    C2 8795  12.535   4.415   5.723  0.0866  0.0109  0.0982
  976XCA    COO 8796   6.700   6.945   5.110 -0.1971 -0.0802  0.0881
  976XCA     C1 8797   6.591   7.105   5.448 -0.1972 -0.0777  0.2328
  976XCA     C2 8798   6.433   7.179   5.864 -0.0722 -0.2597  0.2515
  976XCA     C3 8799   6.215   7.326   6.168  0.1274 -0.1250  0.0432
  976XCA     C4 8800   5.888   7.048   6.361  0.0586 -0.0114  0.0851
  976XCA     C5 8801   5.689   6.866   6.606 -0.0929 -0.1305 -0.0645
  976XCA     C6 8802   5.670   6.476   6.783  0.0175 -0.0743 -0.0007
  977PNCE   AM1 8803  10.389   5.282   5.520  0.1176 -0.0851 -0.1476
  977PNCE   AM2 8804  10.487   4.924   5.370 -0.0634 -0.6329  0.1411
  977PNCE   T1A 8805  10.137   5.423   5.995  0.1441 -0.1863  0.1201
  977PNCE   C2A 8806  10.060   5.501   6.395 -0.2296  0.0970  0.0610
  977PNCE   C3A 8807   9.678   5.497   6.700 -0.0315 -0.1889  0.2124
  977PNCE   C1B 8808  10.761   4.879   5.700 -0.3104  0.0689  0.3958
  977PNCE   C2B 8809  10.818   4.709   6.160  0.2458  0.6582  0.0459
  977PNCE   C3B 8810  10.503   4.543   6.480 -0.0902  0.1112 -0.0945
  977PNCE   D4B 8811  10.158   4.652   6.807 -0.0878  0.2282 -0.1053
  977PNCE   C5B 8812  10.330   4.401   7.180 -0.0728  0.2025 -0.4583
  977PNCE   C6B 8813  10.591   4.453   7.566 -0.3299 -0.0078 -0.0045
  978XCA    COO 8814  10.450   5.213   8.107  0.0394 -0.3385 -0.1995
  978XCA     C1 8815  10.746   5.125   7.661  0.2379  0.1774  0.0822
  978XCA     C2 8816  10.642   4.966   7.298 -0.1707  0.0150 -0.0486
  978XCA     C3 8817  10.449   5.001   6.922 -0.4392 -0.1459 -0.1379
  978XCA     C4 8818  10.463   5.033   6.444  0.3039 -0.2433  0.0461
  978XCA     C5 8819  10.322   4.928   6.034  0.1217 -0.0775  0.0786
  978XCA     C6 8820  10.148   4.780   5.721  0.1538 -0.1093  0.1971
  979PNCE   AM1 8821   4.470   8.087   5.334 -0.2987  0.0815 -0.1358
  979PNCE   AM2 8822   4.602   8.387   5.497 -0.2400  0.0899 -0.0073
  979PNCE   T1A 8823   4.424   8.059   5.758  0.2822  0.2023  0.1104
  979PNCE   C2A 8824   4.484   8.112   6.208  0.0259  0.0400 -0.1462
  979PNCE   C3A 8825   4.608   8.418   6.474 -0.0670 -0.0621  0.0115
  979PNCE   C1B 8826   4.745   8.500   5.913 -0.2681  0.2842  0.1883
  979PNCE   C2B 8827   4.899   8.782   6.211 -0.1897 -0.1465  0.2470
  979PNCE   C3B 8828   5.088   9.221   6.271 -0.1174  0.0218 -0.0460
  979PNCE   D4B 8829   5.316   9.364   6.557  0.0449 -0.0397 -0.0067
  979PNCE   C5B 8830   5.740   9.251   6.424 -0.3646 -0.1178 -0.1558
  979PNCE   C6B 8831   6.063   9.004   6.155  0.1207 -0.0149  0.1688
  980PNCE   AM1 8832  11.104   9.432   4.942  0.4909 -0.2283 -0.0507
  980PNCE   AM2 8833  11.003   9.658   5.185  0.0025 -0.2196 -0.1004
  980PNCE   T1A 8834  11.406   9.475   5.401  0.3344  0.1903 -0.1413
  980PNCE   C2A 8835  11.471   9.481   5.851  0.2878 -0.1106  0.0180
  980PNCE   C3A 8836  11.523   9.287   6.246  0.2277  0.0175  0.0295
  980PNCE   C1B 8837  11.053   9.678   5.719 -0.3544  0.0076 -0.0629
  980PNCE   C2B 8838  10.979   9.524   6.138 -0.0060 -0.2337 -0.2572
  980PNCE   C3B 8839  10.977   9.550   6.606 -0.2333 -0.0398 -0.3387
  980PNCE   D4B 8840  11.122   9.435   6.937 -0.1529  0.1511  0.1708
  980PNCE   C5B 8841  11.414   9.632   7.120 -0.3721  0.3154  0.1674
  980PNCE   C6B 8842  11.729   9.705   7.426 -0.1914  0.1265  0.1937
  981PNCE   AM1 8843  13.444  12.839   4.223  0.2553  0.1971  0.0795
  981PNCE   AM2 8844  13.181  12.971   4.202  0.1360 -0.0065 -0.1752
  981PNCE   T1A 8845  13.716  12.587   4.346  0.0818  0.1591  0.2149
  981PNCE   C2A 8846  13.892  12.369   4.702 -0.1595  0.0669 -0.3295
  981PNCE   C3A 8847  14.043  12.524   5.110 -0.1475 -0.0050  0.0578
  981PNCE   C1B 8848  13.124  12.957   4.693 -0.1214 -0.2143 -0.0655
  981PNCE   C2B 8849  13.120  12.603   4.993  0.0216 -0.0353  0.2661
  981PNCE   C3B 8850  12.811  12.678   5.418 -0.0425  0.2009 -0.1060
  981PNCE   D4B 8851  12.936  12.664   5.918  0.1396  0.1257 -0.1518
  981PNCE   C5B 8852  12.735  12.309   5.988 -0.2458 -0.1212  0.1963
  981PNCE   C6B 8853  12.373  11.956   5.863 -0.0650  0.1118  0.1767
  982CHOL   ROH 8854   7.259   4.573   6.168 -0.0030  0.0684 -0.0140
  982CHOL    R1 8855   7.281   4.782   6.358 -0.0830  0.0045  0.0664
  982CHOL    R2 8856   7.152   4.775   6.602 -0.0691 -0.1462  0.0731
  982CHOL    R3 8857   7.402   4.816   6.700 -0.0804 -0.0788  0.0732
  982CHOL    R4 8858   7.222   4.926   6.904 -0.1133 -0.3854  0.2055
  982CHOL    R5 8859   7.388   5.030   6.808 -0.1960 -0.1894  0.2771
  982CHOL    C1 8860   7.498   5.053   7.172 -0.1497 -0.4614  0.2828
  982CHOL    C2 8861   7.673   5.110   7.562 -0.1197 -0.0178  0.0247
  983PNCE   AM1 8862   2.865  10.813   5.485 -0.1696 -0.2450  0.1110
  983PNCE   AM2 8863   2.559  10.668   5.297  0.0533  0.0744 -0.0858
  983PNCE   T1A 8864   2.847  10.827   5.925  0.0336  0.0432 -0.0813
  983PNCE   C2A 8865   2.868  11.009   6.421 -0.2488 -0.1964  0.3272
  983PNCE   C3A 8866   2.782  11.090   6.809  0.1378 -0.1139 -0.1205
  983PNCE   C1B 8867   2.447  10.567   5.776 -0.0080 -0.0935  0.1658
  983PNCE   C2B 8868   2.182  10.443   6.105 -0.3148 -0.1489  0.0341
  983PNCE   C3B 8869   2.140  10.422   6.569  0.1475  0.1563 -0.2484
  983PNCE   D4B 8870   2.223  10.602   6.953  0.1909  0.1327 -0.0533
  983PNCE   C5B 8871   2.546  10.632   7.062  0.0180 -0.2842 -0.0619
  983PNCE   C6B 8872   2.883  10.477   7.422  0.0042 -0.1499 -0.0655
  984XCA    COO 8873   6.744  13.719   4.871  0.0100 -0.1330  0.1811
  984XCA     C1 8874   6.838  13.851   5.269 -0.0179 -0.1142  0.0335
  984XCA     C2 8875   6.732  14.005   5.624  0.0639  0.1507 -0.0590
  984XCA     C3 8876   6.608  14.293   5.923  0.2679  0.2033  0.1208
  984XCA     C4 8877   6.587  14.371   6.333 -0.1000 -0.0460 -0.2863
  984XCA     C5 8878   6.476  14.668   6.768  0.3226  0.0965  0.0753
  984XCA     C6 8879   6.489  14.537   7.205  0.0501  0.0960  0.0294
  985CHOL   ROH 8880  10.224   7.576   7.050  0.1274  0.0989  0.1059
  985CHOL    R1 8881   9.989   7.571   7.209  0.1604 -0.0824  0.1505
  985CHOL    R2 8882   9.996   7.540   7.484  0.2511  0.1238  0.1743
  985CHOL    R3 8883   9.849   7.769   7.480 -0.0387 -0.0586  0.0304
  985CHOL    R4 8884   9.731   7.608   7.694  0.3444  0.0460  0.3197
  985CHOL    R5 8885   9.625   7.697   7.525  0.0864 -0.2813  0.3052
  985CHOL    C1 8886   9.438   7.862   7.813  0.1266 -0.1705  0.2692
  985CHOL    C2 8887   9.372   8.333   7.884  0.1402 -0.0576 -0.1554
  986CHOL   ROH 8888   0.334   2.568   7.820 -0.1517 -0.0975 -0.0679
  986CHOL    R1 8889   0.548   2.665   7.661 -0.0636 -0.1195  0.0369
  986CHOL    R2 8890   0.710   2.498   7.513 -0.0901 -0.1243  0.0177
  986CHOL    R3 8891   0.637   2.662   7.309  0.0422 -0.0078  0.0616
  986CHOL    R4 8892   0.904   2.565   7.235  0.0048 -0.1324  0.0805
  986CHOL    R5 8893   0.840   2.773   7.246  0.1193 -0.0985  0.1434
  986CHOL    C1 8894   0.949   2.757   6.881  0.1842 -0.0278  0.1584
  986CHOL    C2 8895   0.875   3.122   6.630  0.0603  0.1448  0.1396
  987XCA    COO 8896  11.828   5.654   4.288  0.1618 -0.1240  0.0403
  987XCA     C1 8897  12.148   5.388   4.567  0.0382 -0.1660  0.0820
  987XCA     C2 8898  12.496   5.476   4.851 -0.1560  0.3037 -0.0016
  987XCA     C3 8899  12.865   5.627   4.999 -0.1795 -0.2377  0.0796
  987XCA     C4 8900  13.041   5.971   5.172  0.3431 -0.2553 -0.2060
  987XCA     C5 8901  13.236   6.155   5.521  0.0773  0.0089  0.5053
  987XCA     C6 8902  13.511   6.128   5.895  0.2841  0.1889 -0.0266
  988PNCE   AM1 8903   9.553   2.183   4.952 -0.0959  0.1163  0.0274
  988PNCE   AM2 8904   9.307   2.468   5.114  0.1354 -0.1965 -0.0664
  988PNCE   T1A 8905   9.868   2.017   5.210 -0.0550  0.1471 -0.0239
  988PNCE   C2A 8906  10.239   1.889   5.350 -0.1592  0.0001  0.3713
  988PNCE   C3A 8907  10.561   1.862   5.623  0.2462 -0.3317 -0.0887
  988PNCE   C1B 8908   9.620   2.707   5.395 -0.1075  0.1430 -0.0807
  988PNCE   C2B 8909   9.751   2.854   5.752  0.5104  0.1583 -0.0543
  988PNCE   C3B 8910   9.485   2.905   6.156  0.0142  0.1673  0.1308
  988PNCE   D4B 8911   9.543   2.760   6.532  0.0566  0.2218  0.3533
  988PNCE   C5B 8912   9.341   2.829   6.958 -0.2734  0.1079 -0.1627
  988PNCE   C6B 8913   9.520   2.886   7.352 -0.1693  0.0299 -0.1616
  989CHOL   ROH 8914   9.403  10.768   8.628  0.0570 -0.0392  0.0634
  989CHOL    R1 8915   9.514  10.794   8.369 -0.0786  0.0359  0.0110
  989CHOL    R2 8916   9.699  10.990   8.306  0.0031 -0.0385  0.0111
  989CHOL    R3 8917   9.847  10.778   8.222 -0.1730 -0.0829 -0.1919
  989CHOL    R4 8918   9.985  11.013   8.114  0.0627 -0.0845  0.0945
  989CHOL    R5 8919   9.917  10.839   8.001 -0.0749  0.0980 -0.1121
  989CHOL    C1 8920  10.290  10.828   7.922 -0.0679 -0.1529 -0.0475
  989CHOL    C2 8921  10.458  10.567   7.728  0.0416 -0.0134 -0.2165
  990CHOL   ROH 8922   6.222  12.981   9.409  0.3125 -0.0771 -0.1245
  990CHOL    R1 8923   6.253  13.115   9.162  0.2301 -0.1450 -0.1715
  990CHOL    R2 8924   6.303  12.981   8.925  0.0235 -0.2195 -0.1726
  990CHOL    R3 8925   6.084  13.117   8.839  0.0383 -0.1307 -0.0731
  990CHOL    R4 8926   6.248  13.080   8.599  0.0808  0.1056 -0.0879
  990CHOL    R5 8927   6.169  13.268   8.674  0.0696  0.0348  0.0892
  990CHOL    C1 8928   6.010  13.265   8.328  0.1280  0.3782  0.0547
  990CHOL    C2 8929   5.769  13.157   8.052  0.1686 -0.1556  0.2406
  991CHOL   ROH 8930  15.496   5.271   6.304  0.2653  0.0562  0.1067
  991CHOL    R1 8931  15.408   5.033   6.178  0.2202  0.1065  0.0444
  991CHOL    R2 8932  15.569   4.811   6.150  0.1052  0.0059  0.1891
  991CHOL    R3 8933  15.363   4.685   6.273 -0.0783  0.1360  0.0229
  991CHOL    R4 8934  15.486   4.479   6.104  0.0677  0.0020  0.2792
  991CHOL    R5 8935  15.275   4.537   6.106  0.0759  0.0657  0.0001
  991CHOL    C1 8936  15.243   4.167   6.193 -0.1263  0.1218  0.1757
  991CHOL    C2 8937  15.093   3.859   6.185 -0.2731  0.0402 -0.1092
  992CHOL   ROH 8938   3.625   1.342   6.489  0.0606 -0.1109 -0.0907
  992CHOL    R1 8939   3.399   1.396   6.328  0.0272 -0.0305 -0.0162
  992CHOL    R2 8940   3.142   1.401   6.429  0.0716  0.1310  0.0812
  992CHOL    R3 8941   3.137   1.648   6.317  0.1540  0.1067  0.0208
  992CHOL    R4 8942   2.856   1.585   6.369  0.0906  0.0374 -0.3294
  992CHOL    R5 8943   2.941   1.647   6.179  0.3273  0.0203 -0.2385
  992CHOL    C1 8944   2.684   1.924   6.229  0.1790 -0.0400 -0.6252
  992CHOL    C2 8945   2.353   1.919   5.963  0.2712  0.1166 -0.1377
  993CHOL   ROH 8946   2.733   8.099   9.177  0.3242  0.0339  0.0592
  993CHOL    R1 8947   2.677   8.084   8.900  0.2175  0.0422  0.0800
  993CHOL    R2 8948   2.733   8.291   8.725  0.0976  0.0703  0.0731
  993CHOL    R3 8949   2.868   8.097   8.590  0.0917  0.1136  0.0048
  993CHOL    R4 8950   2.833   8.314   8.395 -0.2530  0.0223 -0.0401
  993CHOL    R5 8951   2.776   8.105   8.369 -0.1402 -0.0260  0.0929
  993CHOL    C1 8952   3.017   8.145   8.076 -0.4627  0.0350 -0.1702
  993CHOL    C2 8953   3.213   8.081   7.810 -0.0665  0.0269 -0.1123
  994CHOL   ROH 8954  13.847  10.714   7.113  0.3142  0.1272  0.1255
  994CHOL    R1 8955  13.749  10.576   6.887  0.2417  0.0411  0.2084
  994CHOL    R2 8956  13.549  10.678   6.726  0.1372 -0.0530  0.2742
  994CHOL    R3 8957  13.731  10.636   6.528  0.0569 -0.0578  0.2006
  994CHOL    R4 8958  13.474  10.564   6.408 -0.0087  0.1100  0.2487
  994CHOL    R5 8959  13.652  10.440   6.416 -0.0653  0.0251  0.1434
  994CHOL    C1 8960  13.601  10.458   6.038 -0.1691  0.2003  0.1648
  994CHOL    C2 8961  13.892  10.456   5.670 -0.0901 -0.2515 -0.2479
  995PNCE   AM1 8962   1.479  12.411   4.950 -0.0432 -0.3934 -0.0421
  995PNCE   AM2 8963   1.678  12.519   4.801 -0.2018 -0.1062  0.2938
  995PNCE   T1A 8964   1.489  12.418   5.347  0.1078  0.3516 -0.1300
  995PNCE   C2A 8965   1.818  12.460   5.661 -0.0181  0.0328 -0.0405
  995PNCE   C3A 8966   2.040  12.333   6.056  0.0348  0.0028 -0.0205
  995PNCE   C1B 8967   1.840  12.750   5.243 -0.1586  0.0865  0.3943
  995PNCE   C2B 8968   1.739  13.000   5.560  0.3508  0.1055 -0.0834
  995PNCE   C3B 8969   1.700  13.025   6.009 -0.0111  0.1645  0.3950
  995PNCE   D4B 8970   1.494  12.728   6.237 -0.2394  0.0150  0.2485
  995PNCE   C5B 8971   1.173  12.949   6.361 -0.0641  0.1117 -0.1398
  995PNCE   C6B 8972   0.797  12.897   6.585  0.0414  0.0967  0.1375
  996CHOL   ROH 8973   4.236   8.738   5.468 -0.0556  0.0652 -0.1201
  996CHOL    R1 8974   4.304   8.674   5.735 -0.2406 -0.1861 -0.1304
  996CHOL    R2 8975   4.402   8.861   5.913  0.2483 -0.4800 -0.0772
  996CHOL    R3 8976   4.195   8.776   6.067 -0.0012  0.0234 -0.1115
  996CHOL    R4 8977   4.401   8.861   6.258  0.3314 -0.7446 -0.0750
  996CHOL    R5 8978   4.301   8.667   6.253 -0.2760 -0.4582 -0.2139
  996CHOL    C1 8979   4.207   8.781   6.605  0.1454 -0.4260 -0.1060
  996CHOL    C2 8980   4.114   8.714   7.028  0.0878 -0.1346 -0.0331
  997PNCE   AM1 8981  13.812   9.099   4.650  0.2311  0.0593  0.0810
  997PNCE   AM2 8982  13.970   8.931   4.801 -0.0661  0.0933 -0.0604
  997PNCE   T1A 8983  14.025   9.364   4.986 -0.1218 -0.0666  0.1270
  997PNCE   C2A 8984  13.997   9.660   5.448  0.2645 -0.1184  0.0014
  997PNCE   C3A 8985  13.921   9.664   5.869  0.2189  0.1006  0.0204
  997PNCE   C1B 8986  14.165   8.947   5.281  0.2309 -0.3208  0.1482
  997PNCE   C2B 8987  14.062   9.165   5.691 -0.1059 -0.0453 -0.1013
  997PNCE   C3B 8988  13.895   9.195   6.165 -0.0033  0.2321 -0.1282
  997PNCE   D4B 8989  13.897   9.274   6.478  0.3076 -0.0103 -0.1372
  997PNCE   C5B 8990  14.258   9.412   6.695 -0.2565  0.0313  0.1009
  997PNCE   C6B 8991  14.677   9.194   6.704 -0.3319  0.0653 -0.3721
  998PNCE   AM1 8992  10.098   3.440   5.635  0.0536  0.1866  0.0786
  998PNCE   AM2 8993  10.307   3.775   5.466  0.0913  0.0771 -0.0405
  998PNCE   T1A 8994   9.808   3.427   5.957  0.2709 -0.2581 -0.0139
  998PNCE   C2A 8995   9.649   3.580   6.394 -0.0172 -0.0431 -0.1098
  998PNCE   C3A 8996   9.227   3.491   6.622  0.0047  0.0432  0.0739
  998PNCE   C1B 8997  10.591   3.419   5.436  0.1787 -0.2559 -0.1386
  998PNCE   C2B 8998  10.668   3.041   5.359 -0.0018 -0.3414 -0.0066
  998PNCE   C3B 8999  10.892   2.720   5.189  0.2769 -0.1141  0.1156
  998PNCE   D4B 9000  11.089   2.359   5.086 -0.1713 -0.0153 -0.0336
  998PNCE   C5B 9001  11.253   2.433   4.750  0.3090  0.0842 -0.0945
  998PNCE   C6B 9002  11.060   2.747   4.590 -0.1900 -0.0081  0.0352
  999CHOL   ROH 9003   1.701   6.037   8.854 -0.0557  0.2890  0.0749
  999CHOL    R1 9004   1.703   5.981   8.577 -0.0427  0.1515  0.1013
  999CHOL    R2 9005   1.487   5.868   8.446 -0.0563  0.1322  0.1371
  999CHOL    R3 9006   1.511   6.085   8.285  0.0048  0.0489  0.0335
  999CHOL    R4 9007   1.436   5.867   8.104 -0.0901 -0.0076  0.1423
  999CHOL    R5 9008   1.608   6.000   8.083 -0.0459 -0.0782  0.0634
  999CHOL    C1 9009   1.428   6.071   7.754 -0.0523 -0.1670  0.0481
  999CHOL    C2 9010   1.253   6.273   7.457  0.2439 -0.0452 -0.1707
 1000CHOL   ROH 9011  14.190  13.144   5.610 -0.0918 -0.0419  0.1410
 1000CHOL    R1 9012  13.943  13.165   5.747 -0.0922 -0.0824  0.1458
 1000CHOL    R2 9013  13.732  13.315   5.652 -0.0571  0.0196  0.2360
 1000CHOL    R3 9014  13.596  13.082   5.680 -0.1079  0.0293  0.0813
 1000CHOL    R4 9015  13.388  13.288   5.663 -0.0613  0.1147  0.3710
 1000CHOL    R5 9016  13.409  13.138   5.820 -0.0273 -0.0428  0.2251
 1000CHOL    C1 9017  13.059  13.053   5.696 -0.1115  0.1790  0.3044
 1000CHOL    C2 9018  12.636  13.037   5.691 -0.1242 -0.0921  0.0588
 1001XCA    COO 9019   1.005   2.025   4.378 -0.1447  0.1367  0.2014
 1001XCA     C1 9020   1.155   1.869   4.762 -0.0567  0.3621  0.0848
 1001XCA     C2 9021   1.040   1.751   5.166  0.0192 -0.1520 -0.1123
 1001XCA     C3 9022   0.655   1.884   5.379 -0.1428 -0.0979 -0.1256
 1001XCA     C4 9023   0.195   1.945   5.478  0.2314  0.1349  0.2151
 1001XCA     C5 9024  -0.109   1.710   5.742  0.3186  0.2973  0.2159
 1001XCA     C6 9025  -0.369   1.785   6.094 -0.0515 -0.0243  0.2342
 1002CHOL   ROH 9026  15.041  15.037   6.535  0.1562 -0.1152  0.0383
 1002CHOL    R1 9027  15.219  15.041   6.315  0.1123 -0.1342  0.0017
 1002CHOL    R2 9028  15.144  14.960   6.062  0.0404 -0.0908  0.0058
 1002CHOL    R3 9029  15.235  15.206   5.991  0.0824 -0.1038  0.0166
 1002CHOL    R4 9030  15.281  15.039   5.754 -0.0042 -0.0793 -0.0109
 1002CHOL    R5 9031  15.429  15.161   5.857  0.0431 -0.1278 -0.0283
 1002CHOL    C1 9032  15.447  15.315   5.509  0.0091 -0.0849 -0.0106
 1002CHOL    C2 9033  15.667  15.362   5.210  0.1942  0.1149  0.1685
 1003PNCE   AM1 9034   6.600   5.418   4.599  0.0365  0.0610  0.0882
 1003PNCE   AM2 9035   6.823   5.612   4.668  0.0816 -0.0871 -0.1816
 1003PNCE   T1A 9036   6.396   5.433   5.057 -0.1305  0.2648 -0.0031
 1003PNCE   C2A 9037   6.297   5.164   5.436 -0.1034 -0.3121  0.0557
 1003PNCE   C3A 9038   5.900   5.122   5.676  0.0560  0.3423 -0.0839
 1003PNCE   C1B 9039   6.897   5.351   4.981 -0.0778 -0.0988 -0.0802
 1003PNCE   C2B 9040   7.125   5.278   5.302 -0.0315  0.3273  0.0628
 1003PNCE   C3B 9041   7.218   5.171   5.765 -0.2610 -0.2565 -0.0901
 1003PNCE   D4B 9042   7.044   5.098   6.206 -0.0645 -0.0447  0.1207
 1003PNCE   C5B 9043   6.751   5.169   6.381 -0.1733 -0.1032  0.0087
 1003PNCE   C6B 9044   6.267   4.876   6.427 -0.1918 -0.0631 -0.0778
 1004CHOL   ROH 9045   7.373   6.153   5.397  0.1086 -0.0231  0.0773
 1004CHOL    R1 9046   7.316   6.207   5.669 -0.0351 -0.1667  0.0770
 1004CHOL    R2 9047   7.149   6.048   5.821  0.1322 -0.4268 -0.0095
 1004CHOL    R3 9048   7.363   6.038   5.988  0.1033 -0.1889  0.0465
 1004CHOL    R4 9049   7.133   5.973   6.158  0.0982 -0.2067  0.0406
 1004CHOL    R5 9050   7.281   6.128   6.195  0.0026 -0.0924 -0.0313
 1004CHOL    C1 9051   7.325   5.919   6.511  0.0513  0.1448  0.1224
 1004CHOL    C2 9052   7.408   5.849   6.930 -0.0061 -0.1032 -0.1013
 1005PNCE   AM1 9053   0.218   7.647   5.192  0.0098 -0.0329 -0.0354
 1005PNCE   AM2 9054   0.074   7.356   4.998 -0.1953 -0.0789 -0.1672
 1005PNCE   T1A 9055  -0.098   7.362   5.467 -0.2240 -0.1330 -0.0240
 1005PNCE   C2A 9056  -0.162   7.246   5.858 -0.1157 -0.1262  0.0020
 1005PNCE   C3A 9057  -0.058   6.836   5.967  0.3130 -0.0087  0.3351
 1005PNCE   C1B 9058   0.361   7.136   5.311 -0.0451 -0.0921 -0.0859
 1005PNCE   C2B 9059   0.097   6.885   5.520  0.3055  0.0389  0.2398
 1005PNCE   C3B 9060  -0.061   6.431   5.474 -0.1274  0.1466 -0.2442
 1005PNCE   D4B 9061  -0.196   6.082   5.645  0.2131  0.0855 -0.1626
 1005PNCE   C5B 9062  -0.334   6.115   6.081 -0.3055 -0.1054 -0.1941
 1005PNCE   C6B 9063  -0.353   6.580   6.245  0.2068  0.1839 -0.0232
 1006PNCE   AM1 9064   1.919   8.547   4.980  0.0011 -0.0839 -0.0617
 1006PNCE   AM2 9065   1.850   8.227   4.930 -0.0187  0.2972 -0.2152
 1006PNCE   T1A 9066   1.573   8.411   5.403 -0.1347  0.1430  0.0468
 1006PNCE   C2A 9067   1.616   8.279   5.835 -0.1147  0.1398  0.1363
 1006PNCE   C3A 9068   1.706   8.202   6.228 -0.1973 -0.0868  0.0466
 1006PNCE   C1B 9069   1.799   7.926   5.303  0.2211  0.0167  0.1166
 1006PNCE   C2B 9070   1.876   7.832   5.750 -0.0076 -0.0547  0.0565
 1006PNCE   C3B 9071   1.908   7.768   6.141  0.3713  0.2576  0.2086
 1006PNCE   D4B 9072   1.811   7.772   6.478  0.0672  0.2943 -0.1724
 1006PNCE   C5B 9073   1.864   8.048   6.767 -0.1309  0.1269 -0.0152
 1006PNCE   C6B 9074   1.829   8.318   7.080 -0.2181  0.0410  0.0271
 1007PNCE   AM1 9075   8.910   2.045   5.226  0.3594 -0.0782 -0.0843
 1007PNCE   AM2 9076   8.634   1.862   5.404 -0.0710 -0.0298 -0.0996
 1007PNCE   T1A 9077   8.915   2.151   5.763  0.0743  0.3548  0.1959
 1007PNCE   C2A 9078   8.809   2.585   6.056 -0.0529  0.0121  0.2748
 1007PNCE   C3A 9079   8.618   2.685   6.465  0.4017 -0.1143  0.1137
 1007PNCE   C1B 9080   8.686   1.621   5.883 -0.1469  0.1771 -0.2785
 1007PNCE   C2B 9081   8.928   1.362   5.941 -0.1964  0.2323 -0.3226
 1007PNCE   C3B 9082   8.703   1.146   6.212  0.2443 -0.3098 -0.0486
 1007PNCE   D4B 9083   8.651   0.643   6.209  0.0325 -0.1421 -0.0126
 1007PNCE   C5B 9084   8.905   0.358   6.473  0.1277 -0.0472  0.1432
 1007PNCE   C6B 9085   9.081  -0.049   6.677 -0.1804  0.5052 -0.1727
 1008CHOL   ROH 9086  10.651   8.333   9.091  0.3605  0.1289  0.0651
 1008CHOL    R1 9087  10.742   8.451   8.850  0.3388 -0.2198 -0.1209
 1008CHOL    R2 9088  10.766   8.309   8.615 -0.4356 -0.3988 -0.1219
 1008CHOL    R3 9089  10.608   8.507   8.517 -0.0332  0.0341  0.0646
 1008CHOL    R4 9090  10.726   8.382   8.279 -0.7902 -0.4340 -0.0910
 1008CHOL    R5 9091  10.730   8.593   8.330 -0.0805 -0.4066 -0.1812
 1008CHOL    C1 9092  10.554   8.610   7.992 -0.6189 -0.0482  0.1022
 1008CHOL    C2 9093  10.319   8.635   7.684 -0.0969  0.1278  0.0269
 1009CHOL   ROH 9094  10.398   4.736   8.034 -0.1900 -0.1170  0.0375
 1009CHOL    R1 9095  10.382   4.807   7.761 -0.1658 -0.0994  0.0410
 1009CHOL    R2 9096  10.194   4.700   7.589 -0.2244 -0.0016  0.0452
 1009CHOL    R3 9097  10.136   4.961   7.541 -0.0996  0.0289  0.0552
 1009CHOL    R4 9098   9.991   4.813   7.334 -0.3496  0.0871  0.1819
 1009CHOL    R5 9099  10.130   4.978   7.302 -0.2693 -0.0018  0.0548
 1009CHOL    C1 9100   9.818   5.124   7.140 -0.3053  0.1674  0.2709
 1009CHOL    C2 9101   9.413   5.213   7.009  0.1763  0.0676 -0.1864
 1010CHOL   ROH 9102   3.845   2.600   4.147  0.0630  0.1076 -0.0246
 1010CHOL    R1 9103   3.777   2.499   4.403  0.0985 -0.0063 -0.0597
 1010CHOL    R2 9104   3.966   2.411   4.584  0.1461  0.1901 -0.0132
 1010CHOL    R3 9105   3.844   2.589   4.749 -0.1149  0.0284 -0.0256
 1010CHOL    R4 9106   4.000   2.415   4.927  0.1583  0.2752 -0.0149
 1010CHOL    R5 9107   3.787   2.460   4.943  0.0869 -0.0415 -0.0093
 1010CHOL    C1 9108   3.905   2.585   5.283 -0.0797  0.1729 -0.0276
 1010CHOL    C2 9109   3.659   2.681   5.606  0.2218  0.1743  0.1347
 1011XCA    COO 9110  12.839   6.397   8.343 -0.2027 -0.2593  0.0595
 1011XCA     C1 9111  12.962   6.334   7.919  0.1249 -0.0675  0.0066
 1011XCA     C2 9112  13.079   6.419   7.590 -0.1154  0.0320  0.1367
 1011XCA     C3 9113  13.332   6.648   7.510  0.1431 -0.0403  0.1286
 1011XCA     C4 9114  13.325   6.849   7.153  0.0194 -0.2770  0.2527
 1011XCA     C5 9115  13.460   7.177   6.799  0.0393  0.2333 -0.2923
 1011XCA     C6 9116  13.810   7.286   6.457  0.2666  0.1875 -0.0118
 1012PNCE   AM1 9117   4.673  12.725   5.006  0.3581  0.3604  0.1595
 1012PNCE   AM2 9118   4.817  12.908   5.134 -0.1014  0.2930  0.0723
 1012PNCE   T1A 9119   4.527  12.675   5.427  0.0806  0.0541 -0.0567
 1012PNCE   C2A 9120   4.257  12.795   5.713  0.2773  0.2879 -0.0043
 1012PNCE   C3A 9121   4.152  12.921   6.152 -0.3050  0.1040  0.2212
 1012PNCE   C1B 9122   5.149  12.857   5.428 -0.0548  0.0646 -0.0605
 1012PNCE   C2B 9123   5.185  12.994   5.873  0.2476 -0.1665  0.0730
 1012PNCE   C3B 9124   5.092  12.970   6.191 -0.0319  0.3510  0.0643
 1012PNCE   D4B 9125   5.012  12.609   6.481  0.2017  0.2548  0.1279
 1012PNCE   C5B 9126   5.054  12.628   6.847 -0.0859  0.2723  0.1533
 1012PNCE   C6B 9127   5.075  12.590   7.308 -0.1065 -0.0226  0.1360
 1013CHOL   ROH 9128   6.473   2.081   4.695  0.1168 -0.1804  0.0885
 1013CHOL    R1 9129   6.481   2.329   4.832  0.1967 -0.1162 -0.0308
 1013CHOL    R2 9130   6.302   2.394   5.032  0.1009  0.1117 -0.1854
 1013CHOL    R3 9131   6.528   2.440   5.175  0.0364  0.0203 -0.0522
 1013CHOL    R4 9132   6.310   2.526   5.352 -0.0309  0.0264 -0.1461
 1013CHOL    R5 9133   6.484   2.644   5.293  0.0270 -0.0013 -0.0223
 1013CHOL    C1 9134   6.527   2.645   5.672 -0.1681 -0.1091  0.0019
 1013CHOL    C2 9135   6.609   2.336   5.886 -0.0256 -0.1277  0.0169
 1014PNCE   AM1 9136   2.282   8.375   5.308 -0.0612  0.0553  0.2192
 1014PNCE   AM2 9137   2.284   8.762   5.241 -0.0782 -0.1763 -0.0412
 1014PNCE   T1A 9138   2.224   8.226   5.662 -0.0822 -0.0280  0.1568
 1014PNCE   C2A 9139   2.169   8.337   6.110 -0.1110 -0.0975  0.2007
 1014PNCE   C3A 9140   2.096   8.396   6.448  0.2963 -0.0745  0.0473
 1014PNCE   C1B 9141   2.321   8.820   5.648  0.2573 -0.3038 -0.1158
 1014PNCE   C2B 9142   2.338   9.005   6.027  0.0786  0.2000 -0.2415
 1014PNCE   C3B 9143   2.364   8.854   6.535  0.0049  0.0296  0.0236
 1014PNCE   D4B 9144   2.407   9.052   6.933 -0.1029  0.2416 -0.0464
 1014PNCE   C5B 9145   2.609   8.974   7.328  0.0574 -0.0833 -0.2154
 1014PNCE   C6B 9146   2.993   9.102   7.739 -0.1831 -0.0976 -0.0551
 1015XCA    COO 9147  10.317  14.131   3.882 -0.0863 -0.2216 -0.1727
 1015XCA     C1 9148  10.359  14.259   4.344 -0.0196  0.2995  0.0046
 1015XCA     C2 9149  10.639  14.546   4.603  0.1272 -0.0753 -0.1479
 1015XCA     C3 9150  10.544  14.601   5.000 -0.1766  0.1395  0.3463
 1015XCA     C4 9151  10.512  14.800   5.331  0.2133 -0.1072 -0.1902
 1015XCA     C5 9152  10.093  14.886   5.596  0.0169  0.1964  0.5036
 1015XCA     C6 9153   9.731  14.682   5.468 -0.1384 -0.1485 -0.1484
 1016CHOL   ROH 9154   8.893   5.223   8.555  0.0849  0.1488 -0.0580
 1016CHOL    R1 9155   8.998   5.139   8.306 -0.0277  0.1338 -0.1013
 1016CHOL    R2 9156   8.847   4.999   8.121 -0.1237  0.1524 -0.0420
 1016CHOL    R3 9157   8.925   5.199   7.954 -0.1644  0.1437 -0.0709
 1016CHOL    R4 9158   8.932   4.958   7.788 -0.1699  0.1363 -0.0515
 1016CHOL    R5 9159   9.094   5.100   7.817 -0.1790  0.1493 -0.0888
 1016CHOL    C1 9160   9.055   5.122   7.438 -0.2352  0.1187 -0.0843
 1016CHOL    C2 9161   9.044   4.807   7.130 -0.0674  0.4336  0.0673
 1017XCA    COO 9162  10.192   0.727   6.538 -0.2094  0.0441  0.3825
 1017XCA     C1 9163  10.381   1.090   6.463  0.0235  0.2080 -0.0095
 1017XCA     C2 9164  10.314   1.505   6.631  0.2070 -0.0950 -0.0858
 1017XCA     C3 9165  10.341   1.876   6.802  0.1610 -0.0802  0.0026
 1017XCA     C4 9166  10.259   2.145   7.178  0.2442  0.0520 -0.1252
 1017XCA     C5 9167  10.506   2.175   7.473 -0.1060 -0.0241 -0.0764
 1017XCA     C6 9168  10.623   2.417   7.850 -0.1391  0.1336 -0.0146
 1018CHOL   ROH 9169  12.776  10.704   4.276  0.1284 -0.2483 -0.0721
 1018CHOL    R1 9170  12.785  10.833   4.528  0.0416 -0.0940 -0.1468
 1018CHOL    R2 9171  12.731  10.700   4.764 -0.0113  0.0441 -0.0826
 1018CHOL    R3 9172  12.975  10.798   4.836 -0.0432  0.1150 -0.0681
 1018CHOL    R4 9173  12.859  10.696   5.086  0.0198 -0.0395 -0.0955
 1018CHOL    R5 9174  12.939  10.896   5.051 -0.0651  0.0107 -0.0211
 1018CHOL    C1 9175  13.162  10.786   5.340  0.0080 -0.0218 -0.0893
 1018CHOL    C2 9176  13.524  10.877   5.489 -0.1797  0.1822 -0.1977
 1019PNCE   AM1 9177   9.149   6.376   5.042  0.1565 -0.0643  0.1872
 1019PNCE   AM2 9178   9.282   6.163   5.376 -0.0259  0.0952 -0.3913
 1019PNCE   T1A 9179   8.996   6.012   4.943  0.1205  0.0397 -0.0509
 1019PNCE   C2A 9180   9.112   5.619   5.236 -0.0572 -0.0408 -0.1619
 1019PNCE   C3A 9181   8.800   5.291   5.372  0.1768  0.0444 -0.0231
 1019PNCE   C1B 9182   9.481   6.128   5.787 -0.3565  0.1527  0.2075
 1019PNCE   C2B 9183   9.589   6.313   6.074  0.0865 -0.0640  0.2631
 1019PNCE   C3B 9184   9.815   6.486   6.407  0.3981  0.1833 -0.0395
 1019PNCE   D4B 9185  10.268   6.491   6.511  0.3377  0.2253  0.1154
 1019PNCE   C5B 9186  10.588   6.124   6.812 -0.2942 -0.4393 -0.1132
 1019PNCE   C6B 9187  10.722   5.831   7.016 -0.1620  0.1356  0.0546
 1020XCA    COO 9188  13.004   1.789   8.218  0.1266 -0.0032 -0.0994
 1020XCA     C1 9189  12.994   1.754   7.764  0.3930  0.0135 -0.3166
 1020XCA     C2 9190  12.878   1.757   7.312  0.1687 -0.0437 -0.2643
 1020XCA     C3 9191  12.748   1.523   6.930  0.0707 -0.0684 -0.1403
 1020XCA     C4 9192  12.465   1.730   6.726  0.1332  0.3013 -0.0031
 1020XCA     C5 9193  12.515   1.730   6.369 -0.0708  0.2229  0.2038
 1020XCA     C6 9194  12.665   1.526   6.012 -0.2140  0.1134  0.0830
 1021PNCE   AM1 9195  11.294  10.739   4.607 -0.2553 -0.3650  0.0385
 1021PNCE   AM2 9196  11.508  10.613   4.375 -0.1744 -0.2541 -0.0761
 1021PNCE   T1A 9197  11.435  10.997   4.965 -0.3568  0.0220  0.3637
 1021PNCE   C2A 9198  11.558  11.345   5.039 -0.5636 -0.2161 -0.1381
 1021PNCE   C3A 9199  11.303  11.492   5.285 -0.3247  0.0133 -0.0655
 1021PNCE   C1B 9200  11.805  10.731   4.579  0.2807  0.2725 -0.3394
 1021PNCE   C2B 9201  11.938  10.758   5.054  0.2684 -0.1489  0.2015
 1021PNCE   C3B 9202  12.190  10.502   5.406  0.3208  0.2223 -0.0706
 1021PNCE   D4B 9203  12.451  10.409   5.775  0.1315 -0.2290 -0.1393
 1021PNCE   C5B 9204  12.682  10.638   6.007 -0.1524  0.1483  0.0602
 1021PNCE   C6B 9205  13.179  10.817   5.911 -0.1068 -0.0378  0.1986
 1022XCA    COO 9206   3.916  15.379   8.172 -0.2098 -0.1428 -0.0559
 1022XCA     C1 9207   4.254  15.459   7.854 -0.2488 -0.3699  0.0286
 1022XCA     C2 9208   4.480  15.345   7.449  0.0189 -0.4398  0.2776
 1022XCA     C3 9209   4.554  14.949   7.163 -0.1204  0.0164  0.0004
 1022XCA     C4 9210   5.008  14.753   6.975  0.0819  0.0360 -0.1142
 1022XCA     C5 9211   5.325  14.997   6.748 -0.0508  0.1128 -0.2062
 1022XCA     C6 9212   5.707  15.275   6.664  0.1451  0.1568  0.2010
 1023CHOL   ROH 9213  10.264   8.172   5.465  0.0146 -0.1077 -0.1075
 1023CHOL    R1 9214  10.223   8.107   5.737 -0.1681  0.1271 -0.0750
 1023CHOL    R2 9215  10.385   7.932   5.875 -0.4797 -0.0543  0.0845
 1023CHOL    R3 9216  10.409   8.140   6.048 -0.1988  0.0270 -0.0474
 1023CHOL    R4 9217  10.432   7.901   6.216 -0.5804  0.1022  0.1122
 1023CHOL    R5 9218  10.293   8.067   6.245 -0.3388  0.3273 -0.0160
 1023CHOL    C1 9219  10.480   8.078   6.577 -0.3751  0.2696  0.0045
 1023CHOL    C2 9220  10.629   7.752   6.837  0.0070  0.2543  0.0667
 1024XCA    COO 9221   1.550  15.445   8.313  0.0032  0.4444  0.4052
 1024XCA     C1 9222   1.613  15.502   7.832  0.0736 -0.2179 -0.0051
 1024XCA     C2 9223   1.635  15.569   7.396  0.1002  0.0257 -0.2954
 1024XCA     C3 9224   1.660  15.671   7.007 -0.0381  0.1480  0.0493
 1024XCA     C4 9225   2.077  15.905   6.777 -0.1016 -0.0442 -0.1897
 1024XCA     C5 9226   2.078  15.973   6.182 -0.2605  0.0354  0.0502
 1024XCA     C6 9227   2.111  16.289   5.881  0.0394  0.1863 -0.1427
 1025CHOL   ROH 9228  15.019  11.145   4.441 -0.0887  0.5011 -0.2122
 1025CHOL    R1 9229  15.270  11.165   4.571 -0.1797 -0.1881  0.1057
 1025CHOL    R2 9230  15.394  11.407   4.618  0.6485 -0.5370 -0.1947
 1025CHOL    R3 9231  15.398  11.319   4.875 -0.0514 -0.0819  0.0048
 1025CHOL    R4 9232  15.551  11.569   4.880  0.8035 -0.5252 -0.2896
 1025CHOL    R5 9233  15.617  11.375   4.954  0.0565 -0.6565  0.2007
 1025CHOL    C1 9234  15.645  11.580   5.275  0.2368 -0.0911 -0.1575
 1025CHOL    C2 9235  15.802  11.477   5.658 -0.1187  0.0089  0.1052
 1026CHOL   ROH 9236   8.594   6.884   8.697 -0.0629 -0.1042 -0.1337
 1026CHOL    R1 9237   8.456   6.770   8.478 -0.0646 -0.0717 -0.1506
 1026CHOL    R2 9238   8.334   6.923   8.283 -0.1221 -0.0403 -0.0960
 1026CHOL    R3 9239   8.487   6.773   8.116 -0.1059  0.0401 -0.1526
 1026CHOL    R4 9240   8.263   6.864   7.950 -0.3163 -0.2411 -0.0210
 1026CHOL    R5 9241   8.329   6.658   7.977 -0.0998 -0.1661  0.0115
 1026CHOL    C1 9242   8.365   6.689   7.599 -0.4142 -0.2825 -0.0305
 1026CHOL    C2 9243   8.530   6.397   7.480 -0.0585 -0.0711 -0.1152
 1027PNCE   AM1 9244  13.432  15.340   3.884 -0.3308  0.0761  0.0414
 1027PNCE   AM2 9245  13.714  15.208   4.133 -0.2309 -0.0529 -0.0267
 1027PNCE   T1A 9246  13.083  15.174   4.116  0.1455 -0.0612  0.0039
 1027PNCE   C2A 9247  12.923  15.229   4.522 -0.1612  0.0525  0.5579
 1027PNCE   C3A 9248  12.663  15.562   4.568  0.1753 -0.2615 -0.1346
 1027PNCE   C1B 9249  14.111  15.094   4.393  0.1119 -0.1266 -0.0864
 1027PNCE   C2B 9250  14.548  15.089   4.489 -0.2487 -0.1606 -0.0335
 1027PNCE   C3B 9251  14.864  15.350   4.604  0.1569  0.0988 -0.1281
 1027PNCE   D4B 9252  14.873  15.754   4.803  0.0368  0.0040 -0.0822
 1027PNCE   C5B 9253  14.953  15.943   5.188  0.1127  0.2822  0.0109
 1027PNCE   C6B 9254  14.793  15.950   5.607  0.2641  0.1461 -0.0362
 1028CHOL   ROH 9255  13.854   0.900   7.508  0.2479  0.0034  0.0606
 1028CHOL    R1 9256  13.868   0.886   7.225  0.1261 -0.2773  0.0653
 1028CHOL    R2 9257  13.753   0.680   7.081 -0.5781 -0.0559  0.2687
 1028CHOL    R3 9258  13.632   0.885   6.949  0.0215  0.2415  0.1435
 1028CHOL    R4 9259  13.654   0.672   6.749 -0.4443  0.1133  0.2230
 1028CHOL    R5 9260  13.724   0.877   6.728  0.1146 -0.0660  0.1908
 1028CHOL    C1 9261  13.483   0.859   6.433  0.1964  0.4911  0.0788
 1028CHOL    C2 9262  13.276   0.806   6.101 -0.0182  0.0571  0.0462
 1029PNCE   AM1 9263   0.928  12.684   4.567  0.1975 -0.1532  0.0656
 1029PNCE   AM2 9264   0.833  12.595   4.800 -0.0464  0.0440 -0.0554
 1029PNCE   T1A 9265   0.724  13.077   4.734 -0.1067  0.0388  0.1836
 1029PNCE   C2A 9266   0.936  13.323   5.067 -0.2797  0.1515  0.3632
 1029PNCE   C3A 9267   0.994  13.239   5.420 -0.1343 -0.3973 -0.4035
 1029PNCE   C1B 9268   0.849  12.761   5.261  0.3912  0.1249  0.1537
 1029PNCE   C2B 9269   0.527  12.571   5.524  0.2362  0.2016  0.2386
 1029PNCE   C3B 9270   0.377  12.699   5.843  0.0711 -0.1813 -0.0065
 1029PNCE   D4B 9271   0.427  12.791   6.229 -0.1821 -0.2037  0.0455
 1029PNCE   C5B 9272   0.303  13.092   6.424 -0.0684 -0.1174 -0.2445
 1029PNCE   C6B 9273   0.107  13.479   6.406  0.3171  0.1850 -0.0788
 1030XCA    COO 9274  12.579   4.119   7.868 -0.2574 -0.0555 -0.1988
 1030XCA     C1 9275  12.489   3.763   7.548  0.2093 -0.0122 -0.3010
 1030XCA     C2 9276  12.167   3.578   7.252 -0.1762  0.2263 -0.2002
 1030XCA     C3 9277  12.094   3.252   7.007  0.1292  0.2228  0.0410
 1030XCA     C4 9278  12.158   2.998   6.675 -0.4301  0.1571 -0.0089
 1030XCA     C5 9279  12.201   2.972   6.219 -0.0759 -0.0323  0.0127
 1030XCA     C6 9280  12.406   2.576   6.023 -0.0737 -0.0623  0.2556
 1031CHOL   ROH 9281   9.783  15.236   4.220  0.1841 -0.0525 -0.2424
 1031CHOL    R1 9282   9.903  14.992   4.298  0.2320 -0.0044 -0.1657
 1031CHOL    R2 9283  10.114  14.981   4.477  0.1107  0.0789 -0.0165
 1031CHOL    R3 9284   9.950  14.808   4.608  0.0899  0.0045 -0.1377
 1031CHOL    R4 9285  10.220  14.699   4.647  0.0902  0.0050 -0.1247
 1031CHOL    R5 9286  10.047  14.592   4.568  0.1153  0.0294 -0.2180
 1031CHOL    C1 9287  10.128  14.373   4.870  0.0588 -0.1081 -0.3014
 1031CHOL    C2 9288  10.339  14.121   4.994  0.0445  0.1870 -0.0277
 1032PNCE   AM1 9289  13.996  14.095   3.703 -0.2088  0.1606 -0.1488
 1032PNCE   AM2 9290  13.694  13.880   3.609  0.0130 -0.0150 -0.3412
 1032PNCE   T1A 9291  14.262  13.828   3.951  0.0542 -0.0012  0.0308
 1032PNCE   C2A 9292  14.001  13.613   4.277  0.2085 -0.3209 -0.1673
 1032PNCE   C3A 9293  13.986  13.458   4.771  0.1934 -0.0427  0.0060
 1032PNCE   C1B 9294  13.651  13.880   4.045 -0.2782  0.1457  0.1220
 1032PNCE   C2B 9295  13.534  13.797   4.481  0.3079 -0.1027 -0.1984
 1032PNCE   C3B 9296  13.379  13.662   4.903 -0.1164  0.3191 -0.0252
 1032PNCE   D4B 9297  13.350  13.823   5.243 -0.4975 -0.2218 -0.3934
 1032PNCE   C5B 9298  13.224  14.198   5.521 -0.0090 -0.0936 -0.1059
 1032PNCE   C6B 9299  13.077  14.160   6.003  0.1138 -0.1800 -0.2777
 1033PNCE   AM1 9300   9.310  10.831   6.308  0.0265  0.2147  0.0366
 1033PNCE   AM2 9301   9.600  10.810   6.059  0.0179  0.1603 -0.1448
 1033PNCE   T1A 9302   9.147  10.519   6.697 -0.3092  0.0638 -0.2545
 1033PNCE   C2A 9303   9.068  10.330   7.076 -0.1129  0.0395 -0.0163
 1033PNCE   C3A 9304   9.188  10.024   7.332 -0.0570  0.4297 -0.0119
 1033PNCE   C1B 9305   9.821  10.817   6.418  0.0518 -0.0881 -0.1096
 1033PNCE   C2B 9306  10.244  10.757   6.622  0.0795  0.1873 -0.2370
 1033PNCE   C3B 9307  10.540  10.865   6.989  0.0015  0.1663  0.1529
 1033PNCE   D4B 9308  10.830  11.065   7.212  0.3345  0.2048  0.1136
 1033PNCE   C5B 9309  10.833  11.520   7.250  0.1153 -0.0890  0.0452
 1033PNCE   C6B 9310  10.755  11.900   7.488  0.1560  0.2978  0.0500
 1034PNCE   AM1 9311  11.287   8.302   5.025 -0.0365  0.1079 -0.0162
 1034PNCE   AM2 9312  11.431   8.625   5.073 -0.1842  0.1025 -0.0595
 1034PNCE   T1A 9313  11.218   8.547   5.482 -0.2768  0.1804 -0.1335
 1034PNCE   C2A 9314  11.267   8.538   5.876  0.0713  0.1527 -0.2330
 1034PNCE   C3A 9315  11.275   8.470   6.368 -0.1003 -0.1016  0.1662
 1034PNCE   C1B 9316  11.714   8.484   5.375  0.0360 -0.1825 -0.0893
 1034PNCE   C2B 9317  11.772   8.289   5.767 -0.2082  0.1550 -0.2878
 1034PNCE   C3B 9318  11.684   8.252   6.106 -0.0307 -0.2246 -0.2586
 1034PNCE   D4B 9319  11.800   8.484   6.393  0.1680 -0.2180  0.1263
 1034PNCE   C5B 9320  11.892   8.232   6.772  0.3401 -0.2042  0.0907
 1034PNCE   C6B 9321  11.714   7.969   7.063  0.2668  0.0080 -0.1889
 1035CHOL   ROH 9322   7.742   3.399   6.512  0.1117  0.0995 -0.0598
 1035CHOL    R1 9323   7.479   3.297   6.483  0.0927  0.0916  0.1214
 1035CHOL    R2 9324   7.254   3.454   6.519  0.1161  0.1493  0.0337
 1035CHOL    R3 9325   7.192   3.365   6.270  0.0347 -0.0953  0.1389
 1035CHOL    R4 9326   6.933   3.412   6.398  0.0722  0.4456  0.0412
 1035CHOL    R5 9327   6.999   3.228   6.302 -0.1700  0.2182  0.2932
 1035CHOL    C1 9328   6.688   3.304   6.094 -0.0297  0.3884  0.1443
 1035CHOL    C2 9329   6.482   3.085   5.846  0.1428  0.0846 -0.1517
 1036PNCE   AM1 9330  15.033  12.449   4.488  0.0107  0.0239  0.0480
 1036PNCE   AM2 9331  14.918  12.165   4.351  0.1829 -0.0209  0.2667
 1036PNCE   T1A 9332  15.226  12.809   4.715  0.2774 -0.0957 -0.0357
 1036PNCE   C2A 9333  15.235  13.134   4.968  0.0942  0.0504  0.1637
 1036PNCE   C3A 9334  15.457  13.471   5.045  0.2524 -0.0439  0.0118
 1036PNCE   C1B 9335  14.990  12.118   4.812  0.2570 -0.0325  0.2091
 1036PNCE   C2B 9336  14.876  12.102   5.180 -0.0102 -0.1584 -0.3200
 1036PNCE   C3B 9337  14.682  12.145   5.578 -0.1074  0.1266 -0.3643
 1036PNCE   D4B 9338  14.367  12.246   5.951  0.0024  0.1337  0.2260
 1036PNCE   C5B 9339  13.970  12.292   5.812 -0.0462  0.2296  0.1487
 1036PNCE   C6B 9340  13.642  12.253   5.573 -0.0028 -0.2304 -0.3462
 1037XCA    COO 9341   0.909   9.735   8.610 -0.2487 -0.0964  0.1663
 1037XCA     C1 9342   0.908   9.663   8.202  0.1004 -0.1303  0.1141
 1037XCA     C2 9343   0.927   9.507   7.748 -0.0914  0.0663  0.2642
 1037XCA     C3 9344   1.138   9.587   7.481 -0.0996  0.1227 -0.1234
 1037XCA     C4 9345   1.103   9.723   7.109  0.0334 -0.4066 -0.0294
 1037XCA     C5 9346   1.431   9.970   6.778 -0.1016 -0.0482  0.2286
 1037XCA     C6 9347   1.637  10.378   6.733 -0.2591  0.2173  0.0016
 1038PNCE   AM1 9348   6.971  13.118   5.843 -0.0636 -0.0059 -0.0041
 1038PNCE   AM2 9349   6.859  12.800   5.656 -0.0392 -0.4091  0.1257
 1038PNCE   T1A 9350   7.183  13.371   6.172 -0.2426 -0.1224  0.1186
 1038PNCE   C2A 9351   7.276  13.619   6.543 -0.0627  0.1268 -0.1376
 1038PNCE   C3A 9352   7.262  13.622   6.951  0.2472 -0.0614  0.1157
 1038PNCE   C1B 9353   6.872  12.712   6.134 -0.0729 -0.0401 -0.2406
 1038PNCE   C2B 9354   7.022  13.027   6.457  0.2337 -0.2568 -0.0392
 1038PNCE   C3B 9355   6.891  13.361   6.630  0.2787  0.1487 -0.0322
 1038PNCE   D4B 9356   6.491  13.085   6.833 -0.1688  0.1116 -0.1258
 1038PNCE   C5B 9357   6.073  13.208   7.104 -0.1450 -0.1846 -0.0041
 1038PNCE   C6B 9358   5.930  13.608   7.299 -0.1927  0.2190  0.1325
 1039CHOL   ROH 9359   1.044   3.278   8.038 -0.0455  0.1048  0.2206
 1039CHOL    R1 9360   1.178   3.442   7.851  0.1548 -0.1974  0.0932
 1039CHOL    R2 9361   1.304   3.340   7.626 -0.2796 -0.4926 -0.0226
 1039CHOL    R3 9362   1.147   3.520   7.496 -0.0025 -0.1339  0.1185
 1039CHOL    R4 9363   1.382   3.490   7.325 -0.1923 -0.6645 -0.0872
 1039CHOL    R5 9364   1.301   3.677   7.402  0.2817 -0.4690 -0.0075
 1039CHOL    C1 9365   1.280   3.746   7.027  0.1186 -0.4278  0.0075
 1039CHOL    C2 9366   1.467   3.582   6.759 -0.2812 -0.0263  0.1975
 1040CHOL   ROH 9367  15.388   2.771   5.015  0.1571  0.0744  0.1377
 1040CHOL    R1 9368  15.339   2.716   5.288 -0.1198  0.1068  0.0964
 1040CHOL    R2 9369  15.085   2.667   5.386 -0.1903 -0.1571 -0.2050
 1040CHOL    R3 9370  15.201   2.440   5.482 -0.0401  0.0068  0.0125
 1040CHOL    R4 9371  14.961   2.476   5.647 -0.2892 -0.2086 -0.2886
 1040CHOL    R5 9372  15.166   2.450   5.719 -0.3395  0.0515 -0.0299
 1040CHOL    C1 9373  14.998   2.153   5.888 -0.2056 -0.0848 -0.1331
 1040CHOL    C2 9374  14.920   1.736   5.966  0.1137 -0.0694  0.1728
 1041CHOL   ROH 9375   9.350  10.450   9.066  0.0261 -0.1374  0.0157
 1041CHOL    R1 9376   9.303  10.377   8.797  0.0934 -0.1387  0.0039
 1041CHOL    R2 9377   9.386  10.135   8.692  0.0089 -0.1927  0.0593
 1041CHOL    R3 9378   9.124  10.113   8.622  0.0238 -0.0621 -0.0401
 1041CHOL    R4 9379   9.267   9.943   8.430  0.0313  0.0486 -0.1309
 1041CHOL    R5 9380   9.127  10.104   8.383  0.0933  0.1267 -0.0472
 1041CHOL    C1 9381   8.952   9.811   8.212  0.0584  0.3118 -0.3350
 1041CHOL    C2 9382   9.091   9.821   7.829 -0.1788  0.0221  0.1141
 1042PNCE   AM1 9383  11.833   4.651   3.557 -0.2239 -0.2106  0.1469
 1042PNCE   AM2 9384  11.607   4.376   3.662  0.0289  0.0299 -0.1258
 1042PNCE   T1A 9385  12.054   4.637   3.972  0.1578 -0.2137 -0.0343
 1042PNCE   C2A 9386  12.381   4.712   4.278  0.1883  0.1905  0.1734
 1042PNCE   C3A 9387  12.807   4.822   4.369 -0.3496 -0.0137  0.1012
 1042PNCE   C1B 9388  11.930   4.133   3.904 -0.1100 -0.1043  0.0108
 1042PNCE   C2B 9389  12.301   3.824   4.010  0.0235 -0.2576 -0.0490
 1042PNCE   C3B 9390  12.409   3.454   4.140  0.1077  0.0079  0.2383
 1042PNCE   D4B 9391  12.683   3.297   4.472 -0.1850  0.1899  0.0740
 1042PNCE   C5B 9392  12.783   3.684   4.721 -0.3193  0.3510 -0.4214
 1042PNCE   C6B 9393  12.833   4.027   4.916  0.4433 -0.2059  0.0201
 1043PNCE   AM1 9394   4.222   4.145   4.805 -0.0782  0.3449 -0.1457
 1043PNCE   AM2 9395   4.408   4.408   4.831  0.1542  0.2055 -0.0215
 1043PNCE   T1A 9396   4.100   3.861   5.176 -0.0605 -0.3190  0.1139
 1043PNCE   C2A 9397   4.042   3.786   5.634  0.0553 -0.3037 -0.2319
 1043PNCE   C3A 9398   3.850   3.859   6.079  0.0688 -0.1692 -0.0367
 1043PNCE   C1B 9399   4.265   4.350   5.283 -0.2560 -0.1322  0.1389
 1043PNCE   C2B 9400   4.083   4.289   5.723 -0.0776  0.0462  0.2276
 1043PNCE   C3B 9401   3.921   4.349   6.185 -0.1804 -0.0927  0.1800
 1043PNCE   D4B 9402   3.411   4.464   6.262  0.3177  0.1485 -0.1468
 1043PNCE   C5B 9403   3.244   4.158   6.621 -0.0104 -0.0106 -0.0817
 1043PNCE   C6B 9404   3.023   3.832   6.882  0.2933 -0.0926  0.0336
 1044PNCE   AM1 9405   0.695   9.358   5.336  0.0373  0.2748  0.2475
 1044PNCE   AM2 9406   1.080   9.481   5.419 -0.5099 -0.1069 -0.0340
 1044PNCE   T1A 9407   0.676   9.604   5.807  0.1696 -0.1272  0.1036
 1044PNCE   C2A 9408   0.513   9.651   6.227  0.0379  0.0136  0.1356
 1044PNCE   C3A 9409   0.555   9.462   6.603 -0.1432 -0.2350 -0.3189
 1044PNCE   C1B 9410   1.213   9.509   5.891  0.0820  0.1909  0.1951
 1044PNCE   C2B 9411   1.236   9.686   6.352  0.0178  0.0270  0.2492
 1044PNCE   C3B 9412   0.904   9.781   6.550  0.2044 -0.1664 -0.3167
 1044PNCE   D4B 9413   0.638  10.125   6.367 -0.0593 -0.0126 -0.0377
 1044PNCE   C5B 9414   0.201  10.009   6.330  0.0615  0.0212 -0.3410
 1044PNCE   C6B 9415  -0.123   9.819   6.363 -0.5641  0.1232 -0.0453
 1045CHOL   ROH 9416  12.575   4.938   6.829  0.0627 -0.0532 -0.0291
 1045CHOL    R1 9417  12.657   5.080   6.598 -0.0763 -0.0317 -0.0662
 1045CHOL    R2 9418  12.502   5.277   6.482 -0.0734  0.0979  0.1452
 1045CHOL    R3 9419  12.728   5.426   6.512  0.0478 -0.0466 -0.0261
 1045CHOL    R4 9420  12.545   5.597   6.358 -0.0156  0.1252  0.2342
 1045CHOL    R5 9421  12.749   5.543   6.304 -0.1010  0.0265 -0.0017
 1045CHOL    C1 9422  12.782   5.923   6.314  0.1318  0.0055  0.1254
 1045CHOL    C2 9423  13.016   6.026   5.943  0.2019  0.0379 -0.0821
 1046CHOL   ROH 9424   9.793   5.165   5.777 -0.2553  0.1644 -0.0232
 1046CHOL    R1 9425   9.772   5.012   6.014 -0.2861 -0.1457 -0.2233
 1046CHOL    R2 9426   9.705   5.123   6.258  0.2252 -0.3599  0.0193
 1046CHOL    R3 9427   9.511   4.933   6.255 -0.1725  0.0276 -0.0371
 1046CHOL    R4 9428   9.520   5.027   6.533  0.4038 -0.4095  0.1260
 1046CHOL    R5 9429   9.536   4.820   6.465 -0.1013 -0.3576 -0.2358
 1046CHOL    C1 9430   9.229   4.792   6.691  0.1344 -0.0745  0.1352
 1046CHOL    C2 9431   8.806   4.817   6.702 -0.0773  0.2556  0.0911
 1047PNCE   AM1 9432   9.466   1.732   5.209 -0.1937 -0.1927 -0.2312
 1047PNCE   AM2 9433   9.376   1.959   5.380  0.0712 -0.2615 -0.0494
 1047PNCE   T1A 9434   9.849   1.525   5.343 -0.2455  0.2508  0.0421
 1047PNCE   C2A 9435  10.263   1.370   5.549  0.1573 -0.0303 -0.1798
 1047PNCE   C3A 9436  10.694   1.392   5.718 -0.1650  0.0894 -0.0488
 1047PNCE   C1B 9437   9.559   2.238   5.655 -0.2974 -0.2454 -0.2558
 1047PNCE   C2B 9438   9.751   2.394   5.994  0.2394 -0.0566  0.0854
 1047PNCE   C3B 9439  10.056   2.547   6.295  0.0210 -0.1280  0.0997
 1047PNCE   D4B 9440   9.952   2.408   6.727 -0.1166 -0.1588 -0.1230
 1047PNCE   C5B 9441   9.461   2.335   6.835  0.3094 -0.1653  0.3018
 1047PNCE   C6B 9442   9.227   2.035   6.926 -0.0315 -0.0870 -0.3985
 1048CHOL   ROH 9443   8.484  15.195   7.861 -0.3028 -0.2061 -0.0313
 1048CHOL    R1 9444   8.544  15.354   7.635 -0.2729 -0.0445  0.0897
 1048CHOL    R2 9445   8.586  15.247   7.384 -0.1339  0.1256  0.0418
 1048CHOL    R3 9446   8.391  15.422   7.312 -0.1698  0.0985  0.0690
 1048CHOL    R4 9447   8.503  15.327   7.058  0.1221  0.4504  0.0504
 1048CHOL    R5 9448   8.480  15.535   7.120 -0.0522  0.3731  0.2741
 1048CHOL    C1 9449   8.272  15.538   6.801  0.2376  0.6142  0.0810
 1048CHOL    C2 9450   8.302  15.574   6.375 -0.1740  0.0916  0.0197
 1049CHOL   ROH 9451   4.117   0.250   4.233  0.0821 -0.0390 -0.1706
 1049CHOL    R1 9452   3.875   0.177   4.361  0.1412 -0.1161 -0.1013
 1049CHOL    R2 9453   3.841   0.188   4.635  0.1268  0.1406 -0.1117
 1049CHOL    R3 9454   3.626   0.341   4.570 -0.0053 -0.1098 -0.2778
 1049CHOL    R4 9455   3.551   0.211   4.821  0.1896  0.2443 -0.0249
 1049CHOL    R5 9456   3.437   0.209   4.635  0.1103 -0.1380  0.0173
 1049CHOL    C1 9457   3.180   0.367   4.867  0.1021  0.0697 -0.1304
 1049CHOL    C2 9458   2.807   0.364   4.935  0.0190 -0.0613 -0.0384
 1050CHOL   ROH 9459   7.475  15.526   6.308  0.0085 -0.0388  0.0876
 1050CHOL    R1 9460   7.630  15.315   6.417 -0.1580 -0.0542  0.3025
 1050CHOL    R2 9461   7.905  15.324   6.429 -0.1190 -0.4142 -0.0602
 1050CHOL    R3 9462   7.863  15.274   6.693  0.1220  0.1579  0.1018
 1050CHOL    R4 9463   8.109  15.128   6.627 -0.2734 -0.5001  0.0149
 1050CHOL    R5 9464   7.930  15.046   6.721 -0.3368  0.0507  0.4190
 1050CHOL    C1 9465   8.189  14.966   6.990 -0.1370 -0.0130  0.2106
 1050CHOL    C2 9466   8.471  14.816   7.277 -0.0960 -0.2185 -0.0974
 1051CHOL   ROH 9467   7.171   0.149   5.058  0.0860  0.2220  0.1220
 1051CHOL    R1 9468   7.369   0.035   5.225  0.0473  0.0716  0.0714
 1051CHOL    R2 9469   7.550   0.187   5.368  0.2308 -0.0585  0.0085
 1051CHOL    R3 9470   7.454   0.044   5.578  0.1618  0.0419  0.0415
 1051CHOL    R4 9471   7.699   0.168   5.679  0.2717 -0.1613 -0.0201
 1051CHOL    R5 9472   7.649  -0.044   5.685  0.1008 -0.1093  0.0110
 1051CHOL    C1 9473   7.696   0.023   6.058  0.2307 -0.1269 -0.0058
 1051CHOL    C2 9474   7.895  -0.043   6.427 -0.1874  0.0015 -0.1150
 1052CHOL   ROH 9475   9.853   1.894   5.608  0.2839  0.1928 -0.1899
 1052CHOL    R1 9476  10.025   1.864   5.831  0.1049  0.0657 -0.0667
 1052CHOL    R2 9477  10.037   1.631   5.979  0.0848 -0.0684 -0.2754
 1052CHOL    R3 9478  10.303   1.649   5.923  0.1282  0.1113 -0.0286
 1052CHOL    R4 9479  10.285   1.457   6.145  0.0120 -0.1670 -0.2688
 1052CHOL    R5 9480  10.409   1.637   6.138 -0.0527 -0.1015  0.0538
 1052CHOL    C1 9481  10.678   1.372   6.191  0.0104 -0.0557 -0.0332
 1052CHOL    C2 9482  10.887   1.269   6.504  0.1146 -0.1474 -0.1445
 1053CHOL   ROH 9483   5.748  14.926   4.558  0.2424 -0.2238  0.1761
 1053CHOL    R1 9484   5.627  15.052   4.780  0.2642 -0.0085  0.0701
 1053CHOL    R2 9485   5.456  14.919   4.951 -0.1371  0.2873 -0.0780
 1053CHOL    R3 9486   5.628  15.009   5.142 -0.1351 -0.0257  0.0722
 1053CHOL    R4 9487   5.369  14.986   5.279 -0.2237  0.1531 -0.0738
 1053CHOL    R5 9488   5.497  15.163   5.271 -0.0332  0.0225  0.1132
 1053CHOL    C1 9489   5.479  15.109   5.649 -0.2722 -0.2189  0.0695
 1053CHOL    C2 9490   5.274  15.072   5.966  0.0257  0.0472  0.3945
 1054PNCE   AM1 9491  12.654   2.547   4.110  0.1274 -0.0162 -0.1703
 1054PNCE   AM2 9492  12.743   2.218   4.007  0.2912 -0.1559 -0.1834
 1054PNCE   T1A 9493  12.770   2.696   4.482  0.0727  0.2622  0.0356
 1054PNCE   C2A 9494  13.074   2.593   4.751 -0.0114 -0.0808  0.0737
 1054PNCE   C3A 9495  13.330   2.298   4.865  0.0775 -0.2938  0.2644
 1054PNCE   C1B 9496  13.103   2.340   4.337  0.1940  0.0793  0.3896
 1054PNCE   C2B 9497  13.566   2.523   4.407 -0.0984 -0.0219 -0.1576
 1054PNCE   C3B 9498  13.770   2.894   4.519 -0.0663  0.1013  0.2848
 1054PNCE   D4B 9499  13.956   3.280   4.598  0.0971  0.0997 -0.1354
 1054PNCE   C5B 9500  13.909   3.423   5.035  0.0508  0.0380  0.1500
 1054PNCE   C6B 9501  13.874   3.708   5.420 -0.3370  0.0364 -0.0823
 1055CHOL   ROH 9502  10.256  10.085   8.488  0.1170  0.1922 -0.0323
 1055CHOL    R1 9503  10.170  10.126   8.222 -0.0429  0.0463 -0.0045
 1055CHOL    R2 9504   9.939  10.265   8.159 -0.0436  0.0698  0.0574
 1055CHOL    R3 9505  10.108  10.412   8.005 -0.1019 -0.0734 -0.1479
 1055CHOL    R4 9506   9.843  10.448   7.883 -0.2544  0.2623  0.2537
 1055CHOL    R5 9507  10.025  10.382   7.782 -0.4718  0.0845 -0.0407
 1055CHOL    C1 9508   9.945  10.694   7.577 -0.4319  0.2400  0.1754
 1055CHOL    C2 9509   9.667  10.929   7.561 -0.2301  0.0514  0.1462
 1056PNCE   AM1 9510  14.349   2.008   4.080  0.0994  0.0272 -0.0129
 1056PNCE   AM2 9511  14.131   2.167   3.914 -0.1275 -0.4423  0.1524
 1056PNCE   T1A 9512  14.504   2.375   4.307  0.0768 -0.1355  0.0163
 1056PNCE   C2A 9513  14.596   2.536   4.662 -0.0746 -0.2956  0.0659
 1056PNCE   C3A 9514  14.321   2.579   4.921 -0.1858  0.2217  0.0461
 1056PNCE   C1B 9515  13.973   2.364   4.208 -0.0382  0.2554 -0.2535
 1056PNCE   C2B 9516  14.134   2.164   4.572 -0.1776 -0.1613 -0.1185
 1056PNCE   C3B 9517  14.204   2.157   5.090  0.2034 -0.2465 -0.2593
 1056PNCE   D4B 9518  14.143   2.328   5.555  0.2198 -0.2621 -0.2599
 1056PNCE   C5B 9519  14.358   2.758   5.753  0.1745  0.0674  0.0998
 1056PNCE   C6B 9520  14.328   3.192   5.940 -0.2387 -0.0477  0.0520
 1057CHOL   ROH 9521   2.361   3.523   5.829 -0.1875  0.2490 -0.1287
 1057CHOL    R1 9522   2.271   3.292   5.966 -0.0442  0.1724 -0.1640
 1057CHOL    R2 9523   2.066   3.299   6.151 -0.0455  0.0172 -0.1672
 1057CHOL    R3 9524   1.960   3.105   5.993  0.0716 -0.0306 -0.1900
 1057CHOL    R4 9525   1.883   3.030   6.267  0.0672 -0.0700 -0.1881
 1057CHOL    R5 9526   1.986   2.904   6.121  0.1541 -0.0215 -0.1813
 1057CHOL    C1 9527   1.676   2.691   6.186  0.2428 -0.1656 -0.2216
 1057CHOL    C2 9528   1.794   2.532   6.466 -0.1845 -0.0235  0.0247
 1058PNCE   AM1 9529   2.845  14.107   4.687  0.3065 -0.1746  0.0563
 1058PNCE   AM2 9530   2.589  14.072   4.398  0.0662 -0.1685 -0.2317
 1058PNCE   T1A 9531   2.713  14.372   5.060  0.0603 -0.2222 -0.0510
 1058PNCE   C2A 9532   2.868  14.635   5.374  0.0450 -0.2375  0.1301
 1058PNCE   C3A 9533   3.285  14.998   5.430 -0.0066 -0.0507  0.2903
 1058PNCE   C1B 9534   2.394  14.387   4.717 -0.0399 -0.0455 -0.3030
 1058PNCE   C2B 9535   2.324  14.671   4.970  0.1659  0.0264  0.2197
 1058PNCE   C3B 9536   2.436  14.868   5.356  0.0026 -0.2070  0.1614
 1058PNCE   D4B 9537   2.574  14.760   5.824  0.0272 -0.0597 -0.0985
 1058PNCE   C5B 9538   2.977  14.436   5.842 -0.0209  0.0810 -0.1848
 1058PNCE   C6B 9539   3.192  13.961   5.907 -0.0631 -0.1050 -0.1164
 1059CHOL   ROH 9540   8.795  10.737   6.204 -0.0338 -0.0523  0.0348
 1059CHOL    R1 9541   8.764  10.520   6.382 -0.0107 -0.1586 -0.0890
 1059CHOL    R2 9542   8.604  10.534   6.607  0.2265 -0.2004  0.0868
 1059CHOL    R3 9543   8.489  10.312   6.500 -0.0464 -0.0402  0.0390
 1059CHOL    R4 9544   8.414  10.306   6.784  0.2029 -0.1670  0.1044
 1059CHOL    R5 9545   8.511  10.146   6.671 -0.0235 -0.1716 -0.0904
 1059CHOL    C1 9546   8.195   9.964   6.786 -0.0671  0.0031  0.0697
 1059CHOL    C2 9547   8.301   9.890   7.162 -0.0636  0.0771  0.0076
 1060PNCE   AM1 9548   7.183  11.960   5.682 -0.1873 -0.2526  0.1317
 1060PNCE   AM2 9549   7.014  11.701   5.678 -0.0148 -0.1362 -0.0164
 1060PNCE   T1A 9550   6.884  12.280   5.898 -0.1110  0.0535  0.3975
 1060PNCE   C2A 9551   6.675  12.226   6.265  0.1643 -0.2116 -0.2318
 1060PNCE   C3A 9552   6.581  11.861   6.500  0.2994 -0.2030  0.0156
 1060PNCE   C1B 9553   6.897  11.774   6.079  0.0431 -0.1323 -0.0002
 1060PNCE   C2B 9554   7.099  11.868   6.450  0.0201  0.1156  0.2197
 1060PNCE   C3B 9555   7.327  11.782   6.852  0.0491 -0.4129 -0.0067
 1060PNCE   D4B 9556   7.275  12.031   7.187  0.2175 -0.1628  0.2002
 1060PNCE   C5B 9557   6.871  12.281   7.293 -0.3487 -0.2392 -0.1276
 1060PNCE   C6B 9558   6.452  12.401   7.435 -0.0653  0.3100  0.2371
 1061PNCE   AM1 9559  11.537   3.923   4.092  0.1382 -0.3297 -0.1803
 1061PNCE   AM2 9560  11.258   3.787   4.295 -0.0719 -0.2835 -0.1264
 1061PNCE   T1A 9561  11.866   3.799   4.271  0.2105  0.2328  0.0531
 1061PNCE   C2A 9562  12.262   3.585   4.551 -0.2963 -0.3719 -0.0944
 1061PNCE   C3A 9563  12.368   3.266   4.866 -0.1633  0.1235 -0.1335
 1061PNCE   C1B 9564  11.442   3.631   4.537 -0.1312  0.0983  0.2557
 1061PNCE   C2B 9565  11.429   3.462   5.026  0.0367  0.1689  0.0288
 1061PNCE   C3B 9566  11.621   3.575   5.390  0.0450  0.1908 -0.0845
 1061PNCE   D4B 9567  11.864   3.661   5.610  0.0481  0.0174 -0.0425
 1061PNCE   C5B 9568  12.307   3.498   5.833  0.0986  0.0747  0.0372
 1061PNCE   C6B 9569  12.523   3.084   5.890  0.1849  0.0813 -0.0443
 1062CHOL   ROH 9570   0.344   1.130   5.378 -0.2192  0.4061 -0.2659
 1062CHOL    R1 9571   0.140   1.219   5.553 -0.1592  0.0972 -0.0281
 1062CHOL    R2 9572   0.036   1.060   5.754  0.1958 -0.1246  0.0006
 1062CHOL    R3 9573   0.104   1.270   5.911  0.1226 -0.1276  0.0335
 1062CHOL    R4 9574  -0.119   1.143   6.051  0.1639 -0.1964  0.0030
 1062CHOL    R5 9575  -0.105   1.352   5.994  0.1057 -0.1945  0.0355
 1062CHOL    C1 9576  -0.146   1.389   6.372  0.0766 -0.2411  0.0353
 1062CHOL    C2 9577  -0.266   1.542   6.648  0.0063 -0.2624  0.1941
 1063PNCE   AM1 9578   8.302  10.461   5.753 -0.0938  0.0115 -0.1895
 1063PNCE   AM2 9579   8.643  10.438   5.887 -0.0077 -0.0316 -0.0689
 1063PNCE   T1A 9580   8.179  10.348   6.154 -0.0269  0.3819  0.1668
 1063PNCE   C2A 9581   7.908  10.000   6.425 -0.1154 -0.0045 -0.0011
 1063PNCE   C3A 9582   7.649   9.998   6.830 -0.0389  0.2227 -0.3203
 1063PNCE   C1B 9583   8.845  10.101   6.052  0.0082  0.0014  0.3397
 1063PNCE   C2B 9584   8.972  10.060   6.421 -0.0477 -0.0554  0.0122
 1063PNCE   C3B 9585   9.261  10.030   6.762  0.1225  0.1554 -0.2591
 1063PNCE   D4B 9586   9.621  10.091   6.999  0.0346 -0.0974  0.2100
 1063PNCE   C5B 9587   9.676   9.744   7.288 -0.1627  0.0712 -0.0478
 1063PNCE   C6B 9588   9.280   9.526   7.496  0.2923  0.0695  0.0877
 1064CHOL   ROH 9589   2.905   5.278   9.257  0.1715  0.4373  0.1228
 1064CHOL    R1 9590   2.680   5.342   9.097  0.1786  0.2137  0.0185
 1064CHOL    R2 9591   2.652   5.587   8.973  0.0169  0.1697 -0.0402
 1064CHOL    R3 9592   2.621   5.435   8.750  0.2418  0.0959 -0.0230
 1064CHOL    R4 9593   2.498   5.693   8.682 -0.1671 -0.1058 -0.0467
 1064CHOL    R5 9594   2.404   5.496   8.666  0.1396 -0.2536 -0.0216
 1064CHOL    C1 9595   2.379   5.612   8.304 -0.0632 -0.3355 -0.0346
 1064CHOL    C2 9596   2.607   5.839   8.131 -0.3385  0.4595 -0.0852
 1065PNCE   AM1 9597   5.803   0.277   8.105 -0.0970  0.0668 -0.3254
 1065PNCE   AM2 9598   6.094   0.349   8.132  0.1321 -0.2816 -0.1529
 1065PNCE   T1A 9599   5.993   0.264   7.617 -0.0549 -0.2052 -0.2151
 1065PNCE   C2A 9600   6.062   0.139   7.199 -0.1185 -0.1134  0.0653
 1065PNCE   C3A 9601   6.479   0.010   7.149  0.3192 -0.0093 -0.0134
 1065PNCE   C1B 9602   6.471   0.435   7.822 -0.1994  0.3122  0.2034
 1065PNCE   C2B 9603   6.696   0.335   7.525  0.1814 -0.0791  0.2138
 1065PNCE   C3B 9604   6.730   0.405   7.071  0.0227 -0.0607 -0.1942
 1065PNCE   D4B 9605   6.791   0.177   6.741 -0.1901 -0.1744  0.0933
 1065PNCE   C5B 9606   7.186  -0.078   6.760  0.1559 -0.3279  0.0716
 1065PNCE   C6B 9607   7.554  -0.226   6.720  0.0611 -0.0409 -0.0975
 1066XCA    COO 9608  14.912  10.323   4.044  0.3265 -0.1319  0.2283
 1066XCA     C1 9609  15.095  10.516   4.334  0.2167 -0.2650  0.1230
 1066XCA     C2 9610  15.196  10.701   4.723  0.0346 -0.1934  0.2147
 1066XCA     C3 9611  15.404  10.789   5.084  0.0423  0.2105  0.0162
 1066XCA     C4 9612  15.378  11.133   5.360  0.1540 -0.2046 -0.0247
 1066XCA     C5 9613  15.052  11.380   5.621 -0.0678  0.1182 -0.2055
 1066XCA     C6 9614  14.912  11.211   6.022 -0.2431 -0.1867 -0.3647
 1067PNCE   AM1 9615   9.106   2.884   4.880 -0.1269 -0.1055  0.0539
 1067PNCE   AM2 9616   8.822   2.750   5.042  0.1325 -0.0334 -0.1378
 1067PNCE   T1A 9617   9.562   2.768   4.825 -0.1164 -0.1257 -0.1571
 1067PNCE   C2A 9618   9.831   2.530   4.687  0.3045  0.0701 -0.0636
 1067PNCE   C3A 9619  10.239   2.203   4.690  0.3757 -0.0877  0.1831
 1067PNCE   C1B 9620   8.701   2.566   5.413  0.0879  0.1918  0.0863
 1067PNCE   C2B 9621   8.452   2.248   5.646 -0.0721  0.0197  0.1330
 1067PNCE   C3B 9622   8.173   2.192   5.988 -0.0783  0.2371 -0.0463
 1067PNCE   D4B 9623   7.864   2.406   6.130 -0.1470 -0.0870  0.1484
 1067PNCE   C5B 9624   7.503   2.679   5.978 -0.0667  0.0043 -0.2812
 1067PNCE   C6B 9625   7.275   2.916   6.218 -0.0779  0.1933 -0.2065
 1068PNCE   AM1 9626  13.716   3.647   3.788 -0.1907  0.0980 -0.0534
 1068PNCE   AM2 9627  13.611   3.790   4.049 -0.1035  0.1390  0.0871
 1068PNCE   T1A 9628  13.665   3.321   4.154 -0.1457 -0.1320 -0.1342
 1068PNCE   C2A 9629  13.882   2.947   4.042  0.0162 -0.2357 -0.0677
 1068PNCE   C3A 9630  14.106   2.671   3.866  0.1417 -0.1138 -0.0233
 1068PNCE   C1B 9631  13.661   3.753   4.532  0.0492 -0.1534  0.2363
 1068PNCE   C2B 9632  13.767   3.886   4.909  0.1147 -0.1744  0.1290
 1068PNCE   C3B 9633  13.585   4.123   5.267 -0.0885  0.2822  0.1900
 1068PNCE   D4B 9634  13.355   3.969   5.725 -0.1387 -0.4877 -0.0093
 1068PNCE   C5B 9635  13.066   4.279   5.851 -0.0913 -0.2402  0.0581
 1068PNCE   C6B 9636  12.824   4.199   6.217 -0.3971  0.0804  0.1021
 1069PNCE   AM1 9637   2.844   9.748   5.673 -0.0877 -0.1111 -0.1436
 1069PNCE   AM2 9638   2.543   9.602   5.533 -0.1031 -0.1830  0.0240
 1069PNCE   T1A 9639   2.767   9.793   5.997 -0.1442  0.3100  0.2847
 1069PNCE   C2A 9640   2.764   9.823   6.493  0.0326 -0.1005  0.2988
 1069PNCE   C3A 9641   2.545   9.724   6.885 -0.3545  0.1740  0.1114
 1069PNCE   C1B 9642   2.389   9.473   5.971  0.0230 -0.1673  0.2173
 1069PNCE   C2B 9643   2.321   9.396   6.478  0.3037 -0.0105  0.0635
 1069PNCE   C3B 9644   2.124   9.479   6.946 -0.1336  0.0189  0.0695
 1069PNCE   D4B 9645   1.989   9.219   7.256 -0.1707 -0.2513 -0.5642
 1069PNCE   C5B 9646   1.990   9.128   7.694  0.1117 -0.0731 -0.2099
 1069PNCE   C6B 9647   1.845   9.149   8.105 -0.0604 -0.1216  0.2774
 1070PNCE   AM1 9648   8.723  12.164   5.043 -0.0504  0.1837 -0.0211
 1070PNCE   AM2 9649   8.907  11.863   5.297 -0.0533  0.1911 -0.3556
 1070PNCE   T1A 9650   8.935  12.501   5.189 -0.4380  0.0956 -0.1217
 1070PNCE   C2A 9651   9.142  12.614   5.509  0.0563  0.1578  0.2581
 1070PNCE   C3A 9652   9.287  12.789   5.832  0.2371  0.0333  0.1271
 1070PNCE   C1B 9653   8.866  12.073   5.648  0.1215  0.0154 -0.3706
 1070PNCE   C2B 9654   8.957  12.141   6.058  0.0045 -0.0847 -0.0161
 1070PNCE   C3B 9655   8.906  12.220   6.415  0.0789 -0.0033 -0.0907
 1070PNCE   D4B 9656   8.999  12.053   6.871  0.2880  0.0898 -0.1267
 1070PNCE   C5B 9657   9.334  12.212   7.108 -0.0088  0.1126  0.2861
 1070PNCE   C6B 9658   9.744  12.042   7.360  0.0710  0.2712  0.0619
 1071CHOL   ROH 9659  13.708   1.695   6.429  0.1922 -0.1236 -0.0888
 1071CHOL    R1 9660  13.463   1.594   6.332  0.0975 -0.0143  0.0329
 1071CHOL    R2 9661  13.394   1.602   6.065  0.0402 -0.1312  0.0442
 1071CHOL    R3 9662  13.357   1.335   6.099 -0.1385 -0.0872  0.2162
 1071CHOL    R4 9663  13.133   1.419   5.930  0.1768 -0.1214 -0.2413
 1071CHOL    R5 9664  13.120   1.309   6.118 -0.1899  0.0431 -0.1599
 1071CHOL    C1 9665  12.947   1.062   5.884  0.0885 -0.0744 -0.2459
 1071CHOL    C2 9666  12.833   0.680   6.041 -0.1157 -0.2188  0.1687
 1072PNCE   AM1 9667   1.117  14.601   4.182  0.2169 -0.1239 -0.1768
 1072PNCE   AM2 9668   1.389  14.603   4.383  0.0780  0.2160 -0.1423
 1072PNCE   T1A 9669   1.069  14.376   4.654  0.1464  0.1323 -0.2709
 1072PNCE   C2A 9670   1.042  14.319   5.021  0.0606 -0.0757 -0.0125
 1072PNCE   C3A 9671   1.377  14.225   5.285  0.0351  0.0729  0.0106
 1072PNCE   C1B 9672   1.355  14.730   4.770  0.2179 -0.0879 -0.0332
 1072PNCE   C2B 9673   1.254  14.700   5.252 -0.2573  0.0890  0.0908
 1072PNCE   C3B 9674   1.469  14.694   5.596 -0.1221  0.0097  0.4235
 1072PNCE   D4B 9675   1.639  14.617   5.969 -0.0285  0.1146 -0.3734
 1072PNCE   C5B 9676   1.550  14.501   6.321  0.0133 -0.1667 -0.1445
 1072PNCE   C6B 9677   1.729  14.214   6.706  0.0048  0.0869 -0.1891
 1073XCA    COO 9678   2.283   9.571   8.810 -0.0316  0.4340  0.0055
 1073XCA     C1 9679   2.262   9.983   8.597 -0.0968  0.2151  0.0348
 1073XCA     C2 9680   2.013  10.158   8.330 -0.2003 -0.0299  0.0589
 1073XCA     C3 9681   1.690  10.157   8.050  0.1365 -0.0864  0.0683
 1073XCA     C4 9682   1.470  10.290   7.663 -0.1220 -0.0438  0.3890
 1073XCA     C5 9683   1.013  10.128   7.397 -0.1049  0.0047 -0.1558
 1073XCA     C6 9684   0.706   9.979   7.515  0.1529 -0.0001 -0.1272
 1074XCA    COO 9685   3.721  13.574   9.251  0.2601  0.1804 -0.1726
 1074XCA     C1 9686   3.885  13.552   8.904  0.1683  0.0110  0.0246
 1074XCA     C2 9687   3.939  13.643   8.522 -0.3066  0.2410  0.1178
 1074XCA     C3 9688   4.057  13.547   8.115  0.0475  0.4190  0.0066
 1074XCA     C4 9689   3.861  13.546   7.837  0.3529  0.2592  0.0272
 1074XCA     C5 9690   3.728  13.876   7.530  0.1680 -0.3213  0.2960
 1074XCA     C6 9691   3.602  14.093   7.261  0.1257  0.0710 -0.0077
 1075XCA    COO 9692  12.847   8.750   9.093  0.1068 -0.5345 -0.1393
 1075XCA     C1 9693  12.608   8.704   8.728  0.3292  0.0959 -0.2028
 1075XCA     C2 9694  12.269   8.625   8.460 -0.2166  0.0328  0.0667
 1075XCA     C3 9695  12.240   8.567   8.062  0.1223 -0.2261  0.1571
 1075XCA     C4 9696  11.890   8.499   7.787  0.4135  0.0255 -0.0478
 1075XCA     C5 9697  11.451   8.388   7.820 -0.2061  0.0463  0.3464
 1075XCA     C6 9698  11.006   8.406   7.858  0.0074 -0.2761  0.3359
 1076PNCE   AM1 9699   7.875   6.491   4.925  0.0650 -0.1706 -0.1621
 1076PNCE   AM2 9700   8.108   6.798   4.877 -0.2241 -0.0845 -0.3069
 1076PNCE   T1A 9701   7.743   6.379   5.410 -0.1919  0.1390  0.1956
 1076PNCE   C2A 9702   7.829   6.260   5.801  0.0458 -0.0746 -0.1837
 1076PNCE   C3A 9703   7.794   6.119   6.133 -0.0838 -0.3647  0.2543
 1076PNCE   C1B 9704   8.215   6.780   5.298 -0.1474 -0.2354  0.1979
 1076PNCE   C2B 9705   8.238   6.531   5.634  0.1280  0.1654  0.2689
 1076PNCE   C3B 9706   8.418   6.380   5.975  0.3924  0.3495  0.0647
 1076PNCE   D4B 9707   8.541   6.168   6.307  0.2130  0.0130  0.0931
 1076PNCE   C5B 9708   8.864   6.215   6.611 -0.0254 -0.1673  0.0631
 1076PNCE   C6B 9709   9.151   5.939   6.833 -0.2315  0.0907 -0.1997
 1077CHOL   ROH 9710   9.344  11.204   6.586  0.0688 -0.0764  0.1594
 1077CHOL    R1 9711   9.395  10.958   6.716 -0.0483 -0.0974  0.1666
 1077CHOL    R2 9712   9.581  10.932   6.919 -0.0258 -0.1900  0.1352
 1077CHOL    R3 9713   9.370  10.827   7.055 -0.0620 -0.0603  0.1797
 1077CHOL    R4 9714   9.605  10.692   7.167 -0.1279 -0.2679  0.0706
 1077CHOL    R5 9715   9.427  10.597   7.085 -0.2292 -0.1123  0.1065
 1077CHOL    C1 9716   9.421  10.455   7.439 -0.2215 -0.1916  0.0749
 1077CHOL    C2 9717   9.601  10.213   7.585  0.1763  0.0573  0.0544
 1078CHOL   ROH 9718   6.780  15.356   5.164  0.1350  0.0577  0.0439
 1078CHOL    R1 9719   6.848  15.253   5.419  0.2445  0.0459  0.0105
 1078CHOL    R2 9720   6.912  15.416   5.633 -0.0410  0.0536  0.0935
 1078CHOL    R3 9721   6.715  15.276   5.757  0.1434 -0.3039 -0.0009
 1078CHOL    R4 9722   6.901  15.349   5.972 -0.0867  0.0471  0.0910
 1078CHOL    R5 9723   6.829  15.149   5.925  0.2973 -0.0937  0.0597
 1078CHOL    C1 9724   6.709  15.179   6.286  0.0599 -0.2921  0.0008
 1078CHOL    C2 9725   6.655  15.116   6.671 -0.0777 -0.3703 -0.0755
 1079XCA    COO 9726  13.083  10.626   8.447  0.2177  0.0055  0.2016
 1079XCA     C1 9727  13.148  10.302   8.031  0.0297 -0.0599  0.0901
 1079XCA     C2 9728  12.850  10.375   7.718 -0.0513  0.0262  0.0440
 1079XCA     C3 9729  12.858  10.384   7.223 -0.2614 -0.1109 -0.1899
 1079XCA     C4 9730  12.531  10.620   6.959  0.1999 -0.0428  0.1930
 1079XCA     C5 9731  12.168  10.859   6.974  0.2225  0.0079 -0.0309
 1079XCA     C6 9732  11.862  11.156   7.094  0.3353 -0.1861 -0.2145
 1080PNCE   AM1 9733  12.946   9.438   4.638  0.0188 -0.0343  0.1064
 1080PNCE   AM2 9734  12.941   9.139   4.488  0.1176  0.0776 -0.1622
 1080PNCE   T1A 9735  12.868   9.804   4.981  0.1795 -0.2459 -0.0813
 1080PNCE   C2A 9736  13.094  10.021   5.273  0.3103 -0.0519 -0.0164
 1080PNCE   C3A 9737  13.292  10.410   5.040 -0.1332  0.0929 -0.3105
 1080PNCE   C1B 9738  12.712   9.073   4.871  0.1895  0.3174 -0.1605
 1080PNCE   C2B 9739  12.578   8.904   5.302  0.2773  0.1403 -0.0728
 1080PNCE   C3B 9740  12.569   8.834   5.745  0.4417  0.0922 -0.0521
 1080PNCE   D4B 9741  12.715   8.745   6.189  0.0346  0.1586 -0.1610
 1080PNCE   C5B 9742  12.747   8.557   6.550 -0.0641  0.1981 -0.1657
 1080PNCE   C6B 9743  12.394   8.553   6.761  0.1632  0.1155  0.1949
 1081CHOL   ROH 9744   9.455  13.053   4.387 -0.1196 -0.1183  0.1996
 1081CHOL    R1 9745   9.595  12.979   4.622  0.0116  0.0655  0.1801
 1081CHOL    R2 9746   9.709  12.729   4.654  0.1384  0.1387  0.2594
 1081CHOL    R3 9747   9.934  12.874   4.705  0.0967  0.2649  0.1003
 1081CHOL    R4 9748  10.010  12.596   4.759  0.2690  0.3000  0.0989
 1081CHOL    R5 9749  10.032  12.765   4.895  0.2642  0.3383  0.0631
 1081CHOL    C1 9750  10.396  12.654   4.869  0.3061  0.5124 -0.1439
 1081CHOL    C2 9751  10.586  12.720   5.135 -0.1405 -0.1697 -0.0028
 1082PNCE   AM1 9752  11.738  13.202   3.517  0.0215  0.1942  0.0898
 1082PNCE   AM2 9753  11.675  12.925   3.720 -0.0396  0.0190  0.1349
 1082PNCE   T1A 9754  11.962  13.362   3.915 -0.0723  0.0333  0.0775
 1082PNCE   C2A 9755  12.282  13.571   4.242  0.1279 -0.2777  0.0715
 1082PNCE   C3A 9756  12.530  13.326   4.596 -0.2110 -0.2768  0.1203
 1082PNCE   C1B 9757  11.902  12.909   4.134 -0.0169 -0.2628 -0.3173
 1082PNCE   C2B 9758  11.729  12.729   4.541 -0.2842 -0.1402  0.2734
 1082PNCE   C3B 9759  11.603  12.485   4.921  0.1807 -0.2223 -0.1708
 1082PNCE   D4B 9760  11.410  12.448   5.319 -0.0211 -0.1094  0.1097
 1082PNCE   C5B 9761  11.305  12.383   5.715  0.0892  0.5191  0.3181
 1082PNCE   C6B 9762  11.132  12.204   6.074 -0.0342  0.3287  0.0661
 1083CHOL   ROH 9763   3.262   2.251   4.026 -0.0649  0.2862  0.0587
 1083CHOL    R1 9764   3.401   2.279   4.271 -0.0988  0.2698  0.0794
 1083CHOL    R2 9765   3.288   2.212   4.515 -0.0605  0.0587  0.0394
 1083CHOL    R3 9766   3.511   2.058   4.539  0.0590  0.2180 -0.0260
 1083CHOL    R4 9767   3.460   2.156   4.810 -0.1111 -0.0561  0.0483
 1083CHOL    R5 9768   3.647   2.174   4.699 -0.0860  0.1935  0.1191
 1083CHOL    C1 9769   3.770   1.980   5.004 -0.0285  0.0266 -0.0078
 1083CHOL    C2 9770   3.867   1.616   5.169 -0.0299 -0.1365  0.1689
 1084XCA    COO 9771   2.953   4.705   4.862  0.1659  0.0578  0.0375
 1084XCA     C1 9772   3.207   4.756   5.218  0.1083  0.3548 -0.1774
 1084XCA     C2 9773   3.198   4.533   5.651 -0.2896  0.0510 -0.1260
 1084XCA     C3 9774   3.036   4.272   5.969  0.1725 -0.1930  0.2233
 1084XCA     C4 9775   3.170   3.753   6.076 -0.3328 -0.0903  0.0330
 1084XCA     C5 9776   3.404   3.374   5.938 -0.0370 -0.0886  0.2407
 1084XCA     C6 9777   3.454   3.111   5.540  0.1996  0.0342  0.1551
 1085PNCE   AM1 9778   1.508   1.153   3.543 -0.1908  0.0393 -0.0643
 1085PNCE   AM2 9779   1.720   1.424   3.604 -0.0642 -0.3372  0.0571
 1085PNCE   T1A 9780   1.779   0.900   3.732 -0.1686  0.0853  0.0375
 1085PNCE   C2A 9781   1.968   0.738   4.077 -0.0260  0.2267  0.3029
 1085PNCE   C3A 9782   2.464   0.482   4.054  0.1996  0.0435 -0.2438
 1085PNCE   C1B 9783   1.662   1.545   4.070 -0.2310  0.0883  0.1627
 1085PNCE   C2B 9784   1.322   1.471   4.348  0.1950  0.1148 -0.0523
 1085PNCE   C3B 9785   0.924   1.509   4.537 -0.0490  0.1392  0.0265
 1085PNCE   D4B 9786   0.461   1.554   4.543  0.0778 -0.1074 -0.1701
 1085PNCE   C5B 9787   0.171   1.898   4.576  0.0893 -0.3795 -0.1554
 1085PNCE   C6B 9788  -0.139   2.058   4.503 -0.2846 -0.1223  0.1203
 1086PNCE   AM1 9789  11.450  12.393   4.209 -0.0132 -0.3638 -0.0364
 1086PNCE   AM2 9790  11.276  12.535   3.960  0.1754  0.0660  0.2354
 1086PNCE   T1A 9791  11.213  12.239   4.576 -0.1282  0.3657  0.0042
 1086PNCE   C2A 9792  11.227  11.951   4.925  0.1879 -0.1111  0.2203
 1086PNCE   C3A 9793  11.032  11.929   5.418 -0.0933  0.2923 -0.0290
 1086PNCE   C1B 9794  11.263  12.906   4.141  0.1727 -0.1741 -0.0554
 1086PNCE   C2B 9795  11.129  13.187   4.439  0.2127  0.1162 -0.3590
 1086PNCE   C3B 9796  11.422  13.448   4.789 -0.0871  0.0637 -0.1278
 1086PNCE   D4B 9797  11.715  13.489   5.050  0.1356  0.0400  0.0277
 1086PNCE   C5B 9798  11.638  13.353   5.454  0.3316  0.0458  0.0512
 1086PNCE   C6B 9799  11.669  13.205   5.895  0.0557  0.1839 -0.3048
 1087CHOL   ROH 9800  14.765   8.850   8.155  0.1121 -0.0322 -0.0476
 1087CHOL    R1 9801  14.883   8.797   7.903 -0.0398  0.0088 -0.1284
 1087CHOL    R2 9802  15.125   8.668   7.877  0.0540  0.2086 -0.2869
 1087CHOL    R3 9803  14.983   8.501   7.715  0.0637  0.0478 -0.1334
 1087CHOL    R4 9804  15.226   8.562   7.563 -0.0820  0.1548 -0.3138
 1087CHOL    R5 9805  15.021   8.586   7.495 -0.1405 -0.0139 -0.1911
 1087CHOL    C1 9806  15.151   8.345   7.229 -0.1520 -0.0275 -0.1854
 1087CHOL    C2 9807  15.220   8.290   6.767 -0.0722 -0.0194 -0.4264
 1088CHOL   ROH 9808   3.687   3.027   4.217  0.2418  0.0055 -0.0417
 1088CHOL    R1 9809   3.649   2.896   4.465  0.1753 -0.0059 -0.0574
 1088CHOL    R2 9810   3.413   2.914   4.607  0.2089  0.1628 -0.0149
 1088CHOL    R3 9811   3.425   2.642   4.598 -0.0122  0.1536 -0.0669
 1088CHOL    R4 9812   3.226   2.702   4.806 -0.0604  0.2665 -0.1525
 1088CHOL    R5 9813   3.402   2.575   4.827 -0.1775  0.1172 -0.0950
 1088CHOL    C1 9814   3.128   2.324   4.914 -0.4248  0.3182 -0.2815
 1088CHOL    C2 9815   2.712   2.231   5.186 -0.0775  0.4619  0.4274
 1089XCA    COO 9816  14.561  13.257   7.456 -0.0912 -0.0075  0.2225
 1089XCA     C1 9817  14.545  13.107   7.067 -0.2092 -0.0568 -0.3773
 1089XCA     C2 9818  14.543  12.849   6.685 -0.0683 -0.1499  0.0934
 1089XCA     C3 9819  14.723  12.570   6.361  0.0990  0.3432 -0.1619
 1089XCA     C4 9820  14.802  12.188   6.223  0.0504 -0.1906  0.0257
 1089XCA     C5 9821  15.085  12.065   5.995  0.0489 -0.1855  0.0109
 1089XCA     C6 9822  15.456  12.264   5.967  0.5613 -0.2511 -0.3151
 1090CHOL   ROH 9823   8.933   8.125   8.673  0.0239  0.3617  0.0859
 1090CHOL    R1 9824   8.856   8.308   8.471  0.1191  0.2846 -0.0209
 1090CHOL    R2 9825   8.960   8.298   8.215  0.0687  0.0427 -0.0328
 1090CHOL    R3 9826   8.697   8.289   8.144  0.0492  0.1834  0.0178
 1090CHOL    R4 9827   8.841   8.309   7.890  0.0220  0.0181 -0.0167
 1090CHOL    R5 9828   8.680   8.438   7.958  0.1117  0.1404 -0.0252
 1090CHOL    C1 9829   8.526   8.306   7.635 -0.0236  0.1358  0.0402
 1090CHOL    C2 9830   8.271   8.413   7.257  0.0119  0.0501  0.0440
 1091XCA    COO 9831   0.899  13.588   4.297  0.0611 -0.0408  0.2667
 1091XCA     C1 9832   0.982  13.872   4.693  0.0912 -0.0277  0.4146
 1091XCA     C2 9833   0.927  13.842   5.187  0.0456  0.1465 -0.2532
 1091XCA     C3 9834   0.954  14.093   5.616  0.0320  0.0911  0.0205
 1091XCA     C4 9835   1.073  14.475   5.792 -0.1053 -0.0863 -0.1527
 1091XCA     C5 9836   1.180  14.876   6.039 -0.0649 -0.3770  0.0144
 1091XCA     C6 9837   1.245  14.929   6.470 -0.0503  0.1285  0.0977
 1092CHOL   ROH 9838   4.669   5.362   9.240  0.1289  0.1244 -0.0374
 1092CHOL    R1 9839   4.591   5.246   8.994 -0.0269  0.1377  0.0031
 1092CHOL    R2 9840   4.456   5.387   8.798  0.0096  0.2039  0.0143
 1092CHOL    R3 9841   4.660   5.302   8.641 -0.0906  0.0360 -0.0236
 1092CHOL    R4 9842   4.423   5.280   8.471 -0.1447  0.0928  0.0665
 1092CHOL    R5 9843   4.567   5.122   8.513 -0.2187  0.0394  0.0754
 1092CHOL    C1 9844   4.596   5.137   8.133 -0.3286 -0.1294  0.0613
 1092CHOL    C2 9845   4.815   5.180   7.801  0.1455  0.1490 -0.0739
 1093XCA    COO 9846   9.896  13.330   8.851  0.0793  0.2697 -0.0972
 1093XCA     C1 9847   9.977  13.434   8.339  0.0503 -0.2120  0.2354
 1093XCA     C2 9848  10.001  13.413   7.866 -0.2470 -0.3158 -0.0556
 1093XCA     C3 9849   9.919  13.233   7.405 -0.0514 -0.0159  0.2226
 1093XCA     C4 9850   9.661  13.181   6.994 -0.1586 -0.2091  0.3027
 1093XCA     C5 9851   9.777  13.200   6.568  0.1116  0.4902 -0.1498
 1093XCA     C6 9852  10.132  13.232   6.346  0.2155  0.2484  0.2125
 1094PNCE   AM1 9853  11.070   6.040   4.635  0.2614  0.1364 -0.1889
 1094PNCE   AM2 9854  11.307   5.745   4.755  0.0456  0.1186 -0.0886
 1094PNCE   T1A 9855  11.337   6.202   4.845 -0.2202  0.0291 -0.0777
 1094PNCE   C2A 9856  11.709   6.223   5.032 -0.1477  0.0056 -0.1079
 1094PNCE   C3A 9857  11.985   6.572   5.284 -0.1384  0.1604 -0.0715
 1094PNCE   C1B 9858  11.408   5.709   5.165 -0.0406 -0.2670  0.0317
 1094PNCE   C2B 9859  11.636   5.374   5.380 -0.0808 -0.1061  0.2221
 1094PNCE   C3B 9860  11.616   5.052   5.647  0.3803 -0.1413 -0.3544
 1094PNCE   D4B 9861  11.871   5.066   6.019 -0.0520  0.2570  0.2617
 1094PNCE   C5B 9862  11.625   4.982   6.351 -0.0784 -0.1883 -0.1148
 1094PNCE   C6B 9863  11.539   5.159   6.752 -0.2109  0.2195 -0.1351
 1095XCA    COO 9864  15.421   4.893   4.178  0.0250 -0.0735 -0.1261
 1095XCA     C1 9865  15.035   5.068   4.349  0.2845  0.0820  0.1597
 1095XCA     C2 9866  14.825   5.470   4.567  0.0692 -0.2274  0.1754
 1095XCA     C3 9867  14.715   5.369   4.980 -0.1605 -0.2916  0.0635
 1095XCA     C4 9868  14.497   5.389   5.280  0.0235  0.2655  0.0935
 1095XCA     C5 9869  14.295   5.750   5.476 -0.3127 -0.0001  0.1523
 1095XCA     C6 9870  13.903   5.876   5.664  0.2294 -0.0192 -0.0320
 1096XCA    COO 9871  12.917   7.432   3.922  0.2187 -0.2633 -0.2876
 1096XCA     C1 9872  13.092   7.386   4.454  0.1386 -0.3496 -0.0427
 1096XCA     C2 9873  12.966   7.171   4.789 -0.3372  0.0408 -0.0133
 1096XCA     C3 9874  12.753   7.065   5.152  0.2560  0.1519  0.5067
 1096XCA     C4 9875  12.537   6.696   5.102  0.0190 -0.0882 -0.0520
 1096XCA     C5 9876  12.476   6.427   5.400 -0.1917  0.1928  0.1850
 1096XCA     C6 9877  12.725   6.179   5.561 -0.4104 -0.1832 -0.1838
 1097PNCE   AM1 9878   6.152  13.275   5.267  0.0027  0.3061  0.0434
 1097PNCE   AM2 9879   5.811  13.426   5.061 -0.3099 -0.1841 -0.1284
 1097PNCE   T1A 9880   5.999  13.381   5.619 -0.0298  0.3277 -0.3841
 1097PNCE   C2A 9881   6.031  13.506   5.925 -0.0113  0.4728  0.1015
 1097PNCE   C3A 9882   6.015  13.656   6.318  0.2888  0.0774 -0.3527
 1097PNCE   C1B 9883   5.846  13.773   5.377  0.0458  0.1911  0.0465
 1097PNCE   C2B 9884   5.681  13.813   5.870 -0.1835 -0.0326 -0.1954
 1097PNCE   C3B 9885   5.696  14.111   6.235 -0.0074 -0.0850  0.3329
 1097PNCE   D4B 9886   5.432  14.407   6.434 -0.0500  0.0030 -0.0703
 1097PNCE   C5B 9887   5.402  14.466   6.898 -0.0729 -0.0227 -0.0225
 1097PNCE   C6B 9888   5.492  14.827   7.190 -0.0820 -0.3080 -0.2306
 1098PNCE   AM1 9889   6.585  12.383   5.476  0.2851  0.4617  0.1037
 1098PNCE   AM2 9890   6.736  12.106   5.408 -0.1745 -0.0843 -0.3289
 1098PNCE   T1A 9891   6.405  12.615   5.886  0.1835  0.0068 -0.0569
 1098PNCE   C2A 9892   6.127  12.837   6.154 -0.1873  0.2448 -0.2057
 1098PNCE   C3A 9893   5.961  13.046   6.615 -0.0874  0.0983  0.1593
 1098PNCE   C1B 9894   6.493  11.987   5.742 -0.2817 -0.0511  0.0629
 1098PNCE   C2B 9895   6.121  12.093   5.912 -0.1318 -0.1203 -0.1786
 1098PNCE   C3B 9896   5.706  12.165   6.145 -0.1777  0.0830  0.2053
 1098PNCE   D4B 9897   5.419  12.255   6.451 -0.0172  0.0994  0.0507
 1098PNCE   C5B 9898   5.372  11.964   6.777  0.2244  0.1011  0.0285
 1098PNCE   C6B 9899   5.222  11.895   7.184  0.0753 -0.1325 -0.1500
 1099PNCE   AM1 9900   3.209   6.187   5.338  0.1930 -0.0069 -0.1547
 1099PNCE   AM2 9901   3.490   5.985   5.523 -0.0845 -0.1111  0.1347
 1099PNCE   T1A 9902   3.266   6.410   5.779 -0.2623  0.0469  0.2122
 1099PNCE   C2A 9903   3.342   6.408   6.227 -0.1130 -0.2453  0.1015
 1099PNCE   C3A 9904   3.281   6.293   6.609  0.0160  0.1236  0.0855
 1099PNCE   C1B 9905   3.590   5.985   5.960 -0.1317  0.0146  0.0036
 1099PNCE   C2B 9906   3.634   5.957   6.410  0.3241  0.1959  0.3142
 1099PNCE   C3B 9907   3.599   5.854   6.871 -0.3554  0.2062  0.1138
 1099PNCE   D4B 9908   3.671   5.465   7.121 -0.2461  0.0826 -0.0225
 1099PNCE   C5B 9909   3.663   5.006   6.890 -0.0883  0.0851 -0.1593
 1099PNCE   C6B 9910   3.793   4.724   6.590 -0.4318 -0.0275 -0.2405
 1100CHOL   ROH 9911   1.823   1.989   6.333 -0.0266  0.0765  0.1075
 1100CHOL    R1 9912   1.727   2.195   6.164 -0.0384  0.0552  0.0885
 1100CHOL    R2 9913   1.887   2.403   6.077 -0.0775  0.1121  0.1521
 1100CHOL    R3 9914   1.805   2.320   5.831  0.0284  0.0992  0.1206
 1100CHOL    R4 9915   1.841   2.610   5.804  0.3847  0.0503  0.0182
 1100CHOL    R5 9916   1.662   2.496   5.754  0.2913  0.2340 -0.0764
 1100CHOL    C1 9917   1.737   2.653   5.415  0.7532  0.0023 -0.0895
 1100CHOL    C2 9918   1.743   2.966   5.437  0.0281  0.4273  0.0085
 1101XCA    COO 9919   8.976  12.710   4.553  0.0268 -0.0126 -0.4768
 1101XCA     C1 9920   9.260  12.711   4.829 -0.0214  0.0513 -0.0770
 1101XCA     C2 9921   9.595  12.928   5.082 -0.3150 -0.1688 -0.4226
 1101XCA     C3 9922   9.754  13.382   5.126  0.0955  0.0963 -0.1985
 1101XCA     C4 9923   9.871  13.756   4.871  0.2215  0.0928  0.2175
 1101XCA     C5 9924   9.852  14.146   4.573  0.0296 -0.0535 -0.0719
 1101XCA     C6 9925   9.604  14.508   4.476  0.3792  0.2284 -0.1023
 1102PNCE   AM1 9926   9.347  11.231   5.847  0.1864 -0.1443  0.1167
 1102PNCE   AM2 9927   8.985  11.179   5.758 -0.1494  0.0366  0.1697
 1102PNCE   T1A 9928   9.645  11.360   6.154 -0.1423  0.0121 -0.1502
 1102PNCE   C2A 9929   9.851  11.600   6.480  0.4085 -0.0118  0.0642
 1102PNCE   C3A 9930   9.988  11.205   6.710  0.0304 -0.1530  0.0567
 1102PNCE   C1B 9931   8.985  11.246   6.172  0.2336 -0.2252 -0.2171
 1102PNCE   C2B 9932   8.890  10.952   6.583 -0.2138  0.2520  0.1316
 1102PNCE   C3B 9933   9.006  11.128   6.992 -0.0412  0.0302  0.1481
 1102PNCE   D4B 9934   8.913  11.559   7.197  0.1531  0.2386 -0.2269
 1102PNCE   C5B 9935   8.583  11.656   7.470 -0.2261  0.0242  0.2783
 1102PNCE   C6B 9936   8.325  11.339   7.638  0.1439 -0.1342 -0.0260
 1103CHOL   ROH 9937   6.410   6.635   5.421 -0.0273  0.2292  0.0988
 1103CHOL    R1 9938   6.472   6.752   5.671  0.0141  0.2020  0.1013
 1103CHOL    R2 9939   6.327   6.699   5.900  0.0110  0.2289  0.1044
 1103CHOL    R3 9940   6.571   6.635   6.001 -0.0011  0.1619  0.0920
 1103CHOL    R4 9941   6.426   6.753   6.227  0.0044  0.1055  0.1275
 1103CHOL    R5 9942   6.622   6.814   6.152  0.0163  0.1052  0.1552
 1103CHOL    C1 9943   6.712   6.724   6.512 -0.0108 -0.0293  0.1293
 1103CHOL    C2 9944   6.749   6.528   6.823 -0.0382 -0.0745 -0.1335
 1104XCA    COO 9945   7.890   9.507   8.922  0.0404 -0.0257  0.0713
 1104XCA     C1 9946   7.640   9.260   8.806 -0.2167 -0.1018  0.1750
 1104XCA     C2 9947   7.403   9.316   8.504  0.3672 -0.1490 -0.0139
 1104XCA     C3 9948   7.179   9.565   8.224  0.0604 -0.2027  0.1807
 1104XCA     C4 9949   7.106   9.636   7.830 -0.2090 -0.0304 -0.2862
 1104XCA     C5 9950   7.116   9.485   7.508  0.1831 -0.0982 -0.0284
 1104XCA     C6 9951   7.446   9.331   7.199  0.2674  0.1592 -0.2063
 1105CHOL   ROH 9952  11.453   3.045   8.244 -0.0450  0.1121 -0.1062
 1105CHOL    R1 9953  11.464   2.851   8.039 -0.1007  0.1256 -0.1229
 1105CHOL    R2 9954  11.394   2.906   7.777 -0.0320  0.1828 -0.1320
 1105CHOL    R3 9955  11.642   2.808   7.725 -0.0672  0.0748 -0.0962
 1105CHOL    R4 9956  11.490   2.759   7.479 -0.1132 -0.0736 -0.0339
 1105CHOL    R5 9957  11.602   2.612   7.594 -0.1373 -0.0151  0.0608
 1105CHOL    C1 9958  11.779   2.582   7.257 -0.1934 -0.3244  0.0568
 1105CHOL    C2 9959  11.921   2.651   6.928  0.2185  0.0680  0.0921
 1106PNCE   AM1 9960   7.845  12.137   6.204 -0.2461 -0.1022  0.1210
 1106PNCE   AM2 9961   7.990  12.358   6.159  0.1621  0.0277  0.0705
 1106PNCE   T1A 9962   7.897  11.752   6.521 -0.1149  0.0773 -0.0857
 1106PNCE   C2A 9963   7.822  11.637   6.865  0.0426  0.2083 -0.2159
 1106PNCE   C3A 9964   8.038  11.618   7.302  0.3706 -0.2701 -0.0799
 1106PNCE   C1B 9965   7.635  12.638   6.312 -0.0872  0.3563 -0.1754
 1106PNCE   C2B 9966   7.399  12.759   6.628 -0.1065  0.2647 -0.2788
 1106PNCE   C3B 9967   7.264  13.028   6.900 -0.0431 -0.0970  0.2257
 1106PNCE   D4B 9968   6.894  13.367   7.117  0.0079 -0.0077  0.1586
 1106PNCE   C5B 9969   6.839  13.475   7.604  0.1706  0.4582  0.2930
 1106PNCE   C6B 9970   6.567  13.164   7.853 -0.1190 -0.1743  0.2854
 1107CHOL   ROH 9971   4.122   6.423   5.450  0.1376 -0.0967  0.1469
 1107CHOL    R1 9972   4.181   6.659   5.595 -0.1001 -0.0058  0.1001
 1107CHOL    R2 9973   3.987   6.804   5.727 -0.2190 -0.3006  0.2622
 1107CHOL    R3 9974   4.153   6.771   5.940  0.0123 -0.0563  0.1258
 1107CHOL    R4 9975   3.985   7.000   6.012 -0.3136 -0.3405  0.2891
 1107CHOL    R5 9976   4.203   6.993   6.012 -0.2974  0.0206  0.1131
 1107CHOL    C1 9977   4.140   7.082   6.378 -0.1516 -0.1345  0.1769
 1107CHOL    C2 9978   4.361   7.243   6.738  0.0470  0.0727 -0.1455
 1108CHOL   ROH 9979   0.153  15.591   8.302  0.2220 -0.1484 -0.2711
 1108CHOL    R1 9980   0.011  15.635   8.060  0.0647  0.0555 -0.1472
 1108CHOL    R2 9981  -0.119  15.872   8.005  0.0725  0.1332  0.1077
 1108CHOL    R3 9982   0.033  15.865   7.779 -0.0733  0.2542  0.0061
 1108CHOL    R4 9983  -0.210  16.012   7.702 -0.1328  0.2311  0.2137
 1108CHOL    R5 9984  -0.127  15.837   7.602 -0.1670  0.2966  0.0940
 1108CHOL    C1 9985  -0.121  16.087   7.314 -0.3892  0.4015  0.1800
 1108CHOL    C2 9986  -0.148  16.298   7.016  0.1075 -0.1267  0.0454
 1109CHOL   ROH 9987  10.448   7.558   8.529 -0.2411 -0.1755 -0.0313
 1109CHOL    R1 9988  10.333   7.560   8.271 -0.3124  0.0585  0.0005
 1109CHOL    R2 9989  10.258   7.794   8.144  0.1268  0.2216  0.0223
 1109CHOL    R3 9990  10.417   7.699   7.945 -0.1146 -0.1107 -0.0222
 1109CHOL    R4 9991  10.215   7.862   7.808  0.1372  0.2502  0.0266
 1109CHOL    R5 9992  10.266   7.655   7.764 -0.2656  0.1421  0.0374
 1109CHOL    C1 9993  10.341   7.813   7.425 -0.0834 -0.0450 -0.0126
 1109CHOL    C2 9994  10.320   8.056   7.099 -0.0653  0.5670 -0.1737
 1110PNCE   AM1 9995   6.380  10.963   5.007 -0.0928 -0.2265 -0.0852
 1110PNCE   AM2 9996   6.178  10.806   4.844  0.0292 -0.0130  0.0474
 1110PNCE   T1A 9997   6.249  11.149   5.401  0.1665 -0.0865  0.0988
 1110PNCE   C2A 9998   6.060  11.145   5.858 -0.0091  0.2337  0.0528
 1110PNCE   C3A 9999   5.694  11.020   5.972 -0.0157  0.0634  0.0749
 1110PNCE   C1B10000   5.862  10.605   5.002  0.0993 -0.2836 -0.0767
 1110PNCE   C2B10001   5.637  10.428   5.403 -0.2160  0.4408  0.0033
 1110PNCE   C3B10002   5.758  10.333   5.750  0.0166 -0.2143 -0.2028
 1110PNCE   D4B10003   5.547  10.505   6.008  0.0669 -0.0542 -0.3024
 1110PNCE   C5B10004   5.324  10.147   6.108 -0.1137 -0.3658  0.0086
 1110PNCE   C6B10005   5.017   9.910   6.292  0.1993 -0.2470 -0.4502
 1111XCA    COO10006   1.421   0.572   8.225  0.1260  0.2125  0.2318
 1111XCA     C110007   1.182   0.546   7.888  0.0392 -0.0003  0.1160
 1111XCA     C210008   0.948   0.561   7.576 -0.1693 -0.1591 -0.1124
 1111XCA     C310009   0.642   0.630   7.245  0.0838 -0.3540  0.1399
 1111XCA     C410010   0.690   0.743   6.828  0.0055 -0.1139  0.1693
 1111XCA     C510011   0.877   1.064   6.524  0.0969 -0.0689  0.1912
 1111XCA     C610012   0.670   1.465   6.309  0.1077  0.0235 -0.1527
 1112CHOL   ROH10013   9.877  11.850   4.971  0.2030  0.2478 -0.0321
 1112CHOL    R110014   9.830  11.904   5.245  0.1256  0.1325 -0.0230
 1112CHOL    R210015  10.033  11.969   5.421  0.0704  0.0815  0.0536
 1112CHOL    R310016   9.877  12.186   5.471  0.0361  0.0466  0.1059
 1112CHOL    R410017  10.050  12.163   5.707  0.1844  0.1350  0.0124
 1112CHOL    R510018   9.832  12.174   5.706  0.1769  0.0723  0.1372
 1112CHOL    C110019   9.913  12.479   5.920  0.2187  0.1334  0.0374
 1112CHOL    C210020   9.993  12.878   6.043  0.1106  0.3061 -0.0350
 1113CHOL   ROH10021   2.883  14.733   8.238  0.0549 -0.1949  0.0708
 1113CHOL    R110022   2.832  14.646   7.974  0.1888  0.0032 -0.0228
 1113CHOL    R210023   2.576  14.607   7.877  0.2409 -0.2888 -0.0597
 1113CHOL    R310024   2.659  14.777   7.681 -0.0143  0.0531  0.1187
 1113CHOL    R410025   2.438  14.627   7.560  0.1644 -0.0928 -0.0155
 1113CHOL    R510026   2.639  14.649   7.479  0.1201  0.2652 -0.0289
 1113CHOL    C110027   2.436  14.798   7.193 -0.1197  0.3423  0.1778
 1113CHOL    C210028   2.292  14.946   6.815 -0.2131 -0.2191  0.1042
 1114XCA    COO10029   3.195  14.218   8.536 -0.0668  0.1115 -0.1062
 1114XCA     C110030   3.005  14.216   8.109 -0.0833  0.1928 -0.0076
 1114XCA     C210031   2.830  14.292   7.676 -0.2963 -0.1079 -0.1174
 1114XCA     C310032   2.502  14.217   7.306 -0.1435  0.0464  0.0060
 1114XCA     C410033   2.199  14.353   7.044  0.1740 -0.2192 -0.2476
 1114XCA     C510034   2.176  14.440   6.705 -0.0763 -0.1330 -0.2086
 1114XCA     C610035   2.061  14.289   6.295  0.0848 -0.0279  0.0336
 1115CHOL   ROH10036  12.732   6.482   4.209 -0.1874  0.1417  0.0474
 1115CHOL    R110037  12.771   6.331   4.445 -0.0447  0.1823  0.0498
 1115CHOL    R210038  12.716   6.430   4.697 -0.1306  0.1380  0.0450
 1115CHOL    R310039  12.564   6.205   4.717  0.0737 -0.0030  0.0578
 1115CHOL    R410040  12.675   6.243   4.985 -0.0889  0.2172  0.1031
 1115CHOL    R510041  12.688   6.062   4.864  0.1451  0.1747  0.1780
 1115CHOL    C110042  12.509   5.924   5.172  0.1270  0.1309  0.1488
 1115CHOL    C210043  12.273   5.868   5.441  0.0741 -0.1962 -0.0724
 1116XCA    COO10044  13.250   3.542   4.414  0.2484  0.0911  0.1654
 1116XCA     C110045  13.453   3.309   4.715  0.0925 -0.0548 -0.0420
 1116XCA     C210046  13.484   2.941   4.928  0.1323 -0.1901  0.3384
 1116XCA     C310047  13.518   2.576   5.214 -0.0289 -0.1251  0.0554
 1116XCA     C410048  13.715   2.238   5.373 -0.1384  0.3129 -0.0568
 1116XCA     C510049  13.786   2.020   5.719 -0.1150 -0.0346 -0.1491
 1116XCA     C610050  13.886   1.727   6.053 -0.3714  0.2196  0.1938
 1117PNCE   AM110051  14.746   6.094   4.085 -0.1950  0.0937 -0.1060
 1117PNCE   AM210052  14.741   5.850   3.837 -0.1568 -0.0741 -0.0138
 1117PNCE   T1A10053  14.800   6.015   4.537  0.0383  0.0625 -0.2665
 1117PNCE   C2A10054  14.852   5.843   4.953  0.1541  0.2187  0.3801
 1117PNCE   C3A10055  14.722   5.800   5.258  0.0958 -0.0731 -0.1932
 1117PNCE   C1B10056  14.332   5.740   4.065  0.1421  0.0525 -0.2002
 1117PNCE   C2B10057  13.948   5.839   4.186 -0.1187  0.1193  0.1247
 1117PNCE   C3B10058  13.582   5.766   4.351  0.0841  0.2200  0.2896
 1117PNCE   D4B10059  13.302   5.746   4.676 -0.1185  0.3707  0.1919
 1117PNCE   C5B10060  13.199   6.133   4.746  0.1198 -0.0419 -0.0043
 1117PNCE   C6B10061  13.067   6.509   5.075  0.1400  0.0316  0.1616
 1118PNCE   AM110062   5.010   0.378   4.765 -0.1228  0.1852 -0.0245
 1118PNCE   AM210063   5.215   0.501   4.533  0.0395  0.0322 -0.2956
 1118PNCE   T1A10064   4.875   0.464   5.177 -0.2004 -0.1274  0.0439
 1118PNCE   C2A10065   5.015   0.660   5.572 -0.2495 -0.0534  0.0067
 1118PNCE   C3A10066   5.134   0.853   5.965  0.0166  0.2693  0.3122
 1118PNCE   C1B10067   5.330   0.691   5.001 -0.2727  0.2524 -0.0479
 1118PNCE   C2B10068   5.172   1.023   5.287  0.2687 -0.1522  0.0325
 1118PNCE   C3B10069   5.010   1.301   5.409 -0.3361 -0.0645 -0.1467
 1118PNCE   D4B10070   4.777   1.766   5.589 -0.1791 -0.0106 -0.1656
 1118PNCE   C5B10071   4.617   2.139   5.549 -0.1971 -0.2056 -0.3283
 1118PNCE   C6B10072   4.492   2.499   5.327  0.0417 -0.1349  0.1160
 1119PNCE   AM110073   8.970   0.764   4.388  0.0805  0.0495 -0.1105
 1119PNCE   AM210074   9.202   0.565   4.300 -0.1679  0.0227 -0.0782
 1119PNCE   T1A10075   9.014   0.723   4.865 -0.0907 -0.1164  0.1755
 1119PNCE   C2A10076   9.241   0.530   5.193  0.2995 -0.2510 -0.2185
 1119PNCE   C3A10077   9.446   0.558   5.561 -0.1766 -0.0704 -0.0034
 1119PNCE   C1B10078   9.060   0.308   4.526 -0.0696 -0.1485  0.2183
 1119PNCE   C2B10079   8.945  -0.038   4.709 -0.0908  0.0322  0.0222
 1119PNCE   C3B10080   8.688  -0.435   4.844  0.0935 -0.0131 -0.0716
 1119PNCE   D4B10081   8.627  -0.906   4.905 -0.0585  0.0212  0.1203
 1119PNCE   C5B10082   8.813  -1.119   5.306 -0.0328  0.0992 -0.1716
 1119PNCE   C6B10083   8.769  -1.493   5.384  0.0074 -0.0901 -0.3041
 1120PNCE   AM110084   4.907  13.375   4.560 -0.0306 -0.3083 -0.1016
 1120PNCE   AM210085   4.591  13.253   4.839  0.0996 -0.1962  0.1130
 1120PNCE   T1A10086   4.986  13.495   5.026 -0.0202  0.1600  0.0342
 1120PNCE   C2A10087   4.951  13.357   5.475  0.0754  0.1455 -0.0103
 1120PNCE   C3A10088   4.747  13.126   5.701 -0.0914  0.1231 -0.2677
 1120PNCE   C1B10089   4.477  13.387   5.299  0.4729 -0.1087  0.1709
 1120PNCE   C2B10090   4.574  13.716   5.509  0.1107  0.3451  0.0434
 1120PNCE   C3B10091   4.767  13.776   5.982  0.2351  0.1777 -0.1211
 1120PNCE   D4B10092   4.931  13.407   6.109  0.1136 -0.1827 -0.2515
 1120PNCE   C5B10093   5.107  13.368   6.493  0.1782 -0.0438  0.0464
 1120PNCE   C6B10094   5.123  13.633   6.789  0.0352 -0.1796  0.0678
 1121PNCE   AM110095   0.175   9.250   5.518  0.1541  0.2300 -0.0641
 1121PNCE   AM210096   0.118   9.317   5.213 -0.0116  0.1318  0.0178
 1121PNCE   T1A10097   0.287   9.261   5.912  0.1255 -0.0069 -0.2973
 1121PNCE   C2A10098   0.428   9.027   6.200  0.4088  0.0411 -0.3068
 1121PNCE   C3A10099   0.651   8.942   6.666 -0.2955 -0.0532 -0.1269
 1121PNCE   C1B10100  -0.100   9.695   5.300 -0.0964 -0.4109  0.0313
 1121PNCE   C2B10101   0.024  10.075   5.402 -0.0534 -0.1881 -0.0415
 1121PNCE   C3B10102  -0.297  10.522   5.481 -0.2539 -0.0663 -0.1610
 1121PNCE   D4B10103  -0.645  10.753   5.687  0.0393  0.0428  0.2772
 1121PNCE   C5B10104  -0.505  11.177   5.962  0.1285 -0.0388  0.0233
 1121PNCE   C6B10105  -0.675  11.609   6.017 -0.4501  0.1967  0.2460
 1122CHOL   ROH10106  12.938  10.742   7.987  0.0918  0.0069 -0.0418
 1122CHOL    R110107  12.955  10.865   7.733 -0.0504  0.1148 -0.0012
 1122CHOL    R210108  13.048  10.732   7.509  0.1307  0.3020 -0.0456
 1122CHOL    R310109  12.811  10.811   7.403  0.0302  0.0386 -0.0225
 1122CHOL    R410110  13.007  10.863   7.192 -0.0525  0.2941 -0.0259
 1122CHOL    R510111  12.865  11.006   7.274 -0.2120  0.1162 -0.0035
 1122CHOL    C110112  12.761  11.013   6.907 -0.2537  0.0422  0.0072
 1122CHOL    C210113  12.849  11.283   6.660 -0.1130 -0.0978 -0.0027
 1123CHOL   ROH10114  14.894  13.697   4.376  0.1215  0.2159 -0.0124
 1123CHOL    R110115  14.866  13.510   4.587 -0.0290  0.1217 -0.1149
 1123CHOL    R210116  15.019  13.520   4.816  0.0994 -0.2275 -0.1823
 1123CHOL    R310117  14.776  13.521   4.939  0.1566  0.0250 -0.0626
 1123CHOL    R410118  14.970  13.479   5.156  0.2461  0.1217 -0.1141
 1123CHOL    R510119  14.797  13.354   5.111  0.1494  0.1715  0.0871
 1123CHOL    C110120  14.714  13.455   5.469  0.3851  0.5621  0.0380
 1123CHOL    C210121  14.795  13.452   5.850  0.0236 -0.1097  0.0864
 1124XCA    COO10122  13.834   2.612   7.994 -0.0605  0.1413  0.0598
 1124XCA     C110123  13.842   2.878   7.571 -0.0303  0.0268 -0.0418
 1124XCA     C210124  13.684   3.152   7.237 -0.3290  0.0529  0.0224
 1124XCA     C310125  13.599   3.293   6.851 -0.0742 -0.0989  0.1249
 1124XCA     C410126  13.553   3.554   6.425 -0.1764 -0.1290 -0.1067
 1124XCA     C510127  13.390   3.969   6.327 -0.1387 -0.1094  0.4812
 1124XCA     C610128  13.426   4.271   6.171  0.2881 -0.1385 -0.1942
 1125CHOL   ROH10129   8.214   6.586   9.083 -0.0808  0.4280 -0.2021
 1125CHOL    R110130   8.298   6.541   8.816  0.0216  0.3001 -0.1496
 1125CHOL    R210131   8.306   6.288   8.704  0.0804  0.2431 -0.0218
 1125CHOL    R310132   8.151   6.404   8.513  0.1431  0.1389 -0.1372
 1125CHOL    R410133   8.282   6.180   8.376  0.1629  0.0446  0.0362
 1125CHOL    R510134   8.281   6.389   8.313  0.1972  0.0055 -0.0922
 1125CHOL    C110135   8.122   6.226   8.006  0.2698 -0.1688 -0.0384
 1125CHOL    C210136   8.097   6.313   7.708  0.1085  0.0117  0.2181
 1126PNCE   AM110137   5.104   5.835   5.092 -0.1646 -0.3083 -0.2080
 1126PNCE   AM210138   5.030   6.155   5.119  0.0216 -0.0797 -0.5447
 1126PNCE   T1A10139   5.399   5.611   5.245 -0.2360 -0.0144 -0.2084
 1126PNCE   C2A10140   5.454   5.288   5.520  0.1766 -0.4308  0.2646
 1126PNCE   C3A10141   5.425   5.046   5.858 -0.0704 -0.4926  0.2167
 1126PNCE   C1B10142   5.201   5.916   5.593 -0.0944  0.0881  0.3423
 1126PNCE   C2B10143   5.264   5.768   6.015  0.2677  0.2602 -0.1791
 1126PNCE   C3B10144   4.992   5.769   6.457 -0.4690 -0.2600  0.1648
 1126PNCE   D4B10145   5.204   5.786   6.899  0.0096  0.1455 -0.1187
 1126PNCE   C5B10146   5.690   5.986   6.925 -0.0707 -0.1100  0.1558
 1126PNCE   C6B10147   5.869   6.273   7.254  0.1412  0.0631  0.1407
 1127CHOL   ROH10148  12.325   5.818   7.313  0.1134 -0.1600 -0.1135
 1127CHOL    R110149  12.110   5.650   7.238  0.0771 -0.1421 -0.0516
 1127CHOL    R210150  11.907   5.580   7.413  0.1496 -0.1709  0.0251
 1127CHOL    R310151  11.747   5.678   7.216  0.0683 -0.1288  0.1116
 1127CHOL    R410152  11.607   5.440   7.315  0.0783 -0.1109  0.1553
 1127CHOL    R510153  11.661   5.482   7.108 -0.0167 -0.1020  0.1353
 1127CHOL    C110154  11.282   5.450   7.073 -0.0395 -0.0364  0.3123
 1127CHOL    C210155  10.965   5.236   6.862 -0.0701  0.3462 -0.1659
 1128PNCE   AM110156  10.850   5.334   5.350  0.0787  0.2007 -0.0845
 1128PNCE   AM210157  10.663   5.567   5.182 -0.3543  0.2159 -0.0259
 1128PNCE   T1A10158  11.128   5.349   5.662 -0.1660  0.0473 -0.1173
 1128PNCE   C2A10159  11.322   5.303   6.073 -0.0091 -0.0811  0.0838
 1128PNCE   C3A10160  11.605   5.489   6.384 -0.3538  0.2246  0.0296
 1128PNCE   C1B10161  10.874   5.828   5.298  0.2442  0.0033 -0.3026
 1128PNCE   C2B10162  11.195   6.140   5.368  0.1718  0.2285 -0.1986
 1128PNCE   C3B10163  11.445   6.376   5.575  0.2653  0.1691 -0.3133
 1128PNCE   D4B10164  11.605   6.227   5.966 -0.3505 -0.0956 -0.2151
 1128PNCE   C5B10165  11.972   6.515   6.159  0.0273 -0.0360  0.0251
 1128PNCE   C6B10166  11.873   6.970   6.255 -0.1678 -0.0964  0.1842
 1129CHOL   ROH10167   2.196   9.894   5.485  0.0408 -0.0500  0.1497
 1129CHOL    R110168   2.288   9.850   5.749  0.0649 -0.0412  0.1420
 1129CHOL    R210169   2.364  10.057   5.916  0.0245 -0.0340  0.1449
 1129CHOL    R310170   2.183   9.945   6.085  0.0622 -0.0834  0.1545
 1129CHOL    R410171   2.393  10.051   6.260 -0.2023  0.4527  0.1816
 1129CHOL    R510172   2.315   9.847   6.258  0.0931  0.3264  0.3815
 1129CHOL    C110173   2.239   9.942   6.619 -0.2990  0.6896  0.2120
 1129CHOL    C210174   1.971  10.033   6.940 -0.3597  0.0902  0.0539
 1130PNCE   AM110175   0.937   7.804   5.082 -0.0614  0.0409 -0.1894
 1130PNCE   AM210176   0.723   7.881   5.305  0.0941  0.1654 -0.2922
 1130PNCE   T1A10177   0.782   7.408   5.357  0.1983  0.1849  0.0771
 1130PNCE   C2A10178   0.632   7.176   5.786  0.0223  0.0655  0.1513
 1130PNCE   C3A10179   0.461   7.061   6.134 -0.1212 -0.0612 -0.1721
 1130PNCE   C1B10180   0.708   7.755   5.698 -0.0391 -0.2268  0.0823
 1130PNCE   C2B10181   0.740   7.683   6.046  0.1002 -0.0436 -0.1384
 1130PNCE   C3B10182   0.472   7.462   6.425  0.1341 -0.0879 -0.2891
 1130PNCE   D4B10183   0.599   7.303   6.777  0.1771  0.1201 -0.1228
 1130PNCE   C5B10184   0.890   7.668   6.990  0.0806 -0.1375  0.1061
 1130PNCE   C6B10185   1.342   7.914   6.928 -0.1538 -0.0781  0.1114
 1131PNCE   AM110186   5.407   1.372   4.774 -0.2565  0.2236  0.1762
 1131PNCE   AM210187   5.627   1.509   4.534  0.3542  0.1436  0.0644
 1131PNCE   T1A10188   4.974   1.435   4.866  0.1769 -0.2959  0.3113
 1131PNCE   C2A10189   4.641   1.561   4.671 -0.1914  0.2438  0.1712
 1131PNCE   C3A10190   4.313   1.606   4.310 -0.3519  0.1902 -0.0859
 1131PNCE   C1B10191   5.610   1.782   4.947 -0.0595  0.2743 -0.2546
 1131PNCE   C2B10192   5.495   1.569   5.273  0.0214  0.0137  0.2295
 1131PNCE   C3B10193   5.357   1.622   5.664  0.3077 -0.1495 -0.4583
 1131PNCE   D4B10194   5.142   1.881   6.119 -0.1915  0.0776  0.0901
 1131PNCE   C5B10195   5.559   2.033   6.382 -0.0606  0.0278  0.0187
 1131PNCE   C6B10196   6.020   2.171   6.573 -0.0343 -0.2339  0.0638
 1132PNCE   AM110197  12.970  14.664   3.935 -0.1078  0.0591 -0.0242
 1132PNCE   AM210198  13.342  14.797   3.998  0.0532 -0.2578  0.0351
 1132PNCE   T1A10199  12.916  14.329   4.255  0.1936 -0.3993 -0.0360
 1132PNCE   C2A10200  12.768  14.265   4.652 -0.2031  0.1999 -0.5238
 1132PNCE   C3A10201  12.938  14.013   5.035 -0.4830  0.0407 -0.0076
 1132PNCE   C1B10202  13.486  15.011   4.443 -0.0715  0.2991 -0.3315
 1132PNCE   C2B10203  13.764  15.004   4.857 -0.1204  0.0907  0.1559
 1132PNCE   C3B10204  13.652  14.837   5.189  0.0861 -0.0944 -0.0565
 1132PNCE   D4B10205  13.621  14.591   5.535  0.3054  0.1784  0.1434
 1132PNCE   C5B10206  13.208  14.661   5.769  0.1451  0.0585  0.2543
 1132PNCE   C6B10207  12.902  14.929   5.664  0.0254  0.1072  0.2010
 1133PNCE   AM110208   3.954   8.056   5.283  0.0069  0.0923 -0.1810
 1133PNCE   AM210209   4.067   8.311   5.507  0.1380  0.2856  0.0143
 1133PNCE   T1A10210   4.040   7.682   5.577 -0.0610  0.0294  0.0610
 1133PNCE   C2A10211   4.214   7.541   5.959  0.1534 -0.0100 -0.1330
 1133PNCE   C3A10212   4.369   7.507   6.363 -0.1147  0.0860  0.0795
 1133PNCE   C1B10213   4.066   8.332   5.943 -0.0044  0.2012  0.0849
 1133PNCE   C2B10214   4.088   8.354   6.465 -0.1302 -0.1016 -0.0498
 1133PNCE   C3B10215   4.303   8.301   6.830 -0.1170 -0.1072 -0.1096
 1133PNCE   D4B10216   4.514   8.019   7.109  0.0554 -0.0660  0.5016
 1133PNCE   C5B10217   4.899   7.987   7.331  0.1129 -0.1416 -0.0388
 1133PNCE   C6B10218   5.355   8.026   7.411  0.0817  0.0607 -0.0812
 1134PNCE   AM110219   3.151   1.679   3.835 -0.3843 -0.1130  0.0367
 1134PNCE   AM210220   3.487   1.863   3.853 -0.1439  0.3202  0.1765
 1134PNCE   T1A10221   3.133   1.828   4.298  0.0467  0.1998  0.2255
 1134PNCE   C2A10222   3.260   1.666   4.614 -0.0393 -0.1921  0.1020
 1134PNCE   C3A10223   3.457   1.631   4.872 -0.1110  0.1458  0.2906
 1134PNCE   C1B10224   3.618   1.624   4.243 -0.2039 -0.0698  0.1295
 1134PNCE   C2B10225   3.859   1.630   4.590 -0.1785  0.2396 -0.1745
 1134PNCE   C3B10226   4.171   1.505   4.821  0.1102  0.2972  0.0250
 1134PNCE   D4B10227   4.435   1.506   5.128  0.1737 -0.4239 -0.0137
 1134PNCE   C5B10228   4.310   1.622   5.468 -0.0699  0.1147  0.0314
 1134PNCE   C6B10229   4.241   1.851   5.853 -0.2369 -0.0465 -0.0514
 1135CHOL   ROH10230  11.620   7.291   6.388 -0.0096  0.0642  0.1253
 1135CHOL    R110231  11.656   7.571   6.379 -0.0873  0.0719  0.0365
 1135CHOL    R210232  11.444   7.748   6.365 -0.1453  0.0168  0.1812
 1135CHOL    R310233  11.562   7.857   6.584  0.0163  0.0895  0.0592
 1135CHOL    R410234  11.368   8.058   6.497 -0.1562 -0.0047  0.2254
 1135CHOL    R510235  11.580   8.090   6.532 -0.1356  0.0925  0.0196
 1135CHOL    C110236  11.434   8.341   6.779 -0.0105  0.0509  0.1366
 1135CHOL    C210237  11.587   8.573   7.055 -0.1331  0.1548 -0.0814
 1136PNCE   AM110238  15.241   0.598   4.096  0.1180 -0.0545  0.4259
 1136PNCE   AM210239  15.441   0.769   4.171  0.0135  0.0175 -0.0275
 1136PNCE   T1A10240  15.200   0.660   4.601 -0.2923 -0.1308 -0.1041
 1136PNCE   C2A10241  15.347   0.447   4.911 -0.0476 -0.0827 -0.2242
 1136PNCE   C3A10242  15.341   0.348   5.364 -0.2201  0.0098  0.0259
 1136PNCE   C1B10243  15.641   0.880   4.509  0.0766  0.0859 -0.0337
 1136PNCE   C2B10244  15.720   0.792   4.914  0.2431 -0.1123 -0.0238
 1136PNCE   C3B10245  15.421   0.839   5.282  0.3494 -0.0625 -0.0396
 1136PNCE   D4B10246  15.071   1.087   5.416 -0.1907  0.1276 -0.0440
 1136PNCE   C5B10247  15.009   0.977   5.860  0.2430  0.1594  0.0192
 1136PNCE   C6B10248  15.273   0.874   6.227  0.0370  0.3831  0.1828
 1137CHOL   ROH10249  10.338   8.520   8.866  0.3117 -0.0850 -0.0470
 1137CHOL    R110250  10.235   8.518   8.603  0.3159 -0.1089 -0.0479
 1137CHOL    R210251  10.066   8.714   8.509  0.1268 -0.2463  0.0093
 1137CHOL    R310252  10.251   8.735   8.311  0.1078 -0.0071  0.0127
 1137CHOL    R410253  10.014   8.876   8.208  0.0838  0.1041  0.1997
 1137CHOL    R510254  10.123   8.715   8.108  0.0848  0.2197 -0.0012
 1137CHOL    C110255  10.158   8.990   7.847  0.0410  0.5325  0.3137
 1137CHOL    C210256  10.274   9.071   7.539 -0.0181 -0.0341 -0.0360
 1138PNCE   AM110257   1.660   2.968   4.522  0.2163 -0.1938 -0.0946
 1138PNCE   AM210258   1.517   2.899   4.247  0.1727  0.0002 -0.1126
 1138PNCE   T1A10259   1.611   2.726   4.987  0.0017 -0.0200 -0.1045
 1138PNCE   C2A10260   1.498   2.239   5.300  0.2170 -0.2364 -0.0045
 1138PNCE   C3A10261   1.426   2.004   5.704  0.0479 -0.1482  0.1942
 1138PNCE   C1B10262   1.249   2.768   4.660 -0.1014  0.1625  0.0858
 1138PNCE   C2B10263   1.151   2.370   4.898 -0.0935 -0.1628 -0.1949
 1138PNCE   C3B10264   0.852   2.333   5.143  0.1834  0.1503  0.0942
 1138PNCE   D4B10265   0.456   2.340   5.206  0.0800 -0.1002 -0.0145
 1138PNCE   C5B10266   0.226   2.349   4.779 -0.0101 -0.3521 -0.2790
 1138PNCE   C6B10267   0.398   2.288   4.339 -0.1768  0.1520  0.1772
 1139PNCE   AM110268   9.325   1.563   8.933  0.0425 -0.1272  0.1070
 1139PNCE   AM210269   9.647   1.671   8.932  0.2204 -0.0454 -0.0845
 1139PNCE   T1A10270   9.093   1.566   8.545  0.0469  0.0470  0.0982
 1139PNCE   C2A10271   9.025   1.909   8.306 -0.1870 -0.0542 -0.0860
 1139PNCE   C3A10272   8.875   2.254   8.346 -0.3224  0.2961 -0.2502
 1139PNCE   C1B10273   9.595   1.533   8.418 -0.0813  0.0840  0.3484
 1139PNCE   C2B10274   9.370   1.637   8.058 -0.1238 -0.5322 -0.0046
 1139PNCE   C3B10275   9.028   1.656   7.866  0.1675 -0.0909 -0.2463
 1139PNCE   D4B10276   8.702   1.580   7.612  0.1265  0.2023 -0.1500
 1139PNCE   C5B10277   8.388   1.416   7.843  0.1984  0.0298 -0.1422
 1139PNCE   C6B10278   8.386   1.096   8.126 -0.0581  0.2521  0.0633
 1140XCA    COO10279  11.114   6.889   4.517 -0.1271  0.1952 -0.0750
 1140XCA     C110280  11.008   7.081   4.864 -0.0025 -0.1641  0.1702
 1140XCA     C210281  11.156   7.208   5.199 -0.0130 -0.3152  0.0615
 1140XCA     C310282  11.355   7.143   5.575 -0.0238  0.1274 -0.0006
 1140XCA     C410283  11.437   7.236   5.966  0.0706 -0.2195  0.0682
 1140XCA     C510284  11.148   7.304   6.319  0.2159 -0.0664 -0.0076
 1140XCA     C610285  11.053   7.410   6.723  0.0877 -0.2174 -0.1224
 1141CHOL   ROH10286   6.939   4.464   4.659  0.0691  0.0546  0.0613
 1141CHOL    R110287   6.832   4.370   4.904  0.1041 -0.0109  0.0518
 1141CHOL    R210288   6.983   4.353   5.135  0.1195 -0.0091  0.0432
 1141CHOL    R310289   6.781   4.503   5.239  0.0862 -0.0758  0.0747
 1141CHOL    R410290   6.883   4.350   5.466 -0.0279 -0.2668 -0.0007
 1141CHOL    R510291   6.676   4.360   5.400  0.0028 -0.1972 -0.0852
 1141CHOL    C110292   6.636   4.489   5.756 -0.1450 -0.4795  0.0033
 1141CHOL    C210293   6.409   4.388   6.097 -0.2312 -0.0085 -0.1064
 1142PNCE   AM110294   7.243   3.486   4.251 -0.0498 -0.0682  0.0925
 1142PNCE   AM210295   7.060   3.186   4.367 -0.1920  0.3208 -0.0104
 1142PNCE   T1A10296   7.349   3.578   4.694  0.0163  0.2725 -0.1389
 1142PNCE   C2A10297   7.212   3.866   5.054 -0.1875  0.1795 -0.0350
 1142PNCE   C3A10298   6.779   3.910   5.228 -0.0923 -0.2509 -0.1322
 1142PNCE   C1B10299   6.939   3.265   4.738 -0.1004 -0.2745  0.5101
 1142PNCE   C2B10300   7.060   3.389   5.201  0.0654 -0.0434  0.0963
 1142PNCE   C3B10301   7.146   3.723   5.525  0.1249  0.1233 -0.4033
 1142PNCE   D4B10302   7.027   3.728   6.025 -0.0681  0.2651 -0.1275
 1142PNCE   C5B10303   6.668   3.781   6.149  0.0209  0.4931 -0.0189
 1142PNCE   C6B10304   6.359   3.857   6.379 -0.0922 -0.1318 -0.1767
 1143PNCE   AM110305   0.644   8.737   5.345 -0.0959  0.1677 -0.2728
 1143PNCE   AM210306   0.352   8.852   5.228  0.2326  0.1487  0.2380
 1143PNCE   T1A10307   0.707   9.058   5.729  0.2009 -0.1174 -0.1326
 1143PNCE   C2A10308   0.864   9.067   5.994 -0.1343 -0.4085 -0.2452
 1143PNCE   C3A10309   0.949   9.320   6.315  0.2267 -0.0349  0.3676
 1143PNCE   C1B10310   0.262   8.792   5.696 -0.0123  0.0743  0.0621
 1143PNCE   C2B10311   0.140   8.635   6.092  0.2058 -0.0955 -0.1222
 1143PNCE   C3B10312   0.265   8.538   6.576  0.0510  0.0181 -0.2490
 1143PNCE   D4B10313   0.389   8.383   7.034  0.1785 -0.1065 -0.0461
 1143PNCE   C5B10314   0.511   8.008   7.104 -0.3063 -0.0797  0.1495
 1143PNCE   C6B10315   0.324   7.665   6.978 -0.0898  0.1775  0.0729
 1144CHOL   ROH10316   0.195   7.227   8.149 -0.0405  0.1669 -0.0402
 1144CHOL    R110317   0.355   7.449   8.079  0.0622  0.0779 -0.0941
 1144CHOL    R210318   0.630   7.438   8.074  0.0610 -0.0598 -0.1303
 1144CHOL    R310319   0.597   7.530   7.820  0.0676 -0.0840 -0.1383
 1144CHOL    R410320   0.887   7.545   7.869  0.0211  0.2967 -0.0004
 1144CHOL    R510321   0.757   7.707   7.800 -0.1575  0.1291 -0.0496
 1144CHOL    C110322   1.006   7.693   7.511  0.0041  0.4815  0.0676
 1144CHOL    C210323   1.284   7.517   7.291 -0.0372 -0.2452  0.0290
 1145CHOL   ROH10324  12.078  12.440   8.120  0.0854 -0.0141 -0.1009
 1145CHOL    R110325  11.860  12.275   8.048  0.0698  0.0275 -0.1464
 1145CHOL    R210326  11.636  12.373   7.919  0.1307  0.0634 -0.2196
 1145CHOL    R310327  11.693  12.178   7.739  0.1345  0.0311 -0.1839
 1145CHOL    R410328  11.406  12.224   7.709  0.0934 -0.1009 -0.0644
 1145CHOL    R510329  11.503  12.033   7.746  0.1964 -0.0501 -0.0469
 1145CHOL    C110330  11.326  11.953   7.418  0.0753 -0.2270  0.0593
 1145CHOL    C210331  11.127  11.941   7.044 -0.1250  0.0417  0.1978
 1146PNCE   AM110332   1.493   3.420   4.273 -0.0338  0.0984  0.1249
 1146PNCE   AM210333   1.483   3.785   4.513  0.3440 -0.2013 -0.1896
 1146PNCE   T1A10334   1.851   3.429   4.617  0.0456  0.0815 -0.0085
 1146PNCE   C2A10335   1.950   3.145   4.940 -0.1711 -0.3511 -0.0656
 1146PNCE   C3A10336   2.216   2.797   5.111  0.0441 -0.1831 -0.1870
 1146PNCE   C1B10337   1.503   3.751   5.017  0.2379 -0.2210  0.2035
 1146PNCE   C2B10338   1.460   3.867   5.443 -0.3005  0.1052 -0.0041
 1146PNCE   C3B10339   1.107   3.767   5.819  0.1947 -0.0056  0.1788
 1146PNCE   D4B10340   0.684   3.676   6.092 -0.1135 -0.0915 -0.0363
 1146PNCE   C5B10341   0.509   4.124   6.182 -0.3425 -0.0600  0.0754
 1146PNCE   C6B10342   0.360   4.450   6.502 -0.0640  0.3811 -0.0258
 1147CHOL   ROH10343   6.766  12.788   7.116 -0.1803 -0.0140  0.0542
 1147CHOL    R110344   6.531  12.637   7.069 -0.1489 -0.0691  0.0822
 1147CHOL    R210345   6.491  12.491   6.837 -0.1721 -0.0146  0.0594
 1147CHOL    R310346   6.450  12.287   7.011 -0.0686 -0.0785  0.0124
 1147CHOL    R410347   6.381  12.176   6.749 -0.3017  0.0434  0.0081
 1147CHOL    R510348   6.255  12.176   6.927 -0.1629 -0.0052  0.1160
 1147CHOL    C110349   6.277  11.800   6.861 -0.2801  0.0171 -0.0659
 1147CHOL    C210350   6.163  11.469   6.706 -0.0038  0.0967 -0.0303
 1148CHOL   ROH10351  10.820   6.471   6.661 -0.0439  0.2062 -0.1629
 1148CHOL    R110352  11.082   6.514   6.561 -0.0597  0.1471 -0.2306
 1148CHOL    R210353  11.308   6.462   6.711 -0.0355  0.2444 -0.2321
 1148CHOL    R310354  11.376   6.310   6.496 -0.0677  0.1090 -0.1475
 1148CHOL    R410355  11.613   6.306   6.668 -0.0864  0.1141 -0.1241
 1148CHOL    R510356  11.607   6.361   6.458 -0.0463  0.0074 -0.1531
 1148CHOL    C110357  11.855   6.072   6.442 -0.1463 -0.0890  0.0183
 1148CHOL    C210358  11.915   5.901   6.092  0.1792 -0.1112 -0.0631
 1149XCA    COO10359   1.977  15.263   4.263 -0.0246 -0.2784  0.0542
 1149XCA     C110360   2.074  15.340   4.643 -0.0927 -0.0728 -0.1890
 1149XCA     C210361   2.146  15.194   5.066  0.1749 -0.0385  0.0909
 1149XCA     C310362   2.449  15.359   5.459 -0.0137 -0.0924 -0.0241
 1149XCA     C410363   2.346  15.587   5.908 -0.1026 -0.3041 -0.3682
 1149XCA     C510364   1.952  15.451   6.088 -0.0494  0.2854  0.3220
 1149XCA     C610365   1.691  15.739   6.302  0.2931  0.3906 -0.3181
 1150PNCE   AM110366  13.600   2.246   3.746  0.1114 -0.2842 -0.1957
 1150PNCE   AM210367  13.688   2.538   3.761  0.1157 -0.1656  0.0362
 1150PNCE   T1A10368  13.519   2.069   4.203 -0.0120  0.3225 -0.4217
 1150PNCE   C2A10369  13.694   2.034   4.619 -0.1195 -0.1006  0.1441
 1150PNCE   C3A10370  13.834   2.422   4.863  0.0763  0.2899 -0.4875
 1150PNCE   C1B10371  13.410   2.865   3.976  0.1338  0.2156 -0.0149
 1150PNCE   C2B10372  13.217   2.950   4.392  0.1023  0.1286  0.0752
 1150PNCE   C3B10373  13.009   3.183   4.819  0.0010  0.1268  0.2955
 1150PNCE   D4B10374  13.256   3.228   5.252  0.3618 -0.0732  0.1851
 1150PNCE   C5B10375  13.606   3.099   5.354 -0.1018  0.0215  0.1704
 1150PNCE   C6B10376  14.003   3.214   5.518  0.1926 -0.0570 -0.2613
 1151XCA    COO10377   3.951   5.756   5.457 -0.2134  0.0056  0.1203
 1151XCA     C110378   4.049   5.908   5.875  0.3257  0.1501  0.1940
 1151XCA     C210379   4.069   5.771   6.266 -0.2140  0.0032 -0.0165
 1151XCA     C310380   4.119   5.770   6.766  0.1234  0.0059 -0.0599
 1151XCA     C410381   4.298   5.727   7.120  0.1366  0.2650  0.0376
 1151XCA     C510382   4.390   5.888   7.478  0.0824 -0.1956 -0.1660
 1151XCA     C610383   4.096   5.930   7.809  0.1704 -0.4080  0.1841
 1152CHOL   ROH10384   6.805  14.798   6.434  0.0044  0.1919 -0.2669
 1152CHOL    R110385   7.070  14.864   6.509  0.0010  0.0592 -0.1314
 1152CHOL    R210386   7.152  15.124   6.552  0.1016  0.0161 -0.0552
 1152CHOL    R310387   7.233  15.025   6.792 -0.0579 -0.0565 -0.0304
 1152CHOL    R410388   7.382  15.276   6.760  0.1085 -0.1412  0.0531
 1152CHOL    R510389   7.466  15.079   6.802 -0.0278 -0.1979  0.0705
 1152CHOL    C110390   7.592  15.272   7.107 -0.0372 -0.3011  0.1395
 1152CHOL    C210391   7.897  15.430   7.176 -0.1544  0.4067 -0.0890
 1153PNCE   AM110392  10.820   1.915   3.768 -0.1475  0.0490 -0.0986
 1153PNCE   AM210393  10.666   2.153   3.919  0.0205 -0.1077  0.1656
 1153PNCE   T1A10394  10.790   1.773   4.182  0.1601 -0.0210 -0.1466
 1153PNCE   C2A10395  10.524   1.844   4.566 -0.1315  0.0128 -0.1669
 1153PNCE   C3A10396  10.188   1.745   4.849  0.1133  0.0435  0.1886
 1153PNCE   C1B10397  10.871   2.355   4.270 -0.0737  0.0417 -0.0828
 1153PNCE   C2B10398  10.756   2.294   4.699  0.0664  0.4059 -0.0165
 1153PNCE   C3B10399  10.577   2.193   5.110 -0.0189  0.0383  0.1094
 1153PNCE   D4B10400  10.673   2.367   5.552 -0.0530 -0.1653  0.1320
 1153PNCE   C5B10401  10.946   2.125   5.859  0.0758 -0.2031  0.1985
 1153PNCE   C6B10402  10.930   1.720   6.030 -0.0001 -0.2281 -0.0486
 1154XCA    COO10403   1.785  11.997   5.185 -0.3855 -0.1631 -0.0271
 1154XCA     C110404   2.004  11.900   5.564 -0.0924 -0.1239  0.0686
 1154XCA     C210405   2.398  11.948   5.891  0.1887  0.3139  0.1897
 1154XCA     C310406   2.416  12.052   6.353 -0.0287  0.1561  0.0116
 1154XCA     C410407   2.177  12.255   6.571 -0.2583 -0.3158 -0.1825
 1154XCA     C510408   1.921  12.509   6.501  0.1509  0.1966 -0.1169
 1154XCA     C610409   1.545  12.660   6.827 -0.1863  0.1519  0.3220
 1155CHOL   ROH10410   0.063  12.700   8.314 -0.0375 -0.1289 -0.0971
 1155CHOL    R110411   0.047  12.565   8.066  0.0875 -0.2647 -0.0315
 1155CHOL    R210412   0.079  12.694   7.824 -0.1654 -0.3260 -0.0941
 1155CHOL    R310413   0.268  12.504   7.784  0.1001 -0.0762 -0.0660
 1155CHOL    R410414   0.251  12.646   7.528 -0.2044 -0.2120 -0.1367
 1155CHOL    R510415   0.233  12.431   7.558  0.1160 -0.2347 -0.0235
 1155CHOL    C110416   0.529  12.439   7.318  0.0221  0.0889 -0.1352
 1155CHOL    C210417   0.746  12.196   7.173 -0.1836 -0.0243 -0.2700
 1156CHOL   ROH10418  10.112   9.492   7.636 -0.1657 -0.0884  0.3246
 1156CHOL    R110419   9.847   9.409   7.584 -0.0943 -0.1258 -0.0093
 1156CHOL    R210420   9.783   9.232   7.382  0.2210 -0.3686  0.0929
 1156CHOL    R310421   9.663   9.095   7.584 -0.1176 -0.1117  0.0739
 1156CHOL    R410422   9.586   8.951   7.341  0.2558 -0.3958  0.1170
 1156CHOL    R510423   9.452   9.029   7.494  0.0162 -0.1940 -0.1861
 1156CHOL    C110424   9.359   8.659   7.507 -0.0416 -0.1704  0.1132
 1156CHOL    C210425   9.443   8.211   7.416 -0.1921  0.4851  0.0161
 1157CHOL   ROH10426   4.777   6.035   5.565 -0.1603 -0.1195 -0.0224
 1157CHOL    R110427   4.652   5.881   5.767 -0.0503 -0.0574  0.0942
 1157CHOL    R210428   4.778   5.668   5.890 -0.0095 -0.0628  0.0390
 1157CHOL    R310429   4.715   5.803   6.117  0.1833 -0.0124  0.0649
 1157CHOL    R410430   4.674   5.521   6.186  0.0228  0.0122  0.0882
 1157CHOL    R510431   4.530   5.682   6.209  0.1401  0.1131  0.1494
 1157CHOL    C110432   4.555   5.563   6.571  0.2225  0.1033  0.1411
 1157CHOL    C210433   4.790   5.454   6.865  0.3176  0.2396  0.0453
 1158PNCE   AM110434  13.766   9.674   4.724 -0.1776  0.1294  0.1942
 1158PNCE   AM210435  13.587   9.519   4.927 -0.1823  0.1365  0.0629
 1158PNCE   T1A10436  13.861  10.001   4.962 -0.2371  0.0432 -0.0218
 1158PNCE   C2A10437  13.753  10.109   5.283  0.0337 -0.0680  0.0529
 1158PNCE   C3A10438  13.428  10.342   5.529 -0.0379 -0.2621  0.0492
 1158PNCE   C1B10439  13.459   9.629   5.341  0.3331 -0.1522 -0.3754
 1158PNCE   C2B10440  13.434   9.883   5.690  0.2987 -0.2889  0.2707
 1158PNCE   C3B10441  13.577   9.972   6.081  0.1439 -0.0980 -0.2572
 1158PNCE   D4B10442  13.916  10.111   6.162  0.0036  0.0657  0.1499
 1158PNCE   C5B10443  14.035  10.640   6.133 -0.1553 -0.1516  0.0758
 1158PNCE   C6B10444  14.267  10.939   6.464 -0.0310 -0.0240 -0.0433
 1159CHOL   ROH10445   4.621   9.906   5.692  0.0536 -0.0955 -0.0086
 1159CHOL    R110446   4.666   9.917   5.971  0.0741 -0.0614 -0.0137
 1159CHOL    R210447   4.676  10.156   6.111  0.0763 -0.0469 -0.0440
 1159CHOL    R310448   4.484  10.037   6.263  0.0927 -0.0339 -0.0123
 1159CHOL    R410449   4.628  10.214   6.448  0.0530  0.0638 -0.0656
 1159CHOL    R510450   4.590  10.001   6.474  0.0947  0.0617  0.0065
 1159CHOL    C110451   4.420  10.137   6.787  0.0549  0.1404 -0.0485
 1159CHOL    C210452   4.588  10.329   7.001 -0.1437  0.1767  0.0118
 1160XCA    COO10453   4.269  10.488   5.117  0.0220 -0.0623  0.5019
 1160XCA     C110454   4.587  10.740   5.313 -0.1065  0.0289 -0.0981
 1160XCA     C210455   4.832  10.816   5.711  0.0255 -0.0772 -0.1065
 1160XCA     C310456   4.921  10.997   6.073  0.0617  0.2116 -0.1707
 1160XCA     C410457   4.929  11.067   6.550  0.2594  0.0903  0.0631
 1160XCA     C510458   5.021  10.751   6.962  0.2116 -0.0386  0.0073
 1160XCA     C610459   5.159  10.886   7.306 -0.0863  0.1468  0.2613
 1161CHOL   ROH10460  12.214   3.301   5.270  0.1271  0.0679 -0.1124
 1161CHOL    R110461  12.180   3.157   5.511  0.0308 -0.0365 -0.1881
 1161CHOL    R210462  11.965   3.197   5.680  0.0191 -0.0377 -0.2097
 1161CHOL    R310463  11.933   2.929   5.651 -0.0786 -0.0141 -0.3392
 1161CHOL    R410464  11.840   2.986   5.923  0.0017 -0.1127 -0.2826
 1161CHOL    R510465  11.990   2.839   5.865 -0.0577 -0.1387 -0.3924
 1161CHOL    C110466  11.737   2.610   6.037 -0.1002 -0.1342 -0.4467
 1161CHOL    C210467  11.558   2.329   6.028  0.1484  0.0754 -0.0780
 1162CHOL   ROH10468  13.066   4.839   4.787  0.1418  0.1274 -0.3428
 1162CHOL    R110469  13.256   4.992   4.929  0.0484  0.1130 -0.1978
 1162CHOL    R210470  13.365   4.909   5.169 -0.0881  0.0732 -0.1422
 1162CHOL    R310471  13.601   4.950   5.040 -0.0165  0.1094  0.0004
 1162CHOL    R410472  13.665   4.979   5.325 -0.1745  0.0572  0.0319
 1162CHOL    R510473  13.708   5.123   5.166 -0.0919  0.0858  0.0887
 1162CHOL    C110474  14.062   5.057   5.295 -0.1575  0.0819  0.2670
 1162CHOL    C210475  14.357   4.917   5.589 -0.2818 -0.3587 -0.0974
 1163CHOL   ROH10476   6.722   8.284   7.154 -0.0681  0.0225 -0.3191
 1163CHOL    R110477   6.959   8.334   7.300 -0.1327  0.1382 -0.2545
 1163CHOL    R210478   7.170   8.156   7.307 -0.1265  0.1579 -0.0447
 1163CHOL    R310479   7.313   8.372   7.225 -0.1017  0.1103 -0.1312
 1163CHOL    R410480   7.511   8.158   7.251 -0.1130  0.1084  0.0297
 1163CHOL    R510481   7.520   8.355   7.343 -0.1266  0.1628 -0.0723
 1163CHOL    C110482   7.844   8.362   7.141 -0.0821  0.0350 -0.0082
 1163CHOL    C210483   7.995   8.572   6.843 -0.1029  0.0441  0.1100
 1164CHOL   ROH10484   6.863   1.477   5.029 -0.2200  0.1257 -0.0872
 1164CHOL    R110485   6.872   1.472   5.312  0.0907  0.2139 -0.0919
 1164CHOL    R210486   6.920   1.698   5.463 -0.1780  0.3507 -0.2085
 1164CHOL    R310487   6.687   1.627   5.585  0.0777 -0.0653  0.0615
 1164CHOL    R410488   6.789   1.852   5.744 -0.2964  0.3552 -0.2646
 1164CHOL    R510489   6.732   1.655   5.819  0.2191  0.2878 -0.0011
 1164CHOL    C110490   6.496   1.875   6.022 -0.1255 -0.0328 -0.0439
 1164CHOL    C210491   6.155   1.780   6.307  0.1680 -0.3119  0.1688
 1165CHOL   ROH10492   7.997   3.899   4.689 -0.1897 -0.1161 -0.1228
 1165CHOL    R110493   7.773   3.832   4.847 -0.1935  0.0136 -0.0717
 1165CHOL    R210494   7.793   3.685   5.079 -0.2305 -0.0380 -0.0995
 1165CHOL    R310495   7.660   3.896   5.187 -0.0553  0.0389 -0.0307
 1165CHOL    R410496   7.756   3.742   5.418  0.0926  0.0652 -0.0782
 1165CHOL    R510497   7.551   3.804   5.380  0.0819  0.1313  0.0914
 1165CHOL    C110498   7.610   3.973   5.717  0.4452  0.1974 -0.0013
 1165CHOL    C210499   7.820   4.233   5.998  0.1872  0.2616  0.1151
 1166PNCE   AM110500   0.632   5.429   5.106 -0.0739  0.1643 -0.1612
 1166PNCE   AM210501   0.492   5.702   5.024  0.0567 -0.0235 -0.0507
 1166PNCE   T1A10502   0.513   5.139   5.494  0.0198  0.0861 -0.0935
 1166PNCE   C2A10503   0.276   4.813   5.539 -0.1535 -0.1509 -0.2714
 1166PNCE   C3A10504  -0.150   4.752   5.515  0.0423  0.2641 -0.1606
 1166PNCE   C1B10505   0.611   5.723   5.493 -0.0829  0.2766 -0.1207
 1166PNCE   C2B10506   0.571   5.654   6.009  0.1074  0.1287  0.1603
 1166PNCE   C3B10507   0.839   5.472   6.302 -0.1676 -0.1081 -0.0820
 1166PNCE   D4B10508   0.881   5.360   6.655 -0.0124  0.1154  0.0424
 1166PNCE   C5B10509   1.119   5.686   6.966  0.4431  0.0316 -0.1908
 1166PNCE   C6B10510   1.067   5.821   7.399  0.2386 -0.2967 -0.0467
 1167XCA    COO10511   2.634   5.343   5.066 -0.3100 -0.0340  0.0277
 1167XCA     C110512   2.329   5.176   5.287 -0.2870  0.0204  0.1679
 1167XCA     C210513   2.279   5.157   5.768  0.2978  0.2836  0.0524
 1167XCA     C310514   2.222   5.490   6.054  0.0617 -0.2306  0.2850
 1167XCA     C410515   2.000   5.473   6.394 -0.2411 -0.0941  0.3083
 1167XCA     C510516   2.033   5.450   6.831 -0.5232  0.0543  0.3623
 1167XCA     C610517   2.278   5.775   7.148 -0.0436 -0.2344 -0.3665
 1168PNCE   AM110518   8.185  15.568   4.203 -0.1298 -0.0306  0.0310
 1168PNCE   AM210519   7.828  15.453   4.126  0.1423 -0.0115  0.1876
 1168PNCE   T1A10520   8.469  15.781   4.494 -0.0746 -0.0633 -0.2183
 1168PNCE   C2A10521   8.543  16.176   4.825  0.1530  0.0873  0.1730
 1168PNCE   C3A10522   8.564  16.313   5.139 -0.0965  0.4226 -0.0216
 1168PNCE   C1B10523   7.971  15.419   4.596  0.2729  0.0961 -0.2334
 1168PNCE   C2B10524   8.183  15.317   4.998  0.1476  0.0610 -0.1924
 1168PNCE   C3B10525   8.391  15.139   5.364 -0.0074 -0.3047 -0.1345
 1168PNCE   D4B10526   8.624  15.070   5.753  0.1758  0.1580 -0.1012
 1168PNCE   C5B10527   8.713  15.438   5.768 -0.0146 -0.0996  0.2522
 1168PNCE   C6B10528   8.944  15.694   5.574 -0.2271 -0.1555  0.2193
 1169PNCE   AM110529  15.770  11.534   4.456 -0.0825  0.0959  0.0340
 1169PNCE   AM210530  15.718  11.859   4.534  0.1913  0.0300 -0.0895
 1169PNCE   T1A10531  15.717  11.094   4.581  0.2152  0.1906 -0.1115
 1169PNCE   C2A10532  15.945  10.820   4.787 -0.1565 -0.2117  0.1449
 1169PNCE   C3A10533  16.322  10.768   4.850 -0.0575 -0.0037  0.1957
 1169PNCE   C1B10534  15.769  11.948   5.049  0.1541  0.1612 -0.1817
 1169PNCE   C2B10535  15.911  11.969   5.393 -0.1569 -0.4551  0.1315
 1169PNCE   C3B10536  16.207  12.121   5.652 -0.1089  0.0517 -0.0045
 1169PNCE   D4B10537  16.512  12.297   5.959  0.0033 -0.1252 -0.2948
 1169PNCE   C5B10538  16.652  12.110   6.292 -0.0329  0.0248  0.2449
 1169PNCE   C6B10539  17.074  11.910   6.396  0.1965  0.2518 -0.0085
 1170XCA    COO10540   5.136   6.632   4.743  0.2623 -0.0732  0.0358
 1170XCA     C110541   5.310   6.551   5.184 -0.3432 -0.0547 -0.0517
 1170XCA     C210542   5.089   6.421   5.555 -0.0870  0.2365 -0.2106
 1170XCA     C310543   4.918   6.265   5.928 -0.0015 -0.4482  0.0079
 1170XCA     C410544   4.952   6.366   6.331  0.1953  0.3662  0.0384
 1170XCA     C510545   5.236   6.223   6.670  0.1652  0.0942  0.3619
 1170XCA     C610546   5.253   6.322   7.057  0.1223 -0.1727 -0.2415
 1171CHOL   ROH10547   1.783   2.301   4.988 -0.2596 -0.0453  0.1579
 1171CHOL    R110548   1.924   2.240   5.226  0.0081  0.0609  0.0322
 1171CHOL    R210549   2.176   2.339   5.280 -0.0226  0.2753 -0.1883
 1171CHOL    R310550   2.059   2.426   5.509  0.1035  0.1632 -0.0803
 1171CHOL    R410551   2.347   2.441   5.562  0.1270 -0.0165 -0.1704
 1171CHOL    R510552   2.197   2.338   5.683  0.1228 -0.0328 -0.1939
 1171CHOL    C110553   2.336   2.582   5.942  0.3326 -0.2915 -0.0584
 1171CHOL    C210554   2.551   2.930   6.044  0.3106  0.2278 -0.0683
 1172CHOL   ROH10555   1.052  15.595   4.496  0.1154 -0.0201  0.0969
 1172CHOL    R110556   1.168  15.695   4.734  0.0140  0.0909  0.1000
 1172CHOL    R210557   1.025  15.725   4.969 -0.0422  0.0402  0.0677
 1172CHOL    R310558   1.226  15.573   5.071  0.0357  0.1830  0.1314
 1172CHOL    R410559   1.161  15.763   5.284 -0.2226  0.1020  0.1396
 1172CHOL    R510560   1.358  15.726   5.199 -0.1474  0.2755  0.2206
 1172CHOL    C110561   1.428  15.642   5.564 -0.2545  0.2722  0.2414
 1172CHOL    C210562   1.676  15.841   5.832  0.1341  0.1986  0.0815
 1173PNCE   AM110563   8.277   4.270   4.661 -0.2505  0.0800  0.2541
 1173PNCE   AM210564   8.617   4.311   4.714  0.1575  0.1058  0.1443
 1173PNCE   T1A10565   8.049   4.169   5.062  0.0795 -0.0012  0.0276
 1173PNCE   C2A10566   7.924   4.277   5.524  0.3204  0.1883  0.2248
 1173PNCE   C3A10567   7.655   4.583   5.696  0.0124 -0.1138 -0.1853
 1173PNCE   C1B10568   8.496   4.306   5.145 -0.1776 -0.1745 -0.0534
 1173PNCE   C2B10569   8.426   4.336   5.544 -0.1481 -0.0368  0.2928
 1173PNCE   C3B10570   8.286   4.374   5.979  0.0064 -0.1419  0.0638
 1173PNCE   D4B10571   8.142   4.681   6.175  0.1588  0.0766 -0.0147
 1173PNCE   C5B10572   8.455   4.937   6.404  0.2990 -0.1880  0.1988
 1173PNCE   C6B10573   8.441   5.162   6.824  0.2202  0.0001 -0.2141
 1174CHOL   ROH10574   3.342  10.308   5.626 -0.2303  0.0154  0.0478
 1174CHOL    R110575   3.372  10.341   5.906 -0.2258 -0.1752  0.0707
 1174CHOL    R210576   3.355  10.588   6.029  0.0559 -0.2215  0.2048
 1174CHOL    R310577   3.167  10.464   6.180 -0.1155 -0.0797  0.1120
 1174CHOL    R410578   3.254  10.690   6.344 -0.1374 -0.0521  0.0908
 1174CHOL    R510579   3.248  10.481   6.404 -0.2755 -0.0286  0.1693
 1174CHOL    C110580   3.019  10.632   6.668 -0.4107  0.1797 -0.0627
 1174CHOL    C210581   3.148  10.618   6.991  0.0197  0.0055 -0.2724
 1175CHOL   ROH10582  15.750   6.913   8.433  0.0335  0.1482  0.0433
 1175CHOL    R110583  15.796   6.777   8.189  0.0567  0.0341  0.1111
 1175CHOL    R210584  15.849   6.909   7.952 -0.0853 -0.0699  0.0223
 1175CHOL    R310585  16.067   6.748   7.949  0.0152  0.0626  0.0595
 1175CHOL    R410586  16.042   6.844   7.673  0.1023  0.1820  0.0890
 1175CHOL    R510587  16.056   6.637   7.738  0.1928  0.1564 -0.0036
 1175CHOL    C110588  16.360   6.655   7.508  0.3058  0.4532  0.1628
 1175CHOL    C210589  16.480   6.798   7.278  0.1355 -0.2052 -0.1892
 1176XCA    COO10590  13.942   4.560   7.893  0.2612 -0.2537 -0.0464
 1176XCA     C110591  14.202   4.561   7.434 -0.1607  0.0654  0.1871
 1176XCA     C210592  14.147   4.597   7.037 -0.3796 -0.0578 -0.0156
 1176XCA     C310593  14.160   4.942   6.765 -0.0134  0.1220  0.1431
 1176XCA     C410594  13.940   5.075   6.379  0.2688 -0.2162  0.1427
 1176XCA     C510595  13.540   5.254   6.286  0.0259 -0.1836  0.2416
 1176XCA     C610596  13.068   5.180   6.349  0.2292 -0.1740 -0.0066
 1177XCA    COO10597   1.125   6.785   5.133 -0.2136 -0.1343 -0.0995
 1177XCA     C110598   1.002   6.839   5.484  0.2648  0.0676 -0.1623
 1177XCA     C210599   1.012   6.764   5.895  0.2907  0.1539  0.0610
 1177XCA     C310600   0.803   6.679   6.248  0.2816 -0.2242  0.1725
 1177XCA     C410601   0.371   6.737   6.489  0.0834 -0.1781  0.1044
 1177XCA     C510602   0.314   6.918   6.910  0.1147 -0.1692 -0.0180
 1177XCA     C610603   0.197   7.165   7.282 -0.4725  0.1508 -0.0216
 1178XCA    COO10604  14.078   6.837   8.393 -0.1493  0.0564 -0.1249
 1178XCA     C110605  14.204   6.443   8.089  0.1384 -0.1837  0.0422
 1178XCA     C210606  14.524   6.397   7.760 -0.1942  0.0686  0.0625
 1178XCA     C310607  14.740   6.404   7.390 -0.0480  0.0720 -0.2367
 1178XCA     C410608  14.865   6.405   6.971 -0.1312  0.2114 -0.1662
 1178XCA     C510609  14.678   6.620   6.704 -0.0115 -0.0659  0.1617
 1178XCA     C610610  14.537   6.743   6.388  0.1731  0.2286  0.3336
 1179XCA    COO10611   5.666   7.909   8.788 -0.0092 -0.2738  0.0427
 1179XCA     C110612   5.719   8.167   8.411 -0.1864  0.0936 -0.1214
 1179XCA     C210613   5.845   8.342   8.044 -0.1313  0.0879 -0.0837
 1179XCA     C310614   6.206   8.280   7.703  0.1235  0.0469 -0.0211
 1179XCA     C410615   6.321   8.139   7.263  0.2310  0.1595 -0.0670
 1179XCA     C510616   6.371   7.859   6.875  0.1477  0.1604 -0.0573
 1179XCA     C610617   6.257   7.755   6.418 -0.0820 -0.3019  0.1254
 1180CHOL   ROH10618   7.407  12.831   8.878  0.1152 -0.0615 -0.0548
 1180CHOL    R110619   7.296  12.666   8.677  0.1060 -0.0686 -0.0453
 1180CHOL    R210620   7.251  12.756   8.420  0.0268 -0.0578 -0.0315
 1180CHOL    R310621   7.400  12.539   8.352  0.0603 -0.0152 -0.0795
 1180CHOL    R410622   7.263  12.614   8.104 -0.3488 -0.2958  0.0564
 1180CHOL    R510623   7.263  12.417   8.198 -0.0919 -0.2206  0.2132
 1180CHOL    C110624   7.410  12.328   7.858 -0.5361 -0.3943  0.0625
 1180CHOL    C210625   7.324  12.456   7.446 -0.0660  0.0342  0.0376
 1181PNCE   AM110626   9.494   1.330   4.864  0.1880 -0.4385 -0.1791
 1181PNCE   AM210627   9.501   1.001   5.061 -0.0632  0.2103  0.2860
 1181PNCE   T1A10628   9.909   1.196   4.876  0.0599 -0.0156 -0.0465
 1181PNCE   C2A10629  10.386   1.216   4.761  0.4367 -0.5662  0.1734
 1181PNCE   C3A10630  10.756   1.441   4.577 -0.1026 -0.2319  0.4980
 1181PNCE   C1B10631   9.794   0.994   5.406 -0.0372 -0.0575 -0.1582
 1181PNCE   C2B10632  10.091   0.832   5.608  0.3294  0.1515 -0.2698
 1181PNCE   C3B10633   9.984   0.614   5.910 -0.3436  0.3766  0.1375
 1181PNCE   D4B10634   9.842   0.370   6.290 -0.1183 -0.0498  0.0924
 1181PNCE   C5B10635   9.824   0.228   6.657 -0.0579 -0.1354 -0.1932
 1181PNCE   C6B10636  10.015   0.170   7.090  0.3686 -0.0631 -0.0993
 1182CHOL   ROH10637  15.828   6.046   5.156  0.0013 -0.0480  0.1781
 1182CHOL    R110638  15.815   5.769   5.212 -0.0408 -0.0840 -0.0005
 1182CHOL    R210639  15.661   5.667   5.417  0.0841 -0.1738  0.0501
 1182CHOL    R310640  15.558   5.512   5.218 -0.1180 -0.0068  0.0217
 1182CHOL    R410641  15.517   5.356   5.463  0.2144 -0.2535 -0.0724
 1182CHOL    R510642  15.616   5.288   5.281  0.0136 -0.0564 -0.2611
 1182CHOL    C110643  15.336   5.030   5.304  0.1006 -0.1431 -0.1703
 1182CHOL    C210644  15.230   4.645   5.211 -0.0461 -0.0909  0.0365
 1183PNCE   AM110645   8.719   3.663   4.776  0.1971  0.0409  0.0411
 1183PNCE   AM210646   8.453   3.680   5.012  0.3236 -0.2018  0.2995
 1183PNCE   T1A10647   8.812   3.964   5.197 -0.0016  0.0138  0.3553
 1183PNCE   C2A10648   8.747   3.920   5.591 -0.2427  0.1086  0.0998
 1183PNCE   C3A10649   8.630   3.866   5.990 -0.0305 -0.1870  0.0739
 1183PNCE   C1B10650   8.293   3.883   5.371 -0.1737 -0.3092  0.0562
 1183PNCE   C2B10651   8.137   3.939   5.818 -0.4156  0.1234  0.3652
 1183PNCE   C3B10652   7.874   3.698   6.016  0.0200  0.1791  0.0691
 1183PNCE   D4B10653   7.476   3.735   6.201 -0.0254  0.2069 -0.0317
 1183PNCE   C5B10654   7.539   3.814   6.642 -0.1674  0.3091 -0.1847
 1183PNCE   C6B10655   7.713   4.149   6.969 -0.2894 -0.0087  0.2353
 1184PNCE   AM110656  14.583   8.543   4.962 -0.3749  0.0014 -0.0656
 1184PNCE   AM210657  14.222   8.497   4.867 -0.1655 -0.1311 -0.0916
 1184PNCE   T1A10658  14.494   8.382   5.431 -0.0128 -0.0388 -0.0845
 1184PNCE   C2A10659  14.339   8.660   5.787 -0.2079  0.0458  0.1096
 1184PNCE   C3A10660  13.999   8.716   6.055 -0.4173 -0.1917 -0.6958
 1184PNCE   C1B10661  13.951   8.480   5.239  0.0228  0.3280 -0.2095
 1184PNCE   C2B10662  13.795   8.692   5.623 -0.1362 -0.0676 -0.0325
 1184PNCE   C3B10663  13.615   8.417   5.884 -0.0247 -0.1683  0.0405
 1184PNCE   D4B10664  13.344   8.163   6.190 -0.0608 -0.0013  0.0592
 1184PNCE   C5B10665  13.385   7.790   6.274 -0.3213  0.0965  0.0345
 1184PNCE   C6B10666  13.520   7.528   6.000 -0.1388 -0.0770  0.1889
 1185PNCE   AM110667   4.417  14.924   3.778 -0.0013  0.0035  0.2036
 1185PNCE   AM210668   4.564  14.885   3.939 -0.3015 -0.2051 -0.2666
 1185PNCE   T1A10669   3.970  14.832   3.852  0.1811  0.0534 -0.2336
 1185PNCE   C2A10670   3.644  14.886   4.143  0.2327  0.1140  0.0920
 1185PNCE   C3A10671   3.467  15.275   4.229 -0.2910  0.3573  0.1899
 1185PNCE   C1B10672   4.557  14.723   4.314  0.3228  0.0791 -0.1811
 1185PNCE   C2B10673   4.388  14.672   4.654  0.0402  0.1261 -0.0801
 1185PNCE   C3B10674   4.340  14.556   5.073 -0.3035 -0.0371  0.2837
 1185PNCE   D4B10675   4.560  14.552   5.535 -0.3117 -0.0211 -0.1937
 1185PNCE   C5B10676   4.385  14.901   5.780 -0.0976  0.1302 -0.4234
 1185PNCE   C6B10677   4.481  14.976   6.228 -0.1629  0.1032 -0.1638
 1186XCA    COO10678   3.331   6.761   5.351  0.2578  0.2019  0.0499
 1186XCA     C110679   3.520   6.844   5.859  0.1022 -0.1475  0.1968
 1186XCA     C210680   3.580   6.876   6.342 -0.2368 -0.0910 -0.0393
 1186XCA     C310681   3.905   6.802   6.671  0.0942  0.2823 -0.0848
 1186XCA     C410682   4.020   6.596   7.191  0.2056  0.2604  0.1515
 1186XCA     C510683   4.004   6.229   7.373  0.2936  0.2198 -0.3473
 1186XCA     C610684   3.822   5.869   7.323 -0.0135  0.3085  0.1281
 1187CHOL   ROH10685   6.040   5.472   8.589  0.1272 -0.1874 -0.4091
 1187CHOL    R110686   5.905   5.700   8.488  0.1107 -0.1209 -0.2405
 1187CHOL    R210687   5.959   5.807   8.240  0.0579  0.0302 -0.1898
 1187CHOL    R310688   5.691   5.776   8.203  0.0491  0.0585 -0.1473
 1187CHOL    R410689   5.796   5.837   7.936 -0.0006  0.1231 -0.1493
 1187CHOL    R510690   5.634   5.941   8.039  0.0274  0.1056 -0.0909
 1187CHOL    C110691   5.450   5.826   7.726 -0.0429  0.2039 -0.0857
 1187CHOL    C210692   5.321   5.918   7.377 -0.1011  0.1570  0.0467
 1188XCA    COO10693   7.281   2.093   4.607  0.1526 -0.1932 -0.3247
 1188XCA     C110694   6.954   2.356   4.917 -0.1341 -0.2062  0.0272
 1188XCA     C210695   6.910   2.390   5.418 -0.4311  0.1248  0.1073
 1188XCA     C310696   7.101   2.279   5.934  0.2866 -0.2840 -0.0247
 1188XCA     C410697   6.920   2.061   6.158 -0.4414 -0.4706  0.1833
 1188XCA     C510698   6.742   1.661   6.411 -0.1655 -0.2682 -0.0769
 1188XCA     C610699   7.023   1.408   6.570  0.1646  0.0430 -0.2796
 1189XCA    COO10700   5.419   7.018   5.025 -0.1094  0.3000 -0.1573
 1189XCA     C110701   5.539   6.965   5.473 -0.2550  0.1041  0.2042
 1189XCA     C210702   5.540   6.640   5.761  0.2093  0.1349  0.2750
 1189XCA     C310703   5.291   6.597   6.077  0.2001  0.0226 -0.4029
 1189XCA     C410704   5.243   6.732   6.543  0.1709 -0.1445  0.2181
 1189XCA     C510705   5.353   6.907   6.924  0.1452  0.0418  0.3590
 1189XCA     C610706   5.615   6.772   7.259 -0.1614  0.2107  0.2557
 1190PNCE   AM110707   9.938   8.209   5.038 -0.1597 -0.1619  0.0734
 1190PNCE   AM210708  10.004   8.517   5.241 -0.1898 -0.0079 -0.0232
 1190PNCE   T1A10709   9.551   8.189   5.358 -0.0377 -0.0870  0.0085
 1190PNCE   C2A10710   9.178   8.279   5.592  0.1375  0.0158 -0.1433
 1190PNCE   C3A10711   9.065   8.157   5.996  0.0964 -0.0192  0.0813
 1190PNCE   C1B10712   9.817   8.425   5.689 -0.2275  0.1583 -0.1116
 1190PNCE   C2B10713   9.520   8.300   5.956  0.0665 -0.0128 -0.1506
 1190PNCE   C3B10714   9.533   8.348   6.306  0.2124  0.0690 -0.2131
 1190PNCE   D4B10715   9.466   8.211   6.743  0.0490 -0.0509  0.1929
 1190PNCE   C5B10716   9.141   8.119   7.029  0.0571 -0.0775 -0.0805
 1190PNCE   C6B10717   8.917   8.308   7.420  0.3102 -0.3443 -0.1002
 1191PNCE   AM110718  11.310   4.952   4.471  0.2019  0.1230  0.0422
 1191PNCE   AM210719  11.476   5.264   4.680 -0.1819 -0.2062 -0.0465
 1191PNCE   T1A10720  11.514   4.647   4.816 -0.1583  0.3831  0.0382
 1191PNCE   C2A10721  11.336   4.426   5.065  0.2757 -0.1078 -0.0531
 1191PNCE   C3A10722  11.313   3.978   5.124 -0.0322  0.2469  0.0398
 1191PNCE   C1B10723  11.768   5.200   4.880 -0.0951  0.1448  0.1928
 1191PNCE   C2B10724  12.039   5.066   5.109 -0.3355 -0.0320  0.1232
 1191PNCE   C3B10725  12.124   5.016   5.597 -0.1631 -0.0827 -0.1828
 1191PNCE   D4B10726  12.272   4.751   5.879 -0.2188  0.1234  0.1859
 1191PNCE   C5B10727  12.188   4.867   6.315 -0.0793 -0.0806 -0.0907
 1191PNCE   C6B10728  11.953   4.738   6.677  0.4143 -0.0207  0.1491
 1192CHOL   ROH10729   5.089   1.034   4.643 -0.0516  0.0951  0.0792
 1192CHOL    R110730   4.847   1.000   4.785 -0.0113 -0.0917  0.1054
 1192CHOL    R210731   4.834   0.874   5.030  0.1313 -0.0034  0.1557
 1192CHOL    R310732   4.712   1.105   5.107 -0.1011 -0.0943  0.0699
 1192CHOL    R410733   4.675   0.921   5.334  0.4598  0.0749  0.3215
 1192CHOL    R510734   4.518   1.031   5.228  0.1555 -0.2563  0.4017
 1192CHOL    C110735   4.467   1.165   5.582  0.4329  0.0351  0.3373
 1192CHOL    C210736   4.260   1.263   5.874 -0.0588  0.0711 -0.0181
 1193PNCE   AM110737  11.052   0.063   3.632 -0.1687  0.3510  0.2114
 1193PNCE   AM210738  11.262   0.328   3.582 -0.0163 -0.3711  0.0553
 1193PNCE   T1A10739  10.990  -0.116   4.060  0.0553  0.1005 -0.0374
 1193PNCE   C2A10740  10.845  -0.314   4.476  0.2382 -0.0230  0.1703
 1193PNCE   C3A10741  10.856  -0.482   4.837 -0.0318  0.1089  0.2063
 1193PNCE   C1B10742  11.342   0.447   4.017  0.1455  0.0517  0.1403
 1193PNCE   C2B10743  11.481   0.517   4.434  0.2474 -0.0656 -0.0704
 1193PNCE   C3B10744  11.638   0.643   4.878 -0.1287 -0.2865 -0.1309
 1193PNCE   D4B10745  11.793   0.531   5.272  0.0127 -0.3647  0.1342
 1193PNCE   C5B10746  11.649   0.119   5.353  0.0737 -0.2029  0.1563
 1193PNCE   C6B10747  11.690  -0.273   5.598 -0.2206 -0.1873 -0.0114
 1194CHOL   ROH10748   3.437   4.600   4.826 -0.1920  0.1705  0.1553
 1194CHOL    R110749   3.375   4.346   4.932 -0.0986  0.1031  0.0499
 1194CHOL    R210750   3.383   4.291   5.203 -0.0803 -0.0049  0.0255
 1194CHOL    R310751   3.128   4.208   5.161 -0.0495 -0.0851 -0.0074
 1194CHOL    R410752   3.194   4.116   5.432 -0.0992  0.0594  0.0598
 1194CHOL    R510753   3.117   3.994   5.268 -0.0251 -0.0389  0.0937
 1194CHOL    C110754   2.843   3.935   5.527 -0.0814  0.0215  0.0487
 1194CHOL    C210755   2.598   3.916   5.928  0.1947 -0.0179  0.1471
 1195CHOL   ROH10756   0.347   4.141   4.924  0.0604  0.1399  0.2564
 1195CHOL    R110757   0.479   3.990   5.123  0.1050  0.1440  0.2313
 1195CHOL    R210758   0.392   3.981   5.386  0.0782  0.0351  0.2220
 1195CHOL    R310759   0.394   3.713   5.344  0.2005  0.0478  0.1475
 1195CHOL    R410760   0.457   3.744   5.628  0.0585 -0.0083  0.1841
 1195CHOL    R510761   0.573   3.633   5.482  0.1678  0.0780  0.2059
 1195CHOL    C110762   0.497   3.354   5.731  0.1619 -0.0217  0.0921
 1195CHOL    C210763   0.667   3.205   5.977 -0.3668 -0.1794 -0.2580
 1196CHOL   ROH10764   5.100   1.709   4.455 -0.2182  0.1915 -0.1223
 1196CHOL    R110765   5.231   1.837   4.671 -0.0634  0.0209 -0.1113
 1196CHOL    R210766   5.410   2.044   4.634  0.1061 -0.1103 -0.0886
 1196CHOL    R310767   5.247   2.173   4.808  0.2430 -0.0301 -0.0197
 1196CHOL    R410768   5.510   2.292   4.853  0.2268  0.1415 -0.4220
 1196CHOL    R510769   5.380   2.205   5.004  0.4430  0.2187 -0.1969
 1196CHOL    C110770   5.414   2.558   5.144  0.4257  0.3635 -0.5514
 1196CHOL    C210771   5.405   2.572   5.604 -0.2590 -0.2391  0.0751
 1197CHOL   ROH10772  10.571  13.167   4.238  0.0844  0.1672 -0.1182
 1197CHOL    R110773  10.495  13.211   4.507  0.1656  0.0188 -0.0697
 1197CHOL    R210774  10.232  13.249   4.583  0.2179  0.3109 -0.0176
 1197CHOL    R310775  10.285  13.044   4.753 -0.0484  0.0699 -0.2156
 1197CHOL    R410776  10.122  13.230   4.910  0.3923  0.2491  0.0386
 1197CHOL    R510777  10.317  13.149   4.965  0.2842 -0.1572 -0.1467
 1197CHOL    C110778  10.108  13.027   5.260  0.2440 -0.0131 -0.1146
 1197CHOL    C210779  10.239  12.991   5.659 -0.0246 -0.0681 -0.0666
 1198PNCE   AM110780  13.561  14.063   7.667  0.0029  0.0738 -0.0776
 1198PNCE   AM210781  13.906  14.126   7.633 -0.2324  0.0771  0.0047
 1198PNCE   T1A10782  13.663  14.014   7.191  0.0483 -0.0150  0.1634
 1198PNCE   C2A10783  13.795  13.930   6.795 -0.0046 -0.0146 -0.0831
 1198PNCE   C3A10784  13.938  13.715   6.368 -0.1466 -0.0218  0.0945
 1198PNCE   C1B10785  14.128  14.073   7.292 -0.1520 -0.3475 -0.3523
 1198PNCE   C2B10786  14.290  13.929   6.804 -0.1301 -0.2693 -0.0203
 1198PNCE   C3B10787  14.403  13.661   6.387  0.1433 -0.1580  0.1040
 1198PNCE   D4B10788  14.289  13.408   5.984 -0.2199  0.0546  0.1589
 1198PNCE   C5B10789  14.226  13.603   5.626  0.2546  0.4579  0.0737
 1198PNCE   C6B10790  14.373  13.480   5.143 -0.2193  0.1939 -0.0964
 1199PNCE   AM110791  14.871   8.025   5.112 -0.6148  0.0531  0.0015
 1199PNCE   AM210792  14.910   8.125   5.509 -0.0588 -0.2192  0.0044
 1199PNCE   T1A10793  15.160   7.718   5.375 -0.2406 -0.0306  0.2679
 1199PNCE   C2A10794  15.265   7.385   5.563 -0.0648 -0.2586  0.1265
 1199PNCE   C3A10795  15.291   7.040   5.870  0.0347 -0.0908  0.2057
 1199PNCE   C1B10796  14.884   7.795   5.836  0.1863  0.2012  0.1196
 1199PNCE   C2B10797  15.008   7.412   5.986  0.0727 -0.1573 -0.1578
 1199PNCE   C3B10798  15.105   7.338   6.485  0.0437  0.3598 -0.2676
 1199PNCE   D4B10799  15.341   7.167   6.854 -0.0165 -0.0287 -0.1748
 1199PNCE   C5B10800  15.213   7.222   7.252 -0.0239  0.0617 -0.0673
 1199PNCE   C6B10801  15.328   7.307   7.634 -0.1723 -0.1223  0.1377
 1200CHOL   ROH10802   0.142   1.229   7.422  0.0989 -0.0591 -0.1019
 1200CHOL    R110803  -0.114   1.173   7.317  0.0721 -0.0357 -0.0486
 1200CHOL    R210804  -0.324   1.351   7.334  0.0723 -0.0481  0.0620
 1200CHOL    R310805  -0.334   1.315   7.065 -0.0031  0.0321  0.0535
 1200CHOL    R410806  -0.615   1.347   7.147 -0.0039 -0.2374  0.1808
 1200CHOL    R510807  -0.532   1.182   7.030  0.0949 -0.1296  0.0920
 1200CHOL    C110808  -0.794   1.312   6.786 -0.1190 -0.2722  0.2420
 1200CHOL    C210809  -0.906   0.982   6.657 -0.1957 -0.3988 -0.0555
 1201CHOL   ROH10810   1.536   4.878   5.392  0.0527 -0.0813  0.0081
 1201CHOL    R110811   1.346   4.931   5.595  0.0267  0.1441 -0.0727
 1201CHOL    R210812   1.343   4.795   5.836 -0.3408  0.0212 -0.1402
 1201CHOL    R310813   1.353   5.046   5.940  0.0353 -0.0411 -0.0098
 1201CHOL    R410814   1.299   4.872   6.170 -0.0668 -0.0976 -0.0743
 1201CHOL    R510815   1.184   5.047   6.110  0.1220  0.0865  0.0787
 1201CHOL    C110816   1.283   5.152   6.463  0.4459 -0.2252  0.0864
 1201CHOL    C210817   1.455   5.261   6.773  0.0238 -0.2259 -0.0521
 1202XCA    COO10818   6.420   3.176   3.848 -0.3773 -0.1541  0.0435
 1202XCA     C110819   6.439   3.167   4.309 -0.0724  0.0744 -0.1426
 1202XCA     C210820   6.169   3.196   4.599  0.0659 -0.0354 -0.0698
 1202XCA     C310821   5.955   3.442   5.003  0.1645  0.3352 -0.2239
 1202XCA     C410822   5.729   3.538   5.368  0.0252  0.0294  0.1110
 1202XCA     C510823   5.444   3.623   5.841  0.0469  0.0093 -0.0178
 1202XCA     C610824   5.296   3.748   6.255  0.1654  0.3598 -0.0656
 1203PNCE   AM110825   7.708   1.424   5.087  0.1649 -0.0882  0.0465
 1203PNCE   AM210826   7.357   1.541   5.026  0.0304 -0.1458  0.1363
 1203PNCE   T1A10827   7.721   1.133   5.450  0.2627  0.1585  0.0883
 1203PNCE   C2A10828   7.824   0.681   5.548 -0.1130 -0.0326 -0.0405
 1203PNCE   C3A10829   8.061   0.251   5.520  0.0673  0.0101  0.0389
 1203PNCE   C1B10830   7.249   1.205   5.139 -0.2431  0.3470 -0.0075
 1203PNCE   C2B10831   6.881   0.879   5.263  0.1656  0.1452  0.0106
 1203PNCE   C3B10832   6.520   0.732   5.446  0.1550  0.2966 -0.0111
 1203PNCE   D4B10833   6.117   0.887   5.381  0.3286 -0.0159 -0.1492
 1203PNCE   C5B10834   6.151   1.027   5.655 -0.0517  0.1481 -0.3499
 1203PNCE   C6B10835   6.214   0.864   5.964  0.4789 -0.1092 -0.3382
 1204CHOL   ROH10836   6.754   3.404   4.102  0.1575 -0.1152  0.1531
 1204CHOL    R110837   6.725   3.527   4.356  0.0831 -0.0679  0.1226
 1204CHOL    R210838   6.481   3.613   4.453  0.0521 -0.0528  0.0380
 1204CHOL    R310839   6.547   3.456   4.665 -0.0046 -0.0137  0.0843
 1204CHOL    R410840   6.364   3.656   4.775 -0.1485 -0.0853 -0.0293
 1204CHOL    R510841   6.563   3.608   4.849 -0.1719  0.0007  0.0865
 1204CHOL    C110842   6.359   3.534   5.162 -0.3185 -0.0675 -0.0251
 1204CHOL    C210843   6.263   3.569   5.570 -0.1627 -0.1857  0.0806
 1205CHOL   ROH10844   6.675   8.891   9.115 -0.2818 -0.3337  0.0394
 1205CHOL    R110845   6.888   8.910   8.929 -0.1950 -0.2809  0.1458
 1205CHOL    R210846   6.979   8.693   8.784 -0.3260 -0.1757 -0.0819
 1205CHOL    R310847   6.933   8.857   8.572 -0.0985  0.1253  0.0899
 1205CHOL    R410848   7.155   8.685   8.487 -0.4405 -0.2393 -0.1501
 1205CHOL    R510849   7.151   8.903   8.484 -0.0255 -0.2097  0.0633
 1205CHOL    C110850   7.214   8.833   8.114 -0.2937  0.0063 -0.0285
 1205CHOL    C210851   7.548   8.616   8.009  0.3580 -0.1543  0.1369
 1206PNCE   AM110852   3.096   5.226   5.183 -0.0127  0.3650 -0.1643
 1206PNCE   AM210853   3.349   5.458   5.240  0.0781 -0.3236  0.0043
 1206PNCE   T1A10854   2.793   5.080   5.565 -0.1073  0.0776  0.1020
 1206PNCE   C2A10855   2.657   5.218   6.140  0.0324  0.0498 -0.1538
 1206PNCE   C3A10856   2.866   5.029   6.499  0.1113 -0.1973  0.3010
 1206PNCE   C1B10857   3.519   5.531   5.708  0.0211 -0.3698 -0.2725
 1206PNCE   C2B10858   3.331   5.451   6.142 -0.2674 -0.1641 -0.1220
 1206PNCE   C3B10859   3.122   5.463   6.516 -0.1176 -0.1119  0.1608
 1206PNCE   D4B10860   3.235   5.462   6.884  0.1513 -0.0292 -0.4969
 1206PNCE   C5B10861   2.782   5.535   7.086 -0.1096  0.3861 -0.0599
 1206PNCE   C6B10862   2.390   5.326   7.180  0.0563  0.2341  0.2374
 1207CHOL   ROH10863  13.903   4.111   7.599  0.0373  0.0616  0.1143
 1207CHOL    R110864  14.048   4.027   7.371 -0.0212  0.0200  0.0925
 1207CHOL    R210865  14.043   4.166   7.132 -0.0528 -0.0035  0.0804
 1207CHOL    R310866  14.313   4.163   7.162 -0.0466 -0.0359  0.0234
 1207CHOL    R410867  14.270   4.173   6.872 -0.1058  0.0786  0.0352
 1207CHOL    R510868  14.391   4.027   6.980 -0.0944  0.0271 -0.0452
 1207CHOL    C110869  14.656   4.173   6.748 -0.1309  0.0960 -0.0446
 1207CHOL    C210870  14.604   4.054   6.385  0.4333 -0.1814  0.0549
 1208PNCE   AM110871   2.178  10.939   5.462 -0.0085 -0.2010 -0.0856
 1208PNCE   AM210872   1.910  10.796   5.399 -0.1403  0.1633  0.1514
 1208PNCE   T1A10873   1.966  11.089   5.838  0.1310 -0.0873  0.0300
 1208PNCE   C2A10874   1.787  11.233   6.217 -0.4093  0.1100  0.0074
 1208PNCE   C3A10875   1.962  11.206   6.567  0.0996  0.0152 -0.0008
 1208PNCE   C1B10876   1.569  10.987   5.539 -0.3556  0.2758 -0.1385
 1208PNCE   C2B10877   1.330  11.106   5.945  0.0698  0.1837  0.1807
 1208PNCE   C3B10878   0.856  11.047   5.971  0.0370  0.1921  0.0042
 1208PNCE   D4B10879   0.563  10.884   5.740  0.0423  0.0433  0.1448
 1208PNCE   C5B10880   0.250  11.026   5.996 -0.3976 -0.0173 -0.1900
 1208PNCE   C6B10881  -0.018  11.275   6.186  0.2753  0.4088 -0.0120
 1209XCA    COO10882   5.350   3.634   4.264  0.2395  0.0361  0.0909
 1209XCA     C110883   5.606   3.422   4.668 -0.0942 -0.1645 -0.2453
 1209XCA     C210884   5.410   3.361   5.034  0.1371 -0.1982  0.0739
 1209XCA     C310885   5.205   3.342   5.516 -0.0303  0.1036 -0.0413
 1209XCA     C410886   5.220   3.035   5.781  0.0702  0.1428  0.1634
 1209XCA     C510887   5.031   2.834   6.072  0.2480  0.0382 -0.0901
 1209XCA     C610888   4.600   2.771   6.377 -0.2854  0.1106  0.0257
 1210PNCE   AM110889   8.908  14.013   3.982  0.3561  0.1903  0.2598
 1210PNCE   AM210890   8.969  13.580   3.931 -0.0458 -0.2018  0.2220
 1210PNCE   T1A10891   8.762  13.814   4.479 -0.3701  0.0724  0.0356
 1210PNCE   C2A10892   8.973  13.702   4.799  0.1221 -0.1352  0.0387
 1210PNCE   C3A10893   9.342  13.637   5.136 -0.3727 -0.2868  0.0147
 1210PNCE   C1B10894   9.192  13.531   4.311  0.1683  0.1898 -0.2856
 1210PNCE   C2B10895   9.446  13.821   4.583  0.0443  0.0927 -0.0317
 1210PNCE   C3B10896   9.483  14.055   4.904 -0.0573  0.2638 -0.2640
 1210PNCE   D4B10897   9.731  14.336   5.057 -0.0571  0.0058 -0.2505
 1210PNCE   C5B10898   9.622  14.733   4.917  0.1358 -0.1132 -0.1790
 1210PNCE   C6B10899   9.616  15.065   4.717 -0.0565  0.3480 -0.0495
 1211PNCE   AM110900  13.734  12.343   3.903 -0.3070 -0.2902  0.1647
 1211PNCE   AM210901  13.674  11.971   3.856  0.0145  0.1627  0.0338
 1211PNCE   T1A10902  14.016  12.144   4.157 -0.1313 -0.0753  0.0634
 1211PNCE   C2A10903  14.071  11.853   4.459 -0.1966 -0.0103 -0.1454
 1211PNCE   C3A10904  14.117  11.717   4.846 -0.1271 -0.0474  0.0198
 1211PNCE   C1B10905  13.727  11.581   4.201 -0.0783  0.0151  0.0886
 1211PNCE   C2B10906  13.572  11.417   4.554  0.2457 -0.2608  0.0411
 1211PNCE   C3B10907  13.437  11.675   4.827  0.0066 -0.2388  0.0153
 1211PNCE   D4B10908  13.232  11.796   5.256  0.0962 -0.1131 -0.2209
 1211PNCE   C5B10909  13.383  11.776   5.669  0.0646  0.2454 -0.0494
 1211PNCE   C6B10910  13.602  11.951   6.002  0.1106 -0.0922 -0.0211
 1212CHOL   ROH10911  13.773  14.610   7.487 -0.1295  0.1105 -0.0428
 1212CHOL    R110912  13.818  14.610   7.208 -0.1966  0.0521 -0.0543
 1212CHOL    R210913  14.043  14.495   7.093 -0.1467  0.1611 -0.0729
 1212CHOL    R310914  13.858  14.359   6.947 -0.0959 -0.0060  0.0172
 1212CHOL    R410915  14.088  14.387   6.768 -0.1865  0.1411 -0.0714
 1212CHOL    R510916  13.883  14.445   6.725 -0.2460 -0.0253 -0.0056
 1212CHOL    C110917  13.941  14.196   6.442 -0.1622 -0.0274  0.0140
 1212CHOL    C210918  14.195  14.224   6.176 -0.2134  0.3176 -0.3743
 1213PNCE   AM110919  13.369   8.019   4.940 -0.3827  0.2428  0.1453
 1213PNCE   AM210920  13.193   7.794   4.636 -0.1610 -0.0770  0.4086
 1213PNCE   T1A10921  13.028   7.840   5.269  0.2122 -0.0768 -0.0397
 1213PNCE   C2A10922  12.688   7.882   5.650  0.0474  0.0212 -0.1453
 1213PNCE   C3A10923  12.550   7.714   6.049  0.3871 -0.1064  0.1444
 1213PNCE   C1B10924  13.255   7.500   5.010  0.0764 -0.3408  0.0134
 1213PNCE   C2B10925  13.276   7.088   5.204 -0.0770  0.1307  0.1224
 1213PNCE   C3B10926  13.090   6.739   5.475 -0.2990 -0.2103  0.0365
 1213PNCE   D4B10927  12.997   6.517   5.826 -0.0233  0.0734 -0.0742
 1213PNCE   C5B10928  12.610   6.328   6.036 -0.0004 -0.1640 -0.2870
 1213PNCE   C6B10929  12.339   6.101   6.315  0.3949 -0.0853  0.0828
 1214PNCE   AM110930   0.303   6.765   4.819 -0.1183 -0.0873  0.1170
 1214PNCE   AM210931   0.229   6.559   4.924 -0.2268  0.0365 -0.1577
 1214PNCE   T1A10932  -0.137   6.946   5.085  0.0563 -0.2115  0.0003
 1214PNCE   C2A10933  -0.443   6.878   5.449 -0.0058 -0.0815  0.2089
 1214PNCE   C3A10934  -0.575   6.500   5.757  0.1068  0.0883 -0.1820
 1214PNCE   C1B10935   0.368   6.196   5.246  0.0181 -0.0003  0.1892
 1214PNCE   C2B10936   0.289   6.103   5.645  0.1261 -0.1008 -0.3921
 1214PNCE   C3B10937   0.151   5.931   6.007  0.0138 -0.2236 -0.3486
 1214PNCE   D4B10938   0.179   5.467   6.224  0.0322 -0.2378 -0.2911
 1214PNCE   C5B10939   0.114   5.117   5.995 -0.5539  0.1588 -0.1017
 1214PNCE   C6B10940  -0.193   5.099   5.794  0.3125  0.0163 -0.0219
 1215XCA    COO10941  15.876  14.549   4.515 -0.1076 -0.0832 -0.0960
 1215XCA     C110942  15.680  14.396   4.924  0.2240 -0.0243  0.0795
 1215XCA     C210943  15.449  14.406   5.313 -0.1294 -0.1172 -0.0510
 1215XCA     C310944  15.132  14.202   5.531 -0.1568 -0.2435  0.0628
 1215XCA     C410945  14.992  14.028   5.841  0.0194  0.3352 -0.0329
 1215XCA     C510946  15.244  13.911   6.156  0.0487  0.1241 -0.0604
 1215XCA     C610947  15.048  13.580   6.450 -0.0996  0.2339  0.2390
 1216CHOL   ROH10948   7.004  15.122   8.798  0.0212 -0.1973  0.1052
 1216CHOL    R110949   6.817  14.911   8.832 -0.1028 -0.0747  0.1959
 1216CHOL    R210950   6.544  14.954   8.837 -0.1101  0.0289 -0.3658
 1216CHOL    R310951   6.544  14.766   8.641  0.1877 -0.3630 -0.0093
 1216CHOL    R410952   6.287  14.732   8.777 -0.2607  0.2693 -0.6316
 1216CHOL    R510953   6.436  14.577   8.740 -0.3503 -0.0253  0.0844
 1216CHOL    C110954   6.137  14.426   8.557 -0.0689  0.0413 -0.4516
 1216CHOL    C210955   5.784  14.415   8.651 -0.1822  0.2081 -0.0014
 1217CHOL   ROH10956   4.622   0.126   4.867 -0.1466 -0.1281 -0.1505
 1217CHOL    R110957   4.353   0.174   4.942 -0.1590 -0.1799 -0.1619
 1217CHOL    R210958   4.150  -0.007   4.893 -0.1057 -0.2613 -0.0853
 1217CHOL    R310959   4.107   0.017   5.160 -0.1052 -0.1690 -0.0931
 1217CHOL    R410960   3.839   0.004   5.043 -0.1057 -0.1430 -0.0933
 1217CHOL    R510961   3.915   0.158   5.177 -0.0726 -0.1192 -0.1395
 1217CHOL    C110962   3.617   0.034   5.381 -0.1052  0.0125 -0.1054
 1217CHOL    C210963   3.440   0.026   5.726 -0.1481 -0.2117 -0.1471
 1218CHOL   ROH10964   2.545  11.145   5.774 -0.0760  0.0920 -0.1953
 1218CHOL    R110965   2.458  11.379   5.907  0.0287  0.1045 -0.1478
 1218CHOL    R210966   2.226  11.513   5.837  0.0352  0.1644 -0.0542
 1218CHOL    R310967   2.166  11.480   6.100  0.1228  0.1630 -0.0340
 1218CHOL    R410968   2.031  11.728   6.024 -0.0702  0.0599 -0.0428
 1218CHOL    R510969   2.169  11.701   6.190 -0.0090  0.1816 -0.0710
 1218CHOL    C110970   1.861  11.822   6.380 -0.0493 -0.0022 -0.0172
 1218CHOL    C210971   1.691  11.679   6.734  0.0257  0.1240 -0.2312
 1219CHOL   ROH10972   5.575   1.150   7.881 -0.0285 -0.1540  0.1166
 1219CHOL    R110973   5.663   0.937   7.718  0.0184 -0.0885  0.0541
 1219CHOL    R210974   5.623   0.932   7.445 -0.0735 -0.0676  0.0632
 1219CHOL    R310975   5.892   0.895   7.438 -0.0575  0.0659 -0.0310
 1219CHOL    R410976   5.789   0.751   7.203 -0.0622  0.0242  0.0028
 1219CHOL    R510977   5.918   0.669   7.360  0.0306  0.0838 -0.0463
 1219CHOL    C110978   6.139   0.610   7.054 -0.0407  0.2030 -0.1208
 1219CHOL    C210979   6.364   0.391   6.767  0.0581  0.0365  0.0467
 1220XCA    COO10980  13.249   1.708   4.075 -0.0599 -0.0331  0.0711
 1220XCA     C110981  13.160   1.824   4.478 -0.0341 -0.4990 -0.1968
 1220XCA     C210982  13.024   1.872   4.989  0.1079  0.1642 -0.0133
 1220XCA     C310983  13.157   1.622   5.315  0.0685  0.2856  0.1737
 1220XCA     C410984  13.537   1.622   5.566 -0.0456 -0.0167  0.1853
 1220XCA     C510985  13.796   1.302   5.810  0.1263  0.0543  0.1663
 1220XCA     C610986  13.753   1.183   6.257 -0.2988 -0.2751 -0.2461
 1221CHOL   ROH10987   7.606   4.471   6.347 -0.1355  0.1877  0.1934
 1221CHOL    R110988   7.466   4.244   6.443 -0.0720  0.0971  0.0753
 1221CHOL    R210989   7.305   4.253   6.666 -0.1172 -0.0528  0.0517
 1221CHOL    R310990   7.119   4.150   6.496 -0.0483 -0.0491 -0.0262
 1221CHOL    R410991   7.069   4.016   6.752 -0.0796 -0.1410 -0.0854
 1221CHOL    R510992   7.102   3.920   6.559 -0.0067 -0.0717 -0.1045
 1221CHOL    C110993   6.757   3.781   6.643  0.0070 -0.1888 -0.2383
 1221CHOL    C210994   6.508   3.453   6.697  0.0739 -0.1005  0.0638
 1222PNCE   AM110995   4.083   5.086   5.452 -0.1017  0.0159  0.0423
 1222PNCE   AM210996   3.858   5.295   5.137  0.3083 -0.0771 -0.1311
 1222PNCE   T1A10997   3.941   5.285   5.674 -0.3182  0.0227 -0.2268
 1222PNCE   C2A10998   3.842   5.349   6.103 -0.0585  0.1131 -0.0395
 1222PNCE   C3A10999   3.720   5.453   6.552  0.0069 -0.1475  0.0186
 1222PNCE   C1B11000   3.613   5.025   5.365  0.1808 -0.1464  0.1406
 1222PNCE   C2B11001   3.326   5.003   5.653  0.2330  0.2046  0.1365
 1222PNCE   C3B11002   3.123   4.874   6.061 -0.3115 -0.1232  0.1925
 1222PNCE   D4B11003   2.945   4.557   6.421  0.1938 -0.2617 -0.3668
 1222PNCE   C5B11004   2.795   4.139   6.410  0.0513  0.0902  0.1361
 1222PNCE   C6B11005   2.431   3.937   6.687  0.0788 -0.1343  0.1166
 1223PNCE   AM111006   5.458  13.688   4.935  0.2845 -0.1508  0.1199
 1223PNCE   AM211007   5.486  13.908   5.099  0.1184  0.2814  0.0537
 1223PNCE   T1A11008   5.437  13.537   5.410  0.2569 -0.3442 -0.2050
 1223PNCE   C2A11009   5.271  13.566   5.824 -0.1967 -0.3359  0.3190
 1223PNCE   C3A11010   5.307  13.722   6.248  0.0143  0.0051  0.2008
 1223PNCE   C1B11011   5.402  14.141   5.581  0.1057 -0.1568 -0.2828
 1223PNCE   C2B11012   5.172  14.146   5.972 -0.0341 -0.2172 -0.2230
 1223PNCE   C3B11013   4.943  14.302   6.283 -0.1585 -0.0911  0.1560
 1223PNCE   D4B11014   4.685  14.587   6.506  0.2777 -0.1225 -0.0765
 1223PNCE   C5B11015   4.429  14.527   6.782  0.2405 -0.0078 -0.1360
 1223PNCE   C6B11016   4.101  14.589   7.109 -0.0833 -0.2556 -0.2094
 1224PNCE   AM111017   7.066   7.247   5.347 -0.1589  0.0007 -0.1098
 1224PNCE   AM211018   7.428   7.169   5.526 -0.1195 -0.0140  0.1433
 1224PNCE   T1A11019   6.977   7.029   5.778 -0.1725  0.3327  0.0374
 1224PNCE   C2A11020   6.982   7.054   6.205  0.1215 -0.0851 -0.1360
 1224PNCE   C3A11021   7.144   6.908   6.637  0.0739  0.1430 -0.1032
 1224PNCE   C1B11022   7.769   7.422   5.684  0.3961 -0.1836 -0.1435
 1224PNCE   C2B11023   7.965   7.501   6.039 -0.0932 -0.0207 -0.0471
 1224PNCE   C3B11024   8.330   7.304   6.176 -0.1246  0.1032  0.1233
 1224PNCE   D4B11025   8.627   7.420   6.499  0.0867 -0.1802 -0.1357
 1224PNCE   C5B11026   8.320   7.493   6.905  0.2181  0.1421  0.0885
 1224PNCE   C6B11027   8.048   7.385   7.308 -0.1998 -0.1930 -0.2266
 1225XCA    COO11028   9.141  12.619   9.244  0.0917 -0.2682  0.1534
 1225XCA     C111029   9.131  12.744   8.704  0.1343 -0.0413  0.1441
 1225XCA     C211030   9.372  12.983   8.390 -0.1239  0.2170 -0.3231
 1225XCA     C311031   9.521  13.162   8.012 -0.0987  0.1013  0.2035
 1225XCA     C411032   9.384  13.047   7.646  0.1259 -0.4520  0.3103
 1225XCA     C511033   8.998  12.957   7.431  0.0435 -0.1271 -0.0776
 1225XCA     C611034   8.800  13.065   7.038 -0.0833 -0.1072  0.1735
 1226CHOL   ROH11035   3.024   6.396   6.974  0.0883  0.1175  0.0232
 1226CHOL    R111036   3.181   6.202   7.108 -0.0218  0.1809  0.2506
 1226CHOL    R211037   3.087   6.059   7.325 -0.3419  0.0266  0.0245
 1226CHOL    R311038   3.159   5.845   7.174  0.1049  0.1383  0.0657
 1226CHOL    R411039   3.132   5.738   7.446 -0.3951 -0.0027 -0.0342
 1226CHOL    R511040   3.306   5.719   7.316 -0.1070  0.1648  0.3118
 1226CHOL    C111041   3.226   5.351   7.375 -0.0067  0.0850 -0.0299
 1226CHOL    C211042   3.559   5.036   7.378  0.1329  0.0558  0.4555
 1227CHOL   ROH11043   0.523  13.104   5.373  0.2591  0.0690 -0.0460
 1227CHOL    R111044   0.505  13.354   5.504  0.0064  0.0564 -0.0511
 1227CHOL    R211045   0.269  13.497   5.519 -0.1355 -0.1669 -0.0751
 1227CHOL    R311046   0.320  13.493   5.786 -0.1553 -0.1149 -0.0709
 1227CHOL    R411047   0.145  13.725   5.748  0.0190  0.0045 -0.1601
 1227CHOL    R511048   0.340  13.724   5.847  0.0129 -0.1072 -0.1486
 1227CHOL    C111049   0.121  13.853   6.132  0.0903  0.1531 -0.2057
 1227CHOL    C211050   0.070  14.130   6.475  0.3230 -0.2283 -0.1857
 1228XCA    COO11051  13.046  15.029   7.347 -0.3191  0.2909 -0.2433
 1228XCA     C111052  13.059  14.984   6.839  0.3791 -0.0295 -0.2309
 1228XCA     C211053  12.735  14.975   6.510 -0.2902 -0.1389 -0.1218
 1228XCA     C311054  12.714  14.789   6.057 -0.1362  0.0722 -0.0610
 1228XCA     C411055  12.763  14.422   5.717  0.0729 -0.1922  0.0459
 1228XCA     C511056  12.742  13.985   5.599 -0.0524 -0.1413 -0.0395
 1228XCA     C611057  12.621  13.610   5.826 -0.0769 -0.3406 -0.0781
 1229CHOL   ROH11058  14.703  13.874   7.574 -0.0407 -0.0798  0.1710
 1229CHOL    R111059  14.584  13.810   7.325 -0.0020  0.0337  0.1219
 1229CHOL    R211060  14.726  13.805   7.089  0.0634  0.0218  0.1594
 1229CHOL    R311061  14.626  13.553   7.070 -0.0502  0.0725  0.0754
 1229CHOL    R411062  14.752  13.603   6.809  0.0681  0.0588  0.1331
 1229CHOL    R511063  14.546  13.538   6.845  0.0252  0.1505  0.0446
 1229CHOL    C111064  14.673  13.249   6.629 -0.0359  0.1280  0.0390
 1229CHOL    C211065  14.716  13.202   6.248  0.0539  0.1176 -0.0108
 1230CHOL   ROH11066  14.513   9.500   5.082  0.0836 -0.3771 -0.0508
 1230CHOL    R111067  14.544   9.490   5.363  0.1403 -0.2573 -0.0518
 1230CHOL    R211068  14.639   9.703   5.510  0.0035 -0.1308 -0.1402
 1230CHOL    R311069  14.409   9.668   5.650  0.0523 -0.2601 -0.0918
 1230CHOL    R411070  14.572   9.846   5.817 -0.0386 -0.1279 -0.1509
 1230CHOL    R511071  14.480   9.658   5.879  0.0978 -0.1768 -0.1041
 1230CHOL    C111072  14.316   9.896   6.128 -0.0172 -0.2477 -0.1117
 1230CHOL    C211073  14.353  10.255   6.189  0.0308  0.1668  0.0668
 1231CHOL   ROH11074   1.163  15.635   8.023 -0.0454  0.0416 -0.0609
 1231CHOL    R111075   1.138  15.465   7.797 -0.0853  0.0221 -0.0419
 1231CHOL    R211076   0.949  15.507   7.600 -0.0623  0.0565 -0.0574
 1231CHOL    R311077   1.166  15.500   7.436 -0.0550 -0.0294 -0.0443
 1231CHOL    R411078   0.935  15.482   7.255 -0.0415 -0.3033 -0.0353
 1231CHOL    R511079   1.104  15.345   7.264  0.0100 -0.2310  0.1113
 1231CHOL    C111080   1.130  15.460   6.901 -0.0226 -0.5935 -0.0101
 1231CHOL    C211081   0.970  15.418   6.562  0.1356 -0.0164 -0.1928
 1232XCA    COO11082  15.513  10.746   8.297  0.2833 -0.0163  0.1400
 1232XCA     C111083  15.529  10.699   7.844  0.0000 -0.1042 -0.2082
 1232XCA     C211084  15.481  10.982   7.563 -0.2576  0.2369 -0.0011
 1232XCA     C311085  15.228  11.239   7.420  0.4349 -0.2125 -0.1635
 1232XCA     C411086  15.169  11.717   7.468  0.0028  0.1946 -0.2531
 1232XCA     C511087  14.991  12.014   7.063 -0.1498 -0.0044 -0.3006
 1232XCA     C611088  14.890  12.299   6.754  0.1692 -0.0378 -0.3480
 1233PNCE   AM111089   3.114  13.082   5.224  0.3539 -0.2692 -0.1914
 1233PNCE   AM211090   2.940  13.381   5.042  0.1090 -0.1319  0.0154
 1233PNCE   T1A11091   2.728  13.006   5.371 -0.1048  0.1368  0.1656
 1233PNCE   C2A11092   2.553  13.115   5.768 -0.1233 -0.0240  0.0800
 1233PNCE   C3A11093   2.536  13.227   6.185 -0.2027 -0.0436  0.0204
 1233PNCE   C1B11094   2.864  13.421   5.479 -0.2949 -0.1953  0.1316
 1233PNCE   C2B11095   2.730  13.577   5.905  0.1331  0.2559  0.0255
 1233PNCE   C3B11096   2.380  13.778   6.140 -0.2896 -0.3707 -0.1445
 1233PNCE   D4B11097   2.451  14.038   6.424 -0.0955 -0.2113  0.0634
 1233PNCE   C5B11098   2.821  14.176   6.274  0.1333  0.1092  0.1671
 1233PNCE   C6B11099   3.086  14.589   6.304  0.0933 -0.2176  0.3609
 1234PNCE   AM111100  14.354   4.437   3.967  0.0011  0.0498  0.1665
 1234PNCE   AM211101  14.536   4.665   4.020  0.0669  0.1457  0.0394
 1234PNCE   T1A11102  14.110   4.339   4.411  0.0787  0.1815 -0.3687
 1234PNCE   C2A11103  14.148   4.243   4.886  0.1551  0.2783  0.0352
 1234PNCE   C3A11104  14.252   4.123   5.303  0.0200 -0.3190 -0.0922
 1234PNCE   C1B11105  14.771   4.430   4.334  0.0817 -0.1019 -0.0820
 1234PNCE   C2B11106  14.614   4.117   4.557 -0.0824 -0.0512  0.0820
 1234PNCE   C3B11107  14.710   3.924   4.905 -0.0249  0.0591 -0.1930
 1234PNCE   D4B11108  14.793   3.886   5.389 -0.0555 -0.0098  0.1573
 1234PNCE   C5B11109  15.099   4.322   5.579 -0.2309 -0.1510 -0.1807
 1234PNCE   C6B11110  15.291   4.714   5.703  0.1573  0.0105 -0.0637
 1235PNCE   AM111111   2.955  14.398   3.846 -0.0495 -0.1283  0.0235
 1235PNCE   AM211112   3.299  14.341   4.014 -0.0106 -0.0053 -0.1128
 1235PNCE   T1A11113   2.743  14.830   3.808  0.1828 -0.2062  0.0562
 1235PNCE   C2A11114   2.734  15.203   3.807 -0.3572 -0.4089  0.0908
 1235PNCE   C3A11115   2.894  15.648   3.720  0.0506  0.0770  0.2851
 1235PNCE   C1B11116   2.922  14.433   4.365  0.1412  0.3658 -0.1378
 1235PNCE   C2B11117   2.983  14.595   4.694 -0.6545  0.4249  0.2799
 1235PNCE   C3B11118   2.945  14.924   4.926 -0.2940  0.0423 -0.1084
 1235PNCE   D4B11119   2.819  15.164   5.230 -0.3255 -0.1322 -0.1068
 1235PNCE   C5B11120   2.849  15.099   5.664  0.0516 -0.0259 -0.1407
 1235PNCE   C6B11121   3.172  14.915   5.916 -0.0819  0.4139 -0.1093
 1236PNCE   AM111122   4.794   2.438   3.554  0.2716  0.0412 -0.2712
 1236PNCE   AM211123   4.881   2.522   3.905 -0.0287  0.0256  0.0473
 1236PNCE   T1A11124   4.430   2.415   3.942 -0.0334  0.1204 -0.0232
 1236PNCE   C2A11125   4.282   2.371   4.291  0.0858  0.1563  0.1111
 1236PNCE   C3A11126   4.484   2.440   4.734 -0.0507  0.0539  0.3777
 1236PNCE   C1B11127   4.719   2.667   4.358 -0.1348 -0.1573  0.0635
 1236PNCE   C2B11128   4.734   2.842   4.777 -0.1647 -0.0212  0.3399
 1236PNCE   C3B11129   4.607   3.041   5.276 -0.0131  0.0604  0.1180
 1236PNCE   D4B11130   4.713   3.105   5.680  0.1182  0.1088 -0.0510
 1236PNCE   C5B11131   4.440   3.086   6.010  0.1707 -0.1977  0.2290
 1236PNCE   C6B11132   4.232   3.097   6.385 -0.0065 -0.2420  0.1867
 1237CHOL   ROH11133   6.625   8.047   5.744 -0.3683  0.0500  0.0996
 1237CHOL    R111134   6.619   8.212   5.974 -0.2619  0.0882  0.0763
 1237CHOL    R211135   6.516   8.126   6.216 -0.2244  0.1549  0.1186
 1237CHOL    R311136   6.759   8.202   6.310 -0.1776  0.0995  0.0412
 1237CHOL    R411137   6.574   8.256   6.531 -0.0536 -0.1056  0.1971
 1237CHOL    R511138   6.714   8.398   6.441 -0.1213 -0.0157  0.2342
 1237CHOL    C111139   6.836   8.404   6.802  0.0898 -0.3093  0.1702
 1237CHOL    C211140   6.913   8.709   7.006  0.3496 -0.4694 -0.1386
 1238XCA    COO11141   3.041   9.329   5.630 -0.1636  0.2654  0.1869
 1238XCA     C111142   3.176   9.476   6.138 -0.1876  0.2557 -0.1767
 1238XCA     C211143   3.203   9.527   6.585  0.3292 -0.4648 -0.0134
 1238XCA     C311144   3.108   9.693   6.970  0.1007  0.2643 -0.0006
 1238XCA     C411145   3.275  10.103   7.207 -0.1478 -0.2210 -0.1271
 1238XCA     C511146   3.563  10.338   7.237  0.3641  0.0147 -0.0301
 1238XCA     C611147   3.848  10.529   7.351  0.1011 -0.3435  0.0977
 1239XCA    COO11148  14.007   1.556   4.085 -0.1623 -0.2561  0.2201
 1239XCA     C111149  13.649   1.481   4.373 -0.1435 -0.2676 -0.1051
 1239XCA     C211150  13.432   1.638   4.778 -0.2555 -0.4072 -0.0541
 1239XCA     C311151  13.650   1.827   5.089 -0.0109 -0.0126  0.0876
 1239XCA     C411152  13.962   1.749   5.352 -0.2515  0.1241 -0.3956
 1239XCA     C511153  14.383   1.837   5.471  0.1910 -0.2073  0.3363
 1239XCA     C611154  14.774   2.089   5.477  0.1159 -0.1365  0.0087
 1240PNCE   AM111155   5.944   6.028   4.958  0.2874  0.2569 -0.4153
 1240PNCE   AM211156   5.567   6.056   5.019  0.2995 -0.0533  0.1724
 1240PNCE   T1A11157   6.165   6.043   5.258  0.0989  0.1493  0.0698
 1240PNCE   C2A11158   6.470   6.241   5.611 -0.0196  0.4648  0.0915
 1240PNCE   C3A11159   6.664   6.078   6.000 -0.2363 -0.2265  0.1144
 1240PNCE   C1B11160   5.660   6.060   5.450 -0.3536 -0.1352  0.0219
 1240PNCE   C2B11161   5.678   5.852   5.721 -0.2855  0.1165  0.0090
 1240PNCE   C3B11162   5.891   5.607   6.018 -0.2994  0.2339  0.0461
 1240PNCE   D4B11163   5.929   5.240   6.311 -0.0865  0.1643 -0.0926
 1240PNCE   C5B11164   5.808   4.807   6.298 -0.2353  0.0872 -0.3154
 1240PNCE   C6B11165   5.531   4.624   6.646 -0.2456  0.2597 -0.0447
 1241CHOL   ROH11166  15.836   9.846   8.651  0.0952  0.3045  0.1021
 1241CHOL    R111167  15.828   9.958   8.391 -0.0054  0.0804  0.0074
 1241CHOL    R211168  16.052  10.062   8.267 -0.0907  0.1221 -0.0986
 1241CHOL    R311169  15.983   9.889   8.070  0.0052 -0.0871  0.0456
 1241CHOL    R411170  16.145  10.092   7.935 -0.2482  0.0022 -0.1559
 1241CHOL    R511171  15.945  10.027   7.879 -0.2143 -0.2446 -0.0359
 1241CHOL    C111172  16.134   9.946   7.557 -0.2500 -0.2641 -0.0539
 1241CHOL    C211173  16.179  10.164   7.258  0.1459  0.0849 -0.1441
 1242PNCE   AM111174   3.534   0.922   3.905  0.1660 -0.1242 -0.0014
 1242PNCE   AM211175   3.556   1.229   3.897  0.0340 -0.0641 -0.0234
 1242PNCE   T1A11176   3.164   0.643   4.169  0.0619  0.2523  0.3992
 1242PNCE   C2A11177   2.976   0.425   4.430 -0.2379 -0.0341  0.1091
 1242PNCE   C3A11178   3.026   0.017   4.590  0.0465 -0.1233 -0.2781
 1242PNCE   C1B11179   3.244   1.193   4.260  0.1909 -0.1883  0.1084
 1242PNCE   C2B11180   3.019   1.172   4.677  0.0286 -0.5043  0.3569
 1242PNCE   C3B11181   3.084   1.419   5.062 -0.0998  0.3511 -0.1242
 1242PNCE   D4B11182   3.255   1.378   5.410 -0.0744 -0.3691 -0.3220
 1242PNCE   C5B11183   3.495   1.719   5.429  0.1312 -0.0963  0.0368
 1242PNCE   C6B11184   3.692   2.036   5.807  0.2866 -0.0165  0.1257
 1243XCA    COO11185  10.326  13.405   3.758 -0.1686 -0.0098 -0.4975
 1243XCA     C111186  10.254  13.549   4.222 -0.2744  0.2794  0.3086
 1243XCA     C211187  10.421  13.689   4.630  0.2366 -0.2381 -0.0363
 1243XCA     C311188  10.456  13.615   5.015  0.1455 -0.0444  0.0402
 1243XCA     C411189  10.261  13.458   5.434  0.0530 -0.2382  0.1193
 1243XCA     C511190   9.932  13.322   5.704  0.0470 -0.2462 -0.3160
 1243XCA     C611191   9.680  13.236   6.042 -0.1293 -0.0562 -0.0711
 1244PNCE   AM111192   5.670   4.829   4.842 -0.2620 -0.2693  0.0110
 1244PNCE   AM211193   5.470   4.971   5.084 -0.0992 -0.0496 -0.0660
 1244PNCE   T1A11194   5.698   4.406   5.066  0.2049 -0.1991  0.2217
 1244PNCE   C2A11195   5.514   4.247   5.432  0.0576  0.2389 -0.2866
 1244PNCE   C3A11196   5.754   3.966   5.767 -0.1733  0.1690 -0.0703
 1244PNCE   C1B11197   5.671   4.750   5.474  0.0949 -0.0641 -0.3137
 1244PNCE   C2B11198   5.574   4.565   5.869 -0.4210  0.0800  0.0948
 1244PNCE   C3B11199   5.786   4.269   6.224  0.0254  0.3946  0.2957
 1244PNCE   D4B11200   5.635   4.011   6.563  0.0427 -0.0316  0.4018
 1244PNCE   C5B11201   5.839   3.643   6.406  0.3396 -0.1254  0.2461
 1244PNCE   C6B11202   5.569   3.282   6.267 -0.1350  0.1638  0.0088
 1245PNCE   AM111203  11.728  15.718   3.374  0.0804 -0.0099 -0.1274
 1245PNCE   AM211204  11.447  15.695   3.473 -0.1084  0.1972 -0.0586
 1245PNCE   T1A11205  11.691  16.071   3.592  0.0620  0.2526  0.1747
 1245PNCE   C2A11206  12.065  16.374   3.749 -0.5094 -0.1152 -0.0740
 1245PNCE   C3A11207  12.063  16.798   3.740 -0.0371 -0.0881 -0.3885
 1245PNCE   C1B11208  11.492  15.755   3.966 -0.0678  0.3141  0.1650
 1245PNCE   C2B11209  11.574  15.871   4.441  0.1270 -0.0085 -0.0075
 1245PNCE   C3B11210  11.679  15.949   4.830 -0.2043  0.1380 -0.1512
 1245PNCE   D4B11211  11.547  15.660   5.067  0.0005 -0.0557  0.1447
 1245PNCE   C5B11212  11.078  15.790   5.225  0.0906  0.0225 -0.1935
 1245PNCE   C6B11213  10.716  15.540   5.305  0.0293 -0.0744  0.0078
 1246PNCE   AM111214   2.695   6.205   5.211  0.0387  0.0314 -0.0877
 1246PNCE   AM211215   2.772   6.524   5.063 -0.1583 -0.1844  0.2563
 1246PNCE   T1A11216   2.764   6.171   5.587  0.0624 -0.1606 -0.1176
 1246PNCE   C2A11217   2.837   6.205   6.025  0.3653  0.0417 -0.3311
 1246PNCE   C3A11218   2.744   6.274   6.444  0.0621  0.1716  0.1965
 1246PNCE   C1B11219   2.814   6.715   5.473 -0.0430 -0.2472 -0.0093
 1246PNCE   C2B11220   2.962   6.714   5.975  0.0771  0.0814  0.0822
 1246PNCE   C3B11221   2.992   6.799   6.434  0.0152 -0.0028  0.0005
 1246PNCE   D4B11222   2.811   6.756   6.811  0.0301  0.0389  0.1100
 1246PNCE   C5B11223   2.837   6.996   7.233 -0.2128 -0.0763  0.0521
 1246PNCE   C6B11224   3.139   7.145   7.387 -0.0587 -0.3059 -0.0443
 1247CHOL   ROH11225   2.045   6.401   9.029 -0.0185 -0.1520  0.1572
 1247CHOL    R111226   2.321   6.344   9.051 -0.0583 -0.3226  0.2272
 1247CHOL    R211227   2.423   6.089   9.022 -0.1515 -0.3080 -0.3171
 1247CHOL    R311228   2.581   6.208   8.835  0.0414  0.0863  0.0784
 1247CHOL    R411229   2.750   5.999   8.953 -0.1414 -0.2926 -0.2896
 1247CHOL    R511230   2.799   6.211   8.935 -0.0272 -0.2523  0.2601
 1247CHOL    C111231   3.088   6.059   8.738  0.0457  0.0865  0.0977
 1247CHOL    C211232   3.457   5.967   8.940 -0.0547 -0.0143  0.0688
 1248XCA    COO11233   0.190  15.499   4.609 -0.3007  0.1703  0.2574
 1248XCA     C111234   0.203  15.631   4.947  0.2310  0.0802  0.2339
 1248XCA     C211235   0.185  15.758   5.376 -0.4521 -0.0038 -0.1429
 1248XCA     C311236   0.384  15.953   5.736  0.0724  0.1999 -0.0558
 1248XCA     C411237   0.660  16.244   6.003  0.1781  0.2398 -0.2723
 1248XCA     C511238   0.860  16.532   6.258 -0.0793  0.1334 -0.2849
 1248XCA     C611239   1.265  16.561   6.549  0.2405 -0.0340 -0.0502
 1249XCA    COO11240  15.105   2.988   7.275  0.0320  0.2641 -0.0209
 1249XCA     C111241  15.337   3.240   7.365 -0.1760 -0.3572 -0.4349
 1249XCA     C211242  15.403   3.619   7.105 -0.0131  0.0755  0.0819
 1249XCA     C311243  15.790   3.793   6.839 -0.1758  0.0454 -0.0310
 1249XCA     C411244  16.164   3.834   6.939  0.1692  0.1268  0.2198
 1249XCA     C511245  16.534   3.639   7.160 -0.1899 -0.1234  0.0037
 1249XCA     C611246  16.901   3.343   7.073  0.0337  0.1123 -0.1886
 1250CHOL   ROH11247  14.555   1.081   6.616  0.2757 -0.1552 -0.2307
 1250CHOL    R111248  14.340   0.901   6.574  0.1995 -0.0995 -0.0848
 1250CHOL    R211249  14.301   0.768   6.335  0.0363 -0.1368 -0.0395
 1250CHOL    R311250  14.302   0.548   6.494  0.0522 -0.1046  0.0046
 1250CHOL    R411251  14.138   0.472   6.264 -0.0738 -0.1095  0.0951
 1250CHOL    R511252  14.081   0.458   6.473  0.0190 -0.0520  0.1243
 1250CHOL    C111253  14.044   0.092   6.372 -0.1229 -0.0633  0.2148
 1250CHOL    C211254  13.906  -0.217   6.375  0.2019 -0.1920 -0.1126
 1251XCA    COO11255   5.076  15.105   8.879  0.0912 -0.2001 -0.0730
 1251XCA     C111256   5.048  14.917   8.399 -0.0822 -0.0488  0.4524
 1251XCA     C211257   5.149  14.863   8.008 -0.1386  0.2105 -0.1048
 1251XCA     C311258   5.553  14.683   7.728  0.1236 -0.3034  0.2952
 1251XCA     C411259   5.702  14.385   7.400  0.1980  0.2152 -0.2027
 1251XCA     C511260   5.795  14.225   6.971  0.3437 -0.1933 -0.0227
 1251XCA     C611261   5.514  14.006   6.649 -0.0307  0.2658 -0.0297
 1252CHOL   ROH11262   0.511   6.714   5.251  0.0319  0.0827 -0.0810
 1252CHOL    R111263   0.505   6.578   5.499 -0.1504 -0.0763 -0.1692
 1252CHOL    R211264   0.464   6.709   5.739  0.3255 -0.1225 -0.0478
 1252CHOL    R311265   0.263   6.528   5.766 -0.1252  0.3509 -0.0597
 1252CHOL    R411266   0.347   6.587   6.041  0.2575 -0.1126 -0.0703
 1252CHOL    R511267   0.332   6.390   5.949 -0.3203 -0.0022 -0.2450
 1252CHOL    C111268   0.091   6.346   6.242 -0.2053  0.3375 -0.0945
 1252CHOL    C211269  -0.000   6.201   6.613 -0.3240 -0.0354  0.0748
 1253CHOL   ROH11270  10.217  15.266   4.104  0.0983 -0.0078 -0.1495
 1253CHOL    R111271  10.179  15.451   4.315  0.0833  0.0082 -0.1667
 1253CHOL    R211272  10.258  15.398   4.574 -0.1199 -0.0558 -0.1187
 1253CHOL    R311273  10.391  15.634   4.547  0.0547 -0.1403 -0.0197
 1253CHOL    R411274  10.413  15.568   4.832 -0.3953 -0.0546  0.0498
 1253CHOL    R511275  10.339  15.755   4.748 -0.1715 -0.0387 -0.1327
 1253CHOL    C111276  10.628  15.888   4.957 -0.3918 -0.1331  0.2409
 1253CHOL    C211277  10.358  15.838   5.234 -0.1667  0.0594 -0.0497
 1254XCA    COO11278  13.678   8.124   5.429 -0.2658 -0.2805  0.0468
 1254XCA     C111279  14.098   8.222   5.709 -0.1971  0.2029 -0.3646
 1254XCA     C211280  14.059   8.224   6.092 -0.4064 -0.0002 -0.0730
 1254XCA     C311281  13.831   8.197   6.425  0.5353 -0.1607  0.2981
 1254XCA     C411282  13.629   8.214   6.804  0.1148 -0.3264  0.0016
 1254XCA     C511283  13.230   7.961   6.813 -0.1615  0.0419 -0.0075
 1254XCA     C611284  12.953   8.161   7.202 -0.1183 -0.0780  0.0126
 1255PNCE   AM111285  11.922   2.947   4.170  0.3339 -0.0232  0.3419
 1255PNCE   AM211286  12.323   2.878   4.123  0.3351  0.0824  0.0260
 1255PNCE   T1A11287  11.818   3.266   4.423  0.2344  0.0737  0.1063
 1255PNCE   C2A11288  11.857   3.296   4.849 -0.0377 -0.0755  0.0284
 1255PNCE   C3A11289  11.729   3.120   5.280  0.1865 -0.0861  0.4692
 1255PNCE   C1B11290  12.309   2.913   4.544  0.1436 -0.2843 -0.0674
 1255PNCE   C2B11291  12.641   2.711   4.938  0.0196  0.1917 -0.1617
 1255PNCE   C3B11292  13.017   2.778   5.229  0.1024  0.0430  0.3585
 1255PNCE   D4B11293  13.270   2.820   5.634 -0.0598  0.0953  0.0844
 1255PNCE   C5B11294  13.329   2.364   5.645  0.0383  0.2083 -0.0090
 1255PNCE   C6B11295  13.292   2.072   5.446  0.2912 -0.1292  0.3288
 1256CHOL   ROH11296   1.219   7.170   5.404  0.0340  0.5184 -0.0502
 1256CHOL    R111297   1.243   7.266   5.669  0.0377  0.3777  0.0014
 1256CHOL    R211298   1.023   7.335   5.823  0.0297  0.1607  0.0943
 1256CHOL    R311299   1.133   7.159   5.999  0.1734  0.1191 -0.0348
 1256CHOL    R411300   0.899   7.267   6.138  0.0962 -0.1626  0.0544
 1256CHOL    R511301   1.103   7.263   6.213  0.1018 -0.0569  0.0408
 1256CHOL    C111302   0.928   7.063   6.487  0.2698 -0.3899 -0.0901
 1256CHOL    C211303   0.779   6.834   6.768  0.0384 -0.4278 -0.0625
 1257XCA    COO11304  13.410   4.318   7.879 -0.1121 -0.0999 -0.2737
 1257XCA     C111305  13.574   4.514   7.532 -0.1562 -0.0274 -0.0612
 1257XCA     C211306  13.705   4.634   7.110  0.2165  0.2118  0.0783
 1257XCA     C311307  13.632   4.888   6.757  0.0433  0.0696 -0.0491
 1257XCA     C411308  13.471   4.805   6.378  0.0258 -0.1517 -0.1106
 1257XCA     C511309  13.490   4.854   5.972 -0.1089 -0.1188  0.0468
 1257XCA     C611310  13.508   4.598   5.540 -0.0986 -0.2374 -0.2618
 1258PNCE   AM111311   5.666  14.063   4.625 -0.1305 -0.1650 -0.0684
 1258PNCE   AM211312   5.695  14.384   4.476  0.3915 -0.0344  0.3545
 1258PNCE   T1A11313   5.983  14.133   4.970  0.2254  0.0098 -0.1129
 1258PNCE   C2A11314   5.880  14.245   5.371 -0.0056 -0.2492  0.0039
 1258PNCE   C3A11315   5.851  14.285   5.747 -0.0284  0.1659  0.0066
 1258PNCE   C1B11316   5.418  14.480   4.706  0.0329 -0.0388 -0.2420
 1258PNCE   C2B11317   5.457  14.495   5.151 -0.1855  0.3358  0.0547
 1258PNCE   C3B11318   5.506  14.610   5.575 -0.0805  0.0468  0.0822
 1258PNCE   D4B11319   5.379  14.606   6.013 -0.0811 -0.0258 -0.3497
 1258PNCE   C5B11320   5.145  14.814   6.372  0.3334 -0.1246 -0.0238
 1258PNCE   C6B11321   4.871  15.042   6.642  0.1961 -0.0027  0.0880
 1259CHOL   ROH11322  11.456  14.483   6.075  0.2308 -0.0071  0.0443
 1259CHOL    R111323  11.343  14.523   5.818  0.1850  0.0033  0.0662
 1259CHOL    R211324  11.270  14.313   5.654  0.0542  0.0107  0.1156
 1259CHOL    R311325  11.031  14.441   5.651  0.1080  0.1140  0.1540
 1259CHOL    R411326  11.003  14.227   5.453  0.0046  0.1584  0.1166
 1259CHOL    R511327  10.965  14.439   5.420  0.0927  0.1820  0.1565
 1259CHOL    C111328  10.622  14.297   5.333  0.0263  0.3412  0.1532
 1259CHOL    C211329  10.445  13.934   5.491  0.0596  0.0933  0.1374
 1260XCA    COO11330  13.675   9.112   5.250 -0.2753  0.0641 -0.4848
 1260XCA     C111331  13.583   9.330   5.774 -0.0358  0.2993  0.2172
 1260XCA     C211332  13.415   9.115   6.044 -0.1300  0.0384 -0.2788
 1260XCA     C311333  13.143   9.050   6.455  0.1913 -0.5039  0.0704
 1260XCA     C411334  12.810   9.302   6.690 -0.2451  0.0149 -0.1946
 1260XCA     C511335  12.866   9.763   6.605  0.2012 -0.0509 -0.1563
 1260XCA     C611336  13.145   9.954   6.467 -0.1796 -0.0378 -0.1306
 1261XCA    COO11337   6.588   7.567   8.781  0.2037  0.0041  0.0281
 1261XCA     C111338   6.598   8.094   8.612 -0.0852 -0.0041 -0.2367
 1261XCA     C211339   6.726   8.468   8.435 -0.0176  0.0399 -0.0043
 1261XCA     C311340   6.802   8.632   8.074  0.0866  0.1582  0.0009
 1261XCA     C411341   6.768   8.635   7.688  0.0753  0.4326 -0.0330
 1261XCA     C511342   6.486   8.688   7.278  0.0275 -0.0750 -0.1658
 1261XCA     C611343   6.194   8.687   7.108 -0.1130  0.0059 -0.3432
 1262PNCE   AM111344   8.929   5.096   4.658  0.0076 -0.0800  0.0874
 1262PNCE   AM211345   9.123   5.150   4.915 -0.2075  0.1001 -0.1407
 1262PNCE   T1A11346   8.583   5.182   4.857  0.2978  0.1332 -0.3803
 1262PNCE   C2A11347   8.369   5.112   5.288 -0.0300 -0.1441 -0.1364
 1262PNCE   C3A11348   8.155   5.379   5.470 -0.1219 -0.0822 -0.0640
 1262PNCE   C1B11349   9.200   4.891   5.289  0.0888 -0.3006 -0.2631
 1262PNCE   C2B11350   9.152   4.514   5.443 -0.1905 -0.1294 -0.0395
 1262PNCE   C3B11351   8.874   4.375   5.819  0.0913  0.0258 -0.1941
 1262PNCE   D4B11352   8.671   4.512   6.210 -0.1284 -0.1037 -0.0678
 1262PNCE   C5B11353   8.457   4.205   6.477 -0.0712 -0.2279  0.1353
 1262PNCE   C6B11354   8.477   4.196   6.992 -0.1411  0.0241 -0.4038
 1263XCA    COO11355   3.618  13.904   4.894 -0.1265 -0.1331  0.2192
 1263XCA     C111356   3.342  14.206   4.869 -0.0518 -0.0147 -0.1780
 1263XCA     C211357   3.319  14.558   5.079 -0.0087  0.1874 -0.3042
 1263XCA     C311358   3.426  14.541   5.478  0.0106 -0.1450  0.5738
 1263XCA     C411359   3.489  14.486   5.895  0.1155 -0.2136  0.2380
 1263XCA     C511360   3.373  14.219   6.276 -0.1815 -0.4597 -0.2468
 1263XCA     C611361   3.138  14.250   6.640  0.0094 -0.0840 -0.0225
 1264XCA    COO11362  13.495  13.047   7.758 -0.2861 -0.1861 -0.1828
 1264XCA     C111363  13.609  12.896   7.298 -0.1650  0.0464  0.0748
 1264XCA     C211364  13.451  12.664   6.985 -0.0432  0.0694  0.0720
 1264XCA     C311365  13.546  12.640   6.627 -0.1741  0.1734 -0.1280
 1264XCA     C411366  13.617  12.396   6.319  0.0098 -0.1692 -0.1075
 1264XCA     C511367  13.321  12.075   6.444 -0.4574 -0.0298 -0.2343
 1264XCA     C611368  13.246  11.754   6.754 -0.1929  0.0436  0.0463
 1265WN      WN11369   5.512   2.522   8.767  0.0727  0.1584 -0.0101
 1266WN      WN11370   9.584   6.622   4.532 -0.1320 -0.1534 -0.0651
 1267WN      WN11371   9.152   3.688  12.127  0.3113 -0.0104 -0.1630
 1268WN      WN11372  13.219  14.416  12.746  0.0028  0.0433  0.0650
 1269WN      WN11373   4.519   8.666   0.235 -0.0496  0.1776 -0.0220
 1270WN      WN11374   1.381   9.607  12.994  0.0470 -0.2126  0.0151
 1271WN      WN11375   7.798   4.639   2.184  0.0576  0.2013 -0.1419
 1272WN      WN11376  13.288   0.679   8.849  0.2018  0.1182 -0.2577
 1273WN      WN11377   4.104  11.235  11.377 -0.0177 -0.1459  0.3378
 1274WN      WN11378  10.245  10.169   3.963 -0.2248 -0.3031  0.0245
 1275WN      WN11379   0.643   0.181  13.356 -0.3579  0.1010  0.0580
 1276WN      WN11380  13.146   1.505  10.339  0.1259 -0.3194 -0.1604
 1277WN      WN11381   0.866   7.642  11.595  0.1178 -0.0774  0.2662
 1278WN      WN11382  12.959  14.965  10.019 -0.3100  0.0905  0.2209
 1279WN      WN11383   9.226   6.266   3.833 -0.0370  0.2077 -0.1567
 1280WN      WN11384  11.251   0.227   0.498  0.1829  0.2013 -0.0530
 1281WN      WN11385   6.520   4.842  10.099  0.0349 -0.2701 -0.1238
 1282WN      WN11386  11.925   1.072   8.275  0.1462  0.1335  0.0906
 1283WN      WN11387  15.792  15.860   0.296 -0.0357  0.0323 -0.0086
 1284WN      WN11388  13.871  12.668   2.316 -0.1671 -0.1209  0.0159
 1285WN      WN11389   8.010   9.090   5.010  0.1929 -0.1203 -0.0982
 1286WN      WN11390   6.035   5.119   1.364 -0.4554 -0.3414  0.0484
 1287WN      WN11391  13.027  15.704   7.910 -0.3251  0.0026  0.1359
 1288WN      WN11392   1.453   5.793   4.624 -0.0229 -0.1320 -0.1619
 1289WN      WN11393  11.783  12.244  10.280 -0.2115 -0.1034  0.0108
 1290WN      WN11394  10.897   7.699   3.884  0.0037  0.0853 -0.3947
 1291WN      WN11395   3.817   3.499   8.624 -0.0189  0.0066  0.4270
 1292WN      WN11396   4.589  13.406  12.509  0.0861 -0.3387  0.2802
 1293WN      WN11397  11.380  10.025   9.566 -0.1098  0.0021  0.0647
 1294WN      WN11398  11.334  11.579  10.469 -0.5556 -0.2195 -0.0989
 1295WN      WN11399   0.385   2.921   2.993 -0.0518  0.0840  0.0255
 1296WN      WN11400   7.565   0.280   4.401 -0.0031 -0.3818 -0.0071
 1297WN      WN11401  12.557   6.600   9.644  0.1993 -0.1846  0.1863
 1298WN      WN11402   0.455   1.390  12.481 -0.2138 -0.0063 -0.1730
 1299WN      WN11403   9.522   1.507  12.129  0.0081 -0.2168 -0.0793
 1300WN      WN11404   0.957   9.130   5.011 -0.1567 -0.1682 -0.0633
 1301WN      WN11405  13.531  12.928  11.226 -0.0659 -0.0676 -0.1116
 1302WN      WN11406   4.519  12.797  12.771 -0.0634 -0.2235 -0.1202
 1303WN      WN11407   5.746   2.508   2.600  0.2189  0.0169  0.1146
 1304WN      WN11408   0.875   8.701   2.819 -0.1069  0.1975 -0.2395
 1305WN      WN11409   1.563   1.021   8.376 -0.1500  0.4357 -0.1564
 1306WN      WN11410   9.672  13.883  12.656  0.0893  0.1339  0.2927
 1307WN      WN11411  14.903   1.892  11.418 -0.0046  0.1714 -0.2258
 1308WN      WN11412   3.953   2.276   2.504 -0.2935  0.3111  0.0073
 1309WN      WN11413   0.220   5.102  13.237 -0.0486 -0.0442  0.3332
 1310WN      WN11414  10.894  12.382   3.658 -0.0868  0.3574  0.2686
 1311WN      WN11415   5.900   2.117   2.147 -0.0210  0.2899  0.1361
 1312WN      WN11416  14.567  12.072  11.321  0.0364 -0.0448  0.0752
 1313WN      WN11417   4.984   3.658   3.118  0.0381  0.3065  0.0543
 1314WN      WN11418   6.395  13.757  10.006  0.0330 -0.0875  0.1568
 1315WN      WN11419   7.673  13.751   4.364  0.0595  0.0335 -0.4874
 1316WN      WN11420   2.955  10.240  11.749  0.0269 -0.2127 -0.0802
 1317WN      WN11421   4.067  14.181   9.565  0.2335  0.1757 -0.2525
 1318WN      WN11422   5.197   3.190   3.238  0.2224  0.0003 -0.0145
 1319WN      WN11423   8.814  14.868  11.089  0.0846 -0.0167  0.1921
 1320WN      WN11424  13.890  10.100   2.993  0.0211  0.0678 -0.0420
 1321WN      WN11425   5.109  10.719   3.196  0.0568 -0.0763 -0.1091
 1322WN      WN11426  13.467   4.372  12.325  0.0298 -0.2357 -0.3196
 1323WN      WN11427  13.547   0.766   9.415 -0.3660  0.0682  0.0037
 1324WN      WN11428  12.150   9.883  12.856  0.3586 -0.1418  0.1963
 1325WN      WN11429  11.274   0.301  10.104 -0.1537 -0.0215  0.1419
 1326WN      WN11430   6.635   0.185   8.806  0.1203 -0.0319  0.1371
 1327WN      WN11431  15.185   6.442  12.464  0.1389 -0.0676 -0.3053
 1328WN      WN11432   4.656  10.589   0.792 -0.2438  0.0102  0.2411
 1329WN      WN11433  14.759  12.557   3.516  0.0541  0.1051 -0.0717
 1330WN      WN11434  12.360   5.071  12.729  0.0793 -0.0686  0.1760
 1331WN      WN11435   4.388  13.443   3.356  0.0966  0.0027 -0.0130
 1332WN      WN11436   0.758  10.243   1.395 -0.0389  0.0741 -0.1304
 1333WN      WN11437  12.107   2.819   0.953 -0.0792  0.4329 -0.2195
 1334WN      WN11438   2.275   2.921   2.141  0.2784  0.1537 -0.1879
 1335WN      WN11439   8.309   0.145   3.545 -0.0972 -0.1119  0.1217
 1336WN      WN11440  11.846   3.429   9.306  0.3461  0.0234 -0.1502
 1337WN      WN11441   3.456  15.461   8.501  0.2050 -0.0819 -0.2788
 1338WN      WN11442  15.147  10.032   0.332 -0.0830 -0.1461 -0.0938
 1339WN      WN11443   4.879   7.150   2.388 -0.0726  0.0145 -0.1374
 1340WN      WN11444  11.309   2.652   9.770  0.0917 -0.1051 -0.0004
 1341WN      WN11445  13.589   4.475   8.492  0.2795 -0.0075  0.1940
 1342WN      WN11446   4.704   6.997   3.138  0.0607  0.0273  0.0925
 1343WN      WN11447  13.262   7.690   3.597 -0.3460  0.0086 -0.0408
 1344WN      WN11448  10.404  10.853   0.584  0.2395 -0.0101  0.2398
 1345WN      WN11449   3.666   6.866  10.060  0.2423  0.1377 -0.0546
 1346WN      WN11450   6.293   3.115   1.921 -0.0157  0.0625  0.2090
 1347WN      WN11451  14.606   0.734   0.198 -0.0544 -0.0792 -0.0966
 1348WN      WN11452   6.062   4.224  11.297 -0.1106 -0.1110  0.0128
 1349WN      WN11453   7.543  10.552   9.451  0.1139 -0.0573  0.1643
 1350WN      WN11454  10.853   5.394   3.458 -0.2059 -0.2198  0.1527
 1351WN      WN11455  13.241  12.940   2.511 -0.1154 -0.0916 -0.1452
 1352WN      WN11456  14.409   6.954  12.469 -0.0953  0.0033 -0.3420
 1353WN      WN11457  10.329   2.955   2.372 -0.1246 -0.0484 -0.1661
 1354WN      WN11458   6.011   3.167  11.284  0.1448 -0.0223  0.0817
 1355WN      WN11459   6.296  14.949   3.787 -0.0947  0.4197 -0.0872
 1356WN      WN11460  10.425   5.754  11.751 -0.1338 -0.1182 -0.0765
 1357WN      WN11461   6.140   1.933   1.630  0.1371  0.0787  0.3862
 1358WN      WN11462  13.757  14.556  12.917 -0.2310 -0.0228  0.1924
 1359WN      WN11463   8.933  12.229   3.580  0.0962  0.0813 -0.1161
 1360WN      WN11464   2.151   2.457   9.961  0.2394 -0.0198 -0.0271
 1361WN      WN11465  11.681  14.569  13.334  0.0089 -0.0077 -0.1138
 1362WN      WN11466  11.447  12.203  11.949 -0.0547 -0.1388  0.1820
 1363WN      WN11467   9.925   0.845   1.167 -0.0601 -0.0115 -0.1737
 1364WN      WN11468  14.091   3.642   1.906  0.0466  0.0517 -0.1300
 1365WN      WN11469   8.641   6.182  10.860  0.1143 -0.2622 -0.0785
 1366WN      WN11470  14.651   8.208   4.630 -0.2989  0.1388  0.0509
 1367WN      WN11471  15.525  13.733   0.455  0.1811  0.0143  0.0734
 1368WN      WN11472  12.816   7.738   2.318  0.1293 -0.3572 -0.0989
 1369WN      WN11473   2.248   1.956   3.070  0.1778 -0.1947 -0.0575
 1370WN      WN11474   2.703  15.668   0.371 -0.1154 -0.3508 -0.1342
 1371WN      WN11475   6.021   2.487  11.469 -0.0038 -0.0581 -0.1085
 1372WN      WN11476   9.293   6.209  10.500 -0.3359  0.0196  0.2998
 1373WN      WN11477   0.400  13.692   3.445 -0.1461  0.0148  0.2571
 1374WN      WN11478   6.183   6.910  13.009  0.2688  0.0866  0.2720
 1375WN      WN11479   1.772   2.180   1.295 -0.0496  0.3115 -0.0300
 1376WN      WN11480   0.101  13.295   1.767  0.2143 -0.1206 -0.2875
 1377WN      WN11481   2.360  11.733   3.600  0.2831  0.2158  0.3885
 1378WN      WN11482   6.504   2.241  12.137  0.2181  0.0874 -0.3734
 1379WN      WN11483   2.633  13.054  13.319 -0.1555  0.2189 -0.0156
 1380WN      WN11484   7.006   1.540  12.661  0.0669  0.2756 -0.1076
 1381WN      WN11485  12.918  12.893   2.071  0.1864 -0.0582  0.0041
 1382WN      WN11486   8.078   2.146   3.477 -0.2008  0.2517 -0.1515
 1383WN      WN11487  11.404  13.004   3.184  0.1295 -0.0340  0.1638
 1384WN      WN11488   3.270   9.013   9.989 -0.1581  0.1157  0.3220
 1385WN      WN11489   1.201   0.817   9.385 -0.2334 -0.2903  0.0191
 1386WN      WN11490   1.647  13.493   9.549 -0.0083 -0.0746  0.0624
 1387WN      WN11491   0.841  12.255  13.458  0.2654 -0.0110 -0.1255
 1388WN      WN11492   5.489   7.067   3.642  0.1415  0.0068 -0.1011
 1389WN      WN11493  14.874   9.878  10.731  0.2820  0.1321 -0.0454
 1390WN      WN11494  12.878   7.659  11.449  0.1837  0.0449  0.0655
 1391WN      WN11495   4.386   9.286   0.487 -0.2484  0.2929 -0.0060
 1392WN      WN11496  14.529   8.016   3.517 -0.1219  0.1016 -0.0979
 1393WN      WN11497   4.807  14.211   2.420  0.0060  0.0036  0.1265
 1394WN      WN11498   7.998   5.672   9.290  0.1430  0.5532 -0.0524
 1395WN      WN11499  14.262  11.629  10.974 -0.0141 -0.0796 -0.0642
 1396WN      WN11500   1.219  11.295   0.271 -0.0908  0.1720 -0.3598
 1397WN      WN11501   2.201   0.989   0.219  0.2580  0.1431  0.0572
 1398WN      WN11502   3.709  10.582  13.072  0.0086  0.0937 -0.0002
 1399WN      WN11503  15.006   7.575   1.396 -0.0417 -0.0910 -0.2508
 1400WN      WN11504  12.005   7.268   0.571 -0.1184  0.1028  0.0371
 1401WN      WN11505  13.563   4.472   3.239 -0.3191  0.3151  0.1799
 1402WN      WN11506   6.831   6.186   0.073 -0.3221  0.1335  0.1419
 1403WN      WN11507   7.199   1.151   1.028  0.2106  0.0633  0.3288
 1404WN      WN11508   5.784   5.505  10.248 -0.0653  0.1714 -0.0624
 1405WN      WN11509   1.523   8.560   1.415 -0.1375 -0.0883 -0.2349
 1406WN      WN11510  15.301  10.625   0.455  0.0528 -0.0007  0.0125
 1407WN      WN11511   3.692   0.542   9.607  0.1055 -0.0510  0.0107
 1408WN      WN11512  13.354   5.890   1.525  0.1002 -0.0714 -0.0542
 1409WN      WN11513  12.564  13.742   3.396 -0.0053 -0.0941  0.1596
 1410WN      WN11514  13.568  11.280   1.061  0.0124  0.1463 -0.1476
 1411WN      WN11515  11.171   0.986   2.525 -0.0334  0.0664  0.0140
 1412WN      WN11516   6.871   3.310  13.200 -0.0705  0.1161 -0.0693
 1413WN      WN11517   2.004   4.033  11.638  0.2744 -0.0503 -0.2619
 1414WN      WN11518   6.970  10.399   3.402  0.1310  0.1359  0.0781
 1415WN      WN11519  15.131   6.770   2.277  0.1545  0.1741 -0.2390
 1416WN      WN11520  11.160   9.761   1.686  0.1804 -0.0273 -0.2944
 1417WN      WN11521   6.922  10.765   0.812 -0.3268  0.0883  0.1685
 1418WN      WN11522   1.562   9.925  10.932  0.1554 -0.0829 -0.0433
 1419WN      WN11523   3.410  10.559   4.681  0.1525 -0.4081  0.3467
 1420WN      WN11524  11.646   0.733  11.397 -0.0774  0.0458 -0.3142
 1421WN      WN11525   2.549  11.061   4.950  0.0277  0.0398  0.2224
 1422WN      WN11526  15.069  15.442   1.657  0.1002  0.1795  0.2467
 1423WN      WN11527   2.894   0.988  12.720  0.0305 -0.0309 -0.0998
 1424WN      WN11528  13.768  11.149   2.055  0.2757  0.0232  0.1251
 1425WN      WN11529   9.943  15.022  11.968 -0.2799 -0.0495 -0.0213
 1426WN      WN11530   6.263  10.954  11.992 -0.1905 -0.0547  0.1430
 1427WN      WN11531  10.148  10.835   3.279  0.1358  0.0163 -0.0592
 1428WN      WN11532   1.559   2.079   9.759  0.2213  0.2972  0.4184
 1429WN      WN11533   9.419   4.900   4.576 -0.3210 -0.1529  0.0300
 1430WN      WN11534   8.345  15.332  11.365 -0.1430 -0.3284  0.1645
 1431WN      WN11535  12.429  15.831   0.494 -0.2192  0.1384 -0.2803
 1432WN      WN11536   8.138  11.878  13.029  0.1701 -0.3798 -0.1596
 1433WN      WN11537  11.277   2.271  10.211  0.0181 -0.0426 -0.1120
 1434WN      WN11538   1.760   9.958  11.529  0.0842 -0.4377  0.2066
 1435WN      WN11539   9.369   4.469  10.976 -0.0919 -0.1353  0.0738
 1436WN      WN11540   8.791   1.136   2.618 -0.1332 -0.2434  0.0993
 1437WN      WN11541   2.077   8.602   0.067 -0.2972  0.1637  0.0095
 1438WN      WN11542   9.902   6.227  10.337 -0.1339 -0.1487  0.0943
 1439WN      WN11543   3.439  15.282  10.806  0.2855  0.2706 -0.1659
 1440WN      WN11544   2.858   3.184   9.595  0.1640 -0.0804  0.3315
 1441WN      WN11545   0.483  11.350  11.499  0.1875  0.1350 -0.0334
 1442WN      WN11546   3.913   6.304   0.904 -0.0350 -0.1015  0.0641
 1443WN      WN11547   7.156  15.711   0.227 -0.1313 -0.0582 -0.0195
 1444WN      WN11548  11.495  11.622   0.899 -0.1275  0.0583 -0.1718
 1445WN      WN11549   2.848   0.601   3.754  0.2154  0.0732 -0.0711
 1446WN      WN11550   9.893  11.355   0.028 -0.0624  0.0692 -0.1934
 1447WN      WN11551   6.464   2.420  11.669  0.1448 -0.0457  0.1921
 1448WN      WN11552  14.941   2.565   2.328 -0.1241 -0.1443  0.0614
 1449WN      WN11553   9.447   2.828  10.384 -0.0745  0.0882 -0.1379
 1450WN      WN11554   6.299   7.214   4.050 -0.0651 -0.2464 -0.3197
 1451WN      WN11555  12.714  14.638   1.192  0.0784 -0.1280 -0.0024
 1452WN      WN11556  12.992  15.170   2.090 -0.0175  0.0274 -0.0283
 1453WN      WN11557   3.882  15.148  11.645 -0.0727 -0.1752  0.1344
 1454WN      WN11558   1.678   9.817  12.149  0.1113  0.0588  0.1533
 1455WN      WN11559   1.297   9.466   4.954  0.2362  0.0437  0.2144
 1456WN      WN11560   5.715   3.231   3.306  0.1856 -0.0270 -0.2902
 1457WN      WN11561   3.708   9.561  10.245  0.1384  0.1749  0.2914
 1458WN      WN11562   3.756   3.985   3.493 -0.0660 -0.3542 -0.1561
 1459WN      WN11563   2.799  12.983   3.536 -0.1117  0.1366 -0.2387
 1460WN      WN11564   0.510   5.189  10.241  0.4072  0.1092  0.0854
 1461WN      WN11565   6.297   9.619  11.790 -0.2420 -0.0038  0.0458
 1462WN      WN11566   7.240  10.471   5.453 -0.0040 -0.2382 -0.0294
 1463WN      WN11567   5.752   6.490  10.757 -0.2304 -0.2218 -0.1220
 1464WN      WN11568   2.340  12.770  12.373 -0.3061 -0.1009  0.1119
 1465WN      WN11569   4.624  10.731  10.741 -0.1790 -0.1310 -0.0672
 1466WN      WN11570  11.513  13.072   0.665 -0.0057  0.1282  0.0939
 1467WN      WN11571  12.200   5.554  13.010 -0.0571  0.0205 -0.0189
 1468WN      WN11572   2.615   9.103  13.127  0.0488 -0.1753 -0.0294
 1469WN      WN11573  11.685  13.113  13.136  0.0005  0.0949  0.1041
 1470WN      WN11574  10.833   8.313  12.112  0.0736 -0.1854 -0.2152
 1471WN      WN11575  11.305  12.071   0.988  0.1335  0.1219 -0.0341
 1472WN      WN11576  15.406   5.684   2.983 -0.0446  0.3619 -0.1277
 1473WN      WN11577   7.522  11.039   4.648 -0.2948 -0.0759  0.2422
 1474WN      WN11578  14.167  15.714  11.221 -0.1746 -0.0116 -0.1616
 1475WN      WN11579   2.112  14.458  10.059 -0.2150  0.1665  0.4035
 1476WN      WN11580  14.435   0.221   4.070 -0.4010  0.1373  0.5107
 1477WN      WN11581   4.245   6.774   2.872 -0.1973  0.0218 -0.1151
 1478WN      WN11582   1.946  12.463   2.506  0.0241 -0.0593 -0.0356
 1479WN      WN11583   3.662  15.552   9.439  0.1189  0.2187  0.1336
 1480WN      WN11584  12.594   1.497  13.454 -0.0479 -0.1029  0.1009
 1481WN      WN11585   4.385   6.835  12.510 -0.1778 -0.1813  0.0686
 1482WN      WN11586   2.295   7.742  10.082 -0.1314 -0.3085  0.1098
 1483WN      WN11587  11.746   9.168   4.325 -0.0445  0.0072  0.2609
 1484WN      WN11588   1.854   2.856  10.158 -0.1629  0.1187 -0.1535
 1485WN      WN11589   0.752   1.907   3.477  0.2291  0.0106  0.0122
 1486WN      WN11590   3.829  13.274  10.891 -0.1283 -0.2317  0.2539
 1487WN      WN11591   0.796  10.463   9.787  0.1023  0.3005  0.1179
 1488WN      WN11592   4.892   9.387  12.109 -0.3273  0.0207 -0.1644
 1489WN      WN11593  13.692  11.871   1.818 -0.0298 -0.0293 -0.4962
 1490WN      WN11594  12.267  14.679   9.047  0.0686 -0.2209  0.2954
 1491WN      WN11595  13.246  15.769  12.883 -0.0094 -0.0002 -0.0046
 1492WN      WN11596  14.661  13.922  10.004  0.1782  0.1766  0.0425
 1493WN      WN11597  13.160   8.783   2.508  0.1556  0.0949 -0.1637
 1494WN      WN11598   3.202  13.704   9.506 -0.0610 -0.3130  0.2404
 1495WN      WN11599   5.066  10.537   0.486 -0.1226 -0.3688 -0.1159
 1496WN      WN11600   7.976   5.688  10.434  0.3139  0.1718 -0.0349
 1497WN      WN11601   6.325   1.797  12.008  0.2353  0.1462  0.0605
 1498WN      WN11602   3.461   2.440  11.231  0.1851  0.1335 -0.2737
 1499WN      WN11603   4.040  10.122   2.194  0.0394  0.1513 -0.1083
 1500WN      WN11604   4.576   4.007   2.945 -0.2869  0.1070 -0.0123
 1501WN      WN11605  12.099  13.848  12.779  0.0682  0.2328  0.1819
 1502WN      WN11606  14.485  10.047   3.097 -0.0029  0.2389 -0.3256
 1503WN      WN11607   9.703   8.768  12.048  0.0197  0.0141 -0.0110
 1504WN      WN11608  13.849   1.359   1.438 -0.0542  0.0806 -0.3487
 1505WN      WN11609  10.442  10.489  10.877  0.1649  0.1500  0.1536
 1506WN      WN11610  11.978   5.531   7.860 -0.1899  0.2040 -0.0301
 1507WN      WN11611   2.920  14.945   9.061 -0.1221 -0.1582 -0.2891
 1508WN      WN11612  12.278   3.778   9.049  0.0625  0.0079  0.0313
 1509WN      WN11613   6.314   8.653   3.448 -0.3212  0.0003 -0.0436
 1510WN      WN11614   7.049  13.945   9.968 -0.2935 -0.0164  0.2319
 1511WN      WN11615   0.363   6.275   0.047 -0.1738 -0.0348  0.1537
 1512WN      WN11616   5.471  13.951   1.295  0.0042  0.1037 -0.0748
 1513WN      WN11617  15.830  12.788   1.604 -0.3382 -0.0179  0.0771
 1514WN      WN11618   9.762  15.148  10.488  0.0861 -0.1063  0.2358
 1515WN      WN11619   7.866   3.732   1.764  0.0119  0.0899 -0.0357
 1516WN      WN11620  13.790  11.451  10.821  0.2381  0.2916 -0.1153
 1517WN      WN11621   0.080  11.529   0.823  0.0866  0.4071 -0.0374
 1518WN      WN11622   5.560  12.414  12.726 -0.0755 -0.1406 -0.4595
 1519WN      WN11623   9.746   8.750   3.429 -0.0512 -0.3175  0.1673
 1520WN      WN11624   5.719   1.602   3.240  0.3087  0.4798 -0.3916
 1521WN      WN11625  13.362   1.953   8.594 -0.1622  0.1401 -0.1840
 1522WN      WN11626   3.529   9.005  11.580  0.0231 -0.0266 -0.0997
 1523WN      WN11627   5.757  13.248  12.364 -0.1904  0.0522 -0.0018
 1524WN      WN11628  15.517   9.261   4.677 -0.0600 -0.4284 -0.1300
 1525WN      WN11629   6.558   1.241   3.546 -0.3552  0.2721  0.0179
 1526WN      WN11630   7.955   1.279   4.716 -0.2238 -0.0748 -0.3243
 1527WN      WN11631   6.673  11.175  10.157  0.0439  0.1866  0.2763
 1528WN      WN11632   6.112  12.389  12.944 -0.1729  0.0701  0.0587
 1529WN      WN11633  10.809  14.525   0.402  0.1862  0.0391 -0.1048
 1530WN      WN11634  13.266  14.747   7.753 -0.0260  0.2448 -0.3511
 1531WN      WN11635  12.653  13.608   1.730  0.0036 -0.2551  0.0625
 1532WN      WN11636  15.188   8.083   9.712  0.0396  0.1625 -0.0334
 1533WN      WN11637  12.662   8.604   9.570  0.0861 -0.0029 -0.0163
 1534WN      WN11638   0.872   0.236   1.620  0.0084 -0.0750  0.1236
 1535WN      WN11639   2.792  13.925   8.795  0.3788  0.2138  0.3747
 1536WN      WN11640   7.399   6.829   3.293 -0.1163 -0.3461 -0.2387
 1537WN      WN11641   1.080  10.795  11.856 -0.1885  0.2784  0.0743
 1538WN      WN11642   0.189   0.282   0.512  0.0919  0.0054 -0.3200
 1539WN      WN11643   0.585   8.099  11.453  0.1436  0.0789  0.0430
 1540WN      WN11644   3.271  12.302   9.846 -0.0491  0.4373 -0.2315
 1541WN      WN11645   1.811  12.968  13.192  0.2638 -0.2261 -0.0940
 1542WN      WN11646   2.638  13.595  11.930 -0.1298  0.0021 -0.3101
 1543WN      WN11647   1.625  14.375  13.318  0.3132 -0.0918 -0.1134
 1544WN      WN11648  15.888  14.004  11.300 -0.0976  0.3196 -0.1485
 1545WN      WN11649   6.540   6.158  12.096 -0.4041 -0.0624  0.1910
 1546WN      WN11650   9.225  13.450  10.848  0.0323 -0.1741 -0.1104
 1547WN      WN11651   2.501   3.957  11.439 -0.1554 -0.1897 -0.0105
 1548WN      WN11652  14.494  10.245  10.822 -0.5093 -0.1080  0.2167
 1549WN      WN11653   9.875   9.605  12.688  0.1243 -0.3783 -0.0820
 1550WN      WN11654  10.095  15.442  10.101 -0.1034 -0.1443  0.0841
 1551WN      WN11655   8.080  11.124   4.643  0.1447 -0.3392 -0.2172
 1552WN      WN11656   5.781   1.890   1.249  0.1488  0.1670  0.0552
 1553WN      WN11657  10.668  11.284  10.131 -0.1250 -0.0732  0.3402
 1554WN      WN11658   3.253   5.666   0.488  0.3370  0.0659 -0.1740
 1555WN      WN11659   8.951   3.800   0.790  0.2404 -0.3037  0.4162
 1556WN      WN11660   8.210   2.327   4.038 -0.1677  0.1267  0.2053
 1557WN      WN11661   3.696  12.518   4.480 -0.1103 -0.0519 -0.1971
 1558WN      WN11662   2.451   9.283  10.850  0.1791  0.1476  0.2265
 1559WN      WN11663   0.413  13.003   1.354  0.0130  0.3189  0.1631
 1560WN      WN11664   1.304   4.807  10.028 -0.0990 -0.0818 -0.0501
 1561WN      WN11665   5.150  11.550   0.078 -0.4312  0.0099 -0.0028
 1562WN      WN11666   7.041  10.797  13.343 -0.3318 -0.0683 -0.0147
 1563WN      WN11667   5.469  10.972  12.474  0.0120  0.2266 -0.0277
 1564WN      WN11668   0.090   2.660   0.228 -0.1638  0.0869  0.0079
 1565WN      WN11669   0.356   2.248   3.692 -0.1037 -0.2505  0.1831
 1566WN      WN11670  14.658   2.780   1.802  0.1327  0.1228  0.0262
 1567WN      WN11671  14.949   7.376  11.351  0.0042 -0.1443  0.1330
 1568WN      WN11672   1.301   2.757   1.838 -0.0207 -0.0189  0.2207
 1569WN      WN11673  11.395   7.649  10.651  0.2486  0.1605 -0.1533
 1570WN      WN11674   0.744   5.562  10.472 -0.2301  0.0438 -0.0450
 1571WN      WN11675   7.715   6.826   0.111 -0.1601 -0.1032 -0.0070
 1572WN      WN11676   6.717   1.947   1.907  0.1551 -0.2922 -0.0908
 1573WN      WN11677   7.028   1.710   2.703  0.0234 -0.1199  0.1341
 1574WN      WN11678   5.386   3.627  11.604 -0.4105  0.1836 -0.0943
 1575WN      WN11679   9.938   8.262  10.751  0.5263  0.0074 -0.0888
 1576WN      WN11680   1.033   5.987   2.354 -0.2456 -0.0089  0.0439
 1577WN      WN11681  14.663   5.790   0.157 -0.3783  0.0412  0.0572
 1578WN      WN11682   7.231  13.494   0.873  0.4954 -0.0743 -0.1347
 1579WN      WN11683  10.447   4.135   0.193  0.2557 -0.1991  0.3000
 1580WN      WN11684  14.383  14.038  10.435 -0.4228  0.1429  0.3014
 1581WN      WN11685   9.363   4.647   8.685  0.5442  0.1369  0.0337
 1582WN      WN11686  12.307   0.580  13.105 -0.0478 -0.1485 -0.1884
 1583WN      WN11687   5.062   4.173   1.955 -0.3232 -0.1983 -0.0673
 1584WN      WN11688   4.652  14.206   4.198  0.3754  0.0329  0.0892
 1585WN      WN11689   4.671   8.763  10.993  0.0068  0.1125  0.1075
 1586WN      WN11690   8.626   7.212   1.999 -0.0014  0.0266  0.2939
 1587WN      WN11691  14.323   8.226   1.080  0.3805 -0.1899  0.2376
 1588WN      WN11692   1.952   9.543   3.413  0.4027 -0.1312  0.1593
 1589WN      WN11693   6.761  11.967   4.272  0.0224  0.3098  0.1132
 1590WN      WN11694  12.982  13.384   2.097 -0.1951 -0.0976  0.0502
 1591WN      WN11695  14.531   7.662  10.299  0.0331 -0.3245  0.1046
 1592WN      WN11696   1.564   7.458  10.007 -0.0152 -0.4124 -0.0210
 1593WN      WN11697  12.944  12.273   9.770 -0.1120  0.0041  0.3404
 1594WN      WN11698  13.841   3.218  13.311  0.2605 -0.4120 -0.1029
 1595WN      WN11699   7.415  11.794   2.548 -0.5360  0.0048  0.0791
 1596WN      WN11700  11.289   4.923   0.202 -0.0840  0.1337 -0.0324
 1597WN      WN11701   9.577   8.366   2.555 -0.2851 -0.1985  0.2856
 1598WN      WN11702  13.997  11.978   8.986 -0.1003 -0.0375  0.1150
 1599WN      WN11703   7.870   5.886  12.192 -0.2238 -0.2634 -0.1484
 1600WN      WN11704  13.581  10.261  10.184  0.1286 -0.0909  0.0576
 1601WN      WN11705  10.437  12.592   9.358  0.2539  0.0970  0.0511
 1602WN      WN11706   9.938   1.609  12.524 -0.0225 -0.0800 -0.0079
 1603WN      WN11707   5.611   3.734  13.478  0.0226 -0.1438 -0.1254
 1604WN      WN11708  11.988  11.952   0.793 -0.0080  0.0360  0.0290
 1605WN      WN11709  11.688   3.681   3.686  0.0700 -0.3297 -0.0081
 1606WN      WN11710   6.749   4.570   2.338 -0.0994 -0.0083  0.3120
 1607WN      WN11711  13.739  12.103   0.849  0.1217 -0.1454  0.1222
 1608WN      WN11712   3.961  15.213  13.412  0.1866  0.6094  0.1453
 1609WN      WN11713  10.176  12.111   9.993 -0.0897  0.1649  0.1302
 1610WN      WN11714   1.369  15.452  13.141  0.2283  0.0475 -0.0065
 1611WN      WN11715  13.976   6.187   2.055  0.0364 -0.1791  0.0461
 1612WN      WN11716   4.590   1.332   9.050 -0.1536 -0.2152  0.1089
 1613WN      WN11717   7.687   5.511  12.452  0.0503 -0.2396 -0.0342
 1614WN      WN11718  12.538  14.160   1.723  0.1738  0.0881  0.2857
 1615WN      WN11719   9.911   3.883  11.715 -0.4188 -0.3522 -0.2517
 1616WN      WN11720  15.880   5.034   9.131 -0.0625 -0.1484  0.4418
 1617WN      WN11721   5.762   9.786  10.318  0.0297 -0.0993 -0.1588
 1618WN      WN11722   2.691   4.881   2.193 -0.2603  0.1462 -0.0129
 1619WN      WN11723  10.967   9.301   1.631 -0.0073  0.2643 -0.2087
 1620WN      WN11724  10.645  13.977  11.184  0.1394 -0.1134 -0.1081
 1621WN      WN11725   1.184   2.258   1.008 -0.0213  0.0543  0.3255
 1622WN      WN11726  15.408  11.327   4.126  0.0721  0.1747 -0.2657
 1623WN      WN11727   4.529   0.525   1.606 -0.0072  0.0614 -0.1015
 1624WN      WN11728  13.515   9.366  10.297  0.3305 -0.0221  0.1030
 1625WN      WN11729   0.844  15.902  10.651 -0.0468 -0.0078 -0.3505
 1626WN      WN11730   6.398   3.450  10.650  0.1447  0.1988 -0.2015
 1627WN      WN11731   2.491  13.415   9.460 -0.3228  0.2728 -0.0713
 1628WN      WN11732  14.372   4.365   0.452 -0.1613 -0.2258 -0.0248
 1629WN      WN11733   7.496   5.507   0.166 -0.1642  0.0796  0.1745
 1630WN      WN11734  12.054   6.166  10.715  0.1806 -0.2457 -0.1652
 1631WN      WN11735   8.746   7.698  10.357 -0.3737  0.0826 -0.0299
 1632WN      WN11736   6.447   8.827   9.498  0.0397 -0.3158  0.0162
 1633WN      WN11737  14.072   9.290   3.007  0.0489  0.2958  0.0805
 1634WN      WN11738   7.140   5.706  10.987  0.0186  0.1942 -0.2051
 1635WN      WN11739   3.709  11.488  10.109  0.0308 -0.0420 -0.0698
 1636WN      WN11740   5.096   9.180  10.230  0.0158 -0.1527 -0.0365
 1637WN      WN11741   0.013  10.048   0.866 -0.2891  0.2151  0.2321
 1638WN      WN11742   2.496   7.297  10.112 -0.2427 -0.0245 -0.0437
 1639WN      WN11743  10.525  15.531   1.066 -0.1330  0.4245  0.0443
 1640WN      WN11744   7.825  13.374   0.737 -0.0528  0.2512 -0.1296
 1641WN      WN11745  14.283   0.681  10.832  0.0724 -0.1335  0.0914
 1642WN      WN11746  10.005  10.845   9.968  0.0266 -0.1083  0.2012
 1643WN      WN11747   6.512   5.854  10.367 -0.3163 -0.1508  0.2236
 1644WN      WN11748  12.941   4.465   7.992 -0.2182 -0.2671 -0.0024
 1645WN      WN11749   6.999   2.049   0.613  0.1108 -0.0857  0.3626
 1646WN      WN11750   4.933   7.536   0.180  0.0910 -0.2596 -0.2546
 1647WN      WN11751  11.996  12.183   3.470  0.1412  0.1912  0.1747
 1648WN      WN11752   0.257  14.891  12.764 -0.0241 -0.4841  0.4504
 1649WN      WN11753  11.056  12.087  12.288  0.0960  0.1361  0.1554
 1650WN      WN11754   1.555  15.214   0.036  0.5178 -0.0612  0.0093
 1651WN      WN11755   1.820   4.693   2.116 -0.0022 -0.2031 -0.0870
 1652WN      WN11756   4.466   4.334   2.506 -0.1269  0.2845 -0.3632
 1653WN      WN11757   5.739   4.844   3.135  0.1377 -0.1048  0.0605
 1654WN      WN11758  11.273   2.675   2.448 -0.1154 -0.1677 -0.0547
 1655WN      WN11759  10.545  13.369   0.864 -0.3078 -0.1084 -0.0965
 1656WN      WN11760  15.238   6.688  12.019  0.1067  0.0816 -0.0543
 1657WN      WN11761  12.939   4.394  12.623  0.0206 -0.5478 -0.0690
 1658WN      WN11762   2.420  15.712  11.822 -0.1890  0.5389 -0.0096
 1659WN      WN11763  13.106  11.051   3.733 -0.2575 -0.0449  0.5145
 1660WN      WN11764  11.203   9.231  11.643 -0.2672  0.0206 -0.0878
 1661WN      WN11765   6.395   6.408   3.737 -0.0831 -0.1692 -0.2002
 1662WN      WN11766   8.783   0.672   9.075 -0.3171 -0.1020 -0.0398
 1663WN      WN11767   0.209   8.487  12.645  0.0471 -0.2142 -0.1147
 1664WN      WN11768   1.992  15.179  11.203 -0.1782  0.3034  0.3028
 1665WN      WN11769   8.257   6.981  10.560  0.1547  0.1007  0.2108
 1666WN      WN11770   9.069  12.924   3.182  0.3174 -0.0839  0.0213
 1667WN      WN11771  14.667  13.517   0.264 -0.3034 -0.1001 -0.0550
 1668WN      WN11772   9.413  15.108   1.084  0.0178 -0.0722 -0.1250
 1669WN      WN11773  12.927   7.304   2.125  0.0905 -0.2728  0.0994
 1670WN      WN11774  12.281   5.126   2.365 -0.1229 -0.0368  0.3735
 1671WN      WN11775  13.763   3.322  12.800 -0.4162  0.0051 -0.3242
 1672WN      WN11776   2.834   8.148   3.488 -0.2658  0.1067  0.1540
 1673WN      WN11777   0.326   8.704  11.877 -0.3169 -0.4593 -0.0031
 1674WN      WN11778   9.888   7.031  12.471 -0.0696 -0.0298 -0.1395
 1675WN      WN11779   7.181   5.904   0.500 -0.1765  0.2367  0.0120
 1676WN      WN11780   4.672   9.456   2.378 -0.3111  0.0644  0.1687
 1677WN      WN11781  13.539  15.193   8.513  0.1185  0.0885 -0.1842
 1678WN      WN11782   0.707   6.160   3.733  0.1596 -0.0504 -0.0944
 1679WN      WN11783  11.316   8.301   0.234 -0.0707 -0.2069  0.5146
 1680WN      WN11784  13.552  11.817   9.315  0.0152 -0.0755 -0.2399
 1681WN      WN11785  13.552   7.880   3.196  0.0595 -0.0144  0.4253
 1682WN      WN11786   6.926   8.205   0.356 -0.1660  0.0109 -0.0601
 1683WN      WN11787   1.827  12.974   3.889 -0.0245 -0.3644  0.0097
 1684WN      WN11788  10.470  11.348   3.109 -0.0788  0.0473  0.0494
 1685WN      WN11789   1.701   8.946   0.080  0.1527 -0.0344 -0.0702
 1686WN      WN11790  15.561   7.330   4.685  0.1503  0.3090  0.1087
 1687WN      WN11791  11.130   8.089  10.809  0.0568 -0.1264 -0.0743
 1688WN      WN11792   0.237   0.033  11.164  0.4407  0.0155  0.1431
 1689WN      WN11793   8.071   7.700   1.791  0.0562  0.0173  0.0076
 1690WN      WN11794   9.906  11.546   3.837 -0.1373  0.2550  0.0514
 1691WN      WN11795  15.281  14.740   0.442  0.0070  0.0958  0.1505
 1692WN      WN11796   4.540   0.874  13.424  0.1399 -0.1697 -0.0758
 1693WN      WN11797   0.921   4.951  11.902 -0.0847 -0.3106  0.2909
 1694WN      WN11798   6.625   8.951   2.583  0.0414  0.1606  0.1338
 1695WN      WN11799   0.436   3.062  11.058 -0.0994 -0.1725 -0.2940
 1696WN      WN11800  10.002   0.014   9.971 -0.1271 -0.2703 -0.0640
 1697WN      WN11801   8.200  13.127  12.060  0.0267 -0.1336  0.2667
 1698WN      WN11802   5.531  12.798   0.040  0.1387  0.0212 -0.0390
 1699WN      WN11803   2.031  10.681   0.241  0.1637 -0.3690  0.1251
 1700WN      WN11804   3.242   9.788  10.923  0.0160  0.1028  0.1345
 1701WN      WN11805   5.245   8.198   1.851  0.2176 -0.0588 -0.0209
 1702WN      WN11806   2.231   3.756   1.638 -0.2741 -0.0288  0.1101
 1703WN      WN11807   4.175  12.270   4.611  0.1635  0.0351  0.0874
 1704WN      WN11808   0.688  11.249   0.040  0.2928  0.0567 -0.0749
 1705WN      WN11809  11.430   1.206   1.424  0.0863 -0.0615 -0.1781
 1706WN      WN11810   4.321  11.465   4.850 -0.1189 -0.0090 -0.0255
 1707WN      WN11811   5.075   0.227   9.297  0.2561 -0.2298 -0.0274
 1708WN      WN11812  10.296   5.642  11.194 -0.1566  0.1157  0.0950
 1709WN      WN11813   9.024   8.670  11.589  0.2173  0.1969 -0.1395
 1710WN      WN11814   0.384  13.274   2.201 -0.0955  0.2010 -0.0804
 1711WN      WN11815   0.212  15.687   1.165 -0.1308 -0.2396 -0.1178
 1712WN      WN11816  15.398   8.850   3.640  0.0342 -0.1606 -0.0478
 1713WN      WN11817   8.175   6.437   4.506 -0.1290 -0.0823  0.1249
 1714WN      WN11818   0.297   9.577  10.683 -0.1345  0.3005  0.1145
 1715WN      WN11819  10.621  11.365  12.478 -0.0475 -0.0546  0.0677
 1716WN      WN11820   4.645   4.575   3.928 -0.0581 -0.2206  0.1378
 1717WN      WN11821   1.694   5.410  12.122  0.2536  0.1621 -0.0394
 1718WN      WN11822   7.154  12.147  12.532  0.0318 -0.0656 -0.2162
 1719WN      WN11823   4.388  14.430   9.867 -0.0491  0.1743  0.3702
 1720WN      WN11824  15.730  12.436  10.869 -0.1409 -0.3771  0.2516
 1721WN      WN11825  13.376   9.146   2.235  0.0188 -0.1309  0.3173
 1722WN      WN11826  13.907   6.730   1.958 -0.2852 -0.5257 -0.0908
 1723WN      WN11827  10.324   6.477  10.703  0.1178 -0.2361 -0.1631
 1724WN      WN11828   7.179   3.889  11.961 -0.4476  0.2358 -0.0213
 1725WN      WN11829   0.809   7.325   1.611 -0.2580 -0.0698 -0.2893
 1726WN      WN11830   4.491   6.812   2.359 -0.0158 -0.0613 -0.0902
 1727WN      WN11831   4.944   2.951   3.670 -0.1534 -0.2294  0.1571
 1728WN      WN11832   9.745   6.035   1.606  0.2955 -0.0804  0.2644
 1729WN      WN11833   9.782   1.165   3.305 -0.4697  0.1380 -0.1304
 1730WN      WN11834  13.865   4.053   2.082  0.2135 -0.0919 -0.1232
 1731WN      WN11835   0.293  14.636   1.077 -0.1310  0.0855  0.1996
 1732WN      WN11836   2.745  12.355   3.087 -0.0568  0.0297 -0.3841
 1733WN      WN11837   2.056   7.297  10.069  0.3518 -0.2583  0.0120
 1734WN      WN11838  11.537   4.999   1.739 -0.3051 -0.0143 -0.0437
 1735WN      WN11839   0.495   4.967   9.421 -0.1592  0.0574  0.0073
 1736WN      WN11840  13.681  14.562   1.366 -0.0342  0.1017  0.1668
 1737WN      WN11841  14.580   3.689   1.597  0.0457 -0.0830 -0.0076
 1738WN      WN11842   5.778  14.383  10.626 -0.0416 -0.3902 -0.0897
 1739WN      WN11843  15.115   4.154  11.639  0.2439  0.4292 -0.2433
 1740WN      WN11844   4.237  10.519   4.619 -0.0236 -0.1344  0.2486
 1741WN      WN11845   0.519  11.089   9.167  0.4859  0.0703  0.2185
 1742WN      WN11846   8.455   8.436  11.450  0.0357 -0.0626 -0.4793
 1743WN      WN11847   4.150   0.367   9.483 -0.0473 -0.1440  0.1643
 1744WN      WN11848  10.105   8.987   2.273 -0.0955 -0.0282 -0.0380
 1745WN      WN11849   4.348   8.440  11.529 -0.1400  0.1144  0.0452
 1746WN      WN11850  11.926   0.905   8.934 -0.1498  0.1440 -0.1005
 1747WN      WN11851   7.533  13.075  11.072  0.2045  0.2337  0.1381
 1748WN      WN11852  11.725  10.981  11.959  0.0202  0.1804 -0.2543
 1749WN      WN11853   9.233   4.076   4.103 -0.2014  0.0574 -0.1070
 1750WN      WN11854  10.137  13.606  10.168 -0.1550  0.1411 -0.0681
 1751WN      WN11855  12.689   9.685   9.453 -0.0299  0.0132  0.0479
 1752WN      WN11856   1.816  12.295  11.753  0.0716 -0.4120  0.2761
 1753WN      WN11857   9.612  12.058   1.568 -0.0392  0.0098 -0.0903
 1754WN      WN11858  13.364   1.191   3.973  0.0772  0.1842 -0.2010
 1755WN      WN11859   4.152  15.029   1.178 -0.1472 -0.0186  0.0146
 1756WN      WN11860  14.081   5.691   9.637 -0.0224  0.0275 -0.1405
 1757WN      WN11861   7.573  15.309  10.047 -0.1732  0.1062 -0.0523
 1758WN      WN11862   3.094   7.642  12.266  0.1426 -0.0737  0.0986
 1759WN      WN11863   7.883  10.002   5.113 -0.1311 -0.2293 -0.3354
 1760WN      WN11864   0.430   3.743   1.973  0.1761 -0.0625 -0.3421
 1761WN      WN11865   9.891   0.210   0.287  0.0321  0.4723  0.3639
 1762WN      WN11866  10.694   0.904  12.346 -0.4433 -0.0701  0.0635
 1763WN      WN11867  12.146   9.359   4.065  0.0356 -0.0428  0.0222
 1764WN      WN11868  10.816  13.257  12.509  0.0975 -0.1247 -0.1169
 1765WN      WN11869  15.205  11.646  10.347 -0.1743  0.0414 -0.1971
 1766WN      WN11870  12.504   3.566  13.398  0.0890  0.0187  0.0584
 1767WN      WN11871   2.040  14.079   1.581  0.3516  0.0708  0.2194
 1768WN      WN11872   9.513   7.282   3.710 -0.1550 -0.0342 -0.1085
 1769WN      WN11873  11.891  15.052   0.891  0.1510  0.2180  0.0496
 1770WN      WN11874   1.132  14.335   3.369 -0.0078 -0.0625  0.0514
 1771WN      WN11875  10.836  11.020   2.175 -0.0466 -0.1984 -0.0080
 1772WN      WN11876  14.799  10.778  10.328  0.1592 -0.0037 -0.1250
 1773WN      WN11877   6.899   5.806   4.173  0.1441 -0.0997 -0.1403
 1774WN      WN11878   4.304  13.036   3.914  0.0086 -0.1612  0.1692
 1775WN      WN11879   1.191   8.822   1.745 -0.0902 -0.2823 -0.2524
 1776WN      WN11880   1.283   3.304   1.069 -0.3433 -0.2715  0.0373
 1777WN      WN11881   7.424   5.137  12.249  0.0457 -0.0295  0.3090
 1778WN      WN11882  15.571   4.979   0.010 -0.1524 -0.0707 -0.1234
 1779WN      WN11883  11.611   3.332  10.633 -0.0467  0.1065  0.1409
 1780WN      WN11884   4.741   0.842  12.168  0.0573  0.0242 -0.2085
 1781WN      WN11885  10.168   2.368   0.215  0.0473 -0.1812 -0.1086
 1782WN      WN11886   3.949  13.510   3.638 -0.2665  0.1172  0.2557
 1783WN      WN11887  15.671   1.176   1.531 -0.4005  0.0694  0.2250
 1784WN      WN11888   5.456   7.909   4.507  0.0179  0.0869 -0.0227
 1785WN      WN11889   4.696  14.054  11.323 -0.2089  0.0807  0.0842
 1786WN      WN11890  13.079   3.855  11.725 -0.3524 -0.0638  0.0456
 1787WN      WN11891  10.887   1.935  12.780  0.0049 -0.0514 -0.0670
 1788WN      WN11892  14.497   2.097  11.635  0.1642 -0.0254  0.1835
 1789WN      WN11893  10.574   6.802   1.150 -0.2776 -0.0072 -0.0690
 1790WN      WN11894   0.997   0.048   2.338  0.0394 -0.3807  0.1089
 1791WN      WN11895   4.774   2.701  10.916  0.1077 -0.0904 -0.2468
 1792WN      WN11896   9.406   6.354   0.741 -0.0690 -0.1335  0.0293
 1793WN      WN11897   9.750   3.010  11.933 -0.2067 -0.1581  0.2077
 1794WN      WN11898   1.242  15.776  11.463  0.2115  0.2290 -0.1105
 1795WN      WN11899   1.090  14.173   3.877 -0.1228 -0.2019 -0.1255
 1796WN      WN11900   2.877   0.160  10.505 -0.2890  0.0151  0.0803
 1797WN      WN11901  12.637   6.968  10.908  0.2790 -0.1095  0.0078
 1798WN      WN11902  11.241   2.114   9.711 -0.0234 -0.1103 -0.1818
 1799WN      WN11903  13.279   5.400  12.593 -0.2778 -0.0343 -0.1955
 1800WN      WN11904   5.484   6.963  12.165 -0.3363  0.1081 -0.0650
 1801WN      WN11905   4.533  12.663   1.995 -0.0538  0.3792  0.3563
 1802WN      WN11906   9.411   4.833   3.097 -0.1900 -0.1330 -0.3323
 1803WN      WN11907   2.528   5.255   3.258  0.1870  0.0572  0.1090
 1804WN      WN11908   9.650   5.074  11.474 -0.1711 -0.1327  0.0712
 1805WN      WN11909   1.162   8.566   2.415 -0.2407  0.1088  0.3718
 1806WN      WN11910   2.437   7.319   0.771  0.2715 -0.1859 -0.1831
 1807WN      WN11911   3.592   7.590  11.244 -0.2662  0.2823  0.2782
 1808WN      WN11912   4.372  10.947   4.852  0.1922 -0.0037 -0.0643
 1809WN      WN11913  15.693   0.335  10.740  0.2485 -0.2104 -0.0080
 1810WN      WN11914  10.068   9.987   4.923 -0.0682 -0.0288 -0.1572
 1811WN      WN11915   7.768   9.617   3.236  0.0844  0.0054  0.0943
 1812WN      WN11916   8.137  12.960   2.890  0.3637  0.1208 -0.1941
 1813WN      WN11917  12.084   0.747   1.084 -0.0421  0.0464 -0.1837
 1814WN      WN11918   2.677   2.371  12.317 -0.0083  0.3022  0.0090
 1815WN      WN11919   3.963  14.728  11.342 -0.2112 -0.0406 -0.0930
 1816WN      WN11920  10.265  13.434   0.404  0.2434  0.3466  0.0481
 1817WN      WN11921   6.655   5.062  11.191  0.0246 -0.1465 -0.0008
 1818WN      WN11922   1.309   9.075   2.189 -0.0110 -0.4418 -0.1395
 1819WN      WN11923   2.770   0.353   1.287  0.1456 -0.0871  0.0706
 1820WN      WN11924   8.295   9.590  13.301 -0.2275 -0.0141  0.1535
 1821WN      WN11925   3.446   3.000   2.885 -0.1661  0.1879 -0.1506
 1822WN      WN11926   8.606  10.318   0.424 -0.1296  0.4404  0.0060
 1823WN      WN11927   2.111   8.865   4.566 -0.0195  0.0046 -0.0171
 1824WN      WN11928   0.886   7.202   3.939 -0.4537  0.1428 -0.0566
 1825WN      WN11929  13.231   3.172   1.122 -0.0460 -0.1245  0.1459
 1826WN      WN11930  13.272  15.432  11.500  0.0678  0.0074  0.1630
 1827WN      WN11931   1.467   3.156   0.537 -0.2602  0.1211 -0.0592
 1828WN      WN11932   8.204   0.780   4.248  0.2202  0.0671  0.1833
 1829WN      WN11933  11.844   1.020   3.284  0.0375 -0.0870 -0.0227
 1830WN      WN11934  10.629   2.888   2.002 -0.3430 -0.0818 -0.1455
 1831WN      WN11935  14.447   9.800  10.425 -0.0029  0.0870  0.0506
 1832WN      WN11936   1.924   5.710   2.484 -0.1004  0.0477 -0.0971
 1833WN      WN11937  13.705  15.848  10.945  0.0145  0.1387 -0.1310
 1834WN      WN11938   4.539   4.368   1.990  0.0894 -0.1029 -0.3042
 1835WN      WN11939  12.839   9.751  11.012 -0.1464  0.0505  0.0275
 1836WN      WN11940  11.106  15.673   8.400 -0.1371  0.1871  0.0624
 1837WN      WN11941   2.982   6.755  13.007  0.2712 -0.0201 -0.1508
 1838WN      WN11942  13.340   5.958   9.843  0.2279  0.3864  0.0903
 1839WN      WN11943   9.966  11.049   0.431  0.0253  0.2663 -0.2232
 1840WN      WN11944   3.663  10.742  11.255  0.1050  0.0184  0.0758
 1841WN      WN11945  15.070   2.030   3.485 -0.0369 -0.1957  0.2292
 1842WN      WN11946  15.230   1.787   1.591  0.1096  0.3519  0.2138
 1843WN      WN11947  12.493  10.485   2.043  0.0221  0.1067  0.0143
 1844WN      WN11948   8.217  15.714   9.079 -0.0907 -0.2764 -0.0660
 1845WN      WN11949   3.338  12.954  11.858  0.1061 -0.0750  0.4254
 1846WN      WN11950   2.196   3.276   9.555  0.0379  0.0344 -0.1817
 1847WN      WN11951  13.384  11.706   0.667  0.5245  0.0410  0.0019
 1848WN      WN11952  10.266   7.147   3.598 -0.3421 -0.1079 -0.0351
 1849WN      WN11953  12.497  11.923   1.822  0.3531 -0.0467 -0.0879
 1850WN      WN11954   8.519  10.842   0.604  0.0138 -0.3332 -0.0823
 1851WN      WN11955  11.007  12.266   8.539  0.1997 -0.0466  0.1183
 1852WN      WN11956   9.929   5.140   0.687  0.1637  0.0920 -0.2562
 1853WN      WN11957   0.823   1.981  11.836 -0.1360  0.0125  0.1579
 1854WN      WN11958  12.073   6.740   0.639  0.0901 -0.1221 -0.0627
 1855WN      WN11959  10.710  15.792  13.221  0.2348  0.0658  0.2310
 1856WN      WN11960   7.559   1.522   9.943 -0.2346  0.1560 -0.3138
 1857WN      WN11961   1.590   8.533  13.156  0.2640 -0.2297 -0.0737
 1858WN      WN11962   3.265  11.792   0.408  0.2044  0.2232 -0.1142
 1859WN      WN11963   3.517   9.693   9.444 -0.2199 -0.0728 -0.0384
 1860WN      WN11964   7.222   8.379   0.735 -0.2995 -0.0707 -0.0889
 1861WN      WN11965  13.486   7.475   2.930 -0.0862  0.1113 -0.0922
 1862WN      WN11966  10.692   0.165   0.351  0.2517  0.0132  0.2836
 1863WN      WN11967   4.305   3.737   8.123 -0.1961  0.0970 -0.0291
 1864WN      WN11968  13.479   2.485   2.652 -0.0876 -0.1300  0.1530
 1865WN      WN11969  13.631  13.195  12.381 -0.0230  0.1902 -0.0513
 1866WN      WN11970   2.395   4.852   9.896  0.0896 -0.2465 -0.0524
 1867WN      WN11971   2.776   9.811  10.865  0.0113 -0.2720 -0.0941
 1868WN      WN11972   6.090  13.072  11.329 -0.3586  0.1429  0.0686
 1869WN      WN11973  11.254   8.529   3.748  0.1380  0.1216 -0.3216
 1870WN      WN11974  13.798   9.371   0.138  0.2493 -0.1985  0.4134
 1871WN      WN11975   3.212   6.861  12.570  0.0533 -0.0529  0.0390
 1872WN      WN11976  13.439   3.323   8.418 -0.1392 -0.1621 -0.0003
 1873WN      WN11977  12.820   7.120  11.407  0.0395  0.1654  0.0217
 1874WN      WN11978  15.654   7.315   4.171 -0.1023  0.1142 -0.0557
 1875WN      WN11979   6.743   9.382   4.932 -0.0083 -0.2819  0.1286
 1876WN      WN11980  10.311   2.505   3.759 -0.2517 -0.0913  0.3266
 1877WN      WN11981  11.492  10.094   2.040  0.2629  0.1376 -0.2287
 1878WN      WN11982   2.954   3.836   9.020 -0.2041  0.2517 -0.2618
 1879WN      WN11983   2.608   9.292   9.162 -0.0275 -0.2120 -0.1893
 1880WN      WN11984  14.991  11.205   1.254 -0.0671  0.0135 -0.0113
 1881WN      WN11985  11.591  15.689   9.695 -0.0809  0.0661  0.0997
 1882WN      WN11986  12.969   6.544  12.571 -0.1387  0.1463 -0.2771
 1883WN      WN11987   1.000  15.720   1.905  0.0994 -0.0263 -0.1384
 1884WN      WN11988  13.375  11.768  10.925  0.2701 -0.0323 -0.2620
 1885WN      WN11989   2.846  12.211   2.628 -0.0726  0.0511  0.1352
 1886WN      WN11990   5.092   0.707   2.420  0.2224 -0.0048  0.1060
 1887WN      WN11991  14.509   9.634  12.888 -0.1374 -0.1780 -0.2333
 1888WN      WN11992   4.948  10.386   4.508 -0.1519 -0.0085 -0.4359
 1889WN      WN11993   4.009   5.340   4.666  0.0125 -0.0262  0.1468
 1890WN      WN11994   0.652  13.330   9.124 -0.2855 -0.1253  0.2802
 1891WN      WN11995   8.720  15.743   9.005 -0.0793  0.1575  0.1051
 1892WN      WN11996   0.913  13.503  11.270 -0.0105  0.1794  0.0156
 1893WN      WN11997  10.824   9.513   4.293  0.0582  0.0068 -0.0412
 1894WN      WN11998   0.872  13.785   3.654 -0.0976 -0.0511  0.1375
 1895WN      WN11999   8.981   2.795   1.379 -0.1826 -0.1525  0.2897
 1896WN      WN12000  12.269  10.386  12.714 -0.1564 -0.2973 -0.1396
 1897WN      WN12001  12.444  11.331  11.461 -0.2757 -0.0982  0.1933
 1898WN      WN12002  11.245  11.777  11.806  0.0486  0.0772 -0.0715
 1899WN      WN12003   5.251   1.722   3.536 -0.1338  0.1575 -0.1591
 1900WN      WN12004   4.341   6.486   9.625 -0.0564 -0.2721 -0.0145
 1901WN      WN12005  13.249   8.922  10.681 -0.3076 -0.4064 -0.1653
 1902WN      WN12006   2.632   8.159   2.424 -0.5946  0.2725 -0.1884
 1903WN      WN12007   6.536  13.805  12.016  0.0619 -0.0774  0.2577
 1904WN      WN12008   0.564  12.444   3.635  0.1723  0.2910 -0.1390
 1905WN      WN12009   2.124   8.764   9.589  0.0017  0.0370 -0.0079
 1906WN      WN12010  14.729   4.160   1.423  0.0070  0.3209 -0.1018
 1907WN      WN12011  13.838   8.401  13.220 -0.0954  0.1423  0.0134
 1908WN      WN12012   1.997  11.376   4.509 -0.1698 -0.0580  0.0522
 1909WN      WN12013   9.261  15.549   8.240  0.1264  0.0288 -0.2504
 1910WN      WN12014   8.458   1.353   4.764 -0.1008 -0.0529 -0.1350
 1911WN      WN12015  15.648  10.233   2.566 -0.2112 -0.0711 -0.0811
 1912WN      WN12016  11.730   5.848   1.778  0.3615 -0.0188  0.2723
 1913WN      WN12017  14.013   4.702   8.396  0.4783  0.1833  0.0382
 1914WN      WN12018   7.684  14.839   1.850 -0.0256 -0.2834  0.1958
 1915WN      WN12019  10.321   3.110  12.586 -0.1835 -0.1547  0.1068
 1916WN      WN12020   6.395   9.177   3.163 -0.1619 -0.1256  0.3633
 1917WN      WN12021   0.088   2.753   1.261 -0.4721  0.0743 -0.1429
 1918WN      WN12022   1.709  10.361  11.165 -0.0266 -0.0157 -0.1333
 1919WN      WN12023  10.276  13.786  11.983 -0.2348  0.1053  0.3567
 1920WN      WN12024   4.100  15.639  11.276  0.1657 -0.3920  0.1007
 1921WN      WN12025   1.637   4.523  12.506  0.1250 -0.1355  0.0498
 1922WN      WN12026   1.553   4.579   3.104 -0.0333 -0.1996  0.5148
 1923WN      WN12027   8.104  10.890   1.439  0.2788  0.1082 -0.4640
 1924WN      WN12028   3.086  13.793  13.437  0.0488  0.0861 -0.2222
 1925WN      WN12029  14.982   6.316  11.772  0.1340 -0.3405  0.0670
 1926WN      WN12030  13.846   0.815   1.254  0.0406  0.1940  0.2792
 1927WN      WN12031  15.069   5.562   8.328 -0.0951 -0.0291  0.0702
 1928WN      WN12032   7.248   2.539  11.387  0.0386  0.2823 -0.2574
 1929WN      WN12033  14.985   4.408   2.995 -0.0449 -0.3281  0.0598
 1930WN      WN12034   2.832  11.982  12.397  0.0039 -0.0536  0.2681
 1931WN      WN12035   0.126  10.947  12.011  0.1222  0.0230 -0.2677
 1932WN      WN12036   9.408   3.032   2.944 -0.1685 -0.3611  0.0098
 1933WN      WN12037  13.389   3.989   2.181  0.1248  0.1122 -0.0641
 1934WN      WN12038   2.007   4.431  13.239  0.0704  0.1204  0.0666
 1935WN      WN12039   7.253  13.832   1.356 -0.1195  0.0831  0.1507
 1936WN      WN12040  12.787  15.139   1.230 -0.2072  0.2218  0.2217
 1937WN      WN12041   3.882   5.706  13.371  0.0317 -0.0741 -0.1044
 1938WN      WN12042   5.752   4.137   4.190  0.0128  0.1996  0.2643
 1939WN      WN12043   3.040   2.388  10.359 -0.0206 -0.0690  0.4030
 1940WN      WN12044   1.224  10.191  11.431  0.0811  0.3206  0.3305
 1941WN      WN12045  14.312  14.532   9.128  0.0646  0.1025  0.0329
 1942WN      WN12046  12.018   6.633   9.589 -0.1350 -0.0617  0.0338
 1943WN      WN12047   8.610   0.336  13.412  0.1224  0.1475  0.0992
 1944WN      WN12048   8.942   7.133   4.338  0.2182 -0.0790 -0.1937
 1945WN      WN12049  14.549  14.755   1.014 -0.1175  0.2843 -0.2211
 1946WN      WN12050  10.747   3.500  13.058 -0.3825 -0.2126 -0.1783
 1947WN      WN12051   4.644   6.838  10.059  0.2086 -0.1801  0.3192
 1948WN      WN12052  10.852  10.911   3.779  0.1764 -0.1063  0.1579
 1949WN      WN12053   8.236   8.639  11.041  0.0077 -0.1024 -0.2000
 1950WN      WN12054   9.538   0.699   1.519  0.1197  0.0274 -0.1514
 1951WN      WN12055   2.784   4.509   9.790 -0.3053 -0.0583  0.0640
 1952WN      WN12056   9.143  10.643   1.180  0.0356  0.1014  0.0709
 1953WN      WN12057   2.448   6.721  13.219  0.2236  0.0937  0.0304
 1954WN      WN12058   7.927  13.720  10.963  0.0817 -0.5785 -0.1348
 1955WN      WN12059  10.075  15.584   3.205  0.0851  0.0060  0.0430
 1956WN      WN12060   3.978  15.322  12.142 -0.1521 -0.1496  0.1542
 1957WN      WN12061   9.771  15.252   3.440  0.1227 -0.0491  0.0562
 1958WN      WN12062   5.515  13.192  13.211 -0.2514 -0.2190 -0.0211
 1959WN      WN12063  12.059   0.858  11.101 -0.4947  0.2202 -0.3502
 1960WN      WN12064   1.171   2.687  10.169  0.0850  0.1719  0.1199
 1961WN      WN12065   6.111   4.033   8.937  0.1556 -0.0531  0.3336
 1962WN      WN12066  13.388  13.000   1.623 -0.3186  0.0929 -0.0601
 1963WN      WN12067  15.022  11.498  12.560  0.1894 -0.1331  0.0571
 1964WN      WN12068   2.729  14.530   9.725  0.3631 -0.0284 -0.1793
 1965WN      WN12069   8.761  14.596   3.639 -0.0337  0.0762  0.1425
 1966WN      WN12070  14.284  12.664   2.060  0.0737 -0.2043 -0.1805
 1967WN      WN12071   5.062  13.788   4.077  0.3595  0.1447  0.2544
 1968WN      WN12072  11.101   0.140   1.527  0.0550 -0.6145 -0.1944
 1969WN      WN12073   1.794   7.215   3.863 -0.1094 -0.0514  0.1780
 1970WN      WN12074  12.742   1.959  11.749  0.0001  0.1388  0.1601
 1971WN      WN12075  15.708   5.834  11.845 -0.1374  0.1643 -0.3251
 1972WN      WN12076   7.337  11.431   4.033  0.1597  0.3393 -0.0529
 1973WN      WN12077   1.075   6.768  11.406  0.2093  0.0036 -0.2238
 1974WN      WN12078  11.105   9.523   1.162 -0.1358 -0.1118 -0.1108
 1975WN      WN12079   1.603   9.392  12.513 -0.3174 -0.2462  0.0493
 1976WN      WN12080   2.368  13.737   1.821  0.0796  0.1552 -0.2491
 1977WN      WN12081   1.248   9.820   0.159  0.2104 -0.0829  0.0047
 1978WN      WN12082   1.037   3.746   1.302 -0.1900  0.2095  0.0946
 1979WN      WN12083   7.142  14.627   4.485 -0.1027 -0.2666 -0.3529
 1980WN      WN12084   6.358   1.723   8.569 -0.1543 -0.1193  0.1613
 1981WN      WN12085  10.265  11.301   3.556 -0.1414 -0.2602  0.1840
 1982WN      WN12086   3.753   4.053  11.940 -0.4271 -0.0206 -0.0170
 1983WN      WN12087   1.634  13.905   9.193  0.3532 -0.2039  0.0968
 1984WN      WN12088  13.053   6.769   0.911  0.2373  0.0912 -0.0795
 1985WN      WN12089   7.859   8.641   4.750 -0.0986 -0.3243 -0.1747
 1986WN      WN12090  11.140   1.799   0.637 -0.0098 -0.0841 -0.1218
 1987WN      WN12091   5.931   5.835  12.811  0.1047 -0.2356 -0.0629
 1988WN      WN12092  14.138   7.127   2.212 -0.0925 -0.0124  0.0313
 1989WN      WN12093   3.077  12.489   1.947  0.1952 -0.0353 -0.1351
 1990WN      WN12094   7.072   6.427  12.822  0.0110 -0.1487  0.1398
 1991WN      WN12095   1.509   8.146  11.154  0.2424 -0.0201 -0.1412
 1992WN      WN12096  10.952  15.311   3.585  0.0923  0.2095 -0.1344
 1993WN      WN12097   7.114   5.727   0.062  0.2633  0.1440 -0.0183
 1994WN      WN12098   9.607  15.017   9.998 -0.3770 -0.0732 -0.2869
 1995WN      WN12099   6.891   2.640  10.782 -0.0476  0.1108  0.0590
 1996WN      WN12100  11.777  11.644  12.707  0.0513  0.0771 -0.1663
 1997WN      WN12101  10.059   9.663  12.043 -0.2046 -0.4058  0.2056
 1998WN      WN12102  13.907   3.136  11.503  0.1834  0.0791 -0.2240
 1999WN      WN12103   8.492  11.518  12.893 -0.0942  0.0989  0.2012
 2000WN      WN12104  15.898  14.564   1.798  0.1131  0.2483 -0.1764
 2001WN      WN12105  13.999   6.218  11.616  0.0487  0.0531  0.1267
 2002WN      WN12106   9.936   7.496   2.382 -0.2664  0.2131  0.3059
 2003WN      WN12107  11.517   3.166  12.360 -0.0003  0.2078 -0.0187
 2004WN      WN12108   6.077   1.410  13.476  0.1184 -0.1406  0.2431
 2005WN      WN12109   8.671   8.122   0.634  0.1924 -0.1647  0.0259
 2006WN      WN12110   5.551  13.509   3.945 -0.0377  0.3455  0.0552
 2007WN      WN12111   9.141   4.226  10.025  0.0262 -0.1169 -0.1255
 2008WN      WN12112   4.962   4.330  13.356  0.3166  0.0532 -0.1691
 2009WN      WN12113   1.989  14.014   3.021  0.1102 -0.0488 -0.2016
 2010WN      WN12114   8.420  11.606   1.254  0.0813 -0.1322 -0.1673
 2011WN      WN12115   0.160   0.743  11.081 -0.1495  0.1829  0.0664
 2012WN      WN12116  10.560  13.883   0.265 -0.2315 -0.2309  0.3740
 2013WN      WN12117   5.270  10.750   9.669 -0.3797  0.3613  0.1214
 2014WN      WN12118   8.495   4.602   8.821 -0.2215 -0.1054  0.2814
 2015WN      WN12119   4.406   1.847   7.888  0.3755 -0.2547 -0.3765
 2016WN      WN12120  12.947   8.225   0.187 -0.4751 -0.0441  0.1741
 2017WN      WN12121   7.143   7.020  12.951  0.2043  0.1844 -0.2122
 2018WN      WN12122  12.968   3.357   2.958  0.1357  0.1600 -0.0805
 2019WN      WN12123  12.326   9.289  12.212  0.2424  0.2967  0.1038
 2020WN      WN12124   3.004   1.463  12.191 -0.3192 -0.0351  0.3086
 2021WN      WN12125   4.990   6.938  10.411 -0.1026  0.2171 -0.0860
 2022WN      WN12126   6.773  12.036  10.097  0.1542 -0.5281  0.0535
 2023WN      WN12127   9.786   2.487  12.245 -0.1354  0.0081 -0.3064
 2024WN      WN12128   9.263   9.506  11.908  0.2541 -0.2630  0.0778
 2025WN      WN12129  11.102   8.363   4.202  0.1001 -0.2286  0.5751
 2026WN      WN12130   2.294   7.487  10.600 -0.0127 -0.0514  0.2528
 2027WN      WN12131  14.171  10.192   3.507 -0.0052  0.1058  0.1328
 2028WN      WN12132  12.718   5.568  10.491  0.1311  0.0490  0.1018
 2029WN      WN12133   1.522   8.827   2.679 -0.2294 -0.1134 -0.1242
 2030WN      WN12134   7.629   7.006   9.241 -0.0708  0.1229 -0.1170
 2031WN      WN12135   0.121   8.210   9.160 -0.0751  0.2501 -0.0402
 2032WN      WN12136   6.516  10.205   3.369 -0.0848 -0.0205 -0.2761
 2033WN      WN12137  15.853   7.430   1.470 -0.0981 -0.1434 -0.1478
 2034WN      WN12138  15.256   7.721   3.459  0.1127 -0.1479 -0.1918
 2035WN      WN12139   6.473   5.230  13.371 -0.2041 -0.3712 -0.0809
 2036WN      WN12140   4.501   1.415   0.051  0.2961  0.1062 -0.5142
 2037WN      WN12141   4.523   6.713  10.560  0.0064  0.2098  0.0412
 2038WN      WN12142  13.392   3.944  13.178  0.1423 -0.0975 -0.0313
 2039WN      WN12143   6.934   7.884  12.275  0.1702  0.1025  0.0731
 2040WN      WN12144  11.395  14.051  12.275  0.0006  0.0404 -0.0364
 2041WN      WN12145   7.962   2.317  12.207 -0.2221  0.1532  0.1922
 2042WN      WN12146   5.425  11.407   3.993 -0.3073 -0.1518 -0.0360
 2043WN      WN12147  11.745   4.031   9.123  0.1217 -0.3248 -0.0570
 2044WN      WN12148  14.891   0.716   3.625 -0.2797  0.0649  0.1323
 2045WN      WN12149   3.505   6.023  10.545  0.0612  0.2554  0.0630
 2046WN      WN12150  12.068   9.716   2.974  0.4036 -0.1105 -0.0124
 2047WN      WN12151   6.262   9.258  13.139 -0.1290  0.1171  0.2776
 2048WN      WN12152   9.284   9.940  10.541  0.1983  0.0869  0.1191
 2049WN      WN12153   2.130   1.462   0.835 -0.1768 -0.0246  0.0948
 2050WN      WN12154  14.735   1.745   0.756  0.1951 -0.0437 -0.0459
 2051WN      WN12155   2.119  11.913  11.552  0.0324 -0.3883  0.0080
 2052WN      WN12156   3.809  12.865   2.430 -0.0113 -0.0757  0.0910
 2053WN      WN12157   4.415  11.944  10.538  0.1694 -0.0360  0.1592
 2054WN      WN12158   1.358  13.691   2.100  0.1644 -0.0182  0.0446
 2055WN      WN12159   3.401   4.253   3.252 -0.0212  0.0725  0.0731
 2056WN      WN12160   7.170  12.394   5.477  0.0246 -0.2751 -0.1638
 2057WN      WN12161  15.768  14.918   0.057  0.0968  0.1316  0.0329
 2058WN      WN12162  10.036  14.780   3.369  0.3381 -0.0390  0.2293
 2059WN      WN12163  15.891   3.234  12.024  0.1973  0.0806  0.2079
 2060WN      WN12164  12.523  14.563   0.306 -0.0889  0.0984 -0.3724
 2061WN      WN12165  15.743   5.890   0.938  0.2909  0.2457 -0.0262
 2062WN      WN12166   4.478  12.818   1.520  0.1429 -0.1154  0.2403
 2063WN      WN12167  14.651  11.480   9.873  0.0852  0.0389  0.1980
 2064WN      WN12168   0.234  15.536   3.571  0.0981 -0.0621  0.1971
 2065WN      WN12169   6.682   5.868   0.505  0.1288  0.2358  0.1050
 2066WN      WN12170   1.358  14.450   9.775 -0.1063  0.1001 -0.3415
 2067WN      WN12171  12.430   7.385   2.304  0.0927  0.5282  0.0099
 2068WN      WN12172  12.343   1.020   8.503 -0.0840  0.2251  0.0450
 2069WN      WN12173  15.349   5.268   3.336  0.0438 -0.0664  0.1884
 2070WN      WN12174   2.451   0.082   3.549 -0.0443 -0.1365 -0.4973
 2071WN      WN12175   2.815   0.407   0.239 -0.1132 -0.1328 -0.0864
 2072WN      WN12176   3.716   0.074   9.755 -0.0120  0.3279  0.1112
 2073WN      WN12177  12.372   7.520  11.408 -0.1638 -0.0799 -0.0478
 2074WN      WN12178   8.555   8.905   4.046 -0.1256 -0.2566 -0.0116
 2075WN      WN12179   1.846  10.933   4.389  0.0376 -0.1691 -0.1857
 2076WN      WN12180  10.485  11.791   1.626  0.1032 -0.1824 -0.1468
 2077WN      WN12181   7.060  13.831   4.295 -0.0352  0.0034 -0.1861
 2078WN      WN12182   3.248  11.548  11.545 -0.4040  0.1123 -0.0595
 2079WN      WN12183   8.204   7.183   1.655  0.2414 -0.0052 -0.0030
 2080WN      WN12184  10.100   2.312   0.865  0.3293  0.0724 -0.1789
 2081WN      WN12185   5.943  14.674   0.402 -0.0603 -0.1390  0.0575
 2082WN      WN12186   1.044   6.431  10.652  0.0874  0.2868 -0.0489
 2083WN      WN12187   6.901  12.295  11.631  0.3754 -0.0885  0.3519
 2084WN      WN12188   4.029   4.573  11.784  0.3677 -0.0258 -0.0223
 2085WN      WN12189  11.381   8.907   2.981 -0.1326 -0.0519 -0.0142
 2086WN      WN12190   6.050  15.151  11.539 -0.1567  0.0052  0.1311
 2087WN      WN12191   4.852  12.036   2.653  0.1022 -0.0916 -0.3109
 2088WN      WN12192  14.664   1.962   1.508  0.3841 -0.0612 -0.0357
 2089WN      WN12193   3.440   8.030  11.289  0.3155 -0.1878 -0.0080
 2090WN      WN12194   3.767   0.484   3.140 -0.2047 -0.2673  0.1277
 2091WN      WN12195   3.180   0.680  10.435  0.6967 -0.3230 -0.1278
 2092WN      WN12196  12.790   3.179   0.762 -0.1827  0.0037 -0.1406
 2093WN      WN12197  14.482   2.543   2.193  0.0785 -0.1681 -0.1605
 2094WN      WN12198   5.533   6.933  10.243  0.1964  0.1537  0.0542
 2095WN      WN12199   4.387   9.519  12.264 -0.4472 -0.1622 -0.0210
 2096WN      WN12200   3.929   2.183  11.134 -0.3325 -0.3070  0.0908
 2097WN      WN12201  10.766   6.236   3.542  0.0637  0.0639  0.2745
 2098WN      WN12202   9.589   3.667  12.980 -0.0159 -0.0580 -0.0739
 2099WN      WN12203   3.666  13.162   3.883  0.0339  0.0836 -0.1180
 2100WN      WN12204  15.075   7.680   9.248 -0.0516 -0.2430 -0.1404
 2101WN      WN12205   6.780   4.470   4.168  0.3476  0.0711  0.0075
 2102WN      WN12206  10.541   6.143   4.545 -0.0322  0.3562 -0.0773
 2103WN      WN12207  13.075   9.609  11.511 -0.1260  0.1427 -0.0657
 2104WN      WN12208  15.514  13.338   2.700  0.1300  0.3223  0.2361
 2105WN      WN12209   0.416  12.898   1.893 -0.1612  0.1025 -0.0131
 2106WN      WN12210   8.499   9.071   3.511 -0.0502  0.3763 -0.0703
 2107WN      WN12211   0.391  12.366  11.873  0.0617  0.2279  0.1425
 2108WN      WN12212   8.137   3.071  10.990 -0.1064  0.2446 -0.2588
 2109WN      WN12213  15.677   9.332   9.797 -0.1082 -0.1104  0.3744
 2110WN      WN12214   6.080  13.552   2.654 -0.1406  0.1208  0.1196
 2111WN      WN12215   3.277  12.642   9.366  0.5053 -0.1630  0.0313
 2112WN      WN12216   1.371   9.069   9.017  0.0862 -0.0205  0.1781
 2113WN      WN12217   7.769   8.409  12.924  0.0151  0.0298  0.0289
 2114WN      WN12218  12.653   1.543   2.755  0.0614 -0.3486  0.3545
 2115WN      WN12219   7.885  10.461   3.337  0.1336 -0.0383 -0.0303
 2116WN      WN12220   3.438  12.948   4.308  0.0694  0.0227  0.2993
 2117WN      WN12221   9.323  11.259   1.540 -0.3526  0.0018 -0.1995
 2118WN      WN12222  11.607   4.791  12.812 -0.2452 -0.1155  0.0382
 2119WN      WN12223   7.044   1.773  13.069 -0.0294  0.1089  0.0128
 2120WN      WN12224   9.486   6.982   2.681 -0.0676  0.2024 -0.1941
 2121WN      WN12225  10.940  12.802   3.429 -0.0968 -0.0888  0.1307
 2122WN      WN12226   1.731   7.114   2.717  0.1884  0.2999  0.2038
 2123WN      WN12227  15.370   1.120   9.453 -0.2186  0.0237  0.0653
 2124WN      WN12228  13.218  11.942   2.043  0.0855  0.1894  0.3304
 2125WN      WN12229   6.693   2.747  12.069  0.0624 -0.1084  0.2937
 2126WN      WN12230   0.907  10.895   0.325 -0.2342 -0.2914 -0.2655
 2127WN      WN12231   0.655   9.570   2.666  0.3441  0.5605  0.0499
 2128WN      WN12232   3.613   4.304  13.075  0.6832  0.0645 -0.4278
 2129WN      WN12233  15.092  15.364   9.942 -0.1039  0.1800  0.3960
 2130WN      WN12234   1.406   8.960  10.862 -0.3412 -0.2937  0.1534
 2131WN      WN12235   7.046   1.292  10.622  0.2786 -0.0293 -0.2685
 2132WN      WN12236  10.962   0.934  13.430 -0.2203 -0.0987 -0.1204
 2133WN      WN12237   1.193  10.839  13.377 -0.1948 -0.1370  0.1559
 2134WN      WN12238   0.800   9.907   2.985 -0.0588 -0.1054 -0.1054
 2135WN      WN12239   7.212   0.600   1.180 -0.0417  0.0241  0.0990
 2136WN      WN12240  14.618   7.108   1.425  0.3931  0.0831  0.3342
 2137WN      WN12241   0.123   6.986   9.779  0.1371  0.1334 -0.1200
 2138WN      WN12242   8.598   1.416   3.747 -0.0057 -0.0113  0.2190
 2139WN      WN12243   8.995  12.192   1.009  0.1438 -0.0042 -0.3354
 2140WN      WN12244  11.560   8.213   3.947  0.0925  0.3299 -0.1383
 2141WN      WN12245   1.835  12.212  12.703 -0.1406 -0.0914  0.0941
 2142WN      WN12246   1.324   7.449   3.734  0.2205  0.0412  0.1410
 2143WN      WN12247   1.935  14.151  10.570  0.1230  0.0723  0.1774
 2144WN      WN12248   7.988   4.210   1.410 -0.0786 -0.0948 -0.0050
 2145WN      WN12249  15.828   9.978   3.856  0.1842 -0.0500  0.0207
 2146WN      WN12250   3.861   1.440   3.152 -0.2047  0.1382  0.3073
 2147WN      WN12251  13.694  14.358   3.390  0.1344 -0.1522 -0.0354
 2148WN      WN12252  11.474  14.054  13.378  0.0153  0.0066 -0.0992
 2149WN      WN12253   5.869   9.641   0.861 -0.0138 -0.3217  0.2168
 2150WN      WN12254   3.070   9.195   5.180 -0.1334  0.1476  0.0589
 2151WN      WN12255   1.919   9.035   3.295  0.0285  0.1311 -0.1189
 2152WN      WN12256   4.204   8.670   3.150 -0.2047  0.1788 -0.0811
 2153WN      WN12257   3.216  14.732  12.430 -0.2026  0.1568  0.1294
 2154WN      WN12258   8.252  15.695  10.630 -0.2365 -0.0650 -0.0127
 2155WN      WN12259  15.537   1.255   2.823  0.0854  0.0589  0.0590
 2156WN      WN12260   3.496   3.252  12.903 -0.2002 -0.4053  0.2623
 2157WN      WN12261   0.136   0.858  12.510  0.1779  0.2558  0.0334
 2158WN      WN12262   5.258  11.849   3.944 -0.2542  0.2056 -0.2233
 2159WN      WN12263   2.196   7.955   2.747  0.0367 -0.0007  0.1024
 2160WN      WN12264   3.650  13.296   2.317  0.2922  0.1836 -0.0222
 2161WN      WN12265  11.466   2.183  11.569  0.0037  0.3130  0.2399
 2162WN      WN12266   1.434   0.066  10.758  0.1765 -0.0060 -0.0105
 2163WN      WN12267   9.753   7.341  11.801  0.0937  0.1709 -0.1501
 2164WN      WN12268  12.794  12.128   1.294  0.0771  0.3849 -0.0305
 2165WN      WN12269   6.404  10.533   4.219 -0.2268  0.1826  0.2619
 2166WN      WN12270   2.483   8.515  11.996  0.2511 -0.0353 -0.1183
 2167WN      WN12271  15.133   9.023  11.248  0.2488 -0.1682  0.1538
 2168WN      WN12272   5.763  15.757   1.144 -0.0114 -0.0721  0.0777
 2169WN      WN12273   1.745   8.123   1.334 -0.2375 -0.2397  0.2037
 2170WN      WN12274   0.434   7.714  10.499 -0.0336  0.1987  0.0179
 2171WN      WN12275  12.838   5.989   0.761 -0.0073 -0.0549  0.2675
 2172WN      WN12276  14.873   8.915   9.554  0.1745  0.1691  0.0858
 2173WN      WN12277   3.314   4.747   9.468 -0.2902  0.1739 -0.0405
 2174WN      WN12278   7.340   9.807   1.600  0.2251 -0.2429 -0.2546
 2175WN      WN12279  15.446   4.183   2.062 -0.1155  0.0106 -0.1586
 2176WN      WN12280  11.875  13.985  11.051 -0.0372 -0.2948  0.2166
 2177WN      WN12281   4.347   6.982  12.968 -0.0196  0.1207  0.3279
 2178WN      WN12282   0.725   1.871  12.327  0.1217 -0.1733  0.1177
 2179WN      WN12283   1.871  14.530  12.472  0.0978 -0.0990  0.3453
 2180WN      WN12284  15.895  12.555  11.325 -0.0102 -0.0475  0.1343
 2181WN      WN12285   5.578   9.042   9.853  0.0780 -0.0156  0.0473
 2182WN      WN12286   0.202   8.584  10.522  0.0263  0.1692  0.1198
 2183WN      WN12287   3.268   2.660   3.456 -0.0522  0.1264 -0.0904
 2184WN      WN12288  14.830   4.376  12.040  0.0839  0.3098 -0.1726
 2185WN      WN12289   3.651  13.380   4.501 -0.0983 -0.2842  0.1091
 2186WN      WN12290  11.658   9.761  11.749  0.0488 -0.0819 -0.1763
 2187WN      WN12291  11.838   5.664  13.346  0.0698  0.1537 -0.2577
 2188WN      WN12292   1.879  13.092   9.490  0.1515 -0.1039  0.0039
 2189WN      WN12293  13.293   8.065   1.844  0.2298  0.2200 -0.1078
 2190WN      WN12294   6.887   6.917  12.540 -0.1989  0.1291 -0.1501
 2191WN      WN12295  13.111   5.125  11.203 -0.0837 -0.5112 -0.0377
 2192WN      WN12296   5.257  11.477  12.988 -0.0262  0.2127  0.3044
 2193WN      WN12297   6.401   5.858   4.313 -0.2040 -0.2117 -0.0060
 2194WN      WN12298   1.095  14.586   9.272  0.3156  0.1153  0.0722
 2195WN      WN12299   7.071  13.697   3.797 -0.1245  0.0965 -0.2204
 2196WN      WN12300  11.488  11.004   9.788 -0.2054 -0.1016 -0.3632
 2197WN      WN12301   7.388   5.867  11.500  0.3773 -0.0355 -0.2219
 2198WN      WN12302   7.460  11.735   4.907 -0.2300  0.0287 -0.3699
 2199WN      WN12303   4.010  11.045  13.333  0.1234  0.1076  0.3641
 2200WN      WN12304   7.865   7.414   3.074  0.0851 -0.1241  0.2242
 2201WN      WN12305  12.571   2.040   0.863 -0.1962 -0.1694  0.3328
 2202WN      WN12306  12.759   5.083   2.549 -0.0612  0.1048 -0.1058
 2203WN      WN12307   2.784   7.155  12.754  0.2775  0.1477  0.3360
 2204WN      WN12308   4.400  13.255   9.640 -0.1894 -0.0435  0.0330
 2205WN      WN12309   9.746  15.438  12.095  0.0597 -0.1742 -0.2318
 2206WN      WN12310   3.379  13.069   3.521 -0.1473 -0.0009  0.0036
 2207WN      WN12311   2.308   4.023   3.047  0.0225  0.1362  0.0651
 2208WN      WN12312   4.931   6.428  10.619 -0.1265  0.4345 -0.2010
 2209WN      WN12313   5.024  13.688  10.426  0.2182  0.1069  0.4024
 2210WN      WN12314   6.278   9.721  13.387 -0.0702  0.2193  0.0074
 2211WN      WN12315  14.341   4.867   0.430 -0.0729  0.3256  0.1193
 2212WN      WN12316   3.137   9.057   0.010 -0.0110 -0.4004 -0.0200
 2213WN      WN12317  10.509   6.606  11.307  0.3055  0.1156  0.1847
 2214WN      WN12318  12.397   7.613   3.219 -0.3431  0.0416 -0.0210
 2215WN      WN12319   6.527  12.945  12.289  0.1151 -0.2582  0.2614
 2216WN      WN12320  12.081   2.341   0.736  0.0132  0.1325 -0.0910
 2217WN      WN12321  15.773  12.112  13.115 -0.1185 -0.2642  0.1853
 2218WN      WN12322  12.328  12.639   3.663 -0.0774  0.1851 -0.0018
 2219WN      WN12323  12.000  10.701  11.307  0.1173  0.0504  0.1768
 2220WN      WN12324  14.305  13.593  13.036 -0.2765 -0.2934  0.1751
 2221WN      WN12325  12.337  12.242  11.613 -0.3078  0.4252  0.0845
 2222WN      WN12326  10.109  11.500  11.547 -0.0903  0.0300 -0.0446
 2223WN      WN12327  15.100   1.441   2.906  0.2057  0.0508  0.2882
 2224WN      WN12328   0.042   4.312   2.593 -0.1930  0.0579  0.0598
 2225WN      WN12329   3.986   3.196  11.505 -0.0898  0.0273 -0.1775
 2226WN      WN12330   6.311  13.665  11.071 -0.0915 -0.1932 -0.0153
 2227WN      WN12331   2.554   0.284   8.363 -0.1838 -0.0568  0.1127
 2228WN      WN12332   7.391  13.018   5.525 -0.0648  0.1085  0.0442
 2229WN      WN12333  12.128  13.846   3.042  0.4231  0.0778  0.0712
 2230WN      WN12334   6.316  13.615   3.438  0.3094 -0.2757 -0.0128
 2231WN      WN12335   9.455   7.297   9.291 -0.1303 -0.2566  0.0316
 2232WN      WN12336  14.820   2.958   0.083 -0.0289 -0.2388  0.3146
 2233WN      WN12337   1.883  10.820  10.203  0.0188 -0.0662 -0.1392
 2234WN      WN12338   1.145   3.846  13.344  0.0169 -0.2892 -0.0732
 2235WN      WN12339   5.417   3.786   1.762 -0.1567 -0.0012 -0.2501
 2236WN      WN12340   4.692  13.615  11.602 -0.0927  0.1320 -0.0731
 2237WN      WN12341   9.497  12.518   9.910 -0.1387 -0.1380 -0.1085
 2238WN      WN12342   0.798   8.572   0.005  0.1424  0.0720  0.0181
 2239WN      WN12343   8.317   3.656   4.458 -0.0847  0.0436  0.1944
 2240WN      WN12344   5.098  13.089  13.448  0.2313 -0.2664 -0.0261
 2241WN      WN12345   3.824  13.087   3.263  0.1194 -0.0576  0.0306
 2242WN      WN12346   0.293   0.747   3.233  0.2840 -0.5463 -0.1885
 2243WN      WN12347  11.265   5.358   0.491  0.1554 -0.1699  0.0112
 2244WN      WN12348   2.896  15.438   1.652 -0.0722  0.1452  0.1006
 2245WN      WN12349   0.232   9.541   0.086 -0.0154  0.2502  0.0169
 2246WN      WN12350   4.079   7.192   1.878 -0.0082  0.1799 -0.1742
 2247WN      WN12351  14.354  14.984  10.129  0.0045 -0.1077 -0.3023
 2248WN      WN12352   6.404  13.588  10.526  0.0722 -0.0173 -0.1015
 2249WN      WN12353   6.066  12.884   3.851 -0.1055  0.0521 -0.0444
 2250WN      WN12354   1.763  14.283   8.773  0.0582 -0.0667 -0.1410
 2251WN      WN12355   8.565  15.333   1.863  0.2518  0.2478 -0.2153
 2252WN      WN12356  14.125   1.355  12.972  0.2180  0.1653  0.5506
 2253WN      WN12357   6.679   3.752   2.336  0.2502  0.0893 -0.0383
 2254WN      WN12358   4.305   3.121  10.260 -0.0231 -0.3048  0.0406
 2255WN      WN12359   9.806  13.200  12.375  0.0779  0.3079  0.2483
 2256WN      WN12360   0.834   8.305   0.973  0.1997 -0.2013 -0.1671
 2257WN      WN12361   2.148   9.128   1.699  0.0092  0.1345  0.3037
 2258WN      WN12362   6.582   1.091   0.683  0.0514  0.0032 -0.2818
 2259WN      WN12363  13.809  10.476  11.626 -0.6292 -0.0763 -0.1568
 2260WN      WN12364   3.758   7.657  11.699 -0.0777 -0.1252 -0.3770
 2261WN      WN12365  12.825  15.572  12.594  0.0540  0.2309 -0.2068
 2262WN      WN12366   3.023   6.988   4.965 -0.1912  0.1136  0.0236
 2263WN      WN12367   1.618   9.411  11.033  0.0903  0.4556  0.2029
 2264WN      WN12368   1.521   2.129   9.205 -0.0297 -0.2835  0.0847
 2265WN      WN12369  12.099   8.903  10.696  0.0669  0.0741 -0.0939
 2266WN      WN12370   2.617   2.548  11.060 -0.3745  0.0009  0.0958
 2267WN      WN12371  11.517   3.609   1.399  0.2434  0.1466  0.0200
 2268WN      WN12372   9.380   7.459   2.703 -0.2280 -0.0311  0.2591
 2269WN      WN12373   7.406  10.786   5.042  0.2246 -0.1610 -0.0962
 2270WN      WN12374   2.055  11.878  12.425  0.2628 -0.1162 -0.1047
 2271WN      WN12375  11.576   9.828   1.467 -0.1083  0.0325 -0.2643
 2272WN      WN12376  15.812   6.948   0.648 -0.0148 -0.3595 -0.3738
 2273WN      WN12377  14.958   4.541   8.688  0.3306  0.0563  0.1233
 2274WN      WN12378   5.861   2.858   8.787 -0.0136 -0.1348 -0.3098
 2275WN      WN12379  12.887  14.950   2.648  0.3767  0.0606  0.3072
 2276WN      WN12380  15.106   1.391  11.743 -0.3985  0.0255 -0.1165
 2277WN      WN12381   9.827   8.240  11.302 -0.3099  0.1380 -0.1954
 2278WN      WN12382   3.162   4.266   9.240 -0.1352  0.0632 -0.0883
 2279WN      WN12383  14.283   2.686   2.604 -0.0748  0.2377 -0.0770
 2280WN      WN12384   9.347   4.890  10.488  0.0500  0.2615 -0.5942
 2281WN      WN12385   6.399  14.250   0.949 -0.1149 -0.0985  0.0209
 2282WN      WN12386   9.558   8.099  10.445  0.0989  0.0523 -0.3459
 2283WN      WN12387   9.034  12.666   1.380  0.3181  0.0322 -0.2360
 2284WN      WN12388   2.810   7.469  13.142 -0.0504  0.2737 -0.1378
 2285WN      WN12389   6.067   0.007   2.387  0.4108  0.0473  0.0871
 2286WN      WN12390   5.671   9.999   0.634  0.2167 -0.1032 -0.0247
 2287WN      WN12391  14.941  14.762  13.208 -0.1151  0.2034  0.2958
 2288WN      WN12392  11.047  14.691  13.439  0.2738 -0.0800 -0.2080
 2289WN      WN12393   1.020   8.686  12.531 -0.1218  0.1588  0.0458
 2290WN      WN12394   4.563   8.839   9.586 -0.0674 -0.4415  0.2766
 2291WN      WN12395   7.100  13.728  11.277  0.0547 -0.1065  0.1071
 2292WN      WN12396   1.239  10.867   1.957  0.1942 -0.1231  0.0560
 2293WN      WN12397  14.213   3.011   2.188 -0.1009  0.2343 -0.0488
 2294WN      WN12398  10.200  10.154   3.005 -0.1063 -0.0478 -0.1894
 2295WN      WN12399  13.946   4.925  11.766  0.1294 -0.1341  0.2724
 2296WN      WN12400   6.945   9.819   4.434  0.3483  0.0106  0.0051
 2297WN      WN12401   0.780   8.154  13.186 -0.2437  0.1452 -0.4243
 2298WN      WN12402   6.689   8.601  10.981  0.1517  0.1972 -0.0383
 2299WN      WN12403  13.179   1.276   7.989  0.2600  0.2878  0.0898
 2300WN      WN12404  12.597   4.413   0.241 -0.3389 -0.3642 -0.2345
 2301WN      WN12405   8.605   4.118   3.740  0.1122  0.2578  0.1014
 2302WN      WN12406   3.387   1.270   3.464 -0.1247  0.2494 -0.2549
 2303WN      WN12407   4.196   0.448  11.329 -0.3312  0.0458 -0.0981
 2304WN      WN12408   1.878  12.375   9.018  0.2091 -0.0970  0.1955
 2305WN      WN12409  11.112   3.009  13.099 -0.0077 -0.3643  0.1149
 2306WN      WN12410   3.868   5.046   3.586 -0.2829 -0.2883 -0.0756
 2307WN      WN12411   0.949   0.457  11.565  0.0924 -0.3277 -0.2989
 2308WN      WN12412   7.884  15.190   0.115  0.0935 -0.3718 -0.1637
 2309WN      WN12413   7.858  11.168  10.011 -0.2369  0.0966  0.1365
 2310WN      WN12414   0.541  10.235   0.814 -0.0176  0.2027 -0.1539
 2311WN      WN12415   6.155   3.179  12.625 -0.0227 -0.0135  0.1138
 2312WN      WN12416  14.661  10.752   2.585 -0.0905  0.2424 -0.1492
 2313WN      WN12417   3.086   8.773   9.571  0.2115 -0.0027 -0.0590
 2314WN      WN12418   7.085  14.603   9.537  0.0422  0.2487 -0.0818
 2315WN      WN12419  10.877  13.766  12.856  0.1990  0.0501  0.0024
 2316WN      WN12420  11.326   6.367   9.335  0.2006  0.2810  0.0045
 2317WN      WN12421   2.302   8.250   1.058 -0.0928  0.2398 -0.0949
 2318WN      WN12422  12.425  15.874  12.417  0.0590 -0.1145 -0.0961
 2319WN      WN12423   3.081   1.519   3.094 -0.0449 -0.3536  0.0059
 2320WN      WN12424  14.046  11.308   1.342  0.0047  0.0512 -0.1655
 2321WN      WN12425   0.159   5.729   9.762 -0.1106  0.1389 -0.0528
 2322WN      WN12426   6.066   9.893  10.808 -0.0894  0.2672 -0.1915
 2323WN      WN12427   3.507  15.289  11.387  0.1486 -0.2744 -0.0585
 2324WN      WN12428   8.826  10.500   3.733  0.0811 -0.1107  0.3143
 2325WN      WN12429   3.077  15.422  12.731  0.0608  0.1939  0.0348
 2326WN      WN12430  15.281   0.700   0.288  0.1039 -0.0063  0.2358
 2327WN      WN12431   8.188   0.773  11.066 -0.1599 -0.0826 -0.1828
 2328WN      WN12432   6.817   0.754  11.661  0.2052  0.0359 -0.3511
 2329WN      WN12433  15.116   4.116  11.096  0.0696  0.2643  0.3227
 2330WN      WN12434  15.140   5.162  13.142  0.1974 -0.3593  0.4015
 2331WN      WN12435   9.206  10.681  10.334 -0.3044  0.1269 -0.2726
 2332WN      WN12436   5.588  15.464  11.446  0.4132 -0.1870 -0.1375
 2333WN      WN12437   9.447  14.247  11.844  0.5377 -0.0859  0.2702
 2334WN      WN12438   2.649  11.533   1.127 -0.3577  0.0630 -0.2551
 2335WN      WN12439   7.456   4.392  10.899  0.0678 -0.3092 -0.3103
 2336WN      WN12440   3.998   9.840   9.537 -0.4813  0.1960 -0.0911
 2337WN      WN12441  10.473   5.660   3.195  0.2761  0.1361  0.1834
 2338WN      WN12442   2.559   5.402  12.379  0.0740 -0.0933  0.0641
 2339WN      WN12443   4.750  13.188   2.242  0.0208 -0.0108  0.3057
 2340WN      WN12444   3.384  14.077  11.728 -0.1047  0.2470 -0.1621
 2341WN      WN12445  10.050   8.347   4.585 -0.1181  0.0422  0.3743
 2342WN      WN12446   9.027   4.420   2.540  0.0885  0.0352  0.0507
 2343WN      WN12447  12.605  10.086  12.939 -0.4433 -0.1458 -0.0896
 2344WN      WN12448   2.917  11.959   1.021 -0.0726 -0.0232 -0.0312
 2345WN      WN12449   4.505   5.833   1.640 -0.0137  0.1780 -0.0754
 2346WN      WN12450  14.178   8.065   4.673 -0.0057 -0.0149  0.1261
 2347WN      WN12451   4.483  14.064  11.828  0.0781  0.2161 -0.3596
 2348WN      WN12452   6.089   3.592   9.167 -0.1808 -0.0109  0.0085
 2349WN      WN12453   4.583  10.934  13.283 -0.2005 -0.0587 -0.2898
 2350WN      WN12454   9.330   7.407   9.910  0.1121 -0.1264  0.0181
 2351WN      WN12455   0.970  14.818   9.786  0.2340 -0.1345 -0.1693
 2352WN      WN12456   5.804   6.866   2.421  0.0940  0.2135 -0.3453
 2353WN      WN12457  12.233  14.530   0.778  0.1167 -0.2141  0.2219
 2354PP      PP12458   3.065   9.307  12.968  0.0995 -0.1044 -0.1756
 2355PP      PP12459  14.202   4.009   0.106  0.0382 -0.0218 -0.1141
 2356PP      PP12460   6.982   3.462   1.763  0.2520  0.2508 -0.0633
 2357PP      PP12461  13.230  13.707   3.034 -0.1530  0.3028 -0.2286
 2358PP      PP12462   1.299   4.478   4.395 -0.1904  0.2563  0.0740
 2359PP      PP12463   8.042   7.090   3.937  0.2174  0.1974  0.3286
 2360PP      PP12464  15.684  10.846   2.822  0.1227  0.0407 -0.1171
 2361PP      PP12465  12.243   7.275   2.786 -0.1232 -0.0799  0.1175
 2362PP      PP12466   0.272  13.853   2.983  0.0479  0.0675 -0.0848
 2363PP      PP12467   5.446   5.485  12.541  0.0283  0.0572 -0.2040
 2364PP      PP12468  10.197   7.087   2.016 -0.1471 -0.0232  0.0171
 2365PP      PP12469  11.845   1.709   9.444  0.1548  0.2020 -0.0325
 2366PP      PP12470   5.219   5.863   0.650 -0.1555  0.1222  0.1987
 2367PP      PP12471   5.186   9.484   0.112 -0.0519 -0.1006 -0.1140
 2368PP      PP12472   7.787   6.696   2.146  0.0774 -0.3193 -0.0535
 2369PP      PP12473   9.727   0.932  13.300 -0.3909 -0.1826 -0.0912
 2370PP      PP12474   7.516   8.932   2.832  0.0032 -0.2435  0.0217
 2371PP      PP12475  10.769  12.594  11.363 -0.5015 -0.2151 -0.0087
 2372PP      PP12476  13.187  15.889  12.389  0.0453 -0.1906  0.3055
 2373PP      PP12477   4.174   0.656  10.339  0.1708 -0.0559 -0.3952
 2374PP      PP12478  13.108  10.263  10.054  0.1814 -0.2060  0.1443
 2375PP      PP12479   6.562   6.219   2.309  0.0011  0.1018  0.1812
 2376PP      PP12480   0.602   9.341  11.322  0.2922 -0.1414  0.0631
 2377PP      PP12481   4.841  12.063   0.953 -0.0421 -0.3649  0.0795
 2378PP      PP12482   0.214   8.902   0.734  0.1422 -0.1157  0.0633
 2379PP      PP12483   8.673   9.601  11.955 -0.0004  0.1393  0.2637
 2380PP      PP12484   2.386  12.040   9.567  0.2079  0.0766  0.0221
 2381PP      PP12485  13.315  12.048   1.520  0.0166  0.1104 -0.0519
 2382PP      PP12486   1.136   5.851  10.554  0.0998  0.3177 -0.3935
 2383PP      PP12487  15.817   7.763   1.025 -0.2006  0.0392  0.0676
 2384PP      PP12488   5.574  11.967  10.955  0.3286 -0.1991 -0.1617
 2385PP      PP12489   2.444  12.694   3.294 -0.2006  0.0597 -0.2160
 2386PP      PP12490   8.754   2.609  12.458 -0.3707  0.1602  0.0115
 2387PP      PP12491  15.430  11.145   3.170  0.0825 -0.2698  0.0533
 2388PP      PP12492  13.898   0.809   8.917  0.0726  0.0057 -0.1464
 2389PP      PP12493   4.735   7.116  11.346  0.2372  0.1680  0.4924
 2390PP      PP12494  10.565   0.373   8.872  0.1579 -0.0349 -0.1479
 2391PP      PP12495  13.882   2.127  11.269  0.0377  0.1273  0.3703
 2392PP      PP12496   2.270  10.551  12.084  0.2887  0.1377 -0.0992
 2393PP      PP12497   3.090  12.624  12.159  0.2179 -0.1478 -0.0873
 2394PP      PP12498   1.234   0.972   1.122  0.0906 -0.0274  0.0020
 2395PP      PP12499   4.759   6.758   1.538 -0.0685 -0.1390  0.1243
 2396PP      PP12500   7.863   0.657  11.684  0.0553 -0.1606  0.3383
 2397PP      PP12501   7.715  14.510   3.651  0.0907 -0.1608  0.1930
 2398PP      PP12502   5.706   0.044   2.854 -0.3048 -0.0467 -0.0105
 2399PP      PP12503   2.987  10.211   4.353 -0.0041 -0.1507  0.0256
 2400PP      PP12504   9.396   8.010   2.271 -0.3783  0.0323  0.2892
 2401PP      PP12505   9.903  11.382   2.938 -0.1304 -0.0887 -0.2360
 2402PP      PP12506  11.777   9.987   0.716 -0.2958 -0.3873  0.0555
 2403PP      PP12507  10.369   2.468   2.173 -0.0604 -0.2710  0.0405
 2404PP      PP12508   6.875  14.172   3.907  0.1271  0.0537  0.0430
 2405PP      PP12509   0.003  11.957   2.817 -0.1961 -0.1918 -0.0020
 2406PP      PP12510   6.372   0.375   2.286 -0.2920 -0.1301 -0.0424
 2407PP      PP12511  11.609   2.979  11.399 -0.1744  0.2432  0.1341
 2408PP      PP12512   4.201  11.953  12.328 -0.1062  0.1825 -0.0763
 2409PP      PP12513   5.246   7.910   9.548  0.0409 -0.0823  0.1445
 2410PP      PP12514   3.753   8.417   2.261  0.1035  0.0824  0.1706
 2411PP      PP12515   3.400   8.391   3.566  0.0305 -0.1325  0.5031
 2412PP      PP12516   7.834   0.386  11.017 -0.1839 -0.1255 -0.2933
 2413PP      PP12517  11.285  11.403   0.509 -0.0414  0.2399 -0.0994
 2414PP      PP12518   5.796   3.839  11.407  0.1800 -0.0939 -0.1049
 2415PP      PP12519   8.520  13.010   4.577 -0.1437 -0.0145  0.3398
 2416PP      PP12520   5.436   3.240   0.049  0.1288 -0.0724 -0.2596
 2417PP      PP12521   5.014  10.706  12.485  0.1684  0.2602 -0.1902
 2418PP      PP12522  12.122  12.943   2.931 -0.3067 -0.1466  0.0986
 2419PP      PP12523  11.765  15.271   0.472  0.0002  0.1257  0.2188
 2420PP      PP12524   1.538   2.246   0.060  0.1658  0.2116 -0.1997
 2421PP      PP12525  14.720  11.062   9.075 -0.0441  0.0508  0.2047
 2422PP      PP12526   2.653  13.120  12.139  0.0119  0.1945 -0.0622
 2423PP      PP12527   3.296   1.021  10.848  0.1318 -0.2025  0.0404
 2424PP      PP12528  14.859  11.961   0.691  0.1041 -0.0675 -0.1837
 2425PP      PP12529   3.060  14.000   2.347  0.3171  0.1185 -0.0092
 2426PP      PP12530   1.957   6.042   3.209  0.0666 -0.0476 -0.0642
 2427PP      PP12531  13.704   6.382  10.879 -0.1931  0.0065  0.1729
 2428PP      PP12532   4.292  15.490  10.874 -0.4378 -0.2357  0.0101
 2429PP      PP12533   2.094  10.662   3.460  0.1799  0.0976 -0.0772
 2430PP      PP12534   8.710  10.752   3.325 -0.0007 -0.0328  0.1787
 2431PP      PP12535   4.734   5.204   0.977 -0.1767  0.1963 -0.0733
 2432PP      PP12536   7.306   6.561   3.739 -0.0385 -0.2533  0.0838
 2433PP      PP12537  15.805   5.463   2.199 -0.1675  0.1981  0.1572
 2434PP      PP12538   0.863   5.891  12.334  0.2779 -0.3266 -0.0525
 2435PP      PP12539  12.711   8.000   3.102  0.0411  0.0647  0.2222
 2436PP      PP12540  11.303  15.215  10.303  0.1450 -0.1457  0.0697
 2437PP      PP12541  10.132   6.643   3.297 -0.2304 -0.3070 -0.1392
 2438PP      PP12542   9.293  13.784  11.671 -0.1256  0.2760  0.0563
 2439PP      PP12543   2.649  14.650  10.783 -0.0852 -0.0053 -0.3522
 2440PP      PP12544  15.378  10.173   8.453  0.1996 -0.1892  0.1209
 2441PP      PP12545   5.338   6.984   2.647  0.0896  0.1077 -0.1969
 2442PP      PP12546  10.585   4.120  10.680 -0.0238 -0.4793 -0.1426
 2443PP      PP12547   8.175  10.224   4.806 -0.2963  0.2931  0.3186
 2444PP      PP12548   7.447   7.513   3.312 -0.0380 -0.0756 -0.1898
 2445PP      PP12549   0.004   8.166   4.007  0.2060  0.2700  0.1316
 2446PP      PP12550  11.158   9.635  12.073  0.1419  0.1634  0.0340
 2447PP      PP12551   6.300   6.654   4.767 -0.0086  0.0013  0.1285
 2448PP      PP12552   2.632  15.312  10.996  0.0874 -0.2536  0.1925
 2449PP      PP12553   7.864   6.121   2.868 -0.1924  0.2849 -0.3610
 2450PP      PP12554   6.351  12.685   9.926 -0.0717  0.3342  0.6763
 2451PP      PP12555   5.313  15.755  11.060  0.0871 -0.1734 -0.2846
 2452PP      PP12556   3.244   0.667  11.238  0.1541 -0.0704  0.0070
 2453PP      PP12557   1.719   6.916  12.262 -0.0643  0.0349 -0.0552
 2454PP      PP12558   4.466   7.478  10.969  0.2213  0.0282  0.0635
 2455PP      PP12559   8.199  12.657   2.469  0.0524  0.0831 -0.0236
 2456PP      PP12560   1.880  13.555   2.264 -0.2831  0.1301 -0.0905
 2457PP      PP12561   8.852  10.824   5.441  0.1926  0.0237 -0.1541
 2458PP      PP12562   2.277   2.658   3.305  0.0207  0.3626  0.0311
 2459PP      PP12563  14.074   8.912  11.593  0.0391 -0.3884 -0.0656
 2460PP      PP12564   2.028   6.021  10.724 -0.3005  0.2292  0.0696
 2461PP      PP12565   5.662  14.362   0.780 -0.1726  0.2796  0.1174
 2462PP      PP12566  12.548   2.119   3.560 -0.1059  0.2653 -0.1249
 2463PP      PP12567  15.029   9.309   2.942  0.1562  0.2024 -0.1298
 2464PP      PP12568  11.616   0.866  13.242 -0.0370  0.1504 -0.1709
 2465PP      PP12569   9.547   3.107  11.433  0.0627 -0.0834  0.0648
 2466PP      PP12570  12.278   5.793   9.122  0.0067  0.3822 -0.3161
 2467PP      PP12571   3.620   9.768  11.225 -0.0647  0.3167  0.1161
 2468PP      PP12572  14.832   2.046   0.219 -0.2050  0.3035  0.1268
 2469PP      PP12573   3.800  12.951  12.332 -0.1495 -0.1874  0.3285
 2470PP      PP12574   5.451   1.137   2.326  0.1748 -0.0005 -0.0854
 2471PP      PP12575  14.725  13.010  10.916  0.0963  0.0245 -0.1037
 2472PP      PP12576   5.993  12.624  10.295 -0.3093 -0.1804  0.0315
 2473PP      PP12577   3.700   4.719   1.356  0.0134 -0.1879  0.3014
 2474PP      PP12578  11.270   2.772   0.365 -0.0274 -0.1727 -0.0026
 2475PP      PP12579  13.061  13.737   8.591 -0.0662  0.3280 -0.0262
 2476PP      PP12580   6.649   4.113  12.697  0.0389 -0.2446 -0.1889
 2477PP      PP12581  14.889   8.094  10.218  0.0281  0.0623  0.2806
 2478PP      PP12582   5.326   7.427   4.151 -0.3226  0.0806  0.0724
 2479PP      PP12583   5.160   4.289   3.813  0.1063  0.0003 -0.2219
 2480PP      PP12584  12.650  13.714   2.751 -0.0705  0.2612 -0.2065
 2481PP      PP12585  11.563   9.076  10.597  0.3203 -0.1517  0.0622
 2482PP      PP12586  15.131  11.057   2.419  0.1905 -0.1608  0.2043
 2483PP      PP12587  15.825  10.615   3.798 -0.0674  0.3535 -0.2075
 2484PP      PP12588  11.510   6.427   8.852 -0.3557 -0.0789  0.2054
 2485PP      PP12589   5.483  13.183   3.276 -0.1263  0.3934 -0.0472
 2486PP      PP12590  10.400   5.189   0.339 -0.1334  0.1069  0.0910
 2487PP      PP12591   7.739  11.216   0.034  0.5477  0.3692 -0.1374
 2488PP      PP12592   4.182  11.870   5.107 -0.1051 -0.0862 -0.1793
 2489PP      PP12593   7.967   5.160  12.733  0.0163 -0.1170  0.1226
 2490PP      PP12594   1.269   7.229   1.525  0.2832  0.3166  0.0648
 2491PP      PP12595   6.417   2.916  11.702 -0.0064  0.2795  0.0896
 2492PP      PP12596  13.413   1.498   8.394 -0.0648  0.2900 -0.0948
 2493PP      PP12597   6.590   3.965   9.962  0.3188  0.1603  0.0619
 2494PP      PP12598  14.162   9.573   0.409 -0.0009  0.1320 -0.2580
 2495PP      PP12599   9.577  14.994   3.067  0.1301  0.1974 -0.2206
 2496PP      PP12600   0.989   3.232   0.342  0.0249  0.3938  0.1940
 2497PP      PP12601  14.384  10.106   4.016 -0.0958 -0.0972 -0.0622
 2498PP      PP12602   1.314   4.385  11.324 -0.5507 -0.0502 -0.0972
 2499PP      PP12603  10.786   0.056   1.912 -0.1272 -0.0804 -0.0396
 2500PP      PP12604   0.569   2.321   1.498  0.0029  0.0548 -0.0374
 2501PP      PP12605  12.072  11.867  11.255  0.0404  0.2656 -0.1058
 2502PP      PP12606  10.842   1.564   9.385 -0.0824 -0.1002  0.0961
 2503PP      PP12607  11.701   1.070   1.933  0.0108 -0.0304  0.0755
 2504PP      PP12608   3.384   4.029   0.017 -0.0061  0.1622  0.2647
 2505PP      PP12609   2.763  15.412   0.865 -0.0013  0.4973 -0.3705
 2506PP      PP12610   8.763   0.824   0.604  0.1129  0.1951 -0.5206
 2507PP      PP12611  14.477  10.199   2.486 -0.0493 -0.0226 -0.1321
 2508PP      PP12612   3.990  11.238   1.652  0.0407  0.1298  0.1978
 2509PP      PP12613   6.452   6.617  10.721 -0.0433 -0.1205 -0.3151
 2510PP      PP12614  13.889   9.042   0.508  0.1206 -0.1546  0.0744
 2511PP      PP12615  15.730   9.503  11.904 -0.2796  0.2882 -0.3860
 2512PP      PP12616   1.075   4.724  10.570  0.1434 -0.1819  0.0216
 2513PP      PP12617   0.606  11.295   1.961  0.1585  0.1966  0.1738
 2514PP      PP12618   2.825   3.764  10.480  0.1873  0.3183 -0.5291
 2515PP      PP12619  14.930  14.108   3.890 -0.0533  0.2643  0.1837
 2516PP      PP12620   9.561   6.659   4.038 -0.0391 -0.1602 -0.5195
 2517PP      PP12621  13.333  14.733   3.142 -0.1802 -0.0264  0.2094
 2518PP      PP12622  12.394  12.068   2.751 -0.0849  0.2370  0.0188
 2519PP      PP12623   6.346   1.175  10.005  0.1752 -0.3940 -0.0632
 2520PP      PP12624   5.459   0.608  11.995  0.3425 -0.0684 -0.2461
 2521PP      PP12625   7.100  14.507  11.896 -0.0656  0.2998  0.0554
 2522PP      PP12626  15.147   1.290   2.421  0.2671 -0.1022 -0.1987
 2523PP      PP12627   9.157   1.827   4.783  0.1950  0.0033  0.0422
 2524PP      PP12628   4.568   7.114   4.254  0.1568 -0.2272 -0.0124
 2525PP      PP12629   9.999   8.635  13.032  0.1665 -0.0563 -0.0119
 2526PP      PP12630   2.528  14.048   3.222  0.0054 -0.0395 -0.0459
 2527PP      PP12631  11.963  15.540   1.449 -0.1685 -0.0252 -0.1359
 2528PP      PP12632   8.808  11.648   9.545 -0.0292  0.2650  0.2420
 2529PP      PP12633  12.397  14.835  11.907 -0.2423  0.1577 -0.4812
 2530PP      PP12634   6.493   0.869   4.352  0.0829  0.1061 -0.1817
 2531PP      PP12635  13.759   2.255   0.690  0.3850  0.3373  0.0880
 2532PP      PP12636   2.446  15.754   8.171  0.0356 -0.2791 -0.0611
 2533PP      PP12637  11.114   5.047   2.027  0.0001  0.0075 -0.0750
 2534PP      PP12638   9.544   2.835   9.410  0.0544 -0.0352  0.0492
 2535PP      PP12639  10.036   2.526  11.782 -0.0764 -0.0539  0.1912
 2536PP      PP12640   0.726   5.612   9.087 -0.2336 -0.1719 -0.0094
 2537PP      PP12641   1.959   4.585  11.299 -0.2513 -0.2045  0.0959
 2538PP      PP12642  10.429   8.495  13.258 -0.0226  0.0216 -0.1673
 2539PP      PP12643   3.826   3.972   8.909  0.0074  0.1663  0.3549
 2540PP      PP12644   4.782  14.775   9.048 -0.1055  0.1176 -0.1957
 2541PP      PP12645  13.364  10.331   3.685  0.1725 -0.0912 -0.2666
 2542PP      PP12646   0.240   1.900  12.463  0.1180  0.0539  0.0599
 2543PP      PP12647   7.854  12.102   1.848 -0.2682  0.0338  0.0125
 2544PP      PP12648  11.910  15.578  11.807  0.2566  0.2693  0.0898
 2545PP      PP12649  12.890   0.858   2.382 -0.0851  0.2598  0.3675
 2546PP      PP12650  12.515  10.209   1.295  0.0267  0.4954  0.1403
 2547PP      PP12651  11.289   7.556  13.143  0.1735  0.1143 -0.3508
 2548PP      PP12652   5.218   3.526   1.433  0.0783  0.1025 -0.0950
 2549PP      PP12653   8.331   1.976  11.996  0.5286  0.0152 -0.0254
 2550PP      PP12654  10.323   9.313  10.677 -0.0130 -0.1711  0.2030
 2551PP      PP12655  13.105   5.423   0.840  0.2605  0.0468  0.3428
 2552PP      PP12656  14.771   1.666   3.320 -0.0272  0.1728 -0.0411
 2553PP      PP12657   7.938  11.361   1.462  0.0136  0.1003 -0.2587
 2554PP      PP12658   3.556  13.909  13.224  0.1875  0.1649 -0.0021
 2555PP      PP12659   5.180  15.034   2.838  0.0128  0.2025 -0.2618
 2556PP      PP12660  14.518  10.829  12.109 -0.2202  0.0623 -0.0501
 2557PP      PP12661   7.217   3.306   8.960 -0.1178 -0.0498 -0.1286
 2558PP      PP12662  14.110  15.591  13.086  0.1415 -0.0792  0.0651
 2559PP      PP12663   4.205  11.060  11.818  0.0296  0.0719  0.1698
 2560PP      PP12664   7.070   2.157  13.414 -0.0056  0.0005 -0.1650
 2561PP      PP12665   1.637   6.930   0.155  0.1357  0.3615  0.1406
 2562PP      PP12666   7.621  14.657   2.670 -0.0647 -0.1067  0.3519
 2563PP      PP12667   5.455  10.190   2.156  0.1193 -0.2748 -0.1769
 2564PP      PP12668   0.877   9.838   5.076  0.0361 -0.1557 -0.1050
 2565PP      PP12669  13.943   7.682  12.534 -0.2737 -0.1735 -0.0623
 2566PP      PP12670  11.837   6.133   3.368  0.1079 -0.2335 -0.1048
 2567PP      PP12671  13.439   8.441   9.616 -0.0428  0.3225  0.1299
 2568PP      PP12672  11.404   7.335   8.731 -0.2735  0.0791  0.0095
 2569PP      PP12673   6.788  11.104   2.730 -0.2369 -0.0533  0.0604
 2570PP      PP12674   5.908  10.440   2.089  0.0377  0.1035  0.0897
 2571PP      PP12675   4.175   8.130   1.955  0.0317 -0.1704 -0.3486
 2572PP      PP12676   7.758   4.178  10.497 -0.0358  0.1223 -0.1582
 2573PP      PP12677   5.823   4.144   2.934 -0.2218 -0.4964  0.0043
 2574PP      PP12678  15.021   8.923   4.892  0.2718 -0.0063 -0.1903
 2575PP      PP12679   0.273   3.148   9.766  0.0143  0.0541 -0.1565
 2576PP      PP12680   3.781  10.419   1.856 -0.1579 -0.1033 -0.0535
 2577PP      PP12681  12.891   5.069   3.818  0.0089  0.0161 -0.0924
 2578PP      PP12682   5.377   4.853  12.331  0.0390  0.0768 -0.2589
 2579PP      PP12683   7.852   9.093   0.067  0.0768 -0.0006  0.0305
 2580PP      PP12684   8.591  12.751   4.020 -0.2032  0.0464  0.2163
 2581PP      PP12685   4.751  10.936  12.116 -0.1531 -0.1934  0.0690
 2582PP      PP12686  13.851   9.305   4.177 -0.0800  0.0034  0.2022
 2583PP      PP12687  10.600  10.595   4.130 -0.0970 -0.3400  0.0361
 2584PP      PP12688  11.232  10.104   3.633 -0.1264  0.2204  0.1515
 2585PP      PP12689   0.232   5.336   1.108  0.0867  0.0485  0.0741
 2586PP      PP12690   2.883  13.361   8.704 -0.2572  0.0680  0.1223
 2587PP      PP12691   3.597  14.777  10.186  0.1625 -0.2396 -0.3278
 2588PP      PP12692   2.130   2.598  10.490  0.1077 -0.4826  0.0093
 2589PP      PP12693   2.791  13.993   0.348  0.0957 -0.2088 -0.0985
 2590PP      PP12694  12.603   3.078   0.226  0.2000 -0.2000  0.0030
 2591PP      PP12695   8.072   9.345   1.561 -0.3656  0.0783  0.0092
 2592PP      PP12696  14.208  11.573  12.841 -0.1537 -0.1945 -0.1506
 2593PP      PP12697   6.620   1.926  12.654  0.4010 -0.1189 -0.1684
 2594PP      PP12698  10.534   1.822  12.381  0.2765 -0.0950  0.2007
 2595PP      PP12699  12.267   5.255   9.247 -0.2241  0.1628  0.3075
 2596PP      PP12700   9.748   6.525   9.163 -0.3915  0.0449  0.4711
 2597PP      PP12701   6.933   9.564  10.815 -0.1085  0.1498  0.2346
 2598PP      PP12702   3.407  15.727  10.355 -0.0231 -0.2553  0.1348
 2599PP      PP12703   8.155   9.152   4.372  0.1580 -0.0133 -0.0509
 2600PP      PP12704  10.827  11.868   3.657  0.0633  0.1114 -0.0919
 2601PP      PP12705   5.264  13.110   3.766 -0.1298  0.1904  0.1955
 2602PP      PP12706   6.616  13.689  13.096 -0.3019 -0.1170 -0.1277
 2603PP      PP12707  15.309  10.370   9.585  0.1026  0.0700  0.3330
 2604PP      PP12708  14.227   2.633  12.544 -0.2786  0.2179  0.2900
 2605PP      PP12709  12.584   3.157   2.316  0.1797 -0.3690 -0.2229
 2606PP      PP12710   7.307   5.348  13.172 -0.1434 -0.0951  0.1980
 2607PP      PP12711   2.342  14.577  12.128 -0.1277 -0.5047  0.2076
 2608PP      PP12712  14.361  13.682  11.186  0.0985 -0.2996  0.0107
 2609PP      PP12713   8.534   9.196   2.903 -0.1678  0.0381 -0.0813
 2610PP      PP12714  10.325   5.588   0.888 -0.0457  0.1502 -0.1645
 2611PP      PP12715  14.971  11.238  10.269  0.1078 -0.1207 -0.2083
 2612PP      PP12716   0.014   2.878  11.284 -0.0668  0.3293 -0.2363
 2613PP      PP12717   8.148   2.287   1.209 -0.1319 -0.0196  0.2619
 2614PP      PP12718   8.660  14.539  12.872 -0.0862 -0.4118  0.2012
 2615PP      PP12719   5.513  15.174   9.158  0.0106 -0.0142 -0.0607
 2616PP      PP12720   0.988   7.224   4.955 -0.2868  0.0179 -0.0010
 2617PP      PP12721  15.500  12.284   1.800 -0.0700 -0.2496  0.1981
 2618PP      PP12722  13.900   5.723   2.317 -0.0642  0.0669 -0.0779
 2619PP      PP12723   8.543  14.640  10.680  0.2451 -0.2613  0.0084
 2620PP      PP12724  14.717  11.828   1.664 -0.1327  0.1121  0.0855
 2621PP      PP12725  14.686   2.209   2.602 -0.1741  0.0958  0.1167
 2622PP      PP12726   3.173  11.594  12.363 -0.3169  0.1456  0.0945
 2623PP      PP12727  15.523   5.025   1.944 -0.0253  0.3791  0.2417
 2624PP      PP12728   0.124   6.245   2.112 -0.0012 -0.0992  0.0457
 2625PP      PP12729   6.949   5.127  13.438 -0.1090 -0.1371  0.2266
 2626PP      PP12730  11.741  12.646  13.303 -0.2374  0.0696  0.2352
 2627PP      PP12731   0.175  10.336  13.420  0.2907  0.0426  0.0572
 2628PP      PP12732  14.065   0.693   8.454 -0.0369 -0.0765 -0.0497
 2629PP      PP12733  14.077   8.174  10.310 -0.1747 -0.1194  0.1647
 2630PP      PP12734  11.872  15.195   3.352  0.0418 -0.1473  0.0793
 2631PP      PP12735   0.965   4.008   1.829 -0.0753  0.0050 -0.1653
 2632PP      PP12736   2.933  12.044   5.233  0.0097  0.0492 -0.1019
 2633PP      PP12737   4.359  10.807   2.982 -0.2649  0.2679  0.1354
 2634PP      PP12738   4.540   9.933  11.330 -0.1155  0.4587  0.2265
 2635PP      PP12739   6.397   9.521  10.773  0.1948 -0.3460  0.2709
 2636PP      PP12740   5.173   7.164  13.026 -0.0961 -0.0499  0.0737
 2637PP      PP12741  10.967  15.532  12.265 -0.0505 -0.3263 -0.3035
 2638PP      PP12742   2.959   0.265   8.057 -0.0313  0.1667  0.5193
 2639PP      PP12743   8.911  14.491   3.154  0.1208  0.2774 -0.3111
 2640PP      PP12744   3.235   2.504  12.403  0.4855 -0.1365 -0.1217
 2641PP      PP12745  12.953  12.603  12.708 -0.0814  0.0703 -0.4052
 2642PP      PP12746   8.431  13.730   2.046 -0.1727 -0.1149 -0.2115
 2643PP      PP12747   3.019  13.176  10.185  0.0324 -0.1283  0.0858
 2644PP      PP12748   6.066  11.925  12.662 -0.0052 -0.1214  0.0648
 2645PP      PP12749  14.064  12.166   2.110 -0.0123  0.2131 -0.0905
 2646PP      PP12750   0.382   7.063   1.585  0.3325  0.0991 -0.0068
 2647PP      PP12751   1.092   9.944  12.298  0.1219  0.2477  0.2865
 2648PP      PP12752   7.961  12.819  11.259  0.0295 -0.1376  0.0045
 2649PP      PP12753   6.390   4.815  12.206 -0.2579  0.2603  0.0461
 2650PP      PP12754  14.153  15.269   2.530 -0.1029  0.2197  0.1632
 2651PP      PP12755   4.135   9.049   2.857  0.0179 -0.1546  0.3643
 2652PP      PP12756   6.187   8.036   3.322  0.0044  0.0646 -0.0684
 2653PP      PP12757   9.380  11.453   1.038  0.1330  0.2502  0.3680
 2654PP      PP12758   9.567  12.614  10.485 -0.1349 -0.0475 -0.2214
 2655PP      PP12759   9.612   1.583  10.296 -0.5753  0.1565  0.1569
 2656PP      PP12760   7.640   8.790   0.458  0.0522  0.1869  0.4625
 2657PP      PP12761   5.127   4.920  11.762 -0.0220  0.4128  0.1409
 2658PP      PP12762  11.269   5.881   2.513  0.0607 -0.0446 -0.0712
 2659PP      PP12763  15.144  15.140   3.754 -0.2485 -0.1692  0.0424
 2660PP      PP12764  10.823   6.392   1.314  0.0466 -0.1800  0.1041
 2661PP      PP12765   3.419  11.548   2.239 -0.0530  0.1185 -0.2933
 2662PP      PP12766  13.264  13.367  11.018 -0.0486 -0.0741  0.2944
 2663PP      PP12767   6.379   3.478  13.104  0.1350  0.1657  0.1881
 2664PP      PP12768   5.227   6.368   1.344  0.0923 -0.1856 -0.2055
 2665PP      PP12769   5.803  10.622   9.572  0.1133  0.1485  0.1479
 2666PP      PP12770   2.516  10.327   0.266  0.3243  0.2187  0.0023
 2667PP      PP12771  11.804  13.119  10.690  0.0447 -0.1639 -0.2498
 2668PP      PP12772  11.287   2.262   0.228  0.1606  0.0490 -0.0054
 2669PP      PP12773   0.937   3.902   3.316 -0.0218  0.2030  0.2251
 2670PP      PP12774   1.430  15.403   1.909  0.0831 -0.0629 -0.1370
 2671PP      PP12775  10.280   5.100  10.204 -0.1029  0.3521 -0.0285
 2672PP      PP12776   9.796  12.208  10.417 -0.1220  0.1165  0.0664
 2673PP      PP12777   4.210   8.674  12.621  0.0462 -0.1592 -0.1869
 2674PP      PP12778   1.625   8.752   0.553 -0.1610 -0.1474 -0.4029
 2675PP      PP12779   2.475  11.887   5.326 -0.1810  0.2736  0.0371
 2676PP      PP12780   2.339  12.315  12.659 -0.0429 -0.3218  0.1697
 2677PP      PP12781   0.860   3.142  11.394 -0.3205 -0.0844 -0.5057
 2678PP      PP12782   8.115  15.804  13.113  0.1661 -0.2176 -0.2332
 2679PP      PP12783   8.776   6.605  11.817  0.4550 -0.2203 -0.1700
 2680PP      PP12784   1.430   8.525   4.921 -0.0943  0.2302  0.1219
 2681PP      PP12785  11.736   9.311   3.757  0.2211  0.2234  0.2357
 2682PP      PP12786   9.597   8.551   4.829 -0.0460  0.1317 -0.1741
 2683PP      PP12787  13.882  10.045  13.231 -0.2176  0.0329 -0.0338
 2684PP      PP12788  14.630   0.649   9.379 -0.1601 -0.1884  0.2988
 2685PP      PP12789   9.902  14.719   2.819 -0.0190 -0.1397 -0.0168
 2686PP      PP12790  11.634   1.361  13.102 -0.0015  0.2170 -0.2192
 2687PP      PP12791   4.553   1.275   9.551 -0.0459  0.1223 -0.1597
 2688PP      PP12792  13.952   6.383   0.901 -0.1078 -0.1305  0.2890
 2689PP      PP12793  12.105  13.333  12.800  0.2153 -0.1356  0.0101
 2690PP      PP12794   0.599  12.796  12.702  0.0827 -0.3613 -0.0513
 2691PP      PP12795   9.390   0.900   3.119 -0.3196  0.1543  0.2403
 2692PP      PP12796  13.374   8.681  13.201  0.0586 -0.0770  0.0812
 2693PP      PP12797   0.189  10.591  13.026  0.0713 -0.0143  0.1220
 2694PP      PP12798   2.159   4.638   0.631 -0.0966  0.2540  0.3659
 2695PP      PP12799  13.628  13.546  11.890  0.2249 -0.1533  0.0982
 2696PP      PP12800   1.486  13.954  11.882 -0.2394  0.4236 -0.2342
 2697PP      PP12801  11.879   1.782   9.928  0.1341  0.1086 -0.1060
 2698PP      PP12802  10.404   4.549   1.746 -0.0846 -0.2835 -0.1026
 2699PP      PP12803  15.192   6.557   0.083 -0.0958  0.2031 -0.2019
 2700PP      PP12804   7.559   1.025   9.761 -0.2816 -0.1334 -0.1363
 2701PP      PP12805   2.313  11.301   4.124  0.1066 -0.0258  0.0045
 2702PP      PP12806  13.669   7.197  13.157 -0.2321  0.1032 -0.0641
 2703PP      PP12807  13.906  15.373   8.174 -0.1495 -0.2390 -0.0110
 2704PP      PP12808  14.867   8.514   1.925 -0.1535 -0.1384 -0.0630
 2705PP      PP12809  11.686   1.415  11.656  0.0343 -0.1376  0.1762
 2706PP      PP12810   1.276   4.194   1.425  0.0644 -0.0789  0.2114
 2707PP      PP12811   3.890   7.326   1.001 -0.0616 -0.2532 -0.3614
 2708PP      PP12812   7.482   1.477   2.487  0.1087  0.0576  0.0625
 2709PP      PP12813   4.751   1.935   3.523  0.4223 -0.2695  0.4603
 2710PP      PP12814   2.147   5.089  10.327 -0.1679 -0.0361 -0.0875
 2711PP      PP12815   4.146   9.962   5.468 -0.0977 -0.0734 -0.1410
 2712PP      PP12816   1.136  12.336   2.908  0.3405 -0.1551 -0.3047
 2713PP      PP12817  11.663   8.333  11.570  0.0464 -0.1989 -0.1843
 2714PP      PP12818   1.880   9.446  13.412 -0.1249  0.4284 -0.2669
 2715PP      PP12819   2.038  13.491   9.228  0.2130 -0.1502 -0.3972
 2716PP      PP12820   3.640  13.846   3.968 -0.1230  0.1113 -0.0257
 2717PP      PP12821   5.548   7.165   0.876  0.0027  0.0690  0.1478
 2718PP      PP12822  11.432   4.678   8.628 -0.3245  0.1692  0.2213
 2719PP      PP12823   7.432   0.649   8.593 -0.0323 -0.0594  0.0883
 2720PP      PP12824  12.766   4.197   1.329  0.2429 -0.1151  0.0717
 2721PP      PP12825  12.078   8.922  12.468 -0.0358  0.0434 -0.1402
 2722PP      PP12826   5.715   7.582   1.384 -0.0822  0.2184 -0.2186
 2723PP      PP12827  12.043   3.331   8.378 -0.0278 -0.1353  0.0073
 2724PP      PP12828   0.793  11.258  10.362 -0.0285  0.0726 -0.3695
 2725PP      PP12829  14.143   1.659   0.705  0.2236  0.1143  0.0827
 2726PP      PP12830   9.299  12.166   9.637 -0.0450  0.2125 -0.0329
 2727PP      PP12831  14.980  13.810  11.489 -0.0586  0.1899  0.0508
 2728PP      PP12832   3.631   5.957   3.965  0.1396 -0.1709  0.1438
 2729PP      PP12833   2.586   5.766   3.713  0.3488 -0.0670 -0.1953
 2730PP      PP12834  12.418   5.138   1.813  0.1347 -0.1644 -0.3694
 2731PP      PP12835   8.291   3.389   1.869  0.0510  0.0676  0.0099
 2732PP      PP12836   8.725   7.743   4.052 -0.0142 -0.0984 -0.0799
 2733PP      PP12837   3.113  15.275  12.267  0.0170 -0.0617  0.1355
 2734PP      PP12838   6.161   5.652   3.782  0.2739  0.2901  0.3487
 2735PP      PP12839  13.102  11.151   0.188 -0.0209 -0.2090  0.0499
 2736PP      PP12840  14.157  13.002   2.493  0.1062  0.0902  0.3316
 2737PP      PP12841  10.779  14.999  12.357 -0.1287  0.0507  0.1949
 2738PP      PP12842  13.755  10.911   1.512  0.2207  0.0696  0.3107
 2739PP      PP12843   6.912   1.907  12.150 -0.1553  0.0139 -0.2003
 2740PP      PP12844  11.905   3.780  11.318 -0.4218 -0.3621  0.0963
 2741PP      PP12845   0.416   5.080  12.261  0.1443 -0.0613  0.0011
 2742PP      PP12846   3.584   3.592  10.725  0.1237 -0.1411 -0.3728
 2743PP      PP12847  11.695  11.258  10.374  0.0724 -0.0970 -0.4179
 2744PP      PP12848   3.902  10.664   3.242  0.0869  0.3134 -0.1127
 2745PP      PP12849  11.237   0.110   2.538  0.1006  0.0526  0.0748
 2746PP      PP12850   1.615  11.265   9.948  0.2204 -0.0027  0.0872
 2747PP      PP12851  14.946   7.193   1.829  0.1421  0.1601  0.0837
 2748PP      PP12852  14.854   8.284  13.238 -0.1632  0.1050 -0.1027
 2749PP      PP12853   7.910  11.435  12.961 -0.1237 -0.2209  0.2230
 2750PP      PP12854   1.376  13.921  13.104 -0.1832 -0.1277 -0.1004
 2751PP      PP12855   5.514  12.922   1.736 -0.1292 -0.1738  0.1115
 2752PP      PP12856   0.145   8.166   3.101  0.1437 -0.0401 -0.3086
 2753PP      PP12857  15.184  14.216   8.997  0.2871 -0.2604  0.1046
 2754PP      PP12858  14.897   5.360   0.022  0.0022  0.1856 -0.1449
 2755PP      PP12859  13.267   5.286   8.141  0.0269 -0.4516  0.1099
 2756PP      PP12860   3.877   4.472   4.569 -0.1447  0.1144 -0.1648
 2757PP      PP12861  14.201  12.360  11.004 -0.3421 -0.1910 -0.0134
 2758PP      PP12862   1.767  10.964   1.918  0.1494  0.4216 -0.0263
 2759PP      PP12863  14.662   8.931   1.721  0.0891 -0.2050  0.2121
 2760PP      PP12864   1.358  11.309  12.124  0.2744  0.1038 -0.2638
 2761PP      PP12865  14.302   5.098   3.271  0.0285  0.0490 -0.0115
 2762PP      PP12866  13.929  13.298   1.489  0.0987 -0.0820 -0.0133
 2763PP      PP12867   6.927   5.959   2.514  0.0675 -0.4795 -0.0214
 2764PP      PP12868   3.681  15.453  13.077  0.0212 -0.2677 -0.0194
 2765PP      PP12869  11.924   7.969   2.114  0.0172 -0.0275 -0.1632
 2766PP      PP12870  13.661   5.464   0.885  0.2935 -0.0991  0.1923
 2767PP      PP12871   4.117   4.402  10.817 -0.0717 -0.0345 -0.1626
 2768PP      PP12872  11.536   4.848  11.494 -0.2278 -0.0417 -0.1151
 2769PP      PP12873   1.292   6.643   1.069  0.1252  0.4210  0.1179
 2770PP      PP12874   3.002   2.473  11.412 -0.1453 -0.1984 -0.2543
 2771PP      PP12875  15.085   1.579   3.798  0.0568  0.1555 -0.0901
 2772PP      PP12876   0.641  14.504  13.378 -0.0860 -0.0778 -0.3141
 2773PP      PP12877  13.887   0.398  10.672  0.0490  0.2523  0.1453
 2774PP      PP12878  10.911  13.293   9.717  0.0690 -0.0110  0.0329
 2775PP      PP12879   1.626   3.172   9.245  0.0594 -0.1667  0.0013
 2776PP      PP12880  14.613   6.075   2.430 -0.6589  0.0310  0.0499
 2777PP      PP12881   0.869  11.042   8.830 -0.3788 -0.1711 -0.3350
 2778PP      PP12882   7.983   9.105  12.514 -0.0154 -0.0989 -0.2197
 2779PP      PP12883   4.228  11.401  12.998  0.2735  0.2206  0.0012
 2780PP      PP12884   0.820   7.934  10.162  0.0518  0.1107 -0.2044
 2781PP      PP12885   0.815   2.111   8.599 -0.1099 -0.2719 -0.0913
 2782PP      PP12886  13.911   9.711   8.586  0.0905 -0.2026  0.0513
 2783PP      PP12887   3.911  15.564   1.885  0.3511  0.0734 -0.2514
 2784PP      PP12888  15.037  14.365   9.928  0.3099  0.2966 -0.2084
 2785PP      PP12889   7.748   8.054  12.148  0.2231  0.1579 -0.0804
 2786PP      PP12890  13.590   0.222  11.645 -0.1186 -0.0003 -0.0177
 2787PP      PP12891  10.009  10.092  10.696  0.0587 -0.0085 -0.2858
 2788PP      PP12892   0.253  12.273   3.171  0.1894  0.1742 -0.1897
 2789PP      PP12893  14.256   2.474  11.355  0.2596  0.0322 -0.2263
 2790PP      PP12894  12.432   7.380   8.698 -0.1904  0.2867 -0.1028
 2791PP      PP12895  12.694   0.255  12.094  0.0898  0.1956 -0.1107
 2792PP      PP12896  13.773  10.557   0.363 -0.0466  0.1255  0.0842
 2793PP      PP12897   1.407  10.122   2.357  0.0720 -0.2647  0.0493
 2794PP      PP12898   8.606  11.977   4.295  0.1542  0.2543 -0.1807
 2795PP      PP12899  10.312   5.693   4.526  0.0903 -0.1114  0.0808
 2796PP      PP12900   4.159  10.764   9.666 -0.1288  0.0164 -0.3128
 2797PP      PP12901   0.253  13.607  13.066  0.2147  0.1648  0.0529
 2798PP      PP12902   1.559   4.774   9.561 -0.1901  0.3664 -0.1681
 2799PP      PP12903   9.430   5.754   9.627 -0.0134 -0.0050 -0.0007
 2800PP      PP12904   8.755   3.670   1.280 -0.0772  0.0900 -0.0825
 2801PP      PP12905   4.409   9.391   1.535  0.0482  0.0690 -0.1216
 2802PP      PP12906   2.136  11.315   1.738 -0.1345  0.1029  0.0442
 2803PP      PP12907   9.750   7.852   2.665 -0.0283 -0.0172  0.1187
 2804PP      PP12908   9.534  12.304   3.726 -0.1517  0.4189  0.2672
 2805PP      PP12909   9.762   9.035   4.532 -0.0464  0.1476 -0.0579
 2806PP      PP12910  14.772  14.509   2.016 -0.2238  0.0484 -0.3564
 2807PP      PP12911  11.552  10.907   0.707  0.1386  0.0065  0.1746
 2808PP      PP12912  12.050  15.692   9.962  0.0195  0.2159 -0.1047
 2809PP      PP12913  12.273   5.808   3.174 -0.2410  0.0449 -0.1045
 2810PP      PP12914  12.456   7.420  12.344 -0.2491 -0.1068 -0.0665
 2811PP      PP12915   3.196  12.617   0.055 -0.1045  0.0418 -0.0097
 2812PP      PP12916  12.614   0.708   0.049  0.1000 -0.1969  0.3686
 2813PP      PP12917  14.732  14.843   0.233 -0.1185 -0.0561 -0.1496
 2814PP      PP12918  12.302   2.884  10.710  0.0441  0.0566  0.0758
 2815PP      PP12919   8.605  12.923   9.442  0.0530  0.1389  0.1761
 2816PP      PP12920  14.442  10.765   8.068  0.1796  0.0010 -0.1885
 2817PP      PP12921   5.034   0.858  11.686  0.2929 -0.1675  0.2454
 2818PP      PP12922   8.477   2.681  11.133  0.0322 -0.0182  0.1659
 2819PP      PP12923   6.982   8.565   2.815  0.0112  0.0949 -0.0158
 2820PP      PP12924  12.418  14.259  10.509  0.0369  0.0499  0.2072
 2821PP      PP12925   5.789  13.241  11.895 -0.1020 -0.0120  0.0031
 2822PP      PP12926  11.838  14.624   1.998 -0.0843 -0.0027 -0.0154
 2823PP      PP12927  10.334  13.380   9.705  0.1249 -0.3431  0.0442
 2824PP      PP12928  14.579   0.555  10.065 -0.0625 -0.0111 -0.0742
 2825PP      PP12929   3.409   5.325  13.257  0.0747 -0.0954  0.1571
 2826PP      PP12930  14.381   4.757  10.979 -0.0794  0.0217  0.1433
 2827PP      PP12931  13.837  10.976   8.986 -0.0103 -0.0990 -0.0432
 2828PP      PP12932  10.381   1.422   0.434  0.0532  0.1400 -0.2587
 2829PP      PP12933  13.626   6.343   8.458  0.0395 -0.1054 -0.0443
 2830PP      PP12934  14.313  12.014   1.095  0.0424 -0.0538  0.0976
 2831PP      PP12935  12.678   1.189   0.339  0.2272 -0.2652  0.3632
 2832PP      PP12936  14.012   1.026   3.090 -0.0668  0.1187  0.0682
 2833PP      PP12937   8.706  13.139  10.491  0.0524  0.1836 -0.1684
 2834PP      PP12938   2.665  13.869  12.477  0.2776 -0.1746 -0.0478
 2835PP      PP12939   6.846  11.706  13.161 -0.0048 -0.3514  0.0988
 2836PP      PP12940  15.683   8.625   0.539 -0.2423 -0.0165  0.2431
 2837PP      PP12941  13.564  11.103  13.126 -0.0705  0.0760  0.0655
 2838PP      PP12942   5.466   8.685  10.143 -0.1466  0.1657 -0.0216
 2839PP      PP12943   8.289  12.237  13.455 -0.0579 -0.2841  0.1678
 2840PP      PP12944  13.224   4.770   9.183  0.0365 -0.3705  0.1629
 2841PP      PP12945   4.355  13.733   4.669  0.2191  0.1443 -0.0983
 2842PP      PP12946  10.843  10.002   3.231 -0.1901  0.0345 -0.2978
 2843PP      PP12947  13.421   5.053  11.653  0.1283 -0.0567 -0.0673
 2844PP      PP12948   1.777   9.881  10.002  0.0863  0.2102 -0.3653
 2845PP      PP12949  12.666   1.737   0.448 -0.1360 -0.0042 -0.1197
 2846PP      PP12950   8.135   0.886  12.418  0.1261  0.1673  0.2954
 2847PP      PP12951   5.861  15.653   3.986  0.0009  0.1588 -0.2267
 2848PP      PP12952  12.956  14.308   8.534  0.2894  0.1474  0.0338
 2849PP      PP12953  14.134   5.407   9.130 -0.0051 -0.0736  0.2678
 2850PP      PP12954   7.259   3.778  11.228  0.0287  0.0539  0.2540
 2851PP      PP12955  10.074   6.631  12.066 -0.1056  0.1299 -0.1247
 2852PP      PP12956   6.473  14.359   2.233  0.0910 -0.0121 -0.1071
 2853PP      PP12957   0.654   1.435  12.027 -0.1682 -0.3619  0.3551
 2854PP      PP12958   0.388   8.735   1.951  0.1050 -0.1259  0.3078
 2855PP      PP12959   5.087   8.540   3.833  0.0483  0.1350  0.1388
 2856PP      PP12960   5.230   1.474  10.823  0.0957 -0.0564 -0.1502
 2857PP      PP12961   0.485   5.705  10.076 -0.0579 -0.1920  0.1081
 2858PP      PP12962   2.549   9.588  11.276  0.1559 -0.1617  0.1409
 2859PP      PP12963  12.778  15.094   0.315 -0.0762  0.3260 -0.0027
 2860PP      PP12964   6.423  11.352  11.167 -0.0544 -0.2849 -0.0154
 2861PP      PP12965  13.161   9.582  10.588 -0.5547  0.0279  0.1496
 2862PP      PP12966  11.836   4.714  11.871 -0.1462 -0.0899  0.3176
 2863PP      PP12967  14.683   9.702   4.282  0.1282  0.0475  0.1262
 2864PP      PP12968   7.385  10.548  13.112 -0.0977  0.3058 -0.0218
 2865PP      PP12969   7.333   6.707  11.818 -0.2037  0.1901 -0.1107
 2866PP      PP12970   6.404   7.964   2.647 -0.0812  0.1321 -0.0279
 2867PP      PP12971  13.187   4.924   2.282 -0.0647 -0.0825  0.1074
 2868PP      PP12972   7.635  12.028   0.880  0.0263  0.3056  0.1425
 2869PP      PP12973   1.767   8.167   3.961 -0.0321 -0.1205  0.0113
 2870PP      PP12974   4.308   9.104   2.192 -0.0303 -0.1213 -0.0481
 2871PP      PP12975   5.780   3.772   2.571  0.0354  0.0779 -0.0590
 2872PP      PP12976  12.039   4.238  10.617 -0.1501  0.0948 -0.1750
 2873PP      PP12977   6.602  12.873   5.187  0.3476  0.0121  0.0672
 2874PP      PP12978  15.723   7.612  11.742  0.0167 -0.0228  0.3458
 2875PP      PP12979  10.851   2.591   1.614 -0.1601  0.1386  0.1091
 2876PP      PP12980   8.989  13.006   0.482  0.0115  0.1471  0.1950
 2877PP      PP12981   9.717   4.927  10.128 -0.0197  0.1171  0.4160
 2878PP      PP12982  11.731   9.689   9.937 -0.1171 -0.0107 -0.3143
 2879PP      PP12983  12.998   1.302   2.478  0.3260  0.2370  0.1468
 2880PP      PP12984   2.561   1.336  12.273  0.2804  0.0294 -0.0098
 2881PP      PP12985  10.838  15.479   2.443 -0.0302 -0.1600 -0.0856
 2882PP      PP12986   4.238   2.286  12.030  0.1478 -0.1395  0.0954
 2883PP      PP12987   8.383   5.816   1.994  0.2478  0.4322 -0.0492
 2884PP      PP12988   4.313   6.253   2.092  0.2479  0.0754  0.2163
 2885PP      PP12989   7.858  11.871   9.431 -0.0945 -0.0436  0.0727
 2886PP      PP12990  13.620  10.256   9.198  0.2931 -0.1966 -0.0850
 2887PP      PP12991   9.386   8.969  11.730 -0.1354 -0.2213 -0.0182
 2888PP      PP12992   9.253  15.837   9.618 -0.2592 -0.0397  0.2098
 2889PP      PP12993   3.021   2.297  10.964 -0.4390  0.3013  0.0792
 2890PP      PP12994   7.666   5.867   1.173  0.0418  0.2956 -0.1346
 2891PP      PP12995   4.739   6.317   1.893 -0.0366  0.0117  0.2262
 2892PP      PP12996   5.611  13.190  11.468  0.1559 -0.0227 -0.0894
 2893PP      PP12997   7.041   7.276   9.216 -0.0782  0.0178  0.1266
 2894PP      PP12998   1.588   1.142   9.517  0.0879 -0.0592  0.0615
 2895PP      PP12999  14.758   9.923  11.193 -0.0850 -0.0578  0.0239
 2896PP      PP13000   0.790  10.394   0.268  0.0417  0.3141 -0.0622
 2897PP      PP13001  13.961  10.348   1.176  0.2790 -0.1728 -0.0350
 2898PP      PP13002   7.017  13.971  12.146  0.1391 -0.2664  0.2549
 2899PP      PP13003   2.799  10.200   3.026 -0.2470 -0.2137  0.4777
 2900PP      PP13004   9.376   7.805   0.620 -0.3503 -0.1445 -0.2799
 2901PP      PP13005   7.966   0.260   9.598  0.1706  0.0649 -0.3105
 2902PP      PP13006   7.844   2.278  13.259  0.0922 -0.2308  0.2962
 2903PP      PP13007   8.022   8.552   2.631  0.2553  0.2705 -0.0138
 2904PP      PP13008  11.632   6.431  10.762  0.1200 -0.1086 -0.1883
 2905PP      PP13009   5.329   7.595  12.557 -0.1446 -0.0991  0.0630
 2906PP      PP13010   6.611   7.190   2.215 -0.0697  0.2353  0.0966
 2907PP      PP13011  15.486  11.528   9.430  0.0387 -0.1064  0.1925
 2908PP      PP13012   5.659  13.056   4.624  0.2065  0.1823 -0.2621
 2909PP      PP13013   2.147   2.330  12.526 -0.1343  0.0398  0.0464
 2910PP      PP13014   5.238  12.938   9.773  0.3095 -0.1600 -0.1376
 2911PP      PP13015   9.183  14.525  10.756  0.1659  0.3843 -0.1917
 2912PP      PP13016   0.621   0.999   0.257  0.0659 -0.1433  0.0804
 2913PP      PP13017  12.577   8.380  13.454  0.2030  0.1501 -0.1071
 2914PP      PP13018  10.465   5.623   0.088  0.1552 -0.3159  0.5334
 2915PP      PP13019   2.408  11.337  13.233  0.0582 -0.1663 -0.1139
 2916PP      PP13020   6.680   5.504   3.525  0.0801 -0.2493  0.0805
 2917PP      PP13021   3.386   9.990   4.933  0.2487 -0.0141  0.1784
 2918PP      PP13022   9.915   3.326   3.749 -0.1723  0.4227 -0.0965
 2919PP      PP13023  14.210   3.034   9.082 -0.0910 -0.2844  0.0632
 2920PP      PP13024   3.435  12.985   0.925 -0.0723  0.1938  0.0166
 2921PP      PP13025  12.137  12.924   1.275  0.1550 -0.0230 -0.1468
 2922PP      PP13026   6.613   1.738   2.333  0.4979 -0.1640 -0.1465
 2923PP      PP13027   1.862   5.571   4.032  0.1899 -0.0890  0.0452
 2924PP      PP13028   3.883  11.191  10.934 -0.1902 -0.0997  0.1354
 2925PP      PP13029   1.625  13.120   1.952 -0.0603  0.1367 -0.1512
 2926PP      PP13030  14.165   7.924   8.975 -0.3190 -0.1979  0.1705
 2927PP      PP13031  11.629  13.532  10.392  0.2699  0.0101 -0.3979
 2928PP      PP13032   3.995   6.953   1.431  0.0602  0.0345 -0.0100
 2929PP      PP13033  13.945  12.854   0.589  0.2744  0.0745  0.0336
 2930PP      PP13034   2.355   7.744   1.092 -0.0115 -0.2932  0.4262
 2931PP      PP13035  13.531   5.921   3.860  0.0374 -0.0433  0.0998
 2932PP      PP13036   2.900  11.641   4.701  0.2397  0.1150  0.1657
 2933PP      PP13037  13.335   3.560   0.008 -0.0749  0.1512  0.1613
 2934PP      PP13038  12.653   7.833   3.651 -0.2610  0.0044  0.0983
 2935PP      PP13039   6.903  14.710   1.661 -0.1027 -0.1690  0.1553
 2936PP      PP13040  11.887   2.106   2.985  0.0755 -0.2969  0.2245
 2937PP      PP13041   8.722   2.797   4.573 -0.0939 -0.1218 -0.0524
 2938PP      PP13042   1.228   7.685  11.940 -0.2508  0.0102  0.1267
 2939PP      PP13043   0.048   9.948   4.437 -0.2650 -0.0029 -0.2007
 2940PP      PP13044   5.720  11.268   1.982 -0.1135  0.1409 -0.1258
 2941PP      PP13045  12.915   7.884  13.228 -0.0108 -0.1422 -0.1793
 2942PP      PP13046   4.692   4.074   3.927 -0.1302 -0.0442  0.2126
 2943PP      PP13047  12.647   0.318   2.444 -0.1144  0.5143 -0.1415
 2944PP      PP13048   2.356  11.562   9.737 -0.0301  0.1407  0.0237
 2945PP      PP13049   2.685  15.743  12.811 -0.0566 -0.0205  0.2234
 2946PP      PP13050  14.299   9.387   4.392  0.3395  0.0264  0.2411
 2947PP      PP13051   9.548   6.133   4.234 -0.0449  0.1469  0.1995
 2948PP      PP13052   9.931  11.329   0.856 -0.1842  0.0462  0.2417
 2949PP      PP13053   9.444  10.634   0.510  0.3086 -0.0114 -0.0746
 2950PP      PP13054   4.905   4.717   9.615 -0.0975 -0.3716 -0.2666
 2951PP      PP13055  15.078   4.510   9.637 -0.0222  0.1042  0.2152
 2952PP      PP13056   9.092  15.673   1.680 -0.2065 -0.1200 -0.1829
 2953PP      PP13057   5.533  11.384  11.675  0.0439 -0.0564  0.2721
 2954PP      PP13058  13.643   0.757   3.740 -0.4013 -0.1246  0.2776
 2955PP      PP13059  13.086  15.032   9.552  0.2751 -0.0441  0.0782
 2956PP      PP13060   5.031  15.220   9.920 -0.1357 -0.0811  0.1902
 2957PP      PP13061   8.649  14.925   3.165 -0.0317  0.1974  0.0886
 2958PP      PP13062   3.556  11.494  11.196 -0.2043  0.0011 -0.0018
 2959PP      PP13063   3.890   8.762  11.797 -0.4720 -0.0456 -0.3091
 2960PP      PP13064   6.170  10.115   2.916  0.0649 -0.1343  0.1583
 2961PP      PP13065   9.637  14.058  11.408 -0.2465 -0.3554  0.1779
 2962PP      PP13066  15.022   0.763  12.470 -0.1987 -0.0114  0.0934
 2963PP      PP13067  13.067   9.248  11.097  0.1021  0.1930 -0.2982
 2964PP      PP13068   6.925   4.578   1.853 -0.0516 -0.1062  0.1719
 2965PP      PP13069  11.512   3.777  10.113  0.1066  0.0124  0.0217
 2966PP      PP13070   9.188   3.278   4.556  0.2110 -0.1058 -0.1752
 2967PP      PP13071   1.683   7.483   2.061  0.1173 -0.1780 -0.0869
 2968PP      PP13072   7.447   9.094  11.247 -0.5220  0.0455 -0.0946
 2969PP      PP13073   3.808   7.397   2.230  0.1615  0.0722  0.4467
 2970PP      PP13074   3.843  10.017   2.651 -0.1288  0.1198  0.0222
 2971PP      PP13075  15.465   7.298   1.085  0.0562  0.0178  0.1288
 2972PP      PP13076  15.608  11.704  12.921  0.0910 -0.3818 -0.1009
 2973PP      PP13077  13.676   1.562  11.993 -0.1164  0.2585  0.1657
 2974PP      PP13078  11.995   7.466   1.931 -0.1579  0.0314 -0.0929
 2975PP      PP13079   0.165   5.761   1.892  0.1686  0.0301  0.1089
 2976PP      PP13080   0.177   4.299   1.087  0.2565  0.2843 -0.1657
 2977PP      PP13081   7.725   5.096   3.132  0.1234 -0.3534 -0.0224
 2978PP      PP13082   5.696   6.030  11.131  0.5427  0.0499  0.2074
 2979PP      PP13083  15.825   9.371  12.529 -0.1718 -0.2722 -0.0633
 2980PP      PP13084  14.693  13.526   3.945  0.2436  0.2711 -0.0164
 2981PP      PP13085   1.548  14.491   2.291 -0.1431 -0.2681 -0.1686
 2982PP      PP13086   6.471  12.707  10.400 -0.0885 -0.2758  0.1983
 2983PP      PP13087   4.694  12.815   4.177 -0.0410  0.3663 -0.1428
 2984PP      PP13088   2.901   6.638   1.726  0.1099  0.1253 -0.1642
 2985PP      PP13089   0.615  10.049  13.432 -0.1190 -0.1714 -0.0049
 2986PP      PP13090  11.667   9.864   3.531  0.1341 -0.0759  0.0391
 2987PP      PP13091   9.798  11.286   4.782 -0.1282  0.0070 -0.1496
 2988PP      PP13092  10.749  10.783   0.110 -0.1987  0.3151  0.0052
 2989PP      PP13093  14.697   7.530  10.831  0.2678 -0.1372  0.0614
 2990PP      PP13094   0.075   5.326   4.256  0.0120 -0.0379  0.1574
 2991PP      PP13095  15.153   8.872  11.777 -0.0403 -0.0300  0.1224
 2992PP      PP13096   8.533  14.365   9.397  0.0769 -0.3066 -0.0085
 2993PP      PP13097  14.892   9.579  11.953 -0.1142  0.1421  0.0806
 2994PP      PP13098   2.073   5.437  12.517 -0.1314  0.1431 -0.0298
 2995PP      PP13099   8.106  13.587   0.328 -0.0900  0.1716 -0.0691
 2996PP      PP13100  11.770   8.088   2.678 -0.1287  0.1007  0.2895
 2997PP      PP13101   9.784   0.941   2.763 -0.0919  0.1930 -0.2096
 2998PP      PP13102   1.599  12.081   2.753 -0.0794  0.2086 -0.0703
 2999PP      PP13103   1.315   5.559   2.653  0.1998  0.1385  0.0932
 3000PP      PP13104   8.169   4.863   1.226  0.1082 -0.2402  0.1854
 3001PP      PP13105   0.748   6.969   2.920  0.2609  0.2849 -0.0548
 3002PP      PP13106  14.092   6.034   3.209  0.0306  0.2797  0.0507
 3003PP      PP13107   9.859  14.164   4.059 -0.1013  0.3113 -0.1216
 3004PP      PP13108  14.626  12.665   9.043 -0.1027 -0.1818 -0.1547
 3005PP      PP13109   7.478   5.164  12.752 -0.1853  0.1569 -0.0239
 3006PP      PP13110   1.596  11.130  12.547  0.0523  0.1893  0.0332
 3007PP      PP13111   5.371  11.238  10.832  0.1180 -0.0686 -0.4630
 3008PP      PP13112  15.620   6.365   8.963  0.1646 -0.2336 -0.2399
 3009PP      PP13113  15.610   5.341  13.134 -0.4747 -0.1036  0.3823
 3010PP      PP13114   7.887  14.795  13.291 -0.0165 -0.1555 -0.3144
 3011PP      PP13115   0.541   5.235   3.203 -0.3148 -0.0473  0.0087
 3012PP      PP13116  15.888   0.009   3.942 -0.1407 -0.0381  0.0860
 3013PP      PP13117   8.554   4.610   3.708  0.0432 -0.1643 -0.0358
 3014PP      PP13118  14.454   1.910   7.984 -0.0971  0.2834 -0.3946
 3015PP      PP13119   8.426   1.477  10.388  0.2969  0.0169  0.0481
 3016PP      PP13120  12.500  12.959  10.484 -0.0644 -0.1262  0.0714
 3017PP      PP13121  11.426   1.357   3.477 -0.2782 -0.1454 -0.1196
 3018PP      PP13122   9.807  13.436   2.348 -0.0012 -0.2179 -0.1352
 3019PP      PP13123  13.359  10.459   0.663  0.0903 -0.1068  0.0841
 3020PP      PP13124  12.233   8.220   8.784 -0.1382  0.2324 -0.0353
 3021PP      PP13125   6.285  10.150   3.921 -0.1356 -0.0548  0.1358
 3022PP      PP13126   0.573   8.840   1.049  0.1679  0.0395 -0.2955
 3023PP      PP13127  15.447   1.662   9.067  0.0274  0.0106  0.1440
 3024PP      PP13128   5.953   3.952  12.300 -0.0590 -0.1920 -0.3269
 3025PP      PP13129   0.296   9.357   1.141  0.0712  0.1239  0.3118
 3026PP      PP13130  13.401   5.860   2.426  0.1881  0.0382  0.1904
 3027PP      PP13131  15.848   1.503   3.228  0.1436  0.0660  0.2195
 3028PP      PP13132   2.022   7.989  12.185 -0.3013 -0.2231  0.2353
 3029PP      PP13133  10.959   0.092   9.229 -0.1666  0.0696 -0.0406
 3030PP      PP13134  13.597  15.017   0.809 -0.2668 -0.1204 -0.0483
 3031PP      PP13135   1.756  10.365   2.725  0.0562 -0.1567  0.1082
 3032PP      PP13136  13.278  12.965   8.312  0.0867 -0.2132 -0.0130
 3033PP      PP13137   6.501   5.293   1.334 -0.0531  0.0431 -0.2580
 3034PP      PP13138   7.885  13.575   8.983 -0.1093  0.4915 -0.0312
 3035PP      PP13139  13.019  13.814  12.788  0.1106 -0.4788 -0.0620
 3036PP      PP13140   0.603  13.461   1.806 -0.1507 -0.2998 -0.2527
 3037PP      PP13141  12.614   5.836   8.329 -0.0277  0.3999 -0.0728
 3038PP      PP13142  12.695   3.026   3.257 -0.0231  0.0437 -0.0825
 3039PP      PP13143   7.070   0.081   4.116  0.0139  0.3872 -0.2463
 3040PP      PP13144   6.756  10.255   3.792  0.1265  0.1035 -0.2741
 3041PP      PP13145  11.166  11.152  10.251 -0.1877 -0.0232 -0.1306
 3042PP      PP13146   2.362   6.428   2.066 -0.0348 -0.3968 -0.2028
 3043PP      PP13147  11.172   8.621   9.019  0.2872 -0.2759  0.0916
 3044PP      PP13148   9.834   3.849   4.697  0.0409 -0.2140  0.2126
 3045PP      PP13149   4.717   9.212   0.910  0.0746 -0.1066  0.1827
 3046PP      PP13150  10.706  15.865  11.981  0.0844 -0.0448 -0.2551
 3047PP      PP13151   3.217   3.170   3.523 -0.2550  0.0500  0.2148
 3048PP      PP13152  15.499  12.373  13.443 -0.1247 -0.0491  0.3453
 3049PP      PP13153  12.518   3.483   3.295  0.3663 -0.0615  0.2675
 3050PP      PP13154  12.667  10.592   9.974  0.0425 -0.2600 -0.3747
 3051PP      PP13155   8.717  10.951   2.127 -0.2523 -0.0236  0.0266
 3052PP      PP13156  15.585   4.207  11.398 -0.3405 -0.1185 -0.0656
 3053PP      PP13157   1.067   9.378  11.612 -0.2024 -0.2779  0.4270
 3054PP      PP13158   9.182   3.755  10.349 -0.2569  0.1228 -0.0587
 3055PP      PP13159  13.870  11.617   0.848  0.0090 -0.0846  0.2256
 3056PP      PP13160   1.994  14.742   2.125  0.1302  0.0433 -0.0877
 3057PP      PP13161  15.150   6.996   1.322  0.3044  0.1364  0.0171
 3058PP      PP13162  11.159   1.270  11.532 -0.1310 -0.1463 -0.0345
 3059PP      PP13163  15.859   9.929   0.191 -0.1321  0.0301 -0.2225
 3060PP      PP13164  15.476  12.604  13.001 -0.0100  0.2055 -0.0689
 3061PP      PP13165   1.402   9.750   9.400  0.0481  0.1652 -0.1398
 3062PP      PP13166  10.980   9.207   3.741 -0.0113 -0.0639 -0.2542
 3063PP      PP13167  14.551   4.156   3.579 -0.2176 -0.1307  0.1397
 3064PP      PP13168  15.498  11.015   3.669  0.1064 -0.5039  0.2454
 3065PP      PP13169   2.439   2.527  12.920 -0.2027  0.3606 -0.0172
 3066PP      PP13170   8.300   3.798   2.826  0.0016  0.1971  0.2063
 3067PP      PP13171   9.383   6.130   2.003  0.0013 -0.0075 -0.0139
 3068PP      PP13172   8.769  15.647   3.102 -0.1597 -0.2722  0.0620
 3069PP      PP13173  13.664   3.282   0.285 -0.1252  0.2697 -0.0335
 3070PP      PP13174   9.382   2.671  11.736  0.2323  0.1325  0.1581
 3071PP      PP13175  13.981   5.232  12.212  0.0764 -0.3202  0.0658
 3072PP      PP13176  11.065   3.798   9.180  0.0219  0.1125  0.0117
 3073PP      PP13177   5.295   7.478  13.376  0.1393  0.3256  0.1066
 3074PP      PP13178   9.467  10.170  11.268  0.0443  0.2576 -0.0430
 3075PP      PP13179   1.862   0.675   9.847 -0.2839  0.0021  0.2874
 3076PP      PP13180   5.583  10.550  12.246  0.0738 -0.1993  0.0303
 3077PP      PP13181   9.076  15.387  12.719 -0.1406  0.5156  0.2500
 3078PP      PP13182  11.407  12.540  12.898  0.1180 -0.1149  0.1328
 3079PP      PP13183   5.687   2.000   2.623  0.0701  0.1280 -0.1144
 3080PP      PP13184   4.259   3.578  11.232 -0.1578  0.1052 -0.0078
 3081PP      PP13185  12.195   1.426   2.565  0.2307 -0.2456 -0.1888
 3082PP      PP13186  11.330  14.175   9.988 -0.0902 -0.1036  0.0770
 3083PP      PP13187   3.759  14.596  12.986  0.0811  0.0429 -0.0576
 3084PP      PP13188  15.314   3.260  13.224 -0.3020 -0.0647 -0.0674
 3085PP      PP13189   5.273   0.815   3.446 -0.1428 -0.1241 -0.1412
 3086PP      PP13190   3.111   2.706   1.590 -0.0252  0.2640 -0.1719
 3087PP      PP13191   1.230  15.635   9.028  0.3769 -0.1018 -0.0395
 3088PP      PP13192  10.121  13.758  11.457 -0.0929 -0.0050  0.1458
 3089PP      PP13193  10.543   7.220  10.996  0.0706 -0.2659 -0.1924
 3090PP      PP13194  12.196   5.645  10.661 -0.2016 -0.0148  0.2858
 3091PP      PP13195   7.840  11.867  12.019  0.0201  0.3952 -0.2544
 3092PP      PP13196   6.728  12.439   1.546  0.1549 -0.2694 -0.2297
 3093PP      PP13197  14.236   8.213   3.224 -0.3144  0.1750  0.1687
 3094PP      PP13198  13.281   5.495   4.086 -0.2270 -0.0580  0.1506
 3095PP      PP13199  12.164   8.694   3.269  0.1769  0.2858  0.2374
 3096PP      PP13200   6.927  11.523   3.068  0.1201 -0.0555  0.4032
 3097PP      PP13201   0.420  10.287  10.303  0.2666  0.0530 -0.1788
 3098PP      PP13202  12.563   4.032   2.248 -0.1217  0.1214  0.3963
 3099PP      PP13203   3.718  12.664   3.950 -0.0296 -0.0394  0.0258
 3100PP      PP13204  10.825   0.803  10.793 -0.0006 -0.0103  0.0521
 3101PP      PP13205   6.810  10.560  12.992  0.0267  0.0341 -0.2283
 3102PP      PP13206   9.330   1.569   4.378 -0.1857 -0.2162  0.4565
 3103PP      PP13207   3.638   2.843   3.775 -0.0020 -0.0292 -0.1544
 3104PP      PP13208   3.714  10.293  12.193  0.5633  0.1426 -0.1535
 3105PP      PP13209   7.302   3.854   3.830 -0.1734 -0.3655  0.1882
 3106PP      PP13210  15.436  14.279   9.522 -0.0271 -0.1417  0.4560
 3107PP      PP13211   3.650   8.310  11.959  0.0279 -0.3054 -0.0886
 3108PP      PP13212   3.411   9.782   4.371 -0.1738 -0.1212 -0.0227
 3109PP      PP13213  14.318  13.894   2.794  0.0257 -0.1074  0.1615
 3110PP      PP13214   1.036   4.015   0.810  0.0415  0.2198  0.0986
 3111PP      PP13215  10.316   0.487  10.671  0.0326  0.1709  0.1092
 3112PP      PP13216   7.931   5.183   2.614 -0.2652 -0.0131  0.1182
 3113PP      PP13217   3.935   5.532   3.577 -0.1334 -0.0845  0.1379
 3114PP      PP13218   1.344   8.639   0.952 -0.2011 -0.0944 -0.0717
 3115PP      PP13219  10.197   6.699  12.750  0.2463  0.4236  0.3384
 3116PP      PP13220  10.678   5.754  10.797  0.0605 -0.1155 -0.0943
 3117PP      PP13221  11.718   6.353  11.318 -0.2422  0.2171 -0.0161
 3118PP      PP13222  14.411   5.743  11.056 -0.2898 -0.3180  0.1389
 3119PP      PP13223   2.417  12.028  12.110 -0.2872  0.0084  0.2949
 3120PP      PP13224   4.495   8.942   4.693  0.0483  0.0197 -0.0038
 3121PP      PP13225   5.757  14.605  12.376 -0.1752 -0.0172 -0.4836
 3122PP      PP13226  13.114   4.301   8.670  0.0778  0.3504 -0.0747
 3123PP      PP13227  15.331   1.505   0.119 -0.0797  0.3283  0.0234
 3124PP      PP13228  15.672  15.330   3.482 -0.1152 -0.1911 -0.0146
 3125PP      PP13229   8.365   7.894  13.275 -0.2105  0.0930 -0.2500
 3126PP      PP13230  14.889   6.117   1.439  0.1333  0.3141  0.1823
 3127PP      PP13231  12.962   4.258   9.203 -0.0984  0.2427 -0.1290
 3128PP      PP13232   1.145  14.739  10.807  0.2775  0.1061  0.1699
 3129PP      PP13233   7.788  11.237   4.152  0.1195  0.2010  0.1052
 3130PP      PP13234   8.215   8.360   4.980  0.0099  0.2551  0.3602
 3131PP      PP13235   4.687   8.083  11.847 -0.0154  0.0816  0.2722
 3132PP      PP13236   7.984  11.919  10.909  0.1394 -0.0654 -0.2364
 3133PP      PP13237   0.931  12.325  12.272  0.1183 -0.1553  0.1049
 3134PP      PP13238   6.475   7.889   4.866  0.0754 -0.2662  0.2742
 3135PP      PP13239   1.775   1.788   3.182 -0.0835 -0.1325 -0.1504
 3136PP      PP13240   0.417   7.999   3.951 -0.3417  0.1080  0.4731
 3137PP      PP13241   8.760   1.760  12.073  0.0628 -0.0257 -0.5512
 3138PP      PP13242   7.918   7.170   5.165  0.0117  0.0178  0.0237
 3139PP      PP13243   3.659   5.529   3.112  0.0892 -0.2041  0.1685
 3140PP      PP13244   7.761   6.025   5.037  0.0757  0.0501  0.1338
 3141PP      PP13245   4.415  12.221   1.643  0.2778 -0.2928 -0.2528
 3142PP      PP13246   4.599   1.326   1.655  0.1726 -0.0063 -0.0244
 3143PP      PP13247   0.174   3.603  10.767 -0.1580  0.3229  0.0063
 3144PP      PP13248  12.807   5.589   3.909 -0.4494 -0.0130  0.0314
 3145PP      PP13249   6.329  14.756   0.865 -0.0451 -0.0237  0.2458
 3146PP      PP13250   0.455  15.426   0.565 -0.3513 -0.2588 -0.2447
 3147PP      PP13251   6.859  11.231  11.344  0.2455  0.1372  0.1837
 3148PP      PP13252   4.577   9.561   3.356 -0.1262  0.2058  0.1969
 3149PP      PP13253   1.962   9.539   3.915 -0.1523 -0.0304  0.1611
 3150PP      PP13254  10.867   9.889   4.747  0.1236 -0.2330 -0.1331
 3151PP      PP13255  14.975   9.636  12.526 -0.2294 -0.0465 -0.1827
 3152PP      PP13256   0.633   7.274  10.885 -0.1559  0.2093 -0.0455
 3153PP      PP13257  14.322  15.670   2.876 -0.0264 -0.2834  0.1872
 3154PP      PP13258  11.756  11.623   3.039 -0.1284  0.0222 -0.1980
 3155PP      PP13259  15.183   1.992   2.102 -0.0138 -0.2625 -0.1192
 3156PP      PP13260  14.906   1.212  10.609  0.3815 -0.0960 -0.0632
 3157PP      PP13261   5.303  12.473   4.402  0.2783 -0.1018 -0.1958
 3158PP      PP13262   5.555  11.629   2.825  0.2411 -0.1648  0.1171
 3159PP      PP13263   4.349   9.330   9.539 -0.0718 -0.0382  0.0293
 3160PP      PP13264  11.870   2.824   9.089  0.0272  0.0528  0.0892
 3161PP      PP13265  11.367   6.593  11.556 -0.0538 -0.0639  0.0294
 3162PP      PP13266   3.530   2.698   9.657 -0.1701 -0.2337 -0.1220
 3163PP      PP13267   0.084  13.158   9.896  0.3467  0.2387 -0.0974
 3164PP      PP13268  11.660   0.500  11.917  0.0319  0.3492  0.2321
 3165PP      PP13269   9.503  12.923   2.898 -0.0725  0.3017  0.4343
 3166PP      PP13270   2.904   4.949  13.213 -0.2642 -0.0990 -0.0164
 3167PP      PP13271  10.512  14.739   0.712  0.1269 -0.4383 -0.3760
 3168PP      PP13272  15.096   1.588   9.522 -0.0822  0.1871  0.1944
 3169PP      PP13273   3.593   2.358   3.729  0.0432 -0.2964 -0.0551
 3170PP      PP13274  15.694   7.431   2.484  0.0067 -0.2426 -0.2770
 3171PP      PP13275   7.637   1.275   3.434 -0.1291 -0.1044 -0.2503
 3172PP      PP13276  10.806  11.317   9.229  0.1227  0.0232  0.0757
 3173PP      PP13277  15.175  14.381   0.064  0.1098 -0.0178  0.0122
 3174PP      PP13278  10.127  15.261   8.272  0.2322  0.0833  0.1973
 3175PP      PP13279   7.135   3.463   2.450  0.0433  0.1326  0.0414
 3176PP      PP13280   0.299   8.148  13.026 -0.0073  0.1258  0.0721
 3177PP      PP13281   4.199   0.038  12.892 -0.0710 -0.1134  0.3723
 3178PP      PP13282   4.685   8.073   1.875 -0.2033  0.1034  0.0129
 3179PP      PP13283   8.185  14.732   4.448 -0.1018 -0.0530  0.1354
 3180PP      PP13284  13.519   5.912  10.915  0.2044  0.0130 -0.2238
 3181PP      PP13285  12.296   4.001  11.086  0.0059 -0.2905 -0.0157
 3182PP      PP13286   8.716   7.625  11.426 -0.0663  0.0891  0.1340
 3183PP      PP13287   5.468   2.059   8.527  0.0976 -0.0489 -0.0630
 3184PP      PP13288  13.492  10.646   9.838 -0.0318  0.1713 -0.2012
 3185PP      PP13289  12.304  10.701   2.470 -0.1368 -0.0180 -0.0329
 3186PP      PP13290  13.774   5.824   2.888 -0.0301 -0.1889 -0.0226
 3187PP      PP13291   7.343   7.614   4.531 -0.1578 -0.4167 -0.1399
 3188PP      PP13292   1.320  15.699   9.735  0.1661 -0.2004 -0.0870
 3189PP      PP13293  10.968  12.537  10.503 -0.0101  0.0567  0.1236
 3190PP      PP13294   9.282  13.377   0.691 -0.0364  0.3164  0.1346
 3191PP      PP13295   9.435  10.523  11.999  0.1798  0.1226  0.0441
 3192PP      PP13296   3.272  14.411  12.999 -0.2147 -0.0450  0.0743
 3193PP      PP13297   5.941   1.023   9.218  0.1167 -0.0616 -0.2548
 3194PP      PP13298   2.011   5.022  12.133  0.1391 -0.0265 -0.3853
 3195PP      PP13299   9.690  14.593  12.130 -0.1132 -0.2620  0.2700
 3196PP      PP13300  10.353   9.818   0.068  0.2152 -0.2707 -0.1074
 3197PP      PP13301   3.611   7.383  12.473 -0.1499  0.1057 -0.0906
 3198PP      PP13302   5.710  12.887   0.822 -0.1285  0.1343 -0.1514
 3199PP      PP13303   6.899  11.520   1.029 -0.2196  0.0879  0.2473
 3200PP      PP13304   9.515   0.526   1.987  0.5066  0.0476  0.0596
 3201PP      PP13305   7.036   7.264  10.486  0.1074 -0.3336  0.0789
 3202PP      PP13306  10.639   8.954  11.459 -0.2240  0.0399  0.4554
 3203PP      PP13307   2.720  14.885  12.156 -0.3317  0.1400 -0.2773
 3204PP      PP13308   1.916   3.354  13.163  0.0541  0.1067  0.0607
 3205PP      PP13309   0.123  13.870   3.913  0.3450 -0.1868  0.1783
 3206PP      PP13310   2.234   8.041   4.083  0.3158  0.0590 -0.3124
 3207PP      PP13311  15.155   2.647   9.044 -0.0318 -0.2076  0.1703
 3208PP      PP13312   9.856   9.254  10.320  0.2270 -0.1862 -0.0705
 3209PP      PP13313   6.752  11.291  12.921 -0.1891 -0.1629  0.1557
 3210PP      PP13314   0.415  14.923   0.405 -0.0698 -0.1375 -0.0504
 3211PP      PP13315  11.013  10.939   0.705  0.2074  0.0551  0.0515
 3212PP      PP13316   9.938  11.700  10.200  0.1180  0.1226  0.0312
 3213PP      PP13317   1.409   0.269  12.823 -0.2896  0.1552  0.1123
 3214PP      PP13318  10.843   2.715  10.962  0.1869  0.1272  0.2292
 3215PP      PP13319   3.074  14.844  11.713 -0.1476 -0.0092 -0.0154
 3216PP      PP13320   1.682   3.442  10.378  0.0596  0.3075  0.3440
 3217PP      PP13321   1.675   6.606   0.568  0.0337  0.0053 -0.1308
 3218PP      PP13322  15.643  13.535   1.471 -0.1374  0.1432 -0.3343
 3219PP      PP13323   4.065   2.034   9.295  0.3017  0.1109 -0.4214
 3220PP      PP13324  10.565  15.015  11.162  0.0733 -0.1918 -0.3244
 3221PP      PP13325   3.630  15.177   0.360  0.5246 -0.2000  0.2297
 3222PP      PP13326   7.730   5.505  11.887 -0.1128  0.1201  0.2727
 3223PP      PP13327   6.860  11.893   4.718 -0.0185  0.0328 -0.0253
 3224PP      PP13328  14.698  10.584   8.930 -0.0138  0.2103 -0.0457
 3225PP      PP13329  12.662  10.689   9.397  0.0595 -0.0254  0.0031
 3226PP      PP13330   7.261  11.127   0.937 -0.2080  0.2836  0.1005
 3227PP      PP13331  15.320   5.431  10.977 -0.0006  0.0405 -0.0248
 3228PP      PP13332   1.988   8.332   9.750  0.0514 -0.3611  0.0760
 3229PP      PP13333  14.717   5.282   9.211 -0.4780 -0.0747  0.2919
 3230PP      PP13334  12.743   6.490  11.023  0.3700 -0.0889 -0.0590
 3231PP      PP13335  10.027  13.316  11.142 -0.0239 -0.1511 -0.0348
 3232PP      PP13336  10.903   5.234   2.981  0.0837  0.2365  0.3077
 3233PP      PP13337  14.069  10.470  12.972  0.1393 -0.1758  0.2331
 3234PP      PP13338   7.278  11.377  13.279  0.0428 -0.1216 -0.1173
 3235PP      PP13339   0.550   1.700  12.827 -0.1093 -0.0779  0.0627
 3236PP      PP13340   5.311   9.939   9.394  0.2524  0.1064 -0.0587
 3237PP      PP13341  11.921   2.318  11.299 -0.2546 -0.0259  0.0528
 3238PP      PP13342   2.263   4.104   2.045  0.1642  0.0426  0.2144
 3239PP      PP13343  12.268   0.323   0.273 -0.0646 -0.0480  0.2585
 3240PP      PP13344   4.892   8.617   1.716  0.2430 -0.1007  0.2257
 3241PP      PP13345   5.000  11.151   9.882 -0.0527  0.1275 -0.1236
 3242PP      PP13346  12.188   0.840   1.930  0.3654  0.2056 -0.0215
 3243PP      PP13347  10.220   5.469   4.969 -0.0066  0.0720 -0.2398
 3244PP      PP13348   4.255   6.332   4.530 -0.1664  0.0927  0.0716
 3245PP      PP13349  11.145   9.543   9.642  0.0114 -0.0322  0.0972
 3246PP      PP13350   8.694  13.298   2.294 -0.3182 -0.0057 -0.2129
 3247PP      PP13351   4.539   7.254   2.771  0.0553 -0.0770  0.2200
 3248PP      PP13352   4.605   0.543   8.359 -0.0051 -0.1750  0.0703
 3249PP      PP13353   1.202   3.466  10.471 -0.2712 -0.1515 -0.0788
 3250PP      PP13354  15.682  10.072   2.126 -0.0517  0.0496 -0.3362
 3251PP      PP13355   5.741   0.727  12.688  0.0528  0.0294 -0.2353
 3252PP      PP13356  12.886   5.051  12.516 -0.0898 -0.1719  0.2115
 3253PP      PP13357   8.241   6.898   1.281  0.2800 -0.0694 -0.0420
 3254PP      PP13358   2.412  13.639   8.915 -0.0425 -0.0378  0.1154
 3255PP      PP13359  15.227   5.624  12.747 -0.3530 -0.0689 -0.1509
 3256PP      PP13360   1.832   1.870  13.454 -0.1700 -0.0692 -0.0657
 3257PP      PP13361   3.575   0.806  12.088 -0.0016 -0.0489  0.1646
 3258PP      PP13362  14.847  14.821   9.903  0.1390 -0.1239  0.3135
 3259PP      PP13363   0.443   7.203  11.683 -0.2749 -0.0121  0.0814
 3260PP      PP13364   6.188   5.006  13.028  0.1850 -0.0959 -0.1977
 3261PP      PP13365   5.023  15.458   0.881 -0.2182 -0.1235  0.2347
 3262PP      PP13366   9.444   3.198  12.872 -0.1749  0.1414 -0.0379
 3263PP      PP13367  13.463  13.547   7.891  0.1222  0.0155 -0.1788
 3264PP      PP13368  12.462   0.606  12.394  0.0177  0.0238  0.1227
 3265PP      PP13369  15.163   8.969   1.581 -0.1229  0.0589  0.1908
 3266PP      PP13370  14.848   3.679   1.028 -0.0191 -0.0865 -0.1816
 3267PP      PP13371   2.658   5.821  10.096  0.3312  0.1043  0.0006
 3268PP      PP13372   9.113   3.059   9.443  0.3059 -0.5625 -0.0050
 3269PP      PP13373   0.040  12.609   2.689 -0.1685 -0.4419  0.0044
 3270PP      PP13374   5.951  14.687   4.192  0.0753 -0.3654 -0.0694
 3271PP      PP13375   3.958   0.066   3.015 -0.0016  0.2767 -0.1448
 3272PP      PP13376  15.662   0.407   9.872  0.0903 -0.3077 -0.2161
 3273PP      PP13377   6.884  11.072  12.377 -0.0187 -0.3655  0.0629
 3274PP      PP13378   4.706   2.879  10.026  0.0198 -0.3113  0.0834
 3275PP      PP13379  12.411  12.017   8.997  0.1576 -0.2538  0.0435
 3276PP      PP13380  13.737  12.260   1.354 -0.2969  0.1364 -0.0329
 3277PP      PP13381   5.497  11.657   3.381 -0.1961 -0.1113 -0.3222
 3278PP      PP13382   0.786   8.854  11.450 -0.0035 -0.1243  0.2098
 3279PP      PP13383   7.545   5.030  11.000  0.2205 -0.4869  0.0385
 3280PP      PP13384   4.133   8.539   1.171 -0.0840 -0.0040  0.0891
 3281PP      PP13385   2.221   7.228  12.650 -0.0731 -0.5237 -0.1478
 3282PP      PP13386  11.818   5.750  12.730 -0.0101  0.1599  0.2130
 3283PP      PP13387   5.373   8.771   1.842 -0.0781  0.3034 -0.0766
 3284PP      PP13388  15.735   5.338   9.506 -0.1200 -0.0181 -0.2337
 3285PP      PP13389   4.214   8.195   3.352  0.2196  0.0249 -0.0256
 3286PP      PP13390  11.546   0.129  13.378  0.1890 -0.2956  0.3644
 3287PP      PP13391   4.516  10.295   2.089  0.0040  0.0507 -0.3268
 3288PP      PP13392  13.413   5.631  11.820  0.2926  0.0194  0.0558
 3289PP      PP13393  12.068   5.941  12.292 -0.2763  0.1152  0.0129
 3290PP      PP13394  10.710   5.993   2.962  0.2292  0.0227 -0.2097
 3291PP      PP13395  12.486  14.319  11.800 -0.1180  0.0294  0.1373
 3292PP      PP13396   3.915  13.318   1.848 -0.0026 -0.0451  0.1873
 3293PP      PP13397   1.070   8.386  10.160 -0.0560  0.1498  0.0353
 3294PP      PP13398   6.163   2.199   2.636 -0.1944 -0.0023  0.0654
 3295PP      PP13399   1.499   8.199   3.308  0.1459  0.0122 -0.0397
 3296PP      PP13400   7.393   3.658   1.985  0.3514 -0.2526  0.0243
 3297PP      PP13401   1.920   6.230   4.459  0.3186 -0.1560  0.2635
 3298PP      PP13402   5.871   9.472   4.328 -0.0082 -0.1846 -0.0430
 3299PP      PP13403   1.424   4.260   2.446 -0.2484  0.0603  0.1518
 3300PP      PP13404   8.263   1.536   9.956 -0.2609  0.0481 -0.1165
 3301PP      PP13405   4.014   6.524  13.227  0.0825 -0.0691  0.2150
 3302PP      PP13406   7.580  15.655   3.763 -0.0701  0.0467  0.2484
 3303PP      PP13407   0.149  12.721   9.625  0.1469 -0.2850  0.2317
 3304PP      PP13408  12.423   0.085   9.094  0.1076 -0.0519  0.1480
 3305PP      PP13409  12.166   3.787   3.064  0.0613 -0.0369  0.0943
 3306PP      PP13410   4.383  12.917   3.288 -0.0671  0.1733 -0.0799
 3307PP      PP13411   5.186  12.916   2.763 -0.1556  0.1722 -0.1215
 3308PP      PP13412  10.470   0.718   9.268 -0.1704  0.0587 -0.1778
 3309PP      PP13413   2.697  12.615   3.950  0.0990  0.1512  0.3327
 3310PP      PP13414   4.581   8.511  10.570  0.2510 -0.0911  0.3704
 3311PP      PP13415  12.682   6.137   8.752 -0.1628  0.2565 -0.1212
 3312PP      PP13416  10.510  12.195   0.114 -0.3444 -0.1415 -0.0457
 3313PP      PP13417  14.562  11.022   3.686  0.0411  0.2945  0.0379
 3314PP      PP13418  12.833  11.822   2.871 -0.0261  0.1258  0.1037
 3315PP      PP13419   5.764   1.084   3.247 -0.0149  0.1575  0.0984
 3316PP      PP13420   4.113   7.590   4.487  0.1850 -0.1415  0.0640
 3317PP      PP13421   0.361  15.890   8.675 -0.1423  0.0555  0.0201
 3318PP      PP13422  13.031   3.591  13.034  0.0828 -0.2161 -0.2129
 3319PP      PP13423  12.411   2.765   2.718 -0.3156  0.1369  0.0335
 3320PP      PP13424   3.354   0.208   0.619 -0.1785 -0.0990 -0.0024
 3321PP      PP13425  15.483  13.804  11.645  0.1271 -0.0057 -0.0572
 3322PP      PP13426   1.171   1.859   9.995  0.1041  0.1925 -0.3043
 3323PP      PP13427  11.412   0.269   9.527  0.0930  0.2022 -0.0834
 3324PP      PP13428  12.875   3.901   9.585  0.1809  0.0230 -0.1690
 3325PP      PP13429   0.575   8.013   4.847  0.1917 -0.3447  0.1449
 3326PP      PP13430   4.689   3.421  10.130  0.4030  0.1621  0.0552
 3327PP      PP13431   9.773  12.749   3.341  0.0809 -0.0307 -0.1437
 3328PP      PP13432  10.728  12.818   3.902  0.2228 -0.1908  0.1625
 3329PP      PP13433   0.351   2.667  12.623  0.0950 -0.0329  0.0797
 3330PP      PP13434  15.529   4.595  12.584 -0.1479  0.3231  0.3603
 3331PP      PP13435   7.464  13.982   1.849 -0.0870 -0.2872  0.2336
 3332PP      PP13436   7.771  10.953   2.414  0.1693 -0.0584  0.0633
 3333PP      PP13437   6.612   1.206  11.470  0.0402 -0.2143  0.1614
 3334PP      PP13438   6.175  15.830  10.632  0.0824 -0.0874  0.0741
 3335PP      PP13439   4.614   0.149   1.964 -0.0497 -0.2045 -0.0481
 3336PP      PP13440   8.275  12.397  10.190 -0.1799  0.0052  0.0828
 3337PP      PP13441   7.786  10.445   1.249 -0.5194  0.2030  0.0842
 3338PP      PP13442  10.423  14.192  10.796 -0.0309  0.1387  0.2704
 3339PP      PP13443   2.803  12.079  10.431  0.0008 -0.0614  0.1364
 3340PP      PP13444   3.459  12.040  10.892 -0.2068  0.0743  0.0324
 3341PP      PP13445   1.201   1.757   9.494  0.0669  0.0686 -0.0155
 3342PP      PP13446   3.863   1.215  10.941 -0.2538  0.0073 -0.0586
 3343PP      PP13447   9.742  11.597   1.812 -0.0059 -0.1175 -0.1238
 3344PP      PP13448   9.823  11.922   0.115 -0.0691 -0.0157  0.2730
 3345PP      PP13449   8.505   9.577  12.386  0.1329  0.3565 -0.1581
 3346PP      PP13450   4.546   3.376   2.170  0.1172  0.1264  0.1559
 3347PP      PP13451   5.929  11.720   9.693  0.0089  0.1635 -0.4902
 3348PP      PP13452   4.452   1.367  11.359 -0.0641  0.0477  0.1369
 3349PP      PP13453   6.974   3.075   9.503  0.1216  0.0417  0.0387
 3350PP      PP13454   2.470  11.634  10.203  0.0596  0.2761  0.1211
 3351PP      PP13455  12.519  14.023  13.005  0.0850 -0.0209 -0.0011
 3352PP      PP13456  10.741   6.492   9.407  0.0508  0.0376  0.1055
 3353PP      PP13457   1.998  12.105   3.385  0.1527 -0.0472  0.0700
 3354PP      PP13458   1.706   9.021   1.531 -0.4233 -0.2573 -0.3519
 3355PP      PP13459   0.184   0.703   2.740 -0.0341  0.0238  0.2042
 3356PP      PP13460  10.649   0.597   1.813 -0.0673 -0.2637  0.0619
 3357PP      PP13461   4.724  15.136  12.251 -0.1662 -0.1084  0.2051
 3358PP      PP13462  13.178   5.920  12.328  0.2791  0.2911  0.0730
 3359PP      PP13463   0.603  12.095   9.548 -0.1146 -0.1098 -0.0254
 3360PP      PP13464   9.732  14.199   2.254  0.1050 -0.1594 -0.2233
 3361PP      PP13465   0.748  12.308  12.958 -0.1773  0.1822 -0.0688
 3362PP      PP13466  14.506   5.715   3.132  0.0748  0.2426 -0.2684
 3363PP      PP13467  10.618   6.835   4.357 -0.1157  0.3254 -0.0320
 3364PP      PP13468  10.830   0.016   1.076  0.1405  0.1292 -0.3258
 3365PP      PP13469  15.544   5.456   1.215  0.2058  0.0561 -0.1466
 3366PP      PP13470   4.488   7.715  10.145  0.3145  0.0976 -0.3275
 3367PP      PP13471   5.607   6.174   4.491  0.1997 -0.3775 -0.0582
 3368PP      PP13472   5.484  13.643  11.642 -0.2793  0.0367 -0.1493
 3369PP      PP13473   5.558   9.505   0.448  0.1923 -0.0786 -0.1512
 3370PP      PP13474   7.938   2.573  10.800  0.0710 -0.0571  0.1890
 3371PP      PP13475  13.598   0.844   3.007  0.0803  0.0550 -0.0466
 3372PP      PP13476   0.344  10.511  11.898 -0.1398 -0.0396  0.0773
 3373PP      PP13477  12.962   8.367  13.196  0.1066 -0.0527  0.0274
 3374PP      PP13478   9.704   6.802   3.107 -0.4308 -0.2077  0.0231
 3375PP      PP13479  12.762  14.399  10.126 -0.1428  0.2337 -0.0157
 3376PP      PP13480  14.214   5.880   1.568 -0.2100  0.0951 -0.2756
 3377PP      PP13481  13.015   2.582   9.873  0.1345 -0.2106 -0.0543
 3378PP      PP13482   9.372  10.957   9.910 -0.1157 -0.2475  0.1255
 3379PP      PP13483  14.101   3.514   2.399 -0.0763 -0.0904 -0.2374
 3380PP      PP13484   6.540  10.866   1.635 -0.1911 -0.2305  0.0601
 3381PP      PP13485   8.785   9.488  11.463  0.0073  0.2177 -0.3562
 3382PP      PP13486   9.337   0.384  11.936 -0.2460 -0.2959 -0.2336
 3383PP      PP13487  14.761   5.480   9.700 -0.0621  0.1267  0.1089
 3384PP      PP13488  10.635   6.951   0.412 -0.2018 -0.1594  0.1682
 3385PP      PP13489  11.959   4.099   2.193 -0.1265 -0.2096 -0.1306
 3386PP      PP13490   4.231   4.851   4.486 -0.1838 -0.3637  0.0034
 3387PP      PP13491  13.891   6.485   0.392  0.0224 -0.0479 -0.0231
 3388PP      PP13492  11.331  10.543   9.491  0.3169 -0.1245 -0.1055
 3389PP      PP13493  11.928  11.515   1.130  0.0396  0.1395 -0.2463
 3390PP      PP13494   8.072   4.365   9.494 -0.2427  0.2573 -0.2217
 3391PP      PP13495   9.517   3.553  12.441 -0.2259  0.2499  0.3094
 3392PP      PP13496   2.852   8.374   0.916  0.1069  0.0137  0.3934
 3393PP      PP13497  15.599   0.029   2.235  0.0945  0.0784 -0.1447
 3394PP      PP13498  11.335  14.711   1.141 -0.0932  0.1965 -0.0661
 3395PP      PP13499   6.063  14.669  10.326  0.1356  0.1046  0.3143
 3396PP      PP13500   2.649   3.189   7.964 -0.0172  0.0835  0.0612
 3397PP      PP13501   6.287  15.382   1.614 -0.2796  0.1637 -0.0668
 3398PP      PP13502   5.035   5.253   3.086  0.0670 -0.2165 -0.0455
 3399PP      PP13503  13.515   3.957   3.342 -0.0817 -0.1938 -0.0550
 3400PP      PP13504  14.878  10.916   1.776  0.0330 -0.0407  0.0165
 3401PP      PP13505  12.377   1.499   3.703 -0.1805 -0.0160  0.0211
 3402PP      PP13506  10.138   6.909   9.679  0.0104 -0.1458  0.0961
 3403PP      PP13507   8.304  10.250   2.025 -0.1386  0.0600  0.2186
 3404PP      PP13508   6.812   3.035   9.025  0.0479  0.2042  0.1078
 3405PP      PP13509   8.067   0.302   4.365 -0.5341 -0.0630 -0.2295
 3406PP      PP13510   6.394   4.828   4.157 -0.1402  0.0168  0.1315
 3407PP      PP13511   1.963  12.337  12.248 -0.0853  0.0175  0.1744
 3408PP      PP13512   5.997   5.667  11.275 -0.0847  0.4238 -0.0568
 3409PP      PP13513  10.697   1.240   1.241  0.4264 -0.2243 -0.3604
 3410PP      PP13514   0.617  14.210   3.513  0.0433  0.1438  0.0637
 3411PP      PP13515   2.810   5.246   1.827  0.0202 -0.0659  0.1417
 3412PP      PP13516   3.845  11.890   0.405  0.0343 -0.2972 -0.0241
 3413PP      PP13517   8.472   9.937   0.127 -0.0396 -0.0198 -0.2524
 3414PP      PP13518  14.195  11.502   4.008 -0.2687  0.1636 -0.0777
 3415PP      PP13519  14.502   6.858   1.924  0.0449 -0.1626  0.0270
 3416PP      PP13520  10.012  11.128   9.081  0.0919  0.0456  0.0383
 3417PP      PP13521   7.594  11.911  11.242  0.2683 -0.1428 -0.2633
 3418PP      PP13522  13.423  13.334   9.024  0.2354 -0.2553 -0.0054
 3419PP      PP13523   9.427   7.057  10.503  0.0581 -0.2803 -0.3498
 3420PP      PP13524   8.392   3.311   0.545  0.1316 -0.1538 -0.1081
 3421PP      PP13525  15.227   4.539  11.281  0.0519 -0.1051  0.0330
 3422PP      PP13526   1.070   6.497   2.329  0.0818  0.0759  0.2491
 3423PP      PP13527   0.534  15.773   3.848 -0.1987  0.0488 -0.2908
 3424PP      PP13528  15.060  10.546  10.733 -0.0213 -0.2034  0.1060
 3425PP      PP13529  10.065   8.859   9.933  0.0420 -0.0747  0.0602
 3426PP      PP13530  10.780  13.153  10.830 -0.1258  0.1823 -0.3574
 3427PP      PP13531  13.721   6.755   8.714  0.1258 -0.2310  0.1291
 3428PP      PP13532   9.850   9.615   0.032 -0.1000  0.1719 -0.0304
 3429PP      PP13533   1.586  15.033   1.076 -0.0153 -0.0018  0.1221
 3430PP      PP13534  15.274  13.147   3.322 -0.1677  0.0038  0.0163
 3431PP      PP13535  13.366   5.285   1.258 -0.0100 -0.0922 -0.0665
 3432PP      PP13536   2.335  14.869  11.111 -0.4222  0.4300  0.0085
 3433PP      PP13537   3.083   7.437   1.467  0.1814 -0.2204  0.0680
 3434PP      PP13538  13.139  14.646   0.616 -0.2787 -0.4268  0.0119
 3435PP      PP13539   4.518  15.106   1.497  0.0711 -0.0227  0.3037
 3436PP      PP13540   4.388  15.527   2.905  0.1475 -0.1790  0.2770
 3437PP      PP13541  12.361   6.473   8.500  0.3397 -0.1950 -0.1363
 3438PP      PP13542  13.673   7.304   1.928 -0.3435  0.0735 -0.0603
 3439PP      PP13543   0.454  11.999   3.568 -0.0255 -0.1024 -0.1495
 3440PP      PP13544   8.334  11.024   5.379 -0.2545 -0.0499 -0.1944
 3441PP      PP13545  14.549  13.005  13.474 -0.1343 -0.0607  0.0015
 3442PP      PP13546   2.473   8.757   1.722  0.0838  0.0002 -0.0357
 3443PP      PP13547   8.270  13.411  10.651  0.1654  0.5205 -0.2256
 3444PP      PP13548  12.542  13.492  10.716 -0.0295 -0.2428 -0.0643
 3445PP      PP13549   7.113  14.792   3.244 -0.1817 -0.0357  0.0740
 3446PP      PP13550  10.962  10.969  11.624 -0.0333 -0.0603 -0.2189
 3447PP      PP13551   9.801   4.001   1.214  0.0952 -0.0939  0.0306
 3448PP      PP13552   4.832  15.564  10.744 -0.0750 -0.1377  0.0569
 3449PP      PP13553   8.680   0.823   9.549 -0.0076  0.0681  0.1703
 3450PP      PP13554   0.230   1.306   2.428  0.1908  0.0345  0.1701
 3451PP      PP13555  11.296   7.290   1.174  0.0011  0.5162 -0.2885
 3452PP      PP13556   1.799  12.129   3.811  0.0271 -0.0114 -0.1510
 3453PP      PP13557  14.489  12.237  12.229 -0.3583  0.1796  0.2133
 3454PP      PP13558   8.351   9.012  12.194 -0.1679 -0.0345 -0.4192
 3455PP      PP13559   3.003   4.514   3.301 -0.1610 -0.0019  0.1976
 3456PP      PP13560  13.164   2.071  10.528 -0.0413 -0.0562 -0.1015
 3457PP      PP13561  14.414   1.176  11.777  0.0951 -0.0079  0.3165
 3458PP      PP13562  13.949   3.747   9.561  0.0882 -0.2884  0.1996
 3459PP      PP13563   3.487   9.751   0.091  0.0457  0.1074  0.0255
 3460PP      PP13564  12.595   6.876  13.175  0.1827 -0.1898  0.1020
 3461PP      PP13565   4.693   6.637  11.655  0.2526 -0.1461  0.0481
 3462PP      PP13566  12.283  10.052   3.421 -0.1567  0.1464  0.0666
 3463PP      PP13567   6.198   6.458  12.903 -0.0947 -0.1532 -0.0678
 3464PP      PP13568   2.123   1.082   9.514 -0.2919  0.1865  0.0325
 3465PP      PP13569  13.381   0.659   2.028 -0.1220  0.0941  0.0991
 3466PP      PP13570   2.965   9.107  10.399 -0.2844  0.1687  0.1379
 3467PP      PP13571   4.630  12.428   4.517  0.2048 -0.0759 -0.0008
 3468PP      PP13572   0.139  10.570   0.859  0.2156  0.2204 -0.1641
 3469PP      PP13573  14.066  13.110   3.250  0.1632 -0.1127  0.1881
 3470PP      PP13574  15.134  10.470   9.108 -0.2022  0.1677 -0.0063
 3471PP      PP13575  10.858   6.197  10.741  0.1205 -0.0003 -0.0006
 3472PP      PP13576  10.103   0.401   9.136 -0.1348 -0.1967  0.1987
 3473PP      PP13577  11.247   8.895  12.707  0.0516 -0.0464 -0.0390
 3474PP      PP13578   3.366   2.685   4.161  0.1837 -0.3041  0.0305
 3475PP      PP13579  11.715   7.754   3.592 -0.1519  0.2132 -0.0620
 3476PP      PP13580  10.198   8.663   1.487 -0.0302 -0.1239  0.1954
 3477PP      PP13581  11.901  15.639   2.914  0.2236 -0.1910  0.1734
 3478PP      PP13582   7.583  11.256   5.081  0.1427  0.0651  0.0775
 3479PP      PP13583  15.310  13.786   2.862 -0.0331  0.2899  0.1668
 3480PP      PP13584  11.799   9.532  10.831 -0.4101 -0.0878  0.0177
 3481PP      PP13585  10.113   8.036   2.992  0.2449 -0.0726  0.0722
 3482PP      PP13586  12.487   3.268   2.853  0.1382 -0.0043  0.2484
 3483PP      PP13587   4.477  11.053   0.836 -0.0024 -0.0265 -0.0722
 3484PP      PP13588  10.265   4.017   3.138  0.0219  0.0313 -0.0194
 3485PP      PP13589   8.131  10.391   2.612  0.2322 -0.2093  0.1049
 3486PP      PP13590   1.718  12.160  10.739 -0.0718 -0.3548  0.1352
 3487PP      PP13591   2.278   2.088   1.570 -0.0271  0.1375  0.1444
 3488PP      PP13592   6.572   4.756   0.151  0.1191  0.0556  0.1876
 3489PP      PP13593  11.552  11.518   1.899 -0.1068  0.1362 -0.0794
 3490PP      PP13594   7.004   9.850  10.069 -0.0626 -0.0968  0.0960
 3491PP      PP13595  12.439   3.812   1.284  0.0186  0.3319 -0.1042
 3492PP      PP13596   7.479   6.155  12.514  0.1174 -0.1954  0.1063
 3493PP      PP13597  13.152  11.791   9.921 -0.2005 -0.0340 -0.1487
 3494PP      PP13598   9.575   4.286   4.654  0.1382  0.2264  0.1111
 3495PP      PP13599  13.498  15.111   1.943  0.0657  0.0292 -0.0538
 3496PP      PP13600   1.633  12.061  10.219  0.0410  0.2429 -0.1553
 3497PP      PP13601   5.810  12.074   2.240 -0.2403  0.0972 -0.2010
 3498PP      PP13602   1.427  12.710   9.029  0.2090  0.0304 -0.2175
 3499PP      PP13603  12.157   3.691   2.029  0.0343 -0.0228 -0.0525
 3500PP      PP13604   5.398   5.423   1.914  0.0294  0.3546 -0.2542
 3501PP      PP13605  13.369  15.264   9.998  0.0998 -0.0157  0.3404
 3502PP      PP13606  12.774   1.758  10.494  0.0134  0.1314  0.2275
 3503PP      PP13607   3.857   9.369   9.703  0.0902  0.2575 -0.1685
 3504PP      PP13608   7.742   2.411  11.663  0.2054 -0.0519 -0.0436
 3505PP      PP13609   9.668  14.934  11.253 -0.0992  0.0659  0.1166
 3506PP      PP13610   2.453   2.839   1.655  0.0826  0.0835  0.0941
 3507PP      PP13611   1.403  11.416   3.812  0.2911 -0.3181 -0.3764
 3508PP      PP13612  13.028   1.615  13.194  0.1387 -0.2040 -0.1877
 3509PP      PP13613  14.164   1.163   8.804  0.1303  0.1520 -0.1371
 3510PP      PP13614   7.246   7.105  10.918 -0.0515  0.2552  0.1696
 3511PP      PP13615  11.142  14.069  11.260 -0.3913 -0.0181  0.2462
 3512PP      PP13616   5.708   5.205  11.209  0.1357 -0.0915 -0.0891
 3513PP      PP13617  11.630  11.761   9.139  0.1670 -0.0818 -0.0680
 3514PP      PP13618   1.547   8.721  12.675  0.2258 -0.0719  0.0828
 3515PP      PP13619   0.301  14.888  12.290  0.0766 -0.3145  0.0957
 3516PP      PP13620   5.886  15.466   2.121  0.1270 -0.1779  0.3330
 3517PP      PP13621  13.828  13.668   9.055 -0.0642  0.0913  0.1239
 3518PP      PP13622   4.642   8.442   3.428  0.0219 -0.0321 -0.2612
 3519PP      PP13623   8.326  12.368  10.931  0.1365 -0.0714 -0.2358
 3520PP      PP13624  14.134   7.271  13.292  0.0495 -0.5022 -0.1843
 3521PP      PP13625   6.875  13.480  12.266 -0.1591 -0.1348  0.0713
 3522PP      PP13626   1.153   4.523  11.756  0.1751  0.0006  0.1032
 3523PP      PP13627   2.410  12.463  10.083  0.0180  0.0153  0.1981
 3524PP      PP13628   6.427   9.556   4.471  0.1130 -0.1246  0.2028
 3525PP      PP13629   4.665  13.821  12.259  0.0845 -0.1326 -0.2344
 3526PP      PP13630   3.849   6.436   9.871 -0.1439 -0.2194  0.2263
 3527PP      PP13631   4.012   4.544   9.770  0.1234  0.0281 -0.2687
 3528PP      PP13632  12.869   8.821   2.003 -0.2350  0.0060  0.0296
 3529PP      PP13633  10.584   5.104   4.920  0.0413  0.3214  0.1135
 3530PP      PP13634  15.623  14.063   3.056  0.0369 -0.0485  0.0249
 3531PP      PP13635   7.234   4.428   2.479 -0.2335  0.0217 -0.0808
 3532PP      PP13636   7.651  11.890  12.575  0.0063  0.2447  0.0267
 3533PP      PP13637   9.875   7.310   3.329 -0.1727  0.0546 -0.1624
 3534PP      PP13638  12.471   7.102   3.253 -0.3780 -0.2210  0.1005
 3535PP      PP13639   8.879  14.946  12.542  0.1674  0.1829 -0.0225
 3536PP      PP13640  12.829   0.899   8.651 -0.0917 -0.0393 -0.0930
 3537PP      PP13641  11.620  15.146   2.011  0.2926  0.1960  0.2185
 3538PP      PP13642   8.229  15.001   1.601  0.0941 -0.0956 -0.0755
 3539PP      PP13643  14.128   0.161   8.745 -0.2684  0.2206 -0.3122
 3540PP      PP13644   6.600   3.344  11.932  0.1146 -0.3195  0.2119
 3541PP      PP13645   2.399   9.464  13.391 -0.1031  0.0106  0.0660
 3542PP      PP13646   2.644   0.783   8.097  0.1287 -0.0408 -0.0092
 3543PP      PP13647   2.068   6.662   0.144 -0.0824  0.1669  0.1014
 3544PP      PP13648  11.063   6.931   8.609  0.1174 -0.0516  0.4151
 3545PP      PP13649   8.885  15.585  11.846 -0.4246  0.0119  0.0804
 3546PP      PP13650   3.792   0.977  13.008 -0.1282 -0.1857 -0.3556
 3547PP      PP13651   4.818   1.324  12.407  0.3682  0.0709 -0.1826
 3548PP      PP13652  10.730   7.957   1.206 -0.1338  0.1841 -0.4161
 3549PP      PP13653   1.279   8.182   1.678  0.0975  0.1447  0.2490
 3550PP      PP13654   8.680   2.570  11.546 -0.1002 -0.1010 -0.2144
 3551PP      PP13655  12.197  12.569  10.180 -0.1283 -0.1895  0.2042
 3552PP      PP13656   9.441  12.608  10.997 -0.1768 -0.1180  0.1935
 3553PP      PP13657  11.457   5.441   1.986 -0.0805 -0.1281  0.1539
 3554PP      PP13658   8.126  11.475   0.385 -0.4497  0.0380  0.1043
 3555PP      PP13659  10.331   9.312   4.442  0.1152  0.3139 -0.0693
 3556PP      PP13660   2.651   3.862  10.906  0.0970  0.1170  0.0904
 3557PP      PP13661   2.264  12.438  11.367  0.0319  0.2835  0.1137
 3558PP      PP13662   0.377   6.122  12.220  0.3024 -0.3456  0.0759
 3559PP      PP13663   3.794   1.810   1.105 -0.1574 -0.2768  0.1321
 3560PP      PP13664   8.680   5.440  11.722 -0.0033  0.2677  0.4397
 3561PP      PP13665  10.212   1.969   4.215 -0.0481  0.0092 -0.0567
 3562PP      PP13666   1.312   8.069  13.096 -0.0008 -0.2984 -0.1051
 3563PP      PP13667   3.828   6.221  12.886  0.1031  0.1110 -0.2230
 3564PP      PP13668   0.071  10.973   0.555  0.0591  0.4527 -0.1100
 3565PP      PP13669   2.897   7.946   3.910  0.1821 -0.1481  0.1161
 3566PP      PP13670   9.717   1.748  11.689  0.0823  0.0369  0.1686
 3567PP      PP13671  14.866   5.432   3.426 -0.0304  0.2903 -0.0452
 3568PP      PP13672   2.641   8.990   9.723  0.0007  0.0449 -0.3249
 3569PP      PP13673   9.843   7.395   1.797  0.0368 -0.3332 -0.3140
 3570PP      PP13674   4.351   0.590   0.590 -0.1619 -0.5104 -0.0688
 3571PP      PP13675   7.807  11.742   4.015  0.1489 -0.2218  0.1794
 3572PP      PP13676  15.777   5.464  12.719  0.0274 -0.2474 -0.0023
 3573PP      PP13677   8.302  14.639   0.096  0.1942 -0.3555 -0.3945
 3574PP      PP13678  10.824   1.610  13.199  0.3001 -0.0868 -0.1632
 3575PP      PP13679   2.900   2.419   8.350  0.1428  0.0214  0.0559
 3576PP      PP13680   1.237   0.310   1.954 -0.1094 -0.1915 -0.1106
 3577PP      PP13681   1.527   1.493   0.001 -0.1079  0.2388 -0.0339
 3578PP      PP13682  14.144   6.309  10.199 -0.2502  0.0349 -0.0367
 3579PP      PP13683   4.836   7.580  11.954 -0.1187  0.2756  0.0068
 3580PP      PP13684  13.674   6.946  11.291  0.2051  0.0961 -0.0833
 3581PP      PP13685   1.428  10.908   4.082  0.1493 -0.0043 -0.3767
 3582PP      PP13686   8.893   9.079  12.334 -0.0823  0.0425 -0.1037
 3583PP      PP13687   3.866  13.382   0.210 -0.0951  0.0759 -0.2114
 3584PP      PP13688   2.011   7.872   0.326 -0.1924  0.0868 -0.1529
 3585PP      PP13689  11.954  14.493   2.573 -0.2458  0.0939 -0.0142
 3586PP      PP13690  14.156   3.424  12.005  0.1402 -0.2131  0.1713
 3587PP      PP13691  15.698  15.410  13.384 -0.3119  0.1591 -0.1991
 3588PP      PP13692   1.770  14.372   1.190 -0.1896  0.2345  0.3039
 3589PP      PP13693   8.880   1.241  11.511 -0.0619 -0.3913  0.2695
 3590PP      PP13694   8.961   2.143   3.491 -0.0040 -0.0392  0.0879
 3591PP      PP13695   9.349   4.597  12.471 -0.1684  0.4579 -0.2097
 3592PP      PP13696   5.305  15.174   3.449 -0.1373  0.0703  0.0200
 3593PP      PP13697  15.544  11.500   3.611  0.5079 -0.0622  0.0079
 3594PP      PP13698   3.700   8.012   3.246  0.0631 -0.1111  0.0220
 3595PP      PP13699   3.715   1.798   0.037 -0.1626 -0.0817  0.1987
 3596PP      PP13700   5.882   9.401  11.931  0.0502  0.1131  0.3328
 3597PP      PP13701   2.419   4.137  13.470  0.0742  0.2260 -0.0514
 3598PP      PP13702  13.686   2.392   0.049  0.0774 -0.1763 -0.1335
 3599PP      PP13703  14.698  10.422   9.846  0.0844  0.1442 -0.0643
 3600PP      PP13704   7.229   7.782   9.880 -0.1605 -0.1313 -0.2348
 3601PP      PP13705   0.280   7.458   4.015  0.0209 -0.0258  0.1348
 3602PP      PP13706  15.765  10.001   9.432 -0.2127 -0.1502 -0.0246
 3603PP      PP13707  14.851   6.733  10.065  0.0798  0.1619 -0.2378
 3604PP      PP13708  10.320   4.821   1.346  0.1445  0.3848 -0.1284
 3605PP      PP13709   4.959  14.958   4.214 -0.0914 -0.0617 -0.2557
 3606PP      PP13710   2.989   3.916  11.406 -0.0331  0.0851  0.0054
 3607PP      PP13711   6.148   6.452  13.471 -0.0830  0.0482  0.0541
 3608PP      PP13712   7.137   2.956  10.379  0.2682 -0.4759  0.2208
 3609PP      PP13713   8.567  12.450   4.508  0.1932 -0.2292  0.0693
 3610PP      PP13714   3.512  12.034  12.959  0.3762  0.3529 -0.1208
 3611PP      PP13715   1.845   0.276  11.293  0.0488 -0.2563  0.2240
 3612PP      PP13716   5.357   2.913   0.447  0.1361  0.3701 -0.2655
 3613PP      PP13717   9.258   5.235   1.217  0.0064 -0.4122  0.1030
 3614PP      PP13718   0.889  15.178   2.116  0.0764 -0.1721 -0.1442
 3615PP      PP13719   6.259   8.814  12.795  0.3333 -0.0511  0.5316
 3616PP      PP13720   4.209  11.630  10.065 -0.1593  0.0197 -0.0961
 3617PP      PP13721   4.128  14.033   1.342 -0.0413  0.2963 -0.1032
 3618PP      PP13722  14.784  13.983  13.408  0.2510  0.2099 -0.0483
 3619PP      PP13723   7.647   6.524   9.335  0.1344 -0.2384  0.0173
 3620PP      PP13724  11.045  14.598   7.551  0.0716 -0.0331 -0.1736
 3621PP      PP13725   9.494   5.922  12.908  0.3487  0.2857 -0.0515
 3622PP      PP13726  12.452   6.462  12.417 -0.0258 -0.0472 -0.3310
 3623PP      PP13727   3.144  14.438  11.024 -0.4130 -0.4133  0.3365
 3624PP      PP13728  14.601   2.865   2.918  0.1761 -0.3881 -0.1031
 3625PP      PP13729   2.013  10.408   1.404  0.1360 -0.3001 -0.0893
 3626PP      PP13730   4.030   0.923  11.303 -0.0896 -0.1030 -0.1640
 3627PP      PP13731   3.732   4.878  12.482  0.0264  0.4317 -0.0249
 3628PP      PP13732   6.816   9.955  12.689  0.2944  0.1365  0.2493
 3629PP      PP13733   2.857   8.698  10.090 -0.2898 -0.0834  0.0511
 3630PP      PP13734  15.760   6.391   1.234 -0.1235  0.1669  0.1524
 3631PP      PP13735   8.151   4.054  12.297 -0.2474  0.2381 -0.1415
 3632PP      PP13736  11.563  11.330   8.887 -0.1697  0.0976 -0.1727
 3633PP      PP13737  11.215   8.457   2.609 -0.1606  0.2136 -0.2273
 3634PP      PP13738   3.565  11.018   5.015  0.0796  0.0385 -0.2208
 3635PP      PP13739  15.878  14.356   0.718  0.0985 -0.1111  0.0352
 3636PP      PP13740  10.863  10.271  13.087  0.0195  0.0032 -0.0920
 3637PP      PP13741   9.571  14.778   0.399 -0.1531 -0.0594 -0.1920
 3638PP      PP13742  11.300   5.147  12.609 -0.4345  0.1366 -0.1135
 3639PP      PP13743   9.480   5.420   4.700  0.3396 -0.0562  0.0792
 3640PP      PP13744   9.246   5.439   9.236  0.0894  0.1475 -0.0486
 3641PP      PP13745   5.866   9.321  10.127  0.1714 -0.1208 -0.2403
 3642PP      PP13746   7.140  10.119  11.526 -0.3263  0.2881  0.1860
 3643PP      PP13747   8.665  14.062   8.862 -0.1300  0.0637 -0.1701
 3644PP      PP13748  14.845   1.570   8.373  0.1800 -0.1671  0.0261
 3645PP      PP13749   8.227  12.508   3.661  0.2038 -0.0476  0.2551
 3646PP      PP13750  13.196   0.456   2.593  0.1477  0.1872 -0.0504
 3647PP      PP13751  10.591   5.658   1.721 -0.0208  0.1087 -0.0710
 3648PP      PP13752   8.052   1.193   0.303  0.0350  0.0570  0.0127
 3649PP      PP13753  14.291   1.716   1.768  0.0023  0.1852 -0.0938
 3650PP      PP13754   4.152   7.429   1.462 -0.0046  0.1696 -0.0899
 3651PP      PP13755  14.867  11.012  12.727 -0.0702 -0.2051  0.0779
 3652PP      PP13756   5.919  12.424   3.702 -0.0515  0.0717 -0.1318
 3653PP      PP13757  13.802   8.794  12.875  0.0277 -0.0057  0.0812
 3654PP      PP13758   3.821   3.572  13.105  0.3713  0.0290 -0.0488
 3655PP      PP13759  14.619   0.173  12.446 -0.1792  0.0553  0.1502
 3656PP      PP13760   7.813  10.240   4.112  0.1250  0.2355 -0.0921
 3657PP      PP13761   0.956   9.638  13.280 -0.1676 -0.0601  0.0539
 3658PP      PP13762   5.229  15.320   0.377  0.1800 -0.1648  0.1631
 3659PP      PP13763  11.033  11.684   1.804  0.2130  0.0399 -0.1177
 3660PP      PP13764  12.436  10.265   9.599 -0.1565 -0.5141  0.2954
 3661PP      PP13765   7.860  11.384   2.688  0.3051  0.1037 -0.0030
 3662PP      PP13766   3.909   7.743  10.248 -0.0322  0.3246 -0.1121
 3663PP      PP13767  11.010   5.453  10.998 -0.2422 -0.3261 -0.0763
 3664PP      PP13768  12.509   2.217  12.148 -0.0402  0.1925 -0.3056
 3665PP      PP13769  12.088   8.313  11.834 -0.1852  0.2087 -0.4603
 3666PP      PP13770   6.347   0.138   9.943 -0.3316 -0.1158 -0.0803
 3667PP      PP13771   6.615  14.752  11.850  0.0113  0.1768 -0.0371
 3668PP      PP13772   9.837  12.599  12.764 -0.3313  0.0203  0.1648
 3669PP      PP13773  15.391   6.457   5.227 -0.0273  0.2306  0.2840
 3670PP      PP13774  15.864   4.355   4.130 -0.3718  0.0616  0.0417
 3671PP      PP13775  13.952  14.164   1.500  0.0160  0.0991  0.1854
 3672PP      PP13776   6.919   7.628   1.219  0.0205  0.3404  0.0553
 3673PP      PP13777   9.208  10.471   3.266  0.1894 -0.0948 -0.1197
 3674PP      PP13778  12.346  13.034   9.210 -0.1170 -0.5608  0.3038
 3675PP      PP13779   2.675   7.591   4.162 -0.0380 -0.0864 -0.0815
 3676PP      PP13780   9.922   8.706   2.819 -0.2617  0.0370  0.0059
 3677PP      PP13781  14.555   2.726  13.108 -0.3553 -0.2478 -0.1630
 3678PP      PP13782   4.329   8.336   3.890 -0.1217  0.2893  0.1657
 3679PP      PP13783   7.389  13.061   0.594 -0.0612 -0.0457  0.0537
 3680PP      PP13784   0.434   0.595   9.924 -0.0233 -0.0094  0.0841
 3681PP      PP13785  12.576   3.264  10.813 -0.0851 -0.0193  0.3499
 3682PP      PP13786   3.958  15.453   0.898  0.2054 -0.0133 -0.2388
 3683PP      PP13787   8.234  14.734  10.311 -0.0076 -0.1039  0.0574
 3684PP      PP13788   6.962  14.801  11.494 -0.1331  0.3285 -0.0852
 3685PP      PP13789  15.299   7.584   9.640 -0.2467  0.0052 -0.0277
 3686PP      PP13790   1.465  14.749   0.205 -0.1814  0.0789  0.2103
 3687PP      PP13791   6.439   7.683   3.542 -0.1995 -0.0187 -0.0507
 3688PP      PP13792  13.292   7.583  13.302  0.0894  0.0338  0.0203
 3689PP      PP13793  12.623  12.676  12.351  0.2620  0.0502 -0.1085
 3690PP      PP13794   2.396   5.167   1.574  0.0266 -0.0122  0.1937
 3691PP      PP13795   4.142   1.358   9.861 -0.2450  0.0395  0.1102
 3692PP      PP13796   3.295  10.545   1.940 -0.0667  0.0458  0.2831
 3693PP      PP13797   3.004   8.544   3.787 -0.1846 -0.2095 -0.0153
 3694PP      PP13798   6.792  13.908   0.945  0.0481  0.1456 -0.1499
 3695PP      PP13799  11.194   2.435  10.724  0.0720 -0.0384 -0.1195
 3696PP      PP13800  15.530  13.130   3.835 -0.1701 -0.1294 -0.0050
 3697PP      PP13801  10.603   9.554  11.883 -0.1358 -0.0881 -0.0069
 3698PP      PP13802  15.234   9.775   8.727 -0.0715  0.0608  0.2168
 3699PP      PP13803   6.033  14.687  13.275 -0.0004  0.0193  0.0155
 3700PP      PP13804   2.308  14.775  10.437  0.3040 -0.0139  0.3981
 3701PP      PP13805   2.811  11.414  12.117  0.4601  0.1398 -0.1669
 3702PP      PP13806  13.632  10.519   8.337 -0.2122  0.0728 -0.3940
 3703PP      PP13807  15.756   7.918  13.139 -0.1152 -0.1701 -0.1957
 3704PP      PP13808   6.024   1.746  10.591  0.0422 -0.1006 -0.0688
 3705PP      PP13809   3.886   0.020  12.225 -0.1494 -0.2563 -0.1304
 3706PP      PP13810   7.321   6.610   9.840 -0.1838 -0.3052 -0.2483
 3707PP      PP13811  14.234   3.758  11.566 -0.2247  0.0370  0.0986
 3708PP      PP13812   3.229   4.912  12.761  0.0164  0.1939 -0.2057
 3709PP      PP13813   1.740   2.291   1.788  0.2228  0.1938 -0.2317
 3710PP      PP13814   2.314   7.412   1.882 -0.0899 -0.1852  0.1918
 3711PP      PP13815   3.812  14.593   9.762 -0.0847  0.2544 -0.0075
 3712PP      PP13816  15.549   4.397   9.432  0.2223  0.1380  0.0429
 3713PP      PP13817   5.363   4.663  13.336 -0.0365  0.1046  0.0561
 3714PP      PP13818   4.125   2.094   8.296  0.0439 -0.0265  0.1316
 3715PP      PP13819   0.150   9.728   9.056  0.0204  0.2014  0.1473
 3716PP      PP13820   3.582  10.694   1.058 -0.0642  0.1167 -0.0757
 3717PP      PP13821   4.786   2.226   2.551 -0.2399 -0.0871  0.2012
 3718PP      PP13822  10.352   2.429   9.709 -0.0090  0.1737 -0.2470
 3719PP      PP13823   1.418   2.936  10.942 -0.0149  0.0630 -0.0012
 3720PP      PP13824   4.226   9.833   1.380 -0.1528  0.0035 -0.1109
 3721PP      PP13825  14.603   3.233  12.166 -0.0731 -0.3287  0.1592
 3722PP      PP13826   9.241   6.148   2.534 -0.0532  0.1699  0.3728
 3723PP      PP13827   5.253   1.914  10.107  0.0094  0.1444 -0.0207
 3724PP      PP13828  12.003   3.081   2.647 -0.1639 -0.0591  0.1231
 3725PP      PP13829  10.257   3.441   5.041 -0.0798 -0.0555 -0.0172
 3726PP      PP13830   4.632  15.289   8.956 -0.0761  0.0299  0.3806
 3727PP      PP13831   6.919  10.763   1.908  0.0857  0.2165 -0.0590
 3728PP      PP13832   1.682   5.694  10.643  0.1220  0.0204 -0.1723
 3729PP      PP13833   2.744  14.040  11.091 -0.3040 -0.0502  0.2421
 3730PP      PP13834   8.191   1.797   4.058 -0.1473 -0.1226 -0.1187
 3731PP      PP13835   4.681   6.635   1.029  0.2411  0.1971  0.2871
 3732PP      PP13836  13.628   0.369   2.830  0.3506 -0.1899  0.1417
 3733PP      PP13837  12.798   5.271   2.121  0.1852 -0.1364 -0.3807
 3734PP      PP13838   0.132   1.411  13.026 -0.0650  0.1463  0.2805
 3735PP      PP13839   8.866   9.093  11.822 -0.1278  0.0431 -0.1228
 3736PP      PP13840   2.827   1.736   0.328 -0.0868 -0.0817  0.1073
 3737PP      PP13841  12.869  12.634   8.407 -0.0775  0.1460 -0.2715
 3738PP      PP13842  13.451   6.408  12.257 -0.0291 -0.2682 -0.0587
 3739PP      PP13843   6.065  13.286   1.811 -0.0263 -0.3895  0.1679
 3740PP      PP13844   1.737   8.277   2.640 -0.1292 -0.0351  0.2538
 3741PP      PP13845   5.412   2.796   3.510  0.0207  0.0847 -0.0071
 3742PP      PP13846   9.661   6.718  12.817 -0.1619  0.0810 -0.1413
 3743PP      PP13847  14.809   0.974   0.581 -0.1030  0.0348  0.1304
 3744PP      PP13848   5.008   7.123   1.828 -0.1497 -0.0039 -0.0283
 3745PP      PP13849  13.422   3.858  12.189  0.1834  0.3550 -0.3749
 3746PP      PP13850   0.532  11.698   0.046  0.1465 -0.0110  0.3321
 3747PP      PP13851   3.363   8.740   2.272 -0.2478 -0.1762 -0.1839
 3748PP      PP13852   8.608   0.209  11.665 -0.1682 -0.1804  0.1456
 3749PP      PP13853  13.994   9.267  13.039 -0.2109 -0.3799 -0.1934
 3750PP      PP13854  14.551  13.922   3.607 -0.3613 -0.0283 -0.0806
 3751PP      PP13855   1.999   7.908   3.203 -0.0259  0.1372 -0.1873
 3752PP      PP13856   8.542   0.031   3.940 -0.2743 -0.1236 -0.6541
 3753PP      PP13857   0.547   0.155  12.040  0.0449  0.2348 -0.0352
 3754PP      PP13858   0.720   5.409  12.493 -0.1789 -0.2350 -0.1518
 3755PP      PP13859  15.282   4.878   0.781 -0.0157  0.0744  0.0324
 3756PP      PP13860   6.332   5.288  12.108 -0.1822  0.0881 -0.1308
 3757PP      PP13861   3.450  10.077  10.445  0.0795 -0.3322 -0.0225
 3758PP      PP13862  14.162  10.468   1.645 -0.4340 -0.0550 -0.0164
 3759PP      PP13863   3.185  13.678   2.840  0.2521  0.1888  0.1853
 3760PP      PP13864   5.011   5.729  12.349  0.0771  0.0483  0.1255
 3761PP      PP13865   9.468  14.119  13.030 -0.0220  0.0470 -0.0719
 3762PP      PP13866   0.975  11.625   3.421 -0.0027 -0.3420  0.2774
 3763PP      PP13867   7.053   9.163  10.385  0.0117  0.2384  0.0900
 3764PP      PP13868   7.970  11.730   5.030 -0.1888 -0.1402 -0.0658
 3765PP      PP13869  12.018  12.143  12.751 -0.0928 -0.0526 -0.1932
 3766PP      PP13870   0.813   2.160   3.908 -0.1960  0.1615 -0.1267
 3767PP      PP13871   2.336   8.190   0.155 -0.1698 -0.0358  0.0557
 3768PP      PP13872   1.413  11.486   2.712  0.2551 -0.0661 -0.0758
 3769PP      PP13873   1.791   3.696   0.259 -0.1948  0.1350 -0.1824
 3770PP      PP13874   7.312   4.383  13.291  0.0991 -0.1211 -0.2095
 3771PP      PP13875   4.233  10.203  11.667  0.0515  0.2216  0.0211
 3772PP      PP13876   2.058  14.724  12.866  0.0758 -0.2943  0.2766
 3773PP      PP13877   7.268  13.022   9.891  0.0384 -0.1687  0.1072
 3774PP      PP13878   9.378   7.275   3.255  0.2904  0.0611  0.2177
 3775PP      PP13879   0.154   2.975   9.254  0.3535 -0.1885  0.0258
 3776PP      PP13880   0.368  14.370   3.942  0.0746  0.0472 -0.5663
 3777PP      PP13881   3.562   0.321  10.528 -0.2233  0.3200  0.2334
 3778PP      PP13882   9.970   4.187  10.396 -0.3020  0.0691 -0.0768
 3779PP      PP13883   4.477   8.641  10.008  0.0528  0.0383 -0.1492
 3780PP      PP13884  13.437  14.253   9.477 -0.1867 -0.1553  0.0229
 3781PP      PP13885  12.317   3.639   8.055 -0.1121  0.4355 -0.1082
 3782PP      PP13886   9.416  13.447   9.384  0.1978  0.1090  0.1637
 3783PP      PP13887   7.750   4.581   0.944 -0.0331 -0.0277  0.0185
 3784PP      PP13888   7.302   5.388   3.187  0.0706  0.0931 -0.1194
 3785PP      PP13889  15.607   1.945  10.095  0.0873 -0.0430 -0.2292
 3786PP      PP13890   5.583  14.357  13.231  0.1153 -0.0816  0.1483
 3787PP      PP13891   0.011  12.007   0.098  0.0808 -0.0434 -0.0221
 3788PP      PP13892  13.315   7.636   4.115 -0.0677 -0.3994 -0.0281
 3789PP      PP13893   9.572   1.045   0.859  0.0668 -0.0941 -0.2574
 3790PP      PP13894  13.087  11.870   9.027 -0.1647 -0.0353 -0.0933
 3791PP      PP13895   1.685  10.169   9.460  0.2558 -0.0793 -0.0845
 3792PP      PP13896   7.951  10.009   0.055  0.0768 -0.1448  0.2483
 3793PP      PP13897   6.524  11.937   1.598  0.1739  0.1334  0.1763
 3794PP      PP13898   3.170   3.270   0.286  0.0535 -0.0210  0.0550
 3795PP      PP13899  10.132   9.416   9.846  0.0864  0.2428 -0.5963
 3796PP      PP13900   3.050  15.866   1.555  0.0782 -0.4859  0.0824
 3797PP      PP13901   0.370  10.858   0.191 -0.2122 -0.0205  0.1475
 3798PP      PP13902   6.734   7.355   3.889 -0.2706 -0.1054 -0.0087
 3799PP      PP13903  10.772  13.268   3.726 -0.1849 -0.0222  0.0295
 3800PP      PP13904  13.906   8.110  12.002 -0.0372  0.0531  0.0863
 3801PP      PP13905   5.708   6.610   2.813  0.1494 -0.0908  0.1610
 3802PP      PP13906   7.129  10.824   9.499  0.2492  0.3156 -0.0185
 3803PP      PP13907  14.552   2.290   3.401 -0.0146  0.2373  0.0834
 3804PP      PP13908   0.295  14.030  12.447 -0.3201 -0.2547 -0.0673
 3805PP      PP13909   6.840  12.483  12.359 -0.0236 -0.3224  0.0551
 3806PP      PP13910   3.587   1.010   1.316  0.3908 -0.3936 -0.0131
 3807PP      PP13911   5.104   7.999   0.422  0.0831  0.2379  0.2100
 3808PP      PP13912  11.174   7.979   3.627 -0.0090 -0.0021  0.3083
 3809PP      PP13913   0.420   7.810   2.620  0.3589  0.2961 -0.0488
 3810PP      PP13914   3.859   8.449   3.799  0.3364  0.2012 -0.2235
 3811PP      PP13915   1.742   7.692  10.928  0.3020  0.2217  0.0476
 3812PP      PP13916   4.774   6.542  12.579 -0.0816  0.0440 -0.0494
 3813PP      PP13917   8.148   1.883  12.521 -0.2654 -0.0903  0.1155
 3814PP      PP13918  13.644   6.057   0.448 -0.1443  0.0789  0.2515
 3815PP      PP13919   2.156   5.132   2.087  0.0911  0.1922  0.2422
 3816PP      PP13920  11.022  14.500  10.209  0.1452 -0.2106 -0.0142
 3817PP      PP13921   7.988  12.601   4.744 -0.1438  0.0881  0.1009
 3818PP      PP13922   1.677  13.538  10.118  0.0298  0.2467 -0.0147
 3819PP      PP13923  11.105  12.415   1.892 -0.2525  0.1143  0.1138
 3820PP      PP13924   6.319   4.025  10.805  0.0841  0.3152 -0.1880
 3821PP      PP13925   0.027   7.780   8.918  0.2728 -0.2274  0.3016
 3822PP      PP13926   2.847  12.680  13.066 -0.0591 -0.2314 -0.2471
 3823PP      PP13927   7.334   7.367   1.586  0.0655  0.0319 -0.1118
 3824PP      PP13928   1.127  11.136   1.581  0.0050 -0.1875  0.0564
 3825PP      PP13929  15.249   2.364  10.805 -0.0665  0.0808  0.1599
 3826PP      PP13930   2.306   1.655  13.142 -0.5015 -0.0840  0.0496
 3827PP      PP13931   0.706   0.656   7.953 -0.1376  0.4316  0.2160
 3828PP      PP13932   2.046   1.342   9.075 -0.2228 -0.1082  0.3659
 3829PP      PP13933   6.098  13.703  13.129  0.0862 -0.0723 -0.0871
 3830PP      PP13934   6.417  11.617   3.201  0.0147 -0.1647 -0.2918
 3831PP      PP13935  10.464  12.461  11.699 -0.0951 -0.1830 -0.0596
 3832PP      PP13936   7.634   1.742   3.548 -0.2595 -0.2299  0.1845
 3833PP      PP13937   5.306   1.635   7.638 -0.1313  0.2560 -0.1302
 3834PP      PP13938   6.968   3.756  12.806  0.1536  0.2399  0.0746
 3835PP      PP13939   4.408  11.744   0.859 -0.0337  0.4227  0.0882
 3836PP      PP13940   3.092   7.655   0.651 -0.0343  0.1625  0.2933
 3837PP      PP13941   5.519  10.051  12.177 -0.1085 -0.1394 -0.0167
 3838PP      PP13942  12.986  15.859   0.692 -0.1297  0.3443  0.0325
 3839PP      PP13943  10.325   7.529  10.584 -0.1502  0.0207 -0.0032
 3840PP      PP13944   5.500   9.038  11.035 -0.1359 -0.2533  0.0932
 3841PP      PP13945   8.390  15.149   4.500 -0.1620 -0.3153  0.0335
 3842PP      PP13946   0.350   2.547  11.090 -0.0656  0.0459 -0.1457
 3843PP      PP13947  12.713   1.324   9.538  0.2730  0.1245  0.0663
 3844PP      PP13948   8.089   7.713  11.161  0.0442  0.2779  0.0816
 3845PP      PP13949   5.532   8.689   0.959 -0.0943  0.0639 -0.2075
 3846PP      PP13950  10.473  10.951  10.430 -0.3901 -0.0374 -0.1747
 3847PP      PP13951  13.430   4.994   9.624 -0.0052 -0.0936  0.0411
 3848PP      PP13952   6.668   6.309   4.270  0.1788  0.0594 -0.1212
 3849PP      PP13953   5.375   3.326   9.467 -0.3299 -0.2537 -0.0293
 3850PP      PP13954   5.524  10.584   4.640  0.1544  0.0795  0.1218
 3851PP      PP13955  12.786   9.085   2.676  0.0013 -0.0363 -0.2027
 3852PP      PP13956   5.534  10.160   9.033  0.1048 -0.0304 -0.0413
 3853PP      PP13957   1.684   6.537  12.796  0.1785  0.5084 -0.0974
 3854PP      PP13958  14.355   7.549   1.493  0.1132  0.0255  0.1607
 3855PP      PP13959   9.766  11.436  12.373  0.0627 -0.1989 -0.1385
 3856PP      PP13960  15.211  14.147  13.005 -0.0223 -0.0327  0.3077
 3857PP      PP13961   6.102   6.202   4.534 -0.0801  0.2067  0.1489
 3858PP      PP13962  10.075   3.424  11.604 -0.1262  0.2594  0.0138
 3859PP      PP13963  14.331  10.684   0.734 -0.0543  0.1825 -0.2440
 3860PP      PP13964   7.785  15.344   1.813  0.3170 -0.0194 -0.0877
 3861PP      PP13965   4.331   6.235   0.491 -0.2073  0.0209  0.3674
 3862PP      PP13966  14.071   9.620   1.738 -0.0812 -0.1339  0.1328
 3863PP      PP13967   4.392  13.498   2.313  0.3396  0.0231 -0.0028
 3864PP      PP13968   5.684   1.922   3.634 -0.2051 -0.0124 -0.0887
 3865PP      PP13969  11.842   3.558   8.785 -0.0325 -0.0103  0.1311
 3866PP      PP13970   5.611   1.072   8.836  0.1355  0.0121  0.1945
 3867PP      PP13971   3.849   0.439   1.472 -0.2522  0.0765 -0.2129
 3868PP      PP13972   8.705  13.858   9.320 -0.0663  0.0041  0.0565
 3869PP      PP13973  14.381   8.908   1.123  0.0407  0.0905  0.2659
 3870PP      PP13974   6.031   6.833  10.451  0.0502 -0.2589  0.1251
 3871PP      PP13975   5.806   2.412  12.428  0.1173 -0.3439 -0.0671
 3872PP      PP13976  11.280   0.397  11.290 -0.1377 -0.2830  0.1637
 3873PP      PP13977   8.434   2.426   2.749 -0.0282  0.1667  0.0165
 3874PP      PP13978   9.799  15.549  13.162  0.1349  0.0811 -0.0252
 3875PP      PP13979  13.433  15.897   9.367 -0.0297  0.3590 -0.2216
 3876PP      PP13980   6.162   4.579   3.044  0.2410  0.1723  0.1893
 3877PP      PP13981  11.329   6.885   0.453 -0.0005  0.0630  0.2046
 3878PP      PP13982   7.283  14.970   1.438 -0.0758 -0.0462 -0.0331
 3879PP      PP13983   6.921   4.930   4.058  0.1811 -0.0060 -0.0736
 3880PP      PP13984   5.553   1.166  12.042  0.1363 -0.1587  0.0454
 3881PP      PP13985   2.937   2.068   0.667 -0.2568  0.0709 -0.3238
 3882PP      PP13986   0.961  15.325   1.654 -0.1917 -0.1121 -0.3928
 3883PP      PP13987  13.146   5.548  10.179  0.4166 -0.1367  0.1602
 3884PP      PP13988   7.567  12.975   5.007  0.1514  0.3240 -0.0005
 3885PP      PP13989  10.622   9.362  13.309  0.0759  0.2281  0.3794
 3886PP      PP13990   1.732   7.649   4.135 -0.2332 -0.0937 -0.3802
 3887PP      PP13991  10.306   0.080  12.926 -0.1167  0.2630 -0.0639
 3888PP      PP13992   7.021  15.628  10.157  0.0725  0.1129 -0.1751
 3889PP      PP13993   3.269  13.490   4.193  0.0037 -0.2674 -0.2778
 3890PP      PP13994  13.728  12.738  12.163  0.2224 -0.3050 -0.1094
 3891PP      PP13995   5.960   0.822  10.175  0.3240 -0.3196 -0.2649
 3892PP      PP13996  12.206   9.276  11.050 -0.2052  0.1193  0.4160
 3893PP      PP13997   0.738  12.514  10.395 -0.1203 -0.1459  0.0161
 3894PP      PP13998  14.975   0.188   3.030 -0.1920  0.1395  0.0182
 3895PP      PP13999   7.729   8.221   4.994 -0.0396  0.3767  0.0664
 3896PP      PP14000   7.670   6.238   4.543  0.0101  0.2094  0.2833
 3897PP      PP14001   0.625  13.713  12.666 -0.0172  0.1579  0.1336
 3898PP      PP14002  13.460  13.392   1.165 -0.2395 -0.1706  0.3314
 3899PP      PP14003   0.622  14.613  11.172  0.0490 -0.1013  0.0846
 3900PP      PP14004  10.320  13.986   1.043  0.0737 -0.0135  0.0800
 3901PP      PP14005  15.275   5.717   3.672 -0.1178  0.0031 -0.1766
 3902PP      PP14006   0.200  11.274  11.091 -0.1524 -0.0976  0.1736
 3903PP      PP14007  11.365   1.808   9.282 -0.1524 -0.0114 -0.1231
 3904PP      PP14008   8.693   6.923   9.860 -0.0331  0.3431 -0.0036
 3905PP      PP14009  10.711  14.059   9.321 -0.0906  0.0822 -0.0281
 3906PP      PP14010   8.970   6.019  11.608 -0.0166 -0.0247  0.0469
 3907PP      PP14011   2.488   1.822  12.317  0.0956 -0.2639 -0.3871
 3908PP      PP14012   0.747   8.189   4.326 -0.1995  0.0281  0.0215
 3909PP      PP14013  12.049  13.945   8.402 -0.3302  0.1015 -0.1591
 3910PP      PP14014   4.766   2.054  10.234  0.0395 -0.0230 -0.0853
 3911PP      PP14015  14.377  14.724  13.199 -0.0867 -0.1112  0.0371
 3912PP      PP14016  15.107  15.677  12.710 -0.2607  0.1296  0.1245
 3913PP      PP14017   9.541  11.380  11.441  0.2302 -0.3828  0.2627
 3914PP      PP14018  10.793  10.615  12.205 -0.0231 -0.2542 -0.2483
 3915PP      PP14019   0.547   6.430  11.358  0.3643  0.0512  0.0886
 3916PP      PP14020   8.135   9.911   3.780 -0.0736 -0.0915  0.2435
 3917PP      PP14021   3.915   5.679  10.345 -0.1356  0.1317 -0.1857
 3918PP      PP14022   8.334   9.127   1.107  0.2570 -0.1302  0.1515
 3919PP      PP14023  14.987   8.622   1.266 -0.0056  0.2386 -0.0820
 3920PP      PP14024  14.934  10.152  11.615  0.3390  0.1722  0.3488
 3921PP      PP14025   4.257   2.746   3.199  0.0802  0.1331  0.5188
 3922PP      PP14026   0.610   9.782  12.535 -0.5526  0.0112  0.0849
 3923PP      PP14027   9.600   5.246   1.674  0.1409  0.2532  0.0663
 3924PP      PP14028   4.210   7.891   0.557 -0.2240  0.2066 -0.1246
 3925PP      PP14029  10.673  13.085  11.395 -0.0858  0.2768  0.0409
 3926PP      PP14030  14.526   7.137   9.618  0.0190  0.0303  0.1222
 3927PP      PP14031   5.957   4.871   0.583 -0.3332 -0.0500 -0.2400
 3928PP      PP14032   0.934  14.273   9.627 -0.0855 -0.2887  0.4363
 3929PP      PP14033  13.629  15.723   9.835  0.2556  0.0282 -0.3595
 3930PP      PP14034   4.882   0.932  12.759 -0.1028  0.0425 -0.2681
 3931PP      PP14035   8.984   9.859   1.562  0.2406  0.0687  0.3105
 3932PP      PP14036  10.250   9.022   3.135 -0.1435  0.3281 -0.1116
 3933PP      PP14037   0.940   1.540  11.591  0.0953 -0.2125 -0.3548
 3934PP      PP14038   2.654  11.706  10.691  0.0482  0.4391  0.1232
 3935PP      PP14039   8.122  10.909  12.243 -0.0335 -0.0919 -0.0568
 3936PP      PP14040  12.511   6.576   1.705 -0.0148 -0.1804  0.2375
 3937PP      PP14041   5.878  10.491   4.075 -0.1292 -0.1011 -0.2254
 3938PP      PP14042   3.876   0.875  12.479 -0.0523 -0.1910  0.0359
 3939PP      PP14043  15.161  10.262  13.108  0.1034 -0.1645  0.2388
 3940PP      PP14044  10.615   2.616  11.907  0.0207 -0.0390  0.1435
 3941PP      PP14045  12.327  15.901  11.758  0.2995 -0.0569 -0.0067
 3942PP      PP14046   3.449  15.871  13.245 -0.0063 -0.4738 -0.0463
 3943PP      PP14047   5.108   4.963   0.678 -0.1051 -0.1672  0.0763
 3944PP      PP14048  12.591   5.357   9.596 -0.2250 -0.0734  0.2537
 3945PP      PP14049  14.146  14.295   2.052  0.0160 -0.2837  0.2384
 3946PP      PP14050   8.032  14.639  12.103  0.1492 -0.2096 -0.2771
 3947PP      PP14051  10.028   5.393  11.636  0.1234  0.0806 -0.1762
 3948PP      PP14052   4.773   1.644  11.036  0.3149 -0.1706  0.0845
 3949PP      PP14053   0.974   0.872   3.929  0.0922  0.1173 -0.3571
 3950PP      PP14054   0.977   2.946  13.051 -0.1831  0.2961 -0.0622
 3951PP      PP14055  10.962  13.835  10.184  0.0085  0.0899 -0.3187
 3952PP      PP14056   5.091  10.186   3.087 -0.2447 -0.0522  0.0917
 3953PP      PP14057  14.089  14.388   2.648 -0.1446  0.0471  0.0319
 3954PP      PP14058   4.690  15.747   4.155  0.4428 -0.4103  0.1553
 3955PP      PP14059   5.981   6.811   1.915 -0.1271  0.0759  0.0485
 3956PP      PP14060   2.982  14.963   9.619 -0.0046  0.0730  0.0348
 3957PP      PP14061  10.411   5.207  10.806 -0.4494 -0.0497  0.1472
 3958PP      PP14062  12.959  10.109   0.440  0.1418 -0.3624 -0.1000
 3959PP      PP14063   4.427   8.413   1.533 -0.1257  0.1971 -0.1323
 3960PP      PP14064   1.291   3.665   0.556  0.1103  0.1411 -0.3760
 3961PP      PP14065   3.459   7.403   3.436 -0.0872 -0.1129  0.0980
 3962PP      PP14066   8.795  10.431  10.029  0.1588  0.0577 -0.1312
 3963PP      PP14067   6.292   0.835  11.084  0.0605 -0.1566  0.2434
 3964PP      PP14068   5.522  13.426   9.765  0.1605 -0.1269 -0.3102
 3965PP      PP14069  10.552   4.941   4.000 -0.1608  0.0949 -0.0366
 3966PP      PP14070   3.444   6.430   3.144  0.3063 -0.1787  0.2766
 3967PP      PP14071   5.859   5.668   2.869 -0.0127 -0.0724  0.1750
 3968PP      PP14072   6.897   7.307   3.393 -0.1293 -0.1297  0.3113
 3969PP      PP14073   4.996   6.981   0.135  0.2408  0.2941  0.2820
 3970PP      PP14074   3.445  15.281   1.672  0.1431 -0.2898  0.1594
 3971PP      PP14075   7.644   8.271   0.559  0.0387 -0.0070 -0.0106
 3972PP      PP14076   0.747   9.449   3.500  0.0326 -0.2611 -0.2656
 3973PP      PP14077   5.024  12.343   4.786  0.0831  0.4889 -0.1112
 3974PP      PP14078   8.344   8.575   1.222  0.3087  0.4684  0.0221
 3975PP      PP14079   2.690  10.174  11.229 -0.1664  0.0055  0.1929
 3976PP      PP14080  15.675   3.261   9.890  0.1210 -0.1015  0.0344
 3977PP      PP14081   5.603  13.828   3.530  0.0275  0.0449 -0.2727
 3978PP      PP14082  13.511  13.053   0.712  0.1494 -0.1048  0.0718
 3979PP      PP14083  12.347  14.630   1.758  0.2509 -0.3646  0.1993
 3980PP      PP14084  11.532   9.911  10.968 -0.0997  0.4193 -0.3865
 3981PP      PP14085  15.331  10.141  12.583 -0.1895 -0.2896  0.2469
 3982PP      PP14086   1.045   2.440   0.153 -0.0817  0.1530  0.1423
 3983PP      PP14087  10.968   2.716  10.341  0.1218  0.0613 -0.0613
 3984PP      PP14088  13.764   8.952   2.776 -0.0074  0.0003 -0.1205
 3985PP      PP14089  13.343  14.296  10.382  0.2123 -0.1851 -0.2157
 3986PP      PP14090  14.906  10.158  12.250 -0.1143  0.0294  0.0465
 3987PP      PP14091  11.486  12.098   1.948  0.0398  0.1324 -0.0746
 3988PP      PP14092  15.290  10.478  12.166 -0.0046 -0.0282  0.1252
 3989PP      PP14093   5.198  13.922  12.415  0.4048  0.0155  0.0817
 3990PP      PP14094   7.084   9.427   2.474  0.2882 -0.2938  0.0385
 3991PP      PP14095  10.004   6.492   4.180  0.0826  0.0510  0.0671
 3992PP      PP14096  14.285   8.760   9.317 -0.2491  0.1554 -0.0003
 3993PP      PP14097  11.536   6.141  12.571  0.2312 -0.0539 -0.1582
 3994PP      PP14098   7.016   9.140   3.759  0.4273  0.2829  0.3181
 3995PP      PP14099   1.771  11.732   3.010 -0.0097  0.1891  0.0622
 3996PP      PP14100   8.065   5.863   0.739 -0.0809 -0.1640  0.2183
 3997PP      PP14101   5.209  15.419  12.223 -0.3294  0.0795 -0.0925
 3998PP      PP14102  12.559   6.156   1.282  0.0875 -0.0994 -0.1104
 3999PP      PP14103   6.368   1.428  11.050  0.0407 -0.1039 -0.0779
 4000PP      PP14104   8.026   9.642  10.023 -0.0391  0.2004 -0.3025
 4001PP      PP14105  14.722   6.573   9.083 -0.0157  0.3503  0.0875
 4002PP      PP14106  11.822  11.021   1.683  0.1524 -0.0595 -0.1030
 4003PP      PP14107   0.859  10.422  13.202  0.1590  0.1328 -0.0236
 4004PP      PP14108   7.465  13.122  12.472 -0.0961  0.2274 -0.2305
 4005PP      PP14109   0.594   2.708   1.206  0.0548  0.1532  0.0957
 4006PP      PP14110  10.332   0.898   1.495 -0.1388 -0.1778 -0.0638
 4007PP      PP14111   3.592   1.067   8.011  0.0549 -0.1872  0.3136
 4008PP      PP14112  14.808   6.950   3.744 -0.1015  0.3232  0.0231
 4009PP      PP14113   0.158  14.445   2.957 -0.1982  0.1971  0.0385
 4010PP      PP14114  13.645  14.465  12.440  0.1040 -0.1515 -0.2602
 4011PP      PP14115   4.791   5.366  11.104 -0.1351  0.0445 -0.2673
 4012PP      PP14116  11.304  12.832   8.866 -0.0700  0.2567  0.2371
 4013PP      PP14117   0.875   8.808   4.096  0.0978  0.1215  0.4418
 4014PP      PP14118  15.816   3.433   9.368  0.1390 -0.1675 -0.1384
 4015PP      PP14119  10.897   1.717   1.751  0.1243  0.2835 -0.1533
 4016PP      PP14120   5.686  14.744  12.882 -0.0412  0.4112 -0.0073
 4017PP      PP14121  10.790   6.255   2.575 -0.2067 -0.0739  0.1001
 4018PP      PP14122   1.541   2.884  13.136 -0.3125  0.0191  0.0491
 4019PP      PP14123   9.738  10.725  12.321  0.1062 -0.0146 -0.0296
 4020PP      PP14124   7.466   2.041  12.987  0.0793 -0.2196 -0.1205
 4021PP      PP14125   4.978   4.693  12.992  0.0988  0.1531  0.0206
 4022PP      PP14126   9.909   8.445  12.354  0.0387  0.0126 -0.2039
 4023PP      PP14127   2.561   8.032  13.189 -0.0455  0.2739  0.0369
 4024PP      PP14128  13.095   7.163   0.668  0.0608  0.0806 -0.0457
 4025PP      PP14129  12.036  14.648  11.670 -0.0350  0.1309  0.2558
 4026PP      PP14130   2.187  14.961   1.737 -0.1465  0.1402 -0.0274
 4027PP      PP14131   5.721   6.526  13.082 -0.0107  0.2083 -0.2023
 4028PP      PP14132  13.877  10.664   9.453  0.0892  0.2224  0.2037
 4029PP      PP14133  13.672   6.070   9.477 -0.0971 -0.1499  0.1419
 4030PP      PP14134   1.049  11.115   2.442 -0.0721  0.0578  0.1452
 4031PP      PP14135   0.242  10.831  10.772 -0.0474 -0.1759  0.0370
 4032PP      PP14136  10.300   5.539  10.424  0.1443  0.4466  0.1900
 4033PP      PP14137  10.792  12.157  10.095 -0.0084  0.0315 -0.3373
 4034PP      PP14138   3.172   1.273   2.633  0.0222 -0.0194  0.3241
 4035PP      PP14139  15.627   7.587  12.638  0.0244  0.1344  0.1249
 4036PP      PP14140   7.289   9.292   1.314 -0.1041  0.0365 -0.0446
 4037PP      PP14141  13.043   0.506  13.430 -0.0841  0.0683  0.3139
 4038PP      PP14142   1.701   5.025  12.558 -0.0542  0.1032 -0.4549
 4039PP      PP14143   7.890   9.717   0.757 -0.0832 -0.0885 -0.1090
 4040PP      PP14144   9.662  13.739   9.033  0.1690  0.3469  0.0023
 4041PP      PP14145  12.675   7.288   0.263 -0.0712  0.0585  0.1950
 4042PP      PP14146   5.985  11.212  11.470 -0.2189 -0.0481  0.1033
 4043PP      PP14147  11.413   2.045  12.851  0.0105  0.0167 -0.0912
 4044PP      PP14148   8.647  13.672   3.134 -0.0871 -0.0028 -0.1059
 4045PP      PP14149   9.218   7.856  10.191  0.0126  0.1753  0.1217
 4046PP      PP14150   7.504  15.384   1.327  0.0452 -0.0696 -0.0122
 4047PP      PP14151   5.674   8.874   2.693 -0.1760 -0.3401  0.1790
 4048PP      PP14152   5.113   9.295   2.616 -0.1053 -0.0084  0.1197
 4049PP      PP14153   9.422   2.928   9.875  0.4975 -0.1364  0.1109
 4050PP      PP14154   9.033   6.688   1.439  0.2193 -0.1810 -0.0832
 4051PP      PP14155   7.353   7.559   3.815  0.2533  0.1931  0.1754
 4052PP      PP14156   1.682   7.088  10.404 -0.0425  0.2331 -0.0392
 4053PP      PP14157  10.685  12.129   9.114 -0.0135  0.0888 -0.0618
 4054PP      PP14158   5.346   5.208  10.373 -0.3762  0.0271  0.2037
 4055PP      PP14159  14.185   6.503   2.345  0.1207 -0.0672  0.1443
 4056PP      PP14160  10.468   2.273   1.318 -0.2590 -0.1844  0.2867
 4057PP      PP14161   7.496   3.899   3.115  0.0314 -0.3939 -0.1651
 4058PP      PP14162   1.999   6.388  12.277  0.2885  0.2931 -0.0224
 4059PP      PP14163   7.445  10.832   1.467  0.1813 -0.1073 -0.1094
 4060PP      PP14164   3.091   9.303  11.436  0.1699 -0.2564 -0.2084
 4061PP      PP14165  12.231  11.410   0.072  0.0161  0.0480 -0.3658
 4062PP      PP14166   1.415  13.359   2.500 -0.1238  0.1099 -0.0699
 4063PP      PP14167   6.011  12.329  11.024 -0.3081  0.0894 -0.3206
 4064PP      PP14168   7.920   8.693   0.958 -0.0578 -0.1566 -0.0080
 4065PP      PP14169  15.305  14.454   1.893 -0.1361  0.1117  0.1818
 4066PP      PP14170  15.853   6.543  12.107 -0.0485  0.0723 -0.0449
 4067PP      PP14171  15.882   9.103   1.937 -0.1396  0.0303  0.0910
 4068PP      PP14172  14.778   7.155   2.437 -0.1423 -0.1091  0.0339
 4069PP      PP14173  12.803   6.554  11.605 -0.0191 -0.3253  0.1096
 4070PP      PP14174  12.313  13.769   1.368 -0.0035  0.1150  0.0468
 4071PP      PP14175   9.000  10.166   5.515 -0.1923  0.2622  0.1011
 4072PP      PP14176   9.093  12.943   2.377  0.2452  0.0647 -0.3072
 4073PP      PP14177  12.542   2.504   3.180  0.1234 -0.1930 -0.0616
 4074PP      PP14178  14.381   9.464  10.038  0.1984 -0.0875  0.0348
 4075PP      PP14179   6.171   9.013  11.053 -0.0966 -0.1399 -0.0064
 4076PP      PP14180   3.059  12.268  13.237 -0.0877  0.5738 -0.3188
 4077PP      PP14181   8.886   4.704   8.472  0.1011  0.0801 -0.0376
 4078PP      PP14182   2.768  14.332  12.973  0.0357  0.3931 -0.0319
 4079PP      PP14183  11.013  12.972  11.773  0.2064 -0.3511 -0.2981
 4080PP      PP14184   0.662  14.965   0.952 -0.2420  0.0719  0.0525
 4081PP      PP14185  15.154   3.310   1.329 -0.1165  0.0324 -0.1947
 4082PP      PP14186   2.980  13.626  10.728 -0.2095  0.0937 -0.2103
 4083PP      PP14187   8.426  15.824  12.443  0.5361 -0.1241  0.1959
 4084PP      PP14188   5.547  15.580   0.750 -0.2708  0.2997  0.0040
 4085PP      PP14189   9.828  15.657  10.486 -0.1184 -0.1632  0.1360
 4086PP      PP14190   8.757   7.109   4.851 -0.0680  0.0073 -0.0758
 4087PP      PP14191  10.114   0.719  12.230  0.0616 -0.1959  0.2738
 4088PP      PP14192   5.727  12.746  11.249 -0.5417  0.1095  0.0549
 4089PP      PP14193   8.605  14.945   1.246 -0.1346  0.2079  0.0222
 4090PP      PP14194   7.125   9.347   4.545 -0.0188  0.0409 -0.0533
 4091PP      PP14195   4.607  13.800   0.651 -0.1232  0.1839 -0.3091
 4092PP      PP14196   1.953   2.613   4.581  0.1734 -0.0306  0.0236
 4093PP      PP14197   4.274  15.762   2.192  0.1988  0.2846 -0.2045
 4094PP      PP14198   3.260   3.959  10.212 -0.1772 -0.0413 -0.0161
 4095PP      PP14199  10.300   1.768   2.954 -0.1832 -0.3127  0.5241
 4096PP      PP14200  14.135   7.473  11.674  0.0723 -0.1718 -0.4160
 4097PP      PP14201   6.355  13.274  13.214 -0.1792  0.1259 -0.2072
 4098PP      PP14202   1.360  12.774   4.444 -0.0439  0.2127 -0.1420
 4099PP      PP14203   8.852   1.569   2.833  0.0025  0.1181 -0.3348
 4100PP      PP14204  11.908  14.419  10.595  0.1028  0.0913 -0.0589
 4101PP      PP14205   7.256   8.975  13.010  0.1548  0.2735 -0.1331
 4102PP      PP14206   0.941   7.783   4.617 -0.1546  0.1750  0.1694
 4103PP      PP14207   8.248   1.489  12.807 -0.1964 -0.2259 -0.0892
 4104PP      PP14208   4.368   7.194  11.787  0.0872 -0.1746  0.0555
 4105PP      PP14209   4.887  15.215   9.402 -0.1382 -0.1217  0.1679
 4106PP      PP14210  12.871   5.131  10.704  0.0406  0.3235 -0.0395
 4107PP      PP14211  14.386   4.569   1.424  0.0889  0.2633  0.0304
 4108PP      PP14212  14.200   3.886   9.195 -0.2438 -0.2558  0.1072
 4109PP      PP14213  15.212   1.308  12.311 -0.2628  0.2290  0.3046
 4110PP      PP14214   8.002  11.031   3.290  0.2957  0.3857  0.0124
 4111PP      PP14215   1.646  15.713  11.181 -0.1748 -0.3881 -0.1900
 4112PP      PP14216  10.926   1.872   0.109 -0.2144 -0.1113 -0.1302
 4113PP      PP14217  14.977   8.140   1.457 -0.2456  0.1024 -0.0485
 4114PP      PP14218  14.778  11.875   2.593 -0.3450 -0.2463 -0.0143
 4115PP      PP14219  14.031   7.697  10.112  0.2759 -0.0801  0.5467
 4116PP      PP14220  12.259   7.396  10.048  0.1951  0.0739  0.2643
 4117PP      PP14221   2.688  11.304   4.455 -0.1591 -0.0576  0.0121
 4118PP      PP14222   7.616   8.420   9.898 -0.0456  0.0336 -0.0455
 4119PP      PP14223   4.390   6.479  12.927 -0.2823 -0.2068 -0.0642
 4120PP      PP14224   1.119   3.157   3.402  0.2133 -0.1735 -0.1652
 4121PP      PP14225   5.073   8.936  10.678 -0.2108  0.2099 -0.1974
 4122PP      PP14226  14.635  14.334   9.579  0.0019  0.0038 -0.0561
 4123PP      PP14227   4.187   3.931   2.264 -0.0566 -0.1583  0.0520
 4124PP      PP14228  14.494   8.514   3.510 -0.1059  0.0532 -0.0820
 4125PP      PP14229  14.497   7.650   4.274 -0.1172  0.0952 -0.0306
 4126PP      PP14230   2.946  11.685   2.610  0.1973 -0.0908  0.0587
 4127PP      PP14231  14.754   2.356  11.173  0.1048  0.0713  0.0210
 4128PP      PP14232   8.172  14.646   3.893  0.1837 -0.1446  0.1535
 4129PP      PP14233  10.216   8.465   0.558  0.2216 -0.0508 -0.0863
 4130PP      PP14234   9.437  11.123  12.598  0.0040  0.3054 -0.1688
 4131PP      PP14235   8.893   4.791  10.651 -0.1625 -0.0098 -0.1202
 4132PP      PP14236  11.524  14.285  10.904  0.0015 -0.1192  0.0223
 4133PP      PP14237   6.189  14.088  12.491 -0.2447 -0.4386  0.0317
 4134PP      PP14238   0.492   4.259   4.055 -0.2108  0.1143  0.2432
 4135PP      PP14239   0.152  14.752  11.425 -0.1060  0.0838  0.1172
 4136PP      PP14240   0.087   4.146   1.990 -0.0149  0.0381 -0.2479
 4137PP      PP14241   1.112   5.250  12.829  0.0692  0.0640  0.1044
 4138PP      PP14242   9.781  11.866   0.736  0.4579 -0.0568  0.1617
 4139PP      PP14243   0.460  12.925  10.152  0.1941  0.1346  0.0280
 4140PP      PP14244   8.301  13.629  11.820 -0.2998  0.0451 -0.1096
 4141PP      PP14245   0.633   2.833   8.408 -0.0243 -0.3283 -0.3314
 4142PP      PP14246   7.795  10.209  13.013  0.1542 -0.0656  0.3104
 4143PP      PP14247   6.941   6.607  13.282 -0.0389 -0.4858  0.1165
 4144PP      PP14248   9.026  11.833  12.484 -0.0115 -0.0925  0.0651
 4145PP      PP14249   0.921   8.681  10.945 -0.1023 -0.1741 -0.0028
 4146PP      PP14250   6.566   7.805   3.991  0.2033 -0.1937  0.2519
 4147PP      PP14251   4.739   2.524   2.991 -0.1257 -0.0185  0.0564
 4148PP      PP14252   1.457   2.421   2.218  0.0029 -0.1331  0.4246
 4149PP      PP14253  11.193   7.200  10.859 -0.0288  0.2293 -0.0220
 4150PP      PP14254  12.134   5.298  10.988  0.1162  0.0143 -0.0588
 4151PP      PP14255   8.724   0.014   0.896  0.0655  0.2629  0.0975
 4152PP      PP14256  12.713  11.416   1.119 -0.0215 -0.0815  0.0056
 4153PP      PP14257   1.133   1.374   9.126 -0.0518  0.4366 -0.1163
 4154PP      PP14258   5.055   5.101   2.140  0.1948 -0.0057  0.1161
 4155PP      PP14259   4.637  12.582   1.083 -0.0635 -0.1518 -0.4384
 4156PP      PP14260   3.370   2.375  11.817  0.1657  0.1068  0.0924
 4157PP      PP14261  12.473   7.958  13.143 -0.0620 -0.1209  0.1178
 4158PP      PP14262   8.446   5.234   0.965  0.0634 -0.0544  0.0258
 4159PP      PP14263   9.822  13.274  10.592 -0.0415 -0.0597 -0.0022
 4160PP      PP14264   1.389  13.015   0.706 -0.0471  0.1561 -0.2200
 4161PP      PP14265   8.357   5.668  11.444 -0.1171  0.0409 -0.3455
 4162PP      PP14266  15.359   6.014   0.646 -0.4408  0.0783 -0.0176
 4163PP      PP14267   2.022  13.296   0.358  0.2180 -0.2862 -0.0257
 4164PP      PP14268  13.463  12.119  13.404  0.2832  0.0625  0.0108
 4165PP      PP14269   2.297   1.621   3.612  0.2435 -0.0058  0.1964
 4166PP      PP14270  11.127   3.729   3.788 -0.0777 -0.2032 -0.0300
 4167PP      PP14271   9.642  11.312  10.143  0.2804  0.0146  0.1662
 4168PP      PP14272   3.717   4.482   2.925  0.0012  0.0831 -0.0556
 4169PP      PP14273  10.291  11.581   2.677  0.1982 -0.0059  0.0810
 4170PP      PP14274   9.241   0.093   9.100  0.0848 -0.1938 -0.0618
 4171PP      PP14275  13.987   1.247   0.377  0.0288  0.1301 -0.4908
 4172PP      PP14276   3.081  10.842  10.065 -0.1627  0.0449  0.1867
 4173PP      PP14277  10.627  15.367   8.189  0.0270 -0.0270 -0.2812
 4174PP      PP14278  13.238   4.573   1.937 -0.2501 -0.0230  0.0330
 4175PP      PP14279   8.308  11.977   2.762  0.0726 -0.0651  0.0597
 4176PP      PP14280  11.984  10.040  10.630 -0.2478  0.0761 -0.1798
 4177PP      PP14281   2.562   8.838   4.064  0.0429  0.4514  0.3176
 4178PP      PP14282   5.380   0.954  12.937  0.0897  0.0300  0.0159
 4179PP      PP14283   6.254   7.476   3.124 -0.0474 -0.0522 -0.0751
 4180PP      PP14284   1.836   5.577   5.009  0.0402 -0.1236  0.0931
 4181PP      PP14285   5.695  14.459  11.850  0.0905 -0.0619 -0.4212
 4182PP      PP14286  13.339   9.408   3.336  0.1804  0.3749  0.1389
 4183PP      PP14287  12.963  14.059   9.450 -0.0733 -0.1540  0.1210
 4184PP      PP14288   0.333   3.447   9.007 -0.1678 -0.2740  0.3023
 4185PP      PP14289   7.044  11.603   1.592 -0.2075  0.2971 -0.1191
 4186PP      PP14290   2.955   1.961  12.251  0.1915 -0.3138 -0.0681
 4187PP      PP14291   1.677   5.183  11.175  0.1867 -0.2432 -0.2865
 4188PP      PP14292  15.281   5.367   0.810  0.0260 -0.1290  0.1536
 4189PP      PP14293  10.379   4.356   8.978  0.2691 -0.0870 -0.0436
 4190PP      PP14294  15.230   7.638  10.994 -0.1016 -0.0940  0.2891
 4191PP      PP14295   8.049   3.292  11.533 -0.2794  0.2592  0.1530
 4192PP      PP14296   8.239   8.148   0.977 -0.2093 -0.0513  0.0556
 4193PP      PP14297  14.442   9.017  10.846  0.0838 -0.0720 -0.0932
 4194PP      PP14298   4.746  14.564  12.166  0.2910  0.0568 -0.1741
 4195PP      PP14299  11.845  14.328   9.737 -0.1356 -0.3049 -0.0367
 4196PP      PP14300   4.245   5.261   9.444 -0.0741  0.5311 -0.3180
 4197PP      PP14301   9.796   7.925  12.622  0.1564  0.0929  0.0225
 4198PP      PP14302  11.307   7.277   9.837  0.3415  0.1910 -0.1124
 4199PP      PP14303   6.710   0.706   8.623 -0.2650  0.3586  0.0375
 4200PP      PP14304  12.927  10.138  11.431  0.1057 -0.1603 -0.2890
 4201PP      PP14305   6.787   5.816   1.964  0.1444  0.0900  0.1733
 4202PP      PP14306   9.081   3.821  12.841 -0.0504  0.0167 -0.0576
 4203PP      PP14307   2.592  15.158  11.449 -0.1869  0.0233 -0.1485
 4204PP      PP14308   8.870   1.246   9.356  0.0788  0.2017 -0.0470
 4205PP      PP14309   4.688   6.842   3.816 -0.1315  0.0131 -0.1231
 4206PP      PP14310  12.440  12.249  10.444 -0.0932 -0.1163 -0.1863
 4207PP      PP14311   0.160  14.566   9.950 -0.0455 -0.1131  0.1014
 4208PP      PP14312   0.673   7.626   2.290 -0.0905  0.0089  0.1611
 4209PP      PP14313   7.606  13.794   0.574 -0.0571  0.0146 -0.0259
 4210PP      PP14314  10.853   5.099   4.468 -0.0532 -0.0298  0.0175
 4211PP      PP14315  15.386   3.902  12.632  0.1876 -0.3059 -0.0090
 4212PP      PP14316  11.932   4.833   0.406 -0.0027  0.1287  0.1128
 4213PP      PP14317   9.715   4.353  11.629  0.0172  0.1114 -0.0466
 4214PP      PP14318   0.633   1.601   0.771 -0.3100 -0.0455  0.0537
 4215PP      PP14319   7.268  15.133   1.904  0.0307 -0.3894  0.4646
 4216PP      PP14320  15.270   7.884  11.464  0.1475  0.3200  0.0329
 4217PP      PP14321  12.122   1.557  13.017  0.0826  0.0091  0.0314
 4218PP      PP14322   4.575   1.141  10.444 -0.0167  0.0097 -0.0968
 4219PP      PP14323   0.587  12.365   2.760 -0.3725 -0.3174  0.1043
 4220PP      PP14324  14.874   2.467   9.924 -0.5749 -0.2306 -0.0261
 4221PP      PP14325   2.623   7.204   3.277  0.2029 -0.0909  0.2400
 4222PP      PP14326  13.808  15.214  11.715 -0.2844  0.0701  0.0106
 4223PP      PP14327   6.760  15.621   2.731 -0.1043 -0.1670  0.0871
 4224PP      PP14328   5.603   0.429   8.563 -0.0820 -0.1676 -0.2778
 4225PP      PP14329   9.255   7.539   4.673 -0.0340  0.1904 -0.1649
 4226PP      PP14330   4.305   1.461  10.798  0.0123  0.0858 -0.0580
 4227PP      PP14331   3.934   8.173  11.576 -0.0774 -0.0194 -0.0961
 4228PP      PP14332   5.282  15.068  12.595  0.0391  0.3654  0.1470
 4229PP      PP14333   6.217   9.028   1.591 -0.0659  0.1272 -0.0268
 4230PP      PP14334   8.513  12.753  11.944  0.0077  0.0324 -0.0156
 4231PP      PP14335  15.659   4.019   0.863 -0.0690 -0.0739  0.2767
 4232PP      PP14336  10.103  12.189   0.505 -0.2659  0.1967  0.3799
 4233PP      PP14337   5.910  15.328   9.387  0.2687  0.2854  0.1480
 4234PP      PP14338   6.468  15.510  11.366  0.1354 -0.1864 -0.1171
 4235PP      PP14339   9.225   5.471  11.590  0.1410  0.0519  0.1842
 4236PP      PP14340  11.998  10.563   1.535 -0.0630 -0.1024  0.4328
 4237PP      PP14341   8.924   0.842   2.077  0.0329 -0.2505  0.2411
 4238PP      PP14342  11.626   1.350   2.338 -0.3307  0.0775 -0.2574
 4239PP      PP14343   3.604   8.864   3.927 -0.0194  0.0761  0.0567
 4240PP      PP14344  15.731   7.758   0.213  0.3963 -0.0724  0.1589
 4241PP      PP14345   6.833  11.281   0.594 -0.1051  0.0335 -0.0931
 4242PP      PP14346   6.084   4.980   4.638  0.0661  0.0308 -0.0393
 4243PP      PP14347   2.074  13.210  12.266 -0.1789 -0.0151  0.1608
 4244PP      PP14348  10.950  11.479   0.854  0.2371 -0.2421  0.2571
 4245PP      PP14349  10.808   4.501   0.286 -0.0935  0.2966  0.0333
 4246PP      PP14350   3.620   3.279   0.519 -0.2780 -0.0088  0.1558
 4247PP      PP14351  12.106  13.087   8.745 -0.1039  0.0240 -0.2113
 4248PP      PP14352   1.588   2.397  10.985 -0.2089 -0.2744 -0.2335
 4249PP      PP14353   8.901   7.240   0.227  0.0069 -0.2353  0.2836
 4250PP      PP14354   7.100  13.154   1.694 -0.0966 -0.0146 -0.1631
 4251PP      PP14355   9.445  15.787   2.009  0.4218  0.0310 -0.0726
 4252PP      PP14356   7.441   0.240   3.798  0.0920 -0.1844 -0.2581
 4253PP      PP14357  12.069   3.427  10.836 -0.0728  0.3431 -0.0562
 4254PP      PP14358   8.439  11.120   3.059  0.2634 -0.0817 -0.1240
 4255PP      PP14359   0.364   0.469   8.883 -0.0919 -0.2237  0.0652
 4256PP      PP14360  12.444  10.061   2.879  0.2205  0.0723  0.0031
 4257PP      PP14361   1.768  15.597   0.402 -0.0223  0.2179 -0.2331
 4258PP      PP14362   5.267   3.945  11.142 -0.2396 -0.1292  0.1068
 4259PP      PP14363   1.820   7.621   4.923  0.0167  0.0349  0.3531
 4260PP      PP14364   7.242  13.695   0.229 -0.1333  0.0174 -0.2427
 4261PP      PP14365   2.674  10.093   9.923  0.2193  0.1603 -0.0293
 4262PP      PP14366   9.830   3.406   1.747  0.0811 -0.0798 -0.2193
 4263PP      PP14367   2.820   2.696  12.648  0.0820  0.2154 -0.1349
 4264PP      PP14368   1.823  12.103   2.066  0.0614 -0.0309  0.1831
 4265PP      PP14369  13.014   4.089  12.263  0.0550 -0.1304  0.0117
 4266PP      PP14370  10.207   7.184   4.909 -0.2204 -0.0424  0.0522
 4267PP      PP14371  13.850   7.571   9.664  0.0735 -0.2445 -0.1835
 4268PP      PP14372  14.628   7.913   1.737  0.0030  0.0095 -0.0704
 4269PP      PP14373  11.991  14.183  11.775 -0.0319  0.0670  0.0063
 4270PP      PP14374  10.300   3.744   4.560 -0.1052 -0.0475 -0.0917
 4271PP      PP14375   2.182  11.528  10.671  0.0258 -0.1295 -0.1798
 4272PP      PP14376   4.993  12.981   3.231 -0.1029 -0.0121  0.3705
 4273PP      PP14377   5.697   7.352  11.177 -0.0539 -0.2054 -0.0346
 4274PP      PP14378  10.839   4.201   9.276  0.0711 -0.1004  0.0845
 4275PP      PP14379   5.254  12.087   2.981  0.1119 -0.0406 -0.1147
 4276PP      PP14380  14.535   3.029  12.664  0.0086 -0.0702 -0.1892
 4277PP      PP14381  11.429   2.022   1.032  0.2614  0.1064  0.1009
 4278PP      PP14382   3.596  11.223   1.279  0.0137 -0.2836 -0.1318
 4279PP      PP14383   5.608   1.192  11.546 -0.1189 -0.0695 -0.0046
 4280PP      PP14384   7.838   7.943  10.649 -0.0401 -0.3753 -0.2165
 4281PP      PP14385   5.735   3.020  12.265 -0.0222  0.0293 -0.2378
 4282PP      PP14386   4.386   2.284   2.227  0.1454 -0.4118 -0.1408
 4283PP      PP14387  12.801  11.317   0.575 -0.0270 -0.1868 -0.1694
 4284PP      PP14388   3.955   0.992  11.827 -0.1681 -0.2447 -0.1720
 4285PP      PP14389   1.381   4.860   1.773 -0.2812 -0.0404 -0.1145
 4286PP      PP14390   7.201  11.950  11.492 -0.1300  0.0836 -0.0196
 4287PP      PP14391  10.077   1.432   8.810  0.1608  0.0247  0.1649
 4288PP      PP14392   8.267   2.708  12.463  0.2215 -0.1277 -0.1294
 4289PP      PP14393   1.849  11.124   3.338  0.2684  0.1076  0.1184
 4290PP      PP14394   0.328  13.005   0.201  0.2031  0.0529 -0.0063
 4291PP      PP14395   1.549  13.103   2.895 -0.2290  0.0287  0.3026
 4292PP      PP14396   4.097   6.880  12.054  0.0829  0.1344 -0.2600
 4293PP      PP14397   4.712   5.543   4.872 -0.0078 -0.0925 -0.0929
 4294PP      PP14398   5.293  13.293   1.993  0.0623 -0.3761 -0.1501
 4295PP      PP14399   7.704   7.142   3.570 -0.2314  0.0968  0.3600
 4296PP      PP14400   8.177   8.918  11.772 -0.1501 -0.0853  0.0618
 4297PP      PP14401  10.982   7.963   2.530 -0.0366  0.0037 -0.2851
 4298PP      PP14402   1.863   8.914  12.360  0.0954  0.2347 -0.2514
 4299PP      PP14403   8.956   4.832   3.461  0.2751 -0.1784  0.1691
 4300PP      PP14404  11.751   0.394   1.020 -0.0654 -0.1297  0.0904
 4301PP      PP14405   1.162   1.174  13.391  0.2653  0.0055 -0.0125
 4302PP      PP14406   0.644  10.386   4.476 -0.0829 -0.1043  0.1763
 4303PP      PP14407   2.242  13.970  11.087  0.0990  0.0841 -0.1993
 4304PP      PP14408   9.888   7.753   1.384  0.1845  0.0957  0.3713
 4305PP      PP14409   5.624  15.737   2.437  0.1367  0.3432 -0.0328
 4306PP      PP14410   8.228   4.488  11.121  0.0744 -0.0022 -0.2734
 4307PP      PP14411   4.018   7.203  12.626  0.2171 -0.1070 -0.2513
 4308PP      PP14412   9.500   1.798  10.807  0.2068 -0.0410 -0.1031
 4309PP      PP14413   9.330  12.552   3.301  0.0645 -0.1230  0.2451
 4310PP      PP14414   8.813   1.747  10.216 -0.2600 -0.2140 -0.2800
 4311PP      PP14415   2.801  11.377   9.871  0.0548 -0.0915 -0.0660
 4312PP      PP14416   8.470  10.688   1.768 -0.0209 -0.0709  0.5914
 4313PP      PP14417   6.844  10.712   4.016 -0.0302  0.1959 -0.3878
 4314PP      PP14418  10.712  15.736  12.701  0.3752  0.4159 -0.0856
 4315PP      PP14419   7.620   7.384   0.562  0.1466 -0.0803  0.2575
 4316PP      PP14420   7.542  13.204  11.579  0.3414 -0.1352  0.0448
 4317PP      PP14421   9.954   4.207   8.689  0.0477  0.1899  0.2381
 4318PP      PP14422   6.423  14.669   0.128  0.0847 -0.0936  0.2166
 4319PP      PP14423  11.087   3.921  12.776  0.2952 -0.1428 -0.0070
 4320PP      PP14424   7.171  14.413   2.853 -0.1271  0.0172  0.1697
 4321PP      PP14425  10.141   9.620  13.064 -0.0025  0.2679 -0.1119
 4322PP      PP14426   1.174   3.913   3.994  0.1647  0.0264  0.0417
 4323PP      PP14427   0.689   2.137   0.410 -0.0747  0.0877  0.3588
 4324PP      PP14428   3.741   1.324   2.686 -0.0677  0.0486 -0.3814
 4325PP      PP14429   0.039  12.049  11.107  0.0576  0.0828 -0.1971
 4326PP      PP14430   0.459  13.158   9.556  0.2956  0.2146  0.1197
 4327PP      PP14431   1.730   1.741   0.964 -0.0139 -0.0998  0.1802
 4328PP      PP14432   6.003  15.768  12.282  0.1127  0.1492  0.5438
 4329PP      PP14433   5.808   1.642  11.853  0.0004  0.2387  0.2836
 4330PP      PP14434   0.597  13.596   0.900 -0.1241 -0.0921 -0.3058
 4331PP      PP14435  14.804   9.185  12.774  0.3135 -0.1238 -0.0387
 4332PP      PP14436  12.521   2.879   1.177 -0.1139  0.0261 -0.0110
 4333PP      PP14437  14.644   5.277   2.863  0.1481 -0.2239 -0.2187
 4334PP      PP14438   1.450   9.234   0.833  0.3663  0.2079  0.0308
 4335PP      PP14439   9.654   7.461  10.317 -0.3466  0.0041 -0.1687
 4336PP      PP14440   6.244   2.655   0.916  0.2923 -0.1012  0.2026
 4337PP      PP14441   5.612  10.939  10.544 -0.2486  0.1805  0.2448
 4338PP      PP14442   2.507   2.809   7.612 -0.1080  0.2390 -0.4033
 4339PP      PP14443   9.718   6.288   3.027 -0.2637  0.4163 -0.1391
 4340PP      PP14444   8.056   1.605   3.173  0.3107  0.2287 -0.0839
 4341PP      PP14445   2.304  15.005   3.534  0.0600 -0.0953  0.1216
 4342PP      PP14446  14.164   2.459  13.050  0.1115 -0.1517 -0.4684
 4343PP      PP14447  14.350  10.011   8.612 -0.4186 -0.1283 -0.4557
 4344PP      PP14448  12.926   3.287   8.345 -0.2376  0.1339 -0.2270
 4345PP      PP14449  10.774  15.292  13.304  0.1012 -0.1225  0.1084
 4346PP      PP14450  10.020   4.670   4.726 -0.0163  0.2610 -0.0676
 4347PP      PP14451  10.716   7.745  12.308  0.2375  0.1844  0.2511
 4348PP      PP14452   2.436  14.763   8.927  0.2232  0.2797 -0.1073
 4349PP      PP14453   8.184   8.526   4.026 -0.0897  0.0622 -0.2283
 4350PP      PP14454   2.533  15.140   2.058 -0.2036  0.3224  0.1094
 4351PP      PP14455   7.219  12.794  10.431  0.0319 -0.3583  0.2585
 4352PP      PP14456   4.849   6.266  11.107  0.2392 -0.1002 -0.0758
 4353PP      PP14457   6.038   2.982  10.201  0.0115  0.1076  0.1206
 4354PP      PP14458   7.006   4.327  11.800 -0.1598  0.2607 -0.1783
 4355PP      PP14459  13.921  12.972   1.874 -0.3006 -0.3111  0.0543
 4356PP      PP14460   4.896  11.599  10.768  0.2016  0.0101 -0.0624
 4357PP      PP14461   0.168   9.745   2.754  0.2280  0.2873  0.2623
 4358PP      PP14462   3.518  14.054  10.943  0.1216 -0.3098  0.1972
 4359PP      PP14463   2.328  13.192   3.874 -0.7041 -0.1314 -0.0114
 4360PP      PP14464  13.860  15.578  12.379 -0.0083  0.1672 -0.1821
 4361PP      PP14465  13.986   2.836  10.058 -0.0713  0.1940 -0.2352
 4362PP      PP14466   3.423   7.735  12.739  0.0039  0.3496  0.1838
 4363PP      PP14467  14.669   5.680  12.092  0.1445  0.0164 -0.1543
 4364PP      PP14468  11.659  12.038  13.074 -0.1696 -0.2183 -0.0823
 4365PP      PP14469   9.892   3.470  13.332  0.0833  0.3473 -0.3034
 4366PP      PP14470   2.302  11.175   1.204 -0.1596 -0.2433  0.1535
 4367PP      PP14471  14.487   0.242   1.450  0.0954 -0.2646 -0.1066
 4368PP      PP14472  14.168   7.091   3.503 -0.0715  0.1116  0.1080
 4369PP      PP14473  10.657   8.609   4.342  0.0552 -0.0458 -0.3335
 4370PP      PP14474   1.205   5.616   9.342  0.1931  0.2830 -0.2479
 4371PP      PP14475   7.577   3.885   4.355  0.0543  0.0248  0.1022
 4372PP      PP14476  14.117  13.761  10.758 -0.1856  0.0366  0.1065
 4373PP      PP14477   8.453   0.640   3.270 -0.0600  0.3743  0.2287
 4374PP      PP14478  15.669   5.605  10.627 -0.1591 -0.0526  0.1331
 4375PP      PP14479   3.792   6.082   4.609  0.1686  0.2414 -0.1899
 4376PP      PP14480   9.236  15.167   0.536 -0.3508  0.2072 -0.1953
 4377PP      PP14481   5.592   9.347   2.685 -0.1022 -0.1280  0.2464
 4378PP      PP14482   8.382   0.889  10.350 -0.0461  0.0425 -0.3882
 4379PP      PP14483  15.637  11.063  10.761  0.1931  0.2021 -0.0071
 4380PP      PP14484  14.102  15.755   9.952  0.1973  0.1286 -0.0215
 4381PP      PP14485   6.768   8.839   2.098  0.1012  0.0370  0.2316
 4382PP      PP14486   4.513   9.655   5.222 -0.2455  0.1065 -0.1466
 4383PP      PP14487  13.082   8.463   1.632 -0.1010  0.1394 -0.0665
 4384PP      PP14488   7.860   1.415   2.112  0.1202 -0.0743  0.1541
 4385PP      PP14489  14.845   1.637   1.833 -0.0813 -0.0770 -0.0751
 4386PP      PP14490   2.111   8.697  11.450 -0.1958 -0.1322  0.1550
 4387PP      PP14491   2.211   6.493   0.613  0.2669 -0.0208  0.2086
 4388PP      PP14492   6.677   4.330  11.068  0.0832  0.2410  0.2732
 4389PP      PP14493   9.891  12.340  10.869  0.0860 -0.1333  0.1063
 4390PP      PP14494   8.216   7.047   4.429 -0.0907 -0.0817  0.0762
 4391PP      PP14495   9.616  13.312   1.254  0.0252  0.1904 -0.1527
 4392PP      PP14496   4.960   6.712   2.169 -0.0350  0.1041  0.0473
 4393PP      PP14497  12.916   8.212  10.304  0.0842 -0.0309  0.0942
 4394PP      PP14498  13.812  15.668   2.707 -0.0411  0.0692  0.2130
 4395PP      PP14499   0.082  13.365   3.048 -0.1726  0.1803  0.0078
 4396PP      PP14500  15.696   2.913  13.305  0.0302 -0.1494 -0.3415
 4397PP      PP14501   2.547  10.577   3.676  0.2373  0.3064 -0.0649
 4398PP      PP14502  15.276   2.745  13.445  0.0042 -0.2018 -0.1325
 4399PP      PP14503  13.076   8.103   3.944 -0.0788  0.3840 -0.2898
 4400PP      PP14504  14.884  10.554  11.916  0.1108  0.1435 -0.1017
 4401PP      PP14505  11.309   6.102  10.577 -0.2663  0.0856  0.0290
 4402PP      PP14506  11.152   7.775   0.392 -0.0418  0.1342 -0.0676
 4403PP      PP14507   9.409   3.285  13.426  0.1129  0.0203  0.1440
 4404PP      PP14508   6.623   6.786   0.141  0.0086 -0.1286 -0.0815
 4405PP      PP14509   0.856  15.680  12.262 -0.0849 -0.4068  0.2800
 4406PP      PP14510  11.757   8.389   4.775 -0.0335 -0.3606  0.1062
 4407PP      PP14511  13.934   9.162  10.019 -0.0854 -0.0054 -0.0264
 4408PP      PP14512   4.833   3.129  10.574 -0.0146 -0.0755 -0.0514
 4409PP      PP14513  12.913   3.708  10.867 -0.0778  0.2549 -0.0360
 4410PP      PP14514   2.205  10.401   3.000 -0.0278  0.2217 -0.0779
 4411PP      PP14515   4.198   5.364   1.821 -0.0187 -0.1706  0.0902
 4412PP      PP14516   2.247  10.839   4.041 -0.0025 -0.1002 -0.3695
 4413PP      PP14517  12.473   7.268   1.800 -0.1826 -0.0517  0.1062
 4414PP      PP14518   3.276  14.265   0.623  0.1530  0.0171 -0.2440
 4415PP      PP14519   2.618   4.158   9.446 -0.2598 -0.0234  0.0153
 4416PP      PP14520   3.429  10.582   0.035 -0.0995 -0.0258 -0.1432
 4417PP      PP14521  11.709  13.724  11.491  0.2532  0.0238 -0.0543
 4418PP      PP14522  14.340  12.745  10.697 -0.2646  0.3045  0.0391
 4419PP      PP14523  14.405  12.560   0.344  0.0263  0.1909  0.1323
 4420PP      PP14524   8.767   0.307   0.489  0.0543 -0.0578  0.1013
 4421PP      PP14525  13.197  12.043   3.770 -0.0183 -0.2492  0.1958
 4422PP      PP14526   6.429  10.995   4.002 -0.0020  0.1970  0.0703
 4423PP      PP14527   5.768  10.329   2.604 -0.1496 -0.1298 -0.2464
 4424PP      PP14528  10.880   7.250   9.652 -0.0244 -0.2576 -0.0475
 4425PP      PP14529  15.105  10.280   0.824 -0.0184 -0.3018  0.1284
 4426PP      PP14530   3.166  11.110  11.251 -0.1138 -0.1404  0.1314
 4427PP      PP14531  13.425  12.090  11.683  0.4212 -0.2078 -0.0775
 4428PP      PP14532  12.036   0.109  10.727 -0.1934  0.0210 -0.2300
 4429PP      PP14533   0.482   8.125   1.967 -0.0285  0.2681  0.1189
 4430PP      PP14534   9.452   8.122   4.124  0.0032 -0.2339  0.1315
 4431PP      PP14535  15.606   7.339  11.252 -0.0743 -0.4804  0.2183
 4432PP      PP14536  11.818  14.150   7.744  0.2310  0.1633 -0.2356
 4433PP      PP14537   9.319  13.390   2.474  0.2213  0.1638  0.2894
 4434PP      PP14538  10.671   9.952  11.156  0.0136 -0.2942  0.2919
 4435PP      PP14539   7.371   6.278   1.271  0.0441  0.0763 -0.3602
 4436PP      PP14540  11.610   0.600   0.250  0.3222 -0.2532 -0.0837
 4437PP      PP14541   1.425  13.687  11.454 -0.0983 -0.1590 -0.5345
 4438PP      PP14542  13.203   9.421  11.923  0.2255  0.3456 -0.0063
 4439PP      PP14543   1.674   0.766   2.672 -0.2538 -0.1367 -0.1773
 4440PP      PP14544   2.591   7.924  11.284 -0.4772 -0.2354  0.0586
 4441PP      PP14545  11.979   9.010   0.161 -0.2789 -0.0360  0.4354
 4442PP      PP14546   9.124   4.987   4.091 -0.1927  0.0650 -0.1367
 4443PP      PP14547   3.821   9.904   3.264 -0.1675  0.0512  0.1018
 4444PP      PP14548   3.311   7.227   0.020  0.2575  0.0054  0.0005
 4445PP      PP14549   0.651   2.927  10.080  0.2111  0.0394 -0.0590
 4446PP      PP14550   4.930   1.007   9.783  0.0312 -0.0883 -0.1873
 4447PP      PP14551   6.897   9.039   9.558 -0.0371  0.0253  0.0260
 4448PP      PP14552   1.982   9.078   5.016  0.1551 -0.0607 -0.2190
 4449PP      PP14553  14.029   0.176  13.351 -0.2683  0.0676 -0.0211
 4450PP      PP14554  11.669   8.482  10.984 -0.0832 -0.0669  0.1927
 4451PP      PP14555   2.460   6.668   3.414 -0.0218 -0.3270  0.2300
 4452PP      PP14556   2.197  15.547  12.698  0.0598 -0.6239  0.2255
 4453PP      PP14557   1.634  15.402  12.071 -0.0273  0.1544 -0.0457
 4454PP      PP14558  15.005   4.853  12.225  0.0583  0.2983 -0.1565
 4455PP      PP14559   3.750   7.116  13.088  0.0694 -0.1637  0.2131
 4456PP      PP14560  12.805   2.142  10.071  0.0630 -0.1593 -0.0220
 4457PP      PP14561  12.589  10.118   9.089  0.2090  0.0508 -0.0616
 4458PP      PP14562   1.881  12.449  13.139 -0.4108  0.0756  0.2994
 4459PP      PP14563   4.127   1.147   8.850 -0.0181  0.1765 -0.2647
 4460PP      PP14564  10.509   5.752  13.039 -0.1052  0.2256 -0.1440
 4461PP      PP14565  13.172  12.482   0.155  0.2120  0.2114 -0.1965
 4462PP      PP14566   4.282   8.059   4.764 -0.1576  0.0925  0.1854
 4463PP      PP14567  11.640  14.641   8.143  0.1928 -0.0442  0.1479
 4464PP      PP14568   9.974   2.106  12.595 -0.0829  0.1592 -0.2829
 4465PP      PP14569  13.031   5.315   9.375 -0.2650  0.0223 -0.1274
 4466PP      PP14570   6.942  11.542  10.955  0.2690 -0.0911 -0.1942
 4467PP      PP14571   4.346  10.454  10.469  0.1521 -0.1092  0.2120
 4468PP      PP14572  10.052   5.081   5.193  0.1265  0.1440 -0.2532
 4469PP      PP14573   4.620   4.713   1.184  0.1790  0.3326 -0.0626
 4470PP      PP14574   4.864  13.451   3.071  0.2749  0.0767 -0.3192
 4471PP      PP14575   0.165   4.851   1.268 -0.2576  0.1892  0.2258
 4472PP      PP14576  11.651   8.067  10.644 -0.1017  0.4376  0.3350
 4473PP      PP14577   1.056   3.207   2.027  0.0307  0.1558 -0.0096
 4474PP      PP14578   0.623   5.876  11.315 -0.1149 -0.0291 -0.2336
 4475PP      PP14579  14.245   5.492   1.286 -0.1828 -0.1715 -0.0245
 4476PP      PP14580   4.156   1.658  13.338  0.0269 -0.2345 -0.1043
 4477PP      PP14581   7.537  14.852  12.021  0.2832  0.1804 -0.1864
 4478PP      PP14582   8.361  15.093   3.611  0.4362 -0.0252  0.1322
 4479PP      PP14583   1.032   9.774   1.490 -0.2731 -0.1085 -0.1217
 4480PP      PP14584   1.353   7.456   0.790 -0.0592  0.0308  0.4727
 4481PP      PP14585   4.366  15.496  10.348 -0.0308  0.0941 -0.1300
 4482PP      PP14586   2.254   8.332   9.318 -0.0868 -0.1393  0.3385
 4483PP      PP14587   0.811   4.886  12.498 -0.0668  0.3442  0.0049
 4484PP      PP14588   5.527  12.522  10.014 -0.1161  0.0754 -0.0472
 4485PP      PP14589  15.288  10.811   9.418 -0.1564 -0.4877 -0.3838
 4486PP      PP14590   8.519   9.899  11.367  0.0338  0.1416  0.2816
 4487PP      PP14591  15.118   9.956   9.233  0.3383  0.0120  0.1401
 4488PP      PP14592   3.142   5.595   4.831  0.0201 -0.1844 -0.0910
 4489PP      PP14593   3.932  15.209  10.423  0.4111  0.0054  0.0532
 4490PP      PP14594  14.244  11.116   2.898 -0.1258  0.6061 -0.2503
 4491PP      PP14595   0.208   0.520  11.935 -0.1124 -0.2484 -0.0797
 4492PP      PP14596   8.629   7.589   1.571  0.3626  0.0830  0.2615
 4493PP      PP14597   4.702   4.346  11.850 -0.4609  0.0789  0.2008
 4494PP      PP14598  13.094   8.826   9.531 -0.0129 -0.0306  0.1509
 4495PP      PP14599   9.591  15.564   3.019 -0.1304  0.2719  0.1300
 4496PP      PP14600  13.596  12.251  10.980 -0.4734 -0.0130  0.0234
 4497PP      PP14601   9.225   0.205   3.550  0.1171  0.0889  0.0304
 4498PP      PP14602   7.071  13.231  11.371  0.2037  0.2510  0.0487
 4499PP      PP14603   6.981  14.305  11.415  0.0279  0.2784 -0.1546
 4500PP      PP14604   5.517   4.696   0.740 -0.2939  0.2348  0.0516
 4501PP      PP14605   0.400  14.123  10.906 -0.1703  0.1999 -0.0629
 4502PP      PP14606  15.306   6.870   4.881  0.4244  0.0072 -0.2563
 4503PP      PP14607   1.955  11.665  10.234 -0.1389  0.3487 -0.1437
 4504PP      PP14608   7.628   2.906   0.722  0.1612 -0.2184 -0.3045
 4505PP      PP14609  11.990   2.098  11.776 -0.2389 -0.1182 -0.1164
 4506PP      PP14610   1.521  15.421   1.439  0.0317  0.3570 -0.0469
 4507PP      PP14611   9.673   8.337   3.021  0.1752  0.3156 -0.2563
 4508PP      PP14612  15.830  10.937   1.798 -0.1139  0.0263  0.3250
 4509PP      PP14613   7.123  13.944  12.708 -0.3488 -0.1564  0.2056
 4510PP      PP14614  13.358   1.594  12.412  0.1740  0.2806 -0.0123
 4511PP      PP14615   2.015   7.233   2.348  0.2639  0.1786  0.0787
 4512PP      PP14616   7.735   6.220  12.974  0.2288 -0.2540  0.0570
 4513PP      PP14617   1.150   3.261   9.931  0.1437  0.0467  0.1647
 4514PP      PP14618   1.672   4.710   2.607  0.1588 -0.1193  0.0898
 4515PP      PP14619  12.186  11.241  10.538 -0.0705  0.3250 -0.2324
 4516PP      PP14620   4.718  13.379   0.909  0.3251  0.0900 -0.1810
 4517PP      PP14621  13.961   1.804  12.373 -0.2647  0.1974 -0.0544
 4518PP      PP14622  14.401   2.927  11.213  0.0006  0.3301 -0.0785
 4519PP      PP14623   3.796  15.610  10.666  0.1416  0.1247 -0.0555
 4520PP      PP14624  14.069   4.765  11.334 -0.3409 -0.4187  0.0372
 4521PP      PP14625   3.633   5.663   1.575  0.0673  0.1448  0.0572
 4522PP      PP14626   7.707  11.804   3.468  0.0928 -0.2437  0.0024
 4523PP      PP14627   0.402   0.767   0.839 -0.0201  0.1593 -0.1880
 4524PP      PP14628  11.048   6.811   1.740 -0.1392 -0.0279 -0.1175
 4525PP      PP14629   3.015   3.504   0.740  0.1155  0.1575 -0.1483
 4526PP      PP14630  14.316   2.029  10.521  0.2774 -0.0660  0.0372
 4527PP      PP14631  11.285  11.704   3.667 -0.1471 -0.1608  0.0171
 4528PP      PP14632   2.613   0.978   3.373  0.0380 -0.0028 -0.0513
 4529PP      PP14633  15.335   2.629  12.416 -0.0180 -0.0645 -0.0367
 4530PP      PP14634  10.045   0.715   4.661 -0.2585 -0.2943 -0.1925
 4531PP      PP14635   0.748   2.141  10.066  0.0508 -0.1104 -0.2180
 4532PP      PP14636   9.702   5.096   2.147 -0.0367  0.0811  0.1964
 4533PP      PP14637  10.285   4.513  10.556  0.1086  0.3167 -0.0747
 4534PP      PP14638   3.319   3.864   8.254 -0.0677  0.1181 -0.0984
 4535PP      PP14639   8.305   2.604   9.679  0.1287 -0.0216  0.0525
 4536PP      PP14640   0.936   1.911  10.484  0.1466 -0.0284  0.0707
 4537PP      PP14641   0.296   0.656   9.427 -0.3420  0.1035  0.0631
 4538PP      PP14642   6.305   2.251   9.277  0.2180 -0.3920  0.0613
 4539PP      PP14643  10.346   8.055  11.385 -0.1356  0.1348  0.0675
 4540PP      PP14644  12.790  11.447  10.088  0.0127 -0.1795  0.0453
 4541PP      PP14645   5.899   5.255  11.707 -0.0760 -0.0273 -0.0015
 4542PP      PP14646   3.545  10.227   4.117  0.1590 -0.0045 -0.1288
 4543PP      PP14647  13.133  15.212  13.397 -0.0394  0.3197 -0.4257
 4544PP      PP14648   3.620  12.084   8.900  0.0137 -0.5806 -0.0579
 4545PP      PP14649  14.557   9.401   2.876  0.3917 -0.2695  0.0678
 4546PP      PP14650  11.025  15.189   1.239 -0.0682  0.2101 -0.2153
 4547PP      PP14651   7.242   3.501   9.461 -0.0756 -0.1135 -0.3462
 4548PP      PP14652   9.516  13.741   2.063  0.3154  0.2769  0.0696
 4549PP      PP14653   5.236  12.468   2.599 -0.0485  0.1666  0.0889
 4550PP      PP14654  15.023  10.042   1.477  0.0802  0.5706  0.0987
 4551PP      PP14655   1.046  13.724   1.723 -0.2567 -0.0703  0.2557
 4552PP      PP14656  13.475   6.862   0.463 -0.2937  0.0336  0.0634
 4553PP      PP14657  14.078   3.584   0.337 -0.0793  0.1286 -0.0858
 4554PP      PP14658   2.291  15.317   0.969  0.0242 -0.2997 -0.2474
 4555PP      PP14659   8.186  13.059   2.221  0.0625 -0.1802  0.0978
 4556PP      PP14660  12.972  12.552   2.803  0.1631 -0.2438 -0.1092
 4557PP      PP14661   0.350  10.185   1.792  0.3236 -0.0331  0.1524
 4558PP      PP14662   8.239   5.556  12.415 -0.0414  0.3561 -0.2388
 4559PP      PP14663   5.273   7.822   1.195 -0.1488 -0.3157  0.6671
 4560PP      PP14664   0.429  15.634  13.155  0.0201  0.0364  0.1330
 4561PP      PP14665   4.231   7.677   1.044  0.2909 -0.2006  0.1690
 4562PP      PP14666   0.152  12.444   1.922  0.0320  0.0188 -0.2674
 4563PP      PP14667   7.538  11.920  10.656 -0.0097  0.2275  0.1265
 4564PP      PP14668  11.076  14.393  11.985 -0.1988 -0.0003  0.0059
 4565PP      PP14669  10.163   6.903  11.033 -0.1070  0.0115  0.0920
 4566PP      PP14670  10.830   7.763  10.406 -0.2613  0.0079 -0.2725
 4567PP      PP14671   8.677   5.777   2.473 -0.1624 -0.2429 -0.1749
 4568PP      PP14672  11.842  10.164   3.138 -0.0089 -0.0058 -0.0050
 4569PP      PP14673  11.457   4.610  12.322  0.1652 -0.2226  0.0405
 4570PP      PP14674   6.623   3.025   9.985  0.1918 -0.0164  0.1036
 4571PP      PP14675   9.508  14.136   3.661 -0.2059 -0.2217 -0.2610
 4572PP      PP14676  14.050  12.541  13.091  0.1500 -0.2352 -0.2048
 4573PP      PP14677   9.331  13.042   1.589  0.0774  0.2211 -0.1798
 4574PP      PP14678  10.899   1.009   1.651 -0.1924 -0.1139  0.0183
 4575PP      PP14679  13.474   1.043   9.930 -0.0493 -0.0605 -0.0102
 4576PP      PP14680   1.927   0.613  11.954 -0.0789  0.3428 -0.1358
 4577PP      PP14681   3.467  13.622   3.450 -0.1434 -0.0681 -0.2880
 4578PP      PP14682   9.417  13.645   3.670  0.1173  0.0846 -0.2393
 4579PP      PP14683  13.512   2.387  10.659  0.1322  0.0707  0.2485
 4580PP      PP14684  11.821   3.353  11.707  0.0574  0.0625  0.0673
 4581PP      PP14685  15.325   6.878   1.876 -0.0810 -0.0683 -0.0558
 4582PP      PP14686   3.387   2.025  13.273  0.2156 -0.3372 -0.1614
 4583PP      PP14687   1.267   1.862  10.831 -0.1212 -0.0212  0.0943
 4584PP      PP14688   3.888   7.845   0.078  0.2635 -0.0409  0.0388
 4585PP      PP14689   5.103  15.385  11.220 -0.1487  0.0784 -0.1236
 4586PP      PP14690  15.464   7.814   4.691 -0.0014 -0.2798 -0.0077
 4587PP      PP14691   3.991   4.574  10.345 -0.3221 -0.2809 -0.0989
 4588PP      PP14692   2.928   5.316  12.879  0.0994  0.3629  0.2483
 4589PP      PP14693   2.557   4.121   2.648  0.4437 -0.3407  0.0352
 4590PP      PP14694   8.640   4.588   1.407 -0.1368  0.1867 -0.3864
 4591PP      PP14695   0.729  11.447  13.030  0.1129  0.0436 -0.0449
 4592PP      PP14696   8.209  10.295   1.509 -0.1942 -0.1225  0.1877
 4593PP      PP14697   4.754   8.566   4.230 -0.2086 -0.0824 -0.2067
 4594PP      PP14698   7.676  13.380   4.698 -0.0796 -0.2577 -0.2157
 4595PP      PP14699   9.706  14.101   1.732 -0.2609  0.2449 -0.1240
 4596PP      PP14700  13.755   6.749   9.929 -0.1186 -0.0152 -0.2872
 4597PP      PP14701   7.556   1.378   1.406 -0.0474 -0.1531 -0.1020
 4598PP      PP14702   2.976   7.940   1.077 -0.0004 -0.0777 -0.1171
 4599PP      PP14703   9.084  11.020   3.549 -0.0544 -0.3014 -0.0742
 4600PP      PP14704  12.721   5.634   8.993 -0.1501 -0.0726  0.1434
 4601PP      PP14705   0.986   5.381   2.950  0.0063  0.1713  0.1195
 4602PP      PP14706   4.613  15.672   9.925  0.1649 -0.0277 -0.0101
 4603PP      PP14707   5.587   9.837   1.434  0.1568  0.0849 -0.0705
 4604PP      PP14708  15.407  14.162   0.637 -0.0147 -0.0065 -0.2595
 4605PP      PP14709  13.527   5.331  13.434 -0.0115 -0.0971  0.1160
 4606PP      PP14710   8.321   4.916   9.208  0.0020  0.1456  0.1447
 4607PP      PP14711   2.186   9.302   9.323 -0.2647 -0.0427 -0.0452
 4608PP      PP14712   2.764  11.490   0.173  0.1521  0.1423  0.0909
 4609PP      PP14713  14.425   2.704   0.806  0.2500  0.0226 -0.1228
 4610PP      PP14714   0.819   4.614   9.039  0.0476  0.1316  0.1535
 4611PP      PP14715   6.064  10.767  11.239  0.3558  0.2006 -0.0916
 4612PP      PP14716   9.818  10.139  12.262 -0.3221 -0.1201 -0.0935
 4613PP      PP14717   8.840   3.203   3.885 -0.1627  0.0045 -0.1835
 4614PP      PP14718   5.499   6.867   1.298 -0.3651  0.2122  0.0535
 4615PP      PP14719  15.275  11.841   1.832  0.1851  0.1511  0.1162
 4616PP      PP14720  13.859  10.984  11.677  0.2589 -0.0230  0.0481
 4617PP      PP14721  14.505  15.193   2.966  0.1118  0.0278 -0.0187
 4618PP      PP14722  10.501  10.732  13.099 -0.1442 -0.1124 -0.0767
 4619PP      PP14723  15.360  12.056   1.319 -0.1292  0.3047 -0.0496
 4620PP      PP14724   8.605   1.574   0.871  0.1431 -0.0747 -0.1229
 4621PP      PP14725   1.948  13.773  13.149  0.1963  0.1789  0.1350
 4622PP      PP14726   2.480   7.552   2.384 -0.0980  0.1482  0.0542
 4623PP      PP14727  14.762   8.026  11.489 -0.1444  0.2334 -0.1118
 4624PP      PP14728   7.283   9.561   3.497  0.1493 -0.1577  0.2588
 4625PP      PP14729   9.270   9.458  10.419  0.0573  0.1846 -0.0084
 4626PP      PP14730   3.251  12.436   2.496  0.0673  0.0419 -0.0571
 4627PP      PP14731   4.221  12.670  13.189 -0.0412  0.0282 -0.2155
 4628PP      PP14732  13.188  14.280   0.943 -0.2839 -0.1645 -0.1281
 4629PP      PP14733   2.701   5.210  10.180  0.1456 -0.1297 -0.2902
 4630PP      PP14734   0.797  13.984  11.253 -0.0533  0.1625 -0.0302
 4631PP      PP14735  15.046   0.473  12.027 -0.0879  0.1689  0.2684
 4632PP      PP14736  12.812  10.787   3.230 -0.1553  0.0297 -0.1852
 4633PP      PP14737   8.599  12.342   2.721 -0.2447  0.1653 -0.0602
 4634PP      PP14738   9.111  10.429  11.498  0.1341 -0.2925 -0.1816
 4635PP      PP14739  14.993   2.394  13.185  0.1449 -0.1981 -0.3510
 4636PP      PP14740   1.802   4.824  10.867 -0.2579 -0.0144 -0.0100
 4637PP      PP14741   6.219  14.818  11.127 -0.1746  0.1270 -0.0925
 4638PP      PP14742   1.795  14.787  10.292  0.0451 -0.0377  0.0709
 4639PP      PP14743  12.910   0.715  10.740 -0.1487  0.2217  0.1071
 4640PP      PP14744  15.284   9.357  11.685 -0.4065  0.0641  0.1303
 4641PP      PP14745   5.693  11.480  13.151  0.0965  0.0198  0.6385
 4642PP      PP14746  13.405   0.997   1.597  0.0174  0.0059 -0.0984
 4643PP      PP14747   7.831  14.491  11.192  0.0598  0.0351 -0.0125
 4644PP      PP14748  13.204  11.543   1.091  0.1289 -0.3653  0.5368
 4645PP      PP14749  12.898  14.140   0.264 -0.0725  0.1407 -0.1315
 4646PP      PP14750   2.699   2.216   2.919 -0.0900 -0.2053  0.0429
 4647PP      PP14751   5.327   5.904   1.169 -0.2626  0.0520 -0.0513
 4648PP      PP14752  12.350   3.487   1.587 -0.0158  0.4315 -0.2235
 4649PP      PP14753   9.097   3.972   3.176 -0.1805 -0.1396 -0.1801
 4650PP      PP14754  11.151   0.018  10.925 -0.1928  0.1617 -0.1888
 4651PP      PP14755   9.219   8.064  13.243  0.0388  0.1920 -0.0278
 4652PP      PP14756   5.118   0.847   1.079  0.2895  0.2207 -0.1208
 4653PP      PP14757  11.593  14.104   1.345  0.1441 -0.2183  0.0179
 4654PP      PP14758   1.211  14.162   8.526  0.1749 -0.1953  0.0848
 4655PP      PP14759  13.004   8.280  12.367  0.4643  0.0843  0.0913
 4656PP      PP14760   9.315   7.228  12.327  0.1135  0.1030 -0.0382
 4657PP      PP14761   6.502   2.558   8.427  0.1333 -0.0412 -0.1924
 4658PP      PP14762   1.877   1.423   2.166 -0.2036  0.0042 -0.1860
 4659PP      PP14763   3.063   7.097   3.612  0.2440 -0.1892 -0.1123
 4660PP      PP14764  10.303   2.704   1.125 -0.0726 -0.3784  0.1429
 4661PP      PP14765   8.151   7.642   1.256  0.0912  0.1291  0.0900
 4662PP      PP14766   2.528  11.639  11.741  0.1735  0.1013  0.1127
 4663PP      PP14767   3.074   3.083   5.065  0.2378 -0.2336  0.1962
 4664PP      PP14768  11.405   3.709   0.362  0.3210  0.1766 -0.0929
 4665PP      PP14769   2.454  11.838  13.361 -0.0894 -0.0730 -0.1674
 4666PP      PP14770  12.024   9.603  11.419 -0.2224  0.0477  0.3099
 4667PP      PP14771  10.473  11.372  12.974 -0.2048  0.3702  0.1596
 4668PP      PP14772   9.911   7.052  13.091  0.0248 -0.3772  0.0579
 4669PP      PP14773  10.549  10.786  10.004 -0.1270 -0.1777  0.0217
 4670PP      PP14774   3.832   4.620   0.538  0.1172  0.0314  0.1209
 4671PP      PP14775  13.707   2.980   9.384  0.1873  0.1099  0.0897
 4672PP      PP14776   3.437  10.634  12.639  0.0834  0.0714 -0.0824
 4673PP      PP14777   8.051  13.182   4.986 -0.1275 -0.1754 -0.1255
 4674PP      PP14778   0.274   2.198  13.432 -0.1065 -0.1476 -0.0959
 4675PP      PP14779   2.038   2.097   8.790 -0.0082  0.0074 -0.2312
 4676PP      PP14780   1.874   7.152  10.893 -0.0243  0.1268 -0.1672
 4677PP      PP14781   6.913   6.305   0.816 -0.0100  0.3181 -0.0836
 4678PP      PP14782   7.316   3.961   2.660 -0.1672  0.0988  0.1365
 4679PP      PP14783  11.915  12.041  12.246  0.1551  0.1943  0.3032
 4680PP      PP14784  13.560  14.849   8.168 -0.3107  0.0587 -0.4041
 4681PP      PP14785  14.214   0.178   9.243  0.0784  0.1437 -0.1559
 4682PP      PP14786   8.797   2.598   3.728  0.0269 -0.1475  0.0049
 4683PP      PP14787   4.143   4.480   1.378 -0.0428 -0.0069 -0.0401
 4684PP      PP14788   8.070  15.125   3.167 -0.1272  0.3457  0.3388
 4685PP      PP14789   7.092   9.739   4.919 -0.0639 -0.1311 -0.1944
 4686PP      PP14790   1.612   6.855   3.221  0.1295  0.1023  0.0644
 4687PP      PP14791   7.822   7.619  13.237 -0.0326 -0.2536  0.2347
 4688PP      PP14792   9.308   9.290   2.455 -0.0924 -0.0091 -0.0828
 4689PP      PP14793   5.567   8.517   2.983 -0.1369 -0.0935  0.0733
 4690PP      PP14794   0.051   9.612   1.863 -0.0415 -0.0840  0.4642
 4691PP      PP14795   1.864   8.479  11.880 -0.3674 -0.0836 -0.0786
 4692PP      PP14796  13.212   4.342   0.108 -0.1140 -0.2949  0.1110
 4693PP      PP14797   9.500   4.044  12.305  0.0664  0.0933 -0.1234
 4694PP      PP14798   0.108   4.259   9.194  0.0138  0.4063 -0.2833
 4695PP      PP14799   2.079   3.193   1.740  0.3011 -0.0907  0.0381
 4696PP      PP14800   6.776  13.509   3.477 -0.1695 -0.0848 -0.0390
 4697PP      PP14801   2.161  14.086   4.092  0.1310 -0.4099  0.0454
 4698PP      PP14802   5.451   2.444   1.236  0.1485 -0.0591  0.0850
 4699PP      PP14803  14.338  15.302  10.480 -0.1530  0.0607 -0.0229
 4700PP      PP14804  10.089   8.128  13.180 -0.0592 -0.0880  0.0501
 4701PP      PP14805   9.741   8.761   1.645 -0.0929 -0.0525 -0.1247
 4702PP      PP14806  10.191  10.123  11.205  0.2501 -0.1523 -0.2110
 4703PP      PP14807   2.727  14.821   1.640  0.2335 -0.2721  0.1822
 4704PP      PP14808  15.512   3.582   1.118  0.2344  0.3069 -0.0180
 4705PP      PP14809  11.834   1.683  10.496  0.1541 -0.0944  0.1825
 4706PP      PP14810  15.011   2.347   9.365 -0.1344  0.2908  0.2736
 4707PP      PP14811   8.483  12.511   3.209 -0.0436  0.1868 -0.2949
 4708PP      PP14812   1.214  15.386   1.028  0.0676 -0.0293 -0.0348
 4709PP      PP14813   1.476   0.523   3.746  0.1118 -0.0130 -0.1731
 4710PP      PP14814  13.958   4.609  12.155 -0.0408  0.1632 -0.2141
 4711PP      PP14815   9.337  11.111   4.485 -0.0962  0.2799 -0.0472
 4712PP      PP14816   3.606  15.475   2.850  0.0123  0.2280  0.2426
 4713PP      PP14817   6.661   6.083  10.837 -0.0527  0.4796 -0.1907
 4714PP      PP14818   6.163  11.316   4.656 -0.0279 -0.1405  0.1529
 4715PP      PP14819  11.278  15.853   2.065 -0.1175  0.3019  0.1586
 4716PP      PP14820  12.056  10.037  11.130 -0.2242 -0.0204  0.0552
 4717PP      PP14821   6.916   6.628  10.972 -0.0057  0.0235 -0.1884
 4718PP      PP14822   2.269  10.433   0.965 -0.1142 -0.1202 -0.1241
 4719PP      PP14823   4.815   5.659  11.500  0.0596 -0.2591  0.4090
 4720PP      PP14824   1.161  15.626   3.140 -0.0952 -0.1919  0.1676
 4721PP      PP14825  15.302   9.213  12.607  0.0407 -0.1037  0.0896
 4722PP      PP14826   9.491   8.415  11.711  0.2410 -0.0291 -0.4322
 4723PP      PP14827  13.606  12.030   4.403 -0.1338  0.1195  0.1353
 4724PP      PP14828  15.526   1.427   9.815  0.1941  0.0664 -0.2453
 4725PP      PP14829   5.507   8.025   3.056  0.2861  0.1381 -0.1698
 4726PP      PP14830   9.557  13.011   0.128  0.2414  0.0252 -0.0294
 4727PP      PP14831   2.461   8.497   0.634 -0.1839 -0.1411 -0.1183
 4728PP      PP14832  15.183  10.253   3.351  0.3078 -0.0591  0.0151
 4729PP      PP14833   5.143  11.415  11.263 -0.0596  0.1891 -0.2582
 4730PP      PP14834  13.175   2.985   9.271  0.0938  0.0110  0.0657
 4731PP      PP14835   5.700  15.327   2.992 -0.1763  0.0549  0.1526
 4732PP      PP14836   4.643  12.880   0.655  0.0063  0.0298 -0.2348
 4733PP      PP14837   8.530   3.053  11.572 -0.0735 -0.1179 -0.2476
 4734PP      PP14838   6.392  13.695   0.195  0.1386  0.3315  0.0448
 4735PP      PP14839  15.795   2.812  12.356  0.1440  0.0675 -0.0693
 4736PP      PP14840  14.107   7.916   2.841 -0.0841  0.1063 -0.2777
 4737PP      PP14841   0.744  14.682   8.937 -0.1014 -0.1906  0.2176
 4738PP      PP14842   9.597  12.916   8.850  0.0377  0.1144  0.0716
 4739PP      PP14843   3.065  11.844  12.856  0.2925  0.1182  0.2468
 4740PP      PP14844  14.039   2.790  13.431 -0.0142  0.2555 -0.0769
 4741PP      PP14845  13.166   6.113   8.634 -0.2334  0.0637  0.1064
 4742PP      PP14846   5.035   3.669   3.900 -0.0677  0.1399 -0.0373
 4743PP      PP14847  14.426   3.335   9.395  0.1749 -0.0195 -0.1456
 4744PP      PP14848   0.658   8.452  12.262  0.2886 -0.0101  0.0427
 4745PP      PP14849   2.048   1.760  12.608  0.1749  0.3091  0.0573
 4746PP      PP14850  14.877   5.799  10.174  0.2746 -0.1850  0.0974
 4747PP      PP14851   6.651   6.302  11.283  0.0579 -0.1930  0.0705
 4748PP      PP14852  15.009   2.388  11.722 -0.1089  0.2201 -0.0505
 4749PP      PP14853   5.438   2.851  11.368  0.0539 -0.1915 -0.2018
 4750PP      PP14854  14.174   7.246   1.120 -0.0665  0.1018 -0.2365
 4751PP      PP14855  11.499   7.430   1.594 -0.0309  0.1151  0.1837
 4752PP      PP14856  14.068  12.007  11.517  0.0307 -0.0130 -0.1109
 4753PP      PP14857  11.091   7.431  11.963 -0.2161  0.0157 -0.1569
 4754PP      PP14858  10.885   2.304   3.395  0.1640 -0.0567 -0.0205
 4755PP      PP14859  13.666   5.618   9.298 -0.2519  0.0030 -0.0647
 4756PP      PP14860   1.931   0.257   0.234 -0.2685  0.0508 -0.0887
 4757PP      PP14861   8.354   5.384   2.455 -0.3951 -0.2763  0.1778
 4758PP      PP14862  15.208   3.507   9.979  0.1472 -0.0183 -0.0432
 4759PP      PP14863   9.093   7.699   1.445  0.0071  0.0231  0.1958
 4760PP      PP14864   2.436   3.396   0.842  0.0031  0.0062 -0.2291
 4761PP      PP14865   2.665   8.383  10.931  0.1576 -0.0784  0.0340
 4762PP      PP14866   4.148   8.495   0.639 -0.0125  0.1564  0.0285
 4763PP      PP14867   9.974  10.742  11.851  0.0888 -0.2741  0.0168
 4764PP      PP14868  15.867  14.937   2.679 -0.0668 -0.0711  0.0934
 4765PP      PP14869   9.749   5.419  12.876  0.1860  0.0669 -0.1806
 4766PP      PP14870  14.436   0.336  11.265  0.0585  0.1855  0.2446
 4767PP      PP14871   9.625   5.394  11.948 -0.1596  0.0503  0.1033
 4768PP      PP14872  10.605   5.571  12.149  0.0857 -0.0477  0.1174
 4769PP      PP14873  13.461   3.508   9.518  0.1549  0.1868 -0.2166
 4770PP      PP14874   9.787   2.202  10.943 -0.0764  0.1880  0.0388
 4771PP      PP14875  11.351   9.648  11.367  0.5868 -0.2176  0.0612
 4772PP      PP14876  14.022   7.609   4.380 -0.3333  0.0021 -0.0444
 4773PP      PP14877   9.286   1.516   0.934 -0.2320  0.4798  0.1559
 4774PP      PP14878   3.443  12.830   4.769 -0.0768  0.0410 -0.0290
 4775PP      PP14879   0.445   4.340   2.977  0.1218  0.0620  0.1709
 4776PP      PP14880  10.883   3.797   1.004  0.0162  0.0120 -0.1902
 4777PP      PP14881  11.052   0.525   2.837 -0.0996  0.1468 -0.0962
 4778PP      PP14882   5.537  13.966   4.155  0.1521 -0.1767  0.2782
 4779PP      PP14883   1.806   6.024   1.287 -0.1294  0.1276  0.1240
 4780PP      PP14884   9.993  13.381  11.872  0.1436  0.1091 -0.0458
 4781PP      PP14885  12.682  10.653  12.867 -0.0194 -0.0024 -0.0468
 4782PP      PP14886   1.107  12.196  10.051  0.0563 -0.1582  0.1302
 4783PP      PP14887   4.681   8.595  11.934 -0.1286 -0.0137  0.0135
 4784PP      PP14888  14.107  10.159   9.498 -0.0246 -0.1218 -0.0867
 4785PP      PP14889   2.614   6.542   2.571 -0.0529  0.4117 -0.1430
 4786PP      PP14890  11.086   4.206  11.637  0.1709  0.2802 -0.3073
 4787PP      PP14891  13.239   1.044   8.428 -0.1957  0.2473  0.0845
 4788PP      PP14892  12.125  14.490  12.219 -0.0582  0.0244 -0.1706
 4789PP      PP14893   2.694   0.272  13.244  0.0779  0.1036  0.0723
 4790PP      PP14894  11.922   5.230   8.745  0.0561  0.2507  0.4185
 4791PP      PP14895  10.472   2.598  13.348 -0.0992 -0.0695  0.2057
 4792PP      PP14896  14.821   1.719  10.504 -0.0682 -0.2743 -0.2424
 4793PP      PP14897   4.943   4.947  10.204  0.1875  0.0498  0.1566
 4794PP      PP14898   2.754  11.219   2.377 -0.0948  0.0067  0.0335
 4795PP      PP14899   0.731  12.617  10.993 -0.4908 -0.1463 -0.0502
 4796PP      PP14900   9.578   8.903  13.046 -0.4710  0.0266 -0.4419
 4797PP      PP14901   4.715   5.655   0.685  0.0347  0.5399 -0.1790
 4798PP      PP14902   3.581   5.870  10.996 -0.0953 -0.0054 -0.2531
 4799PP      PP14903   3.954  13.597  13.225  0.0875  0.0433 -0.1270
 4800PP      PP14904   3.801  14.682   2.631  0.0069  0.1719  0.0651
 4801PP      PP14905  15.800  15.829  10.499  0.1271  0.4112 -0.0311
 4802PP      PP14906  14.646   0.206   2.252  0.1095 -0.2491  0.2168
 4803PP      PP14907   3.511  10.131  12.614 -0.0150  0.0352  0.0347
 4804PP      PP14908  12.890   7.074   2.937  0.1097  0.0698  0.2325
 4805PP      PP14909  10.712  12.130   1.951 -0.2255 -0.1839  0.1046
 4806PP      PP14910   9.935  13.632  12.963 -0.2413 -0.0940  0.2786
 4807PP      PP14911   1.141  15.037   3.839  0.0017 -0.1507  0.0764
 4808PP      PP14912  10.544   3.196  12.128  0.0686 -0.1034  0.2706
 4809PP      PP14913   6.937   9.820   2.174 -0.1458 -0.0806 -0.0348
 4810PP      PP14914   2.589   9.034   3.585  0.0207 -0.1668 -0.0712
 4811PP      PP14915  10.973   6.438   3.060  0.5469  0.2794  0.0275
 4812PP      PP14916  11.058  13.737   9.613  0.0437  0.1205 -0.1743
 4813PP      PP14917  14.875   2.443   3.041 -0.1023  0.1047 -0.2717
 4814PP      PP14918   8.090  11.797   0.882  0.0958  0.0331 -0.2412
 4815PP      PP14919   0.936  10.413  10.280 -0.0821  0.0693  0.0305
 4816PP      PP14920  11.297   0.862   1.848  0.2222 -0.0053 -0.0831
 4817PP      PP14921   7.252   7.696  11.919 -0.1267  0.2034  0.4139
 4818PP      PP14922   5.164   2.773   0.946  0.2069 -0.0173 -0.2584
 4819PP      PP14923   8.021   2.761  11.399 -0.0289  0.0699  0.0529
 4820PP      PP14924   9.836   1.418   4.369  0.1134 -0.1858  0.0468
 4821PP      PP14925   1.137   2.526  10.781 -0.0504  0.1095 -0.0293
 4822PP      PP14926  12.744   6.343  13.440 -0.1338  0.3836 -0.2467
 4823PP      PP14927   6.069   0.171   0.389  0.1904 -0.0459 -0.1461
 4824PP      PP14928   4.916   9.479  11.564  0.0127 -0.0051  0.2675
 4825PP      PP14929   3.442   2.535  13.242 -0.0100  0.0730 -0.0586
 4826PP      PP14930  12.924  13.995  10.357  0.2285 -0.2948 -0.0624
 4827PP      PP14931  15.412   7.002  13.258 -0.3373 -0.1508  0.0270
 4828PP      PP14932   6.795   8.498   9.769  0.0278 -0.1537  0.2102
 4829PP      PP14933   5.276   8.567  11.036  0.0869 -0.0640  0.1700
 4830PP      PP14934   5.975  11.437   3.428  0.0535  0.2897  0.0302
 4831PP      PP14935   0.566  13.174  11.124 -0.1495  0.1851 -0.1791
 4832PP      PP14936  15.527  10.673   3.280  0.1087  0.1276  0.1153
 4833PP      PP14937   7.526   8.113   3.275 -0.0903 -0.2672 -0.0013
 4834PP      PP14938   1.842  15.767   8.936  0.0992 -0.1300 -0.2646
 4835PP      PP14939  11.883  10.947   8.859  0.1566  0.1092  0.0761
 4836PP      PP14940   4.329   2.082  10.095  0.1483  0.1423  0.1126
 4837PP      PP14941   2.177  14.665   1.338 -0.1871 -0.1870 -0.2376
 4838PP      PP14942   1.170   0.635   2.809 -0.4624  0.0210 -0.1667
 4839PP      PP14943  13.791   3.541   3.333  0.0615 -0.1603  0.1631
 4840PP      PP14944   0.274   5.676  11.678  0.0240 -0.0844 -0.1485
 4841PP      PP14945   8.458   1.432  11.282  0.0495 -0.0817 -0.0660
 4842PP      PP14946  12.557  15.503   9.231  0.2259  0.0759  0.1507
 4843PP      PP14947   7.605   9.593   0.039  0.1416 -0.3206 -0.1183
 4844PP      PP14948   5.928  15.220   9.895  0.0784  0.1024  0.1643
 4845PP      PP14949   3.054   7.136  12.174  0.0335 -0.0462 -0.4063
 4846PP      PP14950   6.948  12.042   1.333 -0.0941  0.0703  0.1863
 4847PP      PP14951   9.806   4.365  12.091  0.1878  0.0469 -0.0224
 4848PP      PP14952   1.315  11.629   1.259  0.2546  0.1576  0.0556
 4849PP      PP14953   7.526   7.425  10.579  0.0743  0.0734 -0.2482
 4850PP      PP14954   8.289   5.826   9.915 -0.0696  0.2790 -0.1800
 4851PP      PP14955   5.177  10.616   1.892  0.2518 -0.1913 -0.1004
 4852PP      PP14956   3.723   6.764   4.162  0.0722  0.2106 -0.0077
 4853PP      PP14957   6.448  11.408   0.848  0.2928  0.0294  0.0656
 4854PP      PP14958   5.537   1.526   2.731 -0.4548 -0.0483 -0.3168
 4855PP      PP14959   0.549   4.845   2.826  0.0448  0.1956  0.1409
 4856PP      PP14960  14.554   8.962   3.156 -0.0733 -0.0065  0.0239
 4857PP      PP14961  14.429   3.629  13.446 -0.1158  0.1541 -0.1089
 4858PP      PP14962   7.779   2.807  12.407  0.3774  0.0705 -0.0113
 4859PP      PP14963   2.336   3.600  10.547 -0.0997 -0.1485  0.5005
 4860PP      PP14964  12.685   3.907   8.899 -0.1768 -0.2248 -0.4040
 4861PP      PP14965  10.407   7.246  13.024  0.4207 -0.0758 -0.4059
 4862PP      PP14966   3.920   3.548   0.253  0.1589  0.0206 -0.0445
 4863PP      PP14967   0.412   6.677   0.818 -0.2101  0.0048 -0.2217
 4864PP      PP14968   2.899  15.598   8.330  0.2580 -0.1093 -0.0512
 4865PP      PP14969  11.756   5.604   8.391  0.0936  0.1375 -0.2483
 4866PP      PP14970   4.715   3.888  12.773 -0.0375 -0.2932 -0.0235
 4867PP      PP14971   7.375  14.113   3.780  0.0492  0.0854  0.0167
 4868PP      PP14972   8.881   1.709   9.094  0.1935 -0.1242  0.2176
 4869PP      PP14973   0.568  11.628  12.457  0.1919 -0.0605 -0.1594
 4870PP      PP14974   5.379   6.192  12.043 -0.0411 -0.0366  0.2208
 4871PP      PP14975   9.253   1.961  10.265 -0.1781 -0.1360 -0.0268
 4872PP      PP14976  12.613  14.020   9.099  0.2251 -0.2455 -0.2802
 4873PP      PP14977   9.260   3.867   9.687  0.2448  0.2387 -0.2708
 4874PP      PP14978  14.410   8.346   1.995 -0.0846  0.0262 -0.2778
 4875PP      PP14979   9.544   4.677   1.842 -0.2281 -0.1200 -0.1236
 4876PP      PP14980   8.876   1.962  13.445  0.1451 -0.2147 -0.1999
 4877PP      PP14981  10.510  11.979   2.455 -0.1032 -0.0788  0.0132
 4878PP      PP14982  10.217  13.706   9.057 -0.1181  0.1249 -0.2067
 4879PP      PP14983   3.109   0.034   0.165 -0.0700 -0.1794  0.0539
 4880PP      PP14984  10.585   9.120  12.143  0.0359  0.0344  0.0839
 4881PP      PP14985   5.469  12.489   1.413  0.2930  0.0154 -0.0120
 4882PP      PP14986   5.264   4.943   1.142 -0.0252 -0.1275  0.1222
 4883PP      PP14987   2.440  14.884   9.981 -0.0289 -0.2286 -0.0203
 4884PP      PP14988  11.694   3.866   1.820  0.0842  0.1165  0.1420
 4885PP      PP14989  11.836   3.798   8.222 -0.1004 -0.1419 -0.0692
 4886PP      PP14990   9.481  15.783   3.873 -0.1643 -0.0023 -0.0096
 4887PP      PP14991   6.148   6.882   2.850 -0.0884 -0.0511 -0.0596
 4888PP      PP14992   1.754  15.697  13.374 -0.2293  0.2119 -0.1923
 4889PP      PP14993  12.218   6.989   1.405 -0.1233 -0.0479  0.1482
 4890PP      PP14994  13.208   2.951   8.136  0.1852  0.1007 -0.0427
 4891PP      PP14995   5.268   5.637  11.912 -0.4438 -0.1544  0.0092
 4892PP      PP14996   7.315   4.747   0.697  0.1087  0.0722  0.1743
 4893PP      PP14997  14.276   7.749  12.124  0.2237  0.3965  0.0237
 4894PP      PP14998   3.955   2.137   1.403  0.0367  0.0914 -0.0493
 4895PP      PP14999   1.773  10.461  12.881 -0.2351  0.0644  0.0514
 4896PP      PP15000   0.242   8.966   1.438 -0.0812 -0.0239  0.0823
 4897PP      PP15001   5.523   0.149   0.571 -0.0592  0.2634 -0.0992
 4898PP      PP15002   7.692  12.840  10.622  0.2557  0.0836 -0.2184
 4899PP      PP15003   8.125  13.255   1.359 -0.1823  0.0337  0.0749
 4900PP      PP15004  15.651  12.011   9.310 -0.0473  0.1903  0.0117
 4901PP      PP15005   2.468  11.825   4.409 -0.3257  0.1951  0.0811
 4902PP      PP15006  10.810   4.584   2.673 -0.0984  0.1473 -0.1848
 4903PP      PP15007  14.550   1.941   2.146  0.0274  0.0619 -0.2543
 4904PP      PP15008  15.842   2.115   2.840 -0.4123 -0.1566 -0.1946
 4905PP      PP15009   1.420   1.956  13.202  0.0515 -0.2544 -0.1494
 4906PP      PP15010  15.286   9.380   1.059 -0.2990 -0.1334 -0.2894
 4907PP      PP15011   2.305   6.314  11.814 -0.0824 -0.2510 -0.1044
 4908PP      PP15012   5.516   0.171  12.335  0.3188  0.0661  0.0187
 4909PP      PP15013  12.129  13.340   0.132 -0.0283  0.2296 -0.1494
 4910PP      PP15014  15.170   0.802   0.912  0.1898 -0.5565 -0.0572
 4911PP      PP15015  10.750   2.731   9.820  0.0106 -0.1522 -0.0023
 4912PP      PP15016   2.152   9.481   1.997  0.1677  0.0451 -0.1269
 4913PP      PP15017   3.234   2.003   9.095  0.1045 -0.4038  0.1164
 4914PP      PP15018  11.533   5.558  12.340  0.2146  0.0194 -0.1304
 4915PP      PP15019  11.611  14.503  12.025 -0.1558 -0.1332  0.0064
 4916PP      PP15020   2.857   6.581   9.760 -0.2166  0.1973  0.0547
 4917PP      PP15021   9.848  14.527  10.152 -0.1086 -0.1574 -0.0681
 4918PP      PP15022  12.418   5.106   8.660 -0.3139  0.1096  0.0587
 4919PP      PP15023   0.671   2.661   9.281  0.0281 -0.2849  0.0881
 4920PP      PP15024   5.919  12.907   5.045  0.2013 -0.0201  0.0652
 4921PP      PP15025   6.548   0.246   0.982  0.3688  0.1156 -0.0991
 4922PP      PP15026  14.034   7.849  11.350  0.0170  0.3718  0.2032
 4923PP      PP15027  12.714  13.475  12.944 -0.1544  0.0960  0.0774
 4924PP      PP15028   7.919  14.805  12.625  0.2256 -0.3050 -0.0782
 4925PP      PP15029   6.510   5.565   2.326 -0.3345  0.0729 -0.1152
 4926PP      PP15030   6.492   6.907  11.384  0.1784 -0.0136  0.0526
 4927PP      PP15031   5.202  12.087   2.324  0.1163  0.0858 -0.1081
 4928PP      PP15032   5.108  11.449  12.006  0.0044 -0.1551 -0.0385
 4929PP      PP15033   4.864   0.997   3.284  0.4411 -0.4151 -0.2668
 4930PP      PP15034  10.824  13.468   0.447  0.0323  0.1562  0.0560
 4931PP      PP15035   8.553   0.526   1.993 -0.0275 -0.2295  0.2149
 4932PP      PP15036   2.999   4.772  10.169 -0.1094 -0.0344 -0.0321
 4933PP      PP15037   7.830   9.630   9.415  0.1047 -0.0424  0.3144
 4934PP      PP15038   8.103   6.101   9.561 -0.0745  0.3185  0.0021
 4935PP      PP15039   9.793   2.853   2.480 -0.2556  0.0654 -0.5317
 4936PP      PP15040   7.861   0.199   2.082 -0.1054 -0.1040  0.1661
 4937PP      PP15041  10.880  13.172  13.079  0.2208 -0.1025  0.2110
 4938PP      PP15042   1.887   1.507  10.343 -0.1771 -0.4487  0.1858
 4939PP      PP15043   3.210   9.253   2.053  0.0223 -0.4207 -0.0154
 4940PP      PP15044  13.553   9.286  10.758 -0.0702  0.0406 -0.2658
 4941PP      PP15045  12.406  10.929   8.771  0.3539  0.1300  0.1304
 4942PP      PP15046  14.415   4.753   8.691  0.3693  0.1381 -0.0747
 4943PP      PP15047   6.175   0.484   4.510  0.1965 -0.0988  0.3697
 4944PP      PP15048   3.437   6.325   4.366  0.2036 -0.0639 -0.4621
 4945PP      PP15049  11.217   2.217   3.803  0.0444 -0.0007 -0.0662
 4946PP      PP15050   1.840  12.832   0.576 -0.0151  0.1650  0.1087
 4947PP      PP15051   6.449   6.502  11.685 -0.1360  0.0973 -0.0557
 4948PP      PP15052   3.735   2.748   2.235 -0.0796  0.0481 -0.0911
 4949PP      PP15053   7.282  12.678   5.869  0.2184 -0.2725  0.3667
 4950PP      PP15054   9.412  10.993   4.948  0.1153 -0.1502  0.0924
 4951PP      PP15055   7.403  14.941  12.984 -0.0923  0.0283 -0.2072
 4952PP      PP15056   7.121   1.737   2.157  0.0915 -0.0074  0.1491
 4953PP      PP15057   2.898  12.779   2.784  0.0070  0.2034  0.0265
 4954PP      PP15058   8.219  12.253  11.998 -0.1224 -0.1845  0.2012
 4955PP      PP15059   8.422   3.140   3.573  0.0504  0.2462 -0.0357
 4956PP      PP15060  12.040   2.793  11.573  0.1312 -0.1860 -0.3880
 4957PP      PP15061   9.231   5.407   0.743 -0.0956  0.1009  0.0020
 4958PP      PP15062  10.653   4.799  11.758  0.0181  0.3344 -0.1760
 4959PP      PP15063  10.898   3.093   9.047 -0.0632 -0.1062  0.1363
 4960PP      PP15064   7.951  14.062   8.697 -0.1995  0.0271 -0.1286
 4961PP      PP15065  15.121  12.700   9.497 -0.1419 -0.0899  0.0637
 4962PP      PP15066   0.048   6.617   1.717 -0.0132  0.1004  0.2071
 4963PP      PP15067   1.507   7.914   2.895  0.3185 -0.0584  0.0832
 4964PP      PP15068  11.782   6.416   3.809 -0.2156  0.1009  0.2616
 4965PP      PP15069  13.100  12.304   3.280  0.2079  0.2038  0.2093
 4966PP      PP15070   0.257   6.402   9.054  0.0399  0.1862 -0.1712
 4967PP      PP15071   3.347  15.617  11.745  0.0507  0.0787 -0.3550
 4968PP      PP15072   9.968   5.522   9.546  0.1671 -0.4384 -0.1132
 4969PP      PP15073  14.291   9.994   1.454 -0.1490  0.0493 -0.1744
 4970PP      PP15074   5.090   1.267   8.787 -0.4439 -0.0714 -0.0398
 4971PP      PP15075   4.242  13.896   3.954 -0.1650  0.0908  0.0934
 4972PP      PP15076   3.595  12.136   2.227  0.2852 -0.1349 -0.0783
 4973PP      PP15077   8.603   9.668   5.140  0.0013 -0.0735  0.0476
 4974PP      PP15078  12.266  14.698   9.615 -0.1451 -0.3434  0.0938
 4975PP      PP15079   5.445  10.532   3.681  0.3816  0.2749 -0.0122
 4976PP      PP15080  14.761  12.643   4.023  0.0744 -0.0195  0.2809
 4977PP      PP15081   9.175  11.788   1.476 -0.2111 -0.1445 -0.0721
 4978PP      PP15082   4.048   5.539  12.365 -0.1963 -0.0593 -0.0012
 4979PP      PP15083  10.864   9.866  13.411  0.1484  0.1669  0.1503
 4980PP      PP15084   5.327   3.225   3.839 -0.0464 -0.2797 -0.0317
 4981PP      PP15085   1.493   7.095  11.269  0.0072  0.1402  0.1273
 4982PP      PP15086   0.733  12.739  11.950 -0.2676 -0.0141 -0.1193
 4983PP      PP15087   7.080   1.098   9.453  0.2235 -0.0052  0.3286
 4984PP      PP15088  14.916   8.924   2.174 -0.0673 -0.2024  0.0833
 4985PP      PP15089  15.134   4.033   9.496 -0.2930 -0.0517  0.0139
 4986PP      PP15090   2.415  10.045   5.033  0.3293 -0.1218 -0.0403
 4987PP      PP15091   7.361   4.136  12.860  0.1316 -0.0212  0.2702
 4988PP      PP15092  13.521   3.671   1.224 -0.1796 -0.0720 -0.1095
 4989PP      PP15093   4.248   8.889  11.355  0.3017 -0.1679 -0.0783
 4990PP      PP15094  11.283   5.768  13.318 -0.2100  0.2974 -0.4211
 4991PP      PP15095  11.209   4.989  10.949  0.2408  0.0548 -0.2425
 4992PP      PP15096  13.260  14.031   9.821 -0.0581 -0.0291  0.0057
 4993PP      PP15097  11.685   8.592   9.588 -0.1744 -0.2126 -0.0776
 4994PP      PP15098  13.041   6.520   9.321 -0.0582 -0.0757 -0.0797
 4995PP      PP15099  15.849   8.794   9.671 -0.0298  0.0117 -0.2221
 4996PP      PP15100  10.928   0.599   3.367 -0.2255 -0.3942 -0.2107
 4997PP      PP15101   1.875  11.258   2.835  0.0129 -0.1560 -0.0324
 4998PP      PP15102  15.130  14.399  10.746 -0.0797  0.1925 -0.1119
 4999PP      PP15103   9.188  11.199  10.380 -0.0279 -0.2744  0.1817
 5000PP      PP15104   7.239   4.766   9.121 -0.0513 -0.1436 -0.1732
 5001PP      PP15105   4.111  11.467  12.522  0.0645 -0.2714 -0.1142
 5002PP      PP15106  14.402   0.571   8.929  0.1622 -0.2843 -0.1439
 5003PP      PP15107  15.305   3.900  10.403 -0.2117  0.0016 -0.2223
 5004PP      PP15108  13.294  12.116   0.443 -0.2193 -0.1923  0.0362
 5005PP      PP15109   2.864   4.020  12.670  0.1719 -0.0240 -0.0209
 5006PP      PP15110   5.314   8.628   9.600 -0.0753  0.0516 -0.0109
 5007PP      PP15111   7.715  10.109   4.615 -0.3353  0.2303 -0.0134
 5008PP      PP15112  11.181   4.209   1.058 -0.1008  0.0550 -0.0164
 5009PP      PP15113   3.960   6.760  12.786  0.0189  0.4476 -0.2071
 5010PP      PP15114  11.629  14.819   1.593  0.1680 -0.2787  0.3341
 5011PP      PP15115   1.002  14.275   1.632  0.0492 -0.2007  0.0713
 5012PP      PP15116  10.008   3.259   0.413 -0.2290 -0.0126 -0.1878
 5013PP      PP15117  10.029   5.206  11.160 -0.0684  0.0104  0.0678
 5014PP      PP15118   9.587  11.953   9.995 -0.1538 -0.1529  0.3444
 5015PP      PP15119  15.668   1.305  10.295  0.2637 -0.0606 -0.1300
 5016PP      PP15120  12.924  11.672   1.546 -0.2174 -0.0516 -0.1173
 5017PP      PP15121  14.637   0.111  11.946 -0.0820  0.2941  0.0862
 5018PP      PP15122  14.313  12.695  12.150 -0.0306  0.2212 -0.0174
 5019PP      PP15123  14.415   6.687   2.751  0.0717 -0.2011 -0.1134
 5020PP      PP15124   0.005   1.221   8.173 -0.2461  0.0295  0.2604
 5021PP      PP15125   4.401   9.307   3.823  0.1460 -0.0778  0.3724
 5022PP      PP15126  14.908   5.287  11.794  0.3227 -0.0571 -0.0673
 5023PP      PP15127   1.087  14.600  12.465 -0.6320  0.0801 -0.2355
 5024PP      PP15128  12.875   9.306   2.074  0.2188  0.0618  0.1004
 5025PP      PP15129   3.559   7.392   2.908  0.1909 -0.1296  0.0950
 5026PP      PP15130   9.982   0.835  10.591 -0.0242 -0.0651 -0.2456
 5027PP      PP15131   4.419   4.622  12.156  0.3226 -0.0981 -0.0772
 5028PP      PP15132   9.637   5.849   0.333 -0.0039  0.2539  0.0875
 5029PP      PP15133   9.458  11.938   1.090  0.1579 -0.1131  0.1150
 5030PP      PP15134   4.042  14.449   2.080  0.2033 -0.0528 -0.0491
 5031PP      PP15135   0.507   0.875  12.885  0.0475 -0.1944 -0.1596
 5032PP      PP15136   7.423   7.559   1.013 -0.0747  0.4212  0.2819
 5033PP      PP15137  12.499   9.677   4.635  0.0369  0.1194 -0.0119
 5034PP      PP15138   4.801   3.745   1.099  0.1445 -0.1649  0.0840
 5035PP      PP15139  14.451   8.339  12.281  0.1350 -0.0351 -0.0969
 5036PP      PP15140   0.269  10.356   4.113 -0.2925  0.0958  0.1806
 5037PP      PP15141   1.944   5.695   1.975 -0.0307  0.4638  0.0052
 5038PP      PP15142   5.444   1.516   9.819  0.2873  0.0906 -0.0305
 5039PP      PP15143   9.844  14.171   9.108  0.1257 -0.1117 -0.1131
 5040PP      PP15144  14.620   4.108  11.647  0.2069 -0.1325 -0.1510
 5041PP      PP15145   8.647  12.560   2.246 -0.0396  0.0443 -0.1089
 5042PP      PP15146  11.524  11.310   0.061  0.0474  0.0285 -0.0784
 5043PP      PP15147  15.518   2.144  12.398 -0.1110  0.0628  0.2913
 5044PP      PP15148   2.709   8.074   5.194 -0.0819  0.0416 -0.2774
 5045PP      PP15149   2.595  10.624  10.842  0.1401 -0.3789 -0.0973
 5046PP      PP15150  11.276   7.620  11.170 -0.0166 -0.1002  0.0441
 5047PP      PP15151   2.877   1.642   0.922  0.3775 -0.3081 -0.0117
 5048PP      PP15152   8.132   1.855   2.105  0.0534 -0.1456 -0.0572
 5049PP      PP15153  15.342   0.642   3.505 -0.2607  0.0893  0.2099
 5050PP      PP15154  12.523   0.600   0.717 -0.0665  0.0583 -0.1801
 5051PP      PP15155  11.427  12.623   3.460 -0.3210 -0.1960  0.0529
 5052PP      PP15156  13.238   5.694   8.902 -0.1059 -0.4112 -0.1173
 5053PP      PP15157   6.709   5.280   9.715 -0.2153 -0.0757 -0.1300
 5054PP      PP15158  11.839  12.286   0.141  0.2028  0.1344 -0.1241
 5055PP      PP15159  12.208   9.795   2.539  0.0241 -0.2576  0.0538
 5056PP      PP15160   9.918   5.908  11.593 -0.0912  0.0232 -0.0122
 5057PP      PP15161  13.560  15.197   9.372 -0.1452 -0.2198 -0.1573
 5058PP      PP15162   9.394   7.370  13.187 -0.0854  0.0291  0.1806
 5059PP      PP15163   7.928  14.402   1.703 -0.1278 -0.1521  0.0448
 5060PP      PP15164   9.301   7.979   2.736 -0.0767 -0.2440  0.1740
 5061PP      PP15165   8.629   6.279   2.533 -0.3356 -0.1676 -0.0847
 5062PP      PP15166   8.478   7.825   2.660  0.2543  0.1163  0.1413
 5063PP      PP15167  15.014  13.435   2.985  0.1860  0.0884 -0.2902
 5064PP      PP15168  14.213   8.417   2.578 -0.0666  0.1075  0.1392
 5065PP      PP15169  12.818   3.010   4.092 -0.0733 -0.1158  0.1792
 5066PP      PP15170   8.641   1.865   4.839 -0.1874 -0.1977  0.1711
 5067PP      PP15171   0.749  13.461   3.034  0.2354 -0.0298 -0.0732
 5068PP      PP15172  11.061   1.380   4.000 -0.0162  0.1501 -0.0719
 5069PP      PP15173   5.496   6.494   2.193  0.3207  0.2847 -0.1137
 5070PP      PP15174   5.703  10.244   3.115  0.1661 -0.1030  0.0579
 5071PP      PP15175   7.476   0.077   0.553  0.2011 -0.1467 -0.0684
 5072PP      PP15176  10.129  12.294   9.164  0.3604  0.2040 -0.1144
 5073PP      PP15177  10.793   7.259  10.487  0.0176 -0.3101 -0.0363
 5074PP      PP15178   4.406  13.312   1.852 -0.0510  0.3737 -0.2169
 5075PP      PP15179  11.590  15.629  10.867 -0.0391  0.1543 -0.0873
 5076PP      PP15180   7.428   9.302  12.511 -0.1135  0.1935  0.0882
 5077PP      PP15181  11.409   4.236   2.372 -0.0529  0.2842  0.0718
 5078PP      PP15182  10.558  15.725   8.516 -0.3619 -0.5020  0.1003
 5079PP      PP15183   7.625   0.880   3.103 -0.1519  0.1102  0.0673
 5080PP      PP15184   2.347   1.072  13.146 -0.1292  0.2014  0.1263
 5081PP      PP15185  15.123   6.144  11.229 -0.1431  0.4072 -0.5502
 5082PP      PP15186  11.642   5.704   0.432  0.2105  0.2971 -0.1394
 5083PP      PP15187   4.863   8.478   9.715 -0.1356 -0.0007 -0.1631
 5084PP      PP15188   3.275  12.126  12.251 -0.0520 -0.2607 -0.4001
 5085PP      PP15189  15.697   4.779   5.033 -0.2289 -0.1976  0.0621
 5086PP      PP15190   5.094   6.479   0.265  0.0192  0.1976 -0.1147
 5087PP      PP15191   6.224  11.795   3.902 -0.0427 -0.1884 -0.0373
 5088PP      PP15192  13.397  15.596   3.049  0.1018  0.2834  0.1081
 5089PP      PP15193   3.503   6.325   3.717  0.1479 -0.1378  0.0507
 5090PP      PP15194   7.685   7.758   5.241  0.1603  0.1790  0.0872
 5091PP      PP15195   0.341   8.505   3.900  0.1290 -0.0112 -0.0172
 5092PP      PP15196  12.987   7.218  10.073  0.1217  0.1411  0.0223
 5093PP      PP15197   8.648  15.029   0.739 -0.2402 -0.0405 -0.0894
 5094PP      PP15198   5.277  14.550   2.925 -0.0413  0.1686 -0.0665
 5095PP      PP15199  15.358   4.532   1.234  0.0726  0.1096 -0.0392
 5096PP      PP15200  15.378   8.765   4.507  0.1199  0.1759  0.4021
 5097PP      PP15201   0.967   9.060   0.824 -0.2926  0.0336  0.3426
 5098PP      PP15202   9.866   1.476   0.686 -0.0880 -0.0658  0.0654
 5099PP      PP15203   0.175   2.411   2.496 -0.1118  0.3111  0.2051
 5100PP      PP15204   8.695   1.994   3.885 -0.1674  0.0529 -0.2848
 5101PP      PP15205  10.964   3.317   9.560  0.1644 -0.0654  0.0928
 5102PP      PP15206  13.142  15.499   9.493 -0.0748  0.2420 -0.2414
 5103PP      PP15207  13.754   9.791  10.057  0.0186  0.2591  0.0827
 5104PP      PP15208   0.884   5.582  10.952 -0.3381 -0.0392  0.0080
 5105PP      PP15209   5.243   2.461  12.702  0.3395  0.1574 -0.1103
 5106PP      PP15210   2.098  13.336  13.358  0.3354  0.2093  0.5309
 5107PP      PP15211  15.880  14.608  10.843  0.2016 -0.2289 -0.0169
 5108PP      PP15212   8.771   7.029  10.722 -0.2229 -0.1126  0.3038
 5109PP      PP15213  14.552  12.976   3.293  0.2704  0.4551 -0.4106
 5110PP      PP15214  14.909   6.487   3.157 -0.0468 -0.0666  0.1852
 5111PP      PP15215   1.380   4.590   3.918  0.2620  0.2630 -0.1984
 5112PP      PP15216  14.830   7.729   9.807 -0.2382  0.1152  0.2997
 5113PP      PP15217   4.972   2.202  13.372 -0.2928  0.0229  0.0209
 5114PP      PP15218   2.681   7.340  11.423 -0.3775  0.1800 -0.1021
 5115PP      PP15219   1.436  15.280   3.520  0.0246  0.2098 -0.0993
 5116PP      PP15220  12.510  13.046  12.676 -0.0614 -0.2380  0.1207
 5117PP      PP15221   8.356  13.361   2.717  0.0440 -0.2452  0.3038
 5118PP      PP15222   2.934  10.238   0.561  0.0231 -0.1305  0.1565
 5119PP      PP15223   2.673  12.055   4.812  0.2000  0.3643 -0.0188
 5120PP      PP15224  11.686  15.300   9.315 -0.2616  0.0011 -0.4149
 5121PP      PP15225   4.094   3.545  12.613  0.0619  0.1869 -0.5222
 5122PP      PP15226  13.570  13.942  11.386 -0.1337  0.0989 -0.0412
 5123PP      PP15227   3.520  13.131   0.451 -0.1669 -0.1960  0.0620
 5124PP      PP15228   5.286   2.436   1.765 -0.1234 -0.0541  0.0201
 5125PP      PP15229   7.585   4.983   9.423  0.0270  0.1803  0.3212
 5126PP      PP15230  13.343   5.364   2.207  0.3229  0.2368 -0.1232
 5127PP      PP15231   7.880   8.114   1.906  0.2095 -0.0295  0.2291
 5128PP      PP15232   1.630   2.872   8.379 -0.1112  0.0394 -0.0569
 5129PP      PP15233   2.878   5.625   0.995 -0.2412  0.1334 -0.1400
 5130PP      PP15234  12.484  15.336   2.450  0.1060  0.1341 -0.0368
 5131PP      PP15235  14.971  12.029  12.512 -0.2119 -0.0207  0.0350
 5132PP      PP15236   6.096   4.097   1.770  0.1328 -0.5847  0.1786
 5133PP      PP15237  13.894   8.440  12.515 -0.0410  0.1477  0.1429
 5134PP      PP15238   8.448   0.031   8.524 -0.5377 -0.0674 -0.2949
 5135PP      PP15239   0.397   2.790   1.684 -0.0128 -0.1177 -0.1903
 5136PP      PP15240  12.512   7.056   4.698  0.1240 -0.2946  0.0033
 5137PP      PP15241   7.111   1.130  11.636 -0.0248  0.1824 -0.0975
 5138PP      PP15242   6.917   7.631   2.079 -0.0550 -0.1418 -0.2114
 5139PP      PP15243  15.194  12.717  10.948  0.1270 -0.2846 -0.4235
 5140PP      PP15244   9.083   0.267  11.557  0.0285 -0.3724  0.0803
 5141PP      PP15245   7.742   5.150   0.375  0.4549 -0.0999  0.1326
 5142PP      PP15246   0.765   3.579  11.642  0.2711 -0.0843  0.3154
 5143PP      PP15247   2.753  15.222  13.457  0.2365  0.0093  0.0447
 5144PP      PP15248   6.122   0.495   9.561 -0.1193  0.0708  0.0026
 5145PP      PP15249  14.038   9.396   2.509  0.0706  0.1304 -0.1533
 5146PP      PP15250  13.769  12.500  11.388  0.3022 -0.1762  0.2910
 5147PP      PP15251  14.582   8.133   4.029  0.0157 -0.3130 -0.2552
 5148PP      PP15252   9.643  12.980   2.427 -0.1867  0.1090  0.0448
 5149PP      PP15253   6.855  13.130   2.156 -0.0326 -0.0241  0.1677
 5150PP      PP15254   8.248   1.270   4.171 -0.1428  0.1621  0.0704
 5151PP      PP15255  11.336   3.026  10.069  0.2612 -0.1225  0.3309
 5152PP      PP15256   8.312  11.367   5.017  0.2804  0.0981  0.0756
 5153PP      PP15257   8.808   5.675  11.184  0.1199  0.2662 -0.1293
 5154PP      PP15258   7.588   7.154   4.664  0.0068  0.1444  0.2661
 5155PP      PP15259   1.311   1.481   3.156  0.0151 -0.0895 -0.0206
 5156PP      PP15260   5.227  13.347  10.692  0.1523  0.0870 -0.1127
 5157PP      PP15261   2.663   3.746  11.863 -0.0311  0.0195  0.0399
 5158PP      PP15262   5.740   7.525   9.791 -0.0168  0.0971 -0.0429
 5159PP      PP15263   9.933  14.993   3.856  0.1290 -0.0973 -0.3704
 5160PP      PP15264   2.108   6.671   3.761  0.0335  0.2020  0.1816
 5161PP      PP15265   5.238   0.321   3.618  0.1469  0.3073  0.0801
 5162PP      PP15266   0.145   5.672  13.064 -0.1380 -0.3613 -0.2842
 5163PP      PP15267   1.010   7.760  12.454 -0.1546  0.0671  0.1664
 5164PP      PP15268  10.762   6.567  10.374  0.1359 -0.0055  0.0359
 5165PP      PP15269   7.340  15.732  11.633 -0.0505 -0.0191  0.1262
 5166PP      PP15270   7.537   0.569   9.511  0.1682  0.1114 -0.2928
 5167PP      PP15271  12.058   8.652  10.189  0.1666  0.4427  0.0254
 5168PP      PP15272  12.618  15.829  10.211 -0.0558 -0.3154 -0.0995
 5169PP      PP15273   0.472  14.451   1.631 -0.0669 -0.0279 -0.0709
 5170PP      PP15274   4.896   9.870  12.868  0.2175  0.2179 -0.1385
 5171PP      PP15275   7.354   0.763   4.131 -0.2480  0.0546 -0.1605
 5172PP      PP15276  10.711  10.403   3.637  0.4665 -0.0828 -0.0545
 5173PP      PP15277   8.393   7.608   3.072  0.0741  0.1546 -0.0058
 5174PP      PP15278   4.724   8.055   9.514 -0.1597  0.0533  0.0649
 5175PP      PP15279   6.033  15.207   4.140 -0.2832  0.2825  0.0848
 5176PP      PP15280  13.006  12.977   9.834 -0.2707 -0.0983  0.0435
 5177PP      PP15281  11.229   8.308  12.431  0.1604  0.2269 -0.2798
 5178PP      PP15282   0.073  13.094   8.646  0.1764 -0.1620  0.1079
 5179PP      PP15283   3.197   0.414  13.342  0.1166  0.0098 -0.3902
 5180PP      PP15284   5.934   1.925   9.431  0.1161  0.2210 -0.0474
 5181PP      PP15285   6.852  10.668   2.557 -0.0772  0.1154  0.0652
 5182PP      PP15286  12.231   3.174  11.212  0.1186  0.1775  0.0740
 5183PP      PP15287   1.431  13.496   1.582  0.2342  0.3343  0.1002
 5184PP      PP15288   2.422   3.634  12.455 -0.0285  0.1042 -0.0139
 5185PP      PP15289   6.488  12.287  11.194 -0.1117 -0.2647  0.1850
 5186PP      PP15290   7.917  11.423   5.500 -0.2745  0.0339  0.0730
 5187PP      PP15291  10.237   0.861  11.026 -0.1250 -0.3435  0.1287
 5188PP      PP15292  15.082   5.400  10.588  0.1522  0.2774  0.1166
 5189PP      PP15293  14.542   3.418   2.143  0.1297 -0.0675 -0.0177
 5190PP      PP15294   2.333  13.039  12.954 -0.1063  0.0068 -0.2581
 5191PP      PP15295  15.147   2.787   8.421 -0.0165 -0.1701 -0.1099
 5192PP      PP15296   0.007  15.777   9.024 -0.0649 -0.1532 -0.1665
 5193PP      PP15297   2.064   9.932   3.622 -0.0299 -0.3607  0.1589
 5194PP      PP15298  12.677   9.732   3.265 -0.4168  0.1458 -0.0620
 5195PP      PP15299   6.481   0.883   3.868  0.1815  0.1212  0.1221
 5196PP      PP15300   6.523   4.387  10.504  0.1548  0.2122  0.3820
 5197PP      PP15301  12.380   0.907   2.472  0.0781  0.0975  0.3332
 5198PP      PP15302  15.503  12.946  11.319 -0.1516 -0.4320  0.1350
 5199PP      PP15303   9.762  11.525   9.229 -0.2223  0.0068 -0.2011
 5200PP      PP15304   3.595  13.564   1.172 -0.3073  0.2788 -0.0526
 5201PP      PP15305  10.296   7.159   1.556  0.1174  0.0780 -0.0398
 5202PP      PP15306   7.767   9.219  13.023 -0.1983  0.1279  0.0119
 5203PP      PP15307   1.363   7.496  11.498 -0.0712  0.2111 -0.0957
 5204PP      PP15308   7.561  10.987  13.044  0.0759 -0.2934  0.0948
 5205PP      PP15309  11.838   9.296   2.265 -0.0540 -0.5671  0.1357
 5206PP      PP15310   0.080   7.959   1.607 -0.1610  0.1748  0.0627
 5207PP      PP15311   6.111   0.468  13.031  0.1241 -0.2184  0.1796
 5208PP      PP15312  14.326   2.458   3.009 -0.1455  0.0098  0.2920
 5209PP      PP15313  13.186   5.794   3.120  0.1470 -0.0958  0.0154
 5210PP      PP15314   6.288  11.441   1.834  0.3653  0.1892 -0.0610
 5211PP      PP15315  11.682   4.062   0.596  0.1666 -0.3241 -0.0453
 5212PP      PP15316   5.238  10.001   2.652 -0.0764  0.1376 -0.2063
 5213PP      PP15317   6.046   7.204  11.541  0.1304 -0.1689 -0.2556
 5214PP      PP15318  10.576   2.188   1.794 -0.0040  0.0847 -0.0096
 5215PP      PP15319   7.479   8.605   3.253  0.1734 -0.1076 -0.0089
 5216PP      PP15320  11.664   8.545  10.460 -0.0628  0.2139  0.2954
 5217PP      PP15321  12.972   0.945  11.677  0.2401  0.1164 -0.0481
 5218PP      PP15322  14.511   7.140  10.212  0.1072 -0.0912 -0.1991
 5219PP      PP15323   3.076   0.849   1.217  0.0585 -0.1181  0.0512
 5220PP      PP15324  12.378  11.560  10.990 -0.0507  0.1930  0.1350
 5221PP      PP15325   2.461  15.632   2.288 -0.0193 -0.1948 -0.5533
 5222PP      PP15326  12.258  12.063   2.292 -0.4354  0.0512  0.1828
 5223PP      PP15327  10.310   0.049  10.456  0.0885 -0.0583  0.3038
 5224PP      PP15328   7.397   4.987   4.041 -0.0281  0.1725  0.2122
 5225PP      PP15329   3.822   1.115   9.518 -0.1706 -0.3791  0.1295
 5226PP      PP15330   1.150  15.361  10.760 -0.0906  0.0384 -0.0978
 5227PP      PP15331   2.145   4.840   2.977  0.1319  0.0233 -0.1121
 5228PP      PP15332   6.624   2.724   9.435 -0.2634  0.0143  0.2062
 5229PP      PP15333  12.506  13.907   9.652 -0.1833  0.0466 -0.0653
 5230PP      PP15334  15.377  15.143  13.025  0.5508  0.0056  0.3499
 5231PP      PP15335  11.751  11.622  10.776  0.0466  0.0689  0.1472
 5232PP      PP15336   2.244   6.896   9.846  0.0771  0.2457 -0.0129
 5233PP      PP15337  14.974  13.554   9.660 -0.0128  0.1501  0.0240
 5234PP      PP15338   3.368   5.259  11.799 -0.1024  0.0395 -0.2522
 5235PP      PP15339  10.748   2.308  10.585  0.0294 -0.0076 -0.1278
 5236PP      PP15340  11.845  13.175   9.994  0.1918  0.0876  0.2087
 5237PP      PP15341   0.412  11.827   0.601 -0.1707  0.0594  0.0747
 5238PP      PP15342  13.806   0.779  11.010 -0.1265 -0.0758  0.1070
 5239PP      PP15343  15.616   6.962  11.647 -0.1048 -0.1106 -0.0288
 5240PP      PP15344  10.444  10.746   2.229  0.2637  0.0542  0.3598
 5241PP      PP15345   1.380   7.455   4.656 -0.0825  0.0085  0.2563
 5242PP      PP15346   6.257  12.335   0.729  0.0872  0.1903  0.1151
 5243PP      PP15347  12.584   3.482   8.600 -0.1807 -0.0650  0.0500
 5244PP      PP15348   5.559  13.145   1.270  0.3455 -0.0586 -0.0302
 5245PP      PP15349   8.740  12.032   2.146  0.0100  0.1264 -0.0383
 5246PP      PP15350   3.340   4.319  11.621  0.0004  0.0672  0.1825
 5247PP      PP15351   9.261  15.235  11.408 -0.1403  0.1658 -0.1588
 5248PP      PP15352   0.773   0.562   9.572 -0.0512  0.0405 -0.2142
 5249PP      PP15353   4.087   2.671   0.559 -0.0938  0.1995  0.1275
 5250PP      PP15354   9.523  11.324  10.972  0.2348 -0.0553  0.1829
 5251PP      PP15355   5.605  11.036   9.265  0.2054 -0.1821 -0.0183
 5252PP      PP15356   9.548   5.176   4.108 -0.2858  0.1315 -0.3062
 5253PP      PP15357  15.375  12.404   8.868 -0.1057  0.1200  0.1502
 5254PP      PP15358   1.925   1.071  11.738 -0.3642  0.1304  0.0227
 5255PP      PP15359  13.721   5.342   2.592 -0.5309 -0.2299 -0.0887
 5256PP      PP15360   0.949   1.457   1.099 -0.1784  0.0533  0.0409
 5257PP      PP15361   0.758  12.701   0.225 -0.1517 -0.1355 -0.0585
 5258PP      PP15362   1.207   6.385   0.543 -0.1440 -0.3166  0.1182
 5259PP      PP15363   4.135   5.822   4.319 -0.0443  0.2228  0.3409
 5260PP      PP15364   0.154   3.481   2.305 -0.1645  0.1484  0.3482
 5261PP      PP15365   9.639   4.475   2.449  0.0840 -0.1199  0.1854
 5262PP      PP15366   7.203   8.695  10.717 -0.0243  0.4372  0.0266
 5263PP      PP15367   8.252   6.619  11.588  0.1175 -0.1143 -0.0079
 5264PP      PP15368   8.568  12.013   0.841  0.0881  0.0986 -0.2076
 5265PP      PP15369   4.360  12.665  11.799 -0.2669  0.2059 -0.1617
 5266PP      PP15370  13.252   1.443   9.560 -0.0666  0.2532 -0.0722
 5267PP      PP15371  15.783   0.061   0.889 -0.3273 -0.4625  0.2288
 5268PP      PP15372  12.132  15.046   1.624  0.2554  0.0086 -0.2178
 5269PP      PP15373   0.726  13.303   3.848 -0.2865  0.2210  0.0509
 5270PP      PP15374   7.505   0.764   2.490 -0.2189 -0.1759  0.0288
 5271PP      PP15375   8.026  13.977  11.486 -0.2573  0.2505 -0.1919
 5272PP      PP15376  15.663  12.462   9.469  0.1651 -0.2435 -0.2146
 5273PP      PP15377  15.218   8.248  12.467 -0.1521  0.0503  0.0661
 5274PP      PP15378   3.212   1.556   9.855  0.1609  0.1565 -0.0808
 5275PP      PP15379   6.509   8.631   4.380 -0.5348  0.3526 -0.2523
 5276PP      PP15380  10.220  10.418  12.253 -0.3534  0.0429 -0.0441
 5277PP      PP15381  14.237   6.026   0.437 -0.0772 -0.1000 -0.0811
 5278PP      PP15382  10.231  15.394  11.637  0.0886  0.0650 -0.1266
 5279PP      PP15383  10.516   7.284   2.636 -0.3269  0.1509  0.0861
 5280PP      PP15384  13.089   0.788   9.618 -0.0985 -0.0529 -0.1180
 5281PP      PP15385   6.037  14.535  11.495  0.1089 -0.2472  0.1456
 5282PP      PP15386   1.466  13.238  10.547  0.0047 -0.2453 -0.1657
 5283PP      PP15387   5.197  14.524   0.914 -0.1443 -0.0102 -0.0746
 5284PP      PP15388   6.014  11.755  10.242 -0.2025 -0.1496 -0.1916
 5285PP      PP15389   6.061  14.635   2.190  0.0231  0.1669 -0.0068
 5286PP      PP15390   1.228   2.476  13.069  0.2191  0.1271 -0.1708
 5287PP      PP15391   6.091   7.535  10.740  0.0422 -0.1069  0.0993
 5288PP      PP15392  14.493   0.144   0.957 -0.1807  0.2528 -0.2640
 5289PP      PP15393  12.624  12.159  12.814 -0.0902  0.0345  0.1650
 5290PP      PP15394   3.946   9.165  10.619  0.0072  0.4906 -0.0538
 5291PP      PP15395   8.629  10.506   2.426  0.3518 -0.0301  0.2550
 5292PP      PP15396  15.141   5.236   2.891 -0.0823 -0.1358  0.1960
 5293PP      PP15397   0.674   0.787   1.873  0.2106  0.0939  0.4294
 5294PP      PP15398  15.092  13.118   9.933 -0.0650  0.1543 -0.1721
 5295PP      PP15399   0.570   9.697   1.624  0.4172 -0.1418 -0.0191
 5296PP      PP15400   4.633  15.638  11.280 -0.0933  0.1092  0.3046
 5297PP      PP15401   8.069   0.749   2.882  0.3475  0.1660 -0.1984
 5298PP      PP15402   6.613   9.616   0.442 -0.1660 -0.2725  0.1416
 5299PP      PP15403   4.552   2.897   9.051 -0.3293  0.0057 -0.0436
 5300PP      PP15404   6.760  14.170   2.708  0.0897  0.1363 -0.0218
 5301PP      PP15405  10.033   9.088   1.320  0.2008  0.0004 -0.0558
 5302PP      PP15406  15.574   7.385   9.177 -0.0875 -0.0795  0.1297
 5303PP      PP15407   0.542  12.902   8.449 -0.2802  0.0094 -0.1833
 5304PP      PP15408   5.796  14.989   3.722 -0.2809 -0.1517  0.2067
 5305PP      PP15409   1.267  13.549   3.019  0.1328  0.2126  0.1849
 5306PP      PP15410   3.594  12.626   8.855  0.1257  0.0421  0.0283
 5307PP      PP15411   4.298   1.768   0.871 -0.0228 -0.0479  0.0485
 5308PP      PP15412   9.368   0.732  11.607 -0.1215  0.1143  0.0957
 5309PP      PP15413  10.859  13.286   8.857 -0.1241  0.2122  0.1052
 5310PP      PP15414   4.504   9.847   0.511  0.2442  0.1858  0.0902
 5311PP      PP15415   5.801  11.212   2.978 -0.1868  0.3136  0.1224
 5312PP      PP15416  11.138  11.439   4.148  0.0073 -0.2382  0.0134
 5313PP      PP15417   7.227   6.855   7.099  0.0896  0.2644  0.1756
 5314PP      PP15418   9.804  14.344   9.586 -0.4625  0.1132 -0.2329
 5315PP      PP15419   1.755   3.433   9.637 -0.0795  0.1912 -0.4512
 5316PP      PP15420   0.795   0.570   3.523 -0.0814  0.0965 -0.0816
 5317PP      PP15421  11.443   3.023  11.915  0.1142 -0.2640 -0.3685
 5318PP      PP15422  12.461   9.465   5.070  0.0958  0.1337  0.0200
 5319PP      PP15423   4.283   0.792   9.230  0.1443 -0.2117 -0.0135
 5320PP      PP15424   4.527   5.948   4.641 -0.1553 -0.0216  0.1512
 5321PP      PP15425  12.113   6.134  11.724  0.0282  0.0430 -0.0577
 5322PP      PP15426   7.394   0.510   3.341 -0.0477  0.4207  0.0581
 5323PP      PP15427  12.133   1.402   8.921  0.3905  0.0214 -0.0279
 5324PP      PP15428  12.921   4.435   3.426 -0.0385 -0.3630 -0.0543
 5325PP      PP15429   6.235   8.807  13.338 -0.3669  0.0807  0.0985
 5326PP      PP15430   5.524   7.812   0.255  0.0890  0.1055  0.3687
 5327PP      PP15431  13.527   9.410   0.629 -0.0514  0.1166  0.1696
 5328PP      PP15432   6.701   4.939   0.567 -0.2639  0.1540 -0.0421
 5329PP      PP15433   0.952   3.812  10.042 -0.1134  0.0253 -0.3712
 5330PP      PP15434   1.568  14.428   9.306  0.1790 -0.3175 -0.1682
 5331PP      PP15435   4.031   5.477   1.212  0.1024 -0.1851 -0.1433
 5332PP      PP15436  10.289   0.389  11.856  0.1279 -0.2509  0.2992
 5333PP      PP15437  10.137   9.652  10.310 -0.3115 -0.0969 -0.1777
 5334PP      PP15438   6.467   1.246   2.310 -0.0381  0.2746 -0.1943
 5335PP      PP15439   7.043  12.309   0.197  0.1143 -0.0065 -0.2022
 5336PP      PP15440   8.860   4.825  11.741  0.0119 -0.1026 -0.0508
 5337PP      PP15441  12.868   1.317   8.329 -0.0024 -0.0409 -0.0675
 5338PP      PP15442  13.539   7.842   1.062 -0.1246  0.3390 -0.3798
 5339PP      PP15443   1.409  12.834   2.417  0.0965 -0.0510 -0.2596
 5340PP      PP15444   0.740  14.099   1.270  0.0120  0.2278  0.0228
 5341PP      PP15445   2.016  12.663   9.813  0.0383 -0.0556  0.0819
 5342PP      PP15446   7.691   4.927  11.795  0.0218  0.0646 -0.1802
 5343PP      PP15447   3.941   9.360   1.801 -0.1001  0.0571 -0.0312
 5344PP      PP15448   7.881  14.250  13.270 -0.0943 -0.0324  0.1338
 5345PP      PP15449   7.331   3.010   9.874  0.1005 -0.1304  0.0187
 5346PP      PP15450   8.014  12.371   0.985 -0.0609 -0.0513 -0.0480
 5347PP      PP15451   3.560   8.704   0.341  0.0297 -0.1092  0.1979
 5348PP      PP15452   7.683  14.312  12.722 -0.0414  0.2130  0.1063
 5349PP      PP15453   6.400   7.795   2.151 -0.2019  0.1186  0.2991
 5350PP      PP15454  15.530  11.666   3.031  0.0160 -0.0602  0.1156
 5351PP      PP15455  10.249   2.961  11.003  0.2465 -0.2823 -0.0710
 5352PP      PP15456   4.504   7.177   2.073 -0.0185 -0.3831  0.1507
 5353PP      PP15457   9.767  15.368  11.597  0.1587 -0.5242  0.0974
 5354PP      PP15458  11.099  13.452   0.961 -0.0150  0.0606  0.0017
 5355PP      PP15459   6.025  13.691   4.645 -0.0934  0.2361 -0.0670
 5356PP      PP15460  12.374   0.994   9.151 -0.2037  0.1863 -0.1265
 5357PP      PP15461  12.340   4.908   2.849 -0.0730 -0.2026 -0.0959
 5358PP      PP15462  12.861   0.087  13.178  0.2295 -0.2442 -0.2019
 5359PP      PP15463   6.689   6.849   3.783 -0.1393  0.4527  0.1604
 5360PP      PP15464  15.064   6.392  10.402  0.0944 -0.0053 -0.1231
 5361PP      PP15465  10.229   6.020   4.202 -0.0078 -0.2144  0.1992
 5362PP      PP15466   8.010  13.071  12.995 -0.0479  0.1164 -0.1846
 5363PP      PP15467   6.552   9.396   2.222 -0.0520  0.1667  0.0575
 5364PP      PP15468   1.887   2.810   0.569  0.4594  0.0199 -0.0078
 5365PP      PP15469   1.916   3.483  12.405  0.1426 -0.3048  0.1388
 5366PP      PP15470  15.804   9.637  11.424 -0.0725  0.1691 -0.0455
 5367PP      PP15471   2.069   5.614  11.522 -0.1106  0.0580 -0.0888
 5368PP      PP15472   1.339  15.837  12.252 -0.0852  0.1292 -0.1339
 5369PP      PP15473   3.664  12.012   4.561  0.2181  0.1451 -0.0999
 5370PP      PP15474   6.228   5.688   3.273  0.0123 -0.0674  0.0992
 5371PP      PP15475  11.298  14.370   3.103  0.5111 -0.2292  0.1037
 5372PP      PP15476   7.939  13.597   3.693 -0.3714 -0.1912  0.0157
 5373PP      PP15477   8.743   6.814   3.308 -0.1168 -0.1281 -0.2297
 5374PP      PP15478  12.683  11.552   9.197 -0.2879  0.0297  0.2379
 5375PP      PP15479   6.148   8.360   9.467 -0.1828 -0.0503 -0.2342
 5376PP      PP15480   2.180  15.309  10.758  0.1950 -0.1502 -0.2097
 5377PP      PP15481   8.560   2.573  10.664 -0.2109 -0.1500 -0.4085
 5378PP      PP15482   5.095  14.851  11.267 -0.0188  0.1977  0.0130
 5379PP      PP15483   2.492   9.729  12.847 -0.1536 -0.0248 -0.0974
 5380PP      PP15484   8.772   8.178   3.430  0.2028 -0.0566  0.1282
 5381PP      PP15485   8.548   6.837  13.398  0.1052 -0.2600  0.1015
 5382PP      PP15486  13.854  13.399   3.726 -0.0877  0.6973  0.0542
 5383PP      PP15487   9.221  10.174   9.418  0.1549 -0.0368  0.1214
 5384PP      PP15488   1.921   2.840  11.032 -0.1833 -0.3433  0.1722
 5385PP      PP15489   2.712   0.404   1.813 -0.1852  0.0361 -0.1928
 5386PP      PP15490  14.997   3.648  11.657 -0.1208 -0.0910 -0.0653
 5387PP      PP15491  12.654  12.705   9.502 -0.0542 -0.0784 -0.5944
 5388PP      PP15492   7.608   4.385   9.288 -0.3491 -0.1918 -0.2583
 5389PP      PP15493  10.250   3.923   4.082  0.2408 -0.1215  0.1066
 5390PP      PP15494  10.673   8.329   9.560 -0.0878 -0.0822 -0.2996
 5391PP      PP15495   6.596   2.717   2.100  0.0306  0.1539 -0.3044
 5392PP      PP15496  14.485   2.479   1.261 -0.4587  0.0754  0.1410
 5393PP      PP15497   3.065   5.159   0.820  0.1181 -0.1807 -0.0720
 5394PP      PP15498  14.393   8.842   8.804 -0.0432  0.0292  0.3479
 5395PP      PP15499  14.322   0.876  10.348  0.0754 -0.0238  0.0915
 5396PP      PP15500  15.307   0.926  13.246 -0.2565  0.0417  0.1834
 5397PP      PP15501   4.146   0.133  11.691 -0.5992 -0.2040  0.1621
 5398PP      PP15502  13.204   5.269  12.109  0.0016 -0.4551  0.4377
 5399PP      PP15503  14.922  12.032  11.994  0.2174  0.0597  0.2269
 5400PP      PP15504   5.306  12.267   0.986 -0.1317 -0.1079 -0.4399
 5401PP      PP15505  11.975  15.748   0.285 -0.1186 -0.0480 -0.1770
 5402PP      PP15506  10.278   8.581  11.321 -0.5775  0.0040 -0.0689
 5403PP      PP15507   7.931  15.779   0.799  0.3732  0.0349  0.3742
 5404PP      PP15508  11.911   2.285   9.159  0.0677 -0.0322  0.0687
 5405PP      PP15509   7.096  10.929  12.815 -0.0174  0.1342 -0.0629
 5406PP      PP15510   1.387  15.864   8.584 -0.0489 -0.1886 -0.0712
 5407PP      PP15511   4.352  12.805   4.609  0.0001  0.3157 -0.1119
 5408PP      PP15512   5.794  11.864   3.701 -0.1094 -0.0763 -0.2139
 5409PP      PP15513   4.219   9.953  12.230  0.2170  0.1270  0.0347
 5410PP      PP15514   3.687   2.204   9.016 -0.3681  0.2015  0.1880
 5411PP      PP15515   8.128  14.501  12.942  0.0920  0.1285 -0.1587
 5412PP      PP15516  15.282   7.592  10.184  0.1015  0.0837  0.1316
 5413PP      PP15517   9.706  13.783   3.198 -0.0561 -0.2561  0.0677
 5414PP      PP15518   4.805   2.369   2.002 -0.0033  0.0947  0.1196
 5415PP      PP15519   5.058   1.273  11.352  0.0553  0.0676 -0.1871
 5416PP      PP15520   9.222   0.070  12.708 -0.1448 -0.1311 -0.1518
 5417PP      PP15521  12.807   0.400   9.847  0.0786 -0.0578 -0.1443
 5418PP      PP15522   6.839   5.192   3.162  0.0788  0.0440 -0.3012
 5419PP      PP15523   1.199   9.513  10.718  0.0457  0.1981 -0.2934
 5420PP      PP15524   2.746  12.787  12.613 -0.0738  0.0023 -0.0337
 5421PP      PP15525   3.547  14.539   3.583 -0.0404  0.2689  0.0728
 5422PP      PP15526   0.336   3.216   0.899 -0.1041 -0.0187  0.2760
 5423PP      PP15527   8.455  14.197  10.305  0.0277 -0.0545 -0.4253
 5424PP      PP15528   7.078  10.371   0.139 -0.2949 -0.0320  0.1141
 5425PP      PP15529  10.829   2.212  12.154  0.0015  0.2343  0.0312
 5426PP      PP15530  15.108   9.361   2.371  0.0455 -0.0728  0.1352
 5427PP      PP15531  13.486  10.641  12.892 -0.0076  0.1950  0.0756
 5428PP      PP15532   1.637   3.412   8.660  0.0492 -0.0865  0.1062
 5429PP      PP15533  13.937   5.097   1.595 -0.0973  0.2314 -0.1536
 5430PP      PP15534   8.986   8.679   4.149  0.1035  0.1186  0.0558
 5431PP      PP15535   7.801   6.507   3.615 -0.2107  0.0273 -0.2309
 5432PP      PP15536   2.934   8.578   2.009 -0.0781 -0.3612  0.1233
 5433PP      PP15537  12.322   7.492   1.057  0.1123  0.0788 -0.2271
 5434PP      PP15538   3.453  12.823   1.897 -0.2849 -0.1355  0.2601
 5435PP      PP15539  15.751   5.803   4.341 -0.1386 -0.1832 -0.3401
 5436PP      PP15540   4.603   0.531  10.778  0.0497  0.1003  0.1487
 5437PP      PP15541   6.528  11.836  10.745 -0.0463  0.0650 -0.0750
 5438PP      PP15542   9.423  12.518   4.283  0.1279 -0.0747 -0.1386
 5439PP      PP15543  11.937   9.986   1.206  0.0881  0.2109  0.0805
 5440PP      PP15544   9.206   1.022   0.345 -0.0972 -0.0639  0.0770
 5441PP      PP15545  14.292  12.888   1.495  0.3245  0.0885  0.0139
 5442PP      PP15546  14.193   8.982   4.048  0.0405 -0.0468  0.2337
 5443PP      PP15547   2.384   7.140   3.714  0.0280  0.0544 -0.0026
 5444PP      PP15548   8.383   8.430   1.691  0.0616 -0.1161  0.1941
 5445PP      PP15549   2.590  15.170  10.467  0.1107  0.2393 -0.1816
 5446PP      PP15550  10.557   1.551  10.530 -0.1566  0.0978 -0.0117
 5447PP      PP15551   6.692   7.752   0.584 -0.3036  0.2637 -0.0568
 5448PP      PP15552  10.716   7.296  12.597  0.1102 -0.1164  0.2163
 5449PP      PP15553   3.089  12.216  11.275  0.0644  0.1326 -0.0796
 5450PP      PP15554   9.139  10.248  13.049  0.3766 -0.1324 -0.1474
 5451PP      PP15555   4.282   8.010   9.179 -0.3537 -0.0518  0.2455
 5452PP      PP15556   8.031  13.456  10.133  0.1980  0.1487  0.1111
 5453PP      PP15557   6.340   8.003  11.555  0.1088  0.2121 -0.1741
 5454PP      PP15558  13.830  14.763  12.056  0.0180 -0.0014 -0.1896
 5455PP      PP15559   3.972   9.014  13.107  0.1140 -0.0383  0.1326
 5456PP      PP15560  13.958   2.445  12.130 -0.2138 -0.0594  0.1978
 5457PP      PP15561  14.695   3.497  12.816 -0.0846  0.1812  0.0925
 5458PP      PP15562   0.459   1.244   2.816  0.4000  0.0541 -0.0757
 5459PP      PP15563   0.855  14.774   1.699 -0.1708  0.3974  0.0225
 5460PP      PP15564   8.478   8.447   2.583 -0.1521 -0.1416  0.0861
 5461PP      PP15565  12.040   3.362   3.853 -0.1156 -0.1614 -0.1593
 5462PP      PP15566  12.201   8.320   2.448  0.1505 -0.2234  0.2417
 5463PP      PP15567   4.947   7.793   9.965  0.2660  0.2536  0.1511
 5464PP      PP15568   8.695   6.693   1.075 -0.1213 -0.0071  0.1919
 5465PP      PP15569  15.779   1.679  13.364 -0.4113 -0.2248 -0.1980
 5466PP      PP15570   7.492  13.550   2.138 -0.0751  0.2791  0.1889
 5467PP      PP15571   4.312   1.854  11.086  0.0248  0.0821 -0.2368
 5468PP      PP15572   9.941  15.223   9.546  0.1706 -0.0143 -0.1599
 5469PP      PP15573  12.421  11.191   2.331  0.0587 -0.0840  0.2653
 5470PP      PP15574   7.248   7.258   4.168 -0.0930  0.1553  0.2060
 5471PP      PP15575   4.917   6.367   3.766  0.0971  0.1950 -0.6202
 5472PP      PP15576   7.740   3.319   4.464  0.1176  0.0371 -0.0720
 5473PP      PP15577  13.876   8.685   9.683  0.0268 -0.3650  0.0859
 5474PP      PP15578   3.047   8.356  11.231 -0.0135  0.0298  0.2222
 5475PP      PP15579   2.355  14.116   0.419  0.2413  0.0366  0.0565
 5476PP      PP15580   8.256   8.054   4.085 -0.0242  0.1949 -0.0970
 5477PP      PP15581   5.692   8.158   1.129  0.0619  0.0040  0.2463
 5478PP      PP15582   9.278   4.287   9.428  0.2656 -0.0258  0.1252
 5479PP      PP15583   3.512   0.970   3.109  0.3012  0.1192  0.1841
 5480PP      PP15584  12.907   2.492   8.843  0.1190  0.1647  0.1111
 5481PP      PP15585  12.980   4.528   4.028 -0.1089  0.0197 -0.1159
 5482PP      PP15586  11.669   1.106   0.994 -0.0218 -0.1052  0.2630
 5483PP      PP15587  14.342   3.533   8.414 -0.0645  0.1308  0.1890
 5484PP      PP15588   5.694   1.108   4.095 -0.0942 -0.2263  0.0983
 5485PP      PP15589  11.281   2.720   8.867  0.1139  0.2495 -0.0631
 5486PP      PP15590   0.651  14.443  10.020  0.1049 -0.2006  0.1442
 5487PP      PP15591   5.882  13.909   0.968 -0.1567 -0.4290 -0.0476
 5488PP      PP15592   7.548   6.934   2.739 -0.0244  0.0537 -0.1765
 5489PP      PP15593  10.514   5.419   1.298  0.0575  0.1420  0.0791
 5490PP      PP15594  10.873   7.597  10.875  0.2353  0.0319  0.2353
 5491PP      PP15595   4.869   6.834  10.929  0.0855  0.1398 -0.0116
 5492PP      PP15596  15.830  10.405  12.584  0.2408 -0.1180 -0.0626
 5493PP      PP15597  13.718  12.377   0.352  0.2124  0.1877 -0.2965
 5494PP      PP15598  12.419   7.926  10.282 -0.2551  0.1128  0.0500
 5495PP      PP15599   5.748   2.046  11.464  0.4020  0.2139  0.0147
 5496PP      PP15600  11.941   5.623   0.837  0.0946 -0.0922 -0.1444
 5497PP      PP15601   7.557   6.647  12.702 -0.1720  0.0432 -0.0285
 5498PP      PP15602   5.120   4.432  11.136 -0.1150 -0.0479  0.1183
 5499PP      PP15603   8.133   0.705  13.177  0.2262 -0.0010  0.1776
 5500PP      PP15604   5.825   3.171  10.626 -0.3063  0.6352 -0.0813
 5501PP      PP15605  10.759   5.471  10.180 -0.1316 -0.0570 -0.0191
 5502PP      PP15606  10.754  10.129   2.727  0.0395 -0.1946 -0.3567
 5503PP      PP15607  15.550  14.206  10.968  0.2273 -0.1371  0.1230
 5504PP      PP15608   7.237  11.125  10.958  0.2302  0.0758 -0.3135
 5505PP      PP15609  15.159  11.794  13.024 -0.1895  0.0385  0.0649
 5506PP      PP15610   2.335   5.876  12.357  0.0339 -0.1588 -0.1103
 5507PP      PP15611   0.121  15.364   8.751  0.3201 -0.0619  0.3118
 5508PP      PP15612  15.013  13.992   9.421 -0.0440 -0.0496 -0.0775
 5509PP      PP15613   0.921   6.663  10.192  0.3477  0.1273  0.0116
 5510PP      PP15614   5.616   6.333  11.560  0.0104 -0.2279  0.0674
 5511PP      PP15615   0.448   6.638   2.613 -0.0210 -0.0267 -0.0951
 5512PP      PP15616   9.826  11.194   4.214  0.0661 -0.1748 -0.0380
 5513PP      PP15617  13.640   7.787   0.226 -0.2069 -0.0677  0.0393
 5514PP      PP15618   0.296   6.170  11.699 -0.2326 -0.1539  0.0442
 5515PP      PP15619   3.961   2.237   0.309  0.1756  0.0851 -0.1555
 5516PP      PP15620   9.529   7.692  11.345  0.0212 -0.0771  0.2379
 5517PP      PP15621   1.252   4.971   4.327 -0.0929  0.0236  0.0176
 5518PP      PP15622   2.094   4.670   1.422 -0.2104  0.0490  0.0526
 5519PP      PP15623   2.483   5.188   9.531  0.2539  0.2224 -0.1331
 5520PP      PP15624   7.351  10.256   1.531  0.0755 -0.0973  0.0878
 5521PP      PP15625  12.069   2.143   2.124 -0.2150  0.0051  0.1242
 5522PP      PP15626   5.552   0.063  11.467  0.0982  0.1915  0.2572
 5523PP      PP15627   7.288   1.656   9.451 -0.2702 -0.0277 -0.2263
 5524PP      PP15628   5.585   4.107  11.781 -0.0260  0.0028  0.0105
 5525PP      PP15629  15.281  13.947  12.145 -0.1798 -0.3195 -0.1972
 5526PP      PP15630  13.529  14.936  12.660 -0.0245  0.1560  0.1116
 5527PP      PP15631   5.810   7.400   4.262 -0.3147 -0.3983 -0.0387
 5528PP      PP15632   1.607   0.950   0.121  0.1323 -0.2036 -0.1757
 5529PP      PP15633   0.909  11.584   2.239  0.0741  0.2293  0.0960
 5530PP      PP15634  11.798  14.730  12.450  0.1007 -0.1161  0.1345
 5531PP      PP15635  13.344   0.696   7.866  0.2533 -0.0883  0.1650
 5532PP      PP15636   3.399   8.512   9.225  0.2235 -0.3230  0.2801
 5533PP      PP15637   8.610   8.252  10.954 -0.1679  0.1616  0.0615
 5534PP      PP15638   7.358   3.919  10.489 -0.1161 -0.1041 -0.6068
 5535PP      PP15639   2.112   8.933  10.997  0.2962 -0.1926  0.1416
 5536PP      PP15640   7.082   9.766   0.115 -0.1678  0.3036  0.4660
 5537PP      PP15641   7.399  10.482   4.369 -0.0262 -0.0122  0.1180
 5538PP      PP15642   5.585   5.521   3.939  0.0034  0.0235  0.3104
 5539PP      PP15643  10.916   6.281  11.512 -0.1813  0.1943 -0.1062
 5540PP      PP15644  10.066   1.672  10.102 -0.3254  0.0347  0.4350
 5541PP      PP15645   9.054  13.923   2.725  0.1095  0.1055  0.3212
 5542PP      PP15646   6.253   0.020   3.589  0.1755 -0.2324 -0.1994
 5543PP      PP15647   0.557  13.094   3.317  0.0966  0.4161  0.1852
 5544PP      PP15648  10.765   5.702   8.278  0.1959 -0.1021  0.1218
 5545PP      PP15649   6.421   0.433   0.150 -0.0415  0.0632 -0.0547
 5546PP      PP15650   3.772   5.366  10.874  0.0490 -0.0430  0.1290
 5547PP      PP15651   0.372  14.300  11.407 -0.1379  0.3468 -0.0797
 5548PP      PP15652   7.053  15.282   2.351 -0.1071  0.0019  0.0650
 5549PP      PP15653  15.526   3.884  13.331 -0.1512 -0.2587  0.3623
 5550PP      PP15654  14.098   9.471   8.995  0.2987 -0.0738 -0.1721
 5551PP      PP15655   0.175   1.203   0.714  0.1828  0.1089 -0.2358
 5552PP      PP15656   6.232   0.723  10.594  0.2711 -0.0111  0.0783
 5553PP      PP15657  13.396   3.941  10.410  0.0481  0.1022  0.1749
 5554PP      PP15658  11.809   9.931  13.228 -0.3048  0.0464 -0.0689
 5555PP      PP15659  14.517  10.763  10.747 -0.1781  0.1454  0.0577
 5556PP      PP15660  11.294  12.569  12.309  0.0043 -0.2464  0.2687
 5557PP      PP15661   5.015   8.558   0.998  0.2392  0.0997  0.0331
 5558PP      PP15662  13.022  14.672  10.478 -0.2719  0.0510  0.0319
 5559PP      PP15663  12.913   3.280  11.747  0.2535 -0.2340  0.0780
 5560PP      PP15664   0.490   4.682   1.991 -0.0293 -0.2039  0.1131
 5561PP      PP15665  14.559   4.115   2.961 -0.1883 -0.4438 -0.5116
 5562PP      PP15666  11.472   9.059   0.758  0.0711 -0.2204 -0.0626
 5563PP      PP15667   9.894   5.912   4.671 -0.3199  0.0374 -0.1261
 5564PP      PP15668   7.575   4.344   2.898  0.5290  0.2325 -0.1811
 5565PP      PP15669   9.143  11.167  11.234  0.1129  0.0806  0.1143
 5566PP      PP15670   6.738   9.856   2.637 -0.3168  0.1428  0.0682
 5567PP      PP15671   6.110   4.880  11.413 -0.2537  0.0418  0.2764
 5568PP      PP15672   3.540   6.076   0.473  0.2882 -0.2518 -0.1123
 5569PP      PP15673  11.960   6.148   0.871 -0.2289 -0.4516 -0.0296
 5570PP      PP15674   1.887   0.909   8.048 -0.0615 -0.0439 -0.0674
 5571PP      PP15675   2.034   2.150  11.550 -0.2548 -0.1080 -0.0145
 5572PP      PP15676   1.908   6.444  11.013 -0.0508  0.4379  0.0642
 5573PP      PP15677   6.849   8.164  13.215 -0.0062 -0.0203  0.1217
 5574PP      PP15678  10.924   2.454   2.082 -0.1174  0.1618 -0.1776
 5575PP      PP15679   9.640  13.128  11.524 -0.1362 -0.0815  0.1519
 5576PP      PP15680   8.409   1.294   2.321  0.3423  0.2073 -0.1058
 5577PP      PP15681   5.811   6.566   1.004 -0.0154  0.0348  0.3669
 5578PP      PP15682   4.774  15.123  11.521 -0.1037 -0.0942  0.0401
 5579PP      PP15683   0.269   4.412  10.207  0.1058 -0.0609 -0.2261
 5580PP      PP15684   8.958  11.339  12.733 -0.0066  0.1686  0.4167
 5581PP      PP15685   7.594   3.059   1.210 -0.0409  0.0951 -0.1227
 5582PP      PP15686   3.002  10.867  10.654 -0.1510  0.1067  0.2643
 5583PP      PP15687  12.902  13.825  13.325 -0.1560  0.2209  0.1079
 5584PP      PP15688   8.601   6.748   1.664  0.0305  0.0240 -0.0611
 5585PP      PP15689   1.333  14.107   4.343  0.3411 -0.1736 -0.0603
 5586PP      PP15690  13.857   3.449   9.138 -0.4681 -0.1713 -0.0995
 5587PP      PP15691  15.301   4.301   0.667  0.0788  0.1586 -0.1478
 5588PP      PP15692   7.045  14.286   1.922  0.0211 -0.1803 -0.1498
 5589PP      PP15693   6.667   6.233  13.059  0.4889  0.1287 -0.1498
 5590PP      PP15694  12.150   5.124   0.849 -0.1808 -0.0031  0.0663
 5591PP      PP15695  12.529   0.394  10.639 -0.1974 -0.0195 -0.2324
 5592PP      PP15696  11.184  11.498   2.292  0.1577  0.0280 -0.2944
 5593PP      PP15697   2.052   1.997   2.134  0.0392  0.0257  0.1878
 5594PP      PP15698   5.605   5.793  11.601 -0.2437 -0.0561 -0.0226
 5595PP      PP15699   2.757   4.654  12.757  0.0270 -0.4692 -0.0543
 5596PP      PP15700   5.663  15.395  12.393  0.0483  0.0373 -0.1469
 5597PP      PP15701  11.799   0.195  10.079  0.1045  0.1208  0.2398
 5598PP      PP15702  11.996   6.982   1.804 -0.4185  0.1716 -0.1595
 5599PP      PP15703  12.012   2.401   3.334  0.0276 -0.0606  0.0606
 5600PP      PP15704   3.266  13.605  12.975 -0.3265 -0.0596  0.0847
 5601PP      PP15705   2.457   5.666  12.803 -0.2565 -0.0280 -0.0185
 5602PP      PP15706   1.172   2.033   2.281 -0.1265  0.2248  0.0831
 5603PP      PP15707  12.567   4.699   3.770  0.0855  0.5228 -0.1231
 5604PP      PP15708   4.028   2.623   8.365 -0.1801  0.1146 -0.3125
 5605PP      PP15709  11.625  10.364   1.151 -0.0778 -0.1552 -0.0469
 5606PP      PP15710  12.848   1.980   8.690  0.0974 -0.2128 -0.0522
 5607PP      PP15711   8.254  12.752  12.735  0.0634 -0.0300  0.1171
 5608PP      PP15712   2.262   9.967   2.715 -0.4137  0.1189  0.1548
 5609PP      PP15713   1.633  15.847  10.195  0.0695 -0.0321 -0.0067
 5610PP      PP15714   8.654  12.469   1.609 -0.0430 -0.1267  0.2899
 5611PP      PP15715   2.720   4.904   4.206  0.0983  0.0694  0.3408
 5612PP      PP15716  15.104  11.161  11.718 -0.0062 -0.5057  0.1139
 5613PP      PP15717   8.603   9.925  13.108  0.0085 -0.3156 -0.1194
 5614PP      PP15718  13.740   5.421  12.734 -0.3121 -0.1180 -0.0278
 5615PP      PP15719   8.465   9.496   4.134 -0.2396  0.0896  0.0938
 5616PP      PP15720   4.588   3.368   8.835  0.1128 -0.0599 -0.1054
 5617PP      PP15721   2.317  15.671   9.151  0.2151 -0.0693 -0.1528
 5618PP      PP15722   0.403   7.196   3.170  0.0624  0.1480 -0.1586
 5619PP      PP15723   0.261   1.034   1.591  0.1133 -0.1472  0.1948
 5620PP      PP15724   0.904   5.019   1.949 -0.1642 -0.1970  0.0769
 5621PP      PP15725  13.653  10.774   0.986  0.0416  0.0128  0.0765
 5622PP      PP15726  10.011   7.043   2.578  0.1470  0.0025  0.2253
 5623PP      PP15727   8.474  11.599  10.992  0.1632  0.1558  0.0846
 5624PP      PP15728  12.776  15.136  10.492 -0.1756 -0.2022 -0.2073
 5625PP      PP15729   0.676   3.107   8.943 -0.1367 -0.0166 -0.0956
 5626PP      PP15730   6.077   4.298   1.234  0.2881 -0.2493 -0.1488
 5627PP      PP15731   9.768  11.208  11.892 -0.3879  0.2028  0.1330
 5628PP      PP15732   2.382   0.223   1.020  0.1439 -0.2893  0.0491
 5629PP      PP15733   0.712   9.042   3.170 -0.0591  0.1719  0.2562
 5630PP      PP15734   0.946   3.930  12.885 -0.0137 -0.0269 -0.0247
 5631PP      PP15735   9.355   9.389  12.737 -0.1038  0.0951  0.0010
 5632PP      PP15736  12.487   2.468  10.254 -0.0272 -0.0107  0.2120
 5633PP      PP15737   9.761   2.682   1.013 -0.0499  0.0428  0.1216
 5634PP      PP15738  10.736   6.803  12.822  0.0863 -0.3292  0.0007
 5635PP      PP15739   5.862   0.914   1.351 -0.5029 -0.1078  0.0599
 5636PP      PP15740  10.915   1.834  10.386 -0.4366  0.2501  0.1753
 5637PP      PP15741  13.945   1.017  11.650 -0.1074  0.0403 -0.0933
 5638PP      PP15742   6.009   9.018   9.501  0.1005 -0.0915  0.3408
 5639PP      PP15743   2.064   9.540  11.080 -0.1566  0.0933 -0.1592
 5640PP      PP15744   9.245   8.613   5.175 -0.3557  0.0927 -0.0017
 5641PP      PP15745   4.551   7.153   0.291  0.0359  0.0707  0.1835
 5642PP      PP15746   5.815   4.661   2.663 -0.0155  0.2178  0.2179
 5643PP      PP15747  10.797   4.288   1.774  0.1148  0.1364 -0.1077
 5644PP      PP15748   7.433   6.629  13.154  0.0586  0.1342  0.0925
 5645PP      PP15749   2.766   1.844   7.864  0.1024  0.4226 -0.0234
 5646PP      PP15750  10.857   6.830   9.053  0.2724  0.0259 -0.0630
 5647PP      PP15751   2.961   9.843   2.034 -0.1926 -0.1885  0.1597
 5648PP      PP15752   3.234  14.430   1.560  0.0440 -0.0559  0.0983
 5649PP      PP15753   4.061   8.924   0.510  0.0903  0.0386  0.5460
 5650PP      PP15754   9.966   5.961   9.915  0.1976  0.2515 -0.1104
 5651PP      PP15755   5.887   5.805   4.195  0.1610 -0.0526 -0.0420
 5652PP      PP15756  13.841  12.869   1.262  0.2102  0.2781 -0.0756
 5653PP      PP15757   8.497  11.353   2.646 -0.2038  0.3312  0.1411
 5654PP      PP15758   0.658  11.367  10.812  0.0016 -0.2194  0.0060
 5655PP      PP15759  11.972   8.457  12.366  0.1716  0.0539  0.4238
 5656PP      PP15760  12.293  14.363   1.296 -0.3486 -0.2725 -0.1184
 5657PP      PP15761   7.751  12.607  10.203  0.1108  0.0948 -0.0848
 5658PP      PP15762   7.297  10.048   4.162  0.1640 -0.4182 -0.0916
 5659PP      PP15763  15.416   1.053   8.880  0.0049  0.0744  0.1384
 5660PP      PP15764  13.733  11.705   2.884  0.0500  0.2631  0.0466
 5661PP      PP15765   7.150   4.566   3.759  0.1479 -0.1232 -0.2759
 5662PP      PP15766   1.618   2.931   0.983 -0.0709  0.1288 -0.0656
 5663PP      PP15767  10.108   3.794  11.278 -0.0686  0.2043 -0.0122
 5664PP      PP15768   6.771   8.930  11.507  0.3463 -0.1548  0.1412
 5665PP      PP15769  15.636   1.331  11.775 -0.1299 -0.2789 -0.2519
 5666PP      PP15770   7.917   6.373  12.440  0.0799 -0.0247  0.4431
 5667PP      PP15771  10.974   2.760   8.309  0.1574  0.1439  0.0916
 5668PP      PP15772   0.893   5.318   1.186  0.2554 -0.0857 -0.2093
 5669PP      PP15773   9.994   5.287  12.425 -0.2867 -0.2511  0.0142
 5670PP      PP15774   5.647   8.564   0.439  0.0517 -0.3106 -0.0091
 5671PP      PP15775   8.848   4.500   9.607  0.0120 -0.1164 -0.0302
 5672PP      PP15776   7.373  12.668   0.292 -0.1539 -0.1155  0.0899
 5673PP      PP15777   6.183   2.713  12.970 -0.0766  0.0280 -0.0582
 5674PP      PP15778   5.425   0.608   1.538 -0.0692  0.3631 -0.3722
 5675PP      PP15779  14.955  14.034   0.445  0.1463  0.1126 -0.1274
 5676PP      PP15780   1.500  13.939   0.499 -0.3226 -0.3964  0.4430
 5677PP      PP15781   5.980   5.506   2.192 -0.2424  0.0160 -0.1750
 5678PP      PP15782  12.673   5.927   0.253 -0.0141  0.3493  0.1899
 5679PP      PP15783   0.106   6.609  12.613  0.2705  0.1823  0.0743
 5680PP      PP15784  14.137  12.954   8.267 -0.1456 -0.1738 -0.0022
 5681PP      PP15785   1.648   7.079  11.767  0.2570  0.1343  0.2049
 5682PP      PP15786  14.525   0.378   3.596 -0.3685 -0.2697  0.0248
 5683PP      PP15787   4.187   6.677  10.156  0.0452 -0.0622  0.2275
 5684PP      PP15788   2.604  14.572   3.379 -0.3253  0.0959 -0.1334
 5685PP      PP15789  13.593   4.190  11.889  0.0488  0.0562 -0.1609
 5686PP      PP15790   0.601  11.949   8.675  0.2927  0.0928  0.1605
 5687PP      PP15791   2.134   6.918   1.147  0.2403 -0.3671 -0.1305
 5688PP      PP15792   5.830   9.010   0.152  0.1471 -0.3931 -0.0189
 5689PP      PP15793   0.957   0.751   9.972  0.0481 -0.0140  0.0233
 5690PP      PP15794   8.192   9.862  11.778  0.1286 -0.0720 -0.0204
 5691PP      PP15795   1.866   3.397   0.874  0.1714 -0.3116 -0.0576
 5692PP      PP15796  12.972   6.226   9.707 -0.0328 -0.0925 -0.4238
 5693PP      PP15797   0.762  13.403   1.322  0.2572 -0.2068 -0.2351
 5694PP      PP15798   9.472  15.573   0.867  0.0382 -0.1557 -0.0908
 5695PP      PP15799   7.871  14.832  11.595 -0.1595 -0.0699 -0.0056
 5696PP      PP15800   4.529   3.173  11.849  0.0988  0.0942  0.0874
 5697PP      PP15801  11.876   6.542  12.234 -0.0217  0.1105  0.0031
 5698PP      PP15802   0.641   0.806   2.571  0.0122 -0.3331  0.2086
 5699PP      PP15803  15.853   0.601   3.979  0.4234 -0.0001  0.4263
 5700PP      PP15804   9.323  13.488   1.635  0.0028 -0.2987  0.0113
 5701PP      PP15805   5.037   0.289   4.044  0.2725  0.0279  0.1490
 5702PP      PP15806  11.036   3.582   1.412  0.0194 -0.1059  0.3527
 5703PP      PP15807  14.965  12.371  11.338 -0.0517  0.1507  0.3059
 5704PP      PP15808   8.181  14.422   1.164  0.3113 -0.0114 -0.1889
 5705PP      PP15809  14.285   6.557  12.229 -0.1719  0.0407 -0.3536
 5706PP      PP15810  13.336  11.401  12.515  0.1101 -0.2303  0.1209
 5707PP      PP15811   3.275   0.444   2.821  0.2287 -0.0162  0.3860
 5708PP      PP15812  13.823   0.042   0.899  0.0355 -0.5564 -0.1269
 5709PP      PP15813   5.134  10.964   2.323  0.1620  0.0390  0.4747
 5710PP      PP15814  10.366   1.764  13.441  0.1097  0.0141  0.0078
 5711PP      PP15815   8.840   8.129   1.901  0.2187 -0.0736 -0.0492
 5712PP      PP15816   2.675  12.629   0.095  0.0390 -0.2071 -0.1244
 5713PP      PP15817   9.426   3.903   0.669 -0.2029 -0.1554  0.0523
 5714PP      PP15818   6.354  14.189  13.104  0.2992 -0.3550  0.0170
 5715PP      PP15819   1.948   0.845   8.894  0.1510  0.0337  0.1633
 5716PP      PP15820   7.881   1.309  11.571 -0.0386 -0.0462  0.1540
 5717PP      PP15821   4.791   4.060  11.421 -0.0225  0.1774  0.2252
 5718PP      PP15822  10.989  15.270   2.890  0.2411 -0.1690  0.2593
 5719PP      PP15823   5.434   4.461   3.375 -0.2778 -0.0106 -0.4302
 5720PP      PP15824   6.322   3.026   2.425  0.1731 -0.1390  0.0076
 5721PP      PP15825  13.093   9.528   1.627 -0.0090 -0.0436  0.1889
 5722PP      PP15826   0.180   2.688  10.625 -0.3706  0.0390 -0.1885
 5723PP      PP15827   9.884   6.488   0.751 -0.1380 -0.1668  0.0223
 5724PP      PP15828   3.070   9.309   9.424 -0.0419  0.0521  0.0044
 5725PP      PP15829  12.324   6.369   3.908  0.1421 -0.3060  0.1206
 5726PP      PP15830   0.954   2.091   1.501 -0.0765 -0.0260  0.1352
 5727PP      PP15831   0.806  14.650   2.194 -0.1561  0.0639  0.0309
 5728PP      PP15832  15.570   3.996   0.333  0.1050 -0.1447  0.0097
 5729PP      PP15833   6.350  13.329   2.220 -0.3473  0.2776 -0.0323
 5730PP      PP15834   6.695   7.717   3.062  0.1055  0.1934 -0.1402
 5731PP      PP15835  10.427   4.524   9.747 -0.1064  0.1068  0.0902
 5732PP      PP15836   3.911   1.231   8.395  0.3130 -0.2011 -0.0804
 5733PP      PP15837   9.465   6.604  10.262  0.3761 -0.2608 -0.0095
 5734PP      PP15838   5.307   1.983   1.539  0.1629  0.0202 -0.2477
 5735PP      PP15839  13.398   7.082   9.766 -0.0019 -0.2733  0.0016
 5736PP      PP15840  10.798  11.306  11.187 -0.2058 -0.1598 -0.0107
 5737PP      PP15841  13.147   3.794   9.142 -0.2888 -0.0462 -0.1367
 5738PP      PP15842   0.709   5.531   9.650  0.2065 -0.4803 -0.0255
 5739PP      PP15843   1.868   0.668  13.267 -0.3656  0.1583  0.0017
 5740PP      PP15844  11.544   8.907   2.450  0.0405  0.2101  0.1780
 5741PP      PP15845   3.627   2.987   8.078 -0.0731  0.2942 -0.1626
 5742PP      PP15846   6.551   4.280   1.453 -0.1515 -0.1990 -0.4235
 5743PP      PP15847   5.159  14.938   1.295 -0.2390 -0.1296 -0.0239
 5744PP      PP15848   6.177   9.870   3.557  0.2054 -0.2762  0.0133
 5745PP      PP15849   6.360   3.877   9.534  0.2841  0.0828  0.1463
 5746PP      PP15850   3.885   0.824   0.462  0.0957  0.0023  0.0777
 5747PP      PP15851   3.792  14.996   9.339  0.2999 -0.2130 -0.0727
 5748PP      PP15852   1.799   0.143   9.682  0.2121 -0.4353  0.0247
 5749PP      PP15853  15.707  12.868   0.061  0.2528  0.0130  0.1710
 5750PP      PP15854  14.340   7.088   3.027  0.0210 -0.0901  0.0980
 5751PP      PP15855   0.250   7.469   1.880  0.0311 -0.1282  0.1714
 5752PP      PP15856   1.761  14.055   9.632 -0.1651  0.2318 -0.0962
 5753PP      PP15857   0.794   2.756  11.049 -0.1262  0.0733 -0.1805
 5754PP      PP15858   6.901   6.187   3.746 -0.3040  0.2442  0.0405
 5755PP      PP15859   7.182  11.867   3.950 -0.1503  0.0765  0.1418
 5756PP      PP15860   3.071   4.595   8.713 -0.3061 -0.1680 -0.3121
 5757PP      PP15861   3.450  10.983  10.898  0.0169 -0.1302  0.3209
 5758PP      PP15862  15.696  13.305   2.170  0.1642  0.1603 -0.0649
 5759PP      PP15863   5.299   5.336  10.918 -0.1707 -0.0857  0.3919
 5760PP      PP15864   0.505   3.590  11.193 -0.3159  0.1984 -0.0936
 5761PP      PP15865   3.624   3.372  10.251 -0.0269  0.0849  0.3411
 5762PP      PP15866  10.697   6.086  13.344 -0.2481  0.1093 -0.0087
 5763PP      PP15867   0.413   8.070   1.163 -0.0890  0.1606 -0.3094
 5764PP      PP15868   0.240  12.411  12.812 -0.0509 -0.0806  0.0394
 5765PP      PP15869  13.560   2.114   2.234  0.0002 -0.2240  0.2754
 5766PP      PP15870  15.371   9.238   8.932 -0.0825 -0.0626  0.1764
 5767PP      PP15871  10.006  12.794  10.611  0.0978 -0.0628 -0.2267
 5768PP      PP15872   8.635  14.906  10.075  0.2469 -0.0591  0.0513
 5769PP      PP15873   9.478  11.700  12.707 -0.1478 -0.1753  0.0409
 5770PP      PP15874  13.863   9.830   2.211  0.2582  0.2889  0.0202
 5771PP      PP15875  15.001  13.206  10.442 -0.0054 -0.0496 -0.2063
 5772PP      PP15876   7.766  10.060  11.679  0.1985 -0.1548 -0.0589
 5773PP      PP15877   9.103  15.757   1.166 -0.0377  0.2031 -0.0819
 5774PP      PP15878   5.419   6.396  10.336  0.0406  0.1501  0.3414
 5775PP      PP15879   7.024   3.419   0.225 -0.0034 -0.2424  0.1213
 5776PP      PP15880   1.240  13.296   3.726  0.1551  0.1269  0.0019
 5777PP      PP15881   8.595  15.830   0.158 -0.0544 -0.0636 -0.4125
 5778PP      PP15882   9.601   4.657   9.275 -0.4703 -0.1386 -0.2774
 5779PP      PP15883  13.619   3.293   7.843 -0.0139  0.2692 -0.2681
 5780PP      PP15884   1.335   2.337  12.605  0.2018  0.0728 -0.0667
 5781PP      PP15885   9.172   2.775   1.851 -0.2090  0.0827 -0.3916
 5782PP      PP15886   4.033   6.924   3.826  0.2644  0.1366  0.1433
 5783PP      PP15887   2.030  11.228   0.312 -0.0917 -0.3200  0.0495
 5784PP      PP15888   2.316   9.167  11.415  0.3412 -0.0939 -0.2699
 5785PP      PP15889   6.510   2.943   2.940  0.1492 -0.0155 -0.3445
 5786PP      PP15890  10.252  11.659  12.657  0.0727 -0.1951  0.2449
 5787PP      PP15891  11.234  13.089   3.716 -0.1245  0.1979 -0.4425
 5788PP      PP15892  12.324  11.764  12.475 -0.1562  0.1688  0.0331
 5789PP      PP15893   2.203   2.113  10.510 -0.0460 -0.1249  0.0488
 5790PP      PP15894  14.560   4.514   9.633 -0.1991  0.3669 -0.1226
 5791PP      PP15895   1.516   6.147  10.685 -0.1765 -0.1025 -0.0232
 5792PP      PP15896  14.929   3.704   1.956 -0.1139  0.1961  0.0528
 5793PP      PP15897   6.951   5.256  12.241 -0.0525  0.0206 -0.0544
 5794PP      PP15898  12.324  13.095   3.453  0.0494 -0.3068 -0.2834
 5795PP      PP15899   6.080   3.589   0.043 -0.1189 -0.0311  0.0272
 5796PP      PP15900  15.281   6.886  10.402 -0.3136  0.0760  0.0432
 5797PP      PP15901  10.689   4.168   3.610 -0.0011  0.3618  0.2340
 5798PP      PP15902   7.167   1.015   2.132 -0.1129  0.2167 -0.0077
 5799PP      PP15903  10.099   0.834   8.863 -0.0028  0.1516  0.1407
 5800PP      PP15904  11.371  13.488   0.532  0.0014 -0.0600 -0.1088
 5801PP      PP15905   5.405   9.673   2.315  0.2165 -0.2848 -0.1987
 5802PP      PP15906  12.258   5.524   4.014  0.2207 -0.0909 -0.4642
 5803PP      PP15907  10.011   2.906   1.444  0.1687  0.1051  0.1215
 5804PP      PP15908   5.680  12.598  11.735 -0.1428  0.2253 -0.0916
 5805PP      PP15909   4.616   5.804  10.276 -0.1662  0.2593  0.1164
 5806PP      PP15910   8.365   5.935   2.889 -0.0263  0.1877  0.0247
 5807PP      PP15911  13.681   2.703  12.633  0.2303  0.0790 -0.1641
 5808PP      PP15912   6.654   9.564   1.727  0.0317  0.2626  0.0466
 5809PP      PP15913  13.442   1.428   1.039 -0.2661 -0.1686  0.0968
 5810PP      PP15914  14.073   3.252   3.689 -0.3760 -0.2300 -0.0980
 5811PP      PP15915  10.561   6.110  12.042 -0.0777  0.0285  0.1738
 5812PP      PP15916   4.283  14.357  12.197  0.5175  0.1261  0.2423
 5813PP      PP15917   4.350   0.949   1.930 -0.3549  0.1311 -0.0582
 5814PP      PP15918   5.717  13.892  10.311  0.0723  0.0996 -0.0496
 5815PP      PP15919   9.213   0.757   9.367  0.2905 -0.0270  0.0395
 5816PP      PP15920   1.753   2.787   2.087  0.1256  0.1140  0.1120
 5817PP      PP15921  10.489   2.121  11.409  0.1508  0.0334  0.0066
 5818PP      PP15922  14.010   2.078  11.789  0.1732  0.1792 -0.2535
 5819PP      PP15923   6.248   7.493  12.310  0.1309 -0.0691 -0.3145
 5820PP      PP15924   2.769  11.799   0.574  0.0136  0.2305 -0.3859
 5821PP      PP15925  12.965  12.736   1.575 -0.1963 -0.2321 -0.1298
 5822PP      PP15926   3.680  13.658  11.460 -0.0462  0.1570  0.0713
 5823PP      PP15927   1.721  14.342  11.008 -0.2131 -0.1632 -0.0329
 5824PP      PP15928   6.659  10.377  10.100 -0.3298  0.0766 -0.2435
 5825PP      PP15929  10.214   4.677  12.035  0.1569  0.1634 -0.0968
 5826PP      PP15930   7.220  13.585  13.228 -0.0022  0.1047  0.3030
 5827PP      PP15931   5.484   0.639   2.911  0.0557 -0.2323 -0.1613
 5828PP      PP15932   3.983  14.521  12.580  0.0529  0.2661  0.0597
 5829PP      PP15933  14.236  13.289  11.829  0.3287 -0.1435  0.2523
 5830PP      PP15934   0.263   4.649   0.631  0.1707 -0.1214 -0.4103
 5831PP      PP15935  10.497   0.969   0.160  0.0856  0.1166 -0.0686
 5832PP      PP15936   1.478  11.715   9.272 -0.0619  0.1233  0.3139
 5833PP      PP15937   3.457   5.143   4.851 -0.1329  0.0267 -0.0796
 5834PP      PP15938   3.284   0.464   8.410 -0.0556  0.1424  0.3083
 5835PP      PP15939   8.289  15.357   0.609 -0.1845 -0.0083  0.0727
 5836PP      PP15940  11.149   7.730  12.597 -0.3535  0.0988 -0.0855
 5837PP      PP15941   6.843   2.222   4.323 -0.1319  0.3448 -0.1171
 5838PP      PP15942   9.868  11.002   3.779 -0.0213 -0.0965 -0.2968
 5839PP      PP15943  12.827  12.149   0.299  0.0795 -0.0434 -0.0227
 5840PP      PP15944  14.660  13.318   8.779  0.0769  0.1833 -0.3188
 5841PP      PP15945   7.256   2.598  13.356  0.1470  0.0903 -0.1359
 5842PP      PP15946   4.290  12.842  10.759  0.3179 -0.2710  0.3291
 5843PP      PP15947   4.494  14.664  11.020 -0.0050  0.0916  0.1668
 5844PP      PP15948   4.232   1.325   0.750  0.0027 -0.2459 -0.0324
 5845PP      PP15949  12.972   5.164   9.868  0.0031  0.0116  0.0248
 5846PP      PP15950   1.396   3.856  10.868  0.4644  0.1405 -0.0499
 5847PP      PP15951   0.768  10.554  12.194  0.2258 -0.1652 -0.1850
 5848PP      PP15952   9.835   1.104  12.454 -0.3612  0.1685 -0.1794
 5849PP      PP15953   3.143   6.791  10.207 -0.1604  0.3347 -0.2386
 5850PP      PP15954   1.497   2.235   4.614  0.1395  0.1273 -0.1995
 5851PP      PP15955  10.552   2.804   9.367  0.0956 -0.0833 -0.2010
 5852PP      PP15956  14.485  15.597  12.213 -0.0772 -0.0003  0.4209
 5853PP      PP15957   3.769  11.947  13.370 -0.0839  0.0411  0.2956
 5854PP      PP15958  14.817   6.671  13.161  0.0252 -0.2837  0.1461
 5855PP      PP15959   3.927   5.406   2.644  0.0261 -0.1624  0.0597
 5856PP      PP15960  13.323   1.509  11.297 -0.2029  0.0114  0.1329
 5857PP      PP15961   4.484   0.068   2.692  0.1297 -0.0448 -0.1546
 5858PP      PP15962  11.408  10.408   0.622  0.1034 -0.0652  0.2364
 5859PP      PP15963  14.293   0.385   9.685 -0.0010 -0.2333  0.0950
 5860PP      PP15964   2.517   6.829   0.841  0.0109 -0.1882  0.0333
 5861PP      PP15965  12.988   5.901  10.677 -0.0563  0.0295 -0.1981
 5862PP      PP15966   2.490   6.928   2.211  0.0582  0.0143  0.2161
 5863PP      PP15967   6.334   8.354   3.785 -0.0193  0.2964 -0.1686
 5864PP      PP15968  13.728  13.160  13.156  0.0327 -0.0987  0.1957
 5865PP      PP15969  15.108   2.284   1.288  0.3228  0.0589  0.1304
 5866PP      PP15970  12.313   9.242   3.196  0.0062 -0.1768  0.0307
 5867PP      PP15971  15.048   1.833   8.008 -0.2647  0.1212  0.1492
 5868PP      PP15972  15.110   8.202   0.813  0.0236  0.1692 -0.0930
 5869PP      PP15973  14.375   4.270  11.179  0.0111  0.3959  0.0078
 5870PP      PP15974  11.879   9.623  12.471 -0.0191  0.1560 -0.3453
 5871PP      PP15975   4.690   0.359   0.340  0.1949  0.0663  0.0557
 5872PP      PP15976  10.536  15.245   8.663  0.1433 -0.0204 -0.0042
 5873PP      PP15977  15.415  15.145  10.258 -0.1092  0.0298  0.0762
 5874PP      PP15978   2.946   9.311  10.929  0.4305  0.0970  0.1716
 5875PP      PP15979   5.526   8.036  13.198  0.1088 -0.1466 -0.1489
 5876PP      PP15980   1.622   2.575  10.516 -0.1757  0.0130 -0.0491
 5877PP      PP15981   0.223   0.765  13.315  0.1614  0.2491  0.0827
 5878PP      PP15982   0.407   4.554  12.289  0.3652  0.0839 -0.1615
 5879PP      PP15983   7.359   8.110   2.071 -0.1901  0.2604  0.0130
 5880PP      PP15984   1.461  15.065  10.486 -0.1159  0.0934 -0.1110
 5881PP      PP15985   3.067  15.373   2.126  0.2620  0.1691 -0.2033
 5882PP      PP15986  14.910   8.562  11.184  0.1390  0.3042  0.0135
 5883PP      PP15987  15.789   8.116  12.685  0.1961 -0.0068 -0.0230
 5884PP      PP15988  10.460   1.254  13.143  0.0540 -0.1733  0.0022
 5885PP      PP15989   7.978   6.411  11.923 -0.0531 -0.0778  0.1018
 5886PP      PP15990   4.423   8.068   2.372  0.0006  0.0646 -0.1406
 5887PP      PP15991   6.860   5.803   9.992  0.1346  0.1401 -0.0723
 5888PP      PP15992   7.043   0.621  12.192 -0.0250 -0.2642  0.1916
 5889PP      PP15993   6.452  13.356  12.774  0.1760  0.2698  0.3753
 5890PP      PP15994   7.058  10.339   2.865  0.1653  0.2731  0.0399
 5891PP      PP15995   3.429   2.530  10.757 -0.1693 -0.1795  0.1142
 5892PP      PP15996   3.433   5.702   0.986  0.1646 -0.1346  0.0682
 5893PP      PP15997   1.490   7.641   1.270 -0.2514 -0.0091 -0.0709
 5894PP      PP15998   7.153  11.141   3.221  0.0643 -0.2054  0.0396
 5895PP      PP15999  15.548   6.266  10.560  0.0753  0.2318  0.0602
 5896PP      PP16000  14.779   7.341   2.895  0.0362 -0.0913 -0.1310
 5897PP      PP16001  12.906   1.816   2.372 -0.1790 -0.3757 -0.2009
 5898PP      PP16002   8.820   4.981   8.923  0.0716 -0.0030 -0.0070
 5899PP      PP16003   9.218   3.312  11.025  0.0846  0.0943  0.1098
 5900PP      PP16004   0.039   5.928   9.226 -0.0336  0.1757  0.0408
 5901PP      PP16005   8.360  11.030  10.107 -0.2037 -0.1499 -0.0541
 5902PP      PP16006   6.251   9.381   0.906  0.0213 -0.0192 -0.0652
 5903PP      PP16007   0.276   8.623   2.882 -0.0292 -0.2134  0.0680
 5904PP      PP16008   8.072   5.930  10.931  0.0594  0.2671  0.0082
 5905PP      PP16009  13.832   4.882  12.581 -0.0465  0.0781  0.0974
 5906PP      PP16010   5.180   3.578   0.806 -0.2535  0.1022 -0.3554
 5907PP      PP16011   0.194  11.801  10.710 -0.0025 -0.0622  0.3130
 5908PP      PP16012   6.202   1.830  13.047  0.2059  0.0933 -0.3754
 5909PP      PP16013   3.785   3.271   3.457 -0.2435 -0.1745 -0.1257
 5910PP      PP16014   3.708   3.890   4.006 -0.0477 -0.2727 -0.0517
 5911PP      PP16015   0.803  13.951  10.524  0.0100  0.0275 -0.0823
 5912PP      PP16016  11.803  14.105  10.173  0.0531 -0.1592  0.1924
 5913PP      PP16017   1.410  12.170   9.095 -0.0352  0.3294  0.0749
 5914PP      PP16018  14.142   0.358  10.144 -0.1138  0.3186 -0.0350
 5915PP      PP16019  13.683   9.058  12.379  0.5107  0.0077 -0.0465
 5916PP      PP16020   7.248   1.643   4.381  0.0869 -0.0967 -0.1249
 5917PP      PP16021  14.435   8.813   2.167  0.0179  0.0758  0.2480
 5918PP      PP16022  14.599  12.377  11.743 -0.1115  0.1568  0.1590
 5919PP      PP16023   0.642  15.234   8.747  0.0306  0.1989  0.0056
 5920PP      PP16024   9.850   2.391   4.130 -0.3088  0.3652 -0.0718
 5921PP      PP16025   6.374   8.501   2.062  0.0443 -0.0504 -0.2709
 5922PP      PP16026  13.981   7.389   2.844 -0.0868  0.1598  0.3678
 5923PP      PP16027  10.700   6.753  10.862 -0.2029 -0.3806 -0.0332
 5924PP      PP16028   1.822   8.864   1.057  0.1551  0.1792  0.0766
 5925PP      PP16029   4.421   2.056  13.351  0.0200 -0.4302 -0.1479
 5926PP      PP16030  15.616   9.682   4.304 -0.1597 -0.0465  0.2696
 5927PP      PP16031  14.824  13.134  12.221 -0.1200  0.0498  0.1556
 5928PP      PP16032   5.185   2.438  11.089 -0.0540 -0.1340  0.0616
 5929PP      PP16033   0.969   9.989   0.538  0.1124 -0.3762 -0.1412
 5930PP      PP16034  13.083  10.337  12.879  0.2254 -0.1824 -0.1252
 5931PP      PP16035   7.971   5.400   3.592  0.4494  0.3610 -0.0652
 5932PP      PP16036  13.977  10.416   9.908  0.1241 -0.2434  0.1199
 5933PP      PP16037   8.156  10.547   0.847  0.0718  0.2104  0.2174
 5934PP      PP16038  14.310  13.919  13.455 -0.0736 -0.2187 -0.0139
 5935PP      PP16039   9.078   6.538   4.426 -0.0359  0.2443  0.0562
 5936PP      PP16040   2.394   8.928  12.311 -0.2280 -0.1189 -0.2211
 5937PP      PP16041  10.918   5.098   9.114  0.0330 -0.4020 -0.0644
 5938PP      PP16042   1.520   1.074  13.057 -0.1655 -0.1268 -0.0963
 5939PP      PP16043   1.833  14.207  12.846 -0.1063  0.0035 -0.0622
 5940PP      PP16044   0.991  14.337  11.556 -0.2819  0.1424  0.1490
 5941PP      PP16045   4.371   6.225  13.379 -0.0916 -0.4567 -0.1702
 5942PP      PP16046   2.989   9.029   3.917 -0.1868  0.3189  0.1528
 5943PP      PP16047   0.159   3.663   3.417 -0.1910 -0.3907  0.1057
 5944PP      PP16048  14.721   7.835   0.041 -0.0994  0.0881  0.2772
 5945PP      PP16049   6.879   8.203   3.785  0.0172  0.1620 -0.2824
 5946PP      PP16050  13.874   4.045  12.448  0.1449  0.0698  0.1324
 5947PP      PP16051   9.368   9.621   1.965 -0.0244  0.0824 -0.0721
 5948PP      PP16052   6.032  13.072   3.100  0.0198  0.1026  0.1207
 5949PP      PP16053  10.948  13.433   3.173 -0.3041 -0.1829  0.0461
 5950PP      PP16054   4.711  12.883  13.277  0.0909 -0.1745 -0.4223
 5951PP      PP16055   9.222   8.595  13.185  0.1520  0.2782  0.1068
 5952PP      PP16056   2.134  13.970   9.294 -0.1114 -0.0426  0.1593
 5953PP      PP16057   1.871   8.361  10.796  0.1307  0.2226  0.3549
 5954PP      PP16058   1.460  12.476  12.203  0.1180 -0.2214  0.0177
 5955PP      PP16059   0.844  13.632  13.224  0.1123  0.3348  0.1322
 5956PP      PP16060   4.302  10.288   0.908 -0.0187 -0.2781  0.3047
 5957PP      PP16061  11.176   1.138  13.011  0.3283 -0.0087  0.2012
 5958PP      PP16062   6.861   0.573   9.065  0.3679  0.1616 -0.2886
 5959PP      PP16063   3.897   5.065  12.079 -0.2485 -0.3429 -0.1124
 5960PP      PP16064   3.747  11.088  12.667 -0.2124 -0.1223 -0.0806
 5961PP      PP16065   0.161   7.771   9.479  0.0084  0.0071  0.1029
 5962PP      PP16066  14.184  10.562   9.024 -0.1345  0.0624 -0.0181
 5963PP      PP16067   6.718   7.348  12.201  0.0554  0.0137 -0.1839
 5964PP      PP16068  14.245   6.661   1.527  0.0069 -0.0444  0.0733
 5965PP      PP16069   8.588  12.889  11.097 -0.4583  0.0087  0.5986
 5966PP      PP16070   6.070   2.759   2.872 -0.0170  0.0079  0.2845
 5967PP      PP16071   3.401  12.078   1.219  0.1441  0.2883 -0.0452
 5968PP      PP16072  12.776   4.759   8.844  0.0055 -0.0967  0.2521
 5969PP      PP16073   4.649   7.609   0.658  0.2511 -0.1813  0.2087
 5970PP      PP16074   3.684  10.319   3.028  0.3377 -0.1031 -0.1174
 5971PP      PP16075   3.417   0.290   1.797 -0.0855  0.0465 -0.0343
 5972PP      PP16076  11.839  13.840  12.183 -0.2122 -0.2864 -0.0333
 5973PP      PP16077  12.614   0.417   8.401  0.0282 -0.1193  0.0498
 5974PP      PP16078  10.432   9.950   9.925  0.1758 -0.0774 -0.1447
 5975PP      PP16079   3.537  14.877  13.325  0.2236 -0.1100  0.3040
 5976PP      PP16080   1.348  14.532  12.893  0.3603 -0.0854  0.2092
 5977PP      PP16081   2.980  12.377   0.497 -0.1768  0.1076 -0.1190
 5978PP      PP16082  14.156  15.080   3.552  0.2125  0.1402 -0.2592
 5979PP      PP16083  12.199  15.502   0.920 -0.0350  0.2597 -0.1372
 5980PP      PP16084   9.672   7.926  10.961  0.1200 -0.0318 -0.1390
 5981PP      PP16085   1.710   0.920  12.345  0.1976 -0.2451 -0.1081
 5982PP      PP16086  13.216   9.856  12.080  0.3578  0.1157  0.3678
 5983PP      PP16087   3.432   3.647   8.859 -0.2378 -0.0248 -0.0767
 5984PP      PP16088   1.008   7.961   3.259  0.2348 -0.2419 -0.1487
 5985PP      PP16089   7.166  10.341   2.263  0.1120 -0.2501  0.0458
 5986PP      PP16090   9.690  15.059   2.099 -0.1957  0.2865  0.0960
 5987PP      PP16091  12.105  15.194  11.553 -0.1524 -0.0890 -0.1731
 5988PP      PP16092  14.116   4.663   3.047  0.2073  0.3852 -0.1964
 5989PP      PP16093   1.190   5.543  11.988 -0.1467  0.0855 -0.0191
 5990PP      PP16094   5.328   0.865  10.090  0.0173  0.1138 -0.0046
 5991PP      PP16095   1.602   1.430  12.068 -0.1303 -0.2035 -0.1690
 5992PP      PP16096   4.001   1.852   9.840 -0.0529  0.0028 -0.0018
 5993PP      PP16097  12.472   4.234  10.304 -0.1413  0.0022 -0.1189
 5994PP      PP16098  12.491  13.625   2.252  0.0334  0.3567  0.1449
 5995PP      PP16099  14.060   8.001   4.101  0.2876 -0.2071  0.1261
 5996PP      PP16100   1.007   0.198   9.872 -0.1823  0.0580  0.1147
 5997PP      PP16101   5.093   7.183  12.312  0.0633  0.4678  0.4605
 5998PP      PP16102   4.884  13.744  12.781  0.0249 -0.0549  0.1113
 5999PP      PP16103   0.344   5.288  12.764 -0.0041 -0.0193  0.1777
 6000PP      PP16104  12.602   3.814  11.990 -0.3426  0.0358  0.1540
 6001PP      PP16105  10.362   3.328   9.543 -0.3849  0.3895 -0.1093
 6002PP      PP16106  13.326  15.427  12.487  0.2167  0.0718 -0.0678
 6003PP      PP16107   9.312   8.188  11.286 -0.1588  0.0332  0.0252
 6004PP      PP16108   4.863   0.310   8.778  0.1895  0.0310 -0.1851
 6005PP      PP16109   1.653  15.481   2.591  0.0063  0.3697 -0.2190
 6006PP      PP16110  10.518  12.739   2.544  0.3917  0.2757  0.0761
 6007PP      PP16111  15.095  11.064  12.247 -0.1113  0.1624 -0.0592
 6008PP      PP16112   8.917   6.393   0.621 -0.2745 -0.1500 -0.1509
 6009PP      PP16113  10.920  14.137  12.463 -0.0204  0.0515  0.0282
 6010PP      PP16114   6.090  11.856   0.882 -0.1642  0.1515  0.1381
 6011PP      PP16115   7.227  15.113   9.603  0.0243 -0.2666  0.0797
 6012PP      PP16116  14.173  10.181   2.055  0.1330  0.2853  0.0893
 6013PP      PP16117  11.000   8.823  10.340 -0.0907  0.0965  0.4262
 6014PP      PP16118   0.247   4.416   1.589 -0.0082  0.0325  0.2833
 6015PP      PP16119   9.616  13.705  10.417 -0.2952  0.0301 -0.1120
 6016PP      PP16120  14.503   9.919  11.800 -0.0489  0.0944 -0.2890
 6017PP      PP16121  15.126   2.143  10.356 -0.0777 -0.1934 -0.3545
 6018PP      PP16122  11.735   2.962   9.586  0.2297  0.0173 -0.2049
 6019PP      PP16123   2.806   6.433   0.732  0.1304 -0.3922  0.1178
 6020PP      PP16124   8.440   5.578   4.564  0.0571 -0.1062  0.2865
 6021PP      PP16125   5.269   7.046  11.216 -0.1362  0.1085  0.0181
 6022PP      PP16126   6.443   5.937   4.851  0.0600 -0.1934 -0.1603
 6023PP      PP16127  14.285   2.144   9.895 -0.0526 -0.0372 -0.2396
 6024PP      PP16128  13.065   5.196   8.870 -0.0916  0.0647 -0.4097
 6025PP      PP16129   9.439  11.689   0.397 -0.1681  0.1022  0.0717
 6026PP      PP16130   5.292  13.067   4.321  0.0505  0.3068 -0.1224
 6027PP      PP16131  14.711  11.024   3.116 -0.3720  0.0296 -0.0930
 6028PP      PP16132  13.185   7.527   1.170  0.3133  0.0627  0.3116
 6029PP      PP16133   2.406   6.910  11.031 -0.0066  0.0097 -0.0010
 6030PP      PP16134  12.140  11.634  11.830  0.1192 -0.1438 -0.0422
 6031PP      PP16135  14.800   7.743  12.964  0.1086  0.0360  0.4357
 6032PP      PP16136   5.354  10.261   4.231 -0.0180  0.0214  0.0064
 6033PP      PP16137   1.668  12.940   8.669 -0.2764  0.2815 -0.3425
 6034PP      PP16138  10.376   1.230   9.164  0.4109 -0.0936 -0.0069
 6035PP      PP16139   2.156   3.740   1.131 -0.3408  0.1035  0.0579
 6036PP      PP16140   0.093   8.402  12.181 -0.1140 -0.2404  0.2800
 6037PP      PP16141  11.994   1.881  10.912 -0.0490  0.0679  0.2565
 6038PP      PP16142   2.206   8.141  11.703 -0.0460  0.0826  0.2320
 6039PP      PP16143  14.346  13.945   9.441  0.0868  0.2040 -0.2116
 6040PP      PP16144   5.837   0.956  13.171 -0.4541 -0.1865  0.1396
 6041PP      PP16145  10.080  10.635  12.696  0.1489  0.0995 -0.1719
 6042PP      PP16146  10.736  13.724  10.718  0.2904  0.1223 -0.6655
 6043PP      PP16147  12.301   9.611   1.246 -0.1240  0.3345 -0.0810
 6044PP      PP16148   5.839   2.032   8.203  0.1092  0.0189  0.3269
 6045PP      PP16149   7.258  12.734   9.373  0.1216 -0.0695  0.1096
 6046PP      PP16150   3.289   7.023   1.307  0.2603  0.0840  0.0068
 6047PP      PP16151   7.324   8.807  12.201  0.0933  0.0265 -0.0182
 6048PP      PP16152   1.506   7.741  12.397 -0.1214  0.0942 -0.1567
 6049PP      PP16153   9.959  10.138   0.097  0.2516 -0.1365 -0.1145
 6050PP      PP16154   1.231  12.088  10.524  0.1451 -0.2100  0.1134
 6051PP      PP16155   5.222   7.945  10.455  0.1066 -0.0288 -0.1043
 6052PP      PP16156   5.595   3.699   9.228 -0.0972 -0.0716  0.0916
 6053PP      PP16157  14.395   8.930   9.785  0.1634 -0.0798 -0.1812
 6054PP      PP16158  15.258   5.055   9.065  0.0005  0.1627  0.0977
 6055PP      PP16159   6.550  11.289   9.660  0.3055 -0.4067  0.3394
 6056PP      PP16160   8.897   1.141   3.154  0.0940 -0.0750 -0.1096
 6057PP      PP16161   2.486  13.701   2.308 -0.2296 -0.0674  0.0521
 6058PP      PP16162   2.275   0.354   9.776  0.3326 -0.2211 -0.1343
 6059PP      PP16163   6.607  11.917   0.895  0.1150  0.1954  0.0931
 6060PP      PP16164   0.194   6.787   2.188 -0.0759 -0.0173 -0.3090
 6061PP      PP16165   5.884   7.015   3.972 -0.0741 -0.2200  0.0789
 6062PP      PP16166   6.946  12.306   3.821  0.2265  0.2602 -0.0237
 6063PP      PP16167  11.277   5.576   2.917  0.5040 -0.2864 -0.1071
 6064PP      PP16168  11.648   0.552  10.408 -0.1692  0.0422 -0.1468
 6065PP      PP16169   7.936  11.866   0.039  0.4030  0.1171 -0.2541
 6066PP      PP16170  10.007   3.018   9.436 -0.2042  0.2187  0.2543
 6067PP      PP16171   7.643  15.452   0.531  0.0233 -0.1896 -0.0714
 6068PP      PP16172   7.399   2.057   2.567  0.0972  0.3293 -0.0415
 6069PP      PP16173   9.216   6.766   9.734 -0.3426  0.0710  0.3346
 6070PP      PP16174   5.304  10.908   1.399 -0.1494  0.0175 -0.3909
 6071PP      PP16175  10.585   6.115   0.410  0.1029  0.1682  0.1289
 6072PP      PP16176   5.550  13.620  12.739  0.0225 -0.0663 -0.0601
 6073PP      PP16177   1.948   4.423   9.558  0.8664 -0.1545  0.0280
 6074PP      PP16178   9.492   1.405  11.216 -0.0602  0.1055  0.0748
 6075PP      PP16179  15.244   1.035  10.979  0.0393 -0.0852 -0.0845
 6076PP      PP16180   1.582  13.462   1.142  0.2939  0.1827  0.3210
 6077PP      PP16181   3.554  13.451  12.504  0.1489  0.1925 -0.1697
 6078PP      PP16182   8.095   1.883  11.306  0.1336  0.1408  0.0316
 6079PP      PP16183   0.680   6.156   2.640  0.4449 -0.0969  0.0028
 6080PP      PP16184   7.807   0.214  11.511  0.0668 -0.1054 -0.1285
 6081PP      PP16185   1.647   7.923   0.815  0.1497  0.0621 -0.2659
 6082PP      PP16186   5.014   2.179  10.651 -0.1386  0.1920 -0.1423
 6083PP      PP16187  14.655   5.661   1.419 -0.0559  0.0385 -0.3217
 6084PP      PP16188  11.012   2.648  13.437 -0.2547 -0.2710 -0.0206
 6085PP      PP16189  10.578   4.159   2.835 -0.1080  0.0713  0.1733
 6086PP      PP16190  13.366   7.440   9.394  0.1073  0.1260  0.1643
 6087PP      PP16191  15.691   0.536   0.660 -0.0966 -0.1506  0.0607
 6088PP      PP16192   1.199   2.798   9.643 -0.1249  0.5231 -0.2852
 6089PP      PP16193   9.257  10.451   9.852  0.1121  0.0095 -0.2366
 6090PP      PP16194   8.939  11.014   0.278  0.0264  0.1331 -0.0328
 6091PP      PP16195   2.369  12.951   9.489 -0.2041  0.2692 -0.0613
 6092PP      PP16196   5.093   1.205   9.248  0.0524  0.1445 -0.0775
 6093PP      PP16197   8.922   7.024   2.916 -0.2436  0.0293  0.1528
 6094PP      PP16198   3.200  13.953   1.635  0.2081  0.2995 -0.0763
 6095PP      PP16199  15.116   5.182   3.841  0.0848 -0.0234 -0.0129
 6096PP      PP16200  12.645   4.798   8.350 -0.0995  0.1459 -0.2055
 6097PP      PP16201   1.557  15.801   1.127  0.3291  0.3987 -0.3606
 6098PP      PP16202   5.807   8.988  13.008  0.3811 -0.3509 -0.0992
 6099PP      PP16203  10.923  14.806   9.777  0.1108 -0.1109  0.1518
 6100PP      PP16204  13.153  15.521   7.467 -0.3294 -0.1288  0.1191
 6101PP      PP16205   5.985   2.379   9.698  0.0822  0.1839  0.2239
 6102PP      PP16206  13.850   6.587   9.256  0.2419  0.1198 -0.0708
 6103PP      PP16207   4.257   8.824   3.798 -0.0324 -0.1415 -0.1880
 6104PP      PP16208  15.576   2.714  10.522 -0.3049 -0.0471  0.0752
 6105PP      PP16209   2.067  14.818   0.916 -0.1598 -0.0046  0.0400
 6106PP      PP16210   7.643   9.382   3.724 -0.1833  0.2087 -0.2267
 6107PP      PP16211  15.880   5.322   0.165 -0.1612 -0.1895  0.2440
 6108PP      PP16212   3.028  11.999   2.225 -0.1780 -0.1587 -0.2364
 6109PP      PP16213   8.626   2.604   9.317 -0.1564  0.1607  0.2101
 6110PP      PP16214   4.197   0.662   8.736  0.3180  0.0365  0.4999
 6111PP      PP16215  12.233   9.030   3.648 -0.0808 -0.1691 -0.3515
 6112PP      PP16216  14.927   3.053  13.000 -0.2729 -0.0056 -0.1349
 6113PP      PP16217   3.067  15.036   1.353  0.2257  0.0166 -0.2006
 6114PP      PP16218   9.249  10.075   1.115  0.0665  0.0448 -0.0587
 6115PP      PP16219   2.585  12.116   1.924  0.3233  0.2208 -0.1122
 6116PP      PP16220   7.194   1.852  10.810  0.2988 -0.0246 -0.0931
 6117PP      PP16221   5.075  15.622   3.557  0.0941  0.2554  0.0528
 6118PP      PP16222   0.525  11.896  10.009 -0.2466 -0.0275  0.0095
 6119PP      PP16223   6.760  14.122   9.624  0.0597 -0.2983 -0.0090
 6120PP      PP16224  10.825   4.005   9.719 -0.0595  0.2158  0.0170
 6121PP      PP16225  15.200  13.470   1.721  0.0075  0.2077 -0.0499
 6122PP      PP16226   8.254   8.874   0.277  0.1747  0.1330 -0.2791
 6123PP      PP16227   9.782  14.716  10.723  0.1637 -0.0286  0.0649
 6124PP      PP16228   5.047  15.883   0.569 -0.2794  0.0002 -0.1364
 6125PP      PP16229   8.127   5.258  11.708  0.2492 -0.1218 -0.1771
 6126PP      PP16230  10.775  10.134  12.609 -0.1836  0.4300 -0.0238
 6127PP      PP16231   1.448   9.007   5.139 -0.1418  0.0410  0.1005
 6128PP      PP16232   3.103   2.810  11.115  0.2389  0.1769  0.2979
 6129PP      PP16233   2.713  13.100   4.180 -0.0862 -0.4090 -0.0201
 6130PP      PP16234   7.773   3.129   1.750 -0.0157  0.2384  0.2375
 6131PP      PP16235   4.544  10.674  11.746 -0.3206  0.1299  0.0247
 6132PP      PP16236  12.712  14.319  11.251  0.2884  0.2233  0.2985
 6133PP      PP16237  14.611  12.051   0.223  0.2781 -0.1928 -0.1179
 6134PP      PP16238   2.736   2.788   3.093  0.0656 -0.1198  0.2220
 6135PP      PP16239   6.230  14.592  12.340  0.3496  0.0694  0.1069
 6136PP      PP16240  12.933   5.267  13.328  0.2144 -0.2947 -0.1439
 6137PP      PP16241   7.766   8.200   1.165 -0.0758 -0.1664 -0.1163
 6138PP      PP16242   3.304  11.252   9.919 -0.0151 -0.0449  0.2032
 6139PP      PP16243  10.438   9.220  10.173 -0.1259  0.0445 -0.0041
 6140PP      PP16244   4.975   0.468   3.193 -0.3526  0.0734 -0.4969
 6141PP      PP16245   0.840   0.704  13.395 -0.0655 -0.2806 -0.0455
 6142PP      PP16246   4.935   8.759  13.446 -0.5236 -0.1328 -0.0452
 6143PP      PP16247  13.840   3.635  10.680 -0.1380 -0.0513  0.1564
 6144PP      PP16248   2.728   2.411   3.427  0.3871  0.1310 -0.1120
 6145PP      PP16249   9.514   3.087   3.418  0.1671  0.2475  0.3169
 6146PP      PP16250   2.760   5.486   2.841 -0.0304 -0.2699  0.3411
 6147PP      PP16251   8.965   8.110  10.534  0.1199  0.4826 -0.0829
 6148PP      PP16252  13.338  13.875   9.038  0.1580 -0.1024  0.3887
 6149PP      PP16253  13.407   6.172   2.048 -0.0220 -0.1674  0.0497
 6150PP      PP16254   0.595   7.490  12.546  0.3637  0.1256 -0.1302
 6151PP      PP16255  14.079   7.151   1.645  0.0972 -0.0239 -0.0125
 6152PP      PP16256   9.063   9.563  12.338 -0.2201  0.0668  0.0448
 6153PP      PP16257   2.153  10.823  11.601  0.0162 -0.4376  0.1517
 6154PP      PP16258   4.420  13.297   4.329  0.2840 -0.2602 -0.0494
 6155PP      PP16259  10.765   2.691  12.449  0.0332 -0.2080  0.1272
 6156PP      PP16260  13.850  12.718  10.833 -0.1140  0.1148 -0.0566
 6157PP      PP16261  11.202   9.612   3.497  0.3495 -0.2131 -0.1336
 6158PP      PP16262  13.147  12.480   2.262  0.1525 -0.1991  0.1368
 6159PP      PP16263  10.073   0.744   3.229  0.0333 -0.0353  0.1235
 6160PP      PP16264  15.394   4.217   3.386 -0.0574  0.0591 -0.0835
 6161PP      PP16265   6.015  10.005   1.203 -0.0828  0.3812  0.1887
 6162PP      PP16266   7.980   3.034   9.585  0.0045  0.0667 -0.1166
 6163PP      PP16267  11.777   0.216   0.528 -0.2604 -0.0799  0.2742
 6164PP      PP16268  14.785   0.710  10.527 -0.2604 -0.1192  0.1299
 6165PP      PP16269  14.741  10.169   2.095 -0.1615 -0.0631 -0.0621
 6166PP      PP16270   5.670   5.951  12.415  0.0250  0.1305 -0.0776
 6167PP      PP16271   1.755   7.761  13.201  0.2685 -0.2440  0.0843
 6168PP      PP16272   7.940   8.445   3.184  0.1634  0.3272 -0.2492
 6169PP      PP16273   1.698   4.409  11.997  0.1691  0.2567 -0.0743
 6170PP      PP16274   5.500  10.323   9.872 -0.2831 -0.1880  0.0117
 6171PP      PP16275   6.760   2.632  13.204 -0.2483 -0.0436  0.1881
 6172PP      PP16276   1.436   5.332  11.592  0.1868 -0.1294  0.0244
 6173PP      PP16277   3.523   7.694  13.346  0.2305  0.0001  0.1806
 6174PP      PP16278  12.820   8.231   1.083 -0.0100  0.1127 -0.1017
 6175PP      PP16279  11.490  11.452   9.973 -0.2695  0.1148 -0.0782
 6176PP      PP16280  15.890   0.460   3.504  0.4534  0.0584 -0.4585
 6177PP      PP16281   2.196   5.539  10.987  0.1304  0.0477 -0.2640
 6178PP      PP16282  15.277   6.807   3.395  0.0945 -0.2254  0.1242
 6179PP      PP16283   3.214  11.517   1.280 -0.0754 -0.1623 -0.1465
 6180PP      PP16284  10.758   8.713   3.857 -0.0570  0.1351 -0.2435
 6181PP      PP16285   9.681   3.115   0.768  0.2675  0.0558 -0.0023
 6182PP      PP16286   4.619  12.288  11.490 -0.2695 -0.0100  0.0086
 6183PP      PP16287  13.786   6.570  10.385  0.0116 -0.2089 -0.2220
 6184PP      PP16288   7.000   9.062   2.837 -0.0588  0.0849 -0.0210
 6185PP      PP16289   0.398  15.697   3.061 -0.0431  0.2156  0.0516
 6186PP      PP16290   5.066   1.379   1.965 -0.1600 -0.1994  0.4069
 6187PP      PP16291   4.721   3.903  10.431  0.1288  0.0252  0.1904
 6188PP      PP16292  12.090   8.208  12.800 -0.2310 -0.1933 -0.1729
 6189PP      PP16293   5.386   6.730  11.695 -0.0352 -0.1230  0.0829
 6190PP      PP16294   7.430   4.016   1.611 -0.2352 -0.0264  0.4032
 6191PP      PP16295   2.828   7.440   1.066 -0.1412  0.2075  0.2647
 6192PP      PP16296  13.586   5.676  12.295  0.0035 -0.0097  0.0585
 6193PP      PP16297   6.889   5.552   1.102  0.1305 -0.2767  0.2041
 6194PP      PP16298   5.580   7.598   3.761  0.3141  0.2313  0.2357
 6195PP      PP16299   2.341   8.478   8.769 -0.0210  0.0137 -0.2022
 6196PP      PP16300   5.777   6.573  10.038  0.0419 -0.2290  0.0343
 6197PP      PP16301   1.299   5.233   9.786 -0.2596 -0.3012  0.2106
 6198PP      PP16302   5.914  10.220  11.328  0.3733  0.1036 -0.2343
 6199PP      PP16303  12.931   4.664   1.503  0.1026 -0.1713 -0.0085
 6200PP      PP16304   0.768  15.081  10.940 -0.2561  0.2191 -0.3016
 6201PP      PP16305  13.167  14.778   1.045 -0.1809  0.1117 -0.2435
 6202PP      PP16306  10.864   5.686   2.607  0.2755  0.0732 -0.0454
 6203PP      PP16307   9.291   6.131   0.139  0.1990 -0.1192  0.1019
 6204PP      PP16308   0.995   7.603   9.357  0.4716  0.0660 -0.0516
 6205PP      PP16309   2.922   5.758   1.955 -0.0725  0.3482 -0.2013
 6206PP      PP16310   1.059   7.279  12.629  0.0393 -0.2401 -0.0427
 6207PP      PP16311   5.974   5.655   1.519 -0.1133 -0.2576  0.1018
 6208PP      PP16312   5.713  15.590   0.291  0.2270 -0.3616 -0.1145
 6209PP      PP16313  13.414   8.898   0.314  0.3094 -0.1331 -0.5446
 6210PP      PP16314   5.749  15.118   0.567  0.0418  0.3177  0.2919
 6211PP      PP16315  11.665  12.140   3.110  0.0291 -0.0492  0.0280
 6212PP      PP16316  13.575  11.915   8.460 -0.1739 -0.0050  0.1339
 6213PP      PP16317   6.306   2.683   8.937  0.1287 -0.0314  0.0065
 6214PP      PP16318   2.216   4.059   9.109  0.2842  0.1510  0.1077
 6215PP      PP16319   6.975  13.562   2.260  0.2873 -0.0409  0.0761
 6216PP      PP16320  14.387   8.704  11.209 -0.1385 -0.0228 -0.2290
 6217PP      PP16321   2.250  12.032  10.511 -0.1152 -0.1471 -0.2504
 6218PP      PP16322  14.953   7.170  12.206  0.0032  0.2552 -0.1524
 6219PP      PP16323   7.579   0.408   1.496  0.1457  0.0471 -0.3166
 6220PP      PP16324  10.557  15.256   9.848 -0.1463 -0.0491 -0.2924
 6221PP      PP16325   3.168   0.742   0.286  0.1511  0.1618  0.0943
 6222PP      PP16326   5.383   7.030   2.149  0.2644  0.0849 -0.1187
 6223PP      PP16327  15.119   8.379  11.644  0.3105 -0.1241  0.0676
 6224PP      PP16328   6.719   9.641  13.243 -0.3542  0.0797  0.0913
 6225PP      PP16329   8.988   2.713  10.952 -0.0835 -0.1149  0.0771
 6226PP      PP16330  13.916  11.960  10.158  0.2895 -0.4786  0.0601
 6227PP      PP16331  15.670   8.879   2.910  0.0225 -0.2314 -0.0541
 6228PP      PP16332   7.276  14.313   2.381  0.0908 -0.3873 -0.3520
 6229PP      PP16333   1.472   3.989  11.639  0.0185  0.1746 -0.0271
 6230PP      PP16334  12.282  12.169   0.244 -0.2468  0.3511 -0.1958
 6231PP      PP16335   8.783   6.052   0.274 -0.1275 -0.1730 -0.2476
 6232PP      PP16336  13.030   4.627   9.551  0.4628 -0.1087 -0.0801
 6233PP      PP16337  11.753   8.411   1.173 -0.3490 -0.0227  0.0491
 6234PP      PP16338   6.279  12.866  12.962 -0.0406  0.1678 -0.0349
 6235PP      PP16339  15.108   2.907   2.694 -0.1840  0.0394 -0.1984
 6236PP      PP16340  12.565  12.888   8.697 -0.0391  0.2306 -0.0477
 6237PP      PP16341  11.974  14.258   1.694 -0.3026  0.1042 -0.1746
 6238PP      PP16342   9.491   5.199   9.655 -0.2758 -0.2325  0.2274
 6239PP      PP16343   9.595   3.941   3.260 -0.0005 -0.3007 -0.3807
 6240PP      PP16344   5.340   6.249  13.342  0.0747  0.0918  0.1475
 6241PP      PP16345  13.000  12.797   9.118  0.0920 -0.0989  0.1550
 6242PP      PP16346   2.167  13.699   1.229  0.0999  0.0534 -0.0710
 6243PP      PP16347   3.058  10.031   1.328 -0.3383 -0.0323 -0.1133
 6244PP      PP16348  11.021   3.061  12.162 -0.0353  0.1280 -0.1835
 6245PP      PP16349   7.394  12.065  12.014 -0.2109 -0.2523  0.3107
 6246PP      PP16350   0.236   2.508   3.202 -0.1272 -0.1342 -0.0708
 6247PP      PP16351  11.570   2.857  13.317 -0.0744  0.0928 -0.0948
 6248PP      PP16352   8.750   9.321   0.945 -0.0277 -0.1314  0.0733
 6249PP      PP16353   6.468   4.443   3.775 -0.0034 -0.1985 -0.1720
 6250PP      PP16354   1.434   1.712  10.402  0.2216  0.1744 -0.0073
 6251PP      PP16355   2.178  12.485   3.696 -0.1625  0.3793  0.0833
 6252PP      PP16356  10.963  11.164  12.905 -0.3085  0.0909  0.2151
 6253PP      PP16357  15.419  14.629  13.177 -0.2412  0.0654 -0.0281
 6254PP      PP16358  15.065  11.221   3.537  0.2544 -0.1780 -0.1413
 6255PP      PP16359   3.243   5.377   2.854  0.3457 -0.0362 -0.0073
 6256PP      PP16360   5.796   0.752  10.886  0.0031  0.0714 -0.2111
 6257PP      PP16361   8.866   0.394  10.295  0.0662  0.0188 -0.0718
 6258PP      PP16362  12.079  11.200   3.124  0.0050  0.2498  0.0868
 6259PP      PP16363   6.801   4.131   2.639 -0.0925  0.2402 -0.0827
 6260PP      PP16364   1.284  15.652   0.259 -0.2150 -0.0469  0.0560
 6261PP      PP16365   0.491   5.929  12.726  0.1390  0.1691 -0.2231
 6262PP      PP16366  10.748  15.308  10.790  0.2974 -0.0598 -0.2437
 6263PP      PP16367  10.524   7.053  11.517  0.0959 -0.5288  0.1450
 6264PP      PP16368   7.075   3.172   1.174 -0.0498 -0.0908 -0.0481
 6265PP      PP16369   1.915   4.307   1.730 -0.1561 -0.3112  0.1180
 6266PP      PP16370   4.323  14.798   2.473  0.1830 -0.1373  0.0685
 6267PP      PP16371  13.497  13.110   9.615  0.1483 -0.0478 -0.1114
 6268PP      PP16372   3.164   9.530   0.405 -0.0573  0.1883 -0.0787
 6269PP      PP16373   8.912   3.811  11.682 -0.3239 -0.0996 -0.0423
 6270PP      PP16374   1.102   2.472   2.604 -0.3432  0.2101 -0.0001
 6271PP      PP16375   2.750   2.830  13.381  0.1103 -0.1083  0.1863
 6272PP      PP16376  13.536   7.500  12.749  0.2020  0.2748 -0.1605
 6273PP      PP16377   5.252  14.809  10.246  0.0960 -0.0775  0.1419
 6274PP      PP16378   4.959   2.989   0.093  0.0544 -0.0586 -0.1681
 6275PP      PP16379   8.750   4.594  11.143  0.0054  0.0610 -0.2327
 6276PP      PP16380   8.296   1.792   0.038  0.3617  0.0463  0.2182
 6277PP      PP16381  10.737   6.172   4.992  0.0102  0.0087 -0.0242
 6278PP      PP16382   8.612  14.226   0.275  0.1488 -0.1561  0.0671
 6279PP      PP16383  11.907   4.131  11.633  0.2913 -0.2224 -0.3738
 6280PP      PP16384   9.663  10.819   0.030 -0.1068  0.0160  0.2455
 6281PP      PP16385  11.376  11.846   1.512  0.1712  0.1277 -0.4187
 6282PP      PP16386   7.755  15.040  10.434 -0.0746  0.1139  0.2415
 6283PP      PP16387   3.120   2.150   3.538  0.2262  0.1901  0.1220
 6284PP      PP16388  14.871  12.659  10.448  0.2424  0.2003  0.1783
 6285PP      PP16389   0.358   4.882   4.350 -0.1296  0.2411 -0.2708
 6286PP      PP16390  14.148   5.167   2.302 -0.1064 -0.1016 -0.2053
 6287PP      PP16391  10.543   2.557   0.532  0.0190 -0.2975 -0.1289
 6288PP      PP16392   2.125   9.998   1.722 -0.3674  0.0071 -0.2436
 6289PP      PP16393   6.977  10.114  13.241  0.2237  0.3269 -0.0736
 6290PP      PP16394  15.878   1.706   8.327  0.1993  0.1820  0.1077
 6291PP      PP16395   9.110   2.478  12.163  0.2715 -0.0449 -0.1542
 6292PP      PP16396   4.709  10.555  11.258 -0.1188 -0.1879 -0.0392
 6293PP      PP16397   1.442  11.036   1.180  0.0370 -0.0742 -0.0866
 6294PP      PP16398   1.428   2.210   7.865 -0.2478 -0.3204  0.1367
 6295PP      PP16399  15.462  11.114   0.390 -0.1022 -0.2001  0.0382
 6296PP      PP16400  11.311  13.323  10.052  0.0110  0.0389  0.2386
 6297PP      PP16401  10.292   2.205  10.271  0.0686  0.2983 -0.1355
 6298PP      PP16402   0.342   6.123   4.050  0.2862 -0.1816 -0.4178
 6299PP      PP16403   9.028   0.905  10.654 -0.1292  0.0424 -0.0993
 6300PP      PP16404   9.457  15.543  10.165  0.3042 -0.0890 -0.1165
 6301PP      PP16405   7.322   1.738   0.076  0.3881  0.4200  0.2642
 6302PP      PP16406   4.206  11.250   3.047 -0.0767  0.0093  0.0670
 6303PP      PP16407   4.665  15.772   9.120 -0.1908  0.0419  0.3772
 6304PP      PP16408   3.063   9.586  12.546  0.0494 -0.0305  0.0524
 6305PP      PP16409  15.820   1.933   1.338 -0.0456  0.0200 -0.3421
 6306PP      PP16410   6.925   8.862  12.659 -0.0159 -0.1032  0.2091
 6307PP      PP16411   8.011   3.199   0.051  0.0135  0.0699  0.0144
 6308PP      PP16412   5.585   0.927   0.132 -0.2926  0.0407  0.1734
 6309PP      PP16413   4.358   0.956   3.535  0.3030 -0.1548 -0.1380
 6310PP      PP16414   3.354   0.330   9.268 -0.0222 -0.0467 -0.0403
 6311PP      PP16415  11.823   9.282  12.059 -0.0123  0.3467 -0.4327
 6312PP      PP16416   5.329   1.995   3.068  0.1248  0.0528 -0.0325
 6313PP      PP16417   9.694  13.601  10.910  0.2427  0.1662 -0.0815
 6314PP      PP16418  12.131   7.332   9.308 -0.0967  0.2054 -0.2933
 6315PP      PP16419  10.568   3.665   3.749  0.0322  0.1373  0.0393
 6316PP      PP16420   4.544   5.319  10.244  0.0874 -0.0363  0.1858
 6317PP      PP16421   5.947   5.136   2.692 -0.0582 -0.1504 -0.3250
 6318PP      PP16422  12.276   9.800   9.715  0.1413 -0.1247  0.0634
 6319PP      PP16423   3.132  11.218   4.787  0.0530  0.2659  0.3599
 6320PP      PP16424  10.072   5.414  13.387 -0.0695  0.1425 -0.0188
 6321PP      PP16425   0.557  13.369   8.684  0.1001  0.0177  0.2669
 6322PP      PP16426  15.522  11.335   2.655 -0.3027  0.2739 -0.2315
 6323PP      PP16427   6.425   3.626   0.920  0.2747  0.2081  0.0481
 6324PP      PP16428  12.557  12.818  11.378  0.3788  0.0766 -0.1972
 6325PP      PP16429   3.418  11.895   1.830 -0.2615 -0.0631  0.1625
 6326PP      PP16430   2.781   4.408   1.940 -0.2983 -0.0375  0.0634
 6327PP      PP16431  11.376  15.231   0.764 -0.0893  0.0302  0.0946
 6328PP      PP16432  10.231   4.656   8.477 -0.0164  0.0040 -0.1353
 6329PP      PP16433  13.717  11.876  11.990  0.1273 -0.0923  0.2046
 6330PP      PP16434   6.185  10.586   3.248  0.1481 -0.0320  0.0781
 6331PP      PP16435   4.692   9.541   0.151 -0.0610 -0.1102 -0.0610
 6332PP      PP16436   7.838   9.221   9.864  0.4609  0.0416  0.0904
 6333PP      PP16437   1.896  11.599   9.548  0.0180 -0.0051 -0.2063
 6334PP      PP16438   2.727   1.771  11.857  0.3072  0.1230  0.0088
 6335PP      PP16439  13.017  12.934  10.411  0.2682 -0.2316 -0.0549
 6336PP      PP16440   9.829   7.522   8.966 -0.4903  0.0816  0.1391
 6337PP      PP16441  13.279   6.751   2.968  0.0372 -0.0288  0.0839
 6338PP      PP16442   3.690  12.651   9.610  0.0081 -0.2458 -0.0734
 6339PP      PP16443   6.915   9.683   1.328  0.0118 -0.0548  0.1532
 6340PP      PP16444  11.034  12.830   1.632  0.2547 -0.2327 -0.3645
 6341PP      PP16445   2.992   2.025   9.528 -0.2555  0.0071  0.2006
 6342PP      PP16446   6.632  13.437   1.759 -0.0056 -0.1404 -0.0546
 6343PP      PP16447  14.831  12.598  12.397  0.1072  0.0455  0.1438
 6344PP      PP16448  14.829  13.866   2.531  0.2552 -0.0039 -0.1102
 6345PP      PP16449  12.948  13.888   0.683 -0.0081 -0.0852 -0.2530
 6346PP      PP16450   2.693   7.610   4.677  0.1491  0.0244 -0.1609
 6347PP      PP16451   8.175   2.634   3.609  0.2152  0.1741  0.0133
 6348PP      PP16452   1.123   6.219   3.409  0.2373 -0.3535  0.2339
 6349PP      PP16453  11.219   1.859   3.335  0.1303  0.1860  0.2368
 6350PP      PP16454   0.236   0.096   2.360 -0.0340 -0.1280 -0.0946
 6351PP      PP16455   6.776   5.409  13.005 -0.1307  0.1015  0.2424
 6352PP      PP16456   8.990   7.885  11.057 -0.0517  0.0031 -0.1444
 6353PP      PP16457   3.553   0.039   3.341 -0.0090  0.1423 -0.0829
 6354PP      PP16458   1.046   9.237  11.149 -0.0302  0.0077 -0.1015
 6355PP      PP16459   3.030   5.832  10.440  0.0087 -0.1668 -0.0318
 6356PP      PP16460  15.754   3.457   0.067  0.0298  0.1534  0.2822
 6357PP      PP16461   4.061   9.814  11.441  0.1320 -0.3602  0.1099
 6358PP      PP16462   0.366  13.885   8.757 -0.0120 -0.2254 -0.0414
 6359PP      PP16463  10.961   4.040   2.323 -0.1897 -0.0624  0.1848
 6360PP      PP16464   3.436  15.604   3.891  0.0867  0.0396  0.1141
 6361PP      PP16465  12.063  13.599   3.465  0.0448 -0.0827 -0.1244
 6362PP      PP16466   8.616  10.665  12.339 -0.1679  0.1525 -0.3985
 6363PP      PP16467   9.384   2.426  10.670  0.1382 -0.1944  0.1833
 6364PP      PP16468  12.785   7.621   1.635 -0.1969 -0.1549 -0.1634
 6365PP      PP16469   8.483   2.826   3.057 -0.0480  0.1639  0.0511
 6366PP      PP16470   9.393   1.620   9.434 -0.0009 -0.0558 -0.1054
 6367PP      PP16471   2.666   4.726  11.128 -0.0744  0.4467  0.1467
 6368PP      PP16472   6.745  15.668   1.014 -0.0939  0.0767  0.0617
 6369PP      PP16473  11.702   2.384   2.571 -0.1838  0.1786 -0.0656
 6370PP      PP16474   2.748   1.968  13.179  0.3272 -0.0623  0.1954
 6371PP      PP16475  13.868   1.747   8.382 -0.0221 -0.1477  0.1117
 6372PP      PP16476  10.609  10.498   0.989 -0.2383 -0.1876  0.1653
 6373PP      PP16477   2.734   2.637   0.723 -0.0782 -0.1933  0.1218
 6374PP      PP16478   5.769  15.270  11.946  0.3362  0.3335  0.2570
 6375PP      PP16479  10.545   2.991   1.478  0.2366  0.1372  0.0933
 6376PP      PP16480  12.030  11.099  11.606  0.0962 -0.0155  0.0538
 6377PP      PP16481  11.484   4.203  11.997  0.0923 -0.2505 -0.0626
 6378PP      PP16482   0.847  10.169  11.100  0.0115  0.3928  0.0251
 6379PP      PP16483   2.421  11.930   2.390 -0.1684 -0.2944 -0.1382
 6380PP      PP16484   5.656   3.629   3.875 -0.0044  0.1483 -0.0975
 6381PP      PP16485   3.835  10.236   1.377 -0.1671  0.1444 -0.2374
 6382PP      PP16486   3.970   2.427   1.871  0.1580 -0.0264 -0.2050
 6383PP      PP16487   1.506  11.908   3.504  0.1912 -0.0565  0.1433
 6384PP      PP16488   9.242  14.517   3.806  0.2010 -0.3415 -0.1599
 6385PP      PP16489   7.955   9.062   3.241 -0.0364  0.0301 -0.3411
 6386PP      PP16490   3.424  12.243   4.161  0.1928 -0.0454 -0.1728
 6387PP      PP16491  12.355   8.540   1.994  0.0997 -0.0061 -0.1933
 6388PP      PP16492  15.805  14.841   0.516 -0.0287 -0.0244  0.1405
 6389PP      PP16493   6.241   1.223  12.877 -0.0826  0.0436 -0.1735
 6390PP      PP16494   5.689  14.930  10.612  0.0603 -0.2564 -0.1397
 6391PP      PP16495   9.114  12.673  10.242 -0.2847  0.1736 -0.0854
 6392PP      PP16496   6.513   6.723  10.241 -0.1761  0.0934  0.1086
 6393PP      PP16497  15.079  12.676  13.291  0.1287 -0.0095  0.0762
 6394PP      PP16498  11.280  13.707   1.297 -0.1381 -0.3349  0.1149
 6395PP      PP16499   9.183   7.549   4.091 -0.0505 -0.0470 -0.3484
 6396PP      PP16500   3.367   8.336  12.864 -0.0803 -0.3982 -0.2211
 6397PP      PP16501   7.353  11.416  10.550 -0.0403  0.2383 -0.2683
 6398PP      PP16502  14.313  11.486  11.489  0.0950 -0.4352  0.0750
 6399PP      PP16503  12.652   3.986  12.940  0.2214 -0.1644  0.0313
 6400PP      PP16504  14.923  14.626   9.165  0.1628 -0.3047 -0.0080
 6401PP      PP16505   6.748   2.729  12.635 -0.0371  0.1587 -0.0603
 6402PP      PP16506   3.108  11.780   9.779 -0.0576  0.5337  0.0781
 6403PP      PP16507  14.491  14.692  11.959  0.2381 -0.4730 -0.3062
 6404PP      PP16508  12.897   5.975  10.202  0.0743 -0.2430 -0.1350
 6405PP      PP16509   5.897   3.673   1.585 -0.1890 -0.0562  0.0015
 6406PP      PP16510   5.256   5.401   4.784  0.0140 -0.0416 -0.1042
 6407PP      PP16511   1.804   3.564  11.589 -0.0975 -0.1798  0.0911
 6408PP      PP16512  10.673  14.176  11.613  0.0566 -0.2321 -0.1213
 6409PP      PP16513   6.953  10.119   5.273  0.2307  0.2853  0.1385
 6410PP      PP16514  13.969  14.966   8.552 -0.0903 -0.0216 -0.1032
 6411PP      PP16515   0.386   0.499   1.637 -0.0367  0.3122 -0.0996
 6412PP      PP16516   7.291   9.545   2.949  0.0794 -0.1733 -0.2260
 6413PP      PP16517   9.552   6.511   2.421  0.1485 -0.1935 -0.0971
 6414PP      PP16518  14.663  11.492   3.577  0.1101  0.0404  0.0368
 6415PP      PP16519   8.190   3.467   9.404 -0.0366  0.1681 -0.1661
 6416PP      PP16520  11.729   9.489   0.499 -0.0614  0.3973 -0.0378
 6417PP      PP16521   8.412  12.439  11.567  0.3594 -0.3100  0.1889
 6418PP      PP16522   1.917  13.484   1.685  0.2991 -0.0213  0.0893
 6419PP      PP16523   5.162   0.390  11.557 -0.0024 -0.0778  0.2805
 6420PP      PP16524   9.561   9.658  12.258 -0.2316 -0.0352 -0.0288
 6421PP      PP16525   5.800   8.655   9.250  0.0391  0.1529  0.0374
 6422PP      PP16526  11.992   7.599   2.486  0.0811 -0.0081 -0.1147
 6423PP      PP16527   0.295   0.357  10.737 -0.1581  0.3800 -0.2134
 6424PP      PP16528   5.457   4.536   9.532 -0.0153 -0.1953  0.0945
 6425PP      PP16529   3.338  12.118  11.713  0.0205 -0.0301 -0.0526
 6426PP      PP16530   2.493  14.716  13.110 -0.1062 -0.2560 -0.0529
 6427PP      PP16531   4.860   5.454   1.805 -0.4237  0.2281 -0.0466
 6428PP      PP16532   8.994   1.482   1.830  0.2206  0.1265  0.0383
 6429PP      PP16533  15.402  14.023  10.514  0.0530  0.1208 -0.2012
 6430PP      PP16534  14.430  14.341   1.345 -0.0815 -0.0693 -0.0814
 6431PP      PP16535   8.806   8.412   1.013 -0.0217 -0.0142  0.0123
 6432PP      PP16536   7.720  15.047  11.160 -0.2692  0.0672  0.2415
 6433PP      PP16537   9.293   6.345  12.630 -0.0029  0.2907  0.0223
 6434PP      PP16538   6.770  11.423   4.373  0.0508 -0.0114 -0.0303
 6435PP      PP16539   8.637   8.852   0.758  0.0406 -0.3499  0.1016
 6436PP      PP16540  15.644  15.492   1.009  0.3187  0.4241  0.1681
 6437PP      PP16541   4.413   9.124   3.325 -0.1765 -0.0122  0.0624
 6438PP      PP16542   5.469   2.165  10.434 -0.3074  0.0541  0.3748
 6439PP      PP16543   8.219  12.093   9.715  0.0870  0.2999 -0.0898
 6440PP      PP16544   3.727   5.804   5.036  0.0399  0.4199  0.2102
 6441PP      PP16545   9.728   1.498   9.767  0.0025 -0.2542  0.2008
 6442PP      PP16546   8.046   8.215   4.521 -0.0748 -0.1520 -0.1900
 6443PP      PP16547   2.332   7.440   9.649 -0.2210 -0.2861  0.2476
 6444PP      PP16548   1.131   5.951   1.705 -0.0063  0.1419  0.1266
 6445PP      PP16549   7.079  10.844   3.618  0.2179  0.2242  0.0452
 6446PP      PP16550   1.817   3.953  13.299 -0.0316  0.0827 -0.0148
 6447PP      PP16551  14.389   6.634  10.930 -0.1375 -0.3637 -0.3397
 6448PP      PP16552   3.041  10.467   8.752 -0.1626 -0.3198 -0.1753
 6449PP      PP16553   7.976   3.378   1.356 -0.1685  0.1450  0.4358
 6450PP      PP16554   0.938   4.075   9.537  0.1294  0.0372 -0.2134
 6451PP      PP16555  11.857  15.765   7.787  0.3352  0.0373  0.0643
 6452PP      PP16556  13.043  14.252   7.676 -0.2107  0.1640  0.1295
 6453PP      PP16557  12.225   1.074  12.403  0.1010  0.0837  0.1334
 6454PP      PP16558   9.740  10.118   2.664  0.0084  0.1550 -0.0629
 6455PP      PP16559  13.542   9.426   9.749 -0.1758 -0.1606  0.0542
 6456PP      PP16560   3.752   5.157   0.704 -0.0343 -0.2905  0.0597
 6457PP      PP16561   9.312   8.322   0.809  0.0194 -0.2026  0.1394
 6458PP      PP16562   6.149  10.875  10.637 -0.0049  0.1565 -0.1219
 6459PP      PP16563  15.195   8.158   9.120 -0.0239 -0.0601  0.3115
 6460PP      PP16564   7.987  13.926  12.937 -0.2278 -0.0365  0.3557
 6461PP      PP16565   9.968   4.210  12.587  0.0919 -0.0399 -0.0346
 6462PP      PP16566   9.713   3.315   9.053  0.0857 -0.0196 -0.1423
 6463PP      PP16567   3.517  14.007   3.094 -0.3196  0.1975  0.0819
 6464PP      PP16568   9.421  10.399  10.787 -0.2379  0.2153  0.1012
 6465PP      PP16569   0.744  15.354  10.471  0.0483  0.0541  0.1437
 6466PP      PP16570   5.210   1.814   0.100 -0.0009  0.0519 -0.2398
 6467PP      PP16571  13.245   5.046  13.062 -0.0959 -0.1268 -0.1640
 6468PP      PP16572   6.754   3.715   2.893 -0.1419  0.3723  0.0305
 6469PP      PP16573   1.153  15.146  12.792 -0.0941 -0.2404 -0.0819
 6470PP      PP16574   4.394   9.407  11.415 -0.1887  0.2325 -0.2133
 6471PP      PP16575  14.934   8.530  12.135  0.1821 -0.0064  0.0786
 6472PP      PP16576   6.066  14.979  12.554  0.1546  0.0053 -0.1628
 6473PP      PP16577  11.668  13.138   1.922 -0.0175 -0.0234 -0.0862
 6474PP      PP16578   3.859  12.565   4.943  0.0093  0.0497 -0.1718
 6475PP      PP16579   6.328   0.116  11.529  0.0044  0.0053  0.0232
 6476PP      PP16580   3.783   0.403  10.130 -0.0111 -0.1404 -0.1346
 6477PP      PP16581  13.700   4.999   2.289 -0.0581 -0.0231 -0.1634
 6478PP      PP16582   3.964   7.365  12.053 -0.1064 -0.3130 -0.0651
 6479PP      PP16583   1.507  13.012  12.126  0.2879 -0.1324  0.1441
 6480PP      PP16584   9.499   0.500  13.060 -0.4377  0.1808  0.0100
 6481PP      PP16585  15.552   3.575  12.344 -0.1144 -0.0929  0.0325
 6482PP      PP16586   5.017   8.733   4.692  0.0212  0.2410  0.2877
 6483PP      PP16587  13.323  15.220   1.196  0.4847  0.0958 -0.0167
 6484PP      PP16588  15.520   1.287  13.016  0.0164 -0.5078  0.0509
 6485PP      PP16589  15.759   2.855   9.616 -0.0807 -0.0832 -0.1848
 6486PP      PP16590   9.030   4.199  12.164  0.1321  0.3203  0.1694
 6487PP      PP16591   8.732   7.554   4.569  0.0116 -0.0768 -0.4272
 6488PP      PP16592  15.546   3.550  10.961  0.0810  0.0278 -0.0468
 6489PP      PP16593  13.739  10.167  11.201 -0.1659 -0.1278 -0.0533
 6490PP      PP16594  11.278   6.593   1.304  0.0253  0.3469 -0.3390
 6491PP      PP16595  12.789   0.245   0.329 -0.0860  0.1359 -0.1712
 6492PP      PP16596  10.983   0.615   9.334  0.1479 -0.0764 -0.3209
 6493PP      PP16597   5.058   5.577  10.092 -0.1397  0.3612 -0.2555
 6494PP      PP16598   1.597   0.405  12.353 -0.1002 -0.0467 -0.0165
 6495PP      PP16599   0.862  10.156  11.860 -0.0104  0.3670 -0.0054
 6496PP      PP16600   6.830  12.928   2.790 -0.0579  0.1071 -0.2811
 6497PP      PP16601  14.886  15.689   2.617 -0.0637  0.1375 -0.0210
 6498PP      PP16602  14.974   7.264  10.449 -0.3604  0.1071 -0.2130
 6499PP      PP16603   6.505   5.889   1.033 -0.1767 -0.1059  0.1705
 6500PP      PP16604   5.901  11.389  10.700  0.0546 -0.1487 -0.0187
 6501PP      PP16605   2.423  12.550   2.771 -0.1721 -0.2559  0.1594
 6502PP      PP16606  12.284   4.763   9.017  0.1120 -0.0752  0.2397
 6503PP      PP16607   6.835   2.925   3.991 -0.0260  0.1087 -0.0654
 6504PP      PP16608   3.012  13.005  10.772  0.0339 -0.0687  0.0192
 6505PP      PP16609   5.436  14.936  12.112  0.0175  0.1037 -0.0313
 6506PP      PP16610   0.735   4.699  10.964  0.0126  0.1493 -0.4995
 6507PP      PP16611   2.363  12.614  13.127 -0.0627  0.3610 -0.0847
 6508PP      PP16612   3.893   5.766   0.776 -0.1429 -0.0694  0.2188
 6509PP      PP16613   7.130   7.435   0.369 -0.1564 -0.1495  0.4678
 6510PP      PP16614   2.988  11.673  10.225  0.2408 -0.0814  0.0712
 6511PP      PP16615   8.914   1.735   9.620 -0.0385 -0.1919 -0.1931
 6512PP      PP16616   7.038  15.247   1.038 -0.3426  0.0141  0.3155
 6513PP      PP16617  13.740   2.820   0.959 -0.1685  0.1520  0.0125
 6514PP      PP16618  12.088   9.166   1.486  0.0390 -0.0127  0.0248
 6515PP      PP16619   4.770   8.138  10.270 -0.1427  0.1772 -0.1766
 6516PP      PP16620  14.002  10.618  12.033  0.2307  0.3453 -0.0400
 6517PP      PP16621  11.179  12.233  11.485 -0.2040 -0.1236 -0.0384
 6518PP      PP16622   1.647  10.610  13.369 -0.3032  0.1310 -0.3197
 6519PP      PP16623   1.460   6.520  12.353 -0.0610  0.2782 -0.2426
 6520PP      PP16624   0.437   4.477  13.163 -0.1686 -0.0139  0.1107
 6521PP      PP16625   7.703  12.285   3.282  0.0876 -0.1335 -0.0512
 6522PP      PP16626  15.268  12.570   3.808  0.0983  0.0212  0.0747
 6523PP      PP16627   3.106  13.949   4.235 -0.0579 -0.0504  0.0621
 6524PP      PP16628  14.790  11.707  13.348 -0.0574  0.2587 -0.2094
 6525PP      PP16629   3.990   1.369   1.231 -0.0775 -0.0506 -0.1381
 6526PP      PP16630   6.538   5.901   3.863 -0.3230  0.0579 -0.0852
 6527PP      PP16631  11.171   8.241  11.742  0.1997 -0.0188 -0.0050
 6528PP      PP16632   8.193   2.804   2.595 -0.0549 -0.0958 -0.0877
 6529PP      PP16633   6.941   6.892  11.557 -0.2545  0.1640  0.3040
 6530PP      PP16634   1.460  11.780   2.278  0.1321 -0.0079 -0.2244
 6531PP      PP16635   2.835   4.195  10.214  0.4046  0.2963 -0.0382
 6532PP      PP16636  14.127  12.669   3.515 -0.1263 -0.1530 -0.1334
 6533PP      PP16637  15.699  15.052  11.057  0.0102 -0.1428  0.0210
 6534PP      PP16638  10.541   3.602  12.576 -0.4689 -0.0372 -0.3415
 6535PP      PP16639  10.267   0.363   0.536  0.0313 -0.1801 -0.1383
 6536PP      PP16640   1.516  12.528   9.959 -0.0866  0.0745 -0.1085
 6537PP      PP16641   2.667   6.147   1.739 -0.1142  0.0979 -0.3529
 6538PP      PP16642   2.263  11.789   0.358  0.1773 -0.0940  0.2923
 6539PP      PP16643   1.076   1.258   9.707  0.2523  0.0873  0.6254
 6540PP      PP16644   9.682   9.735   5.024  0.1258  0.3962 -0.1519
 6541PP      PP16645   3.304  11.765   9.148  0.1471  0.2013 -0.2882
 6542PP      PP16646   5.803   9.552  12.430  0.0602  0.0964  0.3288
 6543PP      PP16647  15.492  12.354   4.202 -0.0611  0.0052  0.4534
 6544PP      PP16648  15.855   5.654   2.888  0.0974 -0.0025  0.4032
 6545PP      PP16649  11.147   5.609  10.567  0.4040 -0.2975  0.3687
 6546PP      PP16650  14.434   2.512   0.186 -0.1050  0.1364 -0.1060
 6547PP      PP16651   0.541   1.758   1.293  0.1114  0.2081 -0.2187
 6548PP      PP16652   6.939  15.696  11.953 -0.0705  0.1024  0.2742
 6549PP      PP16653   1.512   3.801   1.003  0.2197 -0.1787 -0.0751
 6550PP      PP16654   8.107   7.710  12.833  0.0819  0.0909 -0.1318
 6551PP      PP16655  10.189   5.166  12.916  0.1318 -0.3360 -0.0937
 6552PP      PP16656   7.514  14.337   9.854 -0.1050  0.0983  0.0014
 6553PP      PP16657   0.613  12.039   1.766  0.0841 -0.2951 -0.0462
 6554PP      PP16658   2.721  10.082   3.798  0.2552  0.2120  0.0879
 6555PP      PP16659   5.557  10.378   0.336  0.0189  0.1002 -0.0751
 6556PP      PP16660   9.758   9.996   1.967 -0.0711  0.2151  0.0111
 6557PP      PP16661  13.553   3.837   7.896 -0.3943  0.1895 -0.0713
 6558PP      PP16662  12.003   3.667  10.294 -0.1157 -0.2019  0.1464
 6559PP      PP16663   5.865   2.710   1.208 -0.0314  0.2252  0.1952
 6560PP      PP16664   5.509  10.046  11.009 -0.0220 -0.2667 -0.0062
 6561PP      PP16665   1.959  14.363  11.820 -0.1272 -0.1288 -0.1501
 6562PP      PP16666  10.808   9.674  12.386  0.1188 -0.1297 -0.1026
 6563PP      PP16667   8.631   6.249  13.314  0.1220  0.0405  0.1583
 6564PP      PP16668   6.989  12.999  12.422  0.1152  0.3059 -0.2965
 6565PP      PP16669   7.269  12.526   9.841  0.0283 -0.1334 -0.0681
 6566PP      PP16670  15.608   1.843   9.501  0.2209  0.1996 -0.0391
 6567PP      PP16671  15.155   6.039   0.168 -0.1146  0.0390 -0.2707
 6568PP      PP16672  12.105   8.825  13.094 -0.1432  0.0528  0.1414
 6569PP      PP16673  15.393   8.826   2.016 -0.0265  0.3517 -0.1003
 6570PP      PP16674   8.453  15.498   2.355 -0.0086  0.0714  0.0975
 6571PP      PP16675   9.711   9.693  10.546  0.0582 -0.2241 -0.0067
 6572PP      PP16676  13.409   5.576   0.468  0.0916  0.0501  0.1819
 6573PP      PP16677   5.502   1.498  10.410 -0.1519 -0.2898 -0.1391
 6574PP      PP16678  12.512  14.992  13.339  0.4099 -0.0171  0.0494
 6575PP      PP16679   4.515  15.763   3.339 -0.0960 -0.0733 -0.1112
 6576PP      PP16680   9.637   5.347   0.228  0.2506  0.2083  0.1692
 6577PP      PP16681  10.490   7.753  13.395  0.0020 -0.0900  0.2304
 6578PP      PP16682   4.511   1.283  13.057 -0.1995  0.0110 -0.1393
 6579PP      PP16683   4.824  10.211  10.951 -0.0982 -0.3034  0.1630
 6580PP      PP16684   6.496  13.884   3.870  0.3081  0.2597  0.2131
 6581PP      PP16685   0.946  11.916   9.244 -0.0811  0.1371 -0.2324
 6582PP      PP16686   1.413  13.793   3.467  0.1275 -0.1342  0.2756
 6583PP      PP16687   9.049  13.857   0.346  0.2822  0.1882 -0.3073
 6584PP      PP16688  11.988   8.160   3.130 -0.0998 -0.3506  0.3166
 6585PP      PP16689  13.933   1.202  10.123  0.1142 -0.1105  0.2798
 6586PP      PP16690  13.856   4.136   8.224 -0.3310 -0.3888  0.1553
 6587PP      PP16691  12.393   5.702  10.146  0.1401  0.1987 -0.0361
 6588PP      PP16692   5.630   4.044   3.531 -0.1253  0.1237 -0.2354
 6589PP      PP16693  10.953   8.840   2.284 -0.1630  0.2648  0.0188
 6590PP      PP16694  13.649  13.517  10.513  0.1076 -0.0507  0.0769
 6591PP      PP16695  12.529   4.109  12.446  0.1639 -0.2476  0.0805
 6592PP      PP16696   8.058   6.651   1.695 -0.0717 -0.0065  0.2154
 6593PP      PP16697   8.475  14.292  13.296  0.1505 -0.0936  0.3028
 6594PP      PP16698  15.856   0.209   9.496 -0.1047 -0.1773  0.0820
 6595PP      PP16699   6.912   1.153   4.214  0.0813  0.0737  0.0171
 6596PP      PP16700   1.112   4.642   0.023  0.0940  0.1293 -0.3213
 6597PP      PP16701   1.096   3.320  10.910 -0.2606 -0.0327 -0.0130
 6598PP      PP16702   1.423  14.042   1.413 -0.1653  0.0039  0.1051
 6599PP      PP16703  13.694   9.959   3.488  0.1970 -0.2278  0.0106
 6600PP      PP16704   8.966   2.404   1.006  0.0340 -0.3333  0.1567
 6601PP      PP16705   8.313   6.259  11.217  0.1258 -0.0888 -0.0648
 6602PP      PP16706   7.776   1.662  12.765  0.1419  0.0987  0.1755
 6603PP      PP16707   3.498  13.110  11.349  0.2566 -0.3537  0.1309
 6604PP      PP16708  10.441   0.542  12.590 -0.1055 -0.1581 -0.2640
 6605PP      PP16709   6.543  14.955  12.304 -0.0131  0.1174 -0.3855
 6606PP      PP16710   9.154  12.311  12.978  0.1497 -0.0688  0.1666
 6607PP      PP16711   3.492  11.697  11.997 -0.0739  0.1611 -0.0163
 6608PP      PP16712  14.982   3.529  12.171 -0.0638 -0.1554  0.0073
 6609PP      PP16713   1.586   9.997   1.646  0.0234  0.0142 -0.3347
 6610PP      PP16714   5.460   5.918  10.101  0.2580 -0.1696 -0.0195
 6611PP      PP16715   4.315   6.339  11.921  0.0161 -0.1748  0.1079
 6612PP      PP16716   1.314   3.537   9.476 -0.1212  0.3728  0.1624
 6613PP      PP16717   0.587   8.556   2.382 -0.1306  0.2376 -0.1486
 6614PP      PP16718   7.534   0.724   0.734  0.0203  0.0020  0.0221
 6615PP      PP16719   7.373  10.233  10.236  0.0315  0.0218 -0.0803
 6616PP      PP16720   2.516  11.485   2.741  0.1619  0.0567  0.2928
 6617PP      PP16721   2.174   7.569   4.521 -0.0082 -0.3519  0.1944
 6618PP      PP16722   8.092   4.577  10.318  0.1281  0.4905 -0.1444
 6619PP      PP16723  12.769   3.497  10.428  0.2161 -0.0216 -0.3293
 6620PP      PP16724   8.457   6.624  10.883 -0.2748 -0.2273 -0.1073
 6621PP      PP16725   3.394   3.787  11.662  0.1121  0.0190 -0.0955
 6622PP      PP16726   4.554   0.911  11.343  0.0312 -0.1098  0.3008
 6623PP      PP16727   0.553   6.261   3.264  0.1187  0.0422 -0.2383
 6624PP      PP16728   5.468   2.192  13.388 -0.1766  0.0739  0.0614
 6625PP      PP16729  12.219   3.239   8.959  0.2641 -0.2055  0.1174
 6626PP      PP16730   2.091   0.171  13.224  0.1458  0.2801 -0.0488
 6627PP      PP16731   0.207   7.837   9.956  0.1203  0.1300 -0.1104
 6628PP      PP16732   8.966   9.478   2.835 -0.0253 -0.1198  0.0405
 6629PP      PP16733  10.261   7.531   3.224  0.2157  0.1177  0.0322
 6630PP      PP16734   9.425   2.686  12.622 -0.0158  0.0429 -0.1982
 6631PP      PP16735   3.499   9.154  10.477  0.4212  0.0696  0.1147
 6632PP      PP16736  12.101  14.615   7.939 -0.2406 -0.1190  0.2623
 6633PP      PP16737   4.935   0.034  12.849 -0.1498 -0.6093 -0.1274
 6634PP      PP16738  13.976   9.077  11.002  0.0725 -0.0076  0.0066
 6635PP      PP16739  12.133  10.429   2.872  0.2701  0.1585  0.1449
 6636PP      PP16740   5.043   2.327   9.123 -0.0232  0.1633  0.0812
 6637PP      PP16741   8.355   0.482   3.883 -0.3416 -0.0424  0.0220
 6638PP      PP16742  14.867   4.498   0.194 -0.1343 -0.1574 -0.0321
 6639PP      PP16743   0.395  15.186   8.285  0.0465 -0.5532  0.0619
 6640PP      PP16744  11.483   8.344   3.015 -0.3526  0.0758 -0.2516
 6641PP      PP16745  12.782   6.371   0.452  0.4333  0.2408  0.0853
 6642PP      PP16746  15.221  10.748  11.193  0.0139 -0.3711  0.0805
 6643PP      PP16747  15.022  12.935  11.532  0.1801 -0.3279  0.0302
 6644PP      PP16748  13.833   4.746   0.722 -0.0591 -0.0742 -0.0259
 6645PP      PP16749   4.991   4.163  10.739 -0.1443  0.0582  0.2097
 6646PP      PP16750   6.747   5.643  12.409  0.1091  0.2939  0.1734
 6647PP      PP16751   0.266  13.796   2.173  0.0308 -0.0246  0.2544
 6648PP      PP16752   9.701  11.985   9.477 -0.1214  0.1083  0.1088
 6649PP      PP16753   2.973  13.001   1.794 -0.0904  0.0040 -0.3533
 6650PP      PP16754   4.435   1.799  12.890 -0.1823  0.4279 -0.3271
 6651PP      PP16755   0.398  12.760  11.515 -0.1453 -0.2219  0.1402
 6652PP      PP16756  12.062   6.260  12.662 -0.0263 -0.0641 -0.1296
 6653PP      PP16757  11.492  14.526  10.357 -0.2519 -0.0077  0.1152
 6654PP      PP16758   1.195   7.696  13.375 -0.2414 -0.0478  0.2293
 6655PP      PP16759  15.516  10.615   2.162 -0.4459  0.0491  0.2729
 6656PP      PP16760  12.736  15.139  12.297 -0.0169  0.1944 -0.1690
 6657PP      PP16761  10.727  11.101  12.054  0.1510 -0.0439  0.0415
 6658PP      PP16762  10.273  10.897  12.214  0.0727 -0.1458 -0.1338
 6659PP      PP16763  12.785   9.219   3.159  0.3383 -0.0442 -0.1420
 6660PP      PP16764  11.189  15.715  11.861  0.1257 -0.1824 -0.1180
 6661PP      PP16765   3.261  11.112  12.485  0.1760  0.3323 -0.1693
 6662PP      PP16766   0.239   2.192   8.135 -0.0480 -0.0163 -0.0635
 6663PP      PP16767   7.552   1.203   9.316 -0.1519 -0.0327  0.0624
 6664PP      PP16768  11.269   1.091  10.794  0.0453  0.0325  0.1062
 6665PP      PP16769   5.952   9.979  13.122  0.0200 -0.1059  0.2685
 6666PP      PP16770   1.727   4.598   3.579 -0.1182 -0.1518  0.0462
 6667PP      PP16771   3.542  10.511   5.202 -0.1476 -0.1361  0.0782
 6668PP      PP16772   6.755   8.298   9.324 -0.2246 -0.1441  0.0596
 6669PP      PP16773  14.364  11.954   9.964 -0.1152  0.1144 -0.1722
 6670PP      PP16774   7.232  11.558   3.535 -0.1910  0.1118  0.1408
 6671PP      PP16775   2.643   8.349   1.437 -0.3449  0.1105  0.2290
 6672PP      PP16776   1.132  15.457  11.880 -0.1302 -0.0790 -0.2321
 6673PP      PP16777   2.179   6.258  10.262  0.1521  0.0745 -0.2086
 6674PP      PP16778   9.924  13.471   9.384  0.0944 -0.3329  0.0111
 6675PP      PP16779  15.591   5.006   1.417  0.2714  0.0762 -0.1070
 6676PP      PP16780   3.936  12.250   4.152  0.2904 -0.2298  0.2956
 6677PP      PP16781   7.784  15.431   9.093  0.2828 -0.0938  0.2479
 6678PP      PP16782   3.245  11.270  11.974  0.1656  0.1908 -0.0957
 6679PP      PP16783  14.730  15.755   1.248  0.2914 -0.0681 -0.1219
 6680PP      PP16784   6.286   0.812   3.324  0.0820  0.0665 -0.0925
 6681PP      PP16785   3.287   6.250  13.094  0.0321 -0.1909 -0.0029
 6682PP      PP16786   3.787   7.177  11.605 -0.0543  0.4044 -0.3630
 6683PP      PP16787   0.455   9.833   1.153  0.0516  0.1159 -0.0991
 6684PP      PP16788   7.759  14.369  10.280  0.1800  0.0897  0.0502
 6685PP      PP16789   3.430  15.672   2.006 -0.0496 -0.0451  0.1127
 6686PP      PP16790   6.570   3.655   0.026 -0.2699  0.0301  0.0907
 6687PP      PP16791  14.221   2.265   8.678  0.2799 -0.1645 -0.0332
 6688PP      PP16792   7.009   3.038  11.559 -0.1154 -0.2739  0.0312
 6689PP      PP16793   3.746  13.833   1.635  0.2455 -0.1824  0.2666
 6690PP      PP16794   8.812   2.957   9.022 -0.3194  0.0112  0.2004
 6691PP      PP16795   3.285   9.103  12.516 -0.0428  0.0546 -0.0171
 6692PP      PP16796   5.504   4.834  10.816 -0.1169 -0.0191 -0.1453
 6693PP      PP16797   2.022   0.011   2.491  0.2446  0.0341  0.3434
 6694PP      PP16798   4.595   9.343   2.834 -0.3905 -0.0799  0.2757
 6695PP      PP16799   4.420  14.124  13.353  0.1368 -0.0762  0.0520
 6696PP      PP16800   8.929  12.527  11.135  0.0407 -0.0648  0.1403
 6697PP      PP16801  10.378  11.455  10.692  0.1256 -0.0403  0.0414
 6698PP      PP16802   2.221   9.561   2.470  0.1880  0.1438  0.1012
 6699PP      PP16803   4.763   2.112  11.175  0.1699 -0.1952 -0.0417
 6700PP      PP16804   5.020   7.964   2.305  0.0721  0.1849 -0.0797
 6701PP      PP16805  15.704  11.650   0.357 -0.0800 -0.0146  0.2381
 6702PP      PP16806   3.976   7.943   3.928  0.1586  0.0236  0.3165
 6703PP      PP16807   0.093   1.633   2.760 -0.0375 -0.2514  0.0966
 6704PP      PP16808  10.584  10.304  11.470 -0.0762 -0.1487  0.0310
 6705PP      PP16809  10.371   6.960  10.499  0.1702  0.0097 -0.1182
 6706PP      PP16810   0.495   3.947  10.843 -0.1801 -0.2097  0.3252
 6707PP      PP16811   3.294   8.654  10.300  0.4837 -0.1167  0.4439
 6708PP      PP16812   2.848   3.418  13.272 -0.1941 -0.0092 -0.0070
 6709PP      PP16813   8.420   8.950   1.633  0.2368 -0.1048 -0.0444
 6710PP      PP16814   2.014   3.613   3.693  0.0032  0.3573  0.0305
 6711PP      PP16815   2.420   4.641   9.462  0.1211  0.2333  0.0825
 6712PP      PP16816  11.995   0.140  13.311  0.0067  0.2188 -0.0458
 6713PP      PP16817  13.811   0.679   9.962 -0.0147  0.2128 -0.2932
 6714PP      PP16818   4.965   3.231   2.327  0.0061 -0.0283 -0.1244
 6715PP      PP16819   1.339   6.943   3.789  0.0727  0.2056 -0.0291
 6716PP      PP16820  13.688  15.333  13.332 -0.2452 -0.2477  0.1236
 6717PP      PP16821  13.055  11.412  13.156  0.2663  0.1981  0.1290
 6718PP      PP16822   3.550   0.970  11.434  0.2561 -0.1630 -0.2267
 6719PP      PP16823  13.142  10.750  13.225 -0.1233  0.0253  0.2657
 6720PP      PP16824   5.565   8.553  12.916 -0.0179 -0.3320 -0.1150
 6721PP      PP16825  14.605   6.052   8.945  0.1264  0.0094 -0.0963
 6722PP      PP16826  13.073  11.029   9.778  0.0767 -0.0281 -0.2252
 6723PP      PP16827  10.602  12.900  12.787  0.2025 -0.3184  0.0291
 6724PP      PP16828   0.848   3.371   3.068 -0.0066 -0.2180 -0.2553
 6725PP      PP16829  15.246   6.157   4.142  0.0925 -0.1065 -0.2829
 6726PP      PP16830   4.255  13.734  11.245 -0.2278 -0.2424 -0.1416
 6727PP      PP16831   5.054   3.858   9.428 -0.0158  0.0226 -0.0596
 6728PP      PP16832   8.622   3.770  10.061  0.1315 -0.0571  0.1249
 6729PP      PP16833  13.152   2.982   8.772 -0.1040 -0.3465 -0.1503
 6730PP      PP16834   5.997  10.039   1.722  0.0195 -0.0394  0.1406
 6731PP      PP16835   9.061  14.294   9.102  0.0917 -0.0552 -0.3292
 6732PP      PP16836  12.162   4.294  12.138 -0.1761  0.0510  0.3196
 6733PP      PP16837  12.326   1.479  10.562  0.0263 -0.1749  0.4571
 6734PP      PP16838   8.909   8.221  12.161 -0.1083  0.1613 -0.1541
 6735PP      PP16839   0.942   5.455   1.663 -0.0205  0.1378  0.1610
 6736PP      PP16840   0.545  12.894  10.615 -0.3109  0.0044 -0.1946
 6737PP      PP16841   0.038   3.768  12.645  0.1268 -0.1713 -0.1214
 6738PP      PP16842   4.010  12.353  11.598  0.0337 -0.0888  0.1485
 6739PP      PP16843   7.223   5.288   9.185  0.4456  0.0424  0.1329
 6740PP      PP16844   1.154   6.437   3.893 -0.0990  0.1158  0.2966
 6741PP      PP16845   9.070   4.482   3.890 -0.0121 -0.2672 -0.0682
 6742PP      PP16846   5.007   2.634   8.745 -0.2088  0.2499  0.1727
 6743PP      PP16847   9.713   3.048  12.415  0.1492  0.3729 -0.1225
 6744PP      PP16848   5.108  14.510   2.170 -0.1092  0.0840 -0.0453
 6745PP      PP16849  11.531   2.264  12.072 -0.2745  0.1136 -0.1398
 6746PP      PP16850  13.159   2.218   2.917 -0.0154  0.2277  0.2351
 6747PP      PP16851  12.953  10.592   3.686  0.1394 -0.1680  0.1330
 6748PP      PP16852   6.561   6.040   3.389 -0.1407  0.0656  0.2162
 6749PP      PP16853   1.562  13.048   3.404  0.3098 -0.0446 -0.0546
 6750PP      PP16854   3.947  12.542   3.129 -0.2157  0.0990  0.2232
 6751PP      PP16855   2.742   2.055   8.894  0.0539  0.0510 -0.0549
 6752PP      PP16856   2.596   8.519  13.069  0.1649  0.2912  0.0166
 6753PP      PP16857   9.458   2.178   4.453 -0.0827  0.3134 -0.3445
 6754PP      PP16858   5.825   4.320   4.619 -0.0489 -0.0274  0.0846
 6755PP      PP16859   9.159   9.798   0.696 -0.2136  0.0891  0.2543
 6756PP      PP16860  12.724   3.685   1.850  0.0712  0.0110 -0.1042
 6757PP      PP16861   4.908  12.961  12.462 -0.1227  0.0164 -0.4023
 6758PP      PP16862   2.050   7.879  11.353 -0.0944 -0.0190  0.4101
 6759PP      PP16863   9.781   0.343   1.163  0.2631  0.1496 -0.0294
 6760PP      PP16864  12.160  11.795  10.562  0.0886 -0.1216 -0.0420
 6761PP      PP16865   0.252   8.241   2.554 -0.1381  0.0541 -0.1776
 6762PP      PP16866   4.690  10.765   9.555  0.1649  0.1129  0.2608
 6763PP      PP16867  13.912   9.401   3.628  0.0569  0.2214  0.0509
 6764PP      PP16868   5.871   0.870   0.773  0.1314 -0.0951  0.2560
 6765PP      PP16869  15.165   2.625  11.316  0.1046  0.2721  0.4351
 6766PP      PP16870  14.446   3.939   9.715  0.0918 -0.0626  0.1118
 6767PP      PP16871   6.407   7.694   1.308  0.0090 -0.0904  0.0160
 6768PP      PP16872  10.807  11.504  11.679  0.2069  0.1734 -0.1661
 6769PP      PP16873   5.728  13.932   2.814 -0.0073 -0.1369  0.1601
 6770PP      PP16874  10.541   2.230  12.652 -0.0516 -0.1081  0.2245
 6771PP      PP16875   5.692   9.653   1.882  0.2973 -0.1291  0.1011
 6772PP      PP16876  10.982  14.195  10.782 -0.1182 -0.1886 -0.0904
 6773PP      PP16877   3.796   1.841   0.597  0.0352 -0.3151  0.0702
 6774PP      PP16878   3.407  11.586   4.489 -0.2585  0.0929 -0.2332
 6775PP      PP16879   0.144   7.563  12.266 -0.0240 -0.1876  0.1366
 6776PP      PP16880  10.879   5.480   2.091 -0.1925 -0.0250  0.0588
 6777PP      PP16881  10.954  13.051  10.283  0.3941 -0.2118  0.0384
 6778PP      PP16882   2.977   3.482   8.633 -0.0031 -0.0573  0.1302
 6779PP      PP16883   7.424   6.536  10.734 -0.0683 -0.0428 -0.2035
 6780PP      PP16884   0.955   8.548   0.506  0.2095  0.0028  0.0830
 6781PP      PP16885   4.231   7.676   5.037  0.0825  0.1114  0.1317
 6782PP      PP16886   0.517   0.158   9.306  0.0821 -0.3803 -0.1623
 6783PP      PP16887   7.077  11.674  12.716  0.0707  0.1311 -0.1098
 6784PP      PP16888   6.775   0.929  12.909 -0.1381 -0.2813  0.4571
 6785PP      PP16889   6.186   5.784   0.603  0.1131  0.1109  0.2157
 6786PP      PP16890   0.426  12.185  12.420  0.0493  0.0292 -0.2426
 6787PP      PP16891   5.038  13.899  10.891  0.0813 -0.2016 -0.0574
 6788PP      PP16892   2.248   4.529  12.829 -0.0518 -0.0635 -0.1305
 6789PP      PP16893   6.222  14.063  10.433 -0.4348 -0.3187 -0.0972
 6790PP      PP16894  10.515  14.468   9.847 -0.2813 -0.1320  0.1680
 6791PP      PP16895   5.435  10.691  12.971 -0.0356 -0.2084  0.0801
 6792PP      PP16896   9.165  14.736  11.407 -0.4328 -0.1853 -0.1654
 6793PP      PP16897  12.792   4.169   2.818  0.1371 -0.0545  0.3278
 6794PP      PP16898   7.877  12.043  10.232 -0.1972  0.1897  0.0651
 6795PP      PP16899  13.958  12.330  11.884 -0.0467 -0.0729  0.3760
 6796PP      PP16900   8.951  11.343   3.945  0.3313 -0.2755 -0.1160
 6797PP      PP16901   4.851   6.112   9.742  0.1353  0.1914  0.1044
 6798PP      PP16902  13.461   0.408  11.165 -0.2966  0.1693 -0.1474
 6799PP      PP16903   7.209   1.993   3.536  0.1908 -0.0080 -0.3405
 6800PP      PP16904  15.594  15.785   8.594 -0.1059 -0.0904 -0.3945
 6801PP      PP16905  15.612   1.247   4.022  0.1960  0.0062  0.3564
 6802PP      PP16906   9.924  10.727   1.402 -0.3851 -0.1391 -0.0840
 6803PP      PP16907   3.261  11.023   2.348 -0.0832 -0.1942  0.1059
 6804PP      PP16908  14.599   5.088   2.128 -0.0538 -0.1350  0.0856
 6805PP      PP16909   2.437  11.230   9.413 -0.0862  0.0516  0.5444
 6806PP      PP16910   2.919  10.980   9.078 -0.1171  0.1985  0.0541
 6807PP      PP16911   2.178   5.304   4.842 -0.4076  0.3198 -0.2293
 6808PP      PP16912   7.081   5.477   2.307  0.1007  0.2336  0.3364
 6809PP      PP16913  11.049   7.867   9.689  0.1017  0.0474  0.0702
 6810PP      PP16914   4.887   1.454   8.004  0.1680 -0.2169  0.0197
 6811PP      PP16915  10.297  13.241  12.412  0.2248  0.1681 -0.0467
 6812PP      PP16916   9.127  14.849   9.913 -0.0074 -0.0102  0.0124
 6813PP      PP16917   3.728  10.333   3.668  0.0823 -0.1388  0.0158
 6814PP      PP16918  14.825  14.532   8.194 -0.0698  0.1834  0.1343
 6815PP      PP16919   4.578   5.804  11.101  0.1854 -0.0373 -0.0496
 6816PP      PP16920   1.880   9.340  10.631  0.2717  0.1001 -0.0529
 6817PP      PP16921   5.726   5.631  10.840  0.3117 -0.2374 -0.2083
 6818PP      PP16922  14.949   2.205   8.800  0.0360 -0.2170 -0.1356
 6819PP      PP16923   5.136  12.057   0.557 -0.2832  0.2140  0.1118
 6820PP      PP16924  13.629   1.202  12.892  0.1412  0.0203  0.0583
 6821PP      PP16925   1.305   9.886  11.796 -0.2465 -0.0288 -0.0728
 6822PP      PP16926  12.075   2.575  13.039  0.1443 -0.0907 -0.0351
 6823PP      PP16927   1.310   5.538   0.205 -0.0217 -0.0159  0.0346
 6824PP      PP16928   8.041   4.555  12.614 -0.2070  0.0749  0.1475
 6825PP      PP16929   9.004   3.951  13.364 -0.0018 -0.0815 -0.2776
 6826PP      PP16930   9.165   8.698  12.094  0.2555 -0.1080 -0.0153
 6827PP      PP16931  12.721   3.372   1.216  0.0263  0.0391  0.2062
 6828PP      PP16932  10.214  14.865   8.693 -0.0930 -0.2960 -0.3947
 6829PP      PP16933   1.812  11.868  11.968  0.4531 -0.2170 -0.0840
 6830PP      PP16934   7.861   1.891   0.263  0.0214  0.0027 -0.3493
 6831PP      PP16935  10.768   9.653   1.951  0.0941  0.3522 -0.3214
 6832PP      PP16936   6.960   3.915   9.629  0.1826 -0.0015  0.0072
 6833PP      PP16937  10.740   7.467   1.037 -0.0023 -0.1171 -0.3204
 6834PP      PP16938   2.574  10.882  11.335 -0.0569  0.0841 -0.2849
 6835PP      PP16939   8.789   2.830   0.787 -0.0903  0.2632 -0.1489
 6836PP      PP16940   8.480   2.882   3.975  0.2094  0.0991 -0.0160
 6837PP      PP16941   3.287   6.237  10.072 -0.1011 -0.3674 -0.2262
 6838PP      PP16942  14.040  11.502   3.289  0.1525 -0.1181 -0.1079
 6839PP      PP16943   5.350   9.452  11.853 -0.1826  0.4643  0.2676
 6840PP      PP16944  14.438   8.196   0.249 -0.0369  0.1339  0.0306
 6841PP      PP16945   4.514   1.184  11.869 -0.1999  0.2208  0.1366
 6842PP      PP16946   5.194   8.499  11.960 -0.3878 -0.0067  0.1868
 6843PP      PP16947   2.201  12.009  10.020  0.0123 -0.0068 -0.3197
 6844PP      PP16948   9.086  13.415   1.186 -0.0355  0.1617 -0.2021
 6845PP      PP16949   8.741   8.405   4.866  0.1405 -0.1209  0.1561
 6846PP      PP16950   6.096   1.239   4.294 -0.2166  0.2671  0.0173
 6847PP      PP16951  13.135   3.180   9.995  0.1104  0.0180 -0.0274
 6848PP      PP16952   3.686  11.797   4.069 -0.1671 -0.3886  0.0428
 6849PP      PP16953  13.387   6.831  10.731  0.2332  0.0130  0.0658
 6850PP      PP16954   3.099  15.423   0.235 -0.0315  0.2751  0.4141
 6851PP      PP16955   1.287  10.271  13.449 -0.1243 -0.0379 -0.1040
 6852PP      PP16956  10.036  14.771   9.741 -0.2796  0.0417 -0.1399
 6853PP      PP16957  11.709  15.808   0.985  0.1592  0.0454  0.3905
 6854PP      PP16958   6.341   3.107   9.177  0.0695  0.0632  0.0754
 6855PP      PP16959   1.158   0.022  13.356 -0.1015 -0.2045  0.4234
 6856PP      PP16960   4.880   1.739  11.503  0.0216 -0.0101  0.2094
 6857PP      PP16961  11.727   2.860   0.511  0.0816  0.2698 -0.1674
 6858PP      PP16962   0.423   3.276  11.682 -0.0513 -0.1975  0.0151
 6859PP      PP16963   6.308  10.453   1.038  0.1671 -0.0536  0.1328
 6860PP      PP16964   8.099   1.541  10.723  0.1599  0.1043 -0.0958
 6861PP      PP16965  14.333   6.529   3.208  0.2419 -0.0968  0.0495
 6862PP      PP16966  10.583   0.149   3.778 -0.2112 -0.1298 -0.1600
 6863PP      PP16967  15.291   0.040   4.237 -0.3009  0.0719  0.1150
 6864PP      PP16968   2.503   8.400   3.787 -0.1631  0.0160 -0.2073
 6865PP      PP16969   4.463  13.088  11.479  0.1478 -0.0930 -0.3002
 6866PP      PP16970   3.595   5.590   4.533  0.3388 -0.0126 -0.1728
 6867PP      PP16971   6.498  13.706   4.419 -0.6645  0.2376 -0.1679
 6868PP      PP16972   5.246   8.248   2.648  0.1402 -0.0708  0.1723
 6869PP      PP16973   6.358  15.567   0.288 -0.0932  0.3058  0.1681
 6870PP      PP16974  13.667   9.502  12.064  0.0942 -0.1090  0.2369
 6871PP      PP16975  15.365   5.774  10.251 -0.0326 -0.2676 -0.1268
 6872PP      PP16976   4.350   5.540   3.888 -0.0788 -0.0912  0.0968
 6873PP      PP16977  14.906   1.600   0.311 -0.0709  0.0992 -0.0046
 6874PP      PP16978  14.929   0.446   8.948  0.0449  0.1612 -0.3062
 6875PP      PP16979   0.306  10.713  12.392 -0.0049  0.1821  0.2524
 6876PP      PP16980  14.766   2.962  10.128 -0.0102 -0.2214 -0.2190
 6877PP      PP16981  15.418   6.069   3.304 -0.1930  0.4637  0.0469
 6878PP      PP16982   2.352   4.070  10.310 -0.2566  0.0225 -0.0765
 6879PP      PP16983   9.951   1.638   3.311 -0.3375 -0.2578 -0.1298
 6880PP      PP16984   8.215  12.659   9.714 -0.1092 -0.2370 -0.0393
 6881PP      PP16985   7.552   2.287   1.528  0.1099 -0.0595 -0.1369
 6882PP      PP16986  10.527   7.982   3.274  0.0377 -0.0608 -0.0990
 6883PP      PP16987   0.715   1.042   9.411 -0.0843  0.3305 -0.1544
 6884PP      PP16988  13.876  14.103  12.689  0.1275 -0.1339  0.2182
 6885PP      PP16989   6.026   5.095  10.102 -0.2326  0.3917  0.3808
 6886PP      PP16990  14.543  11.022   9.674  0.1619 -0.2415 -0.0690
 6887PP      PP16991   1.466   2.536   3.881  0.0044  0.1774  0.1904
 6888PP      PP16992   5.201   0.444  12.841  0.1384 -0.3021 -0.3144
 6889PP      PP16993  12.995   6.409  10.507 -0.1251  0.1277  0.1234
 6890PP      PP16994  14.684  12.302   2.081  0.0661  0.2047  0.0283
 6891PP      PP16995  15.570   8.487   9.204 -0.2025 -0.2134  0.3320
 6892PP      PP16996  14.998   8.118   0.330 -0.1802  0.1769 -0.1869
 6893PP      PP16997  11.711  14.904  11.347 -0.2795 -0.3978 -0.0547
 6894PP      PP16998   0.494   7.395   9.488  0.1072  0.1152  0.1674
 6895PP      PP16999   2.241   1.844  10.107  0.0523  0.0194  0.3169
 6896PP      PP17000   9.494   6.859  13.288  0.0469 -0.0325 -0.0499
 6897PP      PP17001   2.127   7.163  12.005 -0.1319  0.0239 -0.0044
 6898PP      PP17002  12.139  10.587   9.249 -0.0012 -0.5987 -0.0030
 6899PP      PP17003   9.290   0.045   3.032  0.0906 -0.2030 -0.1118
 6900PP      PP17004   8.709   5.195   9.392  0.0927  0.0920 -0.1046
 6901PP      PP17005   0.094   8.361  11.558  0.4546 -0.0207  0.0899
 6902PP      PP17006   1.483  15.100  11.024  0.2049  0.0720  0.0547
 6903PP      PP17007   2.017  11.602   8.608 -0.1042  0.1493 -0.1740
 6904PP      PP17008  14.133  11.492  10.390  0.3335 -0.0021  0.1315
 6905PP      PP17009   4.740   9.856   9.037  0.2241 -0.0196 -0.2292
 6906PP      PP17010  11.001  13.907  11.912 -0.1197 -0.1998 -0.0616
 6907PP      PP17011   9.733   2.215   3.150  0.1457  0.2450 -0.1343
 6908PP      PP17012  15.115  12.549  10.071  0.3916 -0.2051 -0.1181
 6909PP      PP17013  15.508  12.365  11.762  0.3001 -0.2494 -0.0298
 6910PP      PP17014   2.868  15.728  12.361 -0.0477 -0.2066  0.1194
 6911PP      PP17015   3.977   5.253   4.177  0.2152  0.3657  0.1048
 6912PP      PP17016   5.051   1.024  10.488 -0.1120  0.2442  0.2921
 6913PP      PP17017   2.709  15.121   2.581 -0.2005 -0.0348  0.2988
 6914PP      PP17018  10.503  15.050  11.895  0.0625  0.0030  0.2861
 6915PP      PP17019   1.589   5.060   4.014 -0.1075  0.0436  0.1967
 6916PP      PP17020  13.962  13.340  12.730  0.0291  0.1886  0.1163
 6917PP      PP17021   2.867  14.840   3.126 -0.0031 -0.0837 -0.0816
 6918PP      PP17022   8.599   0.461   4.292 -0.0767  0.0939 -0.1048
 6919PP      PP17023  15.778   4.870   0.458 -0.0319 -0.1969  0.1370
 6920PP      PP17024  14.525  14.885   1.769  0.0936  0.0948  0.2065
 6921PP      PP17025   7.053   5.833   3.359 -0.2686  0.3627  0.0546
 6922PP      PP17026  10.319  10.325   2.541  0.0677 -0.1146 -0.0416
 6923PP      PP17027  15.194   9.606  11.122 -0.0985 -0.0790  0.0471
 6924PP      PP17028  10.792   1.454   3.370  0.0349 -0.0860  0.0830
 6925PP      PP17029   4.176  10.750  12.856 -0.1462 -0.3903  0.0137
 6926PP      PP17030  14.857  12.343   2.684  0.0854 -0.0420  0.0125
 6927PP      PP17031  12.908   9.449   9.096 -0.0629 -0.0200 -0.0568
 6928PP      PP17032  14.036   3.296   9.826 -0.2856  0.2431 -0.1268
 6929PP      PP17033   2.902  14.147  11.598 -0.3061 -0.0636 -0.3767
 6930PP      PP17034  13.992   0.509   4.003 -0.1616 -0.1993  0.1059
 6931PP      PP17035   9.833  15.875   0.784 -0.2525  0.0595 -0.4417
 6932PP      PP17036   7.130   5.347   4.264  0.0986  0.0218  0.1337
 6933PP      PP17037   5.070  11.705   9.789 -0.3369  0.1788 -0.0524
 6934PP      PP17038   5.495   2.309   9.791  0.1182  0.1056 -0.2500
 6935PP      PP17039  10.274   3.269   1.850 -0.2638  0.0367 -0.1210
 6936PP      PP17040   3.693   6.887   1.857 -0.0113  0.1186 -0.4536
 6937PP      PP17041   5.150   3.576   0.279  0.3177  0.2298  0.3026
 6938PP      PP17042   9.593   0.561   0.111  0.1440 -0.2039  0.0522
 6939PP      PP17043   8.324   8.778   2.986 -0.2460 -0.2180 -0.1328
 6940PP      PP17044  11.522  15.530   0.091 -0.1629  0.3758 -0.0934
 6941PP      PP17045   1.144   6.298  11.649  0.1208  0.0265  0.2025
 6942PP      PP17046  14.607  11.902  12.843 -0.2590  0.1127 -0.3509
 6943PP      PP17047  12.141   2.444  12.522  0.0976 -0.1137  0.3500
 6944PP      PP17048  12.648   2.542   0.180 -0.3093 -0.1108 -0.1973
 6945PP      PP17049   5.683  10.529  10.983 -0.0089 -0.0100  0.1462
 6946PP      PP17050   8.459  15.655  10.134 -0.2068 -0.2970  0.1149
 6947PP      PP17051   0.870   1.045   3.010 -0.1441  0.0829 -0.0733
 6948PP      PP17052   7.877  13.839   1.537 -0.2101  0.0740  0.0656
 6949PP      PP17053   7.742  14.786   9.923 -0.1193  0.0462  0.1527
 6950PP      PP17054  13.161   3.366   1.568 -0.1661 -0.0540 -0.0200
 6951PP      PP17055  15.894  11.317   3.268  0.5137  0.1336  0.2715
 6952PP      PP17056   9.908   6.301   2.195  0.1294  0.2412  0.0534
 6953PP      PP17057  14.347   8.529   4.385 -0.2156 -0.3450 -0.1133
 6954PP      PP17058  13.620   6.037   3.344  0.0083 -0.2192 -0.1665
 6955PP      PP17059   9.648   6.010   9.209 -0.0017 -0.3232  0.1790
 6956PP      PP17060  13.554  13.718   1.546 -0.0616  0.2625  0.1702
 6957PP      PP17061   3.199   7.930   3.130 -0.1861  0.2624  0.4090
 6958PP      PP17062   9.683   5.273   3.040  0.3053 -0.0082  0.0528
 6959PP      PP17063   0.581  15.565  10.946  0.1087 -0.0961  0.2132
 6960PP      PP17064   3.536   5.724  11.661  0.3660  0.1958 -0.0396
 6961PP      PP17065   2.121   8.071   2.213 -0.2185  0.0951  0.0259
 6962PP      PP17066   5.882   8.518   1.895  0.2906  0.2664  0.1818
 6963PP      PP17067  11.085   3.215   8.622 -0.0288  0.1846  0.1320
 6964PP      PP17068   6.875   6.160   2.998  0.1843 -0.0685  0.0952
 6965PP      PP17069  15.425  11.892  13.431  0.0326 -0.0381  0.0171
 6966PP      PP17070   7.105  10.381   9.701  0.0836  0.2863  0.0530
 6967PP      PP17071   5.965   1.269   2.124 -0.0139  0.1952 -0.1744
 6968PP      PP17072   3.602  10.967  11.809  0.1779  0.0529  0.0680
 6969PP      PP17073   1.392  11.745   0.042 -0.1083  0.1132 -0.2515
 6970PP      PP17074   6.378  12.492   0.249  0.0363 -0.0545 -0.1643
 6971PP      PP17075  13.630   0.242  10.106  0.1533 -0.0838 -0.3205
 6972PP      PP17076   6.982   9.110  11.069  0.2691 -0.0697  0.0959
 6973PP      PP17077   9.100  14.440  13.155 -0.0498  0.0936  0.0261
 6974PP      PP17078   1.337  15.650  12.693 -0.0977 -0.0727  0.4360
 6975PP      PP17079  15.159  12.358   0.978  0.2252  0.0213 -0.2824
 6976PP      PP17080  12.601   2.641   3.651  0.0061  0.0054  0.0362
 6977PP      PP17081  13.552   0.324  13.438  0.1286 -0.2240  0.2229
 6978PP      PP17082  15.074   7.521   0.420  0.2687  0.4552 -0.1561
 6979PP      PP17083   9.399  12.181  10.796 -0.0156 -0.0804  0.2164
 6980PP      PP17084   2.608   7.910  10.494  0.0796 -0.1799  0.0509
 6981PP      PP17085  12.893  12.284   8.777  0.1508  0.2204 -0.0242
 6982PP      PP17086   0.806   1.032  12.463  0.0012  0.2137 -0.1006
 6983PP      PP17087   4.871   4.721   3.032 -0.1343 -0.0436  0.0451
 6984PP      PP17088  10.638  10.134   4.318  0.2032 -0.0137 -0.3562
 6985PP      PP17089   0.991   4.089   2.378 -0.2331  0.2051  0.0186
 6986PP      PP17090   9.035  15.674   0.571  0.0094 -0.1021  0.3655
 6987PP      PP17091   8.619   6.765   4.359  0.3438  0.0756 -0.1208
 6988PP      PP17092  12.499   2.813  12.807 -0.0635 -0.0514 -0.0932
 6989PP      PP17093   3.546   3.461   2.975  0.0635  0.0513 -0.3418
 6990PP      PP17094   2.489  14.437   0.822  0.2114  0.3250  0.1048
 6991PP      PP17095  11.840  12.459   3.851 -0.0398 -0.0865  0.0314
 6992PP      PP17096   4.422  12.181  11.995  0.1712 -0.0895  0.1943
 6993PP      PP17097  10.657   1.550   8.845  0.1749  0.1079 -0.0949
 6994PP      PP17098   8.267   3.582   3.490 -0.0000  0.0509 -0.0484
 6995PP      PP17099   1.464   7.029  12.742 -0.0411 -0.0332  0.1232
 6996PP      PP17100   9.342  11.175  13.074 -0.0966  0.0274 -0.2672
 6997PP      PP17101  13.315   6.788  11.747  0.2355  0.0642  0.0153
 6998PP      PP17102   3.893  13.863   4.473 -0.2096 -0.0493  0.1521
 6999PP      PP17103   1.744  13.893   0.984  0.2633 -0.0309 -0.1284
 7000PP      PP17104   0.445   2.780  11.525  0.1107  0.3421  0.1124
 7001PP      PP17105   8.877   2.968   3.383  0.0892 -0.0363 -0.1316
 7002PP      PP17106  13.864   4.094  11.487 -0.4421  0.1695 -0.0186
 7003PP      PP17107  11.013   0.566  12.564  0.1420 -0.1241  0.1362
 7004PP      PP17108   3.214   3.009  13.333 -0.1885 -0.0433 -0.0806
 7005PP      PP17109   4.887   2.928  11.475 -0.2637 -0.2744 -0.0350
 7006PP      PP17110   8.905   8.819   3.667 -0.1102  0.1616  0.0759
 7007PP      PP17111   7.807   7.720   3.600 -0.1034  0.2778  0.2968
 7008PP      PP17112   9.213   4.811   2.230 -0.0536  0.0071  0.2152
 7009PP      PP17113  10.138   9.067   9.483 -0.0813 -0.0522  0.2142
 7010PP      PP17114   7.740  13.173   2.478  0.1180 -0.2376  0.1821
 7011PP      PP17115  14.079   2.100   2.006 -0.1376  0.2102 -0.0758
 7012PP      PP17116   6.337  13.420  12.274 -0.0170  0.0990 -0.2938
 7013PP      PP17117   2.459   4.332   3.436 -0.0972 -0.2738  0.2633
 7014PP      PP17118   7.492   1.814  12.327  0.1539  0.1324  0.2569
 7015PP      PP17119   8.645  14.500   0.923  0.3766 -0.0104 -0.0584
 7016PP      PP17120   0.447  12.414   1.504 -0.1544  0.1126 -0.0492
 7017PP      PP17121   5.961   9.837   4.733  0.0334  0.4629 -0.2940
 7018PP      PP17122  10.974   3.923  12.083 -0.0373 -0.0600  0.3436
 7019PP      PP17123  13.404   5.479   9.676  0.0155 -0.0621  0.0941
 7020PP      PP17124   9.422  15.048  11.835  0.3428  0.1192  0.1890
 7021PP      PP17125   2.992   3.360   2.252 -0.0041 -0.0045 -0.4250
 7022PP      PP17126   7.570   3.441  10.405  0.0222  0.0351  0.0912
 7023PP      PP17127   7.812   0.209  10.131 -0.0358  0.1004  0.1193
 7024PP      PP17128   5.475  15.256   9.628 -0.3218 -0.1349 -0.2286
 7025PP      PP17129  10.094  14.847   0.340 -0.0330  0.4953  0.2137
 7026PP      PP17130  13.684   7.689  11.828 -0.0186 -0.1689 -0.0289
 7027PP      PP17131   6.882   9.299   3.299 -0.1452  0.4223  0.2426
 7028PP      PP17132   7.711  14.673   4.215 -0.0308 -0.2270 -0.0679
 7029PP      PP17133   7.628   2.215   3.226 -0.0640  0.0585  0.3291
 7030PP      PP17134   0.911   2.954  10.549  0.1776 -0.1476 -0.2554
 7031PP      PP17135   6.051  15.497  12.666 -0.1128 -0.0174 -0.5247
 7032PP      PP17136   6.236   8.817  11.610  0.1887 -0.0177 -0.2671
 7033PP      PP17137  15.452  12.175  11.320 -0.0234  0.0149  0.0927
 7034PP      PP17138  11.170   7.344   9.287  0.1363 -0.0114  0.0230
 7035PP      PP17139   3.836   5.134  10.395  0.1319 -0.1463 -0.3174
 7036PP      PP17140   1.755   2.578  12.727 -0.0278 -0.3241  0.0086
 7037PP      PP17141   9.265   7.381  11.633 -0.0944  0.2895 -0.1116
 7038PP      PP17142  13.908  10.536  10.853 -0.2452  0.0924 -0.0365
 7039PP      PP17143   7.495   2.521  12.123  0.2728  0.0302 -0.0758
 7040PP      PP17144   4.525  11.160  12.739 -0.1922  0.0094 -0.1802
 7041PP      PP17145   9.582  14.676   8.573 -0.0816 -0.2023  0.1844
 7042PP      PP17146   0.037   5.309  11.947  0.1078 -0.0293  0.1332
 7043PP      PP17147   9.673   8.249   3.509  0.0124  0.2081  0.1499
 7044PP      PP17148   4.172  12.991   0.242  0.0381 -0.0693  0.1912
 7045PP      PP17149   2.841   3.582   3.718  0.0864 -0.1000 -0.0148
 7046PP      PP17150   8.435   2.715  11.960  0.0824  0.2536 -0.3433
 7047PP      PP17151   2.474  13.087   9.021  0.1051 -0.0213 -0.0817
 7048PP      PP17152   5.520   7.417   4.742 -0.0359 -0.3462  0.2172
 7049PP      PP17153  15.444   8.459   3.289 -0.1865 -0.0975 -0.0279
 7050PP      PP17154   8.527  13.890   9.830 -0.1680 -0.1189 -0.1759
 7051PP      PP17155   4.697  15.819   0.099  0.2928  0.0632 -0.0829
 7052PP      PP17156  10.095   6.846  11.573  0.1177 -0.1896  0.3127
 7053PP      PP17157  13.156  14.559   1.957  0.1546 -0.0023  0.0968
 7054PP      PP17158   2.735   6.059   1.232  0.0037  0.1506  0.0821
 7055PP      PP17159   8.656   3.067  10.092 -0.0110  0.0713  0.0446
 7056PP      PP17160   5.814   8.679  11.314  0.0321 -0.1113 -0.1783
 7057PP      PP17161  14.240  10.970   1.811 -0.1458 -0.1462 -0.1289
 7058PP      PP17162   6.611  10.030   0.161 -0.0346  0.1834 -0.0848
 7059PP      PP17163   3.169   5.851   1.406 -0.1448  0.0914  0.2133
 7060PP      PP17164  12.020   4.708   8.613  0.0756  0.0772 -0.0891
 7061PP      PP17165  15.247   4.258  13.417  0.0210 -0.1917 -0.3417
 7062PP      PP17166  12.724   5.661   1.716 -0.3512 -0.0851 -0.0445
 7063PP      PP17167   4.363  14.810  11.873 -0.0429 -0.0038 -0.1777
 7064PP      PP17168   2.565  13.982  10.054  0.0056  0.1865  0.1048
 7065PP      PP17169   1.091   4.553   2.688 -0.1337 -0.2864  0.0412
 7066PP      PP17170   9.704   6.278   3.537 -0.2665  0.0409  0.1074
 7067PP      PP17171  14.990  12.354   1.650 -0.1405  0.0943  0.0487
 7068PP      PP17172   1.851   9.153  11.421 -0.0958 -0.0044 -0.2200
 7069PP      PP17173   7.655   7.289  11.202 -0.0072  0.2208  0.1296
 7070PP      PP17174   1.987   6.709  11.852 -0.0281 -0.0078  0.0123
 7071PP      PP17175   1.249  11.539   1.877  0.5058 -0.1005  0.0378
 7072PP      PP17176   2.744   0.356   3.199  0.1158 -0.2400 -0.0416
 7073PP      PP17177   2.788   6.365  13.250  0.3146 -0.1578  0.0821
 7074PP      PP17178   1.985   6.033   9.383  0.2519  0.0045 -0.0882
 7075PP      PP17179   0.327   1.648   3.679 -0.2855 -0.2958 -0.1223
 7076PP      PP17180   2.488  13.342  12.554  0.2645  0.0311  0.1208
 7077PP      PP17181   9.770   8.452   1.047 -0.0845 -0.1129  0.0789
 7078PP      PP17182   8.677   9.591  10.992 -0.1298  0.3373  0.2926
 7079PP      PP17183   4.270   5.054  10.597 -0.1930 -0.0357 -0.0773
 7080PP      PP17184  10.756   4.229   0.726  0.0500  0.0787 -0.1297
 7081PP      PP17185  10.625   8.022  10.909  0.0092 -0.1167  0.1546
 7082PP      PP17186  11.817   8.460   2.194  0.0259  0.0337  0.0682
 7083PP      PP17187  10.696   1.380   2.731 -0.0610 -0.0886 -0.2335
 7084PP      PP17188   7.131   7.255   2.341  0.1414 -0.2878 -0.0700
 7085PP      PP17189   4.240  13.193  13.265 -0.4172  0.1497 -0.0961
 7086PP      PP17190  13.542   8.598  11.575 -0.0290  0.1017  0.0966
 7087PP      PP17191  10.471   5.985  10.156  0.3391  0.2311  0.0318
 7088PP      PP17192  13.067  15.340   1.596  0.0876  0.1936 -0.0515
 7089PP      PP17193   5.948   7.631   2.317 -0.1945  0.2012 -0.2574
 7090PP      PP17194  13.405   0.155   0.497 -0.2077 -0.0053 -0.1655
 7091PP      PP17195   3.520  13.778   2.083  0.1077 -0.0210  0.1436
 7092PP      PP17196   1.606  14.998   1.698  0.0960  0.2380 -0.0870
 7093PP      PP17197  12.910  12.825   7.899  0.0763  0.0463  0.0572
 7094PP      PP17198   2.589  15.271   8.904 -0.1780 -0.0933 -0.2518
 7095PP      PP17199   3.880   8.174   2.803 -0.3007 -0.2646  0.4539
 7096PP      PP17200   3.351   6.563   4.885  0.0260 -0.1379  0.5529
 7097PP      PP17201  14.210   5.820  13.363  0.0594 -0.0650 -0.4000
 7098PP      PP17202  12.141  14.039   0.935  0.0774 -0.2080 -0.0641
 7099PP      PP17203   6.357   0.908  13.285 -0.1334 -0.1305 -0.1576
 7100PP      PP17204   0.189  11.527   8.656 -0.1122  0.1131  0.1343
 7101PP      PP17205  13.688  11.860  12.634  0.1307  0.5510  0.0293
 7102PP      PP17206   3.109  13.661   1.185 -0.2385  0.0128 -0.0673
 7103PP      PP17207  10.516  11.331   0.072 -0.0069  0.0698  0.0847
 7104PP      PP17208  10.763  13.809   1.234 -0.1022 -0.0548  0.4196
 7105PP      PP17209  12.779   9.585  13.335  0.1730 -0.2555 -0.0037
 7106PP      PP17210   1.311   9.896  10.313 -0.1837 -0.1029  0.1052
 7107PP      PP17211  15.899  13.958   0.241 -0.5759  0.2925 -0.0600
 7108PP      PP17212   6.784   2.052  10.388  0.3300  0.0928 -0.1800
 7109PP      PP17213  10.567   6.744  11.892 -0.1037 -0.1404  0.3775
 7110PP      PP17214  15.200  10.205  11.178  0.1530  0.0496 -0.0985
 7111PP      PP17215  12.880  13.390   4.116 -0.3102  0.0708 -0.1454
 7112PP      PP17216   2.884  13.408   9.687 -0.2989 -0.0884  0.2178
 7113PP      PP17217  15.063   4.489   1.639  0.0184 -0.1465  0.1362
 7114PP      PP17218   5.755  12.440   4.636  0.3992 -0.1627  0.2488
 7115PP      PP17219   9.787   7.064   8.856  0.3510 -0.1909  0.1280
 7116PP      PP17220   7.221  10.028   1.102 -0.0329  0.0945 -0.0103
 7117PP      PP17221   8.695   0.968   0.036  0.1956 -0.0973 -0.2136
 7118PP      PP17222   0.141  10.980   9.522  0.1012 -0.0367 -0.0497
 7119PP      PP17223   8.286   3.384   9.973  0.1789 -0.1647  0.0534
 7120PP      PP17224   2.373   2.632   2.842 -0.1024 -0.1213 -0.0997
 7121PP      PP17225  11.493   9.269   1.460  0.2383 -0.0171 -0.1328
 7122PP      PP17226   0.841   1.029  11.762 -0.3281 -0.1642  0.1221
 7123PP      PP17227   2.285  15.068  13.452 -0.0428  0.1497 -0.0233
 7124PP      PP17228   3.490  12.193   9.393 -0.3443  0.0478  0.0966
 7125PP      PP17229   3.380  15.738   9.042 -0.0470 -0.0676 -0.2563
 7126PP      PP17230  11.172  15.798  13.125 -0.1121 -0.0602 -0.0748
 7127PP      PP17231  12.549   5.478   0.747 -0.0194  0.0969  0.1710
 7128PP      PP17232   9.861   8.731  10.974 -0.0578 -0.0512  0.0785
 7129PP      PP17233  11.184   6.374  11.125  0.2537  0.0678 -0.0633
 7130PP      PP17234   7.311   9.094   0.127  0.3500 -0.1214 -0.1519
 7131PP      PP17235   6.038  10.876  12.470  0.2173  0.2264 -0.0046
 7132PP      PP17236  15.195   3.297   0.807  0.1001  0.4502  0.3091
 7133PP      PP17237  11.450   6.126   0.773 -0.0393  0.0683 -0.0803
 7134PP      PP17238  10.082   2.248   2.810  0.1557  0.2896 -0.0336
 7135PP      PP17239   4.602   7.582   4.586 -0.0139  0.1529 -0.3382
 7136PP      PP17240  11.050  11.016  12.431 -0.0839  0.1557  0.3010
 7137PP      PP17241   9.421  10.702   9.434  0.3203  0.3113 -0.1061
 7138PP      PP17242  13.869  11.334   2.643  0.1497 -0.1274 -0.0310
 7139PP      PP17243  13.655  14.606   1.948 -0.2089 -0.1471  0.1082
 7140PP      PP17244   1.153  14.095   9.057 -0.0261  0.0574  0.1992
 7141PP      PP17245   1.559  11.581  11.569  0.1526  0.0312  0.1385
 7142PP      PP17246   6.281   0.624   0.646  0.1566  0.0392 -0.2127
 7143PP      PP17247  14.869  14.478  12.142 -0.1370  0.3309  0.1762
 7144PP      PP17248   3.917   9.828   1.817  0.4109 -0.0006 -0.0303
 7145PP      PP17249  14.647  12.558   1.220  0.2685 -0.1822 -0.3528
 7146PP      PP17250   1.337   8.270  12.688 -0.3980  0.0976  0.1834
 7147PP      PP17251  11.653   9.202  12.516 -0.0832 -0.0105  0.0272
 7148PP      PP17252  14.577  13.068   2.198 -0.1894  0.0660 -0.0989
 7149PP      PP17253  14.057   0.516   0.882 -0.0694 -0.0311 -0.1400
 7150PP      PP17254  11.235   5.815   1.756  0.1987  0.1926  0.0049
 7151PP      PP17255   6.639   9.993  11.599 -0.0937  0.1164  0.1881
 7152PP      PP17256   2.744  13.595   4.208 -0.0527 -0.1615  0.1564
 7153PP      PP17257  10.804  15.078   9.080 -0.2808 -0.0528 -0.2466
 7154PP      PP17258   4.334   4.337   0.864 -0.3141  0.1299  0.2059
 7155PP      PP17259   4.475   0.272   3.927 -0.0845 -0.0148 -0.4579
 7156PP      PP17260  15.792   0.335   8.773 -0.4254 -0.0105  0.1579
 7157PP      PP17261  15.231  14.351  11.741  0.3337  0.2742  0.0707
 7158PP      PP17262  11.128   2.334  12.529  0.3442  0.1079 -0.0925
 7159PP      PP17263  10.612   6.310   4.051  0.1061 -0.1746 -0.1051
 7160PP      PP17264   8.426   2.290   5.073 -0.0310  0.2192  0.1479
 7161PP      PP17265   8.971   0.473  12.425 -0.3148 -0.0705 -0.1178
 7162PP      PP17266  10.332   3.248  13.133  0.0924  0.3186 -0.1051
 7163PP      PP17267   2.034  10.571   1.882 -0.1335  0.2078  0.1072
 7164PP      PP17268   5.547   0.530  13.173  0.0576 -0.1804 -0.3170
 7165PP      PP17269   6.583   4.006  11.457 -0.2502 -0.1561 -0.2529
 7166PP      PP17270   1.960  10.894   1.406 -0.2425 -0.3444  0.1724
 7167PP      PP17271  11.868   1.720   1.893 -0.1592  0.3511 -0.1865
 7168PP      PP17272  10.231  13.851   3.390  0.1176 -0.0257  0.3320
 7169PP      PP17273   2.083  11.666   0.763 -0.1270 -0.1706 -0.1732
 7170PP      PP17274   8.149   3.906   4.002  0.0436  0.1878 -0.0597
 7171PP      PP17275   9.514   1.533   1.925 -0.0805 -0.1312 -0.1144
 7172PP      PP17276   0.342   6.155   1.099 -0.1967 -0.1143  0.0406
 7173PP      PP17277  14.691  11.576   0.392 -0.0563  0.0194 -0.2554
 7174PP      PP17278  12.486  13.766  10.264  0.0941  0.3049  0.0434
 7175PP      PP17279  14.083  11.172   0.782 -0.0599  0.1254  0.2125
 7176PP      PP17280  15.432  14.397  12.165  0.0776  0.1162 -0.0888
 7177PP      PP17281   7.859  15.314  13.059  0.1619  0.2451  0.3154
 7178PP      PP17282  12.219   9.184  11.687 -0.0278  0.0627  0.2010
 7179PP      PP17283  14.840   4.986   3.213 -0.1876  0.1021 -0.0480
 7180PP      PP17284   3.047  13.138   4.601  0.2083 -0.3199  0.1615
 7181PP      PP17285   8.888  11.645   1.082  0.1734  0.0567  0.2452
 7182PP      PP17286   8.610   8.644  13.022 -0.0568  0.1891 -0.0563
 7183PP      PP17287   9.971   7.521  13.275 -0.0682 -0.0089  0.0843
 7184PP      PP17288  10.544   0.930  11.875 -0.3499 -0.3921  0.0754
 7185PP      PP17289  15.641  10.223   3.471  0.0979  0.2038  0.0973
 7186PP      PP17290   3.207   4.714   2.845 -0.1609  0.1096 -0.0768
 7187PP      PP17291   3.876   2.734   2.799 -0.6777  0.3159  0.0794
 7188PP      PP17292  13.692  15.641  11.390  0.2785 -0.2507 -0.1027
 7189PP      PP17293  15.069  13.990   1.944 -0.1489 -0.0586  0.0707
 7190PP      PP17294  13.398  10.277  11.515  0.0520  0.1726 -0.0115
 7191PP      PP17295  12.186   8.549   9.221  0.0351 -0.0061  0.0205
 7192PP      PP17296   7.187  13.035  11.950 -0.3349  0.0639  0.0254
 7193PP      PP17297   4.843  13.687   1.992  0.1995 -0.0826 -0.0104
 7194PP      PP17298  11.380   8.052   4.539 -0.2400  0.0586 -0.1949
 7195PP      PP17299   2.338   3.176  13.371  0.0905  0.0084 -0.2343
 7196PP      PP17300  12.354  10.548   3.285  0.0601 -0.0927 -0.0827
 7197PP      PP17301   7.020   6.809   0.593 -0.1628  0.0549  0.0233
 7198PP      PP17302  13.369  14.940  11.707  0.1833 -0.0424  0.0999
 7199PP      PP17303   9.585   3.482  11.900 -0.1238  0.1346 -0.0620
 7200PP      PP17304  11.431   0.643   2.254 -0.0536 -0.3493 -0.2223
 7201PP      PP17305   3.834   9.614  12.113 -0.2612  0.0892  0.4371
 7202PP      PP17306   9.065  12.731  11.947 -0.0451  0.2084  0.2168
 7203PP      PP17307  13.845  14.552  10.446  0.0145  0.2851 -0.0987
 7204PP      PP17308   7.352   7.440   4.994 -0.0974  0.0296  0.0183
 7205PP      PP17309   8.809   0.424   2.368  0.1187 -0.2009 -0.0590
 7206PP      PP17310   2.414   6.334   3.083 -0.1970 -0.0568  0.1548
 7207PP      PP17311   6.474  12.880   1.841  0.1203  0.2129 -0.0873
 7208PP      PP17312   7.365   0.250   9.871 -0.0898  0.2518  0.3107
 7209PP      PP17313  14.740   4.723   0.628  0.0853  0.1875 -0.1866
 7210PP      PP17314   3.755   9.945   8.998  0.0874 -0.2743  0.1791
 7211PP      PP17315  15.831   8.477   3.653 -0.1147  0.4796  0.0788
 7212PP      PP17316   3.781   0.132   9.233 -0.0139  0.0247  0.1280
 7213PP      PP17317  10.777  14.412   2.389 -0.4850  0.1160  0.4206
 7214PP      PP17318   6.803   8.077   0.919 -0.1726 -0.0950 -0.0693
 7215PP      PP17319   1.940   6.160   4.956  0.0422  0.1235 -0.0615
 7216PP      PP17320   0.429   7.691  12.954  0.1326  0.0033 -0.1998
 7217PP      PP17321   3.545   5.479   3.911 -0.0058  0.1295  0.0539
 7218PP      PP17322   5.265   7.448   9.744  0.1917  0.0489 -0.1176
 7219PP      PP17323   7.137  12.693  13.303 -0.2268 -0.1298  0.2119
 7220PP      PP17324   7.385   4.592   9.715 -0.3267  0.1906  0.1739
 7221PP      PP17325  12.437   3.592   0.809  0.0156 -0.0685  0.2573
 7222PP      PP17326  12.786  10.581  10.503 -0.0889  0.4450  0.4104
 7223PP      PP17327   6.640   2.273   0.904 -0.4165  0.0969  0.2528
 7224PP      PP17328   9.487   4.436  10.292  0.2568  0.1316  0.4394
 7225PP      PP17329  10.554  10.878  12.646 -0.2604 -0.1546  0.2028
 7226PP      PP17330  13.209   2.117  13.277 -0.2238 -0.0145  0.1543
 7227PP      PP17331   3.553   0.066   8.306  0.0897 -0.1536 -0.0985
 7228PP      PP17332   3.728  12.916  13.408 -0.3621 -0.1411  0.0049
 7229PP      PP17333   5.770   3.378  10.147 -0.1794  0.0575  0.0159
 7230PP      PP17334   1.945   6.997   0.580  0.1376 -0.2704 -0.0328
 7231PP      PP17335   8.638   1.585   4.240  0.2187 -0.1576  0.4063
 7232PP      PP17336   9.049  14.876   8.392  0.0073 -0.1233  0.0218
 7233PP      PP17337  15.839   6.525  11.572 -0.2660  0.1516  0.0150
 7234PP      PP17338   5.652  15.189   2.427  0.0983 -0.3138  0.1228
 7235PP      PP17339   0.328   3.530  13.078  0.2654 -0.2007 -0.2218
 7236PP      PP17340  15.190   7.659  13.374 -0.0558  0.0146  0.0824
 7237PP      PP17341   7.430   8.701  11.621 -0.0625 -0.0907  0.0687
 7238PP      PP17342   1.707  10.246  10.480  0.1435 -0.0165 -0.1653
 7239PP      PP17343  13.150   9.126  12.331 -0.1898 -0.1795  0.2238
 7240PP      PP17344   4.327   5.603  11.521 -0.0547 -0.1267 -0.1238
 7241PP      PP17345   5.101   4.046   0.249 -0.1852 -0.1627  0.0193
 7242PP      PP17346  12.708  13.109   8.204  0.3200 -0.1764  0.2311
 7243PP      PP17347   5.807  14.858   9.437  0.1695 -0.0822  0.0388
 7244PP      PP17348  14.701  15.457   8.706 -0.2968 -0.1665 -0.0956
 7245PP      PP17349   4.338  13.153   1.182  0.0309 -0.1196 -0.0298
 7246PP      PP17350  13.006   4.060   0.469  0.1108 -0.0334 -0.0904
 7247PP      PP17351   2.480   2.323   8.592  0.0435  0.1442 -0.1721
 7248PP      PP17352   0.779  12.472   2.004 -0.1899 -0.2294 -0.1570
 7249PP      PP17353   6.152  12.353  11.867 -0.2049 -0.3537 -0.1241
 7250PP      PP17354   6.244   3.028   9.725 -0.3291  0.0284  0.0169
 7251PP      PP17355   8.029  14.838  10.807  0.2045 -0.1766 -0.1753
 7252PP      PP17356  13.959  11.011  12.804 -0.0976  0.0977 -0.1168
 7253PP      PP17357   7.559   4.627  10.432 -0.0416  0.1788 -0.0819
 7254PP      PP17358   3.000  10.760   3.702  0.1586 -0.1535  0.1199
 7255PP      PP17359  11.745  11.574   0.451  0.2871 -0.0682 -0.3459
 7256PP      PP17360  10.012   0.387   9.645 -0.0121  0.0214  0.2480
 7257PP      PP17361   9.816   5.895   3.818 -0.1356  0.0527 -0.3849
 7258PP      PP17362  14.637   4.207   2.463  0.2967 -0.0859 -0.0179
 7259PP      PP17363   6.778  13.507  10.184 -0.0918  0.1525  0.0760
 7260PP      PP17364   5.252   6.504  11.167 -0.1932 -0.1033 -0.3331
 7261PP      PP17365  15.445   4.693   3.034  0.2057 -0.0004 -0.0257
 7262PP      PP17366  13.026   3.554  12.161 -0.0974 -0.0122  0.0908
 7263PP      PP17367   9.797   4.584  13.094  0.0187 -0.1077  0.1143
 7264PP      PP17368   2.201  15.723   0.670  0.1459 -0.0951  0.0238
 7265PP      PP17369  11.762  12.497  12.448  0.1731  0.1629 -0.2004
 7266PP      PP17370   8.319   9.738  10.726  0.1608 -0.1907 -0.0315
 7267PP      PP17371   0.534   3.787   0.958  0.0895 -0.0433  0.0230
 7268PP      PP17372   3.497   4.308   3.754  0.0173  0.0416  0.0279
 7269PP      PP17373   3.056   2.962  11.670  0.0907 -0.1023  0.1939
 7270PP      PP17374  14.416  11.552   1.034 -0.3877  0.1693 -0.0009
 7271PP      PP17375   1.642   7.045   1.045 -0.1141 -0.1506 -0.2583
 7272PP      PP17376   4.945  10.470   3.582 -0.0478  0.0001 -0.3242
 7273PP      PP17377  14.836  13.084   1.389 -0.0607 -0.0546 -0.1595
 7274PP      PP17378   7.485   7.964  13.158  0.1313 -0.0307  0.0624
 7275PP      PP17379   2.335   9.080   0.735  0.0020 -0.1092 -0.0378
 7276PP      PP17380   4.759  13.280  11.983  0.0146  0.2511  0.2217
 7277PP      PP17381   2.590   2.288   9.736 -0.2372 -0.0294 -0.0077
 7278PP      PP17382  12.751   4.705  10.028  0.1590 -0.3393 -0.3230
 7279PP      PP17383   7.044   9.368   1.960 -0.1612  0.0972  0.1154
 7280PP      PP17384   2.519  12.971  10.025 -0.0961  0.0187  0.0373
 7281PP      PP17385   8.977   7.619  12.493 -0.0231  0.0364 -0.3712
 7282PP      PP17386   8.037  13.621   2.388  0.2976  0.1375 -0.0123
 7283PP      PP17387   1.472   9.392   1.783  0.3076  0.3293 -0.2021
 7284PP      PP17388  11.473   3.279   1.876 -0.0824  0.0671  0.1960
 7285PP      PP17389   2.141   8.634  12.818 -0.2979 -0.1555  0.2744
 7286PP      PP17390   3.043   6.343  10.567  0.0971 -0.0940 -0.1035
 7287PP      PP17391   5.012  12.500  11.103  0.1763 -0.0481 -0.1280
 7288PP      PP17392   6.815   7.515   2.602 -0.3347 -0.0963  0.3128
 7289PP      PP17393  14.794  12.090   1.194 -0.0442 -0.0276  0.1171
 7290PP      PP17394   5.782   5.567  12.104  0.0800  0.0071  0.2522
 7291PP      PP17395   7.667   7.119  13.102 -0.1355 -0.2171 -0.3159
 7292PP      PP17396   4.670   1.921   8.313  0.0520  0.0598  0.1955
 7293PP      PP17397   6.196  12.047   3.407 -0.2166 -0.1279 -0.1427
 7294PP      PP17398   7.436   5.809  12.915 -0.0420  0.0702 -0.0233
 7295PP      PP17399  15.728   3.718   1.890  0.1262  0.2886 -0.2501
 7296PP      PP17400  13.607   1.403   3.120 -0.2534 -0.2462 -0.0826
 7297PP      PP17401  11.972  10.443   3.637  0.1119  0.0480 -0.0059
 7298PP      PP17402   7.418   8.664   1.096  0.1518 -0.3564  0.0871
 7299PP      PP17403  14.540   6.310   1.123  0.2852 -0.1336  0.0975
 7300PP      PP17404   7.316  14.006  11.720 -0.1982  0.2100 -0.1886
 7301PP      PP17405   6.589   9.362   9.313  0.0201 -0.0517 -0.0462
 7302PP      PP17406   3.173   8.783  10.764  0.0954  0.2939 -0.3296
 7303PP      PP17407   6.669   4.187   2.037 -0.1820 -0.0114  0.0917
 7304PP      PP17408   6.384  15.141  10.160 -0.1183  0.0321 -0.0100
 7305PP      PP17409  10.673   7.530   0.294 -0.1563  0.1298  0.1243
 7306PP      PP17410   5.023   2.958  12.797 -0.0287 -0.1165  0.3572
 7307PP      PP17411   3.593  13.103  10.035 -0.2239  0.1308  0.2355
 7308PP      PP17412   2.355   5.440   9.945  0.1689  0.1980 -0.2432
 7309PP      PP17413   1.134   7.819   0.601 -0.0853  0.2349  0.1099
 7310PP      PP17414  10.649  15.505  10.267  0.3116  0.0016  0.2231
 7311PP      PP17415   1.329  12.226  12.614 -0.0191  0.1187  0.0362
 7312PP      PP17416   2.194  12.447   2.048  0.0399 -0.2695 -0.1076
 7313PP      PP17417   3.488   1.126   0.398 -0.1769  0.0337  0.1521
 7314PP      PP17418  10.248   9.543  11.135  0.1466  0.0315 -0.4173
 7315PP      PP17419   1.016   5.958   0.082 -0.1418 -0.0542  0.2226
 7316PP      PP17420  14.857   6.796   9.554 -0.1148 -0.0436 -0.2022
 7317PP      PP17421  11.789   4.673  10.632 -0.0403 -0.0448 -0.0367
 7318PP      PP17422  11.380   2.111   8.862 -0.2101  0.1022 -0.2026
 7319PP      PP17423   1.060  11.380  12.587 -0.2736 -0.0897 -0.0398
 7320PP      PP17424   3.721  11.693   1.487  0.2482  0.1008 -0.0379
 7321PP      PP17425   0.831   7.340   0.626 -0.1309  0.0799 -0.0959
 7322PP      PP17426  11.320   4.321   8.965 -0.0623  0.1967  0.0876
 7323PP      PP17427  11.985  14.736  10.108 -0.1981  0.0368 -0.1398
 7324PP      PP17428  14.056   9.156  12.063 -0.3397 -0.3356 -0.2869
 7325PP      PP17429  13.166   4.190  10.841  0.0634  0.0097  0.0091
 7326PP      PP17430   7.413  12.323  10.408  0.0819  0.0353  0.1543
 7327PP      PP17431  13.333   2.572   8.624 -0.3002  0.1436  0.2006
 7328PP      PP17432   0.097  13.300  10.332 -0.1453  0.2172 -0.2342
 7329PP      PP17433  10.705  15.074   1.649 -0.1315 -0.1803  0.3579
 7330PP      PP17434   5.148  13.899   9.513  0.0789 -0.0630  0.0879
 7331PP      PP17435   8.157  12.057   3.292 -0.2334  0.0515  0.3189
 7332PP      PP17436   9.234  14.186   2.261  0.1325  0.1260  0.1340
 7333PP      PP17437  11.341   5.351   3.564  0.1159 -0.4653  0.0127
 7334PP      PP17438   5.296   3.388   2.731 -0.1025  0.1713  0.0432
 7335PP      PP17439   7.239   2.041   9.104  0.2947  0.1164  0.4726
 7336PP      PP17440   1.522   0.414   2.398 -0.0245 -0.1627 -0.3295
 7337PP      PP17441  11.796   4.442   9.762 -0.0497 -0.1138 -0.1731
 7338PP      PP17442   5.753   9.009   1.587 -0.2066  0.3366  0.2680
 7339PP      PP17443   7.155   7.877   1.644 -0.0327 -0.1580 -0.0357
 7340PP      PP17444   2.666   0.877   0.404 -0.0314 -0.1217  0.0906
 7341PP      PP17445   8.182  11.179   3.795  0.0141  0.1850  0.2426
 7342PP      PP17446  13.814  12.954  11.594 -0.1990 -0.0694  0.2188
 7343PP      PP17447   0.292   5.676   3.347 -0.0800 -0.0262  0.1174
 7344PP      PP17448   6.285   9.557  12.349  0.2681 -0.3238 -0.0988
 7345PP      PP17449  12.442   4.993   0.331  0.0090  0.0799 -0.2013
 7346PP      PP17450  13.326   4.872  12.644  0.0776  0.1302 -0.0641
 7347PP      PP17451  10.406   9.988   1.175  0.1526  0.1162  0.0717
 7348PP      PP17452   9.416   1.058   4.461 -0.0058  0.3146 -0.3330
 7349PP      PP17453  10.673   9.623   1.371  0.2217 -0.0010 -0.0856
 7350PP      PP17454  11.915   2.018  12.291  0.2194  0.0517  0.3863
 7351PP      PP17455   3.608  12.139   3.100  0.2119 -0.0430  0.0863
 7352PP      PP17456  10.286   0.223   2.782 -0.0391 -0.0783  0.1661
 7353PP      PP17457   5.783   9.135   0.668 -0.0027  0.0588 -0.0594
 7354PP      PP17458  12.543  11.186   3.401  0.0819 -0.0357  0.2237
 7355PP      PP17459  10.836  15.237   0.788 -0.4689  0.0794 -0.1788
 7356PP      PP17460   7.350  15.235   3.480  0.1042  0.4542  0.1381
 7357PP      PP17461   9.658   6.410   5.046  0.1938  0.0738  0.2285
 7358PP      PP17462   0.277  13.739  10.486 -0.1499  0.0451  0.0458
 7359PP      PP17463  11.923  10.536  11.826  0.2171 -0.2065  0.1928
 7360PP      PP17464   1.150   2.294   9.631 -0.0534 -0.0715  0.0039
 7361PP      PP17465   5.957   8.146  13.451  0.0381 -0.0034  0.2273
 7362PP      PP17466  11.223  10.687  11.170  0.0368 -0.1071  0.0127
 7363PP      PP17467   5.415   1.680  11.454  0.0050 -0.1941  0.0664
 7364PP      PP17468  11.207   1.330   2.016  0.1817 -0.2510 -0.5305
 7365PP      PP17469   9.036   5.986   4.320 -0.2457 -0.0269  0.0641
 7366PP      PP17470   8.791   2.127   9.367 -0.1580  0.1375  0.2063
 7367PP      PP17471   7.572  13.849  10.178  0.0629 -0.0498 -0.4056
 7368PP      PP17472   0.891  13.295   2.566  0.0085 -0.4016 -0.1052
 7369PP      PP17473   8.249   0.320  10.439  0.2018  0.0003  0.0196
 7370PP      PP17474  14.690   0.967   8.985  0.2621 -0.0159  0.0224
 7371PP      PP17475   7.645  13.072   2.988  0.1232 -0.1000 -0.4012
 7372PP      PP17476   7.788  15.783   1.376 -0.2503 -0.1931 -0.2881
 7373PP      PP17477  10.525  15.549  11.189  0.2245  0.0464 -0.2529
 7374PP      PP17478   7.175   7.846   0.632  0.0051  0.0543 -0.1502
 7375PP      PP17479   5.857   5.048  12.292 -0.1348  0.3728  0.0765
 7376PP      PP17480  12.821  12.943  13.039 -0.0896 -0.0927 -0.2688
 7377PP      PP17481   9.976  14.684  12.661  0.0648 -0.3415 -0.0547
 7378PP      PP17482   4.573   0.410   9.204 -0.0585 -0.1860 -0.2538
 7379PP      PP17483   1.780  11.462  12.911 -0.0113 -0.0205 -0.2753
 7380PP      PP17484   2.725   4.358   8.980 -0.0519  0.0581 -0.0762
 7381PP      PP17485   2.873   1.080   3.007  0.2183  0.0620 -0.0515
 7382PP      PP17486   4.228   0.336   1.144  0.1897  0.0593  0.3349
 7383PP      PP17487   9.897   6.154  12.067  0.0659  0.0280  0.0322
 7384PP      PP17488  11.408   1.405  12.049 -0.0650  0.1251  0.0857
 7385PP      PP17489   2.181  15.239   2.537  0.0829 -0.1467  0.2522
 7386PP      PP17490  13.402  13.622   0.736 -0.0460 -0.2785  0.3964
 7387PP      PP17491   5.050   4.654  10.708  0.1409  0.1580 -0.4840
 7388PP      PP17492   7.508  12.906   1.536 -0.1495 -0.1715 -0.0056
 7389PP      PP17493   6.860   7.261  11.218 -0.2737  0.1499 -0.2466
 7390PP      PP17494   0.798  15.614   9.526  0.2840  0.0928 -0.0921
 7391PP      PP17495   6.730  15.272  10.469  0.1525 -0.1014  0.0570
 7392PP      PP17496   6.457  11.948   5.016  0.1307 -0.0419 -0.0481
 7393PP      PP17497  14.740  15.633   3.119  0.0434  0.1566 -0.0959
 7394PP      PP17498  12.484  15.834  10.669 -0.1752 -0.0994 -0.1521
 7395PP      PP17499   5.049  10.637   4.063 -0.1489  0.1682  0.2455
 7396PP      PP17500  14.697   1.952   9.515 -0.0066 -0.0777 -0.1765
 7397PP      PP17501   2.385  15.613   2.811  0.3411  0.0373 -0.1002
 7398PP      PP17502  15.896   1.607  10.627  0.1157 -0.0153  0.2692
 7399PP      PP17503   7.356   0.671   4.698 -0.5299  0.0039  0.0733
 7400PP      PP17504   7.678   1.740   4.656 -0.4009 -0.3496  0.0714
 7401PP      PP17505  12.731   6.477  10.109  0.2485  0.0882 -0.0773
 7402PP      PP17506   6.222   2.597  11.043 -0.0607  0.2279 -0.0275
 7403PP      PP17507   5.660  14.868  10.050 -0.2755  0.1505 -0.1090
 7404PP      PP17508   0.995  10.336  12.651  0.2848 -0.2007 -0.0399
 7405PP      PP17509   7.582   7.309   0.071 -0.1011 -0.1176  0.0708
 7406PP      PP17510   6.470   7.895   9.258 -0.2980  0.0439  0.0712
 7407PP      PP17511   1.419  14.907  10.017 -0.2161 -0.0206 -0.0463
 7408PP      PP17512  12.620  10.282  12.348 -0.2397  0.1348 -0.0206
 7409PP      PP17513   5.452   3.469  11.130 -0.3928 -0.0353 -0.0614
 7410PP      PP17514   5.974   0.466  11.391 -0.0373 -0.2256  0.0157
 7411PP      PP17515   3.091  13.177   1.272  0.0192 -0.0564 -0.0961
 7412PP      PP17516   1.289  10.795   9.727 -0.2998  0.0008  0.2770
 7413PP      PP17517  10.253  11.393  12.092  0.2281  0.0454  0.2110
 7414PP      PP17518  13.857   9.691  11.129 -0.0305 -0.1926 -0.1075
 7415PP      PP17519  13.718  13.758  10.976  0.0499  0.0899 -0.0128
 7416PP      PP17520   3.889   9.276  11.272 -0.2455  0.0986 -0.1125
 7417PP      PP17521   5.605  14.877   3.120 -0.2541 -0.0909  0.2172
 7418PP      PP17522   9.421   4.975   2.637  0.0819  0.3595 -0.0808
 7419PP      PP17523   6.065  12.842   0.006  0.1408  0.0057  0.1763
 7420PP      PP17524  13.819   1.716   2.513  0.3132 -0.1852 -0.2197
 7421PP      PP17525   6.551  10.728  12.346  0.0401  0.1027  0.3573
 7422PP      PP17526   0.279   9.566  12.218 -0.0959 -0.0480  0.0303
 7423PP      PP17527  14.135  11.377   2.253  0.0657 -0.0424 -0.1362
 7424PP      PP17528   9.954   4.531   1.613 -0.1400  0.0769 -0.0296
 7425PP      PP17529   4.100  10.684  11.530  0.0812 -0.3537 -0.2901
 7426PP      PP17530   1.078   2.396   3.543  0.0951  0.2716 -0.0300
 7427PP      PP17531   1.987   5.722   4.576 -0.1192  0.0700 -0.0472
 7428PP      PP17532  10.872   4.209  11.162 -0.0689 -0.1307  0.0637
 7429PP      PP17533   2.131   1.743  11.980 -0.0331 -0.1116 -0.1704
 7430PP      PP17534  12.236   0.586   3.322  0.0732  0.2696  0.1223
 7431PP      PP17535  12.347   9.553   1.973  0.2819 -0.3990  0.0904
 7432PP      PP17536  11.158  15.445   9.379  0.0410 -0.1275  0.2586
 7433PP      PP17537   5.639   6.625   0.183 -0.0348  0.1127 -0.0656
 7434PP      PP17538   8.808   3.376  11.863  0.0614 -0.0361 -0.0902
 7435PP      PP17539  13.237   0.525   1.505 -0.2528  0.4265 -0.1390
 7436PP      PP17540  12.297   7.715   1.547 -0.1743  0.3608  0.1540
 7437PP      PP17541   7.728  10.064  12.532  0.0020 -0.1011 -0.0419
 7438PP      PP17542   7.966   4.596  12.081 -0.1798  0.4500  0.0581
 7439PP      PP17543   4.424   7.341  12.254  0.0637 -0.0986  0.1680
 7440PP      PP17544  14.844   0.999   9.675  0.0062 -0.0675  0.0747
 7441PP      PP17545   4.894   7.132   0.651  0.1181  0.1319  0.0960
 7442PP      PP17546   8.017   7.430  10.732 -0.1216 -0.0921 -0.0466
 7443PP      PP17547   7.992  13.887   2.876 -0.1127  0.1863  0.0145
 7444PP      PP17548  14.499   4.741  12.027  0.0187  0.0429  0.1301
 7445PP      PP17549   5.978   0.215   4.132 -0.0969 -0.3711 -0.0015
 7446PP      PP17550  13.427   7.771   9.741 -0.0709  0.2718  0.2445
 7447PP      PP17551  15.051  13.238  12.760 -0.1385 -0.0193 -0.1751
 7448PP      PP17552   4.298   8.068  12.166  0.0468 -0.2167  0.0220
 7449PP      PP17553   1.853   1.887   7.806 -0.0735 -0.1590 -0.3031
 7450PP      PP17554   4.677   6.953  12.073  0.0098  0.3430  0.1154
 7451PP      PP17555  11.134  13.619  13.292 -0.1003  0.0989 -0.0555
 7452PP      PP17556  12.101   0.770   0.089 -0.1764 -0.2754 -0.1155
 7453PP      PP17557  10.109  14.452   7.778 -0.2471  0.4000  0.0525
 7454PP      PP17558  15.419   0.173   1.726 -0.1675 -0.1015  0.0206
 7455PP      PP17559   0.503   4.272   3.464 -0.1012 -0.1421 -0.1583
 7456PP      PP17560   2.562   2.148  11.555 -0.1910 -0.3288 -0.1852
 7457PP      PP17561   0.040  13.222  13.315  0.2139  0.1035  0.0071
 7458PP      PP17562   2.505   6.633  12.731  0.1087  0.0072 -0.1468
 7459PP      PP17563   4.987   7.800   4.232 -0.0597  0.0910 -0.0173
 7460PP      PP17564   9.621  10.439   1.062 -0.0621  0.3889 -0.1831
 7461PP      PP17565   5.738   2.523   0.267 -0.2085 -0.2243 -0.1107
 7462PP      PP17566   4.881  15.595   8.691  0.1055  0.3188 -0.1363
 7463PP      PP17567   6.612  10.738  10.491  0.0389 -0.2932  0.1484
 7464PP      PP17568   5.076   1.565   3.009  0.0399 -0.1787  0.2379
 7465PP      PP17569  14.348  13.417   9.192  0.0490 -0.2318  0.1225
 7466PP      PP17570   5.655   4.008  12.726  0.1536  0.0033 -0.2021
 7467PP      PP17571   3.018  10.808   4.502 -0.1342 -0.3698 -0.0405
 7468PP      PP17572   4.544   3.487  10.609 -0.0696  0.0201  0.1863
 7469PP      PP17573   2.321   0.769   8.467  0.1780  0.0994 -0.1186
 7470PP      PP17574   3.922  12.879  11.641  0.0075 -0.0535  0.3639
 7471PP      PP17575   4.321  14.330  11.449  0.1818 -0.1389 -0.0539
 7472PP      PP17576   1.568  15.351   9.917 -0.0362  0.1845 -0.1593
 7473PP      PP17577   7.916   4.763   1.725  0.2558 -0.3612 -0.0426
 7474PP      PP17578  10.289   3.511  10.862  0.0062 -0.1159 -0.3098
 7475PP      PP17579   2.646  13.332   1.115 -0.0949  0.1936 -0.1399
 7476PP      PP17580   1.835   0.317   1.305  0.1392 -0.0747 -0.1750
 7477PP      PP17581   4.075   2.272   2.982  0.0455 -0.1672  0.1573
 7478PP      PP17582   4.143   6.353   3.131  0.0114 -0.0874  0.2400
 7479PP      PP17583   6.938   2.034   8.607  0.3585 -0.1323  0.1171
 7480PP      PP17584   5.086  10.449  12.017  0.3320 -0.0695  0.1833
 7481PP      PP17585   3.329   0.801  12.595  0.0230 -0.0491 -0.0206
 7482PP      PP17586   7.568   9.813  10.826  0.1448 -0.2748 -0.1079
 7483PP      PP17587   4.000  10.744   2.168 -0.3187  0.1430 -0.0793
 7484PP      PP17588   4.045  10.348   9.262 -0.2697 -0.2837 -0.1715
 7485PP      PP17589   3.894  15.210  11.053 -0.2405 -0.2174  0.0234
 7486PP      PP17590   1.201   8.500  11.317 -0.0730  0.1066 -0.1284
 7487PP      PP17591  10.391  12.722   0.067 -0.0583 -0.0972  0.1081
 7488PP      PP17592   2.199  12.490   4.674 -0.1293  0.0864  0.4201
 7489PP      PP17593   8.381  11.823   5.454 -0.3744 -0.0504 -0.1773
 7490PP      PP17594  15.291   0.519   2.052  0.1579  0.2849  0.2763
 7491PP      PP17595   1.993   3.580   2.046  0.0360 -0.2250  0.2257
 7492PP      PP17596   0.731   9.429   0.210 -0.1053  0.0332  0.1277
 7493PP      PP17597  15.642   5.919  13.291 -0.2417 -0.0177 -0.1551
 7494PP      PP17598  15.378   2.419   8.667 -0.0658  0.0271  0.1574
 7495PP      PP17599   4.388  10.060  13.449  0.1218 -0.1991 -0.0542
 7496PP      PP17600   5.538   2.046   0.380  0.3078  0.1519 -0.0150
 7497PP      PP17601   3.239  11.002   1.490 -0.1496  0.0272 -0.3559
 7498PP      PP17602  13.807   3.567  12.331 -0.0486  0.1034  0.1408
 7499PP      PP17603  11.949  11.423  12.264  0.2735 -0.0845 -0.2891
 7500PP      PP17604   6.027   0.444  12.353  0.0450 -0.2504  0.0620
 7501PP      PP17605   3.235   7.297  11.411 -0.1836 -0.0758 -0.1043
 7502PP      PP17606  10.576  10.431   3.105  0.2129  0.0222 -0.2402
 7503PP      PP17607  13.137  13.872   3.502  0.0850 -0.1408  0.3259
 7504PP      PP17608  14.795  15.017  10.624  0.0895  0.0015 -0.1065
 7505PP      PP17609   9.160   5.049   1.664 -0.1340 -0.1563  0.0486
 7506PP      PP17610   5.429  12.622   9.293 -0.0015  0.0662  0.0178
 7507PP      PP17611   6.478   6.527   2.768 -0.3270 -0.0885 -0.0105
 7508PP      PP17612   4.802   6.823  13.027 -0.1576  0.2070  0.0836
 7509PP      PP17613   0.207   2.928   2.450  0.1688 -0.1176  0.0611
 7510PP      PP17614  11.624   6.204   2.534  0.0234 -0.0960 -0.2936
 7511PP      PP17615   9.748  15.556   9.152  0.4958  0.1787  0.2468
 7512PP      PP17616   0.632  11.787  10.527  0.1330 -0.0623  0.1641
 7513PP      PP17617   6.060   6.175   2.972 -0.0445  0.0849  0.1465
 7514PP      PP17618   5.274  14.996   0.812 -0.2431  0.1248 -0.0202
 7515PP      PP17619   8.147  13.017   0.720 -0.3115 -0.0955 -0.0434
 7516PP      PP17620  15.704  13.661  12.140  0.1084 -0.0589  0.2516
 7517PP      PP17621  12.291   6.418   4.382  0.1381  0.0360  0.1733
 7518PP      PP17622   6.111   5.339  12.532 -0.0623 -0.2212  0.0937
 7519PP      PP17623  14.309   5.275   9.597 -0.0605  0.0564 -0.0508
 7520PP      PP17624  12.648   2.958   8.645 -0.1553 -0.2566  0.0139
 7521PP      PP17625  12.028   9.745   4.362 -0.0954 -0.0519 -0.1962
 7522PP      PP17626   8.363   5.270  11.104 -0.1762 -0.0491 -0.2682
 7523PP      PP17627   9.259   1.207   2.779 -0.0193  0.2028 -0.0897
 7524PP      PP17628   4.655   4.896  10.963  0.1678  0.1068  0.3136
 7525PP      PP17629   8.168  14.008   9.466  0.0333 -0.3279  0.0013
 7526PP      PP17630  10.557  14.830   2.088  0.2502  0.1578  0.1333
 7527PP      PP17631   4.643   6.326   2.430 -0.0946 -0.2076  0.0997
 7528PP      PP17632   6.982   4.469  12.805  0.1237 -0.0927 -0.1296
 7529PP      PP17633   2.069  13.933   2.552  0.0245 -0.1392 -0.0478
 7530PP      PP17634  11.390   0.389   9.057 -0.2060  0.2816 -0.2109
 7531PP      PP17635   9.165  10.751  13.332 -0.0476 -0.0914 -0.3120
 7532PP      PP17636  13.805   4.266   2.804 -0.0838 -0.1828  0.2898
 7533PP      PP17637   4.857   2.969  12.263  0.1237 -0.2315  0.1340
 7534PP      PP17638  10.141   0.283   3.413 -0.2021 -0.2799  0.1331
 7535PP      PP17639   3.084   8.073   2.249  0.1473 -0.0517  0.0151
 7536PP      PP17640  15.086   4.907   0.269  0.3622 -0.2069 -0.0799
 7537PP      PP17641   5.603  14.234   0.289 -0.1171 -0.1486 -0.2282
 7538PP      PP17642   7.874   1.471   8.599 -0.1201  0.2242 -0.3109
 7539PP      PP17643   4.846   9.067   2.040 -0.1980 -0.0907 -0.3086
 7540PP      PP17644   1.594  15.749   3.349 -0.1153  0.0701 -0.0624
 7541PP      PP17645   7.143   5.238  10.721  0.1823 -0.2347 -0.2244
 7542PP      PP17646   7.707   3.528   9.627  0.0525  0.1674 -0.1107
 7543PP      PP17647  13.462   1.333   2.625 -0.1258 -0.0142  0.2363
 7544PP      PP17648   1.636  10.721  10.823  0.0218 -0.2881 -0.0586
 7545PP      PP17649  12.959   6.799   2.504  0.1528 -0.3641  0.1600
 7546PP      PP17650   2.094  13.674   9.719  0.0350  0.0970  0.0469
 7547PP      PP17651  10.473   9.777   2.924  0.0272  0.1406 -0.1174
 7548PP      PP17652   8.439  15.291   9.779  0.0514  0.2759  0.2912
 7549PP      PP17653  12.591   8.876  13.269 -0.1117  0.2122  0.0314
 7550PP      PP17654   1.253   3.501  11.778  0.0524  0.1264 -0.0654
 7551PP      PP17655   2.776   8.201  10.056 -0.1534  0.0137 -0.2366
 7552PP      PP17656   6.626   0.149  12.794 -0.1809  0.1879  0.1114
 7553PP      PP17657  10.337  12.523  13.054  0.1360 -0.1711 -0.1836
 7554PP      PP17658   2.232   5.628  10.463  0.1349  0.0713 -0.0621
 7555PP      PP17659   8.217   9.505   3.425  0.1630  0.4065 -0.0366
 7556PP      PP17660   9.181   7.979  12.728  0.1980  0.4495  0.1088
 7557PP      PP17661  13.574   2.130   8.122 -0.0772  0.1621  0.0434
 7558PP      PP17662   8.761  15.810   3.571  0.0913 -0.0496  0.4554
 7559PP      PP17663  12.385   9.041   1.118 -0.1215  0.3317 -0.0725
 7560PP      PP17664  11.802   6.944   0.279  0.1037 -0.0970  0.1551
 7561PP      PP17665  10.267   3.849   8.946  0.1162  0.1552  0.1479
 7562PP      PP17666  14.698  15.294   3.967  0.1599  0.0844 -0.0757
 7563PP      PP17667  12.672   8.912  10.976  0.0317 -0.2084  0.0111
 7564PP      PP17668  14.515   1.558  11.419 -0.3107 -0.1493  0.0725
 7565PP      PP17669  15.091   3.024   3.728  0.3512  0.0431 -0.0375
 7566PP      PP17670   4.453   9.722  11.804  0.0848 -0.0596 -0.1229
 7567PP      PP17671  15.585  11.818   9.932  0.1787 -0.0922  0.0886
 7568PP      PP17672   9.119   8.851   9.992 -0.0622 -0.2436  0.0050
 7569PP      PP17673  14.196  15.403   3.936  0.2259  0.1407  0.2143
 7570PP      PP17674  11.916   9.060   9.358  0.0540 -0.1808  0.2116
 7571PP      PP17675  15.621   9.158  11.315  0.0957 -0.1441 -0.2350
 7572PP      PP17676   8.869   7.158   1.542  0.0321 -0.4087 -0.1606
 7573PP      PP17677   4.085   6.006  11.521 -0.1221  0.0721 -0.2154
 7574PP      PP17678   2.967  14.782   0.044  0.1658 -0.0008 -0.0773
 7575PP      PP17679  12.238   4.913   3.364  0.1677 -0.1109 -0.2812
 7576PP      PP17680   2.887   2.440   7.862  0.3841  0.0253 -0.0235
 7577PP      PP17681   8.062   5.440   0.543  0.0590 -0.1213  0.0155
 7578PP      PP17682   6.492   3.566   1.897 -0.0106 -0.1370  0.0672
 7579PP      PP17683   0.481   8.908   9.434 -0.1390  0.1092  0.2153
 7580PP      PP17684   3.333   8.081   0.122  0.0756 -0.0567 -0.0877
 7581PP      PP17685   1.164   0.120  10.335 -0.0515 -0.0574  0.1408
 7582PP      PP17686  15.108   8.631   0.031 -0.1397 -0.0827  0.1320
 7583PP      PP17687   7.001   5.783  10.532  0.1640 -0.1763 -0.0705
 7584PP      PP17688   2.583   7.384  12.123  0.1349  0.3100 -0.5222
 7585PP      PP17689   0.706   6.434   9.658  0.1607 -0.0882  0.2481
 7586PP      PP17690   3.021   5.079   8.852  0.0108  0.0479  0.1209
 7587PP      PP17691  13.826  11.413  12.566 -0.1045 -0.0563  0.2599
 7588PP      PP17692  12.715  15.383   0.704 -0.0900 -0.0313  0.0196
 7589PP      PP17693  12.182  13.870   1.891  0.0499  0.1358  0.2341
 7590PP      PP17694   4.798   7.388   3.940  0.2642  0.1694 -0.4285
 7591PP      PP17695   8.250  15.210   8.814 -0.0121  0.0468  0.2493
 7592PP      PP17696   6.054  10.245  11.779 -0.0387  0.0790 -0.1161
 7593PP      PP17697  15.776   4.814  11.549 -0.1966  0.0896 -0.2668
 7594PP      PP17698   2.432  11.769   1.526 -0.0044 -0.0909 -0.0279
 7595PP      PP17699  13.539  12.904   0.248  0.1017  0.1094 -0.0254
 7596PP      PP17700  11.295  13.066  12.223 -0.1809 -0.0748  0.0267
 7597PP      PP17701  14.261  12.485   9.467  0.1210  0.0861  0.1590
 7598PP      PP17702   6.157  10.223   0.100 -0.0883  0.1943 -0.1051
 7599PP      PP17703  12.395   5.066  10.506  0.1827  0.2057 -0.2307
 7600PP      PP17704  10.869  11.612   0.247  0.2748  0.0075 -0.0972
 7601PP      PP17705   5.147  11.580   2.429 -0.0066  0.0068  0.0742
 7602PP      PP17706   5.894   3.543   2.086  0.2461  0.1694 -0.2964
 7603PP      PP17707   6.143  12.846  11.994 -0.1368 -0.1251  0.0553
 7604PP      PP17708   7.426   3.462   2.807 -0.3589 -0.0767 -0.2154
 7605PP      PP17709   6.843  12.726   9.750 -0.2719 -0.0704  0.0262
 7606PP      PP17710  12.574   8.439  11.516  0.0404  0.1441  0.1656
 7607PP      PP17711  13.818   1.987  10.589  0.1843 -0.0827  0.4205
 7608PP      PP17712  10.415   9.906   1.673 -0.0191 -0.1300  0.0154
 7609PP      PP17713  11.575   9.822   4.037  0.1597 -0.2109 -0.1113
 7610PP      PP17714  11.341   6.158   2.964  0.1274  0.3015 -0.1896
 7611PP      PP17715   7.251  13.098   4.643  0.1576 -0.1412  0.5377
 7612PP      PP17716   4.113   4.027   2.728 -0.2054 -0.0311 -0.1458
 7613PP      PP17717   0.354   7.679  11.577  0.1167  0.0717  0.2312
 7614PP      PP17718   4.115   9.633  11.010  0.0171  0.2371  0.0681
 7615PP      PP17719   0.055  15.779   1.929  0.2721 -0.1299  0.0374
 7616PP      PP17720   2.839   6.174  11.009 -0.2757 -0.0007 -0.3156
 7617PP      PP17721   2.467   5.114   0.066 -0.2956  0.1619  0.0011
 7618PP      PP17722  11.286   3.440  12.786  0.1689 -0.2808  0.1429
 7619PP      PP17723   7.532   0.171   8.531  0.1925  0.1529  0.1117
 7620PP      PP17724  14.453  14.760   3.261 -0.1316  0.0125  0.1164
 7621PP      PP17725   6.841   1.806   4.667 -0.2389  0.2134  0.0204
 7622PP      PP17726   1.850   9.085   4.159 -0.0548 -0.0623 -0.1032
 7623PP      PP17727   4.936   1.829  12.716 -0.0160  0.0334  0.3872
 7624PP      PP17728   4.713  15.310   0.254  0.1406  0.0194 -0.2005
 7625PP      PP17729   7.216  13.680   4.775  0.0878  0.1199 -0.0667
 7626PP      PP17730   4.189   6.346   2.601 -0.0116 -0.1462  0.0282
 7627PP      PP17731   0.476  14.195  12.000 -0.0529 -0.0423  0.0525
 7628PP      PP17732   3.326   2.858   0.831  0.1367 -0.1732  0.0919
 7629PP      PP17733   4.319  10.997   2.489  0.4461 -0.1860 -0.1571
 7630PP      PP17734   0.792   9.965  10.066 -0.0931  0.2511 -0.1457
 7631PP      PP17735   9.257   5.424   2.006 -0.0727 -0.0310  0.3256
 7632PP      PP17736   8.786  15.705  11.390 -0.0823  0.2016 -0.0563
 7633PP      PP17737   3.808   4.280  11.410  0.2574  0.1726  0.1518
 7634PP      PP17738   0.669   2.387  10.526  0.2097 -0.0389 -0.1525
 7635PP      PP17739  14.232   0.382   1.956 -0.2559  0.0056  0.1081
 7636PP      PP17740  15.503   9.816   1.692 -0.2229 -0.2460  0.0005
 7637PP      PP17741   8.422  11.212   1.734  0.0575  0.2800  0.0991
 7638PP      PP17742  11.281   5.410   2.434 -0.1230 -0.2482 -0.3055
 7639PP      PP17743   9.637   8.020   4.637  0.1555 -0.0717  0.0593
 7640PP      PP17744   5.656   5.167   3.576  0.0061 -0.0225  0.1585
 7641PP      PP17745   4.172  11.770   3.890 -0.0485  0.3170 -0.3189
 7642PP      PP17746   7.359   6.697   4.516  0.1234  0.1687 -0.0759
 7643PP      PP17747  11.901   8.104   9.381 -0.2664 -0.1383 -0.0397
 7644PP      PP17748   0.087   7.158   9.314  0.0285 -0.1063 -0.0690
 7645PP      PP17749   1.526   9.223   3.497 -0.2018  0.1574 -0.3342
 7646PP      PP17750   6.372  15.392  10.888 -0.0015  0.0411 -0.1463
 7647PP      PP17751   1.192   1.562   2.618 -0.0844 -0.1369 -0.2058
 7648PP      PP17752   7.535   3.068  13.346 -0.1417  0.0413  0.2648
 7649PP      PP17753   4.023   7.112   4.425 -0.0395 -0.0348 -0.0709
 7650PP      PP17754  14.164  10.836   1.197 -0.4682 -0.0858 -0.1767
 7651PP      PP17755  15.347  14.806  11.871 -0.1665  0.0826  0.2308
 7652PP      PP17756   5.146  13.962   4.627  0.0205  0.0583  0.0042
 7653PP      PP17757  13.082  15.410   2.548 -0.0181  0.1514  0.2395
 7654PP      PP17758   4.028   3.397   1.048  0.0726  0.0120  0.1212
 7655PP      PP17759   5.654  13.874   2.317  0.1190  0.0432  0.2028
 7656PP      PP17760   3.428   3.189  12.402  0.1184  0.1125 -0.3129
 7657PP      PP17761   5.432  12.515   0.475 -0.0012  0.0387 -0.0702
 7658PP      PP17762  13.264   9.060   2.926  0.1421  0.1415 -0.2738
 7659PP      PP17763   5.811   7.702   3.286  0.2675  0.2840  0.3324
 7660PP      PP17764  11.168   9.846  13.004 -0.1673  0.1054 -0.0994
 7661PP      PP17765   1.010  13.035  10.398  0.0610 -0.0318  0.1068
 7662PP      PP17766   2.024   8.233  13.174 -0.1202  0.1624 -0.2655
 7663PP      PP17767  12.341   1.908   4.053 -0.2362  0.3109  0.1654
 7664PP      PP17768  14.977   4.101   3.845 -0.3057 -0.1134 -0.0807
 7665PP      PP17769   1.841   6.768  13.202 -0.1072 -0.0286 -0.0188
 7666PP      PP17770   1.955  14.728  13.351  0.2308  0.1094  0.0997
 7667PP      PP17771   1.555  10.487  10.016  0.1847  0.1973 -0.1604
 7668PP      PP17772   8.053   1.975   1.534  0.0941  0.4288 -0.1985
 7669PP      PP17773   0.638  11.679   3.954  0.1958  0.1639 -0.1117
 7670PP      PP17774   3.047  14.379   3.384 -0.0539 -0.0809 -0.3062
 7671PP      PP17775   8.568   4.000  12.006 -0.2513 -0.1416  0.3424
 7672PP      PP17776  12.718   4.643  10.548  0.1055 -0.0200 -0.2383
 7673PP      PP17777   3.850  10.732   0.227  0.0177  0.1126 -0.1216
 7674PP      PP17778  13.792  11.458   3.737 -0.2801  0.0637 -0.0101
 7675PP      PP17779  10.438   7.872   9.646  0.0871 -0.0761  0.0074
 7676PP      PP17780   7.915   8.534  11.444  0.1643  0.0873  0.3195
 7677PP      PP17781   8.403  14.445   9.894 -0.2033 -0.1332 -0.0430
 7678PP      PP17782  10.120   4.276   4.417 -0.0195  0.0753 -0.1618
 7679PP      PP17783   9.071   5.859  12.690 -0.2228  0.0435  0.2353
 7680PP      PP17784  11.394  15.757  11.417  0.1639 -0.0912 -0.0290
 7681PP      PP17785   3.054   8.719   4.402 -0.1864 -0.3082  0.1705
 7682PP      PP17786  12.733   0.991   0.983 -0.3580 -0.0768 -0.1397
 7683PP      PP17787  11.668   7.143  12.965 -0.1999 -0.2301  0.1108
 7684PP      PP17788   0.460   3.075  10.529 -0.1889  0.3018  0.0902
 7685PP      PP17789   3.193   3.840   1.135 -0.0086  0.1374  0.1653
 7686PP      PP17790  15.672   7.461   3.398  0.0213  0.0904 -0.0313
 7687PP      PP17791   8.661  14.522  11.471  0.2135 -0.1392  0.0266
 7688PP      PP17792   5.361   4.349  10.430  0.0189 -0.3065  0.1357
 7689PP      PP17793   3.370  12.682  12.995  0.1585  0.4076 -0.1053
 7690PP      PP17794   8.965   4.298  11.609  0.3141  0.1354 -0.0424
 7691PP      PP17795   5.523  14.927  11.591  0.2349 -0.0162  0.0189
 7692PP      PP17796  11.940   0.913  12.833  0.0341 -0.0003  0.1564
 7693PP      PP17797   9.291  14.913  10.402 -0.4253 -0.1079 -0.1701
 7694PP      PP17798  14.068  15.553  11.905  0.0575 -0.1814  0.0535
 7695PP      PP17799   5.105  12.826  10.726  0.4644 -0.1726 -0.3394
 7696PP      PP17800   6.413  11.964  11.826 -0.0433 -0.0185  0.0026
 7697PP      PP17801   3.118   8.973   9.063  0.1627 -0.1887  0.0991
 7698PP      PP17802   7.534  14.053   4.777  0.0725  0.0687  0.0340
 7699PP      PP17803  14.645  14.132   9.097  0.0357  0.4175 -0.2617
 7700PP      PP17804   0.501  14.318  12.952  0.2846 -0.0649  0.0267
 7701PP      PP17805  11.612   0.712  10.892  0.2563  0.3205 -0.1229
 7702PP      PP17806  14.489   0.660   1.072  0.1091 -0.1225  0.1464
 7703PP      PP17807  12.914  14.845  13.143 -0.2985 -0.0643  0.2365
 7704PP      PP17808   7.833   0.010   2.638  0.0339 -0.3435 -0.1291
 7705PP      PP17809   6.289  10.220  10.374 -0.1765 -0.0489  0.0824
 7706PP      PP17810   5.979   4.217   9.456 -0.1077  0.0524  0.0465
 7707PP      PP17811   3.118   8.636  12.549 -0.0255 -0.0038  0.1802
 7708PP      PP17812  13.020  13.947   8.135 -0.1195 -0.3505 -0.1289
 7709PP      PP17813  14.953   8.341   3.160 -0.2018 -0.1593 -0.0682
 7710PP      PP17814  12.555  13.032   0.298 -0.2215  0.1344  0.1761
 7711PP      PP17815  14.323  10.683   0.035  0.5795  0.1493 -0.3170
 7712PP      PP17816  14.827   6.774  10.638  0.2623  0.0070 -0.2797
 7713PP      PP17817  10.774   5.833   8.766  0.0468  0.1926  0.0278
 7714PP      PP17818   6.807   1.979   9.314  0.4777  0.1048  0.0221
 7715PP      PP17819  11.444  15.768   9.156 -0.0282 -0.1163 -0.0134
 7716PP      PP17820   3.839   7.568  10.775 -0.1138 -0.3136 -0.0078
 7717PP      PP17821   9.547   1.394   3.892 -0.0607 -0.0134 -0.1008
 7718PP      PP17822   5.678   1.423   3.688  0.1474  0.0321  0.0379
 7719PP      PP17823   0.092   3.714   9.862  0.1393  0.1967 -0.0637
 7720PP      PP17824   3.383   7.862  10.747  0.3833  0.2382 -0.1903
 7721PP      PP17825   8.900   5.671   3.338 -0.0464 -0.1100 -0.5067
 7722PP      PP17826  13.560   8.745   1.366 -0.1288  0.1759 -0.0887
 7723PP      PP17827   3.510  14.098  10.018 -0.3558  0.1502  0.3822
 7724PP      PP17828  14.414  12.372  12.742 -0.1299  0.0702  0.1432
 7725PP      PP17829   6.320   7.447   2.575  0.0268  0.0505  0.2740
 7726PP      PP17830   6.888   8.633   3.362 -0.4208 -0.0058  0.1275
 7727PP      PP17831  15.140  14.255  11.213 -0.2599 -0.1532 -0.2887
 7728PP      PP17832  13.344  11.673  11.390 -0.0847  0.1941 -0.1102
 7729PP      PP17833   1.803   6.233   2.283 -0.1273 -0.0166  0.0033
 7730PP      PP17834   0.345   7.390   8.973 -0.1829 -0.1113 -0.0453
 7731PP      PP17835   9.499   9.844   4.539  0.3197 -0.2373  0.0185
 7732PP      PP17836  12.577  12.698   3.074 -0.0616 -0.1473  0.1878
 7733PP      PP17837   2.686   1.727   2.803  0.0705 -0.0760 -0.0292
 7734PP      PP17838   5.991   2.306  13.361  0.0974 -0.0402  0.2270
 7735PP      PP17839  15.555   1.554   1.159  0.0767 -0.1587  0.1916
 7736PP      PP17840   0.674   1.209   2.203  0.2016 -0.0110  0.0911
 7737PP      PP17841   5.201  12.140  10.160  0.2945 -0.1240 -0.1073
 7738PP      PP17842  11.199   1.912  11.910  0.1371  0.2713  0.0542
 7739PP      PP17843   9.109  11.668  11.044  0.0289  0.1006  0.0153
 7740PP      PP17844  15.233   0.041  11.750  0.1582  0.2336  0.2439
 7741PP      PP17845   1.938  12.724  12.643 -0.3277 -0.0937  0.0821
 7742PP      PP17846  12.343  10.871   2.914 -0.0922  0.1558 -0.0303
 7743PP      PP17847  11.311   7.791   9.038 -0.0867  0.1232  0.1281
 7744PP      PP17848   6.801  11.272   3.552  0.1128 -0.0615 -0.2347
 7745PP      PP17849   0.461   7.411  10.007  0.3851  0.2732 -0.1226
 7746PP      PP17850   6.223  10.434  10.832  0.1175 -0.1198  0.0444
 7747PP      PP17851   9.300   6.467  12.001  0.3305  0.0044  0.1749
 7748PP      PP17852   7.801   7.806   4.690 -0.0114 -0.1049  0.1976
 7749PP      PP17853   8.954   1.531   5.095 -0.2931  0.1277 -0.1884
 7750PP      PP17854  12.823   9.583  12.220 -0.0760  0.1167  0.0943
 7751PP      PP17855   2.158  11.146  11.051  0.0880 -0.3508  0.0620
 7752PP      PP17856   3.022  12.357  12.707 -0.0030 -0.4291 -0.0603
 7753PP      PP17857   4.434   7.907   4.240 -0.0497 -0.5782  0.0194
 7754PP      PP17858   2.412   9.683   4.596 -0.0098  0.3529  0.1369
 7755PP      PP17859   2.954  10.750  12.630 -0.1106  0.3191  0.5401
 7756PP      PP17860  15.714   6.970   3.231 -0.0919 -0.1239 -0.2489
 7757PP      PP17861   2.022   8.543   1.460 -0.1092  0.3286  0.1892
 7758PP      PP17862   3.757  10.795   9.348 -0.1717  0.2825  0.5182
 7759PP      PP17863   6.911   2.927   1.710 -0.3515  0.0835  0.0603
 7760PP      PP17864   0.225   2.288   0.599 -0.0140 -0.1870 -0.0222
 7761PP      PP17865  13.433   8.439  12.747 -0.0884 -0.3150  0.0070
 7762PP      PP17866  11.126   6.124   9.701  0.1416  0.1198 -0.1206
 7763PP      PP17867  14.254   8.888  13.105 -0.0651 -0.2570  0.0858
 7764PP      PP17868  12.128   5.695   2.041  0.0362 -0.2091 -0.0327
 7765PP      PP17869   3.943   4.892  10.910  0.2959 -0.0987 -0.2032
 7766PP      PP17870   1.200  12.717   1.132 -0.0281  0.0492 -0.0072
 7767PP      PP17871   7.733   7.196   1.962 -0.1905 -0.3073  0.3425
 7768PP      PP17872   8.897  14.522  10.350  0.0124 -0.0863 -0.0391
 7769PP      PP17873   2.362   0.586   0.019 -0.5014 -0.1565  0.1742
 7770PP      PP17874   0.235  10.291   9.093 -0.0612  0.2375 -0.2775
 7771PP      PP17875   0.945  13.894   3.146 -0.1325  0.0563 -0.0870
 7772PP      PP17876   8.385   9.368   2.075  0.0140 -0.1077 -0.3118
 7773PP      PP17877  14.315   8.043  11.734  0.0113  0.2252  0.2331
 7774PP      PP17878  10.677   0.838  10.090  0.1600 -0.1696  0.0790
 7775PP      PP17879   8.700   3.163  11.063 -0.0786  0.2765 -0.2486
 7776PP      PP17880  13.189   0.136  11.920 -0.1487 -0.0979  0.0077
 7777PP      PP17881  12.645   9.483  10.186 -0.1831  0.0259  0.5016
 7778PP      PP17882   2.049  13.049  10.870  0.0895  0.1558 -0.3283
 7779PP      PP17883   2.234   9.534   0.449  0.1394 -0.0269  0.1675
 7780PP      PP17884   1.098  14.608  13.344  0.0490  0.2043 -0.0993
 7781PP      PP17885  12.312  13.368   3.022  0.2164  0.0063  0.1911
 7782PP      PP17886  10.884  14.320   8.918  0.2261  0.1096 -0.2516
 7783PP      PP17887  12.411   3.737  10.676  0.2058 -0.1943 -0.0502
 7784PP      PP17888   4.826  12.648   2.415  0.1300 -0.0674  0.0197
 7785PP      PP17889   1.249   8.322   2.886  0.0073 -0.2411 -0.1953
 7786PP      PP17890   6.757  11.742  11.350 -0.0067 -0.1676  0.2589
 7787PP      PP17891   3.906   8.937   4.809 -0.2546  0.0553 -0.0328
 7788PP      PP17892   3.319  14.702   9.285  0.3701  0.1778 -0.1977
 7789PP      PP17893  14.789   9.499  11.486  0.1030 -0.0363  0.0581
 7790PP      PP17894  10.339   6.176   2.364  0.3868  0.0853 -0.1195
 7791PP      PP17895   2.565   0.761   9.709  0.0168  0.1480  0.2547
 7792PP      PP17896  11.675   2.723   3.319  0.0667  0.0210 -0.1206
 7793PP      PP17897   5.699   9.428  13.427  0.3213 -0.0806 -0.0108
 7794PP      PP17898  14.423  15.810   1.868  0.1639 -0.0032  0.3566
 7795PP      PP17899   3.682  10.512  11.735 -0.0173 -0.0467  0.0835
 7796PP      PP17900  13.500   7.622  12.269 -0.1873  0.0922 -0.0420
 7797PP      PP17901   1.431   0.964   8.932 -0.1303  0.0584  0.1421
 7798PP      PP17902   1.552   8.666   9.467  0.1073  0.1123  0.1535
 7799PP      PP17903   7.438   9.237   1.798 -0.1211 -0.1220  0.2533
 7800PP      PP17904  14.340  12.109   2.534 -0.1456 -0.0239  0.3685
 7801PP      PP17905  15.290   0.120   9.331  0.1371  0.5057  0.3558
 7802PP      PP17906  13.813  14.470   8.523 -0.0030  0.0629 -0.0843
 7803PP      PP17907   4.759  13.007   3.660 -0.1181 -0.0087 -0.0099
 7804PP      PP17908  10.261   3.479   3.295 -0.0134 -0.3472 -0.1670
 7805PP      PP17909  15.447   8.174   3.752  0.1343 -0.3716  0.2123
 7806PP      PP17910   4.967   5.066   4.151  0.0014  0.0495 -0.1977
 7807PP      PP17911   3.847   6.038   2.382 -0.1267 -0.2188 -0.2110
 7808PP      PP17912   8.831  10.333   1.434 -0.2923  0.2979  0.4392
 7809PP      PP17913   4.031   1.637   3.916 -0.0936  0.0838  0.0288
 7810PP      PP17914   0.344   9.695   3.195 -0.0923  0.1788 -0.1103
 7811PP      PP17915   2.423  11.591   9.076 -0.1313  0.0790  0.0870
 7812PP      PP17916   5.667  10.827   1.791 -0.5531  0.3901  0.2838
 7813PP      PP17917  13.178   9.860   3.504  0.0359  0.0401 -0.0042
 7814PP      PP17918  15.705  13.473  11.245  0.0982  0.1243 -0.2368
 7815PP      PP17919  15.854  10.005  11.842 -0.0701 -0.1790 -0.1372
 7816PP      PP17920   1.899   8.740   8.626 -0.1225 -0.1465  0.2211
 7817PP      PP17921   1.351  14.271   0.923  0.0815 -0.2072  0.1870
 7818PP      PP17922   7.389   1.400   1.932  0.0148  0.0181 -0.0280
 7819PP      PP17923   9.214   1.095   3.543  0.1326 -0.2639  0.0813
 7820PP      PP17924   5.810  15.097   1.567  0.0045  0.0612  0.1694
 7821PP      PP17925   0.777   3.134   9.604  0.0108  0.2463  0.0177
 7822PP      PP17926   1.814   2.112  10.162  0.0260 -0.4096 -0.2575
 7823PP      PP17927   2.305   7.849   5.355  0.0357 -0.1526 -0.1340
 7824PP      PP17928  10.907   4.444  12.965  0.1873 -0.3189  0.0332
 7825PP      PP17929   0.126  12.990   9.229 -0.0293 -0.1973  0.3023
 7826PP      PP17930  12.127   3.161   0.034  0.2232 -0.0557  0.2934
 7827PP      PP17931   3.059  10.209  12.497  0.0306 -0.0159  0.2793
 7828PP      PP17932   9.013  14.695   1.170 -0.2969 -0.1398 -0.2088
 7829PP      PP17933   5.131  13.323  11.545  0.1164 -0.1709 -0.0523
 7830PP      PP17934   6.734   8.710  13.114  0.1036 -0.2233 -0.1747
 7831PP      PP17935   6.253   0.926  11.581 -0.1551  0.2591 -0.1263
 7832PP      PP17936  13.463   3.632   2.931 -0.1829 -0.1194  0.2081
 7833PP      PP17937   8.345   0.603  11.938  0.4759 -0.1500 -0.0097
 7834PP      PP17938  10.808  12.607  13.167  0.2023 -0.0654  0.3582
 7835PP      PP17939  14.566   7.173  12.895  0.0393  0.0033  0.1129
 7836PP      PP17940   8.539   9.801   2.968 -0.1422  0.4081  0.3140
 7837PP      PP17941  10.699   0.874   2.653 -0.1132 -0.0123  0.3078
 7838PP      PP17942   2.975   9.724   9.137  0.0111  0.3146 -0.1085
 7839PP      PP17943   0.104   5.361   1.669 -0.3492 -0.1169 -0.0853
 7840PP      PP17944   7.110   1.196   9.965  0.1816  0.0717  0.2581
 7841PP      PP17945   6.381   5.366   2.776 -0.0762 -0.1403  0.0366
 7842PP      PP17946  15.229   5.494   1.997  0.2190  0.4163 -0.0495
 7843PP      PP17947   3.346  15.609   0.669 -0.0486  0.2257 -0.2196
 7844PP      PP17948  15.118   8.897   3.153  0.2249 -0.0811  0.0280
 7845PP      PP17949   4.838   4.330  10.238 -0.0554 -0.0785  0.0921
 7846PP      PP17950   2.062   1.995   9.675  0.2616 -0.3158  0.0287
 7847PP      PP17951  15.191   6.259   2.828  0.3148  0.2726  0.2554
 7848PP      PP17952   1.319   7.919   9.622  0.0821 -0.0192  0.0397
 7849PP      PP17953   7.782   9.593   1.781  0.0672 -0.2699 -0.0637
 7850PP      PP17954  15.514   4.595   9.888  0.3729  0.3224 -0.4160
 7851PP      PP17955  14.896   2.651  12.719 -0.0012  0.3320 -0.1684
 7852PP      PP17956  11.412  12.281   9.008 -0.0515 -0.0793  0.1800
 7853PP      PP17957   2.271   5.386   2.893  0.1781 -0.1454 -0.0083
 7854PP      PP17958   6.122   6.146  11.492 -0.0679 -0.4612 -0.1033
 7855PP      PP17959  14.770  14.825   3.739 -0.1187  0.3617  0.1291
 7856PP      PP17960   9.944   4.159   2.791 -0.2565 -0.0662 -0.2783
 7857PP      PP17961   7.207  14.414  12.967  0.1799 -0.1819  0.0335
 7858PP      PP17962  11.163  10.352  13.460  0.1691  0.1787 -0.0319
 7859PP      PP17963   8.567  15.860   1.829 -0.0648  0.2154  0.3079
 7860PP      PP17964   2.887   4.729   0.227  0.1187  0.0260 -0.1780
 7861PP      PP17965   0.021   9.430   3.942  0.1100 -0.0885  0.2880
 7862PP      PP17966  13.612   9.976   4.313  0.0473 -0.1836 -0.1080
 7863PP      PP17967   8.208   9.894  12.661 -0.2076  0.1506 -0.0377
 7864PP      PP17968   7.447   4.946   0.023 -0.1499 -0.0853 -0.4127
 7865PP      PP17969   4.948  12.849   4.603 -0.1724 -0.1810 -0.4345
 7866PP      PP17970  14.874   9.761   3.066  0.1431  0.0231  0.1065
 7867PP      PP17971   3.165  11.291   9.433  0.2486  0.0735 -0.1059
 7868PP      PP17972   9.255  11.948  11.567  0.0453 -0.0707 -0.1657
 7869PP      PP17973   0.249  12.031   1.061  0.3107 -0.0658 -0.2071
 7870PP      PP17974   5.332   5.890   0.196  0.3470 -0.1964 -0.0870
 7871PP      PP17975  10.902  13.605   2.225 -0.2356 -0.0179 -0.0866
 7872PP      PP17976   0.368   7.290   2.563 -0.0302 -0.3019 -0.1147
 7873PP      PP17977   7.212  14.788   2.302 -0.1477  0.3925 -0.0175
 7874PP      PP17978   9.042   4.209   0.425  0.2887 -0.5531 -0.1133
 7875PP      PP17979  12.629  11.753   9.739  0.2558  0.2173 -0.0621
 7876PP      PP17980  11.681   2.226   9.688  0.1072 -0.0527 -0.0859
 7877PP      PP17981  11.884   8.921   1.136  0.0452 -0.3107 -0.0542
 7878PP      PP17982   1.039   5.156  10.277 -0.0021  0.1924 -0.0674
 7879PP      PP17983  15.367  11.440   0.951  0.1172  0.0955 -0.2835
 7880PP      PP17984  10.409   4.489   3.142  0.7376 -0.1346  0.0185
 7881PP      PP17985  12.484   1.948  13.041 -0.1058  0.0034 -0.0430
 7882PP      PP17986   2.424   4.882   4.705 -0.4367 -0.1277 -0.0598
 7883PP      PP17987   4.380   8.017  10.593  0.1914 -0.0166 -0.2860
 7884PP      PP17988   8.995   3.481   3.446 -0.1186 -0.0162  0.0579
 7885PP      PP17989  12.319   1.661   1.135 -0.2172  0.0241  0.3017
 7886PP      PP17990   9.530   5.440   2.482 -0.1927 -0.3768  0.3466
 7887PP      PP17991   7.205   5.107   0.403  0.0714 -0.2065 -0.1422
 7888PP      PP17992   1.441  14.552   3.763  0.0845 -0.3421  0.1036
 7889PP      PP17993  14.445  13.893   2.169  0.1560 -0.1575 -0.1083
 7890PP      PP17994   4.863   2.420  11.516 -0.0021 -0.5325  0.1633
 7891PP      PP17995   5.982  11.597   2.368 -0.0845 -0.1206  0.0409
 7892PP      PP17996   8.403   7.962  12.049 -0.1599  0.1596  0.1357
 7893PP      PP17997   2.520  14.163  12.070  0.2870  0.0839  0.0893
 7894PP      PP17998   6.311   7.615   4.359  0.2073 -0.0275 -0.2943
 7895PP      PP17999   2.702  12.908   1.398 -0.1814  0.0678 -0.0261
 7896PP      PP18000  13.551   8.690   0.815  0.3210  0.1723 -0.1856
 7897PP      PP18001   0.987  14.183  12.149  0.0598 -0.2652  0.1207
 7898PP      PP18002   6.961   9.887   0.675  0.3703 -0.2452 -0.1495
 7899PP      PP18003   7.159  12.615  12.774 -0.0963  0.0193  0.1062
 7900PP      PP18004   4.761   3.769  13.407 -0.2781  0.0100 -0.3955
 7901PP      PP18005   0.480   0.722  11.539 -0.0496 -0.0881 -0.0031
 7902PP      PP18006   0.080  11.372  12.403  0.2327  0.1918  0.3369
 7903PP      PP18007   9.051   1.385  12.989  0.1759  0.2618  0.4208
 7904PP      PP18008  12.395   4.460   3.102  0.0449 -0.1662 -0.1828
 7905PP      PP18009  11.973   5.771  11.129 -0.0299  0.0532  0.0108
 7906PP      PP18010   8.195  11.700   1.812  0.2137 -0.3184  0.0245
 7907PP      PP18011   2.129  14.885  11.687 -0.0384 -0.1011  0.3326
 7908PP      PP18012  10.345   5.094   0.896  0.0348 -0.0775  0.3427
 7909PP      PP18013   5.537  10.945  11.294  0.1588  0.2594 -0.1350
 7910PP      PP18014  13.259   4.028   3.763  0.0640  0.0046  0.1070
 7911PP      PP18015  12.790   8.676   2.912 -0.1330  0.1854  0.3596
 7912PP      PP18016   0.835   8.205  12.703  0.0859 -0.0894  0.0476
 7913PP      PP18017  13.072   9.648   0.523  0.0987  0.1075  0.2350
 7914PP      PP18018  14.151   1.637  10.752  0.0436 -0.1158  0.1815
 7915PP      PP18019   8.244   8.939  10.410  0.1637  0.5085 -0.1141
 7916PP      PP18020   0.963   6.883  10.904  0.0884  0.0875 -0.2063
 7917PP      PP18021   6.086   8.177   9.891  0.0364 -0.5116 -0.2846
 7918PP      PP18022   6.404  12.687   2.981 -0.0271 -0.1754 -0.3166
 7919PP      PP18023   7.368   2.181   9.984  0.0427 -0.0185 -0.1656
 7920PP      PP18024  13.160  11.023   1.231  0.1021 -0.0999  0.0144
 7921PP      PP18025  14.176  12.691  11.676 -0.0775  0.1620 -0.0513
 7922PP      PP18026  12.421  10.262  10.479 -0.0040 -0.0387  0.2510
 7923PP      PP18027   5.884   3.112   0.291  0.0407 -0.0507 -0.0352
 7924PP      PP18028   4.513   4.167   8.005  0.0336 -0.1238  0.3279
 7925PP      PP18029  12.088   2.329   9.986  0.0222 -0.1862 -0.3641
 7926PP      PP18030   6.614   2.096   3.915 -0.0023 -0.2344  0.0324
 7927PP      PP18031   6.398   8.908   4.790  0.2999 -0.0186  0.1238
 7928PP      PP18032   7.817  12.662   2.145 -0.0670 -0.2592  0.0219
 7929PP      PP18033   7.110   1.476   3.285 -0.1296  0.2390 -0.3226
 7930PP      PP18034   6.215   1.618  10.160 -0.0371  0.0066  0.5959
 7931PP      PP18035   6.408   1.893   9.695  0.0091 -0.0760 -0.1750
 7932PP      PP18036   3.782   8.165   0.494 -0.2653 -0.2049 -0.3655
 7933PP      PP18037   2.540   4.712   0.974  0.1316 -0.1033  0.1137
 7934PP      PP18038   4.986   5.645  12.829 -0.1496 -0.3244  0.3351
 7935PP      PP18039   2.628   0.751  11.533 -0.0621 -0.0222 -0.0166
 7936PP      PP18040   8.210  11.710  12.525 -0.0915 -0.1589  0.1780
 7937PP      PP18041   9.931   7.375  11.275  0.1699  0.1953  0.1783
 7938PP      PP18042  15.335  12.717   2.018 -0.1745 -0.1200 -0.1551
 7939PP      PP18043   7.622   6.254   2.403  0.0016  0.0935  0.0501
 7940PP      PP18044  10.453   7.246   4.052  0.0820  0.2577 -0.0404
 7941PP      PP18045   6.544   5.434   0.815  0.0509 -0.1630 -0.1845
 7942PP      PP18046  15.108   0.080   2.226  0.0336 -0.0767 -0.1521
 7943PP      PP18047  11.300   4.796   9.118  0.2678 -0.2490  0.0446
 7944PP      PP18048   5.055   1.241   1.402  0.0970 -0.1392 -0.1788
 7945PP      PP18049   0.077  10.108  10.689  0.2277 -0.4332 -0.0178
 7946PP      PP18050   5.197  15.289   2.271  0.2243 -0.0894  0.1441
 7947PP      PP18051   7.372  11.785   3.093  0.3206 -0.0725 -0.1229
 7948PP      PP18052   3.379  12.754  10.303  0.3578  0.0578 -0.0815
 7949PP      PP18053  10.643   3.855   1.408  0.0856 -0.0688 -0.1735
 7950PP      PP18054   1.537   6.823   2.374  0.3359  0.4677 -0.1194
 7951PP      PP18055   5.009  11.528   3.700  0.1407  0.1042 -0.1928
 7952PP      PP18056   2.029   6.498   3.273  0.3761 -0.1067 -0.1465
 7953PP      PP18057   8.358  11.294  13.351  0.1306  0.1466 -0.0663
 7954PP      PP18058   5.220   5.400   0.922  0.2199 -0.0592 -0.0304
 7955PP      PP18059  15.195  13.784   0.097 -0.1714  0.2002 -0.3875
 7956PP      PP18060   2.717  10.460  12.231 -0.0381 -0.3710  0.3556
 7957PP      PP18061   6.287   1.073   1.789 -0.2070 -0.1121 -0.5767
 7958PP      PP18062  12.181   1.300   2.091 -0.1846 -0.0342  0.1839
 7959PP      PP18063  15.184   1.003  11.466 -0.1152 -0.2701  0.0241
 7960PP      PP18064  11.935   0.441   2.309  0.0051  0.2184 -0.0426
 7961PP      PP18065   5.702  11.505  11.197  0.0569 -0.0229  0.0602
 7962PP      PP18066  12.357   7.867   4.420  0.2961 -0.3492 -0.0368
 7963PP      PP18067  15.091  11.697   3.948  0.0943 -0.1044  0.2111
 7964PP      PP18068   7.920   3.525  10.798 -0.3769  0.1212  0.0447
 7965PP      PP18069  15.466  13.637   3.382 -0.2354 -0.0878 -0.0594
 7966PP      PP18070  10.614   9.172   2.857  0.0086 -0.3048 -0.2560
 7967PP      PP18071   2.420   1.680   8.917  0.0166 -0.1986  0.1032
 7968PP      PP18072  13.212   3.404   3.395  0.0162 -0.1528  0.0277
 7969PP      PP18073   1.678   3.678   2.483  0.0432  0.0002 -0.1441
 7970PP      PP18074   2.043   8.643   2.520 -0.0993  0.0859  0.1765
 7971PP      PP18075   9.708   0.115  12.830 -0.3163  0.0003  0.1983
 7972PP      PP18076   0.725  10.152   3.412 -0.3384 -0.2673 -0.2940
 7973PP      PP18077  15.661   0.590   1.651 -0.0727 -0.0753 -0.0817
 7974PP      PP18078   9.038   2.818   4.171 -0.2961  0.1113 -0.2064
 7975PP      PP18079   6.832   2.071  11.689  0.0172 -0.2056  0.2358
 7976PP      PP18080   5.993  11.708   0.010  0.1121 -0.3538  0.2110
 7977PP      PP18081   4.541  10.853  10.030 -0.3642  0.0147  0.2012
 7978PP      PP18082   4.455  13.701  13.087 -0.0009 -0.0361  0.0418
 7979PP      PP18083   3.654   0.241   0.185 -0.0314  0.0879  0.1730
 7980PP      PP18084  14.553  12.355   0.804  0.1021  0.3852 -0.3006
 7981PP      PP18085  14.047  13.467   2.214  0.3358 -0.0402  0.0214
 7982PP      PP18086   1.240   8.153   1.136  0.0471 -0.0251  0.1664
 7983PP      PP18087  13.731   1.440  10.529  0.1098  0.3674  0.0841
 7984PP      PP18088   1.091   8.539   4.493  0.4557 -0.0248 -0.3236
 7985PP      PP18089   0.897   1.225   8.229 -0.1284  0.1886  0.3595
 7986PP      PP18090   5.890  12.583   1.706  0.0760  0.0703 -0.1257
 7987PP      PP18091   9.939  10.778   0.891 -0.3041  0.0762 -0.0873
 7988PP      PP18092   7.220  10.158  12.827  0.1445  0.1966 -0.1019
 7989PP      PP18093   8.024  13.601  12.267 -0.0544  0.1355 -0.2311
 7990PP      PP18094   3.592   4.228   9.598  0.3305  0.0851  0.1689
 7991PP      PP18095   1.562   6.127   0.711 -0.0322  0.2005 -0.2389
 7992PP      PP18096   5.277   9.597  12.486  0.0252  0.0397 -0.1724
 7993PP      PP18097   2.650   2.007  11.068  0.4845 -0.1552 -0.1380
 7994PP      PP18098   3.718  13.144  12.916 -0.1691 -0.1371  0.0304
 7995PP      PP18099   2.129   8.451  12.318 -0.1167 -0.2251  0.0047
 7996PP      PP18100   3.207   5.634  10.025  0.0453  0.1276  0.0413
 7997PP      PP18101   2.124  13.114   1.374 -0.0549  0.2287  0.0701
 7998PP      PP18102   3.557  10.648   2.348  0.1304 -0.0126  0.1148
 7999PP      PP18103  13.071   7.686  10.187 -0.2131  0.1360  0.3614
 8000PP      PP18104  10.231  14.606  12.031 -0.1603 -0.2938 -0.0911
 8001PP      PP18105   2.808   1.434   3.534  0.2302  0.4572 -0.0369
 8002PP      PP18106   3.642   1.469  12.653 -0.2794  0.1415  0.0256
 8003PP      PP18107   5.686   6.778  11.207 -0.1165 -0.1704  0.2525
 8004PP      PP18108   1.975   7.510   1.312 -0.0463  0.5088 -0.1621
 8005PP      PP18109   3.162   7.864   4.942 -0.1681 -0.2628 -0.2699
 8006PP      PP18110   8.220  10.783   2.173 -0.2674 -0.2814  0.0763
 8007PP      PP18111   2.470  10.187   4.452 -0.2048  0.1610 -0.2826
 8008PP      PP18112   8.376   1.019   9.186 -0.1856  0.1448  0.2531
 8009PP      PP18113  12.969   0.327  11.019 -0.0563  0.0560  0.1944
 8010PP      PP18114   4.670   8.424   2.713 -0.0605  0.1011  0.1841
 8011PP      PP18115   8.654  15.168   9.079 -0.2195  0.0948  0.2674
 8012PP      PP18116   4.927  10.229  11.594  0.1460 -0.4650  0.1728
 8013PP      PP18117   9.809  10.010   1.087 -0.1482  0.0084  0.3526
 8014PP      PP18118   9.583   3.433  10.057  0.0646 -0.1612  0.1578
 8015PP      PP18119  13.899   2.673   0.435  0.0325 -0.0860 -0.0639
 8016PP      PP18120  13.615   9.942   0.689 -0.3234  0.0704  0.0611
 8017PP      PP18121   0.353  11.741   1.516  0.0193 -0.0502 -0.1033
 8018PP      PP18122  14.899  11.403   0.775 -0.2192  0.0084 -0.1535
 8019PP      PP18123   1.399  10.920   8.684  0.2477  0.1057 -0.1380
 8020PP      PP18124   9.653  13.566   4.129 -0.1561 -0.2274 -0.1258
 8021PP      PP18125  15.823   3.124   0.368 -0.2493  0.0414 -0.3548
 8022PP      PP18126  11.667  13.771   0.926  0.1671  0.1622  0.3616
 8023PP      PP18127   8.686   1.225  12.687 -0.0284  0.2870  0.0059
 8024PP      PP18128   3.849   4.459  12.259  0.2994 -0.1511  0.1511
 8025PP      PP18129   6.235   0.483   1.786  0.0877  0.0417  0.5104
 8026PP      PP18130  11.522  13.874   1.812 -0.0052  0.0374 -0.1506
 8027PP      PP18131   7.162   0.781  10.531 -0.0033  0.0710 -0.0488
 8028PP      PP18132   2.181   7.281   0.209  0.2402  0.0187 -0.2017
 8029PP      PP18133  15.375  11.403  13.467 -0.0571 -0.2026  0.0665
 8030PP      PP18134  13.793   2.332   9.933 -0.0431  0.3129  0.0638
 8031PP      PP18135   6.262   8.268   5.424  0.1584 -0.0421 -0.0717
 8032PP      PP18136  13.154  13.775   1.247  0.1084 -0.1243  0.3167
 8033PP      PP18137  10.506  10.074   2.197 -0.1353  0.2814  0.0279
 8034PP      PP18138   8.230  14.410   0.633 -0.1773 -0.1309 -0.0838
 8035PP      PP18139  15.658   2.019  11.721 -0.2439 -0.3867  0.0459
 8036PP      PP18140  14.339   5.821   2.142 -0.4135  0.0195  0.2204
 8037PP      PP18141   3.767   8.550   3.267 -0.0187 -0.2711 -0.0702
 8038PP      PP18142   8.507  12.468  13.059  0.3832 -0.1036  0.1256
 8039PP      PP18143   0.721   5.648   2.553  0.1777  0.1603  0.3786
 8040PP      PP18144  14.182   2.890   1.228 -0.3566 -0.0459  0.0254
 8041PP      PP18145  10.727  14.581   4.109 -0.2049  0.5026  0.1462
 8042PP      PP18146   0.430   3.455   2.881 -0.0178  0.0255  0.1924
 8043PP      PP18147  15.088   0.509  10.091  0.1372 -0.1813 -0.1686
 8044PP      PP18148  10.276  11.750   3.214  0.1399  0.3412 -0.1401
 8045PP      PP18149  13.627   7.443   0.759  0.0141 -0.0738  0.1999
 8046PP      PP18150   1.374   3.578   3.061 -0.0446  0.1698 -0.0522
 8047PP      PP18151   4.139   4.749   1.811 -0.2511  0.1938  0.1844
 8048PP      PP18152   7.794   3.250  10.028  0.2888  0.1543 -0.0347
 8049PP      PP18153   2.005   3.050   8.616 -0.1989  0.0297  0.2447
 8050PP      PP18154   2.788  14.696  10.284  0.2598  0.0105  0.0574
 8051PP      PP18155  14.615  15.447  10.061 -0.0749 -0.0540 -0.0152
 8052PP      PP18156   4.674  10.835   4.420  0.2600 -0.0777  0.1031
 8053PP      PP18157   6.965  11.760   5.154  0.0592  0.2915  0.0787
 8054PP      PP18158  15.619   7.947   3.164 -0.0162 -0.0813  0.0512
 8055PP      PP18159  14.972   9.121  12.158  0.1215 -0.1252 -0.0971
 8056PP      PP18160  12.258  12.448  13.261 -0.0111  0.1742 -0.0184
 8057PP      PP18161   3.498  15.274  10.286  0.1360  0.0854 -0.1478
 8058PP      PP18162   0.424   3.923   1.533 -0.4402 -0.1369  0.0958
 8059PP      PP18163   6.744  14.758  10.370  0.0630 -0.0234 -0.1013
 8060PP      PP18164  12.187   2.258  13.338  0.1329  0.0888  0.0929
 8061PP      PP18165  14.260  11.783  13.366 -0.1071 -0.0599 -0.0271
 8062PP      PP18166   1.921   5.304  10.705  0.1859 -0.0995 -0.0152
 8063PP      PP18167   7.699   7.003  10.772  0.0418  0.1535 -0.2426
 8064PP      PP18168  14.957   8.169   3.716  0.1140 -0.0084 -0.1809
 8065PP      PP18169  10.354   5.144   9.312  0.0282  0.1746 -0.2547
 8066PP      PP18170  13.517   9.692   3.846  0.0735 -0.2780 -0.2480
 8067PP      PP18171   4.889  15.447   1.371  0.0576 -0.2396  0.0153
 8068PP      PP18172   4.112  11.652   3.417 -0.1119  0.0612 -0.1164
 8069PP      PP18173  14.949   7.713   8.714 -0.3469  0.1631  0.0706
 8070PP      PP18174   2.698   2.518   2.429  0.0076  0.0347  0.1959
 8071PP      PP18175  10.948   5.984  12.949 -0.1339 -0.0125  0.1189
 8072PP      PP18176   5.060  11.827   4.781  0.0515  0.1036 -0.2981
 8073PP      PP18177  12.066  11.554   3.643 -0.0717  0.2094 -0.0673
 8074PP      PP18178  11.780   0.443  13.011  0.2508 -0.1776  0.3009
 8075PP      PP18179   2.068   2.492   2.445 -0.3286 -0.5739  0.1556
 8076PP      PP18180   7.542   2.117  10.467 -0.2123  0.0543  0.0856
 8077PP      PP18181   0.321  12.871   3.782  0.1080 -0.1160  0.1150
 8078PP      PP18182  13.465   8.476  10.237  0.0506 -0.2533 -0.0346
 8079PP      PP18183  14.266  14.407   7.714 -0.2740 -0.0266 -0.0975
 8080PP      PP18184   4.171   5.907  12.008 -0.0631 -0.2765 -0.2319
 8081PP      PP18185   7.963  13.108  12.488  0.2407 -0.3725  0.1793
 8082PP      PP18186   8.971   6.929  10.278  0.3108 -0.2052  0.0983
 8083PP      PP18187   0.575  10.946  11.810 -0.3523 -0.1488  0.1835
 8084PP      PP18188   0.454   8.916   8.911  0.0918 -0.1869 -0.0329
 8085PP      PP18189  12.789  14.480   9.027  0.3010  0.1732  0.1314
 8086PP      PP18190   4.808   6.030   0.307 -0.0614  0.2985 -0.1005
 8087PP      PP18191   0.069   1.705   0.863 -0.1171  0.3600 -0.1679
 8088PP      PP18192  14.513  15.458   0.453 -0.1380  0.0663 -0.0399
 8089PP      PP18193   8.904  10.992   4.908  0.2315  0.0574 -0.0837
 8090PP      PP18194  15.100   5.069   1.209  0.0948  0.1200  0.1404
 8091PP      PP18195   8.354   0.570   0.851 -0.4191 -0.0618  0.1496
 8092PP      PP18196   9.885  15.586   0.349  0.2314  0.2959  0.0510
 8093PP      PP18197   0.943   5.754   4.293  0.0249 -0.2622 -0.1666
 8094PP      PP18198   6.389   8.492  10.311  0.1219 -0.0664  0.1387
 8095PP      PP18199   4.847   9.141   1.544 -0.2604 -0.1629 -0.4826
 8096PP      PP18200  11.777   6.799   2.683 -0.0653 -0.4442 -0.0490
 8097PP      PP18201  12.935   1.901  12.786 -0.1119 -0.0371  0.0669
 8098PP      PP18202   8.412   6.376   2.005 -0.2034  0.0418 -0.0816
 8099PP      PP18203  13.211   3.996   8.271  0.2428  0.1038  0.3675
 8100PP      PP18204   4.149   7.236   0.587  0.2218 -0.2407  0.0467
 8101PP      PP18205   6.905   9.399   0.936 -0.1204 -0.1311 -0.1450
 8102PP      PP18206   4.578  11.698  12.832 -0.1781 -0.2364  0.2271
 8103PP      PP18207   3.645   2.388  12.734 -0.1011  0.0555  0.0142
 8104PP      PP18208   5.757   8.602  13.406  0.2146  0.6715 -0.0705
 8105PP      PP18209  15.360   2.258   2.804  0.0126  0.0752  0.0693
 8106PP      PP18210   0.301   3.626  12.038  0.1665 -0.3130  0.0483
 8107PP      PP18211   8.622   4.088   0.146  0.1944 -0.1160 -0.0956
 8108PP      PP18212   7.639   1.693  11.041  0.0876 -0.2064  0.3074
 8109PP      PP18213   4.117   8.643  10.318 -0.0746 -0.0803 -0.2081
 8110PP      PP18214   0.624   0.481  11.132  0.0760  0.0440 -0.1824
 8111PP      PP18215   0.573   1.415   1.640  0.5160 -0.0487 -0.1845
 8112PP      PP18216   0.298   1.854   0.362  0.2987  0.0632 -0.4644
 8113PP      PP18217  11.021   6.102   8.393 -0.0081  0.1811  0.2157
 8114PP      PP18218  15.121  10.085   2.827  0.1212 -0.1322 -0.0021
 8115PP      PP18219   3.011   1.640  10.913  0.2041  0.2010  0.1358
 8116PP      PP18220   3.887   2.245  13.321 -0.1091  0.2170 -0.0007
 8117PP      PP18221   6.551   8.695  12.388  0.1502 -0.1418 -0.2790
 8118PP      PP18222   9.031   0.273   9.815  0.3046 -0.0970  0.1285
 8119PP      PP18223  13.087  11.173   8.251 -0.2388 -0.0460  0.3368
 8120PP      PP18224  15.830   9.005  13.270  0.4468  0.0553  0.0489
 8121PP      PP18225   1.725   5.414  12.903 -0.0826 -0.0517 -0.0010
 8122PP      PP18226  14.396  14.796   2.245 -0.0341 -0.2815  0.4155
 8123PP      PP18227   5.240  15.570   2.702  0.0599 -0.2118 -0.2021
 8124PP      PP18228   9.276   4.263   2.123  0.0625 -0.1720  0.1279
 8125PP      PP18229   5.738  14.855   0.960 -0.1408  0.1513  0.0980
 8126PP      PP18230   5.639   7.962  10.062  0.0978 -0.1168  0.1941
 8127PP      PP18231   5.736   0.156   3.595 -0.0107  0.2618 -0.0529
 8128PP      PP18232   1.147  14.763   0.872  0.0178 -0.0945  0.0094
 8129PP      PP18233   5.556  11.287   2.483  0.0812  0.0905  0.1186
 8130PP      PP18234   9.825   0.273  10.559 -0.1513 -0.2078  0.2047
 8131PP      PP18235   1.306   4.414   0.945  0.0240  0.1579  0.2717
 8132PP      PP18236  15.869   9.583   4.808 -0.1874  0.0748 -0.0580
 8133PP      PP18237   4.617  11.475   9.742 -0.0763 -0.2390  0.5890
 8134PP      PP18238  11.266   6.519   2.512  0.0350  0.3965 -0.1777
 8135PP      PP18239  13.143  15.314  12.007 -0.0133  0.0431 -0.2431
 8136PP      PP18240   3.432   9.998  11.760 -0.1926 -0.3285 -0.2706
 8137PP      PP18241   1.297   8.972   9.879  0.2723 -0.0673 -0.1954
 8138PP      PP18242   3.062  11.351   3.076 -0.2173  0.2542 -0.1111
 8139PP      PP18243  13.714   0.364   8.614  0.1886 -0.0518  0.3591
 8140PP      PP18244   0.572   2.612   0.273  0.0820  0.0892 -0.0687
 8141PP      PP18245  15.525  13.318  10.099 -0.1015 -0.1506 -0.1013
 8142PP      PP18246   4.689   2.748   1.247 -0.1441  0.0532 -0.0806
 8143PP      PP18247  10.548  15.867   3.213  0.2515  0.0505 -0.1609
 8144PP      PP18248  15.456   0.255   3.830 -0.2635 -0.1528 -0.0506
 8145PP      PP18249  12.331   6.341   9.306  0.3669  0.3121  0.2495
 8146PP      PP18250   8.916  15.321   8.672 -0.1842 -0.0978  0.0785
 8147PP      PP18251  10.626  10.822   2.652 -0.0730 -0.1332  0.1346
 8148PP      PP18252  13.660   2.246   9.426  0.0165  0.0308  0.1178
 8149PP      PP18253   6.362   4.557  13.191 -0.3116 -0.0884 -0.1320
 8150PP      PP18254  11.636   6.549  13.362 -0.3525 -0.0447 -0.1853
 8151PP      PP18255   6.574  13.716   2.969 -0.1565 -0.0196 -0.0490
 8152PP      PP18256   3.926   9.050   3.446 -0.0045  0.1681  0.2607
 8153PP      PP18257  14.820   2.039   3.863 -0.2621  0.1505 -0.0181
 8154PP      PP18258  11.491   5.437  10.991  0.3231 -0.1108 -0.1033
 8155PP      PP18259   7.258  13.663   9.303  0.0777 -0.2460 -0.2502
 8156PP      PP18260  13.641   9.002   3.358 -0.3984 -0.3309 -0.0046
 8157PP      PP18261   3.327  13.215   9.533  0.2025 -0.0337 -0.0692
 8158PP      PP18262  12.147   3.548   9.847 -0.4001  0.1439  0.0464
 8159PP      PP18263   1.723   3.666   9.176  0.1696  0.0322  0.1047
 8160PP      PP18264  15.445   7.123   9.603 -0.2854  0.3771  0.1108
 8161PP      PP18265  15.750   1.094  13.461 -0.1612  0.0381 -0.2829
 8162PP      PP18266   2.407   8.435  10.406 -0.4260  0.0847 -0.1342
 8163PP      PP18267  14.765   4.005   0.176 -0.1937 -0.0579 -0.0905
 8164PP      PP18268   8.068  15.698   0.223 -0.0396 -0.1987 -0.0014
 8165PP      PP18269   3.265  15.292   9.302 -0.3566 -0.0486 -0.1890
 8166PP      PP18270   5.443   1.379  13.341 -0.1492  0.5895 -0.1570
 8167PP      PP18271   5.571  12.248   3.386 -0.1544 -0.0832 -0.4871
 8168PP      PP18272   1.801   6.528   2.833  0.0814 -0.1241  0.3157
 8169PP      PP18273   3.698   1.484   9.946 -0.0313  0.0874 -0.0211
 8170PP      PP18274   5.479   9.183  12.247 -0.0788  0.2156 -0.2994
 8171PP      PP18275   0.361  15.482  12.037 -0.0774 -0.0821 -0.1107
 8172PP      PP18276   4.274  10.318   1.691  0.0992 -0.4255 -0.1142
 8173PP      PP18277   3.639   9.510   4.770 -0.1105 -0.0763 -0.2913
 8174PP      PP18278   9.692   9.961  13.169 -0.2298  0.1999 -0.0900
 8175PP      PP18279   0.751  12.170  10.840 -0.0187  0.0156  0.2145
 8176PP      PP18280   6.848   7.832  10.414 -0.2376  0.0497  0.0880
 8177PP      PP18281   4.022   3.197   2.402 -0.4362  0.2622 -0.2417
 8178PP      PP18282  13.509   8.817  11.141 -0.1242 -0.0253 -0.2527
 8179PP      PP18283  15.179  13.444  12.193 -0.1256  0.2202 -0.1656
 8180PP      PP18284   2.514  14.481   4.085 -0.3913  0.2327 -0.0099
 8181PP      PP18285   8.022  12.151   0.456  0.2210 -0.0808  0.1357
 8182PP      PP18286   1.938   5.068  11.599 -0.0561 -0.0126  0.3076
 8183PP      PP18287   6.173   5.787   9.973  0.2317  0.0627 -0.0037
 8184PP      PP18288   3.070   5.255   3.847  0.2026 -0.0907 -0.0287
 8185PP      PP18289   7.471   3.376  11.650  0.0493 -0.2434 -0.0619
 8186PP      PP18290  10.544   4.236  10.207 -0.2474 -0.1473 -0.2608
 8187PP      PP18291   0.998  14.950  10.332 -0.0208 -0.0757 -0.0798
 8188PP      PP18292   1.004   1.703  13.117 -0.2967 -0.0157 -0.0119
 8189PP      PP18293   4.920   9.910   4.980  0.2548 -0.1265  0.2833
 8190PP      PP18294  11.192  10.910   3.302 -0.0509  0.0281  0.0875
 8191PP      PP18295  10.550   4.597  13.285  0.0665  0.2929 -0.0241
 8192PP      PP18296   8.720   3.309   0.900  0.0874  0.0114  0.0903
 8193PP      PP18297  10.959  12.281   9.616 -0.1495  0.0129  0.2972
 8194PP      PP18298  12.564   6.341  12.897 -0.2159  0.0615 -0.1144
 8195PP      PP18299   2.317  14.141   1.143 -0.1004 -0.2546 -0.1942
 8196PP      PP18300  15.534  13.826   9.379 -0.1030 -0.4269 -0.3220
 8197PP      PP18301   9.595  15.520   2.392  0.2950 -0.1612  0.0620
 8198PP      PP18302  12.198   2.926   3.208 -0.0894  0.0168  0.0786
 8199PP      PP18303   9.197   3.491   1.991 -0.0496  0.0362 -0.2798
 8200PP      PP18304   8.498  10.336   9.460  0.0788  0.1021 -0.2142
 8201PP      PP18305   3.397  10.476   1.463 -0.2382 -0.0241  0.1227
 8202PP      PP18306   7.638   7.772   1.484  0.2821  0.2227  0.2953
 8203PP      PP18307  14.595  13.055   2.837  0.1359  0.1710  0.2101
 8204PP      PP18308   8.538   6.037   3.315 -0.2562 -0.0139 -0.0064
 8205PP      PP18309  11.516  11.723  12.248 -0.2842  0.0870 -0.0387
 8206PP      PP18310   9.209  10.242   3.917 -0.0550 -0.0742  0.3219
 8207PP      PP18311   2.046   6.052   0.865  0.2403  0.3725  0.0256
 8208PP      PP18312   3.945   4.537   8.709 -0.0434  0.3604  0.1550
 8209PP      PP18313  13.119  15.159   0.688 -0.1700  0.2074  0.2796
 8210PP      PP18314  10.609   4.028  11.646  0.2171 -0.3358 -0.1200
 8211PP      PP18315   8.453  14.042  12.833  0.1339 -0.0948  0.2506
 8212PP      PP18316   2.855   1.152  10.667  0.1833  0.1678  0.1796
 8213PP      PP18317   4.082   3.604  12.113  0.0943 -0.1273 -0.0459
 8214PP      PP18318   0.445  15.788   0.261  0.0071 -0.3401  0.2334
 8215PP      PP18319   9.763  14.258   8.284 -0.1975  0.0510 -0.2187
 8216PP      PP18320  14.989  13.337   2.535  0.2241 -0.1994  0.3218
 8217PP      PP18321   1.025   3.593   4.353 -0.2144 -0.0220 -0.3091
 8218PP      PP18322  11.624   7.968  11.106  0.1290  0.0128 -0.1042
 8219PP      PP18323  13.356   2.546   0.479 -0.2770 -0.0174 -0.0692
 8220PP      PP18324  13.468   9.463  12.579  0.2001 -0.0143 -0.0084
 8221PP      PP18325   0.500  12.763   8.961 -0.0532  0.0377  0.0840
 8222PP      PP18326   6.006   9.493   3.039  0.0807  0.0460  0.1530
 8223PP      PP18327   1.769  12.495  11.211 -0.2895 -0.0041 -0.0804
 8224PP      PP18328  12.934  10.666  10.966 -0.4251  0.0494 -0.1830
 8225PP      PP18329  10.878   1.700   9.924  0.2199  0.1037  0.1106
 8226PP      PP18330  15.630   7.740   3.916 -0.2594  0.1452  0.2258
 8227PP      PP18331   9.026   4.483   3.029  0.2182  0.0570  0.3577
 8228PP      PP18332  10.103  13.894   2.234  0.0853  0.3416 -0.1268
 8229PP      PP18333   4.391  14.955   0.125 -0.1017 -0.0201 -0.3067
 8230PP      PP18334  10.035   9.401   9.129  0.0048  0.0919 -0.2018
 8231PP      PP18335  13.472  10.469   1.745  0.1902  0.2519  0.1798
 8232PP      PP18336   2.517   8.233   1.920  0.0048 -0.2706  0.1946
 8233PP      PP18337  14.692   3.960  12.533  0.0228 -0.0374  0.0497
 8234PP      PP18338  12.479  13.638   8.750 -0.1478 -0.2304  0.0126
 8235PP      PP18339   7.392  12.294   4.017  0.0675 -0.2227  0.1030
 8236PP      PP18340   9.719   8.268   1.609 -0.1131 -0.0698  0.1052
 8237PP      PP18341   3.615  14.588   0.809 -0.2525 -0.0320  0.1212
 8238PP      PP18342   4.597  10.280  11.994 -0.1343  0.1827  0.1481
 8239PP      PP18343  12.267   7.984  12.388 -0.2553  0.3015  0.1244
 8240PP      PP18344  12.223   1.415   3.064  0.0623  0.0496 -0.1692
 8241PP      PP18345   9.515  14.207   8.735 -0.1282  0.1399  0.0109
 8242PP      PP18346  11.339  15.579  12.670  0.0310  0.3967  0.0394
 8243PP      PP18347  10.020  14.692   2.170  0.2327 -0.1768  0.0273
 8244PP      PP18348   7.231  11.795  10.219 -0.1693 -0.0473 -0.1513
 8245PP      PP18349   3.971  13.961   0.060 -0.0158 -0.2399 -0.1757
 8246PP      PP18350   4.645  10.188   1.258 -0.1515  0.1624  0.1479
 8247PP      PP18351  13.390   8.575   3.432  0.3706 -0.0737 -0.1491
 8248PP      PP18352   9.074   0.637   3.352  0.0347  0.1630  0.0080
 8249PP      PP18353  12.687  10.536  13.366 -0.3117 -0.0329  0.2167
 8250PP      PP18354   7.368   7.080  12.440 -0.0590 -0.0381  0.0644
 8251PP      PP18355  12.853  13.350   0.000 -0.1179  0.0178  0.2222
 8252PP      PP18356   5.926   4.483   3.444  0.0532  0.0808  0.1934
 8253PP      PP18357   5.280   9.156   3.801  0.2683  0.0948 -0.1909
 8254PP      PP18358  12.927   5.788  11.874 -0.0445 -0.0672 -0.2947
 8255PP      PP18359  15.872   2.706   2.822  0.0250 -0.3820  0.3038
 8256PP      PP18360  14.817  15.575   2.108 -0.1271 -0.2453  0.0593
 8257PP      PP18361  12.670   2.288  10.705  0.0114 -0.6931 -0.1219
 8258PP      PP18362   7.574  14.532   9.368  0.2490  0.0643  0.0225
 8259PP      PP18363  14.311   1.579   2.401 -0.4343 -0.1249 -0.1787
 8260PP      PP18364  15.652   5.954   2.110 -0.1442  0.0293 -0.3353
 8261PP      PP18365  15.863  12.625   4.069 -0.2512  0.0634 -0.1472
 8262PP      PP18366   5.599   3.327   0.655  0.0464 -0.0385  0.2503
 8263PP      PP18367   8.627  10.744   1.154 -0.2217  0.1840  0.1220
 8264PP      PP18368   2.576   8.411  11.463 -0.2000 -0.2143 -0.2869
 8265PP      PP18369  10.751   4.977  11.121 -0.0111  0.2273  0.1807
 8266PP      PP18370  13.765   6.850   3.083 -0.0578 -0.4039 -0.1242
 8267PP      PP18371  15.614  14.235   9.995 -0.2230 -0.2429 -0.0230
 8268PP      PP18372   6.753   9.416  11.790  0.1514  0.1987 -0.1682
 8269PP      PP18373  15.510   2.861  11.010 -0.0803  0.0037 -0.0194
 8270PP      PP18374  14.836   4.977   9.610 -0.3616  0.0994 -0.2918
 8271PP      PP18375  13.185  11.670   8.526  0.1151  0.2266  0.3364
 8272PP      PP18376  12.898   8.712  12.847 -0.0586 -0.1842  0.0284
 8273PP      PP18377   1.283  14.105   0.100 -0.2231 -0.1762  0.0169
 8274PP      PP18378   5.729   0.157   0.034 -0.0378 -0.2714 -0.1194
 8275PP      PP18379   8.701  15.591   1.409  0.0441  0.2065 -0.2095
 8276PP      PP18380   2.742  11.007   4.047  0.0171  0.1136  0.1515
 8277PP      PP18381  14.729   9.435  10.975  0.1447  0.1078 -0.0580
 8278PP      PP18382   9.052  15.231   2.958  0.1188  0.2231 -0.1524
 8279PP      PP18383   7.878   4.725  10.837  0.1304  0.0575  0.0820
 8280PP      PP18384  13.927  13.118   9.083 -0.0265  0.1358  0.0616
 8281PP      PP18385   7.064  11.076   2.338  0.0928 -0.2261 -0.0165
 8282PP      PP18386   3.496   1.504  10.781 -0.2540 -0.1025 -0.0915
 8283PP      PP18387   0.832  15.728  10.125 -0.3285 -0.0855  0.0107
 8284PP      PP18388  13.323  11.204   2.459  0.1083 -0.1994  0.0653
 8285PP      PP18389   9.263   6.834   9.149  0.0735 -0.2105 -0.0306
 8286PP      PP18390  14.989   1.970   2.963 -0.0806 -0.0256  0.0172
 8287PP      PP18391   2.347   4.916  13.119 -0.2333 -0.1923 -0.1404
 8288PP      PP18392   3.878  10.733   4.822  0.0542  0.1590 -0.0149
 8289PP      PP18393  14.928  12.790   2.390  0.1335 -0.0416 -0.2037
 8290PP      PP18394  14.175  12.889  11.199  0.2847  0.1738 -0.0934
 8291PP      PP18395  14.563   6.199   9.473  0.0090 -0.0308 -0.2412
 8292PP      PP18396  12.691   1.633  11.276 -0.1561 -0.1134 -0.1963
 8293PP      PP18397  13.953  12.464  10.382  0.0240  0.2216  0.1068
 8294PP      PP18398  15.210   1.064   3.806  0.2815 -0.0311  0.0316
 8295PP      PP18399   6.986   5.076   0.954 -0.1380 -0.0381  0.1399
 8296PP      PP18400   5.731  15.834  10.847  0.2870  0.0579 -0.0328
 8297PP      PP18401   3.527   2.608   1.802  0.0892 -0.0802  0.4351
 8298PP      PP18402  12.811   1.667   3.839  0.1581 -0.3756 -0.1991
 8299PP      PP18403   1.934  15.329  13.084  0.2023  0.0250  0.1429
 8300PP      PP18404  12.645  13.328   9.535 -0.0629 -0.0069  0.0559
 8301PP      PP18405   0.169  12.184   2.390  0.0542  0.4646  0.0131
 8302PP      PP18406   3.087   7.912  10.361  0.1817 -0.1181 -0.4051
 8303PP      PP18407   9.940   6.256   0.299 -0.0172  0.0004 -0.1761
 8304PP      PP18408  13.541   9.426   8.459  0.0398 -0.1343 -0.1553
 8305PP      PP18409   3.074   2.026   7.545 -0.1800  0.1214 -0.1287
 8306PP      PP18410   3.272   3.321  11.376  0.3391  0.3671 -0.3572
 8307PP      PP18411   7.157  14.983   2.762  0.3534 -0.0169  0.0917
 8308PP      PP18412   8.343   4.815   2.215 -0.1442 -0.0214  0.0947
 8309PP      PP18413   2.846   9.515   3.905  0.1588 -0.1455 -0.4708
 8310PP      PP18414  12.743   7.739   1.032  0.1269 -0.0367 -0.1030
 8311PP      PP18415   8.888   7.168   3.589 -0.0278 -0.1166 -0.1553
 8312PP      PP18416  13.766   8.967  10.482 -0.0582 -0.0023 -0.3262
 8313PP      PP18417   3.243   7.234  12.935  0.0989 -0.1787 -0.3244
 8314PP      PP18418   1.005   5.912   2.998 -0.3409  0.1240  0.2220
 8315PP      PP18419   7.805   8.175   3.676 -0.1294 -0.1441 -0.0341
 8316PP      PP18420   3.755   6.514   2.745  0.1136 -0.2327  0.2105
 8317PP      PP18421   6.329   5.997   0.168 -0.1225 -0.3497  0.0115
 8318PP      PP18422  10.543   2.707   8.906 -0.1971 -0.1332 -0.0659
 8319PP      PP18423   6.574   7.369  12.662  0.0769 -0.1093 -0.1852
 8320PP      PP18424  14.114  14.627   1.609  0.1424  0.0835  0.0307
 8321PP      PP18425   1.181   7.784  11.116 -0.1666  0.1618 -0.0570
 8322PP      PP18426   2.655   6.131  12.801 -0.1522 -0.1413 -0.0156
 8323PP      PP18427   0.862   2.514   0.672 -0.3799 -0.3819  0.1142
 8324PP      PP18428  12.994   7.525   3.247 -0.0876  0.4407  0.0815
 8325PP      PP18429  10.124   1.860  10.591  0.3067  0.2160 -0.0778
 8326PP      PP18430  13.775   1.650  11.080  0.2821  0.0607  0.1261
 8327PP      PP18431  10.174  14.856  11.557  0.1250 -0.1962  0.3245
 8328PP      PP18432   2.688   5.597   1.461  0.1229 -0.0788  0.0204
 8329PP      PP18433   4.959   4.489   0.923  0.2297 -0.4198 -0.3366
 8330PP      PP18434  15.430   1.670  11.501 -0.1008  0.0729 -0.1268
 8331PP      PP18435   5.531   3.306   1.833  0.0114  0.2215 -0.2329
 8332PP      PP18436   1.552   1.606   0.486 -0.1971 -0.0783 -0.0695
 8333PP      PP18437   4.505   9.098  13.333  0.0093  0.3568 -0.1168
 8334PP      PP18438   0.140  10.171   3.075 -0.0968 -0.1263 -0.2233
 8335PP      PP18439  12.404   4.591   1.602 -0.2563 -0.0128 -0.3169
 8336PP      PP18440  14.589   6.107  13.120  0.0585  0.0349  0.0645
 8337PP      PP18441   7.531   9.823  10.005  0.2653 -0.0960  0.0846
 8338PP      PP18442  13.799   4.224   3.705  0.2469  0.0400 -0.0539
 8339PP      PP18443  14.412   3.723  10.724  0.2980 -0.2410  0.0918
 8340PP      PP18444  12.911   6.035  12.742  0.3006 -0.1474  0.0881
 8341PP      PP18445  14.091   7.316  12.208 -0.0774  0.1344 -0.1672
 8342PP      PP18446   5.002   9.898  13.416  0.0455 -0.1219  0.2494
 8343PP      PP18447  10.289  15.899   1.964  0.0255 -0.2294 -0.2499
 8344PP      PP18448   1.052  13.254  12.333  0.1855 -0.0217 -0.0255
 8345PP      PP18449  10.509   6.499   2.867  0.1924 -0.1032  0.0583
 8346PP      PP18450   0.182   4.346  10.700  0.0618  0.0202  0.1512
 8347PP      PP18451  11.055  15.739   0.110 -0.2623 -0.1496 -0.1824
 8348PP      PP18452  12.056   7.756  11.071 -0.0745  0.1996 -0.0242
 8349PP      PP18453   7.475   0.894  11.925  0.3761  0.1564  0.3279
 8350PP      PP18454   0.610   0.416   8.468 -0.2987 -0.2034  0.1114
 8351PP      PP18455  10.678  13.107   0.132  0.0161 -0.2289  0.1038
 8352PP      PP18456   5.590   4.260   0.965  0.1721  0.1288  0.3153
 8353PP      PP18457   8.308   5.124   2.933 -0.3625  0.1504  0.2369
 8354PP      PP18458   2.037  13.814  10.162 -0.2887 -0.0721 -0.1248
 8355PP      PP18459  14.231   4.847   1.845  0.0699 -0.1821 -0.0550
 8356PP      PP18460  13.091  14.935   3.516 -0.0020 -0.1351 -0.1616
 8357PP      PP18461   4.311   3.047   1.467  0.0858  0.2422 -0.0243
 8358PP      PP18462  12.339   3.267  10.368  0.0761 -0.0718  0.0795
 8359PP      PP18463  15.407   5.362  11.840  0.2074 -0.1731  0.0932
 8360PP      PP18464  10.361   0.663   1.051 -0.0090  0.2335  0.1449
 8361PP      PP18465   6.124  11.993   2.620 -0.2898 -0.1839 -0.1655
 8362PP      PP18466   3.883   0.828   3.518  0.2038 -0.1326 -0.0689
 8363PP      PP18467   9.153  14.464  12.639  0.0579  0.1916 -0.1220
 8364PP      PP18468  11.961   6.639  10.514  0.0403 -0.0701 -0.3376
 8365PP      PP18469   9.780   4.541  10.706  0.2558 -0.1765 -0.0595
 8366PP      PP18470  13.823  13.829   0.145  0.1949 -0.0732 -0.1840
 8367PP      PP18471   6.737  11.496  12.150 -0.1501  0.0152  0.0995
 8368PP      PP18472   1.369   2.642   0.597  0.0584 -0.2597 -0.0015
 8369PP      PP18473   3.101   7.491   3.899 -0.1240  0.0173 -0.3387
 8370PP      PP18474   2.117   0.400   8.006  0.1627  0.1821  0.1478
 8371PP      PP18475  13.652   8.335   4.104  0.0758 -0.1851 -0.1884
 8372PP      PP18476  11.662  14.650   3.393  0.1506  0.0547 -0.0359
 8373PP      PP18477   5.364   2.975   8.719  0.0458 -0.0754  0.0514
 8374PP      PP18478   0.571  13.329  10.380 -0.0366  0.1251 -0.0371
 8375PP      PP18479   8.939   2.988  10.554 -0.2812 -0.1314  0.2977
 8376PP      PP18480   6.966   1.031   4.753  0.2340 -0.1193  0.2213
 8377PP      PP18481   1.647   0.426   8.910 -0.1054 -0.1284 -0.1690
 8378PP      PP18482   8.101  11.671  10.496  0.2662  0.1473 -0.1079
 8379PP      PP18483   2.662   7.595  10.912 -0.0265 -0.0276 -0.6596
 8380PP      PP18484   1.290   4.187  12.106  0.1937 -0.1473 -0.1944
 8381PP      PP18485  10.513  15.050   1.137  0.0446 -0.4169  0.0285
 8382PP      PP18486  10.229   3.194  10.256  0.1524  0.2699  0.0772
 8383PP      PP18487   4.486   7.251   3.536  0.0032  0.2632 -0.1906
 8384PP      PP18488   1.507   0.047   9.255 -0.2866 -0.1209 -0.2298
 8385PP      PP18489  15.279   0.972   9.919  0.4541 -0.2815  0.2828
 8386PP      PP18490   8.755  14.795  13.410  0.1532 -0.4118  0.0745
 8387PP      PP18491   7.580  13.555  11.274  0.3765  0.1464  0.0315
 8388PP      PP18492  13.899   7.060   9.315  0.0518  0.1876  0.0901
 8389PP      PP18493   9.709   4.036   4.222 -0.0839  0.1516 -0.0876
 8390PP      PP18494   8.839  12.195   9.984 -0.1145 -0.0681  0.1589
 8391PP      PP18495  14.193  11.082   9.325  0.0544 -0.1840  0.0046
 8392PP      PP18496  14.908   2.760  10.917 -0.0149  0.2847  0.1220
 8393PP      PP18497   3.247   6.937  11.715  0.2273 -0.0286  0.1234
 8394PP      PP18498   5.412   8.386  10.574  0.1862  0.0417  0.0235
 8395PP      PP18499   6.988   8.892   0.991 -0.1183 -0.1488 -0.0935
 8396PP      PP18500   4.998   9.900   4.441  0.2864 -0.0110  0.1587
 8397PP      PP18501   2.947   0.478   9.607  0.3158 -0.0643 -0.1518
 8398PP      PP18502  13.332   5.842   0.916 -0.0890  0.4974 -0.0877
 8399PP      PP18503  15.813   2.707  11.850  0.0621  0.2094 -0.2602
 8400PP      PP18504  11.193   1.209   9.494 -0.1119  0.2006  0.0494
 8401PP      PP18505  14.836   3.405  13.344 -0.2186 -0.0061 -0.1132
 8402PP      PP18506   9.466   5.437  10.510 -0.4227 -0.0570 -0.2575
 8403PP      PP18507   7.985  11.394   9.471  0.0325 -0.0217 -0.0405
 8404PP      PP18508   7.830   3.847  12.630 -0.0943  0.0650  0.3291
 8405PP      PP18509  10.870   0.865   2.165  0.1204  0.0004 -0.1595
 8406PP      PP18510   0.781   6.805   4.793 -0.1805  0.2289  0.1274
 8407PP      PP18511  10.334   1.394   3.522 -0.1103 -0.3260  0.0133
 8408PP      PP18512  14.084  12.654   9.030  0.4127 -0.0967  0.1623
 8409PP      PP18513   7.670   2.599   9.741  0.1847 -0.0823  0.1565
 8410PP      PP18514   2.492   7.703  11.736 -0.0833 -0.0515  0.2203
 8411PP      PP18515  11.620  10.142  11.448 -0.1741 -0.1024  0.1858
 8412PP      PP18516  15.640   9.861  12.846 -0.0625  0.1626  0.4560
 8413PP      PP18517  14.798   4.612  11.598 -0.1493  0.3833  0.3264
 8414PP      PP18518   8.623   8.671  10.684 -0.3396  0.0586  0.1841
 8415PP      PP18519   6.248   6.859   3.603 -0.1287 -0.0009 -0.0281
 8416PP      PP18520   0.270  15.021  10.808 -0.0085 -0.1559 -0.1067
 8417PP      PP18521   0.046   9.957  12.420 -0.0131 -0.1703  0.1071
 8418PP      PP18522   0.987   0.076   3.570 -0.0566  0.0239  0.1358
 8419PP      PP18523  15.166   6.229  13.212  0.1915  0.1529  0.0515
 8420PP      PP18524  11.670   9.261  11.524 -0.0347  0.1182  0.1068
 8421PP      PP18525  15.849  11.127   0.073 -0.0452 -0.1286 -0.0029
 8422PP      PP18526   8.962   5.595   4.701 -0.1261 -0.0963  0.3190
 8423PP      PP18527   1.165  12.580   9.597  0.3238 -0.0094  0.3033
 8424PP      PP18528   2.613   6.834  12.040  0.1926 -0.1465  0.0453
 8425PP      PP18529   6.178   5.965  10.852  0.0192 -0.2905  0.2421
 8426PP      PP18530  14.623   1.264   1.582  0.0369  0.1635 -0.0382
 8427PP      PP18531   8.722  13.372  10.980 -0.0525  0.2636 -0.0081
 8428PP      PP18532  13.659   7.596  10.480 -0.1467  0.2980 -0.1698
 8429PP      PP18533   6.695  14.587   3.605  0.0691 -0.0243 -0.2161
 8430PP      PP18534  10.362   1.774  12.839 -0.1428  0.0378  0.1696
 8431PP      PP18535   4.215   1.681  10.278 -0.1102 -0.3628  0.1253
 8432PP      PP18536   6.694   7.895  12.664  0.0029  0.3455 -0.2892
 8433PP      PP18537   2.826   4.842   9.233  0.1082 -0.2254 -0.0756
 8434PP      PP18538   3.613   1.528   2.085 -0.1407 -0.2773 -0.1619
 8435PP      PP18539   7.966   9.062   1.943 -0.0400 -0.0802  0.1445
 8436PP      PP18540   3.223   9.924   2.808  0.0356  0.1239 -0.2318
 8437PP      PP18541  11.725   5.785   2.269  0.1104  0.1516 -0.1925
 8438PP      PP18542   7.410   7.849  10.340 -0.1397 -0.2344 -0.2734
 8439PP      PP18543   2.435  13.658   0.701  0.2211 -0.3539  0.3584
 8440PP      PP18544  11.191   8.188   8.744 -0.0305 -0.1034  0.0964
 8441PP      PP18545   3.216   2.924   9.307 -0.3367 -0.2988  0.0769
 8442PP      PP18546  12.734   0.633   2.802  0.0872  0.0293 -0.1047
 8443PP      PP18547   7.934  12.418  13.093  0.0275  0.1029  0.0267
 8444PP      PP18548  14.240   5.286  12.742  0.2281 -0.0244 -0.0276
 8445PP      PP18549  14.146   8.703  10.639 -0.0348 -0.2632 -0.1141
 8446PP      PP18550   8.172   4.184  12.894 -0.2598 -0.0244  0.2566
 8447PP      PP18551  13.324   0.498   3.328 -0.2140 -0.3075  0.0580
 8448PP      PP18552  10.368   3.794  13.312 -0.1769  0.1770 -0.0848
 8449PP      PP18553  14.535   3.947   4.111  0.2142  0.2388  0.0035
 8450PP      PP18554   1.519   1.198  11.145  0.1060  0.1030 -0.4465
 8451PP      PP18555   4.588  13.730  10.709  0.1070 -0.1871  0.0143
 8452PP      PP18556  13.328   9.256   8.850 -0.0201  0.1041 -0.0321
 8453PP      PP18557   3.055  10.797  11.686 -0.1756 -0.0145 -0.1257
 8454PP      PP18558   7.978  13.453   1.928  0.1582  0.2648  0.0684
 8455PP      PP18559   2.088   6.716   2.437  0.1650 -0.3008 -0.0680
 8456PP      PP18560   9.843   8.986   3.894 -0.1458  0.1219 -0.1048
 8457PP      PP18561   2.162   5.181   1.148  0.1699 -0.0029 -0.0497
 8458PP      PP18562   4.280  14.316   2.575  0.1975  0.0290  0.0973
 8459PP      PP18563   8.142   1.507   0.713  0.0517  0.0142 -0.0281
 8460PP      PP18564  11.645  10.500  12.496 -0.2086  0.1804 -0.0226
 8461PP      PP18565   2.976   1.016   8.902 -0.2422 -0.1035 -0.1012
 8462PP      PP18566  12.857   8.227   2.061  0.0411  0.1398 -0.0459
 8463PP      PP18567   0.751   9.334  12.813  0.2116 -0.0508 -0.2406
 8464PP      PP18568   8.402   5.200   0.198  0.1060  0.0998  0.1725
 8465PP      PP18569  10.892  14.036   8.105 -0.0008  0.0859  0.0382
 8466PP      PP18570  12.813  10.978   2.599 -0.2627 -0.1573  0.3042
 8467PP      PP18571  12.627   9.315   1.603 -0.0007 -0.1458  0.1227
 8468PP      PP18572  14.938   3.934   3.396  0.3005  0.0707  0.1380
 8469PP      PP18573   2.088  15.819  10.925  0.1130 -0.0104 -0.0245
 8470PP      PP18574   3.799   2.904  10.533 -0.0951 -0.1281 -0.1651
 8471PP      PP18575   5.322   9.355   1.552  0.1767 -0.0448  0.0430
 8472PP      PP18576  13.319   0.456  12.432 -0.0703  0.0640 -0.1538
 8473PP      PP18577   9.455  11.702  13.279 -0.0009  0.0212  0.0512
 8474PP      PP18578  14.213  13.646  10.172  0.1025 -0.1185 -0.2081
 8475PP      PP18579  14.023  12.511   0.916 -0.0035 -0.1654 -0.0061
 8476PP      PP18580   2.931   5.599   3.282  0.2007 -0.2100  0.1151
 8477PP      PP18581   0.717   7.293  13.008  0.1149  0.4127  0.2355
 8478PP      PP18582   8.916   5.579   9.650  0.1118  0.0268 -0.0407
 8479PP      PP18583   4.768  11.268   4.669  0.1729  0.2499 -0.0537
 8480PP      PP18584   8.970   5.081  11.257  0.0936 -0.2531  0.2467
 8481PP      PP18585   4.190  12.352  10.668  0.1206 -0.0664  0.0269
 8482PP      PP18586   4.598   4.711   0.050 -0.0116  0.0529  0.0910
 8483PP      PP18587   6.151   5.000   1.868  0.2110  0.0012  0.0947
 8484PP      PP18588  14.931   0.142  10.422  0.0981  0.2940 -0.0480
 8485PP      PP18589  14.963  10.217   8.225 -0.1616 -0.0569 -0.1158
 8486PP      PP18590  10.992   0.623   8.762  0.1002 -0.0350  0.3994
 8487PP      PP18591   2.712   1.916   3.358  0.0045  0.1698 -0.0643
 8488PP      PP18592  10.317   8.311  12.770  0.0314  0.2159 -0.1930
 8489PP      PP18593   7.380   8.297   0.114 -0.1817 -0.1347  0.2256
 8490PP      PP18594   4.766   3.772   8.983 -0.1060  0.0797  0.1505
 8491PP      PP18595  12.942   3.413   9.539  0.0416  0.1840 -0.0845
 8492PP      PP18596   1.935   2.426   3.759 -0.1574  0.3380 -0.0739
 8493PP      PP18597   9.568   6.595   1.205 -0.0981  0.2710 -0.0629
 8494PP      PP18598   7.393  14.344   3.262  0.0103 -0.3086 -0.2969
 8495PP      PP18599   2.397   1.919   0.073 -0.0226 -0.0793  0.2219
 8496PP      PP18600   7.763   5.915   0.328 -0.0195  0.2622 -0.3705
 8497PP      PP18601   1.823   9.963   1.168 -0.1139 -0.0274 -0.0062
 8498PP      PP18602  13.716  14.353   9.999  0.1452  0.1628 -0.0172
 8499PP      PP18603   7.103  14.105  10.941 -0.0819  0.0389  0.2692
 8500PP      PP18604  12.526  11.315   2.878 -0.3951 -0.0571  0.0352
 8501PP      PP18605   8.530   2.409   3.326 -0.0728 -0.3133 -0.1319
 8502PP      PP18606   6.245   2.134  10.232  0.0292 -0.2339  0.2429
 8503PP      PP18607   3.443  12.790  10.895  0.0739 -0.0502  0.1519
 8504PP      PP18608  13.761   6.661  11.669 -0.1211  0.0063  0.0935
 8505PP      PP18609   0.333   3.954   2.405 -0.1754  0.3660  0.1286
 8506PP      PP18610   4.650   5.872   2.146 -0.2265 -0.2619 -0.3642
 8507PP      PP18611  13.066   8.129   9.841  0.0460 -0.0418  0.0766
 8508PP      PP18612  12.036  15.192   8.664  0.3589  0.1432  0.1093
 8509PP      PP18613   7.852  11.009   1.869 -0.3001  0.0761 -0.1397
 8510PP      PP18614   5.034  15.617   9.609 -0.1560 -0.3890 -0.0911
 8511PP      PP18615   6.735   9.586  10.368 -0.0520 -0.1043 -0.0346
 8512PP      PP18616   6.744   7.598  13.066  0.0807 -0.0471 -0.3597
 8513PP      PP18617   1.896   2.834   9.524 -0.3726 -0.1974  0.3099
 8514PP      PP18618   4.926   5.652   4.436 -0.3947 -0.0574 -0.0876
 8515PP      PP18619   2.096   9.043  13.092 -0.1426  0.0609 -0.0167
 8516PP      PP18620   0.134   1.479   1.402 -0.0967 -0.0735 -0.0025
 8517PP      PP18621   6.173  14.209   0.477  0.2757  0.0738  0.1983
 8518PP      PP18622   5.236   8.909   1.367  0.4068  0.0999 -0.0666
 8519PP      PP18623   3.357   3.835   9.359  0.0898  0.0291  0.0171
 8520PP      PP18624   0.722   5.926  11.838 -0.1304  0.1580  0.2732
 8521PP      PP18625   4.007   1.315   3.557 -0.1895  0.0908 -0.2387
 8522PP      PP18626   4.412   7.428   9.730  0.0996 -0.1585 -0.4098
 8523PP      PP18627   6.728  15.115   4.711  0.1232 -0.1463 -0.2930
 8524PP      PP18628   9.682   3.956   1.710 -0.0515  0.0023 -0.1096
 8525PP      PP18629   4.885  11.326   2.042  0.0514 -0.0264 -0.1494
 8526PP      PP18630  12.848  11.774   3.390 -0.4222 -0.3130  0.1273
 8527PP      PP18631   6.277   6.588  12.123 -0.0180  0.0814 -0.0346
 8528PP      PP18632   5.931   2.821   9.421  0.0913  0.3866  0.0516
 8529PP      PP18633   6.865   0.016  11.378 -0.3905 -0.0040  0.1550
 8530PP      PP18634  10.610   4.385   2.218 -0.0834 -0.1642 -0.2803
 8531PP      PP18635  15.465   0.286   3.152  0.1356  0.0384 -0.0727
 8532PP      PP18636   1.123   2.621  12.216  0.3594  0.1583  0.2713
 8533PP      PP18637   3.696   7.612   4.853 -0.0305 -0.2608  0.1010
 8534PP      PP18638  12.484   4.644   1.130 -0.0153  0.4069  0.0136
 8535PP      PP18639   4.167  11.010   4.418  0.2411  0.0949  0.1482
 8536PP      PP18640  11.053   4.633   0.827  0.2771  0.1170  0.0222
 8537PP      PP18641  11.951   4.434  12.586  0.0868  0.2852  0.1046
 8538PP      PP18642   9.501  12.766   0.583 -0.0682  0.1637 -0.2137
 8539PP      PP18643   4.127   7.267  13.341 -0.2515  0.1437 -0.0762
 8540PP      PP18644   5.269   0.210   2.681 -0.0533 -0.2585  0.0303
 8541PP      PP18645   0.511  10.703   3.859  0.0968  0.0891 -0.0868
 8542PP      PP18646  13.390   0.381   9.682  0.2472 -0.0627  0.0365
 8543PP      PP18647  13.874  12.873  12.713  0.3644 -0.1258  0.3489
 8544PP      PP18648   8.366  11.737   9.371 -0.3525 -0.0227  0.0595
 8545PP      PP18649   5.192  11.026  13.313 -0.2046 -0.0781 -0.2086
 8546PP      PP18650  14.075   4.445  12.678  0.1672 -0.3822 -0.0577
 8547PP      PP18651   3.926   4.010   0.100 -0.0441 -0.1519 -0.2263
 8548PP      PP18652   3.369   8.593  13.391  0.2249  0.2298 -0.1042
 8549PP      PP18653   2.317   8.757   1.085  0.4368  0.0586 -0.1810
 8550PP      PP18654   0.259   2.609   9.709  0.1029 -0.1543  0.1176
 8551PP      PP18655  10.060  12.314  13.394 -0.0602  0.2423  0.0133
 8552PP      PP18656  11.092   6.814   0.922 -0.1645 -0.3212 -0.1644
 8553PP      PP18657  10.026  13.188   1.432 -0.4165 -0.0326  0.0895
 8554PP      PP18658   6.793  15.336   9.759  0.0199  0.2613  0.1203
 8555PP      PP18659   6.923  11.451   0.126  0.1382 -0.4123  0.2324
 8556PP      PP18660   3.683   9.561   2.829  0.2501  0.3737 -0.1204
 8557PP      PP18661  13.040  14.527   2.805 -0.4036  0.1052 -0.1966
 8558PP      PP18662   4.414   5.313   2.622 -0.0114  0.2222  0.2139
 8559PP      PP18663   1.626  11.945  11.185 -0.1512  0.0248 -0.2690
 8560PP      PP18664   4.007  11.996   2.402 -0.0982 -0.1030  0.0228
 8561PP      PP18665  13.717  11.575   8.804  0.1217  0.3011  0.3114
 8562PP      PP18666   2.652  13.797   1.325  0.0841 -0.1404  0.0371
 8563PP      PP18667  11.660   5.744  10.696  0.0863 -0.0130  0.2820
 8564PP      PP18668   5.239   2.159  11.704 -0.1024 -0.1089 -0.0483
 8565PP      PP18669   7.572   8.864  12.700  0.0820  0.1140 -0.1905
 8566PP      PP18670   9.230   8.094   3.243  0.0674  0.0511 -0.2819
 8567PP      PP18671   3.978  10.180  13.060  0.3492  0.0441 -0.0669
 8568PP      PP18672  11.041   6.885  10.084  0.0326  0.1708  0.3836
 8569PP      PP18673  12.986   8.649  11.837 -0.2420 -0.0764 -0.0127
 8570PP      PP18674  10.902  10.453   2.333 -0.1343  0.2475 -0.2342
 8571PP      PP18675   4.377   3.837   0.901  0.3154 -0.2212 -0.0370
 8572PP      PP18676   0.304   1.755  11.986  0.0467 -0.0726 -0.0126
 8573PP      PP18677   9.293   2.656   3.268  0.0608  0.2355 -0.2166
 8574PP      PP18678   0.932   7.912   1.959  0.4954  0.0808 -0.2915
 8575PP      PP18679   7.412   2.260   8.627 -0.2351  0.3795  0.0363
 8576PP      PP18680   1.658  11.392  11.105 -0.0368  0.2946  0.1388
 8577PP      PP18681  11.668  14.663   0.701 -0.0407 -0.2392  0.0937
 8578PP      PP18682   1.179  11.082  11.259  0.0601  0.0385  0.1235
 8579PP      PP18683  10.529   1.337   1.742 -0.1046  0.1525 -0.0930
 8580PP      PP18684   3.900   1.818  10.773 -0.2706 -0.1836  0.0010
 8581PP      PP18685   5.403  14.747   0.393  0.2142  0.3700  0.2039
 8582PP      PP18686   7.427   5.298   2.681 -0.1144 -0.0332 -0.2121
 8583PP      PP18687  11.155   8.374  11.251  0.1976 -0.2508  0.0573
 8584PP      PP18688   8.601  12.657  10.618  0.3895  0.0634  0.0536
 8585PP      PP18689  14.038   4.757   9.616 -0.0955 -0.0969  0.2129
 8586PP      PP18690   9.992   3.817  12.305  0.1134  0.1678 -0.0714
 8587PP      PP18691   4.771   1.750   2.334 -0.1650  0.1118  0.1812
 8588PP      PP18692   8.237   6.879   2.102 -0.2255 -0.2271 -0.2282
 8589PP      PP18693  15.172   8.228   2.736  0.3900  0.4281 -0.1809
 8590PP      PP18694   6.991   9.482  12.806 -0.1817  0.1847 -0.0169
 8591PP      PP18695   3.701  10.804  12.265 -0.0631 -0.0999  0.1844
 8592PP      PP18696  14.470   6.888  13.479  0.2586  0.0478 -0.2390
 8593PP      PP18697   6.913   8.050   2.636  0.0569  0.0833 -0.1911
 8594PP      PP18698  11.522  13.274   1.127  0.1671 -0.0537 -0.2693
 8595PP      PP18699   9.992   2.611  10.492 -0.3736 -0.2063 -0.1557
 8596PP      PP18700   5.436   6.740   1.742  0.1038 -0.3733 -0.1410
 8597PP      PP18701   1.172   0.996   2.049  0.0075 -0.1026  0.0552
 8598PP      PP18702   9.637   7.962   9.916 -0.0298  0.2563 -0.0315
 8599PP      PP18703  10.422  15.392  12.253 -0.0643 -0.1938 -0.2601
 8600PP      PP18704  12.599  11.554  13.331 -0.2340 -0.1027  0.1425
 8601PP      PP18705  10.403   5.376   3.672  0.0861 -0.1928 -0.0674
 8602PP      PP18706   9.818   2.806   3.825  0.0646  0.4953 -0.2285
 8603PP      PP18707   2.681  10.199   1.026 -0.0464  0.2789 -0.2317
 8604PP      PP18708   8.651   0.069  10.639  0.2167 -0.0906 -0.3921
 8605PP      PP18709   5.487   5.638   4.416  0.1816 -0.2720 -0.0527
 8606PP      PP18710   2.702   6.035   4.175  0.0225 -0.1803 -0.2941
 8607PP      PP18711  10.757   0.423   1.337  0.1769  0.3400 -0.1373
 8608PP      PP18712   2.387   2.416   9.067  0.2797  0.0740 -0.2278
 8609PP      PP18713  15.694   3.932   9.480 -0.2229 -0.2237  0.2397
 8610PP      PP18714   7.999  11.994   4.397 -0.0159 -0.2314  0.1961
 8611PP      PP18715   8.027   0.646   1.686 -0.0539  0.1595  0.0919
 8612PP      PP18716   2.627   9.957  13.288 -0.0042  0.0105 -0.2882
 8613PP      PP18717   8.148   7.570   3.925  0.3171  0.0956 -0.0502
 8614PP      PP18718  10.813   2.273  10.075  0.2193 -0.0652 -0.2849
 8615PP      PP18719   1.189  10.702   1.406 -0.3208 -0.3221  0.1737
 8616PP      PP18720   9.876  12.634   2.101 -0.0782  0.3130 -0.0611
 8617PP      PP18721   7.297   4.343  10.158  0.0426  0.0833  0.2809
 8618PP      PP18722   0.920  11.774   0.351 -0.0860  0.0993 -0.1027
 8619PP      PP18723  13.482   9.948   2.611 -0.0443 -0.0130 -0.0919
 8620PP      PP18724   3.406  10.600  10.484  0.3127 -0.1415 -0.0207
 8621PP      PP18725  10.087   3.499   8.587 -0.0887 -0.2590 -0.0172
 8622PP      PP18726  15.788   1.381   8.721  0.3230  0.0788  0.5649
 8623PP      PP18727   8.522  10.159  10.921 -0.2117  0.1020  0.1525
 8624PP      PP18728  14.198   1.148   8.265 -0.1570  0.2054 -0.1247
 8625PP      PP18729  15.579  11.839   4.055  0.5238  0.1629  0.4814
 8626PP      PP18730   1.818  14.101  12.290  0.2221  0.2341  0.2392
 8627PP      PP18731  12.239  14.905   2.208  0.0329  0.0034  0.1304
 8628PP      PP18732   5.208   4.033   8.966 -0.2506  0.1180  0.0528
 8629PP      PP18733   3.997  14.552   9.250  0.1823 -0.2390  0.0863
 8630PP      PP18734   9.208  12.831  13.229  0.1432 -0.1211  0.1576
 8631PP      PP18735  10.727   5.845   9.766 -0.0774  0.1536  0.2090
 8632PP      PP18736   6.082   9.806   0.340  0.0255 -0.0150  0.0309
 8633PP      PP18737  12.639   2.402  13.204 -0.0492 -0.0006  0.0549
 8634PP      PP18738   2.135   1.755  10.872  0.0441  0.1122  0.0058
 8635PP      PP18739   0.033   6.374   2.598  0.2726 -0.0002  0.0242
 8636PP      PP18740   7.856  14.992   3.678  0.0415 -0.1928  0.1145
 8637PP      PP18741  15.603   3.295  11.448  0.0641  0.2225  0.0534
 8638PP      PP18742  12.934  14.328  13.199 -0.2276  0.0116 -0.2903
 8639PP      PP18743   8.307  15.648   3.282  0.0133  0.2527 -0.1670
 8640PP      PP18744  11.158  13.969   8.528 -0.1451  0.1383  0.0827
 8641PP      PP18745  11.338  14.402   0.344  0.1570  0.1769  0.4750
 8642PP      PP18746  10.677  12.918   0.893 -0.0838 -0.0705  0.0559
 8643PP      PP18747   6.515   7.076   9.928  0.0875  0.0206 -0.3622
 8644PP      PP18748  13.095  11.894  10.541  0.1076 -0.3733  0.2181
 8645PP      PP18749  11.570  13.527   0.047 -0.1553 -0.0757  0.1927
 8646PP      PP18750   6.674   4.075   9.115 -0.1075 -0.1685 -0.0871
 8647PP      PP18751  13.714   8.391  10.649 -0.3009  0.2391  0.2485
 8648PP      PP18752  10.313   4.301   0.660  0.2495  0.0295 -0.0110
 8649PP      PP18753  10.347   0.940   2.092 -0.2876 -0.0981  0.2249
 8650PP      PP18754   4.274   2.730   9.711 -0.0748 -0.2388 -0.4033
 8651PP      PP18755   0.934  11.756  13.321  0.1740 -0.1120 -0.4077
 8652PP      PP18756  12.209   3.342   1.157  0.0411 -0.2796  0.1121
 8653PP      PP18757  14.263  14.778  11.499 -0.0748  0.1449 -0.2443
 8654PP      PP18758   1.609  10.485   4.222  0.0344  0.0336  0.1193
 8655PP      PP18759  10.456  13.639   3.059  0.0973  0.0849  0.2716
 8656PP      PP18760   1.138  15.280  11.320  0.0550 -0.2824  0.2126
 8657PP      PP18761  14.264   4.838  13.020  0.1972  0.0638 -0.1522
 8658PP      PP18762   1.094   2.532   4.189  0.0689 -0.1274  0.1427
 8659PP      PP18763   6.946   5.309  10.287  0.2314  0.1785 -0.0425
 8660PP      PP18764  14.842  15.851   9.065  0.0510  0.0583 -0.0492
 8661PP      PP18765  14.078   9.260   1.393 -0.0258 -0.0357  0.1873
 8662PP      PP18766   4.396   4.513   2.983 -0.0658 -0.0355  0.0279
 8663PP      PP18767   9.400   0.356   8.598 -0.0280 -0.0363 -0.2568
 8664PP      PP18768  15.681  12.352   9.986 -0.2816  0.0534  0.2521
 8665PP      PP18769  11.647   0.322   1.917  0.0711  0.0777  0.0341
 8666PP      PP18770   0.507   7.721   3.115  0.0821 -0.1082  0.2066
 8667PP      PP18771   9.699   6.886   9.473 -0.0046  0.4930 -0.1004
 8668PP      PP18772   1.161  10.921   0.797  0.0673  0.1772 -0.0880
 8669PP      PP18773   4.807  14.829   0.566 -0.0896  0.1484  0.0538
 8670PP      PP18774   1.002   6.325  11.173  0.0042 -0.1784  0.4728
 8671PP      PP18775  13.424  10.540  10.646  0.0274 -0.3772  0.0568
 8672PP      PP18776  14.614  12.676  11.348  0.0523  0.1081  0.0952
 8673PP      PP18777  14.063  12.243   0.012  0.0949 -0.1324 -0.0582
 8674PP      PP18778   0.771  13.191   0.043  0.0863  0.0036 -0.4475
 8675PP      PP18779   0.068  11.827  12.496  0.0366 -0.0803 -0.0448
 8676PP      PP18780   5.033   1.411  12.923 -0.0226  0.4088  0.1772
 8677PP      PP18781  14.771  13.396  11.797  0.3312  0.3636  0.2850
 8678PP      PP18782  12.757   6.853  12.072  0.1526 -0.0805 -0.2332
 8679PP      PP18783  15.778  13.382   9.443  0.1013  0.2283 -0.1251
 8680PP      PP18784   6.763   7.505   4.366 -0.0652  0.1541  0.1084
 8681PP      PP18785  11.542  14.903  12.894 -0.0083  0.0578  0.0160
 8682PP      PP18786  14.340   7.546   9.791 -0.1887 -0.0858 -0.0399
 8683PP      PP18787   9.437   3.084   2.128  0.0477 -0.1421 -0.1499
 8684PP      PP18788   5.029   2.139   0.480  0.1281 -0.0377  0.1878
 8685PP      PP18789   6.546  10.517   0.518 -0.1584 -0.0834  0.1517
 8686PP      PP18790   2.969   8.921   1.656 -0.1732 -0.2738  0.2082
 8687PP      PP18791   7.264  11.644  12.204  0.1359 -0.0670  0.0616
 8688PP      PP18792  12.042   9.859   0.278 -0.0538 -0.1378  0.1452
 8689PP      PP18793   6.194  11.771  11.312  0.3513  0.0371 -0.1102
 8690PP      PP18794   2.058  15.071   9.218 -0.0382 -0.0651  0.1181
 8691PP      PP18795  10.186   6.759   9.104  0.0627 -0.2783 -0.0797
 8692PP      PP18796   7.788   7.680  10.111  0.1095  0.3437  0.0119
 8693PP      PP18797   7.858   7.783   0.767  0.3716 -0.0282 -0.3241
 8694PP      PP18798  11.096  12.921  12.727 -0.0344  0.1830  0.2264
 8695PP      PP18799  14.041  10.184  10.364  0.1392 -0.1020  0.1967
 8696PP      PP18800   5.049  11.611   0.860  0.0511 -0.3273 -0.5353
 8697PP      PP18801  11.914   5.242  12.631  0.0400 -0.2509 -0.2775
 8698PP      PP18802   1.609   1.801   2.151  0.1222  0.0409 -0.1619
 8699PP      PP18803   2.039   7.999  10.421  0.2395  0.0661 -0.1019
 8700PP      PP18804  15.718  15.211   9.811 -0.2333 -0.1054 -0.1564
 8701PP      PP18805   9.516   5.877  10.851  0.0430 -0.1322  0.3056
 8702PP      PP18806   7.394  15.145   3.976 -0.1629 -0.1889  0.0212
 8703PP      PP18807  11.865  15.028  13.346  0.1412 -0.2553 -0.0945
 8704PP      PP18808   6.972   7.767   3.567 -0.3096 -0.1614 -0.0508
 8705PP      PP18809  13.421  11.855   3.312  0.0580  0.1617 -0.1112
 8706PP      PP18810  15.696   1.971   8.674  0.1402  0.0722 -0.1727
 8707PP      PP18811   0.860   0.110   3.008 -0.0386  0.0160  0.0440
 8708PP      PP18812   7.885  15.338   1.021 -0.1649 -0.0729 -0.2455
 8709PP      PP18813   5.657   1.033  10.506  0.1933 -0.2785 -0.0951
 8710PP      PP18814  15.392   0.277   2.606  0.1515  0.1046 -0.0431
 8711PP      PP18815  11.132  10.142  12.175 -0.0170  0.0621 -0.1872
 8712PP      PP18816  13.418   2.369   1.378 -0.5152  0.1400 -0.0799
 8713PP      PP18817   9.873   0.665  12.753  0.1947  0.0387 -0.0956
 8714PP      PP18818   9.350   5.698   1.570  0.2514 -0.0353  0.0307
 8715PP      PP18819  14.154   1.940  12.871  0.1376  0.0095 -0.2737
 8716PP      PP18820   2.491  10.763  13.121  0.3579 -0.1384 -0.3044
 8717PP      PP18821   8.533  13.402  10.031  0.0475  0.1787 -0.1269
 8718PP      PP18822   4.202   8.688  10.819  0.0617  0.1632 -0.0022
 8719PP      PP18823   0.412   5.221   3.906 -0.0050 -0.1609 -0.2025
 8720PP      PP18824  12.153   5.876   1.537 -0.2338 -0.2282 -0.1660
 8721PP      PP18825   6.806   9.022   1.524 -0.0551 -0.0672 -0.1458
 8722PP      PP18826  14.788  15.149   1.217  0.0837  0.2153  0.0251
 8723PP      PP18827   3.513   7.345   4.413 -0.0698  0.0055 -0.1885
 8724PP      PP18828   5.728  11.899   5.351 -0.2319  0.4001 -0.0859
 8725PP      PP18829   3.845  14.439   1.548  0.1258 -0.2882 -0.2196
 8726PP      PP18830   6.665   9.821   4.084  0.0551 -0.0165  0.2165
 8727PP      PP18831  13.541   3.116  12.377 -0.2813 -0.3408 -0.2883
 8728PP      PP18832  11.289   9.727   4.520 -0.1896  0.2317  0.1109
 8729PP      PP18833  12.699   6.033  12.274  0.1733 -0.3798  0.0883
 8730PP      PP18834   3.314  13.353   9.070 -0.3163  0.1789 -0.3982
 8731PP      PP18835   1.749  13.731   4.228 -0.0573 -0.0821  0.1467
 8732PP      PP18836   6.912  13.140   0.589  0.0791  0.1651  0.1904
 8733PP      PP18837  10.242   4.488   2.498  0.2202 -0.0602  0.1616
 8734PP      PP18838  14.489   1.245   0.273 -0.2890  0.0590 -0.2851
 8735PP      PP18839   2.955   2.461  13.087 -0.0745 -0.2189 -0.0208
 8736PP      PP18840  12.192  10.677   0.070 -0.0979 -0.3900 -0.2048
 8737PP      PP18841  11.648   3.231   0.195  0.0172 -0.1390 -0.0257
 8738PP      PP18842  15.545   3.524   0.532 -0.0115  0.2415  0.3462
 8739PP      PP18843  12.376  11.412   8.836 -0.2545 -0.1806 -0.0887
 8740PP      PP18844   6.871  15.606  12.803 -0.0603  0.2927  0.0141
 8741PP      PP18845  15.592   3.138   2.348 -0.1307 -0.1321 -0.0643
 8742PP      PP18846   7.227  14.915   9.155  0.1383 -0.0429  0.3135
 8743PP      PP18847   4.290  10.200   9.724  0.0648  0.1083  0.1450
 8744PP      PP18848  10.318  13.293  13.234  0.0188 -0.2198 -0.1414
 8745PP      PP18849  11.582   7.551  12.699  0.2549 -0.1061 -0.2990
 8746PP      PP18850   1.094  13.295   0.977  0.2103 -0.1057  0.0052
 8747PP      PP18851  12.441   4.089  11.620  0.1577  0.0695 -0.1080
 8748PP      PP18852   0.307   4.784   0.128 -0.1017 -0.1853 -0.1101
 8749PP      PP18853   4.714   7.901   8.981 -0.4023 -0.0731 -0.0429
 8750PP      PP18854   9.006   2.961  11.431 -0.3944 -0.0857 -0.2597
 8751PP      PP18855   9.020   6.560   0.125 -0.0622  0.0021 -0.0828
 8752PP      PP18856   4.532   4.369  12.983  0.0754  0.0813 -0.1515
 8753PP      PP18857  13.687  15.436  12.837  0.1774 -0.3247 -0.0268
 8754PP      PP18858  11.214   0.469  10.743 -0.1910 -0.1734  0.0759
 8755PP      PP18859  10.629   7.973   1.672 -0.0416  0.3729 -0.0509
 8756PP      PP18860   4.377   7.727   0.108  0.0163  0.1269  0.0539
 8757PP      PP18861   4.867   5.288  10.628  0.2205  0.1455  0.1964
 8758PP      PP18862   6.211   1.670   1.070  0.3341  0.1395  0.1436
 8759PP      PP18863   7.700  13.097  10.125 -0.0975  0.0505 -0.0990
 8760PP      PP18864  15.836  15.190  11.563 -0.1828  0.0048 -0.0480
 8761PP      PP18865  14.322   8.426   9.737 -0.3935 -0.0104  0.0629
 8762PP      PP18866   5.665  11.749   1.645  0.2083  0.4015 -0.0926
 8763PP      PP18867   3.904   1.004   2.247 -0.1105  0.3534 -0.2257
 8764PP      PP18868   8.499   4.515  10.669 -0.0426  0.3229 -0.1586
 8765PP      PP18869   4.255   9.863   9.100 -0.1276 -0.1105 -0.1461
 8766PP      PP18870  12.756   7.847  10.613 -0.0322  0.0496  0.0379
 8767PP      PP18871   0.654  10.623   3.345  0.0864  0.0491 -0.1734
 8768PP      PP18872   5.115  12.503   3.449 -0.1307 -0.0645 -0.0690
 8769PP      PP18873  14.050  12.834   0.084  0.0773 -0.3400 -0.0683
 8770PP      PP18874  12.707  15.274  11.039 -0.0478 -0.2970  0.0162
 8771PP      PP18875   2.178  15.377  12.204 -0.4155  0.2682  0.0002
 8772PP      PP18876  14.969   8.672   3.617  0.0434  0.2365  0.1853
 8773PP      PP18877  12.081  15.683   9.344 -0.1148  0.2435  0.3463
 8774PP      PP18878  15.648   1.750   3.676 -0.0894  0.0131  0.0558
 8775PP      PP18879  14.567   3.705   2.569  0.3985 -0.1557 -0.0747
 8776PP      PP18880   6.596  11.757   9.376  0.0981  0.0045  0.0103
 8777PP      PP18881   9.227   2.411   0.000 -0.0112  0.2641  0.0258
 8778PP      PP18882  14.246   1.181   3.891 -0.0016 -0.0774  0.0301
 8779PP      PP18883   5.948  13.732  10.728  0.0637 -0.2039  0.0203
 8780PP      PP18884   0.943   9.399   1.777  0.0001 -0.3475  0.0561
 8781PP      PP18885   9.777  15.145   8.757  0.0779 -0.0832  0.1400
 8782PP      PP18886   8.954   1.246  10.304  0.1611 -0.4143 -0.2404
 8783PP      PP18887  15.098   8.339  10.691  0.1666 -0.0256  0.0956
 8784PP      PP18888   7.793   4.761   8.883  0.1028 -0.0116 -0.1417
 8785PP      PP18889   3.844   8.942   1.435 -0.1627  0.1541 -0.6732
 8786PP      PP18890  13.608  12.603  13.359 -0.0998  0.0780  0.0607
 8787PP      PP18891  10.843  11.652  13.095  0.0081  0.1089 -0.0121
 8788PP      PP18892   4.455   2.870   3.900 -0.1843  0.0839  0.1776
 8789PP      PP18893   9.503  11.203   0.574  0.0851 -0.0313  0.0644
 8790PP      PP18894  12.790  14.069   2.171  0.0352 -0.0953 -0.4305
 8791PP      PP18895   3.527   2.166   2.239 -0.0344 -0.0495  0.2762
 8792PP      PP18896  13.231   7.992  10.623 -0.1541 -0.0882 -0.0508
 8793PP      PP18897   4.908   3.717   2.639 -0.2230 -0.0543  0.1653
 8794PP      PP18898   5.141   5.019   1.627  0.1595 -0.2399  0.1675
 8795PP      PP18899   0.823  15.491  13.410 -0.0142  0.1301 -0.0682
 8796PP      PP18900   0.375   8.493   3.422 -0.3568 -0.1235 -0.0617
 8797PP      PP18901   2.914   2.805  10.618  0.1126  0.0075  0.1245
 8798PP      PP18902   9.008   4.403   4.407 -0.0282 -0.1109 -0.0964
 8799PP      PP18903   8.042  11.519  11.315  0.1323  0.2414  0.2351
 8800PP      PP18904   4.269   0.465   3.019  0.1432 -0.0734  0.0418
 8801PP      PP18905   8.384  11.717   2.341  0.0664 -0.1932 -0.0185
 8802PP      PP18906   1.343  11.193   9.111 -0.0385 -0.3723  0.0351
 8803PP      PP18907  11.131   1.161  12.428  0.1070 -0.2492 -0.1812
 8804PP      PP18908  11.559   8.037   0.696  0.1196 -0.3594 -0.0415
 8805PP      PP18909   0.105  10.701   3.183  0.2204 -0.1578 -0.2214
 8806PP      PP18910  15.357   1.224   0.660  0.0557 -0.2092  0.0209
 8807PP      PP18911   5.896   3.226   2.707  0.1454  0.2446 -0.2582
 8808PP      PP18912  15.161  12.137   3.041 -0.0065 -0.0067  0.3224
 8809PP      PP18913   9.645  10.802  12.961  0.3089  0.0664  0.2392
 8810PP      PP18914   9.143  13.832   9.071  0.1413 -0.0606 -0.0225
 8811PP      PP18915  13.016  14.342  11.628 -0.3974 -0.3758 -0.3798
 8812PP      PP18916  10.494   0.919   3.458  0.0365 -0.2214 -0.1500
 8813PP      PP18917   0.266   8.683  13.378  0.2428 -0.0585 -0.4316
 8814PP      PP18918  12.051   2.765   3.670  0.2048 -0.0023 -0.0919
 8815PP      PP18919   6.585  12.866  13.414 -0.1147 -0.2568  0.1118
 8816PP      PP18920   4.392   2.554   2.657  0.1891 -0.2037  0.0611
 8817PP      PP18921   9.343  13.461   9.892  0.3272 -0.3553  0.0048
 8818PP      PP18922   9.106   2.175   1.395 -0.1731 -0.1035  0.0361
 8819PP      PP18923  15.579  10.279   0.525 -0.1824 -0.0954  0.0172
 8820PP      PP18924  11.417   3.347   8.999  0.1156  0.2429  0.0179
 8821PP      PP18925   2.906   8.349  10.511  0.1307 -0.0841 -0.1380
 8822PP      PP18926  11.787   1.811  11.413  0.3936  0.0252  0.2074
 8823PP      PP18927   1.355   0.991   7.906 -0.0910 -0.1174  0.1069
 8824PP      PP18928   4.644   4.736  12.672 -0.0256  0.0605  0.1104
 8825PP      PP18929   6.796   3.479   9.187 -0.1036 -0.2789  0.0613
 8826PP      PP18930   4.388   2.357  11.022  0.3875 -0.1955 -0.1675
 8827PP      PP18931  15.805  14.896  11.968 -0.2100 -0.1080 -0.1083
 8828PP      PP18932   5.231   6.001   4.139  0.1181  0.1157  0.0365
 8829PP      PP18933   6.593   2.374   1.695  0.3105  0.0402 -0.0589
 8830PP      PP18934  14.482   6.365   1.879 -0.0434  0.2813 -0.2067
 8831PP      PP18935   3.645   2.021   8.090 -0.1973  0.5006  0.0983
 8832PP      PP18936   4.436   8.231  12.623  0.3132  0.3828 -0.0720
 8833PP      PP18937   7.442   2.218   0.192  0.0297 -0.2650 -0.0672
 8834PP      PP18938   2.352   8.780  10.043  0.1518  0.2463 -0.2431
 8835PP      PP18939   8.036   2.388  10.335 -0.1338 -0.2323 -0.0074
 8836PP      PP18940   0.771   3.000   0.754  0.0117 -0.0818  0.3198
 8837PP      PP18941   1.451   3.171   3.823 -0.1352  0.4634  0.0505
 8838PP      PP18942   9.197   6.789   0.929 -0.1673 -0.0275  0.2222
 8839PP      PP18943   4.476   7.237   1.013  0.1302  0.2654 -0.0262
 8840PP      PP18944   8.948  12.632   9.748 -0.0183  0.0333  0.1189
 8841PP      PP18945   2.441   4.996  11.602 -0.2028  0.0702  0.2896
 8842PP      PP18946  12.257  10.664  12.256  0.0939  0.0315  0.0086
 8843PP      PP18947  13.213   5.910   9.364 -0.0323 -0.0245 -0.2707
 8844PP      PP18948   2.122   4.570  12.325  0.0712 -0.0844  0.2312
 8845PP      PP18949   2.300   5.912   2.210  0.2549  0.0065  0.1746
 8846PP      PP18950   7.801  12.754   3.836  0.1202  0.0917 -0.1965
 8847PP      PP18951  14.680   3.808  11.245  0.0116 -0.0157  0.0977
 8848PP      PP18952  15.412   2.477  10.037 -0.0364 -0.3763 -0.0252
 8849PP      PP18953   5.070   6.567  12.030  0.0126 -0.0310 -0.4434
 8850PP      PP18954  13.139   4.726   8.352  0.2037 -0.4641 -0.0887
 8851PP      PP18955   3.976   4.744   9.168  0.0813 -0.4079 -0.1386
 8852PP      PP18956   5.732   0.053  12.839 -0.1077  0.0753  0.0646
 8853PP      PP18957   4.626   4.228   1.296 -0.2243 -0.0673  0.0516
 8854PP      PP18958   8.495   0.618   1.444 -0.2254 -0.1207 -0.2416
 8855PP      PP18959   5.609   8.760  12.442  0.0191 -0.1830 -0.0838
 8856PP      PP18960  10.413   8.320   0.976 -0.0782 -0.0786  0.1941
 8857PP      PP18961  15.578   7.893   9.900  0.0031  0.0047 -0.0677
 8858PP      PP18962   0.660   9.213  11.859  0.1083  0.0579 -0.0598
 8859PP      PP18963  10.726  12.515   1.173 -0.0259 -0.1331  0.2032
 8860PP      PP18964   7.942   2.766  11.929 -0.0463  0.2759 -0.0746
 8861PP      PP18965  13.487  14.174   1.688  0.2611 -0.1745 -0.0170
 8862PP      PP18966   8.039   4.072  11.756  0.1567  0.1766  0.3047
 8863PP      PP18967  14.102  14.132   9.035  0.1741 -0.0162 -0.0166
 8864PP      PP18968   9.078   5.251   3.173 -0.0190 -0.0599  0.0595
 8865PP      PP18969   3.154  12.203   4.622  0.0140  0.0152  0.2001
 8866PP      PP18970   5.588   0.524   2.333 -0.0499 -0.0629  0.2462
 8867PP      PP18971  10.405   7.621   1.377  0.0529  0.0887 -0.5227
 8868PP      PP18972  11.359   4.550  10.982 -0.1674  0.1708 -0.0425
 8869PP      PP18973   8.971   2.135  12.483 -0.1719  0.1810 -0.0044
 8870PP      PP18974   1.712   2.030  10.642  0.0714  0.3171 -0.1852
 8871PP      PP18975  15.871   9.644   3.505 -0.1965  0.1845  0.0640
 8872PP      PP18976  13.848   2.668   2.921 -0.0674  0.0111  0.3209
 8873PP      PP18977   3.007   0.860  12.226  0.0328 -0.1456  0.2434
 8874PP      PP18978  15.332  11.900   2.579  0.2063  0.1759  0.1343
 8875PP      PP18979   6.348  14.511   2.711  0.1816  0.2767 -0.1849
 8876PP      PP18980   7.202  12.710   4.141 -0.2884 -0.2182 -0.1138
 8877PP      PP18981  11.861   5.189  10.590 -0.0880  0.0068  0.2039
 8878PP      PP18982  14.811  10.676   9.423 -0.0423  0.0182 -0.0355
 8879PP      PP18983   0.927  14.148  12.697  0.2726  0.1125  0.1854
 8880PP      PP18984  12.386  15.370  10.233 -0.1000  0.1047 -0.1789
 8881PP      PP18985   5.445  15.360   1.214 -0.3693 -0.1197  0.0113
 8882PP      PP18986  12.124   3.597  13.034  0.2434 -0.1592 -0.3268
 8883PP      PP18987   5.006  13.997   2.858 -0.0101  0.2863 -0.4536
 8884PP      PP18988   5.314   8.414   9.147  0.0848 -0.1853  0.2799
 8885PP      PP18989   7.542  13.393   1.667  0.0606  0.1342  0.2975
 8886PP      PP18990  10.000   6.485  11.264  0.0532  0.1815  0.0092
 8887PP      PP18991   5.815   9.705  11.532  0.0675  0.3116 -0.1337
 8888PP      PP18992  11.179  11.194   1.770  0.0452 -0.0294 -0.4466
 8889PP      PP18993   1.037  12.143   3.396  0.1388 -0.0130 -0.2811
 8890PP      PP18994  11.974   7.398   8.306 -0.0366 -0.2130 -0.0180
 8891PP      PP18995   6.022   7.027   4.477  0.1932  0.2058 -0.3524
 8892PP      PP18996   8.119  10.918   9.470 -0.0317 -0.0786  0.1738
 8893PP      PP18997   8.721   1.833   0.425  0.1032  0.1354  0.0315
 8894PP      PP18998   4.170   7.123  10.723  0.1491 -0.2657  0.1967
 8895PP      PP18999   9.962  12.965   8.529  0.2160  0.0332 -0.2154
 8896PP      PP19000   7.382  10.792  12.214 -0.1472 -0.1518 -0.0514
 8897PP      PP19001   6.951   6.351  11.850 -0.0970  0.2944  0.1236
 8898PP      PP19002  14.410  10.417  11.762  0.0961 -0.2512  0.1912
 8899PP      PP19003  13.464   2.353  11.320  0.0880 -0.2368 -0.1754
 8900PP      PP19004   5.330   5.674  10.524  0.2476  0.3202 -0.0377
 8901PP      PP19005  10.576   7.198   9.281  0.1351 -0.0231  0.0868
 8902PP      PP19006  15.349  15.693   2.981 -0.2245 -0.1711 -0.0267
 8903PP      PP19007   0.116  13.558  12.613 -0.0158 -0.2896  0.0025
 8904PP      PP19008   7.829   9.857  10.397 -0.3007  0.2728 -0.2838
 8905PP      PP19009  15.405  12.197  12.750 -0.1324  0.2438 -0.0119
 8906PP      PP19010   1.070   2.847   2.937 -0.0230 -0.0998 -0.3265
 8907PP      PP19011   9.997  14.276   3.396  0.1387  0.1690 -0.0150
 8908PP      PP19012  13.158   9.681  12.980  0.0506 -0.1193 -0.2883
 8909PP      PP19013   3.958   5.879   2.861 -0.0755 -0.0768 -0.0676
 8910PP      PP19014  11.076   5.079   9.579 -0.1433  0.2680 -0.0153
 8911PP      PP19015   3.828   7.585  12.922 -0.0670 -0.2621 -0.0442
 8912PP      PP19016   5.230   0.808   1.983 -0.0934 -0.3721 -0.0784
 8913PP      PP19017   7.593   8.696  13.284 -0.0470 -0.0035  0.1136
 8914PP      PP19018   7.700   1.018   1.713 -0.0599  0.2567 -0.4464
 8915PP      PP19019   4.050   7.966  10.990  0.3677  0.0306  0.3470
 8916PP      PP19020  11.885  11.839   1.630 -0.2197  0.1032  0.1587
 8917PP      PP19021   7.659   3.929  10.917 -0.1450 -0.1749 -0.1344
 8918PP      PP19022   6.500   2.189   8.792 -0.3357  0.4080 -0.2508
 8919PP      PP19023   2.024   0.076  11.932  0.0959 -0.0160  0.1977
 8920PP      PP19024  15.718  14.400   1.349  0.0138 -0.1733  0.2593
 8921PP      PP19025  15.114   4.268  12.441  0.3385  0.1131  0.2030
 8922PP      PP19026   3.155  14.654   0.938  0.1606  0.0267 -0.3384
 8923PP      PP19027   8.802  15.155  11.634  0.2487 -0.1181  0.0467
 8924PP      PP19028   8.548   4.143   3.154  0.0456  0.1075  0.4220
 8925PP      PP19029  13.445  12.519   1.742 -0.2440 -0.1645  0.4386
 8926PP      PP19030   1.816   6.654   4.665 -0.1593  0.0574 -0.4793
 8927PP      PP19031  14.217   4.455   0.984  0.3689 -0.2652 -0.0432
 8928PP      PP19032   8.891  10.017   2.630 -0.2128 -0.0656  0.0365
 8929PP      PP19033  13.826   3.712  13.352 -0.0850  0.1272 -0.1217
 8930PP      PP19034   6.091   4.006  11.789 -0.3092  0.2159  0.3848
 8931PP      PP19035   9.582   2.907   0.270 -0.0021  0.0211  0.0590
 8932PP      PP19036   9.128  10.118   0.141 -0.1665  0.0541  0.0007
 8933PP      PP19037   6.192   2.245   3.509  0.2962  0.0531  0.2969
 8934PP      PP19038  10.083   7.827  10.026  0.0011  0.0854 -0.0704
 8935PP      PP19039   1.889  15.590   9.402  0.1309 -0.0486  0.2132
 8936PP      PP19040   6.405   6.240   1.385  0.1318 -0.1651  0.0216
 8937PP      PP19041   3.889   7.694   1.810  0.0123 -0.1376 -0.1973
 8938PP      PP19042   8.431   1.476   1.288  0.2153  0.2099 -0.0824
 8939PP      PP19043   9.499   2.838  13.148  0.4197 -0.0045 -0.0115
 8940PP      PP19044   8.904  14.537   2.254  0.0701  0.2261 -0.0361
 8941PP      PP19045   4.849  15.241   3.706  0.2040 -0.0805  0.0480
 8942PP      PP19046  14.216   9.507  10.848 -0.0657  0.0507  0.1186
 8943PP      PP19047   8.196   2.717   8.874  0.0402  0.0538 -0.3706
 8944PP      PP19048  15.657   9.517   0.121 -0.0168  0.0950 -0.0728
 8945PP      PP19049  13.002   2.735  12.582  0.1184 -0.2375 -0.0072
 8946PP      PP19050   4.597   5.683  12.003 -0.1204 -0.2153 -0.0576
 8947PP      PP19051   8.555   6.705  10.290 -0.2637 -0.2427  0.0278
 8948PP      PP19052   0.665  15.674   2.612 -0.1354 -0.1255  0.0271
 8949PP      PP19053   6.813   8.642  12.012 -0.0357  0.0174  0.0721
 8950PP      PP19054   9.465  10.020   9.814 -0.0257 -0.0158 -0.6193
 8951PP      PP19055   2.830  11.050  13.403 -0.0697  0.2579  0.1756
 8952PP      PP19056   3.837  11.355   4.242  0.1370  0.1070 -0.1656
 8953PP      PP19057   4.585  11.948   9.858 -0.1103  0.1670  0.0077
 8954PP      PP19058   6.814  13.646   9.682 -0.1325  0.2729  0.2206
 8955PP      PP19059   8.742   6.393   4.019  0.1088 -0.2066 -0.0688
 8956PP      PP19060  12.012   2.503  12.070  0.2410  0.2023 -0.0638
 8957PP      PP19061  14.942   4.257   2.047 -0.2805 -0.0090  0.1280
 8958PP      PP19062   8.855  14.145  10.967  0.1935  0.0157 -0.4828
 8959PP      PP19063   2.811  12.640  11.138 -0.3469  0.1144 -0.2682
 8960PP      PP19064  13.785  13.896   9.506  0.2579  0.1025  0.2244
 8961PP      PP19065   4.027   1.724   8.827  0.1700 -0.1631  0.0311
 8962PP      PP19066   5.213   1.837   2.499  0.1283  0.1953 -0.0236
 8963PP      PP19067  10.972  11.686  10.135  0.0839 -0.0031 -0.0752
 8964PP      PP19068   7.104   0.225  12.922  0.0731  0.1177 -0.1905
 8965PP      PP19069  14.751   3.508   0.372 -0.2594  0.2803  0.1711
 8966PP      PP19070  11.402  15.558   2.503 -0.2082  0.3596  0.2015
 8967PP      PP19071  14.846  14.518   1.483  0.1700 -0.0587 -0.2163
 8968PP      PP19072   7.389   0.634  11.420 -0.1075 -0.0328 -0.0473
 8969PP      PP19073   0.820  13.753   2.212  0.0190  0.0188  0.1769
 8970PP      PP19074   3.116  11.947   3.182 -0.0166 -0.2972 -0.1551
 8971PP      PP19075   7.732   2.126   8.994 -0.3712 -0.1979 -0.0203
 8972PP      PP19076   9.401  14.322   2.799  0.1910 -0.0095  0.0017
 8973PP      PP19077  10.254  12.773   3.524 -0.1141  0.0538 -0.0457
 8974PP      PP19078  13.121   3.374   2.061 -0.2002  0.2870  0.1174
 8975PP      PP19079  15.591   8.796   1.488  0.0104 -0.1799  0.1230
 8976PP      PP19080   6.329  15.113   9.653 -0.4282  0.2159 -0.1348
 8977PP      PP19081   8.829   5.565   8.966 -0.1244  0.0833 -0.0047
 8978PP      PP19082   8.444   6.680  12.540  0.1716  0.1686 -0.2556
 8979PP      PP19083  15.228   0.297   0.699  0.1905  0.0559 -0.0251
 8980PP      PP19084  15.340   1.006   1.884  0.0346 -0.1009  0.0820
 8981PP      PP19085   4.696   2.542  10.451  0.4063  0.2712 -0.1558
 8982PP      PP19086  12.029   4.536   2.500  0.1979  0.1396  0.2938
 8983PP      PP19087  12.495  10.141  10.962 -0.1732  0.2074 -0.2566
 8984PP      PP19088  13.452   6.342   9.071  0.0591  0.3290  0.1913
 8985PP      PP19089  13.427   2.555   9.136 -0.0290 -0.2530 -0.2360
 8986PP      PP19090   9.898   9.679  11.567 -0.0296  0.0356  0.0681
 8987PP      PP19091   9.996   1.199  10.122  0.0767  0.3337 -0.1307
 8988PP      PP19092  11.084   8.267   0.676 -0.0226 -0.1714 -0.1062
 8989PP      PP19093   0.363   9.098  13.183 -0.0553  0.3488 -0.0297
 8990PP      PP19094  14.659   7.859   1.131  0.0415 -0.3166  0.2828
 8991PP      PP19095  14.479  12.994  10.337 -0.0459  0.1607 -0.0298
 8992PP      PP19096   5.581   9.896   0.156 -0.0590  0.0720  0.2646
 8993PP      PP19097   5.261  13.982   0.052  0.2940  0.0863  0.3489
 8994PP      PP19098   3.475   4.347   4.317  0.2408 -0.1611 -0.1440
 8995PP      PP19099   1.639   3.338  11.000  0.0582 -0.0206 -0.0594
 8996PP      PP19100  11.473   7.314   3.979 -0.1165  0.2280 -0.1095
 8997PP      PP19101   4.281   7.529   3.921 -0.2729 -0.0788  0.2607
 8998PP      PP19102   0.537   4.148   9.856 -0.0175  0.1721 -0.0997
 8999PP      PP19103  11.119  14.633   2.717 -0.1628  0.1880 -0.1346
 9000PP      PP19104   9.563   8.544   9.827 -0.0169  0.0534  0.1804
 9001PP      PP19105   1.006  11.450   9.380 -0.4400 -0.0431 -0.1166
 9002PP      PP19106  11.002   0.752   0.433  0.1794  0.2422 -0.4636
 9003PP      PP19107   9.483   7.350  10.944  0.3766 -0.5038  0.1835
 9004PP      PP19108   0.882  12.966  11.440  0.0082  0.1137  0.1141
 9005PP      PP19109   7.069   8.159   3.171  0.4321  0.0756  0.0415
 9006PP      PP19110   4.973   3.358  11.930 -0.1741  0.3529  0.2061
 9007PP      PP19111   5.714  13.877   9.659 -0.3182 -0.0283  0.0208
 9008PP      PP19112   7.418   9.113   0.851  0.2749 -0.1578 -0.2435
 9009PP      PP19113   7.778   8.717   3.620  0.2803 -0.2426  0.2700
 9010PP      PP19114   3.960  14.485  11.846 -0.2097 -0.3314  0.0841
 9011PP      PP19115   9.165   9.209   1.182 -0.2453  0.0375 -0.1612
 9012PP      PP19116   6.138   6.005   2.508 -0.0891 -0.0655 -0.1076
 9013PP      PP19117   7.281  11.317   2.749 -0.1306  0.1269  0.1284
 9014PP      PP19118  15.487  11.365  12.074  0.0855 -0.0983 -0.1701
 9015PP      PP19119   9.897  14.559   0.730  0.1299 -0.0545 -0.0620
 9016PP      PP19120  15.281   3.202   0.246  0.0275  0.1367 -0.2344
 9017PP      PP19121  11.589   7.842   0.205 -0.1463 -0.1752  0.1721
 9018PP      PP19122   3.414  12.177   0.096 -0.2167 -0.1122 -0.0776
 9019PP      PP19123   5.602   6.298   0.577 -0.2446  0.2242  0.0719
 9020PP      PP19124   5.039  14.343   1.381 -0.1102 -0.3445  0.0369
 9021PP      PP19125   7.718  15.420  10.780 -0.3375 -0.2648 -0.2074
 9022PP      PP19126   6.557   8.819   1.106  0.1193  0.2346 -0.0761
 9023PP      PP19127  10.616  15.584   0.216 -0.0146 -0.0028  0.0851
 9024PP      PP19128   5.437   3.424   2.295  0.2443 -0.0416  0.3117
 9025PP      PP19129   2.942  13.657   3.335 -0.0836 -0.1498 -0.0158
 9026PP      PP19130  11.341   0.681  12.222 -0.2372 -0.1154  0.2726
 9027PP      PP19131   0.683   5.437   0.635  0.0260  0.0538 -0.1024
 9028PP      PP19132   1.802  11.207  10.569  0.0619  0.1003  0.0818
 9029PP      PP19133  10.678   6.731   3.388  0.0104 -0.2216 -0.0885
 9030PP      PP19134  15.392  12.511   2.794 -0.1260 -0.1748 -0.0769
 9031PP      PP19135   3.932  15.203   8.648  0.2415  0.1163  0.0737
 9032PP      PP19136   0.901   1.017   8.794  0.0248  0.3436 -0.3183
 9033PP      PP19137   7.403  13.204  12.941 -0.0336  0.2232  0.1716
 9034PP      PP19138   6.489  15.643  10.215  0.0113 -0.2687  0.0345
 9035PP      PP19139   3.711  15.902   1.006  0.0143  0.0168 -0.2361
 9036PP      PP19140   0.594   3.341   8.486  0.0527 -0.0208 -0.1450
 9037PP      PP19141   6.936   5.668   9.442  0.1796  0.1488 -0.1540
 9038PP      PP19142   9.850   9.409   2.209  0.0320 -0.1382  0.0877
 9039PP      PP19143   7.710   3.765   1.228 -0.1613 -0.0045  0.1118
 9040PP      PP19144  12.147   6.338   0.336  0.2343 -0.0456 -0.0400
 9041PP      PP19145  15.667   2.393  13.277  0.2457  0.1644  0.0967
 9042PP      PP19146   4.516  10.413  12.470  0.1273  0.1603 -0.2473
 9043PP      PP19147   5.908   7.764   2.824 -0.1854  0.0596 -0.3171
 9044PP      PP19148  13.588  14.883  11.202  0.3919 -0.2408 -0.1661
 9045PP      PP19149  15.248  15.147   2.361 -0.1350 -0.0091 -0.1385
 9046PP      PP19150  13.467  13.033  10.112 -0.1872 -0.2905  0.2024
 9047PP      PP19151  14.082  14.690   8.102 -0.1280  0.1891  0.3125
 9048PP      PP19152   9.420  15.506   0.149  0.0065 -0.2827  0.0460
 9049PP      PP19153   0.569   6.691   1.823  0.0796 -0.0912 -0.2335
 9050PP      PP19154   7.408   2.340   2.115  0.3335  0.1557  0.0906
 9051PP      PP19155  13.907   9.431  11.628  0.0414  0.2143 -0.0924
 9052PP      PP19156   9.043   1.098   0.957 -0.3342 -0.0817 -0.4115
 9053PP      PP19157  12.309   7.660  11.943  0.0684  0.1018 -0.4269
 9054PP      PP19158  10.673   8.483   1.402 -0.1585 -0.0757  0.1054
 9055PP      PP19159  10.249   3.212   4.598  0.4097  0.0026 -0.2071
 9056PP      PP19160   1.068   2.841   3.795 -0.0878 -0.1101  0.1073
 9057PP      PP19161  13.844   2.603   8.528 -0.1436 -0.1116 -0.0560
 9058PP      PP19162  14.440   8.950   4.719 -0.0015  0.2936  0.1576
 9059PP      PP19163   0.521  11.564   1.084  0.0998 -0.1173  0.0707
 9060PP      PP19164   7.409  13.580   9.806  0.0863  0.0188  0.1552
 9061PP      PP19165   8.128   3.786   8.862  0.3378 -0.2406 -0.0415
 9062PP      PP19166   9.854  11.470  12.944  0.0556  0.1816  0.0158
 9063PP      PP19167   8.358   2.250  13.342 -0.2580  0.1364  0.0886
 9064PP      PP19168   3.412  10.100  13.232 -0.0898 -0.0308  0.0730
 9065PP      PP19169   2.728   9.249   0.211 -0.0109 -0.0049 -0.0716
 9066PP      PP19170  10.990   4.798   4.866 -0.1516  0.0601  0.1862
 9067PP      PP19171   2.749   5.507   4.183 -0.2228  0.0895  0.1266
 9068PP      PP19172  13.541  12.542   0.773 -0.0829  0.0098 -0.0776
 9069PP      PP19173   9.799   6.867   3.643 -0.1112 -0.2599 -0.2044
 9070PP      PP19174  13.991   0.710   7.944  0.0496 -0.3944 -0.3610
 9071PP      PP19175   2.416  15.199  12.953 -0.1655 -0.0542  0.0647
 9072PP      PP19176  15.291  15.833  10.678  0.1391  0.2114  0.1145
 9073PP      PP19177  14.029   7.772   1.126 -0.2601  0.1529 -0.3215
 9074PP      PP19178   6.740  10.337   5.833  0.1794 -0.0643  0.3889
 9075PP      PP19179   0.696  14.550   0.670 -0.1661 -0.0966 -0.1122
 9076PP      PP19180  12.450   5.429   0.028  0.2083 -0.1521  0.2351
 9077PP      PP19181   2.943   0.019  11.895 -0.2779  0.1212  0.3606
 9078PP      PP19182  15.573   5.187   2.577  0.0366  0.1690  0.1671
 9079PP      PP19183   2.186  12.723   4.168  0.0996 -0.1407 -0.0034
 9080PP      PP19184   8.957  13.562  12.390  0.2085  0.0637  0.0236
 9081PP      PP19185  15.701   6.833  10.662  0.2215 -0.1237 -0.0291
 9082PP      PP19186   1.299   8.664   0.125  0.0310  0.0604 -0.1312
 9083PP      PP19187   3.079   5.803  12.921 -0.3045 -0.5366  0.0848
 9084PP      PP19188   2.402   7.946   0.615 -0.0210  0.0268 -0.5039
 9085PP      PP19189  10.799   7.852   0.727  0.1217  0.1085  0.0032
 9086PP      PP19190   2.674   9.742   0.288 -0.2558 -0.2506  0.1957
 9087PP      PP19191   7.427  12.236   2.850 -0.3246 -0.1740 -0.0609
 9088PP      PP19192  15.386   3.251   1.746 -0.0772  0.2543 -0.1371
 9089PP      PP19193   2.538  13.416   3.430 -0.0920  0.0322  0.0162
 9090PP      PP19194   7.928   5.720  12.832 -0.3879 -0.1209  0.1286
 9091PP      PP19195   7.398   9.051   3.409 -0.0196  0.0335  0.1126
 9092PP      PP19196   6.317   0.535   9.104  0.0012  0.0103 -0.0302
 9093PP      PP19197   6.995   2.695   8.490  0.1738 -0.2005 -0.1954
 9094PP      PP19198   2.635   7.772  12.804  0.1292 -0.0282  0.2141
 9095PP      PP19199  12.610  14.819   8.685  0.0519  0.1920  0.0387
 9096PP      PP19200   6.630   8.525   0.648  0.0892 -0.1899 -0.1160
 9097PP      PP19201   7.908   8.180  10.221 -0.1594  0.4093 -0.1402
 9098PP      PP19202   1.057   1.054   2.492 -0.0184  0.1267 -0.1307
 9099PP      PP19203  12.620  13.675   8.282  0.1531  0.0844 -0.1313
 9100PP      PP19204   9.661  13.556  11.382  0.2072 -0.0143  0.2129
 9101PP      PP19205   7.312  15.715   2.722  0.3087  0.2422  0.0714
 9102PP      PP19206   1.610   4.871  13.463 -0.0697  0.4005 -0.2506
 9103PP      PP19207  13.732   1.510   9.727 -0.0505  0.0127  0.0212
 9104PP      PP19208   8.798  15.394  13.250  0.0783 -0.0122 -0.0138
 9105PP      PP19209   0.307  12.385  10.091  0.0435  0.0908  0.1908
 9106PP      PP19210   2.666  12.447  12.276  0.2122 -0.1270  0.1245
 9107PP      PP19211  15.613   8.405  10.633 -0.0064  0.2279 -0.1206
 9108PP      PP19212   8.786   9.558  10.483  0.1056  0.1816  0.2055
 9109PP      PP19213   3.401   5.306  11.215  0.3271 -0.0357 -0.2546
 9110PP      PP19214   1.128   1.462   2.157 -0.1529  0.3006 -0.0801
 9111PP      PP19215   2.724   4.348  10.792 -0.1186 -0.2052  0.0855
 9112PP      PP19216   4.414  10.010  10.693  0.0300  0.1147  0.1258
 9113PP      PP19217   2.422   5.625   1.851  0.3049  0.1446 -0.1586
 9114PP      PP19218  12.854   6.947   1.654  0.2055  0.4060  0.1973
 9115PP      PP19219   0.426   5.278   2.721  0.1171  0.1837 -0.3303
 9116PP      PP19220   0.519   6.958  12.723  0.1783  0.0385  0.2284
 9117PP      PP19221   8.050   4.595  11.557  0.0931 -0.2400  0.0191
 9118PP      PP19222  13.075   2.552   3.834  0.2737 -0.2174 -0.3517
 9119PP      PP19223  15.268   4.804  11.749  0.0330 -0.1798 -0.4265
 9120PP      PP19224   4.543   2.872  12.767 -0.3471  0.2289 -0.0654
 9121PP      PP19225   5.978   1.879   0.578  0.0579  0.0414 -0.1138
 9122PP      PP19226   8.132  10.589  11.778  0.1939 -0.2854 -0.3180
 9123PP      PP19227  15.623  14.408   0.202  0.0463 -0.0340  0.0680
 9124PP      PP19228  13.499   2.617   9.691 -0.3903  0.1329 -0.0691
 9125PP      PP19229  14.490   8.941  12.017 -0.3224 -0.1024 -0.1082
 9126PP      PP19230   8.104   9.564   0.321  0.0816  0.1166 -0.0837
 9127PP      PP19231   0.612  14.468  12.409  0.0816 -0.0388  0.1015
 9128PP      PP19232  13.105  11.697   0.231 -0.0009  0.0620  0.0303
 9129PP      PP19233  12.209   2.646   8.678 -0.0691 -0.3049 -0.2256
 9130PP      PP19234   2.344   2.152   3.621 -0.1629  0.1914 -0.4131
 9131PP      PP19235  10.558   9.261   3.929 -0.3490 -0.0166 -0.2057
 9132PP      PP19236   5.526   4.349   0.331  0.1384  0.2069  0.0409
 9133PP      PP19237   4.877   1.065   8.302  0.4324  0.0628  0.0810
 9134PP      PP19238   2.782  11.178   3.495  0.1065 -0.0119  0.0931
 9135PP      PP19239   4.788  11.385  13.169  0.1496  0.1389 -0.0162
 9136PP      PP19240  11.149  13.210   0.083  0.0572  0.0957  0.2097
 9137PP      PP19241   3.886  13.143   9.573  0.0857  0.1760  0.1545
 9138PP      PP19242  13.268  13.334   3.381  0.0112  0.0916 -0.0670
 9139PP      PP19243   2.309   6.473   4.923 -0.2419  0.0348 -0.0491
 9140PP      PP19244   5.123   0.778   8.792 -0.1691  0.3349  0.0621
 9141PP      PP19245  13.019   8.714  11.259 -0.0580 -0.1737  0.0763
 9142PP      PP19246  13.361  14.166   0.515 -0.1059 -0.0719  0.1837
 9143PP      PP19247  12.266  12.488  11.147  0.0735  0.3172  0.0191
 9144PP      PP19248   0.326   8.277   9.670  0.1486  0.0034 -0.0109
 9145PP      PP19249   4.432  14.537  10.467 -0.0521  0.2756  0.2613
 9146PP      PP19250  12.940   4.326  11.852 -0.1965  0.2968  0.0414
 9147PP      PP19251  14.045   4.102   3.165  0.0993  0.0843  0.0783
 9148PP      PP19252  14.375   8.210  11.230 -0.0557 -0.2518 -0.1263
 9149PP      PP19253   8.293   9.404  10.401 -0.0338 -0.0673  0.4297
 9150PP      PP19254  15.679   4.060   1.473  0.0390  0.0952  0.1789
 9151PP      PP19255   2.120  12.029  11.015  0.1283 -0.3130  0.0130
 9152PP      PP19256   9.861   5.115   9.256  0.0599 -0.0129 -0.0515
 9153PP      PP19257  11.140   6.285   1.683 -0.0393  0.4447 -0.1671
 9154PP      PP19258   5.310  14.480  12.630  0.0769  0.0426 -0.1367
 9155PP      PP19259  12.466  12.023  10.948  0.1243 -0.2819  0.2652
 9156PP      PP19260  12.040   0.768   2.917  0.0916  0.0127 -0.1807
 9157PP      PP19261  14.820   0.943   1.292 -0.0704 -0.0910  0.0036
 9158PP      PP19262  12.956   6.848   9.772 -0.1136  0.1424  0.0409
 9159PP      PP19263  13.259   4.109   1.031  0.2383 -0.0177 -0.0486
 9160PP      PP19264   5.696   8.304  12.086 -0.0278 -0.0078 -0.1553
 9161PP      PP19265   0.709   6.077  10.842  0.2041 -0.1248 -0.0345
 9162PP      PP19266   2.935   0.474   0.701  0.1359  0.0989  0.0650
 9163PP      PP19267   3.901  10.305  11.322  0.1408  0.2671  0.2207
 9164PP      PP19268   2.998  11.869   4.318  0.2058  0.0839  0.0855
 9165PP      PP19269   7.380  13.552   3.361 -0.0580 -0.1137 -0.1276
 9166PP      PP19270  13.896  15.885   3.136  0.3050  0.4377  0.1124
 9167PP      PP19271  12.282  10.179   0.858  0.0690  0.0463  0.1496
 9168PP      PP19272  11.242   0.570  13.136  0.1963 -0.1768 -0.1278
 9169PP      PP19273  10.319   7.576   9.006  0.3387 -0.0559 -0.0111
 9170PP      PP19274  11.525  12.849   1.504  0.1470 -0.2191 -0.0616
 9171PP      PP19275  12.450   1.001  10.530  0.0776  0.0154 -0.0295
 9172PP      PP19276   7.914   1.210  10.087  0.0891  0.0278  0.2590
 9173PP      PP19277   0.331  13.610   9.401  0.2425  0.1414 -0.0640
 9174PP      PP19278   2.039   1.258  12.275  0.4239 -0.0105  0.0970
 9175PP      PP19279   8.930   9.181  10.799 -0.0685 -0.1907  0.0102
 9176PP      PP19280   4.230   0.233  10.006  0.0650  0.0068 -0.2453
 9177PP      PP19281   7.615  14.858   3.222 -0.1422  0.2604 -0.3886
 9178PP      PP19282  14.669  10.351   1.647 -0.2163  0.1393 -0.1994
 9179PP      PP19283   6.462  10.157   1.475 -0.1489  0.3765 -0.1696
 9180PP      PP19284   2.798   6.192  11.607 -0.1376  0.0955 -0.3090
 9181PP      PP19285   3.195   4.019  10.755  0.2294  0.1449  0.3011
 9182PP      PP19286   8.151  15.682   2.003 -0.1585 -0.1733 -0.0600
 9183PP      PP19287  14.074   4.643  10.515 -0.1291  0.1257 -0.1464
 9184PP      PP19288  15.270   8.483   1.663  0.1394 -0.1674 -0.0465
 9185PP      PP19289  13.368   7.702   2.354  0.1156 -0.2532  0.0240
 9186PP      PP19290   9.852  10.723   5.084  0.1087 -0.2438  0.2800
 9187PP      PP19291  12.088   6.104   2.443 -0.3279  0.3292 -0.1664
 9188PP      PP19292   9.285  10.255  12.464  0.1180  0.1562  0.3102
 9189PP      PP19293   5.452  12.281  11.373 -0.0842  0.2688  0.1640
 9190PP      PP19294  10.956   6.928  12.242 -0.2014 -0.0092 -0.0484
 9191PP      PP19295   7.398   1.528   8.963 -0.0359 -0.2240  0.2616
 9192PP      PP19296  15.059  11.559  12.094  0.3115 -0.0715  0.0733
 9193PP      PP19297   9.219   9.267   0.635  0.2100  0.2543 -0.1138
 9194PP      PP19298   5.352   9.008   0.378 -0.2265 -0.1241 -0.3442
 9195PP      PP19299  11.417   9.581   2.105  0.0438 -0.0769 -0.1328
 9196PP      PP19300   1.221  13.117   1.441  0.7137  0.3583  0.2519
 9197PP      PP19301  15.042   7.093   0.057 -0.0572 -0.3387 -0.1692
 9198PP      PP19302   5.529  12.512   2.155  0.0117  0.1089  0.0464
 9199PP      PP19303  12.391   5.750  11.904 -0.0876  0.0745  0.1362
 9200PP      PP19304   4.609   7.250  10.486 -0.0239  0.2094  0.1698
 9201PP      PP19305  13.127  12.503  11.475 -0.0257  0.1538  0.3538
 9202PP      PP19306  12.104  10.459   4.121  0.2814  0.0962  0.1639
 9203PP      PP19307  10.574   7.598  10.073  0.2168 -0.1188  0.3332
 9204PP      PP19308   4.718  10.366  10.014 -0.1494  0.0670 -0.0336
 9205PP      PP19309   8.860  11.853   3.931 -0.2172 -0.2294 -0.1132
 9206PP      PP19310   5.846   9.397  11.153  0.0006 -0.0461  0.0181
 9207PP      PP19311   3.359   6.661  13.461  0.1906  0.2789 -0.0797
 9208PP      PP19312   8.302  13.770  13.276  0.2188  0.2307 -0.0727
 9209PP      PP19313   7.361   0.674  10.108 -0.0858  0.2058 -0.0144
 9210PP      PP19314   8.986  11.165   1.171 -0.1889  0.1961 -0.0288
 9211PP      PP19315  14.641   4.355  10.094 -0.1692  0.0815 -0.0080
 9212PP      PP19316   7.425   2.780   1.806  0.1756 -0.0388  0.3344
 9213PP      PP19317  12.191   2.345   3.901 -0.1707 -0.0895 -0.0954
 9214PP      PP19318   4.500   2.656  11.869 -0.2973 -0.1332  0.0312
 9215PP      PP19319  13.712   0.337   9.095  0.1396 -0.2033  0.2058
 9216PP      PP19320   0.695  13.934   2.710 -0.0134  0.1236  0.1576
 9217PP      PP19321   2.771   1.147  11.774  0.0933 -0.0168 -0.1535
 9218PP      PP19322  14.816  11.280   4.022  0.0603 -0.0493  0.1657
 9219PP      PP19323   4.476   2.316   9.670  0.1032  0.2050  0.1875
 9220PP      PP19324  11.814   0.905   2.385 -0.0190  0.0086  0.0487
 9221PP      PP19325  14.575  14.537  10.700 -0.2058 -0.2899  0.0505
 9222PP      PP19326   9.420   1.871  13.293  0.2243 -0.1237 -0.0779
 9223PP      PP19327   6.109  14.086   8.102  0.2543  0.1206 -0.1753
 9224PP      PP19328   5.520  15.749   9.480 -0.4902  0.1208  0.1087
 9225PP      PP19329   5.572   0.339   9.473  0.2299  0.2835 -0.1794
 9226PP      PP19330  15.667   7.139  10.210  0.1161 -0.0918  0.0959
 9227PP      PP19331  12.480   8.449  12.959 -0.0606 -0.0520  0.0002
 9228PP      PP19332  14.289  13.738   1.629  0.2285 -0.0928 -0.0545
 9229PP      PP19333  11.912  12.352  11.876 -0.2350 -0.5199  0.2931
 9230PP      PP19334   9.858   8.805   0.509  0.0441 -0.2250 -0.0686
 9231PP      PP19335   7.912   2.694   1.426  0.0219  0.0135 -0.2040
 9232PP      PP19336  13.861  14.071  10.452 -0.2665 -0.0777 -0.1220
 9233PP      PP19337  10.484   8.342   2.819  0.0557  0.1241  0.1326
 9234PP      PP19338   2.432   9.858   2.118 -0.0976 -0.0565 -0.3171
 9235PP      PP19339   6.639   3.195  12.462 -0.0446 -0.2359  0.0257
 9236PP      PP19340  10.170   6.730   4.576  0.0850  0.0134 -0.0545
 9237PP      PP19341  11.398   7.734  10.190 -0.2734 -0.0370  0.0981
 9238PP      PP19342   1.986  13.785   0.502  0.3497 -0.0780 -0.0213
 9239PP      PP19343   4.981  11.958  11.222 -0.0297 -0.2528 -0.0535
 9240PP      PP19344   4.976   7.604  12.946 -0.0819 -0.0872  0.0514
 9241PP      PP19345   2.183  10.349   4.023  0.0516  0.1414 -0.1597
 9242PP      PP19346  11.493   3.897   3.257  0.2482  0.2528 -0.1306
 9243PP      PP19347   8.973   5.020   9.843  0.1534  0.0292 -0.0972
 9244PP      PP19348   8.177   3.863  13.373 -0.0544 -0.0905  0.2991
 9245PP      PP19349   0.749   6.731  11.766  0.3012 -0.0379 -0.1143
 9246PP      PP19350   2.306   9.061   2.661 -0.1423  0.0133  0.0718
 9247PP      PP19351   3.856   3.131   0.013  0.1612 -0.0521 -0.0402
 9248PP      PP19352  13.137   1.360   8.764 -0.2244  0.0349  0.0652
 9249PP      PP19353  13.616  10.152  12.825 -0.0815  0.1286  0.2483
 9250PP      PP19354   6.871   6.555   4.825 -0.3139  0.2584 -0.1771
 9251PP      PP19355   9.125   7.078  12.812  0.0387  0.1720  0.2838
 9252PP      PP19356  13.681   0.858   0.444  0.0057 -0.1788  0.0232
 9253PP      PP19357  12.907   4.008  10.467  0.0475 -0.1142  0.0381
 9254PP      PP19358   5.196   4.745   4.706 -0.2091 -0.1902  0.4248
 9255PP      PP19359   1.886   6.576  10.571 -0.6299 -0.0471 -0.0312
 9256PP      PP19360   4.900  13.194  12.907  0.2610 -0.2578  0.1135
 9257PP      PP19361   8.583   4.317   9.226 -0.1837 -0.0020  0.1519
 9258PP      PP19362   1.607  13.159   0.150 -0.0634  0.1118 -0.1933
 9259PP      PP19363   5.039   7.109  11.740 -0.1387  0.4167 -0.2888
 9260PP      PP19364   0.488  11.747  11.177  0.0651  0.0126 -0.0313
 9261PP      PP19365  11.160   2.878   1.981 -0.0807 -0.0135 -0.1022
 9262PP      PP19366   2.980   3.697   9.908  0.0403  0.1453 -0.0949
 9263PP      PP19367  10.800   0.471   0.830 -0.4807 -0.5098 -0.2079
 9264PP      PP19368   1.252   0.677   1.588  0.2030 -0.0502 -0.0267
 9265PP      PP19369   0.881   9.959   2.488 -0.0217  0.0820  0.0364
 9266PP      PP19370   0.206   2.346   9.260  0.1815  0.0286  0.0705
 9267PP      PP19371   1.443  15.252   2.986 -0.5078  0.0600  0.0152
 9268PP      PP19372  13.642  15.614   1.863  0.1561  0.1715  0.0109
 9269PP      PP19373   3.010   8.075   1.724 -0.2013  0.0344  0.0755
 9270PP      PP19374  12.751  15.725   2.452  0.0926 -0.0869 -0.1075
 9271PP      PP19375  10.066   1.176  11.356  0.1579  0.1993 -0.0667
 9272PP      PP19376   8.796   0.501   0.998 -0.5118 -0.0932  0.3812
 9273PP      PP19377  14.634   0.641   8.436 -0.0281 -0.0737  0.0156
 9274PP      PP19378   2.516  13.466   9.974 -0.0425  0.3377 -0.1023
 9275PP      PP19379   4.101  11.847  12.961 -0.1743 -0.1125 -0.1456
 9276PP      PP19380   0.839  12.475  11.491 -0.1744 -0.0097  0.1780
 9277PP      PP19381   9.861  14.667   1.712  0.0368  0.1651  0.2739
 9278PP      PP19382   9.116   5.058  12.510  0.1093  0.4802  0.2442
 9279PP      PP19383   0.728   2.376   8.132  0.1236 -0.1069 -0.1743
 9280PP      PP19384   9.353  15.689  11.698  0.0702  0.1194 -0.1739
 9281PP      PP19385   8.542   7.232   4.013  0.0777  0.1425 -0.2650
 9282PP      PP19386  11.414  12.662  11.623 -0.0170  0.4491  0.2198
 9283PP      PP19387   5.863  13.796   0.251 -0.1183 -0.0636  0.1078
 9284PP      PP19388   2.904   8.342  13.430 -0.0138  0.4128 -0.1480
 9285PP      PP19389   0.089   7.141   1.123 -0.1522 -0.2143  0.0993
 9286PP      PP19390   6.453  14.241   3.342  0.1066 -0.1433 -0.1482
 9287PP      PP19391   3.479   3.466  13.441 -0.1472  0.1345  0.3586
 9288PP      PP19392  13.784  11.811  11.179  0.1234  0.0297  0.2715
 9289PP      PP19393   3.277   7.381  10.761  0.0119  0.0828  0.1884
 9290PP      PP19394   0.391   3.292   1.575  0.0220  0.0229 -0.2507
 9291PP      PP19395   1.563  15.303   9.212 -0.4277 -0.3302  0.1253
 9292PP      PP19396   9.525  14.492  11.130  0.0456  0.1383  0.1938
 9293PP      PP19397  11.398   1.689   9.952 -0.0376 -0.0295  0.1299
 9294PP      PP19398  10.185   0.850  13.079 -0.1122  0.3124  0.3001
 9295PP      PP19399  15.416  15.641  10.216  0.1739 -0.3696 -0.1478
 9296PP      PP19400  14.395   1.069  13.305 -0.0875  0.0357 -0.0873
 9297PP      PP19401   6.010   5.911   1.097  0.2538  0.0325 -0.1959
 9298PP      PP19402   6.263  15.738   1.272 -0.1188  0.1232 -0.1522
 9299PP      PP19403  13.933   1.437   9.245 -0.0174 -0.4560  0.1614
 9300PP      PP19404  10.606   7.254  12.090  0.1524 -0.3723  0.3492
 9301PP      PP19405   3.355   3.713   2.460  0.0756  0.0479  0.0767
 9302PP      PP19406  10.400  11.003   4.166  0.1473  0.1507 -0.2702
 9303PP      PP19407  11.260  14.469   8.405  0.0690 -0.1165 -0.0795
 9304PP      PP19408   4.850   2.656  13.203 -0.3036 -0.1236  0.2628
 9305PP      PP19409   7.546   6.020   9.484 -0.0979 -0.2286 -0.0976
 9306PP      PP19410   0.259   2.015   9.984 -0.0826 -0.1135  0.1115
 9307PP      PP19411  10.532   4.585  12.394  0.0802 -0.1769 -0.0085
 9308PP      PP19412   7.651   5.364   4.396 -0.2021  0.0190 -0.1050
 9309PP      PP19413   8.689  12.068  12.787 -0.1626 -0.0059 -0.2070
 9310PP      PP19414   3.017  11.875   1.561 -0.0850  0.0510  0.2090
 9311PP      PP19415  10.945   8.247   2.940 -0.1167  0.0456  0.1714
 9312PP      PP19416   6.542  13.407   0.920  0.2690  0.5287  0.2514
 9313PP      PP19417   9.266   5.792  10.178 -0.2742 -0.1895  0.1604
 9314PP      PP19418   0.945   8.201  10.919  0.2511  0.0265 -0.1713
 9315PP      PP19419  12.807  12.743   3.979 -0.2674 -0.0071  0.0266
 9316PP      PP19420  11.958   1.343  10.196 -0.1415  0.0278 -0.0374
 9317PP      PP19421   2.602  15.714   1.293  0.1581  0.0635 -0.2742
 9318PP      PP19422   7.127  12.928  10.889  0.1300 -0.1410 -0.0214
 9319PP      PP19423   8.374   0.147   2.262 -0.0420  0.1588  0.1573
 9320PP      PP19424   8.958  12.827   1.915  0.1065 -0.1025  0.0984
 9321PP      PP19425  10.503  13.498  11.112  0.0574  0.2894 -0.1233
 9322PP      PP19426   2.911  15.327   3.013 -0.0316 -0.0194  0.2382
 9323PP      PP19427   0.381  10.698   9.907  0.0173 -0.0815 -0.0976
 9324PP      PP19428   4.209   9.643   3.038  0.2186  0.0566 -0.2185
 9325PP      PP19429   9.644   4.163   3.751  0.0182  0.2362  0.1625
 9326PP      PP19430   4.262  14.944   8.978  0.0146 -0.0239  0.0742
 9327PP      PP19431   0.404   3.798   9.313  0.2163 -0.0775 -0.3734
 9328PP      PP19432  10.223   9.277   3.610  0.0866 -0.2269 -0.0704
 9329PP      PP19433   8.035   3.052   3.152 -0.1353 -0.0855  0.2498
 9330PP      PP19434   0.439   0.248   1.192 -0.3427  0.1857  0.1539
 9331PP      PP19435   1.374   4.219   0.106  0.2549 -0.0245 -0.1294
 9332PP      PP19436  15.407  13.451  10.610  0.0648  0.3014  0.0289
 9333PP      PP19437  13.692  12.989   8.633 -0.0534 -0.0425 -0.0646
 9334PP      PP19438   6.814  15.406   0.032 -0.1606 -0.0457 -0.0318
 9335PP      PP19439  15.305   0.849   2.671  0.0234  0.0806 -0.0063
 9336PP      PP19440   5.551   5.516   9.785  0.1405  0.0522  0.0588
 9337PP      PP19441   5.224  12.936   2.288 -0.2240 -0.0853 -0.0228
 9338PP      PP19442   6.658   9.594   3.624  0.0050 -0.1845  0.2348
 9339PP      PP19443   4.822   7.989   3.789 -0.0053  0.2356 -0.1461
 9340PP      PP19444  12.755   9.124  11.973 -0.0974 -0.4038  0.1065
 9341PP      PP19445  12.529  10.076   4.244  0.0967  0.1934  0.1031
 9342PP      PP19446  10.375   3.673   2.786  0.1547 -0.1876 -0.1702
 9343PP      PP19447  15.257   7.709   0.906  0.0686 -0.2158 -0.2548
 9344PP      PP19448  14.926   0.227  10.930 -0.0868 -0.1077 -0.1931
 9345PP      PP19449   6.979   0.225  10.230 -0.2087  0.2127 -0.2258
 9346PP      PP19450   6.978   0.910  11.166  0.1878 -0.3124 -0.2823
 9347PP      PP19451   5.974  10.162   9.983 -0.0172 -0.0180 -0.5147
 9348PP      PP19452   5.453   9.275   2.003  0.1683 -0.1453  0.0678
 9349PP      PP19453   7.749   8.841  10.152 -0.4495 -0.0508  0.1576
 9350PP      PP19454  15.578   2.388   1.303  0.0620 -0.2206 -0.0081
 9351PP      PP19455  12.665   4.161   0.837  0.2071  0.2505 -0.0637
 9352PP      PP19456   3.041   0.419  12.232 -0.1902  0.0897 -0.2690
 9353PP      PP19457  10.369  12.669   3.056  0.2050 -0.1417 -0.1933
 9354PP      PP19458   5.267  11.107   1.837  0.1591  0.1969  0.1858
 9355PP      PP19459  12.096   5.971   3.736 -0.0670 -0.0738  0.1813
 9356PP      PP19460   3.190  12.495   0.946 -0.0246  0.1837  0.0990
 9357PP      PP19461   7.296   0.309   8.949  0.2377  0.3058 -0.0491
 9358PP      PP19462   7.745  12.512   4.299  0.3893 -0.2043  0.1577
 9359PP      PP19463   4.162  10.215   2.978 -0.2940 -0.1230 -0.1322
 9360PP      PP19464   4.120   7.721   3.193 -0.1903 -0.1103 -0.0395
 9361PP      PP19465   3.793  11.501  13.191 -0.1434 -0.1857  0.2439
 9362PP      PP19466   9.885   1.635   2.385 -0.0805  0.2700  0.1082
 9363PP      PP19467   9.208   2.246   1.976  0.2167  0.0924  0.2499
 9364PP      PP19468   5.363   8.617  11.488 -0.0361 -0.1577  0.2798
 9365PP      PP19469   6.100   7.697  10.116  0.0689  0.0287  0.2510
 9366PP      PP19470   8.027   5.682   1.492 -0.0453 -0.1397 -0.2932
 9367PP      PP19471   9.353  14.471  10.136  0.1232  0.1598  0.1972
 9368PP      PP19472   4.372   2.243  11.563  0.1855 -0.2298 -0.0415
 9369PP      PP19473  15.392   8.879  10.456  0.0454  0.3412 -0.0094
 9370PP      PP19474   4.148   8.615   2.570  0.1939  0.0271 -0.0653
 9371PP      PP19475  12.906   2.757   0.553  0.1348 -0.0245  0.0036
 9372PP      PP19476  12.929   2.915   1.438  0.0234 -0.2429 -0.1355
 9373PP      PP19477  12.605   3.832  10.079 -0.1201 -0.0985 -0.0530
 9374PP      PP19478   3.979   3.687   3.106  0.0370  0.0212  0.1929
 9375PP      PP19479   9.426   9.820   9.088  0.1044 -0.2899  0.2670
 9376PP      PP19480   7.059   7.405  12.549 -0.1207  0.0383  0.1641
 9377PP      PP19481   4.682   0.440  11.539  0.3312 -0.0838  0.3226
 9378PP      PP19482  12.268   8.955   2.778  0.3356 -0.2290  0.1358
 9379PP      PP19483  10.647   5.541   9.400  0.0958 -0.2874  0.0379
 9380PP      PP19484  11.653   2.389  13.242  0.0746 -0.1837  0.1829
 9381PP      PP19485   5.968   8.896   3.134 -0.0199 -0.0005  0.0465
 9382PP      PP19486   1.061   0.136   9.313 -0.0818 -0.1035  0.2405
 9383PP      PP19487   6.233  10.299   9.464 -0.6071  0.1696 -0.1010
 9384PP      PP19488  13.862   1.917   0.311  0.0498 -0.0266 -0.2962
 9385PP      PP19489  10.883   1.306  11.986 -0.1847 -0.4726 -0.1477
 9386PP      PP19490  15.712   5.609   3.429  0.3030 -0.4874  0.4222
 9387PP      PP19491   9.300  11.057   5.390 -0.3439  0.0114 -0.1149
 9388PP      PP19492   4.757   2.622   0.606  0.3537  0.3587  0.1784
 9389PP      PP19493  13.049   3.619   8.663 -0.1548 -0.1299  0.0967
 9390PP      PP19494  12.374   0.969  11.496  0.0134  0.0241  0.2306
 9391PP      PP19495   8.703  11.744   4.776 -0.0117  0.1741 -0.0897
 9392PP      PP19496   2.810   2.993   8.414  0.0460 -0.0762  0.0459
 9393PP      PP19497  15.648  14.893  12.483  0.0701  0.2422 -0.1735
 9394PP      PP19498  12.329   8.544  11.026 -0.1508 -0.0237 -0.1218
 9395PP      PP19499   9.867   9.287  10.899 -0.2158  0.1627 -0.0850
 9396PP      PP19500  13.359   3.404   8.985  0.2085  0.2741 -0.1570
 9397PP      PP19501   4.459   5.394   4.364  0.0208  0.2052 -0.0319
 9398PP      PP19502   8.386   6.291  10.024 -0.0120  0.0865 -0.0703
 9399PP      PP19503   0.765   2.768   3.350  0.3412  0.2433  0.1266
 9400PP      PP19504  13.919   2.702   1.577 -0.0633  0.3161  0.1685
 9401PP      PP19505  13.734  11.214  10.226 -0.0207  0.1697 -0.1959
 9402PP      PP19506  12.298   2.293   2.668  0.0654 -0.2739  0.2140
 9403PP      PP19507  10.572   8.769   9.775  0.2304 -0.2720 -0.1367
 9404PP      PP19508   8.620   6.133   4.522 -0.5477 -0.2495  0.0174
 9405PP      PP19509   6.536  10.673   3.619  0.0893  0.2098  0.1877
 9406PP      PP19510   8.423  11.065  11.857 -0.1798 -0.3128 -0.0363
 9407PP      PP19511   0.922  14.126  13.183 -0.3459  0.3091  0.1634
 9408PP      PP19512   4.142  11.751  11.012  0.0134  0.0257  0.0403
 9409PP      PP19513  11.543  10.803   3.778 -0.0756 -0.2311  0.1856
 9410PP      PP19514   1.208   5.324   0.807 -0.2026 -0.0271  0.0880
 9411PP      PP19515   1.240   5.226  12.353 -0.1734  0.5349 -0.3109
 9412PP      PP19516  14.443   5.296  13.208  0.1644 -0.0319  0.5365
 9413PP      PP19517  15.418  11.262   9.866  0.1668 -0.0235 -0.2456
 9414PP      PP19518  15.287   7.927  12.898  0.0282  0.1874  0.0140
 9415PP      PP19519  10.653   3.224   2.746 -0.0930 -0.0067  0.1214
 9416PP      PP19520  12.262   6.904   9.160  0.1352  0.0246 -0.3803
 9417PP      PP19521   8.618   4.639   0.288 -0.0215 -0.0060 -0.2518
 9418PP      PP19522  10.958   2.678   3.857  0.2702 -0.1388  0.0016
 9419PP      PP19523  14.747  15.796  11.484  0.1183  0.0426 -0.2730
 9420PP      PP19524   5.024   6.085   4.649  0.4670  0.0190  0.3080
 9421PP      PP19525   0.994   5.840   4.946  0.1126 -0.1948 -0.0138
 9422PP      PP19526   1.269   4.817  10.993  0.1245  0.1136 -0.2499
 9423PP      PP19527   1.957   2.336   9.315  0.0273  0.1834 -0.0596
 9424PP      PP19528  10.776   1.946   2.190  0.1274  0.0522  0.1896
 9425PP      PP19529   6.114   4.263  12.824  0.0288  0.0725  0.3207
 9426PP      PP19530   0.853  14.423  10.632  0.1478  0.1420  0.1664
 9427PP      PP19531   3.603  15.595   0.121 -0.1780  0.1201 -0.2389
 9428PP      PP19532   7.440   4.220   3.512 -0.1943  0.0147 -0.1715
 9429PP      PP19533  11.703   2.466   3.830  0.1174  0.0892 -0.0232
 9430PP      PP19534   4.704   5.191   0.362 -0.1872 -0.1648 -0.1179
 9431PP      PP19535   5.203  10.024  10.098 -0.1881 -0.2223  0.1268
 9432PP      PP19536   3.505   0.847   2.630 -0.1261 -0.1422  0.2554
 9433PP      PP19537   9.988  14.731   8.273 -0.1331 -0.2326 -0.1313
 9434PP      PP19538  14.622  11.376   2.608  0.0755 -0.2349  0.1654
 9435PP      PP19539  15.093   8.857   9.130  0.2110  0.1576 -0.0476
 9436PP      PP19540   2.776   3.460  11.288 -0.2576 -0.4680 -0.1496
 9437PP      PP19541   0.911   9.527   4.121 -0.1544  0.1866 -0.0046
 9438PP      PP19542   3.176  12.996   2.234  0.0870 -0.0782 -0.0647
 9439PP      PP19543   9.114   2.091  10.891  0.0795  0.1102  0.0579
 9440PP      PP19544   8.338  14.790   9.128  0.0830 -0.0206  0.1419
 9441PP      PP19545   9.318   8.716   1.374 -0.0977  0.0493  0.5338
 9442PP      PP19546   6.493   8.169  12.338  0.2165  0.0103  0.2469
 9443PP      PP19547  12.152   6.743  10.037  0.1821  0.2017  0.1303
 9444PP      PP19548   3.908   6.330   4.173  0.2822 -0.1139 -0.0636
 9445PP      PP19549   7.209  15.611  13.201  0.0568 -0.1033  0.0411
 9446PP      PP19550  10.945   6.463   0.417 -0.0909 -0.0650  0.2517
 9447PP      PP19551  11.467  14.421   2.421 -0.0739 -0.4418  0.0880
 9448PP      PP19552   5.248   5.424   0.396  0.0230  0.2281  0.0586
 9449PP      PP19553   8.684   1.993   3.017  0.0821  0.0476 -0.0642
 9450PP      PP19554  13.764   8.292   4.754  0.2257 -0.0609  0.0476
 9451PP      PP19555  14.701   2.544   8.480  0.2060 -0.1980  0.1069
 9452PP      PP19556   6.014  10.761   3.674  0.1959  0.1420  0.2514
 9453PP      PP19557  10.117   9.588   1.179  0.1549  0.0991 -0.1249
 9454PP      PP19558  12.832   8.198   2.619 -0.2034 -0.0968  0.0998
 9455PP      PP19559   5.070   8.944   4.253 -0.1468  0.4157 -0.1830
 9456PP      PP19560  15.319  10.509   3.760  0.0486  0.2114  0.1352
 9457PP      PP19561  10.710   2.621   2.532  0.1184  0.0485 -0.1175
 9458PP      PP19562  15.181  14.917   0.988 -0.2285  0.0420 -0.1710
 9459PP      PP19563   6.924  11.094  10.592 -0.1667  0.1433  0.2067
 9460PP      PP19564  12.528   4.969  13.248  0.0094  0.3398  0.1361
 9461PP      PP19565   5.524  11.711   2.178 -0.2136 -0.1887 -0.1338
 9462PP      PP19566  11.571  11.101  11.292  0.1283  0.0575  0.0269
 9463PP      PP19567  14.616   6.530  12.675  0.2901  0.2748  0.4171
 9464PP      PP19568  12.801  13.291   3.673 -0.0242 -0.0098 -0.1032
 9465PP      PP19569   1.126  10.600  11.099  0.0068  0.1663  0.1651
 9466PP      PP19570   1.383   8.483  11.765  0.1834 -0.4063  0.0001
 9467PP      PP19571   9.083  13.241  12.930  0.2765 -0.1065  0.0761
 9468PP      PP19572   3.781   2.840  13.081 -0.3798  0.0816  0.2692
 9469PP      PP19573  11.126  11.655  12.697  0.1830  0.1310  0.4953
 9470PP      PP19574  10.291  14.482   1.069  0.2137 -0.2141  0.0006
 9471PP      PP19575   7.948   0.052   3.894 -0.0461  0.0335  0.1288
 9472PP      PP19576   5.844  11.227  12.179 -0.0630  0.2563 -0.0462
 9473PP      PP19577   9.279   6.212   1.543 -0.1683 -0.1553 -0.3442
 9474PP      PP19578  12.905   5.407  11.570  0.0891  0.0750 -0.2376
 9475PP      PP19579  10.990  15.849  10.300 -0.2632 -0.0302 -0.4692
 9476PP      PP19580   0.760  13.691   0.270  0.0481 -0.0528  0.3020
 9477PP      PP19581   7.529   6.895   0.596  0.0366 -0.2224 -0.1465
 9478PP      PP19582  14.233  14.283   3.325 -0.1797 -0.0517  0.3216
 9479PP      PP19583   6.500   5.886   2.826  0.3622  0.3777 -0.0697
 9480PP      PP19584   3.255   2.470   9.330  0.0913  0.0389  0.1091
 9481PP      PP19585   2.034   5.574   9.580 -0.0675 -0.1610 -0.3041
 9482PP      PP19586   3.401   8.229   4.046 -0.3227 -0.0759  0.2158
 9483PP      PP19587   7.397   3.459   0.907  0.0435  0.2278 -0.1156
 9484PP      PP19588   6.040  13.451   0.571  0.1332  0.0193 -0.2457
 9485PP      PP19589  13.542  15.681   8.306  0.0702 -0.2719  0.2822
 9486PP      PP19590   3.357   7.843   3.583 -0.2239  0.1367 -0.3919
 9487PP      PP19591   3.091   9.945  10.116 -0.0874 -0.3309  0.2310
 9488PP      PP19592  13.134   2.374   2.148  0.1197  0.0741 -0.1584
 9489PP      PP19593  10.849  14.481   1.805  0.1273 -0.0061 -0.0933
 9490PP      PP19594   5.109   6.961   9.863 -0.0784 -0.0500  0.3086
 9491PP      PP19595   8.446   5.607   9.455 -0.0476 -0.2618  0.0995
 9492PP      PP19596  11.144  12.045   2.290  0.0222 -0.1594 -0.2915
 9493PP      PP19597  12.512  15.572   1.286  0.3766 -0.1652 -0.0338
 9494PP      PP19598   2.956  14.930  12.895 -0.0824  0.0136 -0.2327
 9495PP      PP19599  11.391   6.969   2.382  0.0206  0.0941  0.0157
 9496PP      PP19600   5.079   2.415  10.134 -0.1070 -0.1282  0.1194
 9497PP      PP19601   1.308  14.838   2.040 -0.1012  0.0236  0.1215
 9498PP      PP19602   2.188   4.154  10.785  0.0514 -0.1561 -0.0312
 9499PP      PP19603  15.247   7.264   3.212 -0.2064 -0.0247 -0.1140
 9500PP      PP19604   3.525  12.550   0.445  0.0472  0.0403  0.0614
 9501PP      PP19605   3.168   5.175   1.518  0.0016 -0.1853 -0.0642
 9502PP      PP19606  12.598   5.227  10.118 -0.2357 -0.2385  0.0297
 9503PP      PP19607   0.905  12.413   9.106  0.4153 -0.0004 -0.1290
 9504PP      PP19608   1.890  12.202   9.653 -0.0273 -0.1571 -0.0727
 9505PP      PP19609  13.759  11.561  11.591 -0.3133  0.0179 -0.1751
 9506PP      PP19610  15.606  11.367  10.331  0.0314 -0.0170  0.0153
 9507PP      PP19611   1.824  11.220   3.950  0.3352  0.0998 -0.1884
 9508PP      PP19612   7.557  13.184   9.327  0.0415  0.3731 -0.3082
 9509PP      PP19613  14.461  15.623   9.543  0.1429 -0.3016 -0.0340
 9510PP      PP19614  15.309  13.722   2.323 -0.0791  0.1117 -0.0552
 9511PP      PP19615   2.487  13.578  13.147  0.3183 -0.1953 -0.2847
 9512PP      PP19616   1.831   8.313  12.695 -0.0068  0.0389  0.3096
 9513PP      PP19617   1.358   7.229   4.171  0.0371 -0.0817  0.0812
 9514PP      PP19618  12.413  14.652   2.686 -0.3642 -0.2098 -0.0741
 9515PP      PP19619   1.264   9.472  12.082  0.3203 -0.0027  0.0458
 9516PP      PP19620  11.611  13.616   8.417  0.1381  0.0396  0.1977
 9517PP      PP19621   5.202  10.505  13.439  0.0895  0.1754 -0.0804
 9518PP      PP19622   6.548   6.546  12.552  0.0980  0.2514  0.1687
 9519PP      PP19623   6.413  14.715  12.848 -0.2624 -0.0608 -0.0306
 9520PP      PP19624   7.138   1.129   1.566  0.1075 -0.1577 -0.0163
 9521PP      PP19625   0.105   9.723  10.207  0.1702  0.3441  0.3018
 9522PP      PP19626   6.640  11.434   4.852  0.1635  0.0790  0.0876
 9523PP      PP19627  15.871   5.078  10.972 -0.1383 -0.2162  0.0904
 9524PP      PP19628   6.754   2.318   3.433 -0.2574 -0.1096 -0.3214
 9525PP      PP19629  12.275  11.186   1.305  0.2360 -0.1716 -0.2271
 9526PP      PP19630  14.743  13.458  13.197 -0.1425 -0.1893 -0.0954
 9527PP      PP19631   9.424   5.166   3.524 -0.4620  0.2089  0.0958
 9528PP      PP19632   7.902   8.512   0.161  0.0300 -0.1726 -0.1944
 9529PP      PP19633   7.356   4.382   2.012 -0.0374 -0.1889 -0.1885
 9530PP      PP19634   9.381   1.150   1.368 -0.0047 -0.0935 -0.0516
 9531PP      PP19635   4.922   3.305  13.236 -0.1562  0.5654  0.0933
 9532PP      PP19636   9.086   6.915   1.938  0.2441 -0.0596 -0.0814
 9533PP      PP19637  11.084   0.858  11.196  0.1068 -0.2684  0.3163
 9534PP      PP19638   0.027  14.836  10.368 -0.0341  0.0171 -0.1276
 9535PP      PP19639   9.187  14.731  12.190  0.5892 -0.0854  0.3319
 9536PP      PP19640   4.365   6.500  11.020  0.0634  0.1048  0.2716
 9537PP      PP19641  10.525   1.936  10.958 -0.4164 -0.4890  0.0508
 9538PP      PP19642  11.979   0.768   0.596  0.0683  0.2932 -0.0868
 9539PP      PP19643   8.445   3.965   1.935  0.3300 -0.1389 -0.0740
 9540PP      PP19644  15.650   4.407  10.311  0.2279  0.0591 -0.2564
 9541PP      PP19645   6.105   2.537   1.880  0.0010 -0.1373  0.0777
 9542PP      PP19646   1.972  12.821   1.713  0.0383  0.2152 -0.1536
 9543PP      PP19647   5.054   9.393   0.580  0.0430 -0.2154  0.0567
 9544PP      PP19648   3.115   1.702   1.442  0.1681  0.2995 -0.1017
 9545PP      PP19649  13.135   3.659  10.083  0.0310  0.2440  0.0962
 9546PP      PP19650  14.915  14.834   3.121 -0.1214 -0.2899  0.1156
 9547PP      PP19651  15.595   3.446  10.410  0.2036 -0.0872  0.2053
 9548PP      PP19652   4.675   0.583   2.164  0.1910 -0.0192  0.2481
 9549PP      PP19653   4.150   3.175  12.968 -0.0277  0.2085 -0.1717
 9550PP      PP19654  11.459   5.492   0.964 -0.4243 -0.1348 -0.0496
 9551PP      PP19655   3.270   6.891   4.495  0.2165 -0.1072 -0.0556
 9552PP      PP19656  12.379   5.972   0.638  0.2458 -0.2735 -0.2087
 9553PP      PP19657  15.450  14.731   2.318  0.3518 -0.0450 -0.3009
 9554PP      PP19658   5.485   3.115   1.173 -0.1997 -0.0628  0.1746
 9555PP      PP19659   3.927   1.922   3.500 -0.0945  0.2086  0.0095
 9556PP      PP19660  12.800  10.858   2.056 -0.0035 -0.1033 -0.0830
 9557PP      PP19661   6.587   4.578   1.001  0.0377 -0.0887  0.0114
 9558PP      PP19662   8.480   3.108   1.386  0.0550 -0.2181  0.1585
 9559PP      PP19663   3.141   9.571  10.465 -0.2053  0.2745 -0.1712
 9560PP      PP19664   0.138   9.159  11.796  0.1130  0.0292  0.0378
 9561PP      PP19665   1.316   2.248  10.320  0.1327  0.2371  0.0453
 9562PP      PP19666   8.707   3.346   4.379  0.0635  0.0952  0.2139
 9563PP      PP19667  12.593   4.078   3.285 -0.0900  0.4686 -0.1010
 9564PP      PP19668   5.373   1.986   8.057  0.2107 -0.1080  0.0907
 9565PP      PP19669   8.941   2.349   0.533 -0.0770  0.3064 -0.1190
 9566PP      PP19670   5.249   9.581   4.856  0.0825  0.1852  0.1015
 9567PP      PP19671   3.435   4.735  13.154  0.1601 -0.1859 -0.0863
 9568PP      PP19672   2.772  13.379   2.709  0.0828  0.0397  0.0017
 9569PP      PP19673  12.009   7.825   0.732  0.2065 -0.0749 -0.1590
 9570PP      PP19674  10.967   1.127   9.078 -0.0089  0.0615  0.2747
 9571PP      PP19675   0.729   1.655   0.243 -0.2099  0.3004 -0.2576
 9572PP      PP19676  14.168   7.388   0.633  0.0597  0.0363  0.2669
 9573PP      PP19677   1.501  12.004  13.085 -0.5904 -0.2373 -0.2375
 9574PP      PP19678  15.021  15.429   0.376 -0.1541  0.0943 -0.1105
 9575PP      PP19679   2.397   3.300   3.761 -0.0120 -0.0455 -0.4387
 9576PP      PP19680   0.541   0.143   1.978  0.1693 -0.3359 -0.1937
 9577PP      PP19681   5.355   3.902   2.843 -0.6212  0.0135 -0.2865
 9578PP      PP19682  14.885  14.074  10.460  0.0210 -0.0546  0.0641
 9579PP      PP19683   4.767   3.312   2.838  0.0960  0.0779  0.2062
 9580PP      PP19684   6.844  15.246   1.543  0.0229  0.0157 -0.4874
 9581PP      PP19685  14.156   7.507   9.258 -0.1940 -0.1923 -0.0640
 9582PP      PP19686   2.403   5.944  13.203  0.1685 -0.0238 -0.0089
 9583PP      PP19687   5.727   0.941   9.746  0.2301  0.1002 -0.0232
 9584PP      PP19688   0.526   1.359   4.014 -0.2660 -0.4421 -0.1496
 9585PP      PP19689   5.990   3.919   9.851 -0.3005  0.0587  0.2287
 9586PP      PP19690   0.031  14.487  12.860  0.2692 -0.2733  0.0162
 9587PP      PP19691   9.777  10.678   4.117 -0.0291 -0.2479  0.2053
 9588PP      PP19692  12.184   3.086  12.025 -0.1029 -0.0428  0.1101
 9589PP      PP19693  11.890  10.759   3.232 -0.2450  0.1470 -0.2413
 9590PP      PP19694   1.843  11.636   3.668 -0.2382 -0.0594  0.3715
 9591PP      PP19695  15.010   9.309   3.463 -0.3098 -0.3891 -0.0955
 9592PP      PP19696   7.903  10.514   1.795 -0.0834  0.0179 -0.0232
 9593PP      PP19697   3.439  15.147   8.885 -0.1017 -0.1443  0.0691
 9594PP      PP19698   3.967  14.922   3.357  0.1631 -0.1973 -0.1033
 9595PP      PP19699  12.787   1.672  12.345 -0.3814  0.1338 -0.1799
 9596PP      PP19700  14.683   5.362   4.018  0.0373  0.1929  0.2861
 9597PP      PP19701  13.709   8.016   2.205 -0.2194  0.0786  0.0969
 9598PP      PP19702   4.282  11.848  11.549 -0.1652 -0.1159 -0.1231
 9599PP      PP19703  12.058  14.839   0.299 -0.0215 -0.3547 -0.0454
 9600PP      PP19704   4.952  14.341   9.865  0.0422  0.1073  0.0351
 9601PP      PP19705  10.640   9.122   1.273  0.2491  0.1764  0.2779
 9602PP      PP19706   8.848  14.969  10.584  0.1979 -0.1200 -0.1244
 9603PP      PP19707  11.773  10.514  12.973 -0.0534 -0.1670 -0.1325
 9604PP      PP19708  10.815   7.181   3.735 -0.1581 -0.0505  0.1189
 9605PP      PP19709   8.080   8.179   5.397  0.0627 -0.0154  0.0528
 9606PP      PP19710  10.825  14.706   1.284  0.2966  0.1046 -0.2017
 9607PP      PP19711  12.036   5.129  13.331 -0.1866 -0.4714  0.0554
 9608PP      PP19712  13.418   5.107   3.795  0.0524 -0.0132  0.1160
 9609PP      PP19713   9.924   4.734  12.459  0.0622 -0.2088 -0.2313
 9610PP      PP19714  12.710  13.220  12.238  0.0291  0.0047 -0.0849
 9611PP      PP19715  12.534  12.507   9.009 -0.2521 -0.3030 -0.1709
 9612PP      PP19716   8.751  10.600  11.043  0.3618 -0.1175 -0.3561
 9613PP      PP19717   0.138   7.510  11.071 -0.0066 -0.0209  0.0460
 9614PP      PP19718  12.428   2.438   9.138  0.0734  0.0232 -0.1145
 9615PP      PP19719   7.103   4.321   1.345  0.1113  0.0740 -0.2680
 9616PP      PP19720   4.013   1.978   7.618 -0.2286 -0.0290 -0.5271
 9617PP      PP19721   3.848  11.141   0.765  0.0677  0.0216 -0.2781
 9618PP      PP19722  12.193   7.652   3.949 -0.2071  0.3947  0.0045
 9619PP      PP19723  12.266  14.895   1.141 -0.0661  0.3056 -0.0895
 9620PP      PP19724   2.953  15.871   2.115  0.1797  0.1776  0.1238
 9621PP      PP19725   3.863   9.779   0.394  0.0304  0.0189  0.1057
 9622PP      PP19726   0.464   3.871  10.293 -0.2392  0.0811 -0.2625
 9623PP      PP19727  14.572   4.582   3.269  0.0264 -0.1770  0.1673
 9624PP      PP19728  10.734   2.143   9.620  0.1346 -0.2001  0.0239
 9625PP      PP19729  13.044   9.323   9.583 -0.2257 -0.1687 -0.2603
 9626PP      PP19730   0.073   1.618  11.522  0.1491  0.0176  0.0778
 9627PP      PP19731  15.320  15.106   0.085  0.0588 -0.2351 -0.1380
 9628PP      PP19732   9.080  15.880   0.099  0.1532 -0.0101 -0.0874
 9629PP      PP19733   3.956   9.430   1.280 -0.0421 -0.0277 -0.1659
 9630PP      PP19734   9.098   4.066   4.837 -0.3029  0.1192  0.0474
 9631PP      PP19735   4.956  11.028  10.508 -0.3286 -0.0507  0.0994
 9632PP      PP19736   9.889   6.218  10.855 -0.0973  0.0310  0.1329
 9633PP      PP19737   2.912   5.150   4.622 -0.0616 -0.2183 -0.0419
 9634PP      PP19738   5.844   3.050   2.194 -0.2351 -0.0876 -0.4796
 9635PP      PP19739   8.133  13.321   4.460 -0.0822  0.1230 -0.1432
 9636PP      PP19740   9.470   3.828   0.071  0.0925  0.0147 -0.1766
 9637PP      PP19741   7.611  15.656  13.468  0.0039  0.0468  0.1304
 9638PP      PP19742   5.597   6.105   3.218  0.0776 -0.2882  0.2165
 9639PP      PP19743  10.467  11.833   0.466  0.1764 -0.0608 -0.1504
 9640PP      PP19744   3.355   1.507  11.313 -0.0726  0.2505 -0.1870
 9641PP      PP19745  14.152   5.289   0.800  0.0658 -0.1990  0.0690
 9642PP      PP19746  12.915   3.023   2.616  0.1051 -0.0407 -0.2309
 9643PP      PP19747  10.804   0.381  10.399  0.0832  0.1426 -0.1012
 9644PP      PP19748   7.501   9.703   4.476 -0.1063 -0.0242 -0.0188
 9645PP      PP19749   5.655  14.068  11.442 -0.3460  0.0914  0.0147
 9646PP      PP19750   4.890  12.353   1.467  0.0389 -0.1609  0.1787
 9647PP      PP19751   9.202  10.342   2.404 -0.2223  0.2537 -0.0702
 9648PP      PP19752  12.325  12.520  12.764  0.0602 -0.0850 -0.0952
 9649PP      PP19753  11.246   9.149   4.609 -0.0347 -0.2708 -0.1405
 9650PP      PP19754   0.943  12.620   4.059 -0.1342  0.0324 -0.2194
 9651PP      PP19755  12.004   3.950  12.482  0.0569  0.0761  0.1994
 9652PP      PP19756   7.207   5.772  12.257 -0.3422 -0.0187  0.1024
 9653PP      PP19757   6.575   3.440   9.630 -0.2669  0.2032  0.0627
 9654PP      PP19758   4.930   9.862   2.300  0.2449  0.0496 -0.0634
 9655PP      PP19759   5.152   6.296   2.472 -0.3195  0.1642 -0.1394
 9656PP      PP19760   5.056  10.316   9.651  0.0344  0.1209 -0.0647
 9657PP      PP19761  14.868   8.881   0.842  0.3828 -0.4010 -0.0780
 9658PP      PP19762   9.924   3.325   2.240  0.3568  0.4458 -0.1558
 9659PP      PP19763   1.159   3.659  12.278  0.0381  0.0302 -0.1627
 9660PP      PP19764   4.120   1.488   9.279 -0.3124  0.0393  0.1299
 9661PP      PP19765  14.444  12.401   1.657  0.2797  0.0092 -0.0069
 9662PP      PP19766  15.173   4.068   1.095 -0.0340 -0.1760 -0.0465
 9663PP      PP19767  13.992   7.916   3.534 -0.4713 -0.1455  0.0963
 9664PP      PP19768   4.351  11.159   9.530 -0.0241 -0.0560  0.1957
 9665PP      PP19769   1.754   7.489   3.028  0.2929 -0.1913 -0.0418
 9666PP      PP19770  12.426   6.415   0.868  0.5078 -0.2764 -0.0446
 9667PP      PP19771  13.720  10.869   2.480 -0.0843 -0.2239  0.1749
 9668PP      PP19772   4.637   7.245   1.554  0.1918 -0.1184  0.0499
 9669PP      PP19773   3.999  11.483   1.079  0.1063 -0.0476  0.2164
 9670PP      PP19774   5.607   4.702  11.337 -0.1002  0.2413 -0.2492
 9671PP      PP19775  12.072   2.796   1.424 -0.0366  0.1878 -0.0104
 9672PP      PP19776  13.190  15.483   3.454 -0.0556  0.0337 -0.1507
 9673PP      PP19777   0.005   0.818   8.758  0.0484 -0.0172  0.1396
 9674PP      PP19778  11.912   8.278   4.270  0.2322 -0.5186 -0.3128
 9675PP      PP19779   8.457   4.416  11.707  0.0261  0.0974 -0.1315
 9676PP      PP19780   1.205   6.032   1.114 -0.0648 -0.3199 -0.1920
 9677PP      PP19781   7.888   3.507   3.123  0.0419  0.0057 -0.2413
 9678PP      PP19782   4.614   9.101   4.226  0.0682  0.1169  0.0413
 9679PP      PP19783  11.558   8.384  12.039 -0.2322  0.2706  0.1386
 9680PP      PP19784   1.829  15.823  12.425  0.1743 -0.0013 -0.3503
 9681PP      PP19785   3.489   7.535   0.336 -0.0780  0.0336 -0.0333
 9682PP      PP19786  10.810   6.447   2.097  0.0938 -0.2424  0.1294
 9683PP      PP19787   1.963  11.007   2.327  0.1476 -0.1836 -0.1671
 9684PP      PP19788   2.647  14.121   2.073  0.1696 -0.4941 -0.0837
 9685PP      PP19789  14.094   1.887   1.351 -0.0977  0.0825  0.2936
 9686PP      PP19790   9.891  11.753   1.292  0.0652 -0.2128  0.1465
 9687PP      PP19791   8.766  11.739  11.465 -0.0439 -0.0762 -0.1815
 9688PP      PP19792   0.501  15.570   2.139 -0.0171  0.0682 -0.0288
 9689PP      PP19793  13.188   7.343  10.559 -0.0278  0.0895 -0.2591
 9690PP      PP19794  15.627   8.636   0.075  0.2154  0.1275  0.3365
 9691PP      PP19795  13.858   2.681  11.144 -0.2357  0.1319  0.0049
 9692PP      PP19796  14.274   0.044  10.846  0.1207 -0.0715 -0.0442
 9693PP      PP19797  12.200  14.388  12.747  0.0369 -0.0389  0.2073
 9694PP      PP19798   6.866   7.502   4.915  0.3410 -0.2772  0.3567
 9695PP      PP19799  14.105   9.755  12.035  0.1816 -0.0904  0.2725
 9696PP      PP19800  12.486  12.558   1.626  0.2888 -0.2516  0.0671
 9697PP      PP19801  14.380   1.321   3.369 -0.0981 -0.2875 -0.1509
 9698PP      PP19802  12.714   2.102   9.193 -0.1509  0.1241 -0.1456
 9699PP      PP19803  10.234  13.051  10.262 -0.3080 -0.0370  0.2635
 9700PP      PP19804   5.620   5.440   1.244  0.2034 -0.0247  0.0565
 9701PP      PP19805   7.222   8.817   1.567 -0.2541 -0.5756 -0.0690
 9702PP      PP19806   6.478  10.111  13.162  0.0877  0.0615  0.1162
 9703PP      PP19807  11.475  11.873  11.077 -0.0715 -0.0495 -0.0460
 9704PP      PP19808   2.439   3.317   1.350  0.1668  0.2725 -0.0545
 9705PP      PP19809  10.392   8.057  10.481 -0.0259 -0.1156  0.3885
 9706PP      PP19810   2.520   2.843   8.792  0.1605 -0.3970  0.0533
 9707PP      PP19811  10.415  13.498  12.809  0.0021  0.0750 -0.1003
 9708PP      PP19812   0.886  12.918   9.293 -0.1049 -0.2315  0.1142
 9709PP      PP19813  13.071   2.139  12.346  0.0125  0.0776 -0.1921
 9710PP      PP19814  11.434   5.861   9.365  0.1289  0.1339 -0.0653
 9711PP      PP19815  10.053  10.091  12.780 -0.0008 -0.2734  0.0767
 9712PP      PP19816  13.848  12.343   9.840  0.1438 -0.1881 -0.1266
 9713PP      PP19817   4.488   4.414   9.700  0.0435 -0.0757 -0.0655
 9714PP      PP19818  13.015   8.976   3.555 -0.0981  0.2616  0.0753
 9715PP      PP19819   0.843   4.652   3.513 -0.2947 -0.2265 -0.1712
 9716PP      PP19820   6.104  15.673   0.698  0.3681  0.0960  0.1222
 9717PP      PP19821  13.446   8.557   4.488  0.1812 -0.0467  0.0608
 9718PP      PP19822   0.397   3.993   0.512 -0.1759 -0.0391  0.1269
 9719PP      PP19823  14.347   6.104  11.921 -0.1707  0.0815  0.1509
 9720PP      PP19824  11.746   7.637   9.205 -0.0507 -0.0609 -0.3063
 9721PP      PP19825   0.868   3.458   9.226 -0.1432 -0.2527 -0.2263
 9722PP      PP19826   4.388   8.100   2.879  0.1924 -0.0310 -0.0476
 9723PP      PP19827   9.861   5.246   1.147  0.1414  0.0564  0.0428
 9724PP      PP19828  15.190  13.792   0.870 -0.0017 -0.0630  0.2192
 9725PP      PP19829   2.233   0.789  10.126  0.0087 -0.2828 -0.2164
 9726PP      PP19830   4.127   7.797   9.787 -0.1313 -0.2813 -0.3263
 9727PP      PP19831   3.017   3.666   2.806  0.0912  0.2890  0.3156
 9728PP      PP19832   0.335  11.463   3.626 -0.1612 -0.3222  0.1802
 9729PP      PP19833  13.622   7.906   2.718  0.1488  0.2080  0.0039
 9730PP      PP19834   4.980  11.126   4.138 -0.0570 -0.3425  0.0584
 9731PP      PP19835   1.038   6.315   4.699 -0.0284  0.1345 -0.0079
 9732PP      PP19836   5.824   0.779   1.879 -0.1518 -0.2627 -0.1652
 9733PP      PP19837   3.663  15.866  12.735 -0.0833  0.2622  0.1825
 9734PP      PP19838  15.118   8.714  12.613  0.0628  0.1401 -0.0182
 9735PP      PP19839   9.219  11.454  12.263  0.0301 -0.0922  0.0101
 9736PP      PP19840   3.310   5.240   4.287 -0.0130  0.0233  0.0055
 9737PP      PP19841  14.996  11.146   0.319 -0.2453 -0.0061  0.1017
 9738PP      PP19842  12.811   5.610  12.484 -0.0196  0.0581 -0.3562
 9739PP      PP19843  11.459   4.759   9.626 -0.1153 -0.1085  0.0225
 9740PP      PP19844  10.453   2.334   9.230  0.1507  0.3241  0.0016
 9741PP      PP19845  15.670   1.842  11.066 -0.0087  0.0856  0.1216
 9742PP      PP19846  11.799  15.517  11.249  0.0373 -0.1896  0.2787
 9743PP      PP19847   6.779  14.075   1.419  0.0957 -0.1162 -0.1337
 9744PP      PP19848   0.319   2.011   8.619  0.3862  0.1097 -0.1279
 9745PP      PP19849   1.069  15.617   3.903 -0.1710 -0.2585  0.1438
 9746PP      PP19850  12.520   6.001   9.787 -0.0050  0.0126 -0.2277
 9747PP      PP19851   5.589   2.591  11.883 -0.1953  0.1471 -0.1429
 9748PP      PP19852   3.981  11.987   0.877 -0.0018 -0.3299 -0.0343
 9749PP      PP19853   6.419   1.204   8.391 -0.2363 -0.1565 -0.1119
 9750PP      PP19854   9.079  13.317   1.988 -0.2499  0.0357 -0.0271
 9751PP      PP19855  10.463   8.837   0.884  0.3170 -0.2528 -0.1391
 9752PP      PP19856   5.162  10.820   0.889 -0.0539  0.0373 -0.2331
 9753PP      PP19857  10.469  14.591  12.527  0.0750  0.2541 -0.0829
 9754PP      PP19858  11.379  10.884  10.668 -0.1009  0.0572  0.2962
 9755PP      PP19859   9.229   9.084   0.153  0.0277 -0.2807  0.1826
 9756PP      PP19860  11.810  14.940   2.448  0.1945  0.2973  0.1150
 9757PP      PP19861  14.081   2.269   3.437  0.0169 -0.0609 -0.3096
 9758PP      PP19862  10.930   7.942  11.293 -0.0191  0.0863  0.0435
 9759PP      PP19863  12.827  12.237  12.365 -0.1868 -0.0857  0.1442
 9760PP      PP19864   9.028   4.310  10.534 -0.1193  0.2662  0.0102
 9761PP      PP19865   3.905  15.213   9.759 -0.1317  0.0686  0.1590
 9762PP      PP19866   0.355   5.662   0.312 -0.3452 -0.4582 -0.1251
 9763PP      PP19867  14.165   0.258  12.743  0.1629  0.0294  0.1374
 9764PP      PP19868   6.765   4.655   3.317  0.3401  0.0857 -0.1327
 9765PP      PP19869  15.838   3.959  10.433 -0.0243  0.1289 -0.0539
 9766PP      PP19870   6.415   2.318  12.893 -0.1339  0.1630  0.0523
 9767PP      PP19871   7.082   2.179   1.143 -0.1626  0.0441  0.1026
 9768PP      PP19872   8.361   7.685   9.910 -0.0117  0.0139 -0.0044
 9769PP      PP19873   0.895   9.094  13.361 -0.1957 -0.0615  0.1217
 9770PP      PP19874   1.589   4.575   1.401 -0.3801  0.0124  0.2873
 9771PP      PP19875   9.228  10.925  12.214 -0.2907 -0.2159  0.0738
 9772PP      PP19876  13.328   3.507  10.661  0.3309  0.1230  0.0145
 9773PP      PP19877   7.106   4.004   2.148  0.2687 -0.0495 -0.0560
 9774PP      PP19878   1.515  15.509   4.103  0.2888 -0.3733 -0.0866
 9775PP      PP19879  10.065   5.631  12.085  0.0042  0.4739  0.1704
 9776PP      PP19880   4.020   5.890   1.802  0.2012 -0.0353  0.0593
 9777PP      PP19881   9.479  15.234   3.832  0.3827  0.1821 -0.0055
 9778PP      PP19882   3.438   2.002  10.705 -0.2329 -0.2030  0.2786
 9779PP      PP19883  11.183  10.250   4.548  0.2042  0.1181 -0.0105
 9780PP      PP19884   3.615   0.847  10.456 -0.0322  0.1421  0.0218
 9781PP      PP19885   2.427   9.528   3.625  0.1438  0.2329 -0.2677
 9782PP      PP19886  13.657   7.237   2.421  0.0045  0.2869  0.1716
 9783PP      PP19887  15.365   2.388   1.773 -0.2601  0.0956  0.1269
 9784PP      PP19888   7.977  14.350  10.769  0.0170  0.1221  0.0892
 9785PP      PP19889  13.830   5.056   1.131 -0.2270  0.1400  0.1086
 9786PP      PP19890   2.392   6.464  10.731  0.0269 -0.0903  0.0745
 9787PP      PP19891  12.340   5.568   8.632 -0.0417  0.2393 -0.2595
 9788PP      PP19892  15.014   5.422  12.324  0.1008  0.2188  0.0244
 9789PP      PP19893   0.884  11.196   1.117 -0.0622  0.1400  0.1213
 9790PP      PP19894  12.161  10.195   2.277 -0.1016  0.1106  0.0836
 9791PP      PP19895   2.444   1.369   0.061 -0.2448 -0.2193  0.3060
 9792PP      PP19896   9.059  10.848   8.935 -0.0469  0.0133 -0.0651
 9793PP      PP19897   9.243  12.430   2.200 -0.0389  0.1671  0.2892
 9794PP      PP19898  14.087   6.199   9.729  0.1301  0.1633 -0.1147
 9795PP      PP19899   7.295   7.923   4.940 -0.1355  0.3003  0.0699
 9796PP      PP19900   7.964   0.941   0.755  0.0035  0.1057  0.4051
 9797PP      PP19901  14.758  10.759   1.308  0.0850  0.5985 -0.0807
 9798PP      PP19902   4.979   4.514   1.567 -0.0336  0.1377  0.0414
 9799PP      PP19903   1.532   9.547   3.020 -0.2847 -0.0994 -0.3271
 9800PP      PP19904  13.176   7.168  11.044  0.2325 -0.0511  0.2501
 9801PP      PP19905  13.647  14.157   2.309 -0.2592 -0.1373 -0.0130
 9802PP      PP19906  10.369  15.704   2.373  0.1898 -0.0930 -0.3609
 9803PP      PP19907  11.089   0.438   1.988 -0.3926 -0.0495 -0.6166
 9804PP      PP19908  12.353   7.218  12.853 -0.1058  0.1866  0.2553
 9805PP      PP19909   2.000   0.281  10.236  0.0837 -0.0365 -0.1481
 9806PP      PP19910   9.403  13.969  10.114  0.2830  0.2529 -0.5640
 9807PP      PP19911   4.263   5.289  11.074 -0.1747  0.1473 -0.0737
 9808PP      PP19912   2.508  15.672  10.599  0.1959 -0.0041 -0.2712
 9809PP      PP19913  12.206   0.806  10.138 -0.1818  0.0199  0.0408
 9810PP      PP19914   8.415  11.886   0.340  0.0244 -0.6218 -0.0256
 9811PP      PP19915   9.954   7.443   3.883  0.2043 -0.1717 -0.0730
 9812PP      PP19916  14.271   2.996   0.369  0.0282 -0.3527  0.2571
 9813PP      PP19917   6.850  15.396  12.369  0.0482 -0.0698 -0.1451
 9814PP      PP19918  10.915   2.938   0.737 -0.1834 -0.4552 -0.0988
 9815PP      PP19919   0.420   4.107  12.041 -0.0173 -0.0946 -0.0624
 9816PP      PP19920   3.960  15.040  12.730  0.0178  0.3841  0.0803
 9817PP      PP19921  11.226   4.610   1.800  0.1304 -0.3348  0.0937
 9818PP      PP19922  15.153   5.908  10.680 -0.0788  0.2807 -0.1462
 9819PP      PP19923  13.198  12.473   1.209 -0.0471 -0.1382 -0.1347
 9820PP      PP19924  15.533   3.029   2.990  0.0308 -0.0460 -0.0541
 9821PP      PP19925  11.976   7.019  11.929  0.0977 -0.0072  0.0146
 9822PP      PP19926   1.090   8.039  11.513  0.0559 -0.4732 -0.1118
 9823PP      PP19927  10.235   8.216   3.622  0.1063  0.1461 -0.1656
 9824PP      PP19928  11.645   6.490   0.473 -0.0725  0.1459  0.2200
 9825PP      PP19929   3.111  14.280   9.065  0.0577  0.1376 -0.1227
 9826PP      PP19930   6.527   8.031  10.090  0.2667 -0.2097  0.0688
 9827PP      PP19931  10.255  11.858   0.966  0.0420 -0.2513  0.0932
 9828PP      PP19932   6.862   2.307  11.148  0.1691 -0.1422 -0.1119
 9829PP      PP19933   7.347   9.962   9.477 -0.0288  0.1782 -0.1596
 9830PP      PP19934   0.170   8.793   2.408 -0.1268 -0.0194 -0.2609
 9831PP      PP19935   4.695   9.648  10.974  0.1339  0.0902  0.0187
 9832PP      PP19936  13.606  15.701   7.703 -0.0358 -0.0563  0.1677
 9833PP      PP19937   8.940  13.092  10.013 -0.1423  0.1637 -0.0540
 9834PP      PP19938   1.618   6.561   3.580 -0.3531 -0.0020 -0.1341
 9835PP      PP19939  15.385   8.596  11.043  0.1158  0.1551 -0.0349
 9836PP      PP19940  11.247   5.919   8.853 -0.0261 -0.1232 -0.1294
 9837PP      PP19941   7.197  14.348  10.530 -0.0783 -0.3231  0.1503
 9838PP      PP19942   3.231   8.448   3.026  0.1537 -0.1372  0.0417
 9839PP      PP19943   6.633   3.860   0.465 -0.1041 -0.2536  0.0956
 9840PP      PP19944   8.726   5.451   2.115 -0.0378 -0.2904 -0.0020
 9841PP      PP19945  13.008   2.689   2.966 -0.1357  0.3012 -0.0681
 9842PP      PP19946  11.552   4.843   3.957 -0.0043 -0.2719  0.2646
 9843PP      PP19947   4.903  13.053   1.802  0.0421 -0.2192 -0.0013
 9844PP      PP19948  10.325   5.193   4.437 -0.0639  0.2454 -0.0730
 9845PP      PP19949   3.320  11.187   8.958 -0.2768  0.0411  0.4648
 9846PP      PP19950  15.878   2.321   1.682 -0.2826 -0.0454 -0.1517
 9847PP      PP19951   0.550   3.918  13.145  0.1104  0.0202  0.2205
 9848PP      PP19952   8.288  10.121   9.915 -0.0073  0.0397  0.3500
 9849PP      PP19953   7.582   2.519   2.790  0.1660 -0.0512  0.0080
 9850PP      PP19954  13.910   4.254   9.482  0.0252  0.0132  0.0515
 9851PP      PP19955   1.933  11.374  12.095 -0.0995 -0.0036  0.3148
 9852PP      PP19956  13.940  13.255   9.588 -0.4280  0.2639 -0.0749
 9853PP      PP19957  10.808  14.981  10.255  0.0343  0.0853  0.0206
 9854PP      PP19958   8.478   0.389   9.884  0.3575  0.3296 -0.1552
 9855PP      PP19959   9.772   0.203   2.957 -0.0384 -0.0850 -0.0134
 9856PP      PP19960  10.865   6.804   2.522 -0.1041 -0.1631  0.1980
 9857PP      PP19961   9.391   1.053   1.886 -0.1909  0.2932 -0.0323
 9858PP      PP19962  13.954  13.717   1.223  0.3537  0.1047 -0.2078
 9859PP      PP19963   7.631   9.566   5.046  0.0567 -0.0572  0.0280
 9860PP      PP19964  10.218   4.701  12.850  0.0280  0.2169 -0.0159
 9861PP      PP19965   0.940  11.624   4.312 -0.2113  0.0308  0.1020
 9862PP      PP19966   8.829  13.956  13.274 -0.0273  0.3253  0.1137
 9863PP      PP19967   6.721  14.189  10.498 -0.0103 -0.1411 -0.1526
 9864PP      PP19968  14.804  10.684   0.582 -0.2616 -0.3196 -0.0097
 9865PP      PP19969   3.330   7.935  11.892 -0.3320 -0.3997 -0.0695
 9866PP      PP19970   1.256   4.728  12.241 -0.4064  0.2902 -0.1077
 9867PP      PP19971  10.288  12.175   2.890  0.3304 -0.0575  0.0669
 9868PP      PP19972  14.534   3.320  11.626  0.3788  0.0173  0.2051
 9869PP      PP19973   7.521   4.627  11.331  0.2441 -0.3790 -0.0852
 9870PP      PP19974  12.039  12.718  11.552 -0.1421  0.1177  0.0016
 9871PP      PP19975   2.870  12.358   1.342  0.1671  0.0806  0.1158
 9872PP      PP19976   0.470  12.288  11.224  0.1736  0.2589  0.2796
 9873PP      PP19977   2.039   3.712  12.840 -0.2202 -0.2893  0.1794
 9874PP      PP19978  11.688   9.028  11.078  0.2774  0.1820  0.1116
 9875PP      PP19979  12.496   2.423   9.739 -0.1349  0.0989  0.0006
 9876PP      PP19980  14.230   5.035   3.794 -0.2387  0.1019 -0.1592
 9877PP      PP19981   7.492  11.609   9.738 -0.3899 -0.2153  0.0027
 9878PP      PP19982   7.437   3.626  12.969 -0.2504 -0.0441 -0.0320
 9879PP      PP19983  15.637  14.426   2.706  0.0602  0.3087  0.0375
 9880PP      PP19984  11.283  14.358   7.916  0.0124  0.0183  0.2739
 9881PP      PP19985  12.129  12.267   1.849 -0.0774  0.2896  0.0511
 9882PP      PP19986   2.404   4.905   8.988 -0.0489  0.1115 -0.2047
 9883PP      PP19987  10.069   9.495   4.859  0.0588 -0.1165  0.0227
 9884PP      PP19988   0.352   2.224  11.730 -0.1759 -0.0999 -0.0605
 9885PP      PP19989  10.177  13.998   9.445  0.0526 -0.0905 -0.0058
 9886PP      PP19990   8.049   4.158   0.909  0.3421  0.1147 -0.3191
 9887PP      PP19991   4.974  11.206  12.564 -0.3091  0.0492 -0.1827
 9888PP      PP19992  12.510   8.332  10.593  0.0915  0.0127  0.1789
 9889PP      PP19993  12.301  13.623  13.212  0.0884 -0.1847  0.1901
 9890PP      PP19994   6.384   9.346   9.769  0.1403 -0.3244  0.2778
 9891PP      PP19995  10.022   6.578   2.740 -0.0878  0.1528  0.1764
 9892PP      PP19996   2.147   9.280  12.576 -0.0031 -0.2048  0.0446
 9893PP      PP19997   7.969  14.325   9.161  0.1606 -0.1102 -0.0814
 9894PP      PP19998  10.334   8.265   4.154 -0.0067 -0.2380  0.0700
 9895PP      PP19999   8.340  12.058   4.766  0.1614 -0.0149  0.1615
 9896PP      PP20000  11.511  15.445  12.140 -0.3472  0.0015 -0.0341
 9897PP      PP20001   7.685   7.302  12.009 -0.0550  0.1935  0.0189
 9898PP      PP20002   7.389   5.018   9.993  0.1221 -0.1543 -0.2440
 9899PP      PP20003  14.986   1.877  13.191  0.0786  0.1041 -0.0187
 9900PP      PP20004  13.949   7.149   4.179 -0.0100 -0.0122 -0.0977
 9901PP      PP20005  12.239   0.819  12.000 -0.1352 -0.0405  0.0460
 9902PP      PP20006   6.610  15.288   3.988  0.0156  0.1543  0.1041
 9903PP      PP20007   7.884  12.542   0.128 -0.2844  0.0525  0.2503
 9904PP      PP20008   5.744   6.527  12.057 -0.0305  0.1057  0.1584
 9905PP      PP20009  11.495   5.468  10.246 -0.0725 -0.1497  0.2075
 9906PP      PP20010   0.205   6.615   9.527  0.1418  0.0188 -0.2342
 9907PP      PP20011   0.713   4.847   0.498 -0.0880  0.0397 -0.1598
 9908PP      PP20012  10.787  14.639  11.612 -0.3832 -0.1828 -0.0629
 9909PP      PP20013  12.093   1.233   0.790  0.1202  0.0423  0.2074
 9910PP      PP20014  12.274  15.001  12.414 -0.1613 -0.1502  0.1054
 9911PP      PP20015   0.248   9.355   2.394 -0.1365  0.1137  0.0057
 9912PP      PP20016   2.201   6.946  10.488  0.1160  0.0318 -0.0921
 9913PP      PP20017   3.840   3.596   2.584  0.1811 -0.1588  0.1859
 9914PP      PP20018   9.882   4.139   0.660 -0.1143  0.4686 -0.0607
 9915PP      PP20019   9.911   5.398   3.474 -0.3593  0.0518 -0.1844
 9916PP      PP20020   8.761   0.277   3.121 -0.0796  0.2618  0.0701
 9917PP      PP20021  13.072   5.650  13.025 -0.3797 -0.0997  0.2747
 9918PP      PP20022   4.444  12.589   3.760 -0.1106  0.2488 -0.0366
 9919PP      PP20023  12.514   2.773  12.258 -0.0077  0.2102  0.2436
 9920PP      PP20024  13.194   2.989  10.478 -0.1122 -0.0150 -0.2600
 9921PP      PP20025   0.870   7.406   2.982 -0.0174  0.0228  0.2543
 9922PP      PP20026  12.168  12.869   9.748  0.1655  0.0063 -0.1966
 9923PP      PP20027  12.432   1.866   2.417  0.3109  0.1067  0.0182
 9924PP      PP20028   9.157  13.264  11.757  0.2916 -0.0681 -0.0251
 9925PP      PP20029   6.930   4.603   2.855  0.1300  0.2657  0.0626
 9926PP      PP20030   9.933  15.705   2.693 -0.1926  0.3878  0.1453
 9927PP      PP20031   0.495  14.272   8.347  0.3968  0.2532  0.0785
 9928PP      PP20032   7.429  10.967  10.487  0.1723 -0.1685  0.0184
 9929PP      PP20033   8.438  11.328   9.748  0.0300  0.0020  0.0399
 9930PP      PP20034   4.092   6.640   0.340 -0.2231  0.0470  0.1054
 9931PP      PP20035  15.375  13.267  11.710 -0.1478 -0.0693 -0.1669
 9932PP      PP20036  14.178   9.034   3.503  0.3486 -0.3015 -0.0901
 9933PP      PP20037   9.948  12.273   3.411  0.1951  0.1055  0.3359
 9934PP      PP20038   8.754  12.406   0.502  0.0355 -0.1153 -0.1997
 9935PP      PP20039   5.254   2.686  12.288 -0.2709  0.0608  0.1576
 9936PP      PP20040   8.217   6.032  12.583 -0.3437 -0.0646 -0.2250
 9937PP      PP20041   8.480   5.716   0.468 -0.1157 -0.1241 -0.1853
 9938PP      PP20042  12.684   1.650   3.305  0.3515 -0.0898 -0.1756
 9939PP      PP20043   2.348   4.622   0.091  0.1169  0.0687  0.0297
 9940PP      PP20044   9.568   2.360   3.655  0.2106  0.3535 -0.0234
 9941PP      PP20045   8.677   3.077  12.320  0.0445 -0.1735 -0.2415
 9942PP      PP20046  12.491  10.878  11.567 -0.0772  0.0442  0.0396
 9943PP      PP20047   8.129   5.581   0.066  0.1261  0.1479  0.1893
 9944PP      PP20048   9.349   8.342  10.765 -0.1706  0.0759 -0.1514
 9945PP      PP20049  15.423  11.732  12.393  0.4766  0.0996  0.2706
 9946PP      PP20050   4.743  10.278   2.702  0.2239  0.0486 -0.2647
 9947PP      PP20051   6.738  12.384   1.065  0.0215  0.0063  0.0165
 9948PP      PP20052  15.205   0.280  12.483 -0.0406  0.0552  0.0200
 9949PP      PP20053   4.815   8.274  12.339 -0.3490  0.2207  0.2617
 9950PP      PP20054   5.686  13.229  10.946  0.0726 -0.0819  0.2580
 9951PP      PP20055   9.844   2.033   9.337  0.1997 -0.0620 -0.0628
 9952PP      PP20056   5.539   0.731  11.472 -0.3902 -0.3039 -0.0253
 9953PP      PP20057  15.791   5.484   0.709 -0.1761  0.2567 -0.2578
 9954PP      PP20058  10.644   7.345   4.565  0.2698 -0.2485 -0.1095
 9955PP      PP20059  14.836  15.200  11.243 -0.1026 -0.2135 -0.3165
 9956PP      PP20060   9.247   9.644  10.924  0.0626 -0.0811  0.1797
 9957PP      PP20061   8.633   1.651  13.157  0.1118  0.2386  0.3126
 9958PP      PP20062  12.272  14.929  10.590 -0.0027 -0.2105  0.0742
 9959PP      PP20063   5.053   0.304   1.764 -0.0745  0.0384 -0.3490
 9960PP      PP20064  12.510  11.010  12.509 -0.0788  0.0471 -0.2527
 9961PP      PP20065  12.466  13.948  10.998  0.1998 -0.0742  0.0932
 9962PP      PP20066   9.253  15.382  10.596 -0.2370  0.0820  0.3854
 9963PP      PP20067   1.154   9.325   9.531  0.2548 -0.0768 -0.2487
 9964PP      PP20068  12.318   6.970   8.493 -0.2558 -0.2699  0.3242
 9965PP      PP20069   4.833   1.107  10.935 -0.1855 -0.0916 -0.0099
 9966PP      PP20070   7.656   1.359   0.765 -0.1788 -0.0553 -0.1697
 9967PP      PP20071  10.094   7.833   4.573 -0.1036  0.2157 -0.1690
 9968PP      PP20072   7.863   7.010  11.629 -0.0286  0.2034  0.2362
 9969PP      PP20073  12.806  15.585   0.242  0.1958 -0.3339 -0.0693
 9970PP      PP20074   4.961  13.852   1.478 -0.0530 -0.0160  0.3330
 9971PP      PP20075   2.553   5.762  11.904 -0.1348 -0.2028 -0.0559
 9972PP      PP20076   0.895  10.925  12.960 -0.1018  0.1328  0.2453
 9973PP      PP20077   6.486  13.841   2.478  0.1557  0.0535 -0.2302
 9974PP      PP20078  15.654  13.772   1.959 -0.0231  0.1433 -0.1825
 9975PP      PP20079  12.010   0.418   1.594 -0.0157 -0.0080  0.0342
 9976PP      PP20080   4.898  10.887   0.189  0.1819 -0.0711 -0.2573
 9977PP      PP20081   9.875   4.820   2.831 -0.0558  0.2604 -0.0195
 9978PP      PP20082   7.340  10.545   1.098 -0.3231 -0.1148  0.1685
 9979PP      PP20083  13.611   2.674  13.093 -0.0208 -0.0929 -0.4106
 9980PP      PP20084   5.302   7.994  11.117 -0.1518  0.1020 -0.3728
 9981PP      PP20085   1.196   5.820   0.570 -0.2901  0.0052  0.0629
 9982PP      PP20086   0.504   1.192   1.193 -0.0477 -0.1912  0.1062
 9983PP      PP20087   0.542  14.555   9.403 -0.1099  0.1658  0.0904
 9984PP      PP20088   5.892  13.847  11.825 -0.1040  0.1330  0.2621
 9985PP      PP20089  15.404   9.892  11.601  0.0490 -0.1046  0.0473
 9986PP      PP20090   2.816   1.533  10.167 -0.2186 -0.0197 -0.4955
 9987PP      PP20091   6.279  15.601   9.704  0.0858 -0.0059 -0.1901
 9988PP      PP20092   9.319   0.654   1.091 -0.1461 -0.1337 -0.3013
 9989PP      PP20093   9.478   3.599   3.605  0.0605  0.0388 -0.0573
 9990PP      PP20094   9.263  14.897   3.451 -0.1800 -0.1379 -0.1512
 9991PP      PP20095   0.913   0.064   8.707  0.0642  0.2147  0.1556
 9992PP      PP20096   2.720  10.785   0.681 -0.0588  0.1148 -0.1234
 9993PP      PP20097   7.613   7.894   2.707 -0.1380 -0.0137 -0.0739
 9994PP      PP20098   3.360   6.273  10.936 -0.5177 -0.1772 -0.1825
 9995PP      PP20099  15.154   9.331   9.725 -0.1774  0.2346 -0.0056
 9996PP      PP20100  10.062   5.535   2.911 -0.1621  0.2764  0.1725
 9997PP      PP20101  15.559  10.706   8.855  0.2943  0.2329  0.0083
 9998PP      PP20102   1.691  15.488  10.749  0.4738 -0.1951 -0.0331
 9999PP      PP20103   5.244   3.732  13.159 -0.1208  0.0271 -0.0011
10000PP      PP20104   6.239  15.361  12.224  0.0401 -0.0334 -0.1945
10001PP      PP20105   6.497  12.122   2.972  0.3644 -0.1023  0.0281
10002PP      PP20106  15.800   9.020   0.276 -0.1697  0.0430 -0.0063
10003PP      PP20107   4.208  12.991   2.206  0.0639 -0.2909  0.0497
10004PP      PP20108  12.508   9.213   9.253 -0.0333  0.0046 -0.0836
10005PP      PP20109  14.462  11.214  12.497  0.0617  0.1403  0.1274
10006PP      PP20110   1.469   9.407   3.996  0.0984 -0.1286 -0.0905
10007PP      PP20111   6.825  13.322   4.551 -0.1188 -0.1450 -0.1065
10008PP      PP20112   2.570   9.951  12.358 -0.1592  0.2842 -0.2536
10009PP      PP20113   6.535  14.137   0.089 -0.4070 -0.1308 -0.2591
10010PP      PP20114  14.013   5.518   3.224  0.1561  0.1920  0.0809
10011PP      PP20115  11.497   0.768   8.698 -0.0159  0.2752 -0.4586
10012PP      PP20116   5.782   8.564   9.765 -0.0402 -0.1181  0.0362
10013PP      PP20117   6.158  12.645   5.372 -0.1265 -0.0336 -0.0135
10014PP      PP20118   7.677  11.558   1.808 -0.0872  0.0742 -0.5109
10015PP      PP20119   3.809   3.859  10.286  0.0400 -0.0002  0.0125
10016PP      PP20120   4.278  10.383   0.428 -0.2867 -0.0574 -0.0490
10017PP      PP20121  12.108   4.551  10.213 -0.2216 -0.0650  0.0632
10018PP      PP20122   3.562   7.096   4.881 -0.0976  0.0540 -0.0367
10019PP      PP20123   9.473   1.089  10.283  0.0362  0.1455  0.3663
10020PP      PP20124   0.279   2.896   3.678 -0.0498  0.3234 -0.3440
10021PP      PP20125   5.353   6.408   3.565  0.1204 -0.3543  0.0569
10022PP      PP20126   3.648   5.413  10.021 -0.0813 -0.2789  0.1176
10023PP      PP20127  14.715  14.937   8.561 -0.0068 -0.0345  0.0869
10024PP      PP20128   0.061   7.954   3.570  0.0359  0.0433  0.0478
10025PP      PP20129   7.133   2.509   0.364  0.0034 -0.1777  0.4988
10026PP      PP20130   8.575   0.653  10.739 -0.1256 -0.2148 -0.1200
10027PP      PP20131   2.588  13.123   3.072 -0.1385  0.2606  0.0376
10028PP      PP20132   8.660   9.463   1.452  0.1876 -0.0023 -0.1094
10029PP      PP20133   5.276   7.467   2.346 -0.0813 -0.0308 -0.2141
10030PP      PP20134   4.684   8.272   4.829 -0.2533 -0.2080  0.3095
10031PP      PP20135   9.548  13.878  13.455 -0.2012 -0.0454 -0.0070
10032PP      PP20136   2.545  15.801   1.794  0.0913  0.2867 -0.1059
10033PP      PP20137   1.218  12.497  13.023  0.0305 -0.2022 -0.0468
10034PP      PP20138   0.822   9.598  10.428 -0.1739  0.1861  0.0791
10035PP      PP20139  15.052   3.276  11.211 -0.0634  0.0746  0.0286
10036PP      PP20140   5.185   4.905  11.268 -0.2360  0.0297  0.0201
10037PP      PP20141   2.228  11.819   1.930  0.2423 -0.1017  0.1278
10038PP      PP20142  10.301   1.727   0.860 -0.1343  0.1369  0.0095
10039PP      PP20143   0.749   4.901  13.281  0.0235 -0.0592  0.0961
10040PP      PP20144   5.386   4.417   2.891  0.0059 -0.0332  0.2267
10041PP      PP20145   7.423   7.366  10.052  0.0117 -0.1513  0.0713
10042PP      PP20146  15.366   4.094   2.928  0.1734  0.3122  0.0629
10043PP      PP20147   9.150  11.344   2.684 -0.6372  0.0280 -0.1242
10044PP      PP20148   3.595   8.592   4.373  0.0291  0.1437 -0.0177
10045PP      PP20149   6.965   2.428   8.951 -0.0941 -0.1481  0.1055
10046PP      PP20150  15.279   7.545   2.743  0.1908 -0.0617  0.0030
10047PP      PP20151  13.469  10.883   0.124 -0.2320  0.0443 -0.0308
10048PP      PP20152   0.488  13.139  13.096 -0.3231 -0.0745 -0.0850
10049PP      PP20153   8.147   9.300   2.612  0.0366  0.0034 -0.2406
10050PP      PP20154   5.624  13.373   0.851  0.1641 -0.0930 -0.1279
10051PP      PP20155  13.333  10.724   3.353 -0.0346 -0.1982  0.1401
10052PP      PP20156  11.293   3.300  11.511  0.0515 -0.0795  0.1955
10053PP      PP20157   2.501   2.985  11.330 -0.0507  0.0759  0.2578
10054PP      PP20158  10.875   2.643   1.106 -0.1925 -0.0473  0.1373
10055PP      PP20159   0.184   1.938   2.338 -0.2200 -0.0979  0.1810
10056PP      PP20160   3.377  14.757   1.885  0.2842 -0.4325  0.0477
10057PP      PP20161   0.894   5.069   4.803  0.0596  0.0231 -0.4352
10058PP      PP20162   5.542   2.870   1.617 -0.2629  0.0496  0.1952
10059PP      PP20163   8.341   4.395   1.754  0.1422 -0.1185  0.0346
10060PP      PP20164  10.354   3.222   8.955  0.1279  0.0355  0.1877
10061PP      PP20165  11.194   0.753  10.308 -0.1893  0.0826 -0.0517
10062PP      PP20166   9.738   0.950   0.380 -0.0175  0.2151  0.0941
10063PP      PP20167  15.066   0.862   8.605 -0.2189  0.1672  0.1939
10064PP      PP20168   8.547   7.732   0.301 -0.0443 -0.0351  0.2153
10065PP      PP20169   7.297   9.833  12.411 -0.3723 -0.1025  0.0247
10066PP      PP20170  11.376   4.592   2.772 -0.0070 -0.0186 -0.1768
10067PP      PP20171   2.812  15.427  11.936  0.1527  0.0778 -0.0074
10068PP      PP20172  15.184   8.982   4.067  0.2752 -0.0558 -0.1234
10069PP      PP20173   0.798   5.710   3.382  0.0271  0.1104 -0.0767
10070PP      PP20174  13.631   7.520  11.380 -0.0258  0.1198 -0.1625
10071PP      PP20175   5.657  12.795   4.118  0.0849  0.0870  0.3992
10072PP      PP20176   6.466   7.203   4.711  0.0875 -0.1534 -0.2540
10073PP      PP20177   0.339  14.122  10.112 -0.0230 -0.0400 -0.2569
10074PP      PP20178  10.016   3.496  12.728 -0.1871  0.0270 -0.3765
10075PP      PP20179   3.279   2.754  12.810 -0.4316  0.0440 -0.1700
10076PP      PP20180   5.119   1.646   8.426  0.0183  0.2538  0.0955
10077PP      PP20181   2.649  12.342   4.418 -0.0868  0.1541  0.0205
10078PP      PP20182  11.277   1.568  12.770  0.3482 -0.1487 -0.0854
10079PP      PP20183  15.202   3.707   0.121  0.1055  0.1365 -0.1817
10080PP      PP20184  11.292  13.375  12.840 -0.1095 -0.2185  0.0913
10081PP      PP20185   6.327  15.140   0.542  0.0576 -0.1650 -0.4157
10082PP      PP20186   6.245   9.628   4.019 -0.0125 -0.0244  0.0804
10083PP      PP20187  15.575  15.512  12.766 -0.0965  0.0489  0.2344
10084PP      PP20188   8.802  12.304  12.047  0.0820  0.1010 -0.2145
10085PP      PP20189   0.732   2.923  12.368  0.0217 -0.0103  0.2535
10086PP      PP20190  11.204   6.250   0.005 -0.2494 -0.1405 -0.0089
10087PP      PP20191   2.269  13.756   0.085 -0.1607  0.0123  0.0672
10088PP      PP20192   6.571   0.124   4.707  0.1462 -0.0966 -0.1843
10089PP      PP20193   5.530   9.100  10.479 -0.3228  0.1780 -0.1377
10090PP      PP20194  14.660   1.443   9.466  0.2648  0.1812 -0.0115
10091PP      PP20195   6.547   5.721  13.361 -0.0253 -0.1885  0.1879
10092PP      PP20196   7.455   0.276   2.410 -0.3270 -0.1256 -0.0629
10093PP      PP20197   8.781   3.884   4.321 -0.4084  0.0488  0.1251
10094PP      PP20198   3.222  11.715   3.933 -0.0831 -0.1199  0.0082
10095PP      PP20199   9.857   1.850   1.109 -0.1821  0.1824  0.0691
10096PP      PP20200   5.805   1.860   9.969  0.0172 -0.1448 -0.0737
10097PP      PP20201   3.244   6.398  11.634 -0.2398 -0.0434 -0.0002
10098PP      PP20202   3.278  11.781  13.343 -0.0064  0.2562  0.1093
10099PP      PP20203   5.631   4.500   3.837  0.0195 -0.0156  0.2163
10100PP      PP20204  11.258   0.846  11.773 -0.2049  0.1783 -0.3986
10101PP      PP20205   4.380   3.590  13.150  0.2411 -0.0321 -0.0501
10102PP      PP20206   7.181   4.203  12.358  0.0981 -0.0958 -0.0192
10103PP      PP20207   5.683  13.674   1.772  0.1199 -0.2574  0.3423
10104PP      PP20208  13.690   7.194  11.904 -0.1114  0.2866  0.2954
10105PP      PP20209   6.140  14.931  11.993 -0.1528  0.0535  0.0579
10106PP      PP20210   9.387   8.736   0.509  0.2379 -0.1566  0.2593
10107PP      PP20211   9.983   2.228  11.398  0.1910 -0.2771  0.0713
10108PP      PP20212   4.315  15.312   2.442 -0.1001 -0.0235 -0.0179
10109PP      PP20213   4.431   3.560   1.377  0.2192  0.3515 -0.1630
10110PP      PP20214   6.985  15.125  13.134 -0.3311 -0.2857  0.2244
10111PP      PP20215  13.924  15.344   1.063  0.3958 -0.2762  0.1852
10112PP      PP20216  12.337   9.695  10.833 -0.1192  0.2880 -0.0216
10113PP      PP20217  11.244  11.288  10.898 -0.1084  0.0845  0.0178
10114PP      PP20218   6.980  15.103  11.928  0.0360  0.4081 -0.3174
10115PP      PP20219  10.864  11.017  10.754  0.1862 -0.1468 -0.0708
10116PP      PP20220  15.860   1.021   3.515  0.1750 -0.1716  0.2509
10117PP      PP20221  10.110  13.669   2.712 -0.0853 -0.1462  0.0616
10118PP      PP20222  13.565  15.584  11.869 -0.0732 -0.2074 -0.1522
10119PP      PP20223   9.640  14.351  12.607  0.0135  0.0305  0.4299
10120PP      PP20224   9.547  14.582   9.076 -0.0309 -0.1309  0.0220
10121PP      PP20225  11.007  14.827   8.045  0.0495  0.1865 -0.1956
10122PP      PP20226   5.246   7.898   3.478 -0.3069  0.0350 -0.0023
10123PP      PP20227  12.783   7.779  12.215  0.1474 -0.1788  0.0357
10124PP      PP20228  12.637   1.349   8.824 -0.1137  0.3379 -0.1736
10125PP      PP20229   1.253  11.336  13.122  0.0813  0.3219 -0.3629
10126PP      PP20230   9.415  12.856  12.680  0.0144 -0.2670  0.1373
10127PP      PP20231  12.425  11.897   3.575 -0.0837  0.0815  0.0525
10128PP      PP20232   0.914   8.217   9.599 -0.0917 -0.1132  0.0261
10129PP      PP20233   3.010  10.654  11.166  0.0364 -0.0688  0.0037
10130PP      PP20234   4.562   2.359   8.480 -0.0119  0.4150 -0.2376
10131PP      PP20235  14.538   5.717   9.346  0.1150  0.1343  0.1781
10132PP      PP20236  12.468  15.832  13.458 -0.2240  0.1856 -0.0358
10133PP      PP20237   0.775   2.353  11.433 -0.0945 -0.3225 -0.2631
10134PP      PP20238  12.792   6.480   2.876 -0.0289 -0.1733  0.1587
10135PP      PP20239   8.843  13.887   0.916 -0.3963 -0.3662 -0.0093
10136PP      PP20240   8.282  10.375   4.014  0.1091  0.3615 -0.1315
10137PP      PP20241  13.123   0.932   2.830 -0.0144  0.0720  0.1168
10138PP      PP20242  10.453  10.859   9.024  0.0999  0.2391  0.3083
10139PP      PP20243   5.668  10.827  10.058  0.3211 -0.1389  0.2921
10140PP      PP20244   0.417   7.593   1.316 -0.1772  0.0406 -0.0127
10141PP      PP20245  15.103  11.767   9.620 -0.1069 -0.3483 -0.2130
10142PP      PP20246   7.021   0.621   9.660  0.2251 -0.1357  0.1218
10143PP      PP20247   6.534  14.469  11.339 -0.1872 -0.0793  0.3059
10144PP      PP20248   2.574   8.668   4.504 -0.3666  0.0031  0.0847
10145PP      PP20249   4.462  11.472   4.300  0.0756  0.0395  0.2091
10146PP      PP20250  14.344   3.665  12.433 -0.2501 -0.2954 -0.0017
10147PP      PP20251   3.038  10.338  10.751 -0.2056  0.1261 -0.1323
10148PP      PP20252   7.715  12.277   9.776 -0.0256 -0.1314  0.1195
10149PP      PP20253   0.986   0.455  10.831 -0.0911 -0.0662  0.1427
10150PP      PP20254  13.663  15.729   8.964 -0.1399  0.0056 -0.1940
10151PP      PP20255  10.214   1.405   1.401  0.0553  0.1797  0.1465
10152PP      PP20256   8.571  13.721   0.200 -0.3185 -0.3147 -0.1665
10153PP      PP20257  12.079   9.975   1.721  0.0535 -0.0101  0.0998
10154PP      PP20258   0.504   6.454  13.121 -0.2128  0.2033  0.0350
10155PP      PP20259   7.194   1.419  12.082 -0.2115 -0.1672 -0.3913
10156PP      PP20260   2.559   3.909   9.884 -0.2167  0.3940 -0.1112
10157PP      PP20261  11.051   9.729   2.782 -0.1383 -0.0774  0.2102
10158PP      PP20262  15.021   7.751  10.557 -0.1800 -0.1072 -0.3778
10159PP      PP20263   6.354   2.878   0.458 -0.1218 -0.2054  0.0892
10160PP      PP20264   7.869   7.777   2.298  0.1243  0.1159  0.0254
10161PP      PP20265   0.851   5.531   0.138  0.3265  0.0867  0.1327
10162PP      PP20266   2.101  15.202   0.532 -0.0242 -0.0757 -0.0937
10163PP      PP20267  14.486   9.859   3.594 -0.1971 -0.0479 -0.0887
10164PP      PP20268  15.790  15.219   2.295 -0.0927  0.1960 -0.2572
10165PP      PP20269   9.195   3.436  11.565  0.2661 -0.0243 -0.0414
10166PP      PP20270   5.449  12.109   4.918 -0.1871  0.1709 -0.0193
10167PP      PP20271  13.206   9.305   0.155  0.2567 -0.0625  0.2470
10168PP      PP20272   9.718   9.625  10.005 -0.0316 -0.4062 -0.1681
10169PP      PP20273   7.649  13.449   1.207 -0.0764  0.0381  0.0411
10170PP      PP20274  14.645  10.194   0.632 -0.1726  0.0098 -0.0843
10171PP      PP20275  11.589  12.248   0.657 -0.1214 -0.1836  0.1633
10172PP      PP20276  10.617   8.926  10.657  0.0909  0.3529 -0.1922
10173PP      PP20277   0.967   4.038   0.298 -0.0408 -0.1088  0.1542
10174PP      PP20278   7.802  10.522  12.175 -0.0792 -0.3149 -0.1547
10175PP      PP20279  15.068   4.570   3.524 -0.3377 -0.0733  0.0508
10176PP      PP20280   4.344   0.980  10.859  0.1151  0.0005  0.0447
10177PP      PP20281   9.559   7.775   3.808 -0.0665 -0.1711  0.0319
10178PP      PP20282   9.522   2.698   4.275  0.0721  0.0728  0.1287
10179PP      PP20283   0.625   7.123   2.099  0.0010  0.0855 -0.0715
10180PP      PP20284   6.209   2.935   1.482 -0.0473  0.1573 -0.0345
10181PP      PP20285   4.947   7.162   4.662 -0.0484 -0.0487  0.0516
10182PP      PP20286  15.370   3.354   3.976 -0.0110  0.2500  0.1227
10183PP      PP20287  12.073  11.119   0.441 -0.0016  0.0202 -0.0056
10184PP      PP20288   4.795   9.856   0.919  0.0244  0.0159 -0.0320
10185PP      PP20289   6.298  14.497  10.742  0.2085 -0.3068 -0.1306
10186PP      PP20290   7.648  15.151  12.448 -0.0544  0.0945  0.1084
10187PP      PP20291   8.543   3.590   2.221  0.2714  0.3004  0.1099
10188PP      PP20292   2.580   1.690   1.418 -0.1033  0.2119  0.1670
10189PP      PP20293  11.434   5.445  11.853  0.3161  0.1107 -0.0479
10190PP      PP20294   6.040   0.035   9.476 -0.0252 -0.0532  0.2681
10191PP      PP20295   9.749   7.022   4.710  0.3899  0.0355 -0.1499
10192PP      PP20296  11.330   5.656  12.793  0.3635  0.0532 -0.1213
10193PP      PP20297   7.575  15.197   2.834 -0.1781 -0.3184 -0.1082
10194PP      PP20298   2.059  10.298  10.077  0.2413 -0.0508  0.0113
10195PP      PP20299  11.345   9.649  12.545  0.4879 -0.3220  0.4293
10196PP      PP20300   3.357   1.656   8.301  0.2130  0.0618  0.0774
10197PP      PP20301   2.922   3.051   2.672  0.1200 -0.0853 -0.1432
10198PP      PP20302   7.892   2.848   3.988 -0.2166  0.1295 -0.1313
10199PP      PP20303   2.841  14.524   0.499 -0.3123 -0.2922 -0.2222
10200PP      PP20304  11.650   1.264   8.657 -0.1596 -0.1578 -0.0670
10201PP      PP20305   9.309  12.200  10.290 -0.1800 -0.0403 -0.1658
10202PP      PP20306  12.304   8.462   1.078 -0.0316 -0.2190  0.2374
10203PP      PP20307  10.296  14.464   9.402 -0.0678  0.0196  0.0573
10204PP      PP20308  14.106   9.883   4.366 -0.0444 -0.0505  0.0960
10205PP      PP20309   7.013   0.081  12.416 -0.0435  0.1508 -0.0239
10206PP      PP20310  13.817  11.838   2.430 -0.2517 -0.3667  0.0779
10207PP      PP20311   1.859   9.566   0.832  0.0441  0.1225 -0.2025
10208PP      PP20312   4.931   1.640   3.985  0.1512  0.1133 -0.2789
10209PP      PP20313   7.745   7.892  11.446 -0.0508 -0.1070  0.1018
10210PP      PP20314  12.297  14.465   8.474 -0.1253  0.0765 -0.2087
10211PP      PP20315   8.414   8.222   3.036  0.2099  0.0535 -0.0165
10212PP      PP20316   4.373   1.043  12.495  0.1588  0.1078 -0.4805
10213PP      PP20317   1.458  12.756  12.693 -0.0527 -0.1240  0.0735
10214PP      PP20318  14.686  10.132  12.670  0.0966 -0.2980  0.1326
10215PP      PP20319   5.651   2.383   3.488 -0.0141  0.0952  0.1392
10216PP      PP20320   9.891   2.141   9.944 -0.0261 -0.0832 -0.1175
10217PP      PP20321  13.548   6.276  11.320  0.0215  0.1868  0.0407
10218PP      PP20322  13.471  10.989   8.661 -0.3346  0.1213 -0.2146
10219PP      PP20323   5.358   9.459  11.340 -0.0289  0.0096 -0.0764
10220PP      PP20324   9.800   2.656   2.955 -0.1204  0.0941 -0.2016
10221PP      PP20325   4.187  14.514   0.032  0.1802 -0.0409 -0.3578
10222PP      PP20326   7.269  11.204  10.019 -0.0143 -0.0476 -0.3040
10223PP      PP20327   2.089   9.599  11.654 -0.0728  0.0891 -0.0335
10224PP      PP20328   9.640   0.594   9.066 -0.1008 -0.0368  0.1681
10225PP      PP20329  13.194   3.555   8.049 -0.4437  0.0277  0.0588
10226PP      PP20330   3.169   9.756   5.313 -0.1149  0.1295 -0.0197
10227PP      PP20331   6.880  12.588   3.391  0.1952  0.1565 -0.2443
10228PP      PP20332  13.419   1.972  11.054  0.2669  0.3876 -0.0744
10229PP      PP20333   8.138   8.629  12.546 -0.1823 -0.1663  0.0080
10230PP      PP20334  11.569  15.276  11.600  0.1154 -0.2151 -0.2336
10231PP      PP20335   0.199   6.088   3.592 -0.0124 -0.0912 -0.1207
10232PP      PP20336   2.991   1.079   0.730 -0.0213 -0.1889  0.1314
10233PP      PP20337   3.019   9.876   9.638  0.0228 -0.0444 -0.1808
10234PP      PP20338   9.704  13.860   9.773 -0.0561 -0.2511 -0.0542
10235PP      PP20339  10.804   4.532   8.804  0.0405  0.1077  0.1092
10236PP      PP20340  11.955  12.219   8.952  0.2199  0.0452 -0.3856
10237PP      PP20341   4.227  13.295  10.547  0.0039  0.1900 -0.3036
10238PP      PP20342   0.793  14.212   8.724  0.0127  0.0302  0.0711
10239PP      PP20343   9.934  15.180  12.454 -0.0649  0.2581  0.1084
10240PP      PP20344   7.245  15.614   1.707 -0.0107  0.0097 -0.0882
10241PP      PP20345   3.820  12.919  10.512 -0.0867 -0.0941 -0.1507
10242PP      PP20346   8.397   6.854  11.970 -0.0175  0.2192  0.4651
10243PP      PP20347   7.234  13.414  10.958 -0.0011  0.0776  0.1309
10244PP      PP20348   8.495   9.941   1.420  0.0376  0.1827 -0.2673
10245PP      PP20349   8.865   5.522   1.044 -0.2113  0.2139  0.0530
10246PP      PP20350   9.567  10.736   3.481  0.0561 -0.1601  0.2535
10247PP      PP20351  14.211   3.514  11.154  0.2429 -0.1635  0.0197
10248PP      PP20352   7.468  12.346  11.585 -0.1949 -0.1116  0.1782
10249PP      PP20353   9.543   9.524   0.982  0.4569  0.2407  0.1939
10250PP      PP20354  15.260   2.828   0.582 -0.2906  0.0842 -0.0113
10251PP      PP20355   5.959   9.293  10.703 -0.0281 -0.3685 -0.0298
10252PP      PP20356   7.129  13.563  11.792 -0.0663  0.0277 -0.0399
10253PP      PP20357   5.353  14.147   3.216 -0.3542  0.0753  0.1919
10254PP      PP20358   2.245   9.062   0.195  0.0117  0.2103  0.2597
10255PP      PP20359  10.879   7.840   8.830  0.2028  0.0003 -0.4213
10256PP      PP20360   8.298   8.486   0.652  0.3879  0.1807 -0.1429
10257PP      PP20361  12.335  10.750  10.489  0.2356 -0.2910  0.0634
10258PP      PP20362   0.618   2.634   3.934 -0.3980 -0.3559 -0.2714
10259PP      PP20363   8.195   1.950  13.016  0.1391  0.1857 -0.0240
10260PP      PP20364   2.636   4.466  13.194 -0.1564 -0.2746 -0.0769
10261PP      PP20365   9.586  15.176   8.304  0.0650  0.2463  0.2698
10262PP      PP20366   3.181  13.089  13.208  0.1686  0.1825  0.5474
10263PP      PP20367   2.388   1.267  10.018 -0.0136  0.2374 -0.6172
10264PP      PP20368  13.994   4.269   8.898 -0.1569 -0.0534  0.1799
10265PP      PP20369   6.548  15.802   2.339 -0.0057 -0.1936  0.2380
10266PP      PP20370   0.712   6.032   0.555  0.0778  0.0365  0.2216
10267PP      PP20371  14.451  15.048  11.015  0.3005 -0.4207 -0.3061
10268PP      PP20372  11.685  12.008   4.044 -0.1461  0.1290  0.1618
10269PP      PP20373  15.559  12.841   9.188 -0.1226 -0.0957 -0.4927
10270PP      PP20374   9.624  11.699   2.336  0.0809 -0.0637  0.2197
10271PP      PP20375   1.421   6.647  10.977 -0.1050 -0.0026 -0.1124
10272PP      PP20376   6.350   9.715  12.871 -0.0565 -0.2098  0.1193
10273PP      PP20377   9.010  15.443  11.006 -0.0297 -0.2293 -0.3494
10274PP      PP20378   4.086   6.128  10.215  0.0072 -0.4186  0.2415
10275PP      PP20379   0.993   0.035  11.833  0.2261  0.2136  0.2331
10276PP      PP20380  12.684   7.518   2.798 -0.3291 -0.3188 -0.0487
10277PP      PP20381   7.667  10.300   0.260  0.0272 -0.0179 -0.0633
10278PP      PP20382   6.081  14.161   1.357 -0.1188  0.2237 -0.1678
10279PP      PP20383   2.113   4.624  11.810  0.0880  0.2501 -0.1657
10280PP      PP20384  10.036   3.022   3.195 -0.1891 -0.0028  0.0576
10281PP      PP20385   0.616   4.670   1.286  0.2290  0.0185  0.2373
10282PP      PP20386  14.055  10.707   8.517 -0.3243  0.1404  0.0235
10283PP      PP20387  15.314  13.637  13.115  0.1353  0.2504 -0.3636
10284PP      PP20388  10.434   3.113   0.682  0.1796 -0.0764 -0.4025
10285PP      PP20389  10.727  12.445   0.597 -0.1006 -0.0215  0.2366
10286PP      PP20390   5.149   4.087   4.440  0.0865  0.0686 -0.1120
10287PP      PP20391  15.580   6.440   8.460  0.3118 -0.1291  0.2808
10288PP      PP20392   9.895  11.744   4.354  0.1979 -0.0492  0.1138
10289PP      PP20393  11.675   6.920   1.403 -0.0348 -0.0357  0.1700
10290PP      PP20394   6.442   3.678   4.001  0.1480 -0.0668  0.0665
10291PP      PP20395  15.695   7.820  10.806  0.1706 -0.2595 -0.0632
10292PP      PP20396   5.110   3.507   1.917 -0.0506 -0.0479 -0.2215
10293PP      PP20397   9.133  13.815   9.660 -0.1681 -0.1447 -0.3689
10294PP      PP20398  15.847   8.710   4.427  0.2394 -0.0437 -0.0538
10295PP      PP20399   6.666  14.214  11.731 -0.0180  0.0460 -0.0720
10296PP      PP20400   5.503  12.935  10.375  0.1036 -0.3284  0.0312
10297PP      PP20401  13.600  11.133   9.759  0.1135  0.2744 -0.1994
10298PP      PP20402   7.567   0.975   8.201 -0.0874 -0.1390 -0.0176
10299PP      PP20403   2.474   0.351  11.889 -0.0775  0.1417 -0.1047
10300PP      PP20404   3.350  12.981   8.589 -0.0940 -0.2423  0.1682
10301PP      PP20405   4.534   2.854   8.566 -0.0020  0.1176 -0.2684
10302PP      PP20406  12.550   8.130   9.604  0.2770 -0.3043  0.1864
10303PP      PP20407   1.015  13.194  13.027  0.1169  0.0828  0.0132
10304PP      PP20408   4.351  14.594   0.742 -0.1297  0.3611  0.1679
10305PP      PP20409   2.374  12.581  11.792 -0.0767 -0.1905 -0.1093
10306PP      PP20410   4.668   8.907   2.576 -0.2195 -0.0650  0.0490
10307PP      PP20411  13.154  10.429   9.397 -0.2694 -0.2049 -0.2286
10308PP      PP20412   0.690   3.784   3.973 -0.2671 -0.0778 -0.1926
10309PP      PP20413   2.616  14.694  12.596  0.0376 -0.0849 -0.0367
10310PP      PP20414   7.823   9.347  10.400 -0.2222  0.3813 -0.0446
10311PP      PP20415   2.651   3.291   9.115 -0.1362  0.1791 -0.0834
10312PP      PP20416   5.982   0.611   0.034 -0.0069  0.1207  0.0885
10313PP      PP20417  12.427   1.107   3.415  0.0361  0.1247 -0.0510
10314PP      PP20418   8.485  13.462   3.578  0.1549 -0.1089  0.1177
10315PP      PP20419   0.881   4.563  12.966  0.0373 -0.1033 -0.2457
10316PP      PP20420   3.406  10.372   9.949  0.3858 -0.2228 -0.1116
10317PP      PP20421   8.126  13.955   0.636 -0.2167  0.0493 -0.0780
10318PP      PP20422   8.035   2.541   3.108 -0.1940  0.1728 -0.2441
10319PP      PP20423   6.810   2.686   0.673  0.2629  0.3441  0.3075
10320PP      PP20424  10.295  10.293   0.584  0.3360 -0.1941 -0.1117
10321PP      PP20425   7.421   3.470   3.398 -0.2723  0.0430  0.2219
10322PP      PP20426   7.425   0.451  12.532  0.0902 -0.2180 -0.0175
10323PP      PP20427  11.748  15.667   1.997  0.4169 -0.0845 -0.1788
10324PP      PP20428   0.440   0.210   3.368 -0.1636 -0.2913 -0.2172
10325PP      PP20429   0.087   0.875   0.400  0.0118 -0.1656  0.1946
10326PP      PP20430   9.787   5.848   3.230 -0.1026  0.3618 -0.3209
10327PP      PP20431   5.310   9.300   4.428  0.0678  0.2665 -0.0120
10328PP      PP20432   6.694  10.495   9.345  0.1582  0.1016  0.1851
10329PP      PP20433  14.607   4.939   0.028 -0.3194 -0.3024  0.1001
10330PP      PP20434  10.775  12.972   9.298 -0.0732 -0.0560  0.1453
10331PP      PP20435   6.606   3.316  11.430  0.0290  0.3010  0.2352
10332PP      PP20436   0.605   2.144   0.960 -0.0488  0.2929 -0.1457
10333PP      PP20437   4.898   7.796  10.822  0.2755  0.1575 -0.0767
10334PP      PP20438  15.494   9.256   3.242 -0.0783  0.3298 -0.0949
10335PP      PP20439   3.664   4.139   2.260 -0.2446  0.1224 -0.4890
10336PP      PP20440   7.262   6.175  13.299 -0.0865  0.0716  0.4076
10337PP      PP20441   0.499   3.213   3.397 -0.0665 -0.1321 -0.0873
10338PP      PP20442  10.226   7.575  11.902 -0.2151 -0.1523  0.3175
10339PP      PP20443  13.915   3.488   8.685  0.4124 -0.0170  0.0735
10340PP      PP20444   3.511  15.081   3.126 -0.3215  0.2070 -0.0111
10341PP      PP20445   0.378   2.458  10.142  0.3232 -0.1285  0.1585
10342PP      PP20446   4.523  11.315   3.772 -0.2908 -0.0392 -0.0929
10343PP      PP20447  13.861   3.828  12.880  0.0312  0.3000 -0.3314
10344PP      PP20448  14.872   0.328   4.411 -0.2817 -0.1006 -0.0778
10345PP      PP20449   0.649   2.363  12.243 -0.2493 -0.0678 -0.2452
10346PP      PP20450   2.907   3.895  13.213  0.1117 -0.0824  0.1770
10347PP      PP20451  13.790   4.117   1.119 -0.3535 -0.0281  0.2744
10348PP      PP20452   3.561  11.703   9.562  0.1221  0.2192 -0.2256
10349PP      PP20453   2.543  13.905   9.538  0.0336 -0.0593 -0.2779
10350PP      PP20454  13.031   9.115  13.194 -0.3180  0.0740 -0.0134
10351PP      PP20455  15.869  10.449  11.560 -0.1469  0.0195 -0.1198
10352PP      PP20456   7.431   9.901   0.473 -0.0770 -0.2477 -0.3273
10353PP      PP20457  11.845   5.865   2.854  0.1234  0.1098  0.1615
10354PP      PP20458   0.076   7.067  12.185  0.2273 -0.1980  0.0484
10355PP      PP20459  14.752  14.297  13.019  0.2678 -0.1738  0.0167
10356PP      PP20460   0.709   9.579  10.919  0.1334  0.2771 -0.3301
10357PP      PP20461   0.620   6.964  11.263  0.2129  0.1909 -0.0153
10358PP      PP20462   6.803   1.678   3.698  0.1945 -0.1891 -0.2866
10359PP      PP20463   3.081  11.505   0.840  0.2424  0.4630 -0.0568
10360PP      PP20464   1.630   6.332  11.869 -0.0291  0.1201  0.0126
10361PP      PP20465  14.369  10.720   3.346 -0.0922  0.2768 -0.2558
10362PP      PP20466   9.622  10.230   4.890  0.2448 -0.0207  0.0057
10363PP      PP20467   1.953  12.783  12.039  0.0361 -0.2111 -0.0472
10364PP      PP20468  14.563  11.584   3.051  0.1938  0.2559 -0.1011
10365PP      PP20469  10.778   5.665   4.644  0.0535 -0.1536 -0.2748
10366PP      PP20470  10.334   6.395   1.123 -0.0249 -0.1862 -0.2457
10367PP      PP20471   7.188  12.058   9.796 -0.2828  0.1403  0.6218
10368PP      PP20472   0.910  12.481   2.438 -0.0687 -0.0929 -0.0277
10369PP      PP20473   6.554  12.808   0.749 -0.1540  0.1823 -0.2061
10370PP      PP20474   7.063  11.962  10.674 -0.0835  0.1158 -0.0252
10371PP      PP20475   3.216  14.536  10.437 -0.0916  0.1680  0.1684
10372PP      PP20476   5.971   6.979  12.046  0.2687 -0.1308 -0.1209
10373PP      PP20477  15.758   1.537   0.367 -0.1061  0.0041  0.1218
10374PP      PP20478  14.735  10.442   6.442 -0.0111 -0.0700 -0.1871
10375PP      PP20479   5.794   3.106   3.753 -0.1855 -0.1491 -0.1590
10376PP      PP20480   6.117  10.409  12.247 -0.1937 -0.2655 -0.5523
10377PP      PP20481  12.501   5.343   3.593  0.2677 -0.3149 -0.0314
10378PP      PP20482  11.758   5.399   2.668 -0.0741  0.0001  0.0041
10379PP      PP20483  15.306   1.498   2.024 -0.0408  0.3625  0.1056
10380PP      PP20484   0.966  15.139   3.415  0.1022 -0.2163  0.0790
10381PP      PP20485  12.466   2.696  11.166 -0.0577 -0.2206 -0.3602
10382PP      PP20486  11.191  11.205   3.728 -0.0535 -0.0338 -0.0927
10383PP      PP20487   6.319   2.337   1.297  0.0141  0.0770 -0.1110
10384PP      PP20488  11.456  12.435   2.524  0.1955  0.0839 -0.0350
10385PP      PP20489  11.152   2.743  11.442 -0.1788  0.1561 -0.2576
10386PP      PP20490  14.671  14.561  11.215 -0.0658  0.0848  0.0782
10387PP      PP20491   2.743   5.100   1.222 -0.1498 -0.1129  0.2067
10388PP      PP20492   5.160   5.470   1.415  0.0112  0.0231 -0.0954
10389PP      PP20493   5.939   7.982   4.287  0.4228  0.2960  0.1752
10390PP      PP20494   8.479  15.315   2.845 -0.1075  0.2772  0.2226
10391PP      PP20495   3.786  11.439   3.780 -0.1895 -0.0669  0.0685
10392PP      PP20496  12.889   4.267   1.821  0.0937 -0.0049  0.0484
10393PP      PP20497   9.785   7.487   9.747  0.1366  0.2426 -0.4151
10394PP      PP20498   2.046  12.550  10.801 -0.1897 -0.0920 -0.1088
10395PP      PP20499  11.977  15.143   2.843 -0.1879 -0.0630 -0.2215
10396PP      PP20500  14.045  13.416   8.580  0.0111  0.2386 -0.0393
10397PP      PP20501  10.475   4.272   1.230 -0.1330 -0.2327  0.1662
10398PP      PP20502   4.331   5.879   3.223 -0.0012  0.0009 -0.1558
10399PP      PP20503   5.432  15.521  10.608  0.0359  0.3428  0.1586
10400PP      PP20504  12.930   4.933  11.718  0.3920  0.2290  0.0304
10401PP      PP20505   9.698   5.126  13.256  0.3720  0.3527 -0.1250
10402PP      PP20506   2.421  14.048  11.550  0.0201  0.0470  0.2336
10403PP      PP20507   8.128   8.497  10.537  0.3310 -0.2000 -0.0720
10404PP      PP20508  11.420   6.868   8.959 -0.0972  0.1643  0.1502
10405PP      PP20509   2.911   1.254   0.162  0.2419 -0.3048  0.2075
10406PP      PP20510   3.751   0.570  11.683  0.1477 -0.1596 -0.0409
10407PP      PP20511   6.116  13.814   2.137 -0.1389  0.0863 -0.1319
10408PP      PP20512  11.601   9.139   9.892  0.0053  0.0024 -0.2051
10409PP      PP20513   9.565   0.069  13.348  0.1165  0.0392  0.0690
10410PP      PP20514   8.537  11.797  13.328  0.0908  0.0999 -0.0750
10411PP      PP20515   0.119   7.289  12.715  0.2860  0.2359  0.3349
10412PP      PP20516   9.334  12.161   0.025  0.2212 -0.0973  0.0855
10413PP      PP20517   2.394  14.012  12.936  0.2317 -0.0267 -0.2371
10414PP      PP20518   7.148   6.218   4.477 -0.0410 -0.2268  0.0894
10415PP      PP20519   4.079   1.408  12.799  0.0280  0.1192 -0.2834
10416PP      PP20520   8.472   4.986  12.528 -0.0263  0.1009  0.4319
10417PP      PP20521  12.197  12.561   9.350 -0.0716 -0.3514  0.2040
10418PP      PP20522  15.358  13.760  11.134  0.2675  0.1199 -0.1445
10419PP      PP20523   1.510   2.494   8.725 -0.2579 -0.0517  0.0055
10420PP      PP20524   8.261   1.305  13.282 -0.0956  0.0453 -0.2619
10421PP      PP20525   1.299  13.805  12.338  0.0997 -0.1931 -0.0151
10422PP      PP20526   7.670  10.209  11.175 -0.0975  0.2536  0.0561
10423PP      PP20527   2.611   2.335  10.662 -0.5270  0.2263  0.1628
10424PP      PP20528   6.760   0.945  10.227  0.3659  0.1104  0.1514
10425PP      PP20529   8.731  10.821  10.476  0.1166  0.0745 -0.0200
10426PP      PP20530   2.233   7.097   4.647 -0.3994  0.0527  0.2595
10427PP      PP20531  13.635   1.787   0.716  0.0263  0.1424  0.1148
10428PP      PP20532   8.541  13.831  12.370  0.0713  0.1692  0.1484
10429PP      PP20533  14.109   8.745   3.087 -0.2034  0.2490  0.6216
10430PP      PP20534  10.814  11.362   3.427 -0.2371  0.1437 -0.3311
10431PP      PP20535   7.340   8.051   3.757  0.4125 -0.1517  0.0893
10432PP      PP20536  11.257   1.758  11.464  0.0166  0.1783 -0.1448
10433PP      PP20537   6.613  13.028   3.350  0.1964  0.1416 -0.1383
10434PP      PP20538   6.764   0.359   1.419 -0.1168 -0.1843  0.2160
10435PP      PP20539  15.260   0.989  10.417  0.1388  0.0020  0.1904
10436PP      PP20540   0.442   1.458   8.487  0.0216 -0.0583 -0.2129
10437PP      PP20541  12.409  15.039   8.297  0.2052  0.0964  0.2448
10438PP      PP20542   0.676   5.434  13.118 -0.2015  0.0443  0.3453
10439PP      PP20543   3.408   6.566   9.668  0.1788 -0.5346  0.0201
10440PP      PP20544  14.639  13.637  10.523  0.2768  0.1336 -0.1660
10441PP      PP20545   6.134   4.795  10.518 -0.6324 -0.1327  0.0015
10442PP      PP20546   9.477  11.910  12.170 -0.0724 -0.0066  0.2063
10443PP      PP20547  10.326   2.580   1.674 -0.0885 -0.1489 -0.3859
10444PP      PP20548  12.257   4.385   3.574 -0.2091  0.0091  0.2580
10445PP      PP20549   5.034   7.867  11.524  0.1686 -0.0828  0.2504
10446PP      PP20550  15.656  12.902   2.950  0.0471 -0.0754  0.0272
10447PP      PP20551  11.393   1.595   1.683  0.0508  0.2941  0.0085
10448PP      PP20552   1.818   8.379   0.916 -0.0763  0.1857  0.1043
10449PP      PP20553   2.672   0.787   1.532  0.2002 -0.3860  0.3205
10450PP      PP20554   9.870  10.441  11.021 -0.0047 -0.1126 -0.3367
10451PP      PP20555   8.176   8.720   9.793  0.1724 -0.0277  0.1457
10452PP      PP20556  10.007   8.428  11.793 -0.0245  0.0287 -0.0050
10453PP      PP20557  13.280  10.389   0.196 -0.0229  0.1951 -0.2234
10454PP      PP20558   7.341  15.337  10.512 -0.0106  0.0126 -0.0987
10455PP      PP20559   5.006   7.881   3.019  0.1078  0.2101 -0.3473
10456PP      PP20560   2.766   1.495   1.898  0.4192  0.0444 -0.0918
10457PP      PP20561  13.947  14.972  13.062  0.1637  0.2775 -0.0866
10458PP      PP20562  14.022   4.110   0.661  0.1636  0.1183  0.1100
10459PP      PP20563   0.282  11.348   0.324  0.1978 -0.2694  0.0423
10460PP      PP20564   9.240   4.700  11.440 -0.0486 -0.3421 -0.1804
10461PP      PP20565  12.859   4.058  11.283  0.1094  0.0071 -0.0041
10462PP      PP20566   8.132  13.071   9.190 -0.3956  0.0995  0.0685
10463PP      PP20567   0.450   1.964  10.432 -0.0278 -0.3974 -0.1777
10464PP      PP20568   5.038  11.954   3.443  0.3451  0.1407  0.1938
10465PP      PP20569   3.282   5.008  10.786 -0.2557  0.2302  0.3762
10466PP      PP20570  10.715   0.991   9.593 -0.0465  0.1194 -0.1711
10467PP      PP20571   4.343   1.517  12.242  0.2846  0.0068  0.1446
10468PP      PP20572  10.454   5.413   2.654 -0.1115 -0.2300 -0.1271
10469PP      PP20573   0.233  12.363   9.257  0.1200  0.0477  0.3395
10470PP      PP20574   8.928  13.845  11.996  0.1837  0.0073  0.0773
10471PP      PP20575  10.730   7.652  12.956 -0.1594  0.0220  0.1843
10472PP      PP20576  15.738  14.856   0.992  0.1202 -0.2272  0.0749
10473PP      PP20577   8.056  15.469   3.691 -0.1758 -0.1154 -0.0913
10474PP      PP20578   7.383  15.186  13.423 -0.1045 -0.3144 -0.0053
10475PP      PP20579   0.565   8.451   1.437  0.1032  0.1234 -0.1897
10476PP      PP20580   8.845   8.023   2.932 -0.1121 -0.0519  0.3006
10477PP      PP20581   3.905  10.736   2.699 -0.1760 -0.3250  0.1022
10478PP      PP20582   4.210  11.511   2.400 -0.1301 -0.0339 -0.0229
10479PP      PP20583  12.062   4.341   0.437  0.2083 -0.0931 -0.1448
10480PP      PP20584   6.574   6.957   0.640  0.0360  0.1466 -0.3408
10481PP      PP20585   7.025  13.461  12.777  0.2469  0.0609  0.0350
10482PP      PP20586  13.348   2.670   3.370 -0.1733 -0.0142 -0.0142
10483PP      PP20587  13.092   1.448   2.950 -0.1918 -0.1141 -0.3077
10484PP      PP20588  11.868   4.330  13.153  0.4393 -0.0041  0.2771
10485PP      PP20589   5.068   8.894  12.308 -0.2320  0.0095 -0.1785
10486PP      PP20590  14.748   0.487   0.620  0.0329  0.1138 -0.0123
10487PP      PP20591   6.600  13.756  11.479 -0.0466 -0.2004 -0.0041
10488PP      PP20592   4.324  10.306  11.118  0.0740 -0.1067 -0.3107
10489PP      PP20593   8.610  12.783  10.102  0.0477  0.0722  0.1963
10490PP      PP20594   1.349   0.004   0.691  0.3367 -0.0313  0.0454
10491PP      PP20595  11.699   6.968   8.520 -0.2141  0.3052 -0.0954
10492PP      PP20596  13.783   4.558   1.295 -0.1460 -0.1141  0.1150
10493PP      PP20597   5.716   0.368   9.979 -0.0403  0.0989  0.0548
10494PP      PP20598   0.677   9.497   9.869 -0.0501 -0.4471 -0.2176
10495PP      PP20599  10.118  15.704   9.491  0.1706  0.1425 -0.0772
10496PP      PP20600  15.835  14.950   3.162  0.0524 -0.0584 -0.1339
10497PP      PP20601   5.291  14.762   3.708 -0.1519 -0.0246  0.0214
10498PP      PP20602   6.899   4.814   1.412  0.0018 -0.0046 -0.2417
10499PP      PP20603   7.629   0.913  12.387 -0.1522  0.0027  0.0402
10500PP      PP20604   2.892  12.536  10.190 -0.0490  0.0580 -0.1615
10501PP      PP20605   6.539  10.855   2.188  0.3283 -0.2585 -0.2368
10502PP      PP20606   0.050   8.473   1.602  0.2934  0.4313  0.2451
10503PP      PP20607   6.932   0.381   0.261  0.2918 -0.2139 -0.0362
10504PP      PP20608  15.461   7.316   0.165  0.0757 -0.2193  0.0956
10505PP      PP20609  11.385   5.107   2.882  0.1831  0.2006 -0.0218
10506PP      PP20610   4.982   2.313   0.957 -0.0801  0.2301 -0.1783
10507PP      PP20611   9.210   2.315   3.984 -0.0103 -0.1186 -0.0558
10508PP      PP20612   8.933  14.683   0.420 -0.2165  0.1361  0.1021
10509PP      PP20613  14.719  10.452  11.256  0.0472  0.1724  0.2665
10510PP      PP20614   2.766   2.940   2.006  0.2070  0.0950  0.0934
10511PP      PP20615  11.905   9.312   2.755 -0.0402  0.0805 -0.1163
10512PP      PP20616  13.027   1.606   0.831 -0.4206 -0.3817  0.0227
10513PP      PP20617   7.630  12.973   4.271  0.0321  0.0692 -0.0435
10514PP      PP20618   5.598   5.285   3.099  0.1627 -0.0088 -0.1200
10515PP      PP20619  12.811  15.472  13.136  0.0165 -0.1474  0.2944
10516PP      PP20620   7.777   9.907   2.524 -0.0996 -0.0391  0.0844
10517PP      PP20621   8.330   1.469  11.781  0.1476  0.1544  0.0439
10518PP      PP20622   6.882   6.126   9.559  0.1650 -0.2294 -0.2004
10519PP      PP20623   1.619   5.908   0.035  0.0852  0.1276 -0.2275
10520PP      PP20624  10.956   0.863   1.092 -0.1170 -0.1513  0.0279
10521PP      PP20625  11.383   8.077   2.292  0.0031 -0.0042  0.0949
10522PP      PP20626   7.006   0.784   0.657  0.0112 -0.2135  0.2560
10523PP      PP20627   8.519  11.985  12.309 -0.1614  0.1103 -0.0678
10524PP      PP20628   5.108   3.319   8.068  0.1248  0.2094 -0.2212
10525PP      PP20629  14.476   6.358   0.122  0.1999 -0.3030 -0.2192
10526PP      PP20630   1.798   7.781   3.669  0.0135 -0.2019 -0.0410
10527PP      PP20631   2.290   0.238   8.759  0.2529  0.1497  0.1894
10528PP      PP20632   6.592  11.065  13.358 -0.1606 -0.0699  0.0824
10529PP      PP20633   2.040   0.216   9.285  0.1001 -0.0691 -0.1265
10530PP      PP20634   8.171   6.593   4.026 -0.2060  0.0199 -0.1641
10531PP      PP20635  14.697   5.001   3.665 -0.1553 -0.1616 -0.1233
10532PP      PP20636   0.879   0.086   0.428  0.0487 -0.2793 -0.0559
10533PP      PP20637  10.348  13.335  10.669  0.0519 -0.1088 -0.2697
10534PP      PP20638   8.876  14.274  12.312 -0.1809 -0.3347  0.0989
10535PP      PP20639  12.199  12.199   1.295 -0.0685  0.0129  0.3816
10536PP      PP20640   7.132   0.062   4.622  0.2937  0.3922 -0.4308
10537PP      PP20641   4.814  11.839  10.255 -0.0022  0.2949  0.2995
10538PP      PP20642  14.645  15.569  10.761 -0.0224  0.1030 -0.1000
10539PP      PP20643   5.326   3.250  12.290 -0.1290 -0.2011  0.0615
10540PP      PP20644  11.132   7.405   2.518 -0.1504  0.0998  0.2355
10541PP      PP20645  12.186  15.431   1.982 -0.1934 -0.0935  0.2232
10542PP      PP20646   6.716  14.987   2.075  0.0736 -0.1601  0.0528
10543PP      PP20647   3.056   8.545   2.583 -0.0596  0.2696  0.0013
10544PP      PP20648   2.690   9.609   5.048 -0.2989 -0.2304  0.1633
10545PP      PP20649   4.351  15.559   3.808 -0.1503 -0.0310 -0.3111
10546PP      PP20650  13.585   0.543   0.870  0.2567 -0.0376  0.0780
10547PP      PP20651   5.377   4.875   2.800 -0.0616  0.0321  0.1393
10548PP      PP20652   4.062   5.134   2.258 -0.0137  0.0554  0.1376
10549PP      PP20653  14.512  12.295  10.264 -0.0654  0.3099 -0.2994
10550PP      PP20654   7.019  14.445   9.996  0.1801 -0.3409  0.0277
10551PP      PP20655   5.410  14.251   2.512 -0.2175 -0.1716 -0.2298
10552PP      PP20656  14.125  11.434   9.677  0.0494 -0.0991  0.0643
10553PP      PP20657  10.504   7.824   2.715 -0.0993 -0.0452 -0.2864
10554PP      PP20658  11.076   9.343   3.047 -0.1262  0.0710 -0.1043
10555PP      PP20659  10.727   8.987   3.361  0.5040  0.0579 -0.2319
10556PP      PP20660  14.799   3.726   8.730 -0.0921 -0.3972  0.0709
10557PP      PP20661  12.880  13.558   9.137  0.0456  0.0400  0.0803
10558PP      PP20662   7.919   0.826   9.348 -0.0658 -0.0165 -0.0252
10559PP      PP20663   9.674   7.846   0.193  0.0702 -0.4433 -0.0244
10560PP      PP20664   5.131  12.590   1.849  0.0835 -0.0844  0.0899
10561PP      PP20665   4.694   6.676   0.485 -0.1501  0.0065  0.0482
10562PP      PP20666   9.173  15.490   9.170 -0.2430  0.0538 -0.1228
10563PP      PP20667   6.146  10.971   1.897 -0.1650  0.0533 -0.3838
10564PP      PP20668  15.512  10.744   4.327 -0.2643  0.0717 -0.1903
10565PP      PP20669   4.474   6.273   3.568  0.0442  0.1469 -0.0118
10566PP      PP20670   3.498  10.987   4.521 -0.0939 -0.4036  0.3025
10567PP      PP20671  14.177  11.965   3.039  0.0046 -0.0300 -0.1836
10568PP      PP20672   2.023   8.318   0.496  0.0733 -0.3235  0.0305
10569PP      PP20673  13.311   0.884  11.100  0.0069  0.0135  0.0640
10570PP      PP20674   1.519  11.652  10.687  0.1774 -0.0976  0.2380
10571PP      PP20675   5.243   7.654   0.702 -0.1390  0.1008 -0.0682
10572PP      PP20676  10.473   3.453   0.175  0.2289  0.0988 -0.1705
10573PP      PP20677  14.263   6.227   4.023 -0.0894 -0.1559 -0.1586
10574PP      PP20678   8.783   5.915   3.866 -0.2416 -0.1728 -0.0544
10575PP      PP20679  15.103   0.604  12.918  0.0340 -0.2034 -0.0197
10576PP      PP20680  12.518  12.123   0.826  0.0918  0.0622 -0.1903
10577PP      PP20681  12.695  11.092  10.608 -0.3002 -0.0220  0.0015
10578PP      PP20682   4.386   2.321   3.367  0.1838  0.0149  0.1641
10579PP      PP20683  11.627  13.200   9.107  0.1740  0.0697  0.1863
10580PP      PP20684  15.043  11.394   1.794 -0.0385 -0.0666  0.2117
10581PP      PP20685   7.104   8.387   4.182  0.2442 -0.0829  0.1810
10582PP      PP20686   6.818  11.332   1.971 -0.0544  0.3041 -0.0906
10583PP      PP20687   0.471   5.767   4.409 -0.0134  0.0376  0.2339
10584PP      PP20688   5.990   6.416   2.302 -0.0120  0.0340 -0.1011
10585PP      PP20689   4.662   7.739   2.667 -0.2328  0.0071  0.1230
10586PP      PP20690   1.606   6.073   3.601  0.1262 -0.1267 -0.1689
10587PP      PP20691   2.040  10.508   4.458 -0.3639 -0.1130  0.0585
10588PP      PP20692   0.742   3.404  12.133  0.2299  0.2186 -0.2176
10589PP      PP20693   2.917  10.897  12.140 -0.0889  0.0582 -0.0774
10590PP      PP20694   4.170   5.534   9.955 -0.2185  0.0650 -0.1454
10591PP      PP20695   9.738  15.173   0.611  0.0179 -0.0314 -0.2890
10592PP      PP20696   5.396  13.078   0.473  0.1873 -0.1063 -0.0441
10593PP      PP20697   6.983   0.275  10.917  0.1881  0.1765  0.1518
10594PP      PP20698   8.584  13.193   3.107  0.1571  0.0939  0.2183
10595PP      PP20699  13.961   5.065  10.901  0.2912  0.2377  0.1768
10596PP      PP20700  10.628   7.543   2.170  0.0470 -0.2494  0.2184
10597PP      PP20701  14.662  15.253   2.515  0.0980 -0.4504 -0.2128
10598PP      PP20702   4.955  14.907   3.257 -0.2861  0.0006  0.2294
10599PP      PP20703  14.044  13.430   2.763 -0.1364  0.1691 -0.2512
10600PP      PP20704   4.974  15.458  12.671 -0.0267  0.2133 -0.2603
10601PP      PP20705   2.407   7.033  11.634  0.1476  0.0169  0.3384
10602PP      PP20706  12.763   5.007   0.883 -0.0843 -0.2225  0.0175
10603PP      PP20707   1.083   4.941   9.400 -0.1264  0.2291  0.1652
10604PP      PP20708  15.711   3.984   2.371  0.0574 -0.0617  0.1270
10605PP      PP20709   4.572  11.551  11.282  0.3966  0.0220  0.0906
10606PP      PP20710   8.206  12.626   1.346  0.1945 -0.3271  0.1324
10607PP      PP20711   3.124   3.386  10.272 -0.3407 -0.1060  0.0667
10608PP      PP20712   6.294  10.487   2.455 -0.0522 -0.1213 -0.0397
10609PP      PP20713   9.000   3.741  10.822  0.1620  0.3962  0.0966
10610PP      PP20714  10.946   7.288   4.230  0.0037  0.3297 -0.3965
10611PP      PP20715  13.345  15.285  10.490 -0.0349 -0.0677 -0.0508
10612PP      PP20716  15.779   9.648   1.202  0.3397 -0.0770 -0.0374
10613PP      PP20717   3.312   0.459   9.900 -0.0703  0.0766  0.2940
10614PP      PP20718  12.528  15.812   8.586  0.1518 -0.1784  0.1196
10615PP      PP20719  14.483   9.783   4.733 -0.0776 -0.2421 -0.0125
10616PP      PP20720  15.689  15.181   8.229  0.0573  0.2296  0.1254
10617PP      PP20721  13.500   2.673  10.233  0.3005  0.2689  0.0434
10618PP      PP20722  11.194  13.109   2.145 -0.2802 -0.0693  0.2053
10619PP      PP20723  14.174   5.840  10.298  0.2673  0.0099  0.1952
10620PP      PP20724   7.610   5.141  10.439 -0.0615  0.1661 -0.0744
10621PP      PP20725  11.428  14.721   9.907 -0.3797 -0.0795  0.0165
10622PP      PP20726   4.197   4.376   0.343 -0.2908  0.0551  0.1817
10623PP      PP20727  12.194  11.647   9.314  0.2941 -0.0009  0.0517
10624PP      PP20728   5.708   9.471   3.847  0.0829 -0.0059 -0.1965
10625PP      PP20729  15.418   0.545   9.019 -0.0848 -0.0508  0.1217
10626PP      PP20730   6.989  11.971   2.847 -0.0082 -0.1038 -0.0956
10627PP      PP20731   6.059   8.756  12.176  0.0998  0.1508 -0.0973
10628PP      PP20732  12.906   2.474  11.925  0.2219 -0.1926  0.0128
10629PP      PP20733   3.236   1.852   1.990 -0.3155 -0.2456 -0.0919
10630PP      PP20734   2.720   6.799  10.513 -0.0073  0.1893 -0.0220
10631PP      PP20735  12.758   9.819   1.319  0.1126 -0.0513 -0.1014
10632PP      PP20736   5.605  10.730   3.189 -0.0779  0.3790 -0.0355
10633PP      PP20737   5.887  11.721   4.226  0.1508  0.2826 -0.2541
10634PP      PP20738  14.233   7.942   9.512  0.0429  0.1220 -0.4449
10635PP      PP20739  12.714   8.090  12.685  0.1361 -0.0159  0.0333
10636PP      PP20740   1.390   1.753   8.126  0.1339  0.1555 -0.0401
10637PP      PP20741  15.479   5.385   4.283  0.0805 -0.2624  0.1156
10638PP      PP20742   6.794   6.558   9.877  0.0499 -0.5042 -0.1095
10639PP      PP20743   3.355   7.861   1.456 -0.2317 -0.2790 -0.1716
10640PP      PP20744  13.823   7.327   0.274 -0.1155 -0.2969  0.0875
10641PP      PP20745  14.729  15.266   9.190  0.2007  0.1668  0.1853
10642PP      PP20746   2.346   6.164  11.121 -0.3743  0.1867  0.1734
10643PP      PP20747  14.100   7.299  11.213 -0.2199  0.1534  0.0551
10644PP      PP20748  13.109   1.854   1.287  0.1258 -0.1413  0.1859
10645PP      PP20749   4.196   2.804   7.938  0.0095 -0.1987 -0.2307
10646PP      PP20750   9.660  11.843  11.053 -0.4569 -0.1531  0.0774
10647PP      PP20751   3.508   4.617  11.006 -0.1048 -0.2203  0.2456
10648PP      PP20752   5.642  14.385   3.857  0.2048 -0.1594 -0.2413
10649PP      PP20753  14.243   0.837  12.802  0.1235  0.0862  0.0034
10650PP      PP20754  12.024   7.403   3.526  0.1784 -0.1566 -0.1075
10651PP      PP20755   3.146  14.915   3.534 -0.3352 -0.2084 -0.2690
10652PP      PP20756   4.782   7.608   1.153  0.0113  0.0255 -0.0253
10653PP      PP20757  11.720  12.623   2.881 -0.1231  0.3257 -0.3085
10654PP      PP20758  11.849  14.078   2.212 -0.0482 -0.0922  0.4168
10655PP      PP20759  14.419  13.283   1.772  0.0692 -0.0318 -0.1328
10656PP      PP20760   4.271   7.781  11.755 -0.0057  0.2391  0.2277
10657PP      PP20761   8.687   3.572   3.084 -0.1044  0.0062 -0.0959
10658PP      PP20762   5.819   6.556   4.291 -0.2110  0.2318  0.1978
10659PP      PP20763  12.084   0.634  10.639  0.1484  0.1249 -0.0345
10660PP      PP20764   5.458   7.863   5.059 -0.0759  0.0249  0.0756
10661PP      PP20765  13.118  14.306  12.155 -0.1270  0.1227  0.1770
10662PP      PP20766  15.289   7.860   2.396 -0.1942  0.1043  0.1611
10663PP      PP20767   0.308   7.563   0.378 -0.0017 -0.0635 -0.0386
10664PP      PP20768   2.353  15.559  11.260  0.0774  0.0991  0.0092
10665PP      PP20769  13.486  10.928   9.296  0.3683 -0.1219 -0.1502
10666PP      PP20770   3.520   3.289   1.027 -0.0443 -0.0212 -0.1562
10667PP      PP20771  10.989   2.270  11.139  0.1263  0.0122 -0.1173
10668PP      PP20772  11.505   4.612   1.293 -0.0733  0.1987 -0.2823
10669PP      PP20773   5.331  10.960  12.000  0.0131 -0.0278 -0.0066
10670PP      PP20774   4.217   9.731   4.229 -0.0945 -0.1728 -0.0223
10671PP      PP20775   9.952   2.345   1.852  0.0435  0.1535 -0.1454
10672PP      PP20776   7.653   1.845   2.184 -0.0611 -0.0483  0.0175
10673PP      PP20777   3.648  12.539  11.975  0.0333 -0.3110  0.3787
10674PP      PP20778  13.438  13.093  10.637  0.2432 -0.1602  0.2414
10675PP      PP20779   6.500   5.041   3.655  0.3236  0.1802 -0.0493
10676PP      PP20780   5.818   4.737   9.231 -0.0358 -0.1552 -0.3056
10677PP      PP20781   8.100   7.071  13.330  0.2775  0.1842 -0.2325
10678PP      PP20782   2.086   5.657   5.500 -0.1237 -0.0005  0.2191
10679PP      PP20783  13.614   6.989   0.965  0.0464 -0.2205  0.1887
10680PP      PP20784  12.831   1.069  13.292  0.2631  0.1168  0.0222
10681PP      PP20785   6.360   4.625   0.556  0.1843  0.2849 -0.0113
10682PP      PP20786  13.845  10.638   4.303  0.2107 -0.3698  0.1534
10683PP      PP20787   5.575  10.724   2.374  0.0546 -0.1762  0.5381
10684PP      PP20788  15.318   8.843   9.965  0.2491  0.0569  0.2155
10685PP      PP20789   2.984   7.690   0.080  0.0937  0.0401 -0.3275
10686PP      PP20790   8.523   7.241   1.156 -0.2853 -0.3140  0.1570
10687PP      PP20791   7.275  11.736   2.048  0.2233  0.1662  0.0805
10688PP      PP20792   7.794   9.379   1.140  0.1668 -0.0763  0.0520
10689PP      PP20793   3.754  14.081   3.558 -0.0605 -0.1473 -0.3831
10690PP      PP20794   5.901  13.549   1.311  0.0513 -0.1241  0.0750
10691PP      PP20795  14.567   8.684  13.445 -0.2511  0.0333  0.2100
10692PP      PP20796   3.310   9.014   4.751  0.2902 -0.0966 -0.1981
10693PP      PP20797  11.747  13.204  12.255  0.0252  0.0863 -0.3549
10694PP      PP20798  10.939   9.826   0.733 -0.1335  0.2599  0.0080
10695PP      PP20799  10.490   0.490  13.378 -0.0291  0.1162  0.2364
10696PP      PP20800   7.179  13.015   1.147  0.0368 -0.0775 -0.1108
10697PP      PP20801  15.249   7.343  11.787 -0.2369 -0.1766 -0.2393
10698PP      PP20802   3.968  12.805   1.623  0.2726  0.1418 -0.0334
10699PP      PP20803   5.826   1.845  13.479 -0.2079 -0.1977 -0.0085
10700PP      PP20804   6.578  15.004  13.267  0.2352  0.3500  0.0773
10701PP      PP20805   7.216  15.019  11.095 -0.1635 -0.1053  0.0453
10702PP      PP20806   5.002   6.074  10.256  0.0804  0.0216 -0.0277
10703PP      PP20807   8.543  11.045  12.618 -0.0900  0.0091 -0.1048
10704PP      PP20808   2.201   7.519   3.367  0.0272  0.2955  0.0581
10705PP      PP20809  11.271  12.468   1.398 -0.1859  0.0109  0.0897
10706PP      PP20810   5.810   4.555  13.090 -0.0081  0.0621  0.2688
10707PP      PP20811   9.319   4.491   3.433 -0.0311  0.0211 -0.2314
10708PP      PP20812  14.311   0.969  12.302 -0.3003  0.2793 -0.3389
10709PP      PP20813   9.141  15.284  12.193 -0.0799 -0.1252 -0.1701
10710PP      PP20814   6.790   1.563   8.379  0.0998  0.0392 -0.0133
10711PP      PP20815  15.686   3.662   3.090  0.3295 -0.0086 -0.0316
10712PP      PP20816   1.634   8.275   0.119 -0.3620 -0.1204 -0.2344
10713PP      PP20817  12.650   3.352   9.971  0.1061  0.0404  0.2655
10714PP      PP20818   6.625   5.570  10.859 -0.0428  0.0504 -0.1078
10715PP      PP20819   0.342   1.841   9.522 -0.4348 -0.1616  0.1707
10716PP      PP20820   5.028  10.077   1.869 -0.3647  0.0607 -0.1941
10717PP      PP20821   8.763   5.324  12.706 -0.1612  0.2076  0.0260
10718PP      PP20822   8.564   8.421  12.472 -0.0788  0.1146 -0.2392
10719PP      PP20823   3.038  14.131   2.973  0.0558  0.2136  0.3829
10720PP      PP20824   6.614  14.206   4.346  0.1255  0.1982  0.2145
10721PP      PP20825   6.807  15.799  10.599 -0.0079 -0.1624 -0.2880
10722PP      PP20826   4.423  13.954   2.202 -0.1747  0.0460 -0.0654
10723PP      PP20827   1.456   6.491  10.309  0.1581  0.2225 -0.2106
10724PP      PP20828   5.884   9.991   4.141 -0.1640 -0.0865 -0.1931
10725PP      PP20829   3.435   1.701   7.765  0.3116  0.2520  0.0196
10726PP      PP20830   0.787   2.295   3.102 -0.0980 -0.1706 -0.3161
10727PP      PP20831   0.073   4.376  11.743 -0.0002 -0.0580 -0.1389
10728PP      PP20832   7.981  15.381   2.651 -0.1200  0.2255  0.1415
10729PP      PP20833   5.261   4.595   4.218 -0.1098 -0.2027 -0.2997
10730PP      PP20834   6.046   5.055   0.106  0.0309  0.2408  0.2107
10731PP      PP20835   3.073   9.538  13.388 -0.3829 -0.2741 -0.2355
10732PP      PP20836   3.704   6.697  11.822 -0.0277 -0.4486  0.0307
10733PP      PP20837  13.990   9.645   9.652  0.0299  0.4228 -0.2253
10734PP      PP20838   0.994   9.624   9.122  0.0575 -0.2732  0.0145
10735PP      PP20839   1.704   7.397   0.016 -0.1006  0.2648 -0.0674
10736PP      PP20840   6.017  14.183  13.433  0.2083  0.1146  0.0475
10737PP      PP20841   9.151   4.917   9.333  0.1620  0.0331  0.2054
10738PP      PP20842   3.405   8.168   2.615 -0.5430  0.1733 -0.4331
10739PP      PP20843   9.977  11.475  11.074  0.0448  0.0741 -0.2579
10740PP      PP20844  13.432   4.593  11.106 -0.1251  0.0548 -0.0771
10741PP      PP20845   9.902   8.340  10.166 -0.1120  0.0047  0.1311
10742PP      PP20846  11.217   5.001  13.114 -0.0332  0.0279 -0.1190
10743PP      PP20847   7.351  15.601   8.838 -0.3074  0.1358  0.2262
10744PP      PP20848   8.906   8.560   0.497 -0.0545 -0.1133  0.0906
10745PP      PP20849   8.773   5.179  12.176  0.1708  0.1698  0.1944
10746PP      PP20850   6.706   0.695  10.764 -0.0320  0.1736  0.1672
10747PP      PP20851  12.548  13.679  12.557  0.0799 -0.0312 -0.2638
10748PP      PP20852  14.802   6.187  10.837  0.0095 -0.1520 -0.3099
10749PP      PP20853   4.735  14.618  11.498 -0.0351  0.2292  0.1224
10750PP      PP20854   7.228  14.587   3.709 -0.1188  0.0098  0.0701
10751PP      PP20855   2.668   2.385   1.654  0.0012  0.0573  0.1492
10752PP      PP20856  10.942  10.026   1.339  0.0583  0.1197 -0.0054
10753PP      PP20857   8.684   9.414   9.372 -0.1346 -0.0469  0.1995
10754PP      PP20858  11.601  13.011  12.694  0.2342  0.3217 -0.1376
10755PP      PP20859   6.554  14.089  10.972 -0.2194 -0.0864  0.1248
10756PP      PP20860  12.716   7.139   1.169 -0.1407  0.0653 -0.0056
10757PP      PP20861   8.946   2.473   2.890  0.0331 -0.2513  0.2704
10758PP      PP20862   7.632   6.121   0.786 -0.0009 -0.1639 -0.2054
10759PP      PP20863   7.382   9.670   9.014  0.3028 -0.0237 -0.2503
10760PP      PP20864   9.429   4.036  10.684 -0.2732 -0.0390  0.0148
10761PP      PP20865   6.263   0.547   1.274 -0.0865  0.0749 -0.0720
10762PP      PP20866   0.493  15.083   1.499  0.1532  0.1317  0.0240
10763PP      PP20867   4.369  12.577  11.192 -0.0788  0.1694  0.2337
10764PP      PP20868   6.082   5.451   0.938  0.0329 -0.1755  0.0963
10765PP      PP20869  15.196   1.914   8.497  0.0441  0.0506  0.3611
10766PP      PP20870  14.826   5.615   2.349  0.0322 -0.0526 -0.2573
10767PP      PP20871  12.926   8.493  10.772  0.1394 -0.1537 -0.0428
10768PP      PP20872   7.701  13.913   0.099  0.1819 -0.2363 -0.2046
10769PP      PP20873  12.455  11.110   0.820  0.3477  0.3251  0.3572
10770PP      PP20874   0.544   0.221  11.526  0.0191 -0.3294 -0.1984
10771PP      PP20875   6.881  10.080   1.703  0.0442 -0.1263 -0.1307
10772PP      PP20876   4.257  10.815   1.719 -0.0951  0.0209 -0.0991
10773PP      PP20877  11.319   3.187   2.551 -0.1135 -0.4052  0.1865
10774PP      PP20878   3.475   5.476  12.745  0.3829 -0.1333 -0.0404
10775PP      PP20879   8.330   9.234  10.899 -0.1609 -0.0406  0.1286
10776PP      PP20880   9.396  12.368  11.902 -0.2497  0.0995  0.1004
10777PP      PP20881   4.090   9.608   3.569  0.3181 -0.0381  0.0125
10778PP      PP20882  15.290   0.754   1.400  0.0071  0.3976  0.2178
10779PP      PP20883  11.818   7.648   4.252 -0.1276 -0.2410 -0.1595
10780PP      PP20884  12.000   4.578   0.858 -0.0652 -0.2890  0.2913
10781PP      PP20885  12.167   2.092   9.531  0.0290  0.0821  0.1713
10782PP      PP20886   4.312   7.439  12.927 -0.3238 -0.1145 -0.2940
10783PP      PP20887  11.015   1.758  10.887 -0.1487 -0.1973 -0.0879
10784PP      PP20888   0.331  13.592  12.183 -0.0278 -0.0500  0.1286
10785PP      PP20889   7.511  12.508   0.974 -0.0559  0.0352  0.0546
10786PP      PP20890  13.109   9.558   2.906  0.0525  0.0581  0.2174
10787PP      PP20891   1.799  15.800  12.902 -0.2668  0.2623 -0.2401
10788PP      PP20892   0.130   9.277   9.278  0.1272  0.0514  0.3548
10789PP      PP20893  12.563   7.981  11.618  0.1628 -0.2050 -0.3792
10790PP      PP20894   3.626   2.429   0.598 -0.0425 -0.0536  0.0822
10791PP      PP20895  11.892   3.380   1.648  0.0884  0.0543 -0.0294
10792PP      PP20896   3.807   7.904  12.144 -0.1422 -0.1508 -0.1495
10793PP      PP20897   9.992   9.797   4.395  0.0419 -0.0602  0.0558
10794PP      PP20898   4.288  14.442   3.969  0.0869 -0.1799  0.0934
10795PP      PP20899   1.924  15.248   3.226  0.2024  0.5278 -0.1449
10796PP      PP20900   4.432   4.746  10.092 -0.2245 -0.0946 -0.1756
10797PP      PP20901   6.655  12.381   4.958 -0.1070 -0.1426 -0.1883
10798PP      PP20902   0.159  13.349  10.866 -0.3510 -0.1917 -0.0085
10799PP      PP20903  11.070   2.896   2.896  0.5260  0.2827 -0.0851
10800PP      PP20904   3.066   2.351   1.992  0.0275 -0.1911  0.1549
10801PP      PP20905   6.655  14.239  12.713 -0.0144 -0.0384 -0.0269
10802PP      PP20906   6.778  15.015   9.320  0.0120 -0.0822  0.3454
10803PP      PP20907   5.514   8.451   2.223  0.0135  0.0688 -0.2681
10804PP      PP20908  11.375   8.618   1.985 -0.0507 -0.0320  0.2962
10805PP      PP20909   3.803  15.324   1.328  0.2445 -0.1547  0.2685
10806PP      PP20910  15.420  14.799   8.934 -0.0108  0.1166  0.0470
10807PP      PP20911   3.413  14.864  11.188 -0.0692  0.1177  0.1354
10808PP      PP20912   6.621   9.056  10.672 -0.1302  0.1410 -0.1258
10809PP      PP20913   4.127   5.999   3.856  0.3381 -0.1974 -0.2412
10810PP      PP20914  11.707  10.829   9.375 -0.1292 -0.0540 -0.2427
10811PP      PP20915  15.046   7.506  12.560 -0.1722  0.1818 -0.2334
10812PP      PP20916   3.968   3.767  11.636  0.1565 -0.3683 -0.2301
10813PP      PP20917   7.728   3.848   0.690 -0.1584  0.5011 -0.0519
10814PP      PP20918   0.940   2.054  12.709  0.0825  0.2125 -0.1868
10815PP      PP20919   1.338   5.506   4.100  0.2083  0.0784  0.2285
10816PP      PP20920  10.268   3.760  10.388 -0.1909 -0.1187  0.2254
10817PP      PP20921  10.207   1.986   2.190 -0.0664 -0.2672  0.3716
10818PP      PP20922   3.608  14.372  13.401  0.2082  0.0080  0.1264
10819PP      PP20923   7.786   6.407  11.393  0.0070  0.1497  0.2071
10820PP      PP20924  15.721  12.963  10.871 -0.0265  0.4646 -0.0116
10821PP      PP20925  10.071   1.191   0.045 -0.0635  0.1690  0.1773
10822PP      PP20926   1.109   4.224   8.792 -0.1323  0.1987  0.0598
10823PP      PP20927   7.663   6.947   9.866 -0.0892  0.1155 -0.0958
10824PP      PP20928   2.351   9.227   4.150  0.1603 -0.1189  0.0823
10825PP      PP20929   9.670   9.020   0.956 -0.0976  0.1866  0.0515
10826PP      PP20930   7.176  11.008   9.022 -0.1108  0.1219  0.0243
10827PP      PP20931  11.223   1.553  13.376 -0.0776  0.2083  0.2041
10828PP      PP20932  13.887   7.488   3.323  0.1755 -0.2783 -0.5073
10829PP      PP20933   8.665   0.733  11.309  0.0106  0.2743  0.0334
10830PP      PP20934   2.270   0.678   9.315  0.2637  0.0494  0.0306
10831PP      PP20935   4.262  15.140   1.970 -0.0959  0.0581  0.1966
10832PP      PP20936  13.584   8.710   4.980  0.2903 -0.0911 -0.0940
10833PP      PP20937  11.692   1.218   0.312 -0.1725 -0.0238  0.2274
10834PP      PP20938   7.959   2.191   2.451  0.1727 -0.0830  0.2027
10835PP      PP20939   1.321   0.570  13.260 -0.2741 -0.0409 -0.0891
10836PP      PP20940  12.382   4.077   1.749 -0.1771 -0.0053 -0.1238
10837PP      PP20941   3.659   9.937   9.938 -0.0685  0.0142 -0.2858
10838PP      PP20942   9.507   1.468   0.354 -0.0062  0.4393 -0.0342
10839PP      PP20943   9.416   9.146  12.246 -0.3095  0.0981  0.0723
10840PP      PP20944  11.822  15.271  12.574 -0.1665  0.3540  0.1042
10841PP      PP20945  13.012   7.821   9.423 -0.0821 -0.4295 -0.0191
10842PP      PP20946  13.676   7.410   1.334 -0.2363  0.0600 -0.0216
10843PP      PP20947  12.567   9.764   0.346 -0.2979 -0.0249 -0.1784
10844PP      PP20948   6.408  10.848  12.863 -0.1849 -0.0414 -0.0743
10845PP      PP20949   2.293   2.888   0.810  0.0866  0.1089 -0.1493
10846PP      PP20950   8.716   6.002   0.779  0.1261  0.2996  0.0918
10847PP      PP20951   0.513  10.254  12.617 -0.0680  0.1504 -0.1707
10848PP      PP20952  12.100  12.890  12.401  0.0574  0.4050 -0.0640
10849PP      PP20953   0.401  13.608   9.967  0.2289  0.0482 -0.1041
10850PP      PP20954  15.422   8.689   1.021 -0.0099 -0.4308  0.4432
10851PP      PP20955   4.485   9.804   3.846  0.1281  0.0523  0.0437
10852PP      PP20956   3.084   7.928  13.089 -0.0435  0.0020 -0.2299
10853PP      PP20957   1.114   1.839   8.986 -0.1746 -0.6224  0.1965
10854PP      PP20958   3.200  13.770   4.703  0.2779 -0.0692  0.0321
10855PP      PP20959   1.308   7.961   4.303 -0.0569  0.1576 -0.3470
10856PP      PP20960   5.789   8.342   4.715 -0.0486 -0.0898 -0.1048
10857PP      PP20961   9.353   8.430   1.973 -0.1177 -0.0877  0.1961
10858PP      PP20962   0.343   3.390   3.828  0.1341  0.0062 -0.1065
10859PP      PP20963   3.722   2.802   3.310  0.0840 -0.0321  0.0635
10860PP      PP20964  13.634  14.821   9.737 -0.5874  0.3448  0.5658
10861PP      PP20965  14.742   3.031   1.286 -0.1076 -0.2534 -0.0960
10862PP      PP20966   6.207   8.142   1.727 -0.1756 -0.0346 -0.0253
10863PP      PP20967   1.889   1.873   3.840 -0.5706  0.0433 -0.0929
10864PP      PP20968  15.441   7.257  10.710  0.2495 -0.1329 -0.0913
10865PP      PP20969   0.836  11.419   2.853  0.0367 -0.0652 -0.1665
10866PP      PP20970   1.341  10.015   2.895  0.0655 -0.0180  0.3608
10867PP      PP20971   3.219  10.988   0.922 -0.1280 -0.0934  0.1262
10868PP      PP20972  11.366  11.857   0.232 -0.1041  0.1431 -0.0446
10869PP      PP20973   2.376   2.776  12.316 -0.0953  0.2031  0.2579
10870PP      PP20974   5.170  12.711   0.848  0.1482  0.2511 -0.2257
10871PP      PP20975   7.524   4.002   9.697 -0.0093 -0.2271  0.1622
10872PP      PP20976   7.402  10.578   3.228  0.3792  0.1779 -0.1053
10873PP      PP20977  13.632  15.184   7.790 -0.1433 -0.0672 -0.0844
10874PP      PP20978  14.343  14.586   8.492  0.1199  0.2938 -0.0113
10875PP      PP20979   1.181   9.176   4.546 -0.0835 -0.0926 -0.0090
10876PP      PP20980   4.026   6.958   9.708  0.0092 -0.0442 -0.1327
10877PP      PP20981  11.519  15.292   2.985  0.3028  0.0821 -0.0744
10878PP      PP20982   0.575  10.587   2.307  0.0306  0.2011 -0.1439
10879PP      PP20983  11.224   2.157   2.414  0.0928  0.3501  0.2497
10880PP      PP20984  15.406   9.929  10.557  0.1350 -0.1928  0.2098
10881PP      PP20985  12.352   2.369   1.167  0.0880  0.1929 -0.0405
10882PP      PP20986   4.583   0.113  10.490  0.2441 -0.2145  0.2800
10883PP      PP20987   1.764   1.671   1.666 -0.1925  0.1797 -0.2299
10884PP      PP20988   0.595  12.913   2.683 -0.2108  0.0224  0.1309
10885PP      PP20989   2.822   4.264   1.122  0.2881  0.2932 -0.0299
10886PP      PP20990  10.909   8.647   0.966  0.1420 -0.0115 -0.0670
10887PP      PP20991   5.935  10.622   9.056 -0.2478 -0.1506  0.2152
10888PP      PP20992  15.211   6.368   9.474  0.0214  0.4720  0.0776
10889PP      PP20993  15.203   1.549  10.275 -0.0666 -0.0982 -0.1246
10890PP      PP20994   6.412   8.374  12.778 -0.0292  0.0976 -0.1524
10891PP      PP20995  12.193   2.790   9.983 -0.0244  0.0678 -0.0756
10892PP      PP20996   8.449  12.024  10.583  0.1435  0.0671 -0.1931
10893PP      PP20997  11.150   8.725  11.826  0.0735  0.0498 -0.1048
10894PP      PP20998   8.802   1.621   2.313 -0.0802 -0.4080 -0.1442
10895PP      PP20999   9.453   0.058   0.446 -0.0927 -0.0346  0.0994
10896PP      PP21000   5.438   8.219   0.735 -0.0427 -0.2106  0.0654
10897PP      PP21001   6.574   8.871   0.182 -0.2220 -0.0602 -0.1613
10898PP      PP21002   9.011  13.326   3.471  0.0287  0.1790 -0.0426
10899PP      PP21003   9.821   7.897   2.112 -0.1910 -0.2309 -0.2473
10900PP      PP21004   4.693   5.161   1.433  0.2670  0.1169  0.0801
10901PP      PP21005  13.297  15.504  11.001  0.0538  0.1144 -0.0834
10902PP      PP21006  15.362   8.135  11.067 -0.1236 -0.1194  0.3444
10903PP      PP21007   4.193  13.647   9.438 -0.2848  0.1270  0.2640
10904PP      PP21008   8.106   4.845   3.520 -0.1737  0.1801  0.1846
10905PP      PP21009  15.423   4.566   0.325  0.0976  0.0739  0.3351
10906PP      PP21010  13.314  11.559  11.946  0.0914  0.0167  0.0306
10907PP      PP21011  14.287   6.111  12.566  0.1001 -0.0217 -0.0983
10908PP      PP21012  14.144  12.078   0.484 -0.1097  0.2172  0.0407
10909PP      PP21013   3.486  10.807   3.558  0.3017  0.0713  0.3341
10910PP      PP21014   9.533  13.006  11.972 -0.2529  0.4704 -0.2652
10911PP      PP21015  15.103  12.931   2.869 -0.3079  0.0538 -0.1057
10912PP      PP21016  13.779   0.988  13.359 -0.4828 -0.1586  0.0846
10913PP      PP21017   3.580   4.516   0.099  0.1122  0.0425  0.1173
10914PP      PP21018   4.891   6.573   3.337 -0.3627 -0.0318  0.0059
10915PP      PP21019   1.105   0.787   0.357  0.3779  0.0773 -0.2529
10916PP      PP21020  15.288   2.798   1.997 -0.1377 -0.0601 -0.1003
10917PP      PP21021  14.888   4.606   1.131 -0.2071  0.1961  0.0420
10918PP      PP21022   0.503   4.988   0.947 -0.1077  0.1151 -0.2219
10919PP      PP21023   6.089  11.978   0.423  0.1342  0.0857 -0.1706
10920PP      PP21024  11.026  14.199  13.393  0.1300  0.1976  0.2672
10921PP      PP21025   2.778  11.304  11.551 -0.1314  0.2562 -0.2399
10922PP      PP21026   0.747   4.721  10.152 -0.0029 -0.2537 -0.0616
10923PP      PP21027   6.190  11.187  10.236 -0.0448  0.4128  0.1930
10924PP      PP21028   5.985  11.956  12.136  0.1951  0.1366 -0.0695
10925PP      PP21029   1.996   5.842  12.996  0.2774  0.2658  0.2554
10926PP      PP21030  13.909   8.476  11.139  0.0253  0.3607  0.0938
10927PP      PP21031  10.492   1.358  10.072 -0.2648 -0.2456 -0.0953
10928PP      PP21032   4.402   2.164   1.693 -0.1578  0.0633  0.2959
10929PP      PP21033   8.431   2.341   1.667 -0.1194 -0.4104  0.1728
10930PP      PP21034   8.321   1.010  11.543 -0.1397  0.1422 -0.1810
10931PP      PP21035   6.146   2.617   2.357  0.2230  0.1527  0.0587
10932PP      PP21036   3.864  14.891   2.153  0.2466  0.0569 -0.2625
10933PP      PP21037   4.251  11.814   1.392  0.0074  0.0870 -0.0719
10934PP      PP21038  14.976   4.798   2.654 -0.2333 -0.1451 -0.1861
10935PP      PP21039  15.225   6.482   0.589  0.3780  0.1139  0.2052
10936PP      PP21040   9.712   6.957  11.170  0.3389 -0.0762  0.2090
10937PP      PP21041  10.177   1.738  11.500  0.0326  0.1543 -0.1704
10938PP      PP21042   2.823  14.751  11.282  0.2510  0.1014  0.0899
10939PP      PP21043   8.242   8.264  12.911 -0.1813 -0.1100 -0.0804
10940PP      PP21044  13.144   6.695  11.253  0.1391 -0.2184  0.0744
10941PP      PP21045  12.404  10.238   0.297  0.0579 -0.1323 -0.0285
10942PP      PP21046   3.751  13.424   0.756 -0.2608  0.1530 -0.0183
10943PP      PP21047  14.813   3.061   0.630 -0.1558 -0.1073  0.4160
10944PP      PP21048  13.345   3.115  12.934 -0.2386 -0.2431  0.0932
10945PP      PP21049  11.675   4.785  13.388  0.0608 -0.1894  0.0786
10946PP      PP21050   8.942   3.960   2.033 -0.0783  0.0014 -0.1975
10947PP      PP21051  11.672  11.955  11.627  0.2170  0.4412  0.0751
10948PP      PP21052   2.796   3.702   9.447 -0.1088  0.0073 -0.0065
10949PP      PP21053   5.024  10.977   3.663 -0.1305 -0.1657  0.2568
10950PP      PP21054   6.119  14.695   9.820 -0.1000  0.0452 -0.2290
10951PP      PP21055  11.323  11.726   9.526  0.0415  0.0022  0.0294
10952PP      PP21056   9.959   4.368   3.319 -0.3290  0.2750  0.0946
10953PP      PP21057   8.274   8.095   3.524 -0.0160 -0.0727  0.1228
10954PP      PP21058  15.082   3.114  10.652 -0.0948  0.0078 -0.1505
10955PP      PP21059  12.296  11.522  10.167  0.1304 -0.0801 -0.1266
10956PP      PP21060   5.396   8.158  11.716 -0.1315  0.2075 -0.2005
10957PP      PP21061   8.720   9.573   3.378  0.1264 -0.1714  0.1889
10958PP      PP21062   9.889   0.792   9.417  0.0392 -0.1097 -0.0442
10959PP      PP21063   4.803   9.350  12.622  0.1289 -0.0538  0.2555
10960PP      PP21064  13.766   5.838   8.847  0.1147 -0.0393 -0.2051
10961PP      PP21065   6.551   0.757   2.040  0.0758 -0.1082  0.3723
10962PP      PP21066   2.874   2.195   0.166 -0.1038 -0.0035 -0.1056
10963PP      PP21067   2.456   9.789   9.182  0.2615 -0.1624  0.0861
10964PP      PP21068   0.418   9.760   3.756  0.0391 -0.1707 -0.0809
10965PP      PP21069   5.312   2.274   2.297  0.1908 -0.1573 -0.2163
10966PP      PP21070   1.550  13.312   4.130 -0.1522 -0.1677 -0.0277
10967PP      PP21071   4.357  11.199   1.992 -0.1011  0.0599  0.2915
10968PP      PP21072  14.687   9.370   9.647  0.2013  0.1774 -0.2493
10969PP      PP21073  11.374  15.475   1.652 -0.2800 -0.0035  0.2109
10970PP      PP21074  13.656   7.304  10.882 -0.0879  0.0084  0.0412
10971PP      PP21075   0.204  12.686  13.238 -0.1484 -0.0443 -0.0663
10972PP      PP21076   9.477   9.877   1.554  0.1784  0.1071 -0.0327
10973PP      PP21077   9.616  10.983   2.974 -0.1255  0.2344 -0.0766
10974PP      PP21078  15.786   7.084   1.885  0.1185 -0.1670  0.0168
10975PP      PP21079  10.192   5.898   1.934  0.1933 -0.1975 -0.0738
10976PP      PP21080   9.059   1.671  10.631  0.0369  0.1123  0.2375
10977PP      PP21081  11.309  14.758  11.598 -0.1625 -0.1023  0.0638
10978PP      PP21082   8.486  10.772  13.327  0.2190  0.0976 -0.0581
10979PP      PP21083   6.189  15.141   3.254  0.0122  0.0588  0.3565
10980PP      PP21084   2.005  14.109   2.103  0.0742  0.0906  0.1338
10981PP      PP21085   8.596   5.208   3.401 -0.0479 -0.0976  0.4917
10982PP      PP21086  10.389  14.089  12.683 -0.0738  0.3113  0.3665
10983PP      PP21087   7.569   1.635  10.527 -0.3242 -0.1772  0.0936
10984PP      PP21088  14.149  13.101  12.302  0.2868 -0.1403  0.1211
10985PP      PP21089   3.119   3.074   8.827 -0.0370 -0.0448 -0.0515
10986PP      PP21090   5.825   6.031   0.068 -0.0335 -0.1071 -0.3575
10987PP      PP21091   2.654   3.201  11.822 -0.1081 -0.0915  0.3695
10988PP      PP21092   8.157   6.159   1.573 -0.1147 -0.2340  0.0023
10989PP      PP21093   6.007  12.877  12.495 -0.2455  0.3069  0.1630
10990PP      PP21094   5.591  12.143   2.657 -0.0069  0.0621 -0.1345
10991PP      PP21095   6.689  12.716  12.754  0.2399  0.0900  0.2387
10992PP      PP21096  10.453   6.233   9.724 -0.2386 -0.1012 -0.2021
10993PP      PP21097   9.881   0.034   2.234  0.0128 -0.0269  0.1611
10994PP      PP21098  12.851   3.357   9.048  0.2035  0.0429  0.0071
10995PP      PP21099   6.681  12.530   4.143 -0.1801  0.1937 -0.1165
10996PP      PP21100  14.380   3.224   3.266  0.0557  0.1307 -0.3684
10997PP      PP21101  13.983   3.643   2.879 -0.1609  0.1979 -0.2379
10998PP      PP21102  11.271  12.398  13.358 -0.3673  0.1699 -0.1382
10999PP      PP21103  12.465   6.570  10.545  0.1478 -0.0915 -0.3055
11000PP      PP21104   4.892   8.395  11.427  0.0839 -0.0254 -0.4141
11001PP      PP21105  11.474  15.687  10.191 -0.2252  0.0135 -0.2867
11002PP      PP21106   8.132  10.410  12.553  0.0603 -0.1872 -0.0201
11003PP      PP21107   9.053  10.882   0.726 -0.1975  0.0781  0.1243
11004PP      PP21108   1.670  13.717   0.093 -0.0249 -0.0068 -0.0284
11005PP      PP21109   9.668   8.896   0.058  0.2612 -0.2361 -0.2167
11006PP      PP21110   1.993   1.372  11.212 -0.0648 -0.3056  0.0176
11007PP      PP21111   1.872  10.141   2.140  0.0865 -0.2143  0.1693
11008PP      PP21112   2.645  11.157  10.910  0.1659  0.1118  0.1433
11009PP      PP21113   3.960   3.885  10.776  0.2507  0.0477  0.0112
11010PP      PP21114   3.811  14.819  12.183 -0.1013  0.1101  0.0663
11011PP      PP21115  11.170  15.151  11.907 -0.0442 -0.2161 -0.1849
11012PP      PP21116   2.122   8.594   4.074  0.2893  0.0023 -0.0217
11013PP      PP21117   5.640   2.622   2.061  0.2147 -0.1403  0.0404
11014PP      PP21118  10.572   9.780  12.875 -0.1949  0.0772  0.1536
11015PP      PP21119   1.854   7.420  11.376 -0.1853  0.0940 -0.0384
11016PP      PP21120   7.482   4.161   1.040  0.0812  0.1393 -0.0547
11017PP      PP21121  10.875   4.045  13.385 -0.0249  0.0790  0.0375
11018PP      PP21122   6.353   1.747   9.129  0.2033 -0.0867  0.1966
11019PP      PP21123   2.827   4.414  11.612  0.2782 -0.2814  0.0487
11020PP      PP21124   6.700   7.465  10.117  0.0825 -0.0034  0.2094
11021PP      PP21125  14.078  11.955   9.554 -0.1955  0.2845  0.0456
11022PP      PP21126  15.198   9.505  10.253  0.3673 -0.2223  0.0509
11023PP      PP21127   1.093  12.925   2.854 -0.1757  0.0922 -0.0213
11024PP      PP21128   8.836  15.217   3.526  0.1087 -0.1185 -0.1260
11025PP      PP21129   1.773  13.607  12.202 -0.1687  0.1641 -0.1990
11026PP      PP21130   7.876  10.773   5.021  0.1440  0.2183  0.0334
11027PP      PP21131  11.501   8.250   9.106 -0.2654 -0.1408  0.2304
11028PP      PP21132   0.218   5.592  12.325  0.2669 -0.0526  0.3650
11029PP      PP21133   9.381   8.280  12.316 -0.3843  0.0906 -0.1573
11030PP      PP21134   5.283  10.075   3.562  0.1575  0.0177 -0.3515
11031PP      PP21135  15.432   0.520  11.591 -0.0057  0.1668  0.1691
11032PP      PP21136   9.017   4.513   9.043 -0.2591  0.2463 -0.4820
11033PP      PP21137   7.480   9.139  10.613 -0.1673 -0.1365  0.0912
11034PP      PP21138   7.273   1.455   8.425 -0.4382  0.0444 -0.0801
11035PP      PP21139   0.080   4.283   9.742  0.1147  0.3336 -0.3934
11036PP      PP21140   5.210  10.969   4.547  0.0045 -0.3013  0.0320
11037PP      PP21141   2.846   4.096   3.064 -0.0777 -0.0784 -0.3391
11038PP      PP21142   4.445   5.946   2.682 -0.1921 -0.1226  0.1759
11039PP      PP21143   9.861  11.952  12.920  0.0183  0.2432  0.0574
11040PP      PP21144   9.958  14.164  13.212 -0.2007 -0.1848 -0.0041
11041PP      PP21145  12.661   2.976   9.660  0.0490  0.0354  0.0598
11042PP      PP21146  15.426  14.051   1.629  0.3592 -0.1769  0.2114
11043PP      PP21147   1.344   0.022   2.750 -0.1503  0.1850 -0.1696
11044PP      PP21148   2.034  11.900   9.150  0.0584 -0.1280  0.1521
11045PP      PP21149  11.391   2.798   0.896 -0.0133  0.3988 -0.2239
11046PP      PP21150   6.023   7.077   1.200 -0.0610 -0.1455 -0.0828
11047PP      PP21151  10.590  12.518   1.693  0.1986 -0.1822  0.0435
11048PP      PP21152   4.088  15.794   1.413  0.1482 -0.0704 -0.0312
11049PP      PP21153  13.072   4.222   9.915  0.0931 -0.0476  0.2063
11050PP      PP21154  11.291   1.185   0.639  0.1451  0.1174  0.0005
11051PP      PP21155   6.750   1.791   3.235  0.1990  0.3843  0.1837
11052PP      PP21156  15.099   4.196   2.496 -0.0666 -0.2851 -0.0461
11053PP      PP21157   9.292   1.997   0.260  0.0800 -0.1268  0.0043
11054PP      PP21158  14.170   8.945  12.510  0.2879  0.0352 -0.1692
11055PP      PP21159   0.692   9.159   4.583 -0.1793 -0.2067 -0.2605
11056PP      PP21160  14.201  10.867   2.416  0.2342 -0.3066 -0.1963
11057PP      PP21161   2.168   7.577   3.935 -0.1021  0.1383 -0.1345
11058PP      PP21162  15.753   6.382   0.769 -0.1434  0.0802 -0.1953
11059PP      PP21163  14.094   8.590   0.716  0.0562 -0.2570 -0.0510
11060PP      PP21164   2.527  10.573   9.868  0.2261 -0.0391  0.2234
11061PP      PP21165  12.660   9.831   0.863 -0.1110 -0.1292 -0.4276
11062PP      PP21166   4.195   1.793   0.342 -0.3895 -0.3464  0.0211
11063PP      PP21167  10.383  15.439   1.579  0.1976 -0.0791  0.4186
11064PP      PP21168  11.528   2.120   1.487  0.2433  0.2011  0.1796
11065PP      PP21169  14.276   3.259  10.293 -0.2888  0.0290 -0.0787
11066PP      PP21170   6.457  11.353   2.400  0.0206 -0.3150 -0.0513
11067PP      PP21171   3.002   6.602   3.533  0.0860  0.3169 -0.1403
11068PP      PP21172   4.555   0.347   3.479 -0.1342  0.1273 -0.1149
11069PP      PP21173   8.953   6.439   9.438  0.2488 -0.1417 -0.1159
11070PP      PP21174   5.699   9.774   3.388 -0.2896 -0.1720  0.1712
11071PP      PP21175   5.621   8.813   4.755  0.0297  0.0128  0.0078
11072PP      PP21176  13.111   5.795   1.987  0.2627 -0.3070  0.0057
11073PP      PP21177   5.257   2.236   3.796  0.2741 -0.1140  0.0928
11074PP      PP21178  11.904  10.846  10.112 -0.2905  0.2600  0.2758
11075PP      PP21179   8.548  15.170   8.345  0.0781 -0.3719 -0.4678
11076PP      PP21180   6.510  11.026   4.546 -0.1326  0.3589  0.2062
11077PP      PP21181   6.609   0.359   9.547 -0.1371 -0.0210 -0.0995
11078PP      PP21182   5.287  14.062  12.928 -0.0364 -0.2480  0.0092
11079PP      PP21183   8.788  15.570   9.558 -0.1845 -0.0418  0.1563
11080PP      PP21184   6.163  11.091   1.296 -0.1046  0.2945 -0.2121
11081PP      PP21185  14.801   0.819  13.243  0.0526  0.1361  0.0009
11082PP      PP21186   9.062  13.158   9.101  0.1846  0.0687 -0.1945
11083PP      PP21187   3.802  11.213   9.689  0.0507 -0.0600  0.2681
11084PP      PP21188   4.491  10.324  12.990 -0.3410  0.0962  0.0149
11085PP      PP21189  15.777  10.682   0.244  0.0234  0.0600 -0.0962
11086PP      PP21190  12.424  12.941   2.088 -0.0876 -0.0055 -0.0682
11087PP      PP21191   3.847   2.398   7.927  0.0509 -0.0913 -0.2880
11088PP      PP21192  11.775  10.127   2.535 -0.3059 -0.0614  0.0068
11089PP      PP21193   6.836   5.484  11.330 -0.1194 -0.2895 -0.3888
11090PP      PP21194   6.178   7.838  12.645  0.3058 -0.2394 -0.0568
11091PP      PP21195  14.807  13.928  11.956  0.0278 -0.1458 -0.1682
11092PP      PP21196  11.390   3.356   4.004  0.2449  0.1286 -0.0967
11093PP      PP21197  13.337   3.267  11.392 -0.2111  0.0120 -0.0651
11094PP      PP21198  12.328  11.676   1.398  0.2362 -0.0180 -0.0183
11095PP      PP21199   7.530  12.275  12.843  0.1003  0.0942 -0.0537
11096PP      PP21200   9.710  14.719   1.188  0.3321 -0.0690 -0.0808
11097PP      PP21201  11.839   2.242   0.235 -0.0669 -0.1002 -0.1685
11098PP      PP21202   5.406   4.470   2.375  0.4883 -0.0599 -0.2607
11099PP      PP21203   4.085   3.315  10.807  0.0110  0.2237 -0.2051
11100PP      PP21204   2.674   5.641  10.886 -0.0787 -0.0535  0.1595
11101PP      PP21205  15.495  14.627  11.430 -0.0802  0.0151 -0.0112
11102PP      PP21206  14.369  10.282  12.210 -0.0272  0.0904 -0.1689
11103PP      PP21207   6.859   4.667  11.360  0.0396 -0.1275 -0.0328
11104PP      PP21208  15.252   9.767   3.361 -0.3190 -0.2537  0.0912
11105PP      PP21209  15.027   3.174  11.751 -0.1223 -0.2069 -0.3208
11106PP      PP21210  15.142   1.883  12.061 -0.0282  0.0282 -0.1273
11107PP      PP21211  14.993  10.469   0.082  0.4085  0.2721 -0.1405
11108PP      PP21212   5.196   3.465   8.981  0.0062 -0.0202 -0.0720
11109PP      PP21213   9.765   3.481   3.084  0.2528 -0.1048  0.2975
11110PP      PP21214  11.542   8.683  13.362  0.1437  0.1521  0.2105
11111PP      PP21215   3.083   2.866   7.979  0.1205 -0.0790 -0.0452
11112PP      PP21216   9.447   9.738   0.312 -0.0536  0.1792  0.0677
11113PP      PP21217   6.032   9.682   9.807  0.1644  0.3915 -0.0116
11114PP      PP21218  12.638  10.894   3.869  0.1205 -0.1669 -0.1509
11115PP      PP21219  14.808   4.079  10.568 -0.2430  0.0455  0.1635
11116PP      PP21220   1.348   1.435   8.696  0.1025 -0.2915 -0.0449
11117PP      PP21221   2.356  11.563  12.256  0.1725  0.1193  0.0779
11118PP      PP21222  13.527  12.807   9.132 -0.0567 -0.2414  0.1779
11119PP      PP21223  13.765   9.951  12.421  0.0452  0.1702  0.1269
11120PP      PP21224   8.730  10.341  13.415 -0.1471 -0.1044 -0.3453
11121PP      PP21225   7.007   8.379  12.517  0.1192  0.0797  0.0259
11122PP      PP21226   1.839   8.830  10.550  0.0452  0.0368 -0.0654
11123PP      PP21227   5.787   1.050   2.698  0.0235 -0.1065  0.1403
11124PP      PP21228   3.035  13.936  12.097 -0.0311  0.0006  0.0661
11125PP      PP21229   7.693  13.174   3.634 -0.1496 -0.1385  0.0088
11126PP      PP21230  11.127  15.369   9.878  0.0707 -0.0913  0.2976
11127PP      PP21231  15.101  14.348   2.349  0.2673  0.1649 -0.4894
11128PP      PP21232   5.400   7.276   0.365  0.0076  0.0760  0.3111
11129PP      PP21233  10.071  11.038  13.191  0.1982 -0.1574  0.0019
11130PP      PP21234   0.420   4.692   9.782  0.0831  0.1592 -0.0853
11131PP      PP21235  15.796   2.228   3.460  0.0951  0.3934  0.1091
11132PP      PP21236   2.206   8.965  11.875 -0.0688  0.1458  0.1066
11133PP      PP21237   8.993   1.221   4.727  0.0126 -0.0419 -0.1088
11134PP      PP21238   9.106   1.216   4.090 -0.3442  0.0286  0.1617
11135PP      PP21239   5.945   6.207   9.711 -0.0564 -0.2581 -0.2421
11136PP      PP21240   7.503   3.406  11.086  0.1126  0.4189  0.0989
11137PP      PP21241   1.248  12.685   3.367 -0.2309  0.2708  0.0203
11138PP      PP21242  11.718   2.647  10.028 -0.1794 -0.0474  0.0515
11139PP      PP21243   8.107  13.262  11.050 -0.0325 -0.3926 -0.0065
11140PP      PP21244   3.216   4.507  12.193  0.0003 -0.2147 -0.0569
11141PP      PP21245   6.314  10.913   2.758 -0.0148  0.0694 -0.1452
11142PP      PP21246   2.583   4.428   0.499 -0.0725 -0.0439  0.0306
11143PP      PP21247   2.768   2.526   9.308 -0.0292 -0.1060  0.3979
11144PP      PP21248   8.993   1.751  11.234  0.0951  0.1913  0.2419
11145PP      PP21249   4.930   3.209   1.156  0.1598  0.0444  0.0313
11146PP      PP21250  13.228   3.703  11.228  0.0545  0.3897 -0.0111
11147PP      PP21251   1.263  12.765   1.846  0.0715  0.2016  0.3613
11148PP      PP21252   5.530  12.151   9.669  0.0365  0.1390 -0.0022
11149PP      PP21253   4.311   4.062  12.558 -0.0264 -0.3091  0.2263
11150PP      PP21254  11.791   3.528   0.763 -0.2503 -0.3685 -0.1488
11151PP      PP21255  10.248   9.247  11.669 -0.1559 -0.0293 -0.0357
11152PP      PP21256   4.247   6.720   4.283  0.0252 -0.0092  0.1610
11153PP      PP21257  12.142  13.019  11.117 -0.1758  0.0580  0.0064
11154PP      PP21258   6.545   8.582   1.604 -0.0099 -0.0919  0.1246
11155PP      PP21259   2.392  12.323   1.457 -0.0091  0.0148  0.1714
11156PP      PP21260  15.026   7.226   9.387 -0.3480  0.1963  0.0193
11157PP      PP21261  13.208  12.994  13.381 -0.2083  0.0547 -0.3284
11158PP      PP21262   2.354   1.379  11.811 -0.1819 -0.1462  0.1964
11159PP      PP21263   1.387   2.368   1.458  0.0412 -0.1400  0.0746
11160PP      PP21264  11.877   7.312  11.528 -0.2380 -0.1030 -0.3053
11161PP      PP21265  15.786   4.898  12.921 -0.2227 -0.0336 -0.0029
11162PP      PP21266  11.433   7.847  11.599  0.3793 -0.1106  0.1654
11163PP      PP21267  14.891   6.660   0.926  0.0768 -0.1592 -0.2087
11164PP      PP21268   0.020  15.300  12.430 -0.1620 -0.3195 -0.2417
11165PP      PP21269   6.483  12.348   1.959 -0.0434 -0.1262  0.1678
11166PP      PP21270   3.848  12.197   1.377 -0.3113 -0.0466  0.1090
11167PP      PP21271   8.256   3.664   0.985  0.0229 -0.0344 -0.0942
11168PP      PP21272   7.463  11.933   1.547 -0.2548 -0.0818  0.0966
11169PP      PP21273   2.393   9.044   2.181 -0.3689 -0.0303  0.2459
11170PP      PP21274   4.509   1.763  11.843 -0.1004 -0.0186 -0.1973
11171PP      PP21275   1.389  14.951  11.948  0.0493  0.3509 -0.1617
11172PP      PP21276  12.905   1.002   9.217 -0.1708 -0.2941  0.0309
11173PP      PP21277   7.574   0.364   2.910 -0.1521  0.1167  0.2495
11174PP      PP21278   0.640   4.389   0.795 -0.1623 -0.0136 -0.3066
11175PP      PP21279   8.507   1.972   9.825 -0.2436 -0.0285  0.0664
11176PP      PP21280   4.674  12.952   9.927  0.0517 -0.1789 -0.0819
11177PP      PP21281   3.626  12.442  10.600 -0.2042  0.0610  0.1777
11178PP      PP21282   0.059   7.260  10.590 -0.1366  0.2538  0.1896
11179PP      PP21283   1.468   1.413   9.995 -0.0261 -0.0321  0.2796
11180PP      PP21284   0.495   0.894   3.762  0.0649 -0.1755  0.1175
11181PP      PP21285   2.507   9.886  11.800 -0.1501  0.3356  0.0227
11182PP      PP21286  11.799   3.492   3.001  0.2709  0.0571 -0.1130
11183PP      PP21287   4.028   2.219   0.818  0.0450 -0.0450 -0.2672
11184PP      PP21288  12.007   5.240  12.074  0.4234  0.0168  0.0673
11185PP      PP21289   6.327  13.812   0.708  0.2066 -0.2278 -0.1990
11186PP      PP21290   9.630  12.503  13.221 -0.1038 -0.1622 -0.0980
11187PP      PP21291   0.851   3.502   0.726 -0.2261  0.2720  0.1115
11188PP      PP21292   6.158   0.988   0.351 -0.1490  0.4036 -0.0607
11189PP      PP21293   4.129  12.156  10.147 -0.0427 -0.1620  0.2421
11190PP      PP21294   5.464  14.147  10.948  0.2710  0.4881 -0.1743
11191PP      PP21295  14.778   0.874  11.823  0.0708  0.1692  0.2138
11192PP      PP21296   2.221  11.068  12.826  0.1283 -0.0903 -0.3713
11193PP      PP21297  12.863   2.585  11.447 -0.0658  0.1453 -0.1420
11194PP      PP21298  11.083  10.475   4.073  0.0317  0.3453 -0.0663
11195PP      PP21299   5.409  13.608   3.046  0.3054  0.0750  0.0441
11196PP      PP21300   3.099  14.281  13.414  0.1025  0.0605 -0.3585
11197PP      PP21301   1.890   6.574  10.023 -0.0695  0.0968 -0.1089
11198PP      PP21302   0.220   1.116  11.695 -0.0622  0.3119 -0.1271
11199PP      PP21303  15.615   6.259   0.304  0.2013  0.0983  0.0697
11200PP      PP21304   9.927   2.962  12.960  0.0714  0.1322 -0.2351
11201PP      PP21305  13.073   2.336  10.985 -0.0751  0.0267 -0.1000
11202PP      PP21306  13.325   4.539   3.676 -0.4238  0.1962 -0.3992
11203PP      PP21307   1.082   7.132  11.727 -0.0868  0.0479  0.2514
11204PP      PP21308   7.717  11.105  11.292 -0.0420  0.3282  0.1311
11205PP      PP21309  15.361  10.929  10.324  0.0099 -0.2551 -0.3263
11206PP      PP21310  10.356  10.361   9.297  0.2719 -0.1773 -0.0172
11207PP      PP21311   5.271  15.289   3.916 -0.0005  0.1875 -0.2284
11208PP      PP21312   1.386  12.046   0.486 -0.0556  0.0993  0.1681
11209PP      PP21313   7.278  14.092   0.964 -0.0153 -0.1508 -0.5308
11210PP      PP21314   6.371   4.574   1.957  0.0818 -0.0860 -0.0140
11211PP      PP21315   6.548  10.500   4.698  0.0129  0.0678  0.0829
11212PP      PP21316  11.647  11.993   2.631  0.1025  0.1303  0.1176
11213PP      PP21317   1.655  13.779  12.699 -0.2911 -0.3654 -0.2027
11214PP      PP21318  11.760   9.498   1.045 -0.1729  0.1212  0.1606
11215PP      PP21319   0.149  13.946   9.164  0.2204 -0.4108 -0.2523
11216PP      PP21320   4.547  12.055  11.017 -0.0464 -0.3059  0.1819
11217PP      PP21321   9.936   2.366   2.411 -0.4539  0.1848  0.0032
11218PP      PP21322  11.391   6.362   3.449 -0.2883  0.1692 -0.1977
11219PP      PP21323   4.828  10.780   2.675  0.0764  0.0026  0.1551
11220PP      PP21324  14.623   1.124   8.521  0.4741 -0.2414 -0.2374
11221PP      PP21325  15.260  10.628   2.643  0.2307 -0.0702  0.0159
11222PP      PP21326   8.930   5.289   3.728 -0.1797 -0.3331  0.0395
11223PP      PP21327   6.789  14.584  10.830 -0.2061 -0.0311  0.0931
11224PP      PP21328  12.228   3.991  13.412 -0.1865 -0.3735 -0.0071
11225PP      PP21329   9.290  15.777  11.193 -0.4594 -0.0626  0.1668
11226PP      PP21330  11.115  12.956   1.148  0.1873 -0.2869 -0.3648
11227PP      PP21331  11.790   7.966  13.094  0.2725 -0.1352  0.1452
11228PP      PP21332  11.289  15.068  12.463 -0.1180 -0.0790  0.3054
11229PP      PP21333  11.562  15.581   8.694 -0.1919 -0.1117  0.0074
11230PP      PP21334   1.098   6.842   1.948 -0.1495 -0.0868  0.3680
11231PP      PP21335   4.779   3.183   1.687 -0.1924  0.0630 -0.0621
11232PP      PP21336  12.863  10.263   0.946  0.1733 -0.0289 -0.1136
11233PP      PP21337   2.408   0.118   0.183  0.5213 -0.0536  0.1096
11234PP      PP21338  15.618   9.010  12.263 -0.0987 -0.2008 -0.0361
11235PP      PP21339   1.691   8.675  11.161  0.0873  0.5462  0.1293
11236PP      PP21340   5.394  15.754   3.225 -0.0277  0.3706 -0.2646
11237PP      PP21341   8.909   3.124   2.870  0.0362  0.2344 -0.2892
11238PP      PP21342   1.501   3.100   1.537 -0.3422  0.0567  0.0418
11239PP      PP21343  15.341   2.390   3.253  0.0197 -0.3195  0.3729
11240PP      PP21344  14.141   9.204   9.477  0.5172  0.1454  0.1320
11241PP      PP21345   9.000  14.967   3.963  0.1668 -0.0426  0.0508
11242PP      PP21346   9.366  14.682   0.830 -0.1875 -0.0518 -0.0259
11243PP      PP21347   2.601  12.149   9.094 -0.3729  0.2278 -0.2130
11244PP      PP21348   0.884   7.746   4.078  0.2678 -0.3055  0.0819
11245PP      PP21349   4.106   3.317   9.021  0.0061 -0.1884 -0.1064
11246PP      PP21350   7.318   9.533  11.924 -0.2323 -0.1706  0.1955
11247PP      PP21351   1.862  15.308  10.301 -0.1335  0.3980  0.1268
11248PP      PP21352   9.476   6.309   9.557 -0.2165  0.0337 -0.2158
11249PP      PP21353  11.182   5.620   9.760  0.0425 -0.1566 -0.1366
11250PP      PP21354  15.654   9.104   4.193  0.3576  0.0029  0.1485
11251PP      PP21355   1.305  10.551   2.790 -0.0845 -0.1339 -0.1184
11252PP      PP21356  12.753   6.921   8.633 -0.0814 -0.2235 -0.1573
11253PP      PP21357   0.832   9.157  12.327  0.1883  0.2450 -0.0444
11254PP      PP21358  13.255  15.316   8.114  0.2692 -0.1396  0.4945
11255PP      PP21359  11.447  14.954   0.241 -0.2860  0.1553 -0.4208
11256PP      PP21360   1.249  12.217  10.996  0.1412 -0.0792  0.4125
11257PP      PP21361  15.558   2.507   0.297  0.1652 -0.1033 -0.3317
11258PP      PP21362   1.920  13.080  11.329 -0.0714 -0.2528 -0.0255
11259PP      PP21363   5.312   1.273   3.362 -0.2568  0.1406  0.1596
11260PP      PP21364  15.324   6.617  12.993  0.4287 -0.1115  0.0751
11261PP      PP21365   3.042   2.561   8.828  0.1178 -0.0349 -0.0661
11262PP      PP21366   4.950   9.293  13.090  0.0432 -0.2239  0.2246
11263PP      PP21367   7.368   5.989   2.041  0.1480 -0.2153  0.0828
11264PP      PP21368  11.664   1.579   0.775 -0.0928  0.2085  0.2461
11265PP      PP21369   1.256   9.659   2.574 -0.0173  0.1098 -0.1336
11266PP      PP21370   6.628  10.538  13.460 -0.2281  0.1718 -0.0305
11267PP      PP21371   3.145   5.689  10.893  0.3280  0.2408  0.0324
11268PP      PP21372   3.076   8.570  11.718  0.0942 -0.0648  0.0352
11269PP      PP21373  13.770   3.234   1.168 -0.1806  0.2630 -0.0684
11270PP      PP21374   3.375  11.189  13.428  0.0704 -0.2985  0.3133
11271PP      PP21375  11.344   9.093   1.897  0.3567 -0.1321 -0.0874
11272PP      PP21376  11.452  15.709   0.526  0.0795 -0.0157 -0.0640
11273PP      PP21377   4.991   3.248   8.536  0.1827  0.1852  0.3626
11274PP      PP21378   3.844  12.382  13.072 -0.1469 -0.0337 -0.0552
11275PP      PP21379   6.668   7.080  10.786  0.0197  0.1255 -0.4607
11276PP      PP21380   4.428   9.864   2.497 -0.2069  0.4692 -0.2492
11277PP      PP21381  15.797   1.257  12.611 -0.0335 -0.0262 -0.1074
11278PP      PP21382   7.670   4.255   4.023  0.0692  0.0586  0.1809
11279PP      PP21383   7.925   5.414   1.057 -0.2012  0.2173 -0.1300
11280PP      PP21384   5.284   5.667   3.111 -0.0259 -0.0719  0.0257
11281PP      PP21385   1.417   3.032  10.375  0.1506 -0.0644  0.0041
11282PP      PP21386   6.968   5.892  12.870 -0.1361  0.0946 -0.3096
11283PP      PP21387  13.447   6.630   3.406  0.1356  0.0404 -0.1107
11284PP      PP21388   0.670   9.504   0.784 -0.1637  0.0168 -0.2899
11285PP      PP21389   0.415   5.820   2.897  0.0475 -0.0290 -0.0517
11286PP      PP21390  12.592   2.207  11.253 -0.1707  0.0050  0.0769
11287PP      PP21391   6.434   1.328   9.498  0.1262 -0.0283  0.2073
11288PP      PP21392  10.615   3.681   9.277  0.2948 -0.2648  0.1419
11289PP      PP21393   3.382   9.235   1.487  0.1433  0.2276  0.0560
11290PP      PP21394   3.802   7.426   3.881 -0.1309  0.0144  0.0329
11291PP      PP21395  12.554   0.939  12.833  0.1359  0.0779  0.2006
11292PP      PP21396   2.922   6.497   4.404 -0.2560 -0.0831 -0.1581
11293PP      PP21397   3.457  10.220   0.941  0.0313 -0.3736 -0.4338
11294PP      PP21398  13.549  12.234   2.299  0.2665 -0.2086  0.0705
11295PP      PP21399   9.512   1.578  12.843 -0.0160  0.2358 -0.2111
11296PP      PP21400   4.811   6.851   5.055 -0.3854 -0.2749 -0.0719
11297PP      PP21401   2.728   3.721   1.310 -0.0520 -0.0606  0.1175
11298PP      PP21402   7.369  14.449   1.612 -0.0136 -0.3078  0.0899
11299PP      PP21403   3.143   0.024  12.897 -0.0817 -0.1047  0.3648
11300PP      PP21404  13.517   5.577   8.511  0.2134 -0.2639  0.4850
11301PP      PP21405   6.877   9.410   9.845  0.2296  0.0031  0.4109
11302PP      PP21406   7.057   7.002  12.064 -0.0475  0.0225 -0.1558
11303PP      PP21407   1.576  10.062   4.576 -0.1008  0.1904  0.1538
11304PP      PP21408  10.696  11.356   2.550 -0.3012  0.1421  0.0228
11305PP      PP21409   1.655  13.353  11.020  0.5431  0.0603  0.2560
11306PP      PP21410   3.000   2.891  12.141 -0.1077  0.0907  0.2087
11307PP      PP21411  14.563   0.602   2.674  0.2736  0.2324  0.3359
11308PP      PP21412   4.010  14.701  10.777 -0.1886  0.1116 -0.3441
11309PP      PP21413  15.106   2.669  10.487  0.3104 -0.0860 -0.0270
11310PP      PP21414  15.295   2.135   0.049 -0.2372  0.2400  0.0065
11311PP      PP21415  11.310  15.220   8.897  0.1791 -0.1497  0.0176
11312PP      PP21416   4.514   9.071  11.717  0.0814 -0.3608  0.0345
11313PP      PP21417  13.716   1.228  11.250  0.1901  0.0949  0.2701
11314PP      PP21418  13.547   1.492   0.296  0.2356 -0.1486 -0.1290
11315PP      PP21419   0.469   7.088   3.692  0.2117 -0.0306  0.1443
11316PP      PP21420   1.941   6.680   1.948 -0.0547 -0.0704  0.0506
11317PP      PP21421  12.104   2.606   9.532  0.1663  0.1766  0.0461
11318PP      PP21422  15.790  10.467  12.064  0.2237  0.2195 -0.3559
11319PP      PP21423  12.740   6.083   9.252 -0.2752 -0.2796  0.3324
11320PP      PP21424   5.160   3.617  12.687 -0.3268  0.0317 -0.0233
11321PP      PP21425   2.224   6.247   2.575 -0.0807 -0.0841  0.0839
11322PP      PP21426  10.211  11.718  13.283 -0.0219 -0.3890  0.1672
11323PP      PP21427   8.989   2.747   9.934 -0.2797  0.0940  0.0558
11324PP      PP21428   6.310   4.975   0.975  0.2935 -0.3152 -0.2356
11325PP      PP21429  15.830   9.208  10.404  0.2076  0.1490  0.1254
11326PP      PP21430   4.259   5.675   2.311 -0.0933 -0.1401  0.0030
11327PP      PP21431  14.770   5.461   1.894  0.0349 -0.0243  0.0180
11328PP      PP21432   1.216   7.362   0.283  0.0163  0.2302 -0.0054
11329PP      PP21433  11.012   8.929   4.167  0.1033 -0.1310 -0.1301
11330PP      PP21434   4.482   2.033  10.600  0.0694 -0.0713  0.1641
11331PP      PP21435  13.914   8.695  12.087 -0.0598  0.0243  0.2469
11332PP      PP21436   2.868  15.549  10.249 -0.0938  0.0421  0.1601
11333PP      PP21437  12.927   6.640   1.996 -0.0251  0.4030  0.0181
11334PP      PP21438  15.494  14.831   4.253 -0.1890 -0.1267 -0.1636
11335PP      PP21439  13.169  13.739   0.267  0.4721 -0.1155  0.1630
11336PP      PP21440  12.689   5.302   8.308  0.0692 -0.3831  0.2712
11337PP      PP21441  14.156   0.136  12.213  0.2164  0.2954 -0.1357
11338PP      PP21442   7.524   2.576  10.216 -0.1076 -0.0954 -0.0122
11339PP      PP21443   2.125  11.223  10.135  0.2478 -0.0274 -0.2413
11340PP      PP21444   4.594   2.703   1.746 -0.0122 -0.2151  0.2662
11341PP      PP21445   0.264   5.198   9.789  0.2585 -0.2336  0.3997
11342PP      PP21446  14.371   6.787   1.043 -0.2424 -0.1347 -0.0487
11343PP      PP21447   1.459   1.274  12.615  0.2752 -0.1541  0.0219
11344PP      PP21448   8.066  10.209  10.672  0.0628  0.0662  0.1630
11345PP      PP21449   2.205  10.004  11.284  0.3805  0.0187  0.0698
11346PP      PP21450   0.536   9.908   4.248  0.1434 -0.1845  0.2316
11347PP      PP21451   8.215   9.788   1.837 -0.4618  0.1803  0.2176
11348PP      PP21452  11.314  13.503   8.804  0.2766  0.1844 -0.0743
11349PP      PP21453   0.558   6.428  10.390  0.0666 -0.3476 -0.1083
11350PP      PP21454   3.526  14.770   1.269  0.1997  0.3514  0.0252
11351PP      PP21455   6.988   3.907   1.667 -0.0363 -0.3197  0.0276
11352PP      PP21456  13.957   6.443   2.913 -0.1982 -0.0261  0.3906
11353PP      PP21457  12.034   0.787   9.662 -0.0732 -0.0922  0.0956
11354PP      PP21458  11.823   7.133   9.782  0.3115  0.0309  0.1387
11355PP      PP21459   4.611  13.760   4.259  0.2800  0.0810 -0.3223
11356PP      PP21460   1.534   6.044  13.058 -0.1358 -0.0960  0.0398
11357PP      PP21461   0.480  11.391  10.012  0.1801  0.0165  0.0226
11358PP      PP21462   9.452   0.901   3.949  0.1387 -0.0602 -0.0394
11359PP      PP21463  10.888  14.330  12.920  0.1231  0.3667  0.1167
11360PP      PP21464   1.664  12.734  10.501  0.0279 -0.1044  0.1922
11361PP      PP21465   6.977  15.343   3.056 -0.3233 -0.1631  0.0417
11362PP      PP21466   6.853  13.544   1.318 -0.1438  0.1443  0.1278
11363PP      PP21467   1.283   9.034   1.272 -0.0799 -0.0706 -0.2824
11364PP      PP21468  11.500  11.221  12.446  0.0836  0.5092 -0.2076
11365PP      PP21469   0.762   2.557   9.753 -0.1828 -0.0119  0.0560
11366PP      PP21470   2.742  13.589  11.448  0.3108 -0.0416 -0.0145
11367PP      PP21471  12.651  14.573  12.292  0.0832  0.1940  0.0244
11368PP      PP21472   4.253  14.700   1.727 -0.1479 -0.0367  0.0002
11369PP      PP21473   8.491   7.266  10.152  0.1122 -0.0998  0.1644
11370PP      PP21474   3.145   2.557   2.916  0.1781 -0.2298 -0.2039
11371PP      PP21475   1.946   2.084   0.487 -0.0422  0.0686  0.1996
11372PP      PP21476  13.958   4.469  10.957  0.0805  0.2087 -0.1360
11373PP      PP21477  10.997   8.765   1.700  0.1704 -0.2097  0.0610
11374PP      PP21478   3.381   7.592   2.483 -0.2493  0.2147 -0.2353
11375PP      PP21479   3.603   3.942   1.737 -0.0272 -0.5299  0.4646
11376PP      PP21480  15.366  14.680   1.459 -0.0361 -0.0283  0.1747
11377PP      PP21481   3.172  15.290  13.199 -0.2030 -0.3083 -0.1723
11378PP      PP21482  10.043   5.894   0.015 -0.1256  0.0032 -0.3197
11379PP      PP21483  12.677   4.991   9.263  0.0861 -0.1350  0.2447
11380PP      PP21484   9.124  13.034  11.196 -0.3102  0.1179 -0.2540
11381PP      PP21485   4.194   5.389   3.112  0.3023 -0.3496 -0.0062
11382PP      PP21486  12.285  12.864   8.249 -0.0151  0.3121  0.2154
11383PP      PP21487  12.768   3.529   0.368  0.1718 -0.0543 -0.1019
11384PP      PP21488  15.553  13.955   1.186 -0.1869  0.1158  0.0632
11385PP      PP21489   9.534   4.528   4.207 -0.0977  0.1901  0.1102
11386PP      PP21490   6.368   7.327   0.965 -0.1616 -0.0672  0.2252
11387PP      PP21491   9.904   8.495   3.932  0.0171 -0.2245 -0.2117
11388PP      PP21492   7.774  11.584   4.510  0.3402 -0.1459 -0.0107
11389PP      PP21493   5.872   3.693  13.014 -0.0643 -0.3307 -0.2518
11390PP      PP21494   5.115   6.141  11.505 -0.0418 -0.1461  0.0993
11391PP      PP21495   1.056  10.778  10.598 -0.1181 -0.1641 -0.1257
11392PP      PP21496   1.529  12.278   3.227  0.2288  0.2069  0.3217
11393PP      PP21497   5.411  11.511  12.508  0.1897  0.0392  0.0128
11394PP      PP21498   1.882   4.140   3.719  0.2162 -0.0319 -0.0290
11395PP      PP21499   9.538   8.396  12.777  0.0246 -0.3303  0.0626
11396PP      PP21500  15.361  10.730  12.830  0.0439  0.1099  0.0163
11397PP      PP21501   6.453  14.867   4.275 -0.0984  0.0419 -0.0271
11398PP      PP21502   3.448   5.748   3.484 -0.0702 -0.0964 -0.0045
11399PP      PP21503   6.841  14.833   1.177 -0.1227 -0.3652 -0.1359
11400PP      PP21504   3.627   7.405   1.501  0.1933 -0.0539  0.1221
11401PP      PP21505  13.838  14.335   0.327  0.4289  0.1526  0.1474
11402PP      PP21506  13.801   0.958   4.210  0.1544 -0.0509  0.0231
11403PP      PP21507   4.973  14.840  11.891  0.0786  0.3698 -0.1775
11404PP      PP21508  13.136   1.132   0.581 -0.0684 -0.0619  0.1246
11405PP      PP21509   0.459   0.538   2.216  0.3002 -0.2844  0.0912
11406PP      PP21510  14.561   5.617  12.580  0.0609 -0.0786  0.0134
11407PP      PP21511  15.446  12.968  10.385  0.1021 -0.1658  0.0707
11408PP      PP21512   2.247   1.911   8.270 -0.0809  0.1298  0.0622
11409PP      PP21513   8.527  13.136  12.995  0.1635  0.1706  0.0090
11410PP      PP21514   8.495   7.936   4.983 -0.2047 -0.0585  0.0640
11411PP      PP21515   9.454   3.726   9.227 -0.0593 -0.2609  0.0702
11412PP      PP21516  14.440   7.098  10.758 -0.2244  0.0939 -0.0135
11413PP      PP21517   1.645   9.703   2.183 -0.1354 -0.2302  0.2036
11414PP      PP21518   7.246   8.627   3.758  0.2468 -0.2595 -0.0335
11415PP      PP21519  10.806   4.022   8.770  0.0156  0.0382 -0.0596
11416PP      PP21520   3.558   3.264  11.759 -0.1963 -0.4618 -0.1050
11417PP      PP21521   9.106  14.301   0.130 -0.2256 -0.2427 -0.0105
11418PP      PP21522   0.792   2.745   2.199  0.2419 -0.1269  0.1240
11419PP      PP21523   3.326   5.896  12.469  0.0234 -0.0151  0.1719
11420PP      PP21524   9.719   5.538  10.038 -0.0615  0.2155 -0.0831
11421PP      PP21525   7.784   6.600   1.237 -0.1025  0.1285 -0.0731
11422PP      PP21526  12.592   3.354  12.922 -0.0645 -0.3646 -0.0841
11423PP      PP21527   4.764  14.755  10.062  0.1188 -0.0246 -0.1995
11424PP      PP21528  11.125  14.851   1.675 -0.0955  0.1509  0.1067
11425PP      PP21529   3.270   5.405   1.986  0.0383 -0.2742  0.2336
11426PP      PP21530   5.269   4.898   3.276 -0.0226 -0.0038  0.1342
11427PP      PP21531   3.066  12.502  10.719  0.2835 -0.2304 -0.1449
11428PP      PP21532   1.752   7.715   1.656 -0.1267  0.1125 -0.3376
11429PP      PP21533  12.293  15.458  12.590  0.2597 -0.0121 -0.0725
11430PP      PP21534   3.729  13.284  11.862  0.0312 -0.4269  0.2166
11431PP      PP21535   3.822   0.477   2.622 -0.1039 -0.0061  0.2264
11432PP      PP21536   1.101   8.581  13.076  0.2001 -0.3021  0.0924
11433PP      PP21537   9.239   1.954  12.058 -0.1461  0.0246 -0.2871
11434PP      PP21538   4.809   7.518   9.470 -0.1267 -0.2968 -0.0885
11435PP      PP21539   8.595  10.329  11.663  0.0049 -0.0758 -0.1587
11436PP      PP21540  14.177   1.241   1.892  0.5727 -0.1324  0.0156
11437PP      PP21541   9.321   6.670   3.505  0.1479 -0.1011 -0.0696
11438PP      PP21542   3.999  15.702   2.612  0.0639 -0.0748 -0.1298
11439PP      PP21543   7.699  12.191   2.399 -0.3628  0.1950  0.2931
11440PP      PP21544   9.459   4.401   0.911 -0.0267 -0.2505 -0.0787
11441PP      PP21545   1.565  13.404  13.143 -0.1409 -0.0941  0.1304
11442PP      PP21546   7.043  15.492   3.824 -0.2005 -0.0761  0.0413
11443PP      PP21547  13.412  10.206   3.166 -0.0289  0.0529  0.0470
11444PP      PP21548   9.129  10.210   4.816  0.1086  0.0688  0.0778
11445PP      PP21549  13.603  11.249   0.520  0.3398 -0.0040 -0.0402
11446PP      PP21550   8.656   2.119  12.960 -0.0573  0.4371  0.3570
11447PP      PP21551   8.367  13.920   1.162 -0.0727 -0.2609  0.2699
11448PP      PP21552   3.866  12.578  10.050  0.0866 -0.1032  0.0158
11449PP      PP21553   3.003  14.417  12.058  0.2611  0.2881 -0.3707
11450PP      PP21554  10.282  10.462   9.768 -0.2174  0.1040  0.0724
11451PP      PP21555   2.052   6.176   1.714 -0.0402  0.2268  0.3492
11452PP      PP21556  13.665   7.134  12.433 -0.2258 -0.0668  0.2523
11453PP      PP21557   0.072  13.090  11.352  0.0942  0.1532  0.2167
11454PP      PP21558   2.482   0.680   2.968  0.0223  0.1607  0.1726
11455PP      PP21559   6.557   8.418   2.537  0.2097 -0.2718  0.0490
11456PP      PP21560  11.274   2.597  12.925  0.1066  0.1659  0.0439
11457PP      PP21561  14.395  10.030  13.130 -0.1212 -0.0822  0.0119
11458PP      PP21562   5.215   2.412   2.746 -0.1729 -0.1302 -0.0746
11459PP      PP21563   4.682   2.264  12.884 -0.0171  0.1040  0.3047
11460PP      PP21564   0.164  10.064  12.965  0.0786  0.0453  0.1539
11461PP      PP21565  10.194   4.676   9.325  0.0584 -0.2186  0.0997
11462PP      PP21566  10.873  12.767   2.871 -0.2096  0.5363  0.0274
11463PP      PP21567   3.678   6.289   5.162  0.1807 -0.2082 -0.0075
11464PP      PP21568  11.395   6.786   4.129  0.2531 -0.3743  0.0615
11465PP      PP21569  12.841   0.624  12.973 -0.0731  0.1891 -0.1026
11466PP      PP21570   6.330   3.447  10.180 -0.1401  0.0838  0.0572
11467PP      PP21571   5.371  13.600  11.163  0.2321 -0.4325 -0.1497
11468PP      PP21572  14.645  10.469  13.145 -0.2750 -0.3371  0.2054
11469PP      PP21573   3.136   1.929   2.861  0.1317 -0.2624  0.0714
11470PP      PP21574   7.869   6.680  10.310  0.0366 -0.0202 -0.0690
11471PP      PP21575  12.344  13.110  11.816  0.3821  0.1375  0.3643
11472PP      PP21576   3.641   0.835  13.474 -0.0070 -0.1170  0.2991
11473PP      PP21577   6.406  11.934  13.121  0.2068  0.2828 -0.0800
11474PP      PP21578  10.003   1.518  11.960 -0.1769  0.0480 -0.0501
11475PP      PP21579  11.299  14.962   9.323  0.0666  0.0228 -0.0283
11476PP      PP21580   9.936  14.194   2.810  0.2031  0.3061  0.1107
11477PP      PP21581   9.357   4.032   2.706  0.1834  0.0610  0.0159
11478PP      PP21582   3.033  15.540  10.691 -0.1562 -0.1325 -0.0710
11479PP      PP21583  14.704  12.676   9.876 -0.0093  0.0525  0.1481
11480PP      PP21584  11.112  12.788  10.883  0.0254  0.1164  0.4371
11481PP      PP21585   9.937  14.281   0.246  0.2116  0.1217 -0.0891
11482PP      PP21586  15.203  14.594   3.646  0.1423 -0.3467 -0.0828
11483PP      PP21587   7.741  11.029  11.843  0.2260  0.1765 -0.1042
11484PP      PP21588   0.040   8.594   1.146  0.2533  0.1291  0.4292
11485PP      PP21589  13.812  12.180   3.309 -0.2830 -0.5521 -0.2006
11486PP      PP21590   4.542   4.625  10.572 -0.0402 -0.0155  0.1110
11487PP      PP21591   4.291  13.284   0.610  0.0607  0.0932  0.0377
11488PP      PP21592   2.421   9.494   1.585 -0.1134 -0.1730  0.2369
11489PP      PP21593  11.557  13.397   9.616  0.0742  0.0469  0.0824
11490PP      PP21594   3.219  12.684   1.493  0.0590 -0.1545 -0.0362
11491PP      PP21595  11.777   7.294  10.369  0.0685 -0.0044 -0.1097
11492PP      PP21596   5.411  10.914   0.294 -0.2262 -0.2103 -0.0383
11493PP      PP21597   1.987   1.070  10.754 -0.0982  0.0955  0.0032
11494PP      PP21598  10.565  10.979   1.656 -0.1711  0.1237  0.2685
11495PP      PP21599   6.198   5.240   9.587 -0.0588  0.0205  0.1007
11496PP      PP21600   3.648  10.848   9.983 -0.0552  0.4588  0.3226
11497PP      PP21601   7.529  12.468   5.173 -0.1805 -0.2587  0.1844
11498PP      PP21602  12.563   2.863  11.765 -0.2719 -0.0482 -0.0688
11499PP      PP21603  11.581   8.754  12.309  0.1156 -0.0249 -0.0176
11500PP      PP21604   1.770  10.642   0.997 -0.0888 -0.2003  0.0154
11501PP      PP21605   5.593   4.764  11.845 -0.1831  0.0957 -0.0580
11502PP      PP21606   0.210   3.122  13.455  0.0292  0.0004 -0.0535
11503PP      PP21607   2.081   8.324   4.542 -0.2953  0.1361  0.2700
11504PP      PP21608   1.497   6.254   4.737  0.1777  0.4385  0.0356
11505PP      PP21609   4.366  15.011  10.608 -0.0831 -0.0754 -0.0478
11506PP      PP21610   2.282   5.910   1.372 -0.0217  0.2103 -0.0401
11507PP      PP21611  12.539   6.114   1.921  0.1626  0.1428  0.0092
11508PP      PP21612   5.603   1.529   0.874 -0.3855 -0.2068 -0.1447
11509PP      PP21613   6.739   6.872   9.527 -0.0590  0.0462 -0.1649
11510PP      PP21614   3.988  14.166  12.942  0.1200  0.3964  0.1650
11511PP      PP21615   1.967   1.186   1.756 -0.0261 -0.2766 -0.0052
11512PP      PP21616  13.131   8.468   5.199 -0.0967 -0.0609  0.1941
11513PP      PP21617   5.709   7.504  10.337  0.0729 -0.0950 -0.1456
11514PP      PP21618  12.742  13.519  11.218 -0.2724 -0.0478  0.0760
11515PP      PP21619   0.324  11.664   3.074  0.2890 -0.1029  0.0772
11516PP      PP21620   6.579   0.291   8.235  0.0658  0.2176  0.1958
11517PP      PP21621   3.507   2.025   9.549 -0.1249 -0.0155 -0.3662
11518PP      PP21622   2.667   2.776   1.209  0.0360  0.1411  0.0550
11519PP      PP21623   6.436   5.412  10.124  0.1929 -0.2637  0.1335
11520PP      PP21624  12.224  10.429  10.042 -0.0626  0.0171  0.1281
11521PP      PP21625   7.728   4.014   0.192 -0.2518 -0.2625 -0.2482
11522PP      PP21626  13.068   3.835   3.180 -0.1288 -0.1208  0.2213
11523PP      PP21627  10.324   1.073  12.665  0.4852 -0.0289  0.3020
11524PP      PP21628  12.368   5.600  11.443 -0.0222 -0.1746  0.2778
11525PP      PP21629  11.788   4.188   8.515  0.0029  0.1167  0.0414
11526PP      PP21630   2.829   5.823  12.464 -0.1882 -0.0863 -0.2545
11527PP      PP21631  14.800   6.155   0.498  0.0033 -0.1399 -0.2947
11528PP      PP21632  13.619  10.502   2.852 -0.2676 -0.1486 -0.1456
11529PP      PP21633  12.578   9.372  11.330  0.1336 -0.1303 -0.0601
11530PP      PP21634  11.444   3.854  11.632  0.1018  0.1462  0.2152
11531PP      PP21635   4.906   5.783  10.715 -0.0742 -0.2006 -0.3014
11532PP      PP21636  11.585  11.517   8.430 -0.0934  0.1772  0.0904
11533PP      PP21637  13.945  11.907  10.658 -0.0524 -0.0751  0.3041
11534PP      PP21638  13.806  12.740   9.545  0.0459  0.1825 -0.2677
11535PP      PP21639   2.500   4.592  10.310  0.1119 -0.1484  0.1859
11536PP      PP21640   1.511  11.037  11.753  0.0359  0.2537 -0.0960
11537PP      PP21641   3.726   8.225   1.464 -0.1956 -0.3360 -0.0422
11538PP      PP21642  15.729  13.785  10.244  0.1927 -0.1802  0.1025
11539PP      PP21643   6.830   9.834   9.555 -0.1169  0.1809 -0.1042
11540PP      PP21644  10.129   9.889   2.473 -0.0258  0.0965 -0.0102
11541PP      PP21645   6.079   3.495   3.578  0.1115 -0.0093  0.4028
11542PP      PP21646   2.699  11.328  12.685 -0.1696 -0.4131  0.0528
11543PP      PP21647   5.829   2.269   0.914 -0.2931 -0.1667 -0.0840
11544PP      PP21648   5.050   7.318  10.747  0.1522  0.0540  0.1611
11545PP      PP21649   7.685   8.958   1.394  0.0698 -0.1932 -0.0473
11546PP      PP21650  10.210   1.890   1.577 -0.1781 -0.1165 -0.5488
11547PP      PP21651   6.080   7.674   0.166  0.1829 -0.2351  0.1466
11548PP      PP21652  11.597   9.570  12.974  0.1046 -0.0731 -0.2733
11549PP      PP21653   2.236   4.446   3.833 -0.1820  0.0461 -0.0811
11550PP      PP21654  15.351  11.028   1.946 -0.3450  0.3010  0.1070
11551PP      PP21655   2.984  14.214  10.150  0.0727 -0.2106 -0.1526
11552PP      PP21656   6.408  10.069   4.458 -0.4225  0.4004  0.0036
11553PP      PP21657   7.618   9.130  11.983 -0.2526 -0.2365 -0.1508
11554PP      PP21658   3.803  10.646  10.708 -0.0453 -0.3266 -0.3957
11555PP      PP21659   4.842  14.186   1.892 -0.2164 -0.0302  0.1301
11556PP      PP21660   0.987  12.420   1.500 -0.3115 -0.2455 -0.0943
11557PP      PP21661   3.735   1.861  10.269 -0.0964  0.2321  0.1500
11558PP      PP21662  12.636   3.758   2.885  0.3365  0.0975 -0.1869
11559PP      PP21663  15.625  10.838  12.364  0.2722  0.1084  0.1064
11560PP      PP21664  10.037  15.798   1.437  0.1428 -0.0509  0.0386
11561PP      PP21665   6.126   9.279  11.501 -0.0665  0.1564 -0.1550
11562PP      PP21666  12.069   4.783  11.431  0.0141 -0.2163 -0.0446
11563PP      PP21667   6.655   8.444  11.515  0.0900 -0.3499 -0.2475
11564PP      PP21668  11.554   2.343   0.628 -0.0852 -0.0387 -0.1412
11565PP      PP21669  10.526  13.996  13.199  0.1397  0.3294 -0.0675
11566PP      PP21670   6.524  11.692   0.430 -0.0449  0.0106 -0.0846
11567PP      PP21671  10.822   8.326  10.554 -0.1853 -0.1488  0.2549
11568PP      PP21672   4.455  12.374   9.649  0.3551  0.0887 -0.2880
11569PP      PP21673   5.956  13.273   0.119 -0.2197  0.0483  0.0560
11570PP      PP21674   2.183   8.348  11.165 -0.0412 -0.1586  0.1816
11571PP      PP21675  10.682   8.544   0.502 -0.2477  0.2217 -0.3819
11572PP      PP21676  12.610  12.478   2.081 -0.0041 -0.1458 -0.3483
11573PP      PP21677   6.128   1.249  11.961 -0.1546  0.0379 -0.1803
11574PP      PP21678   1.173  11.619   8.892 -0.2623 -0.0118 -0.2747
11575PP      PP21679   2.294  13.643   3.003 -0.0022 -0.1393 -0.1201
11576PP      PP21680  10.718   7.476   3.364  0.0068 -0.3722 -0.1017
11577PP      PP21681   4.601   6.108  11.530 -0.0417  0.1036 -0.0465
11578PP      PP21682  15.095   9.797   2.013 -0.1335  0.2993 -0.2396
11579PP      PP21683   0.611   7.196   1.091 -0.0723 -0.1192  0.0862
11580PP      PP21684   5.083  11.223   0.566  0.0113 -0.2152  0.2526
11581PP      PP21685   7.289  10.420   3.759 -0.1398  0.0130 -0.3605
11582PP      PP21686   0.819  10.515  11.492 -0.0609 -0.0278 -0.1811
11583PP      PP21687  10.005   3.837   3.615 -0.1787 -0.0907  0.1624
11584PP      PP21688   2.169   2.093  13.000  0.2816 -0.1978  0.0980
11585PP      PP21689   4.106   4.872   3.157 -0.1315  0.5571 -0.3616
11586PP      PP21690   3.448   9.309  10.962  0.1254 -0.0121 -0.0973
11587PP      PP21691   9.648   0.758  12.057  0.0714  0.2202  0.2015
11588PP      PP21692  14.273  13.798   7.728  0.1224 -0.0597 -0.2285
11589PP      PP21693   9.552  14.479  13.441  0.0931  0.1227 -0.2705
11590PP      PP21694   1.605   3.746  12.059 -0.1095 -0.1218  0.1423
11591PP      PP21695   8.906   6.353   3.505  0.1591  0.0934  0.1485
11592PP      PP21696   7.189   0.070   1.414  0.2902 -0.1159  0.1582
11593PP      PP21697  12.655   5.900  13.204  0.4001  0.2690 -0.0355
11594PP      PP21698   3.615  15.138   3.617  0.0557 -0.2752 -0.0107
11595PP      PP21699   3.146   1.740  10.452 -0.2556  0.0769 -0.1577
11596PP      PP21700   7.032  12.322   4.455  0.0118 -0.0603  0.1740
11597PP      PP21701   0.731   6.343   4.237 -0.1917 -0.2726 -0.2071
11598PP      PP21702   7.976   7.949   3.100 -0.0288  0.1837  0.0486
11599PP      PP21703   4.213  10.831  11.082 -0.0315  0.2128 -0.0169
11600PP      PP21704   9.020   1.940   4.305  0.0532  0.0550 -0.0266
11601PP      PP21705   7.115   2.353   9.537 -0.0307 -0.1081 -0.1027
11602PP      PP21706   6.650   0.884   1.525 -0.2228 -0.3798  0.0264
11603PP      PP21707   2.283  14.329   9.628  0.2931 -0.0113 -0.1420
11604PP      PP21708   2.383   0.231  10.736  0.1496 -0.1283 -0.3357
11605PP      PP21709  14.779  14.377   3.449  0.3595  0.2418  0.0088
11606PP      PP21710  15.410  11.421   1.487 -0.3145 -0.0549 -0.0138
11607PP      PP21711  13.224  15.823   0.083 -0.2012 -0.0620 -0.2193
11608PP      PP21712  10.843   8.728   2.839 -0.2658 -0.2270  0.0155
11609PP      PP21713  12.636  12.570   1.121  0.0532 -0.0334  0.0974
11610PP      PP21714  12.194  13.325   8.285  0.2406 -0.3210  0.0533
11611PP      PP21715   0.279   4.640  11.280 -0.0968  0.0600  0.2223
11612PP      PP21716  14.368  13.504   9.723 -0.0994 -0.0307  0.0673
11613PP      PP21717   4.851   5.098   3.540 -0.1256  0.0658 -0.2654
11614PP      PP21718   0.653  14.289   3.042 -0.1245 -0.2301  0.1661
11615PP      PP21719   2.302  11.165   3.651  0.3209  0.1020  0.1901
11616PP      PP21720   8.174   1.759   5.080  0.2029  0.0346  0.3648
11617PP      PP21721   2.109   3.961   9.588  0.2370 -0.1246 -0.0702
11618PP      PP21722   2.183  13.753  12.493 -0.0376  0.0355  0.2878
11619PP      PP21723   7.158   4.342   8.880 -0.0112  0.0405  0.2069
11620PP      PP21724   7.152   7.941  12.725  0.4268 -0.0110 -0.2183
11621PP      PP21725   8.165  10.054  12.230 -0.1478 -0.2368  0.1156
11622PP      PP21726  15.546   8.651  11.509 -0.0364 -0.1425 -0.0448
11623PP      PP21727   3.633   4.273  10.100 -0.3065 -0.0581  0.0329
11624PP      PP21728   3.479  14.390  12.094 -0.1705  0.1326 -0.1201
11625PP      PP21729  11.000  11.571  12.219  0.2995 -0.1123  0.2912
11626PP      PP21730   3.503   2.229   3.216  0.0289  0.2190  0.0485
11627PP      PP21731  13.481   1.780  10.240 -0.2573 -0.3446 -0.0919
11628PP      PP21732   0.321   4.382   4.516  0.0875  0.0189  0.1056
11629PP      PP21733  12.172   5.613   2.555  0.2961  0.1274 -0.2289
11630PP      PP21734  14.478   5.728   0.777 -0.2334  0.1254 -0.0883
11631PP      PP21735   9.773  11.110   9.622 -0.0278 -0.4195  0.2747
11632PP      PP21736   1.865  11.515   1.185  0.0275 -0.3287 -0.0436
11633PP      PP21737   3.594   6.989   2.645  0.3483  0.2166  0.0219
11634PP      PP21738   3.412   8.378  10.865 -0.1019 -0.0548 -0.1666
11635PP      PP21739  12.920   6.876   0.247  0.1763  0.1396 -0.0927
11636PP      PP21740   8.577   9.752   0.591  0.4460  0.1900 -0.0510
11637PP      PP21741  11.936   8.385   0.746  0.1434 -0.0123 -0.2282
11638PP      PP21742  15.222   3.955  12.116 -0.1084 -0.3540  0.0247
11639PP      PP21743  10.950  12.723   0.151 -0.0425  0.1239  0.1503
11640PP      PP21744  11.753   5.758   8.893 -0.3101  0.4751 -0.1887
11641PP      PP21745   2.599  12.198  13.108  0.1460  0.1322  0.1787
11642PP      PP21746  12.195   7.094  10.602 -0.0331 -0.0854 -0.0028
11643PP      PP21747  13.013   8.620  10.015  0.3419 -0.1082  0.0961
11644PP      PP21748  15.654   1.803   1.812 -0.2512  0.3180  0.3264
11645PP      PP21749   1.894   4.976  13.024 -0.0025  0.1983  0.1577
11646PP      PP21750   1.729  13.695  10.603  0.1716  0.0455  0.1104
11647PP      PP21751   3.257   3.732   3.311  0.0007  0.0911 -0.0794
11648PP      PP21752   8.432   1.095   0.844  0.2427 -0.1541  0.3465
11649PP      PP21753  14.635   8.990  11.525  0.3064  0.0613 -0.2175
11650PP      PP21754   0.218   2.729  13.171  0.0639  0.3622  0.0275
11651PP      PP21755   5.312   3.931   2.361 -0.1182  0.3399 -0.2652
11652PP      PP21756   3.936   6.244  10.831  0.0204 -0.0045 -0.0133
11653PP      PP21757   5.857   0.283   1.423 -0.3266 -0.2062  0.0246
11654PP      PP21758   3.359   6.087   4.817  0.1184 -0.2169 -0.2550
11655PP      PP21759   8.380   5.704   1.123 -0.1607 -0.1551 -0.0678
11656PP      PP21760   1.308   8.299   9.219  0.0716  0.0829 -0.2725
11657PP      PP21761   6.119   6.216  12.459  0.2772 -0.0428  0.1189
11658PP      PP21762  13.073   8.213  11.509 -0.1145 -0.1647 -0.1313
11659PP      PP21763  12.291   1.888  11.473  0.2875  0.1506 -0.2000
11660PP      PP21764  10.786   8.146  12.598  0.4003  0.1923 -0.0263
11661PP      PP21765  10.674   9.510   3.431 -0.2066 -0.1754  0.2867
11662PP      PP21766  11.089   3.578  10.062  0.2378  0.1490  0.0735
11663PP      PP21767   4.786   4.256  12.384  0.3220  0.0241  0.0525
11664PP      PP21768  11.398   3.329   3.476 -0.4175 -0.1966  0.0635
11665PP      PP21769  12.137  12.375   3.044  0.0261  0.0878  0.1380
11666PP      PP21770   5.391   2.772   9.314  0.1122  0.1882  0.1790
11667PP      PP21771   8.049   4.244   2.784 -0.1009  0.3114 -0.0634
11668PP      PP21772   6.217  10.653  10.048 -0.0292  0.1628  0.0065
11669PP      PP21773   8.936   4.671  12.264 -0.1158  0.1184 -0.0304
11670PP      PP21774   3.554   5.562  12.224 -0.0615 -0.1319 -0.1222
11671PP      PP21775  11.017   6.849  11.170 -0.4191 -0.0419 -0.2327
11672PP      PP21776   8.349  15.211  10.866 -0.0606 -0.0736  0.0745
11673PP      PP21777   5.305  10.195   4.807 -0.1526  0.0084 -0.2729
11674PP      PP21778  11.106   1.563   1.226  0.2246 -0.3046 -0.0954
11675PP      PP21779   0.889   8.354   3.811 -0.1851 -0.2477 -0.2220
11676PP      PP21780   8.322  14.070   1.663  0.1668 -0.0275  0.1323
11677PP      PP21781   8.879   1.354  10.996  0.2040 -0.1667 -0.1560
11678PP      PP21782  12.467   4.640   0.643 -0.1152 -0.1490  0.4948
11679PP      PP21783  12.629  12.117  13.312 -0.3232 -0.2312  0.1401
11680PP      PP21784   6.404   6.346   0.916 -0.1610  0.0729 -0.0806
11681PP      PP21785  10.690  11.368   4.456 -0.0214 -0.0068  0.2734
11682PP      PP21786   7.277   6.334  11.400  0.0129  0.0135  0.1443
11683PP      PP21787   8.680   6.745   2.260  0.0320  0.1151  0.0662
11684PP      PP21788   3.395   3.243   9.770 -0.1187  0.0999 -0.3598
11685PP      PP21789   0.106  11.681   2.408 -0.1351 -0.0568 -0.2910
11686PP      PP21790  15.872   4.552   3.626 -0.2484 -0.3220  0.0022
11687PP      PP21791   1.340   6.001  10.095 -0.1079 -0.0215 -0.0045
11688PP      PP21792   6.746   5.043   2.064 -0.0248  0.2141  0.1319
11689PP      PP21793   0.534  11.024   2.560  0.0751 -0.1793 -0.1650
11690PP      PP21794   2.676   3.223   0.375 -0.1351 -0.1276  0.0924
11691PP      PP21795   1.131   7.141   1.083 -0.0376 -0.3119  0.2757
11692PP      PP21796   9.501  13.046  10.263 -0.0446  0.0215  0.2298
11693PP      PP21797   1.201  12.632  11.789  0.0526 -0.0196 -0.1108
11694PP      PP21798   3.147   2.536   0.437  0.1630  0.1080 -0.2354
11695PP      PP21799  13.473  10.924  12.431  0.2922 -0.2516 -0.3332
11696PP      PP21800  13.248  14.795  12.175 -0.2590  0.2263 -0.1756
11697PP      PP21801  11.851  10.611   2.027  0.0307 -0.0187 -0.0379
11698PP      PP21802   0.136  15.788  11.618 -0.1338  0.2410  0.1532
11699PP      PP21803   9.983   6.997   4.111 -0.1065 -0.0809  0.3025
11700PP      PP21804   4.789   0.718   3.752 -0.0037 -0.2293 -0.3103
11701PP      PP21805  15.240  10.297   1.872 -0.2193 -0.0928  0.0031
11702PP      PP21806   4.974  10.764   9.169  0.0207 -0.1518  0.2428
11703PP      PP21807   2.960   0.328   9.026 -0.2073 -0.0716  0.1622
11704PP      PP21808   5.043  10.424   2.332  0.0191 -0.4911  0.0708
11705PP      PP21809   9.626   9.379   1.481 -0.0629 -0.0326 -0.0330
11706PP      PP21810   7.024   3.339   3.733  0.1466  0.1403  0.0266
11707PP      PP21811   1.767  11.713   0.395  0.2356 -0.3768 -0.2297
11708PP      PP21812   6.691   0.725   1.035 -0.1219 -0.2607  0.0062
11709PP      PP21813  11.770   8.763   3.598 -0.1153 -0.0383 -0.0198
11710PP      PP21814   5.031   7.404   2.848 -0.3235  0.3905 -0.0907
11711PP      PP21815   5.173   2.431   3.240 -0.0183 -0.0875 -0.0048
11712PP      PP21816  15.139   2.176  12.713  0.5860 -0.0277 -0.2152
11713PP      PP21817   3.398   4.999   0.391 -0.0918  0.2825  0.2785
11714PP      PP21818  12.083  12.926   0.745  0.0269  0.0548 -0.4163
11715PP      PP21819   2.312   9.239  10.306  0.0975  0.0882 -0.1536
11716PP      PP21820  10.868   5.966   2.133 -0.0348  0.0178  0.0579
11717PP      PP21821   1.793  11.508   2.007 -0.2604 -0.0270  0.3591
11718PP      PP21822   0.773  11.532   1.510  0.0960  0.2804  0.0404
11719PP      PP21823  12.220   0.308   2.819  0.3290 -0.0408  0.1472
11720PP      PP21824   8.770   4.113   1.587  0.0114 -0.1355 -0.1707
11721PP      PP21825  14.803   5.246  10.164  0.2683 -0.1875  0.2074
11722PP      PP21826   2.482  10.319   1.481  0.3580 -0.1104  0.0206
11723PP      PP21827  15.642   9.010   2.403 -0.2219 -0.5123  0.1808
11724PP      PP21828   1.741  12.587   9.415  0.1207  0.0692  0.2565
11725PP      PP21829   4.061   2.584   3.662  0.0768 -0.0825  0.1398
11726PP      PP21830   9.206  15.641  13.137 -0.3233 -0.0561  0.3353
11727PP      PP21831  15.297   0.937  11.961 -0.1088 -0.0880  0.0987
11728PP      PP21832  12.433   1.934  12.556  0.2839 -0.1829 -0.1790
11729PP      PP21833  10.484   9.314   1.692  0.1718 -0.0360  0.0771
11730PP      PP21834  12.129   0.402  12.677  0.0110 -0.4186 -0.3678
11731PP      PP21835  13.164   7.824  11.911 -0.0230 -0.1698  0.1283
11732PP      PP21836   8.693   1.298   5.475 -0.1941 -0.3052 -0.1902
11733PP      PP21837  11.119   1.693   2.428 -0.1437  0.0068 -0.0432
11734PP      PP21838   6.215   2.015  11.095 -0.2514  0.1127  0.3439
11735PP      PP21839   0.071  14.283  13.290  0.3248 -0.1388  0.1049
11736PP      PP21840   3.308  10.826   9.600 -0.0710 -0.0882 -0.4123
11737PP      PP21841   2.092   3.864   2.488  0.0027  0.0315  0.1877
11738PP      PP21842   0.610  10.614   8.911  0.1129  0.1978 -0.0973
11739PP      PP21843   1.915   9.562  12.930 -0.1911  0.0995 -0.3112
11740PP      PP21844   0.581   4.403   0.284  0.2915  0.1242  0.2174
11741PP      PP21845   7.502  12.213   0.396 -0.2673 -0.2513 -0.0235
11742PP      PP21846   1.435   4.046  10.378 -0.0903  0.0361 -0.0513
11743PP      PP21847  15.802   2.246   9.716  0.0655  0.1217 -0.3075
11744PP      PP21848  10.365   1.844   9.135 -0.2679 -0.0068 -0.0247
11745PP      PP21849  13.996   2.036   7.874 -0.0386 -0.5063 -0.0588
11746PP      PP21850   7.059  10.492  11.887  0.0859  0.0415 -0.3334
11747PP      PP21851   1.820  12.573   0.145  0.2398 -0.0848 -0.1257
11748PP      PP21852  12.167  11.429   1.788  0.3474  0.4048  0.3104
11749PP      PP21853   5.468   3.255  13.034  0.0441  0.0961 -0.1357
11750PP      PP21854   4.677  11.789   3.934 -0.1321 -0.1713 -0.2041
11751PP      PP21855   3.880   0.367   0.656  0.1300 -0.1590  0.1632
11752PP      PP21856  13.353   4.377   1.473 -0.0972  0.1927  0.1070
11753PP      PP21857   3.473   4.989   9.081 -0.2651  0.0275  0.1421
11754PP      PP21858  10.189   4.276  11.585  0.0314  0.0426  0.2369
11755PP      PP21859   3.752   4.859  11.371 -0.0410  0.0168  0.2391
11756PP      PP21860   8.055   9.078   3.881 -0.0331 -0.1287 -0.3572
11757PP      PP21861  13.370   0.707  11.972  0.0262 -0.1260  0.4851
11758PP      PP21862  11.174  15.538  10.605 -0.2396 -0.1955  0.2090
11759PP      PP21863   1.435   3.368   0.035 -0.0602 -0.1233  0.2050
11760PP      PP21864  14.259  14.577   9.814 -0.1165  0.2875 -0.1000
11761PP      PP21865  10.928   5.300   0.985 -0.2172 -0.0366 -0.3056
11762PP      PP21866   7.753  13.440  10.542  0.0987  0.0512  0.0318
11763PP      PP21867   7.632  13.381   0.137  0.0446 -0.0676 -0.0283
11764PP      PP21868   1.751   4.139   2.813 -0.4594 -0.1807 -0.3296
11765PP      PP21869  15.636   8.566  12.539 -0.0419 -0.0160 -0.1907
11766PP      PP21870   0.048  11.458   9.143 -0.1283  0.0031  0.0307
11767PP      PP21871   9.280   8.786  12.619 -0.1220  0.1373 -0.2250
11768PP      PP21872   3.568   7.152   0.676 -0.2789 -0.0802  0.0375
11769PP      PP21873   1.197  10.502   0.489  0.1555  0.1955 -0.5850
11770PP      PP21874  13.662   4.564  11.544  0.3460 -0.0760  0.0008
11771PP      PP21875  11.552   6.090  13.094 -0.0089  0.2451  0.3162
11772PP      PP21876   6.221  14.675   3.221 -0.1108 -0.0806  0.4553
11773PP      PP21877  12.588  11.607  12.078 -0.1776 -0.4534 -0.2908
11774PP      PP21878  13.290  13.644   9.554  0.1944 -0.0532 -0.3019
11775PP      PP21879  12.731   2.976  10.330 -0.2590  0.2833 -0.1157
11776PP      PP21880   3.347   1.429   1.112  0.0390  0.0641 -0.0270
11777PP      PP21881  14.156   8.146   1.579  0.0758  0.3659 -0.2819
11778PP      PP21882  10.822   3.434   0.585  0.1908 -0.1120  0.2227
11779PP      PP21883  12.168  12.700   0.218 -0.2560 -0.1049 -0.1890
11780PP      PP21884   0.538   5.985   9.417  0.0674  0.3949 -0.2718
11781PP      PP21885   8.472   4.875  11.390 -0.0493 -0.2057 -0.1497
11782PP      PP21886   7.426  12.606   4.645 -0.2027  0.1768  0.0291
11783PP      PP21887   2.127   1.008   2.915  0.0359  0.3730  0.0674
11784PP      PP21888   3.492   0.171  11.926 -0.2037  0.1503 -0.1900
11785PP      PP21889  15.831   0.853  11.472  0.0198 -0.1340  0.1434
11786PP      PP21890   3.706   6.145   9.445 -0.2567  0.3340  0.1174
11787PP      PP21891   1.603   5.083  10.367 -0.0541  0.1502  0.0803
11788PP      PP21892   3.820   9.003  10.071 -0.4379  0.0779  0.2421
11789PP      PP21893  12.100   6.080   8.742  0.0928  0.2772 -0.1138
11790PP      PP21894  13.627   3.767   1.736  0.2545  0.1422  0.3675
11791PP      PP21895  15.402   0.622  11.131 -0.4965 -0.1521  0.3107
11792PP      PP21896   6.860   2.349   8.136  0.0198  0.0245  0.0133
11793PP      PP21897   8.628   8.079   1.397  0.4586  0.1979  0.0948
11794PP      PP21898   1.834   9.251   8.611 -0.4085  0.1508  0.0717
11795PP      PP21899   8.897   7.625   0.601 -0.1705 -0.2372 -0.0156
11796PP      PP21900   9.388   7.478   0.143  0.2026  0.0288 -0.2156
11797PP      PP21901   3.929   8.552   1.773 -0.1268  0.1691 -0.2160
11798PP      PP21902   0.498   1.882   4.128  0.0064 -0.2320  0.1124
11799PP      PP21903   8.983   7.336   1.077 -0.0339 -0.0348 -0.3126
11800PP      PP21904  12.978   2.353   3.380 -0.0083  0.1598 -0.1066
11801PP      PP21905  13.308  10.876  10.254 -0.0042 -0.0850 -0.2455
11802PP      PP21906   2.225   9.782  10.170  0.0849 -0.0260 -0.2958
11803PP      PP21907  15.682  12.313   3.131  0.1025  0.0501  0.0465
11804PP      PP21908   5.154   8.053  12.822  0.3800  0.2664  0.0446
11805PP      PP21909   9.524   1.080  12.880 -0.3107  0.2349  0.1258
11806PP      PP21910  15.155   4.317  10.126 -0.0513 -0.0482 -0.1387
11807PP      PP21911   7.745  12.158   4.843  0.0901  0.1379  0.2998
11808PP      PP21912   1.499   3.088   2.852 -0.0078  0.2078  0.1425
11809PP      PP21913   3.553   3.779   9.861  0.0905  0.2796  0.0824
11810PP      PP21914  15.452   4.347   3.833 -0.2988 -0.0140 -0.2317
11811PP      PP21915  14.559  15.248  13.266  0.1776  0.2095 -0.1836
11812PP      PP21916   4.279  10.979  10.506 -0.0570 -0.0294  0.0233
11813PP      PP21917   7.252   6.393   0.358 -0.1095 -0.2967 -0.3533
11814PP      PP21918   5.218   7.399  10.220  0.0523  0.0826  0.0165
11815PP      PP21919  14.360   1.850   3.593  0.2128 -0.0815 -0.3368
11816PP      PP21920   9.549  13.803   1.384 -0.1122 -0.2965 -0.0462
11817PP      PP21921   4.979   8.598  10.332  0.1704  0.3685  0.0189
11818PP      PP21922  12.433   3.124   3.725  0.2910 -0.1813 -0.4133
11819PP      PP21923   9.185  15.589   2.622  0.0667  0.2819  0.0314
11820PP      PP21924   0.278   1.556  10.201 -0.0103  0.0995 -0.5040
11821PP      PP21925   2.412  10.946   2.631 -0.2513  0.0513 -0.0427
11822PP      PP21926   0.505  11.120   1.438  0.1736  0.2823  0.1489
11823PP      PP21927  10.954  12.516  11.891 -0.4329 -0.1696 -0.0406
11824PP      PP21928  14.062   1.142  10.716 -0.5318 -0.2360  0.0541
11825PP      PP21929  14.557   3.790  11.995 -0.0720 -0.0472 -0.2179
11826PP      PP21930   4.817   2.927   9.546  0.0563  0.1360 -0.1431
11827PP      PP21931   2.145  13.804  12.011  0.0661  0.0260 -0.0137
11828PP      PP21932   1.995   1.825   9.211 -0.0460 -0.0196  0.0684
11829PP      PP21933  12.918  12.817   3.406  0.3849 -0.1804 -0.3632
11830PP      PP21934   4.635  13.202   0.208 -0.1256  0.0976  0.1199
11831PP      PP21935  10.874   9.526   0.264  0.1024  0.1382  0.0436
11832PP      PP21936  12.962  15.605  10.589 -0.0221 -0.0883  0.0479
11833PP      PP21937   2.587   1.244   1.135 -0.1469 -0.1803 -0.0965
11834PP      PP21938   2.574   5.570   0.429 -0.1131 -0.2420  0.3662
11835PP      PP21939  13.844  14.100   3.028 -0.4543  0.2166 -0.2041
11836PP      PP21940  13.104  13.921  11.188 -0.1920  0.1498 -0.1742
11837PP      PP21941   1.931  11.820   2.467  0.2632 -0.1517 -0.1914
11838PP      PP21942  11.710  10.800   0.163 -0.2989 -0.0651 -0.1588
11839PP      PP21943   9.276  15.043  10.941 -0.0266  0.1182  0.0247
11840PP      PP21944   1.595  10.507   1.634 -0.1941 -0.2716 -0.0337
11841PP      PP21945   5.861   8.085   0.530  0.0425  0.1679  0.1648
11842PP      PP21946   6.423   5.381   1.813 -0.2167 -0.0246 -0.0282
11843PP      PP21947   5.269   3.721   8.493  0.0416 -0.2453  0.0765
11844PP      PP21948  14.218   6.844   8.899 -0.0712  0.1902 -0.2345
11845PP      PP21949   0.384  12.625   2.311  0.2035 -0.1920 -0.3021
11846PP      PP21950   7.520  11.398   2.290 -0.1987  0.0100  0.1467
11847PP      PP21951   2.931  10.929   1.932 -0.2664 -0.3548  0.0588
11848PP      PP21952   4.623   7.570  11.457 -0.1259  0.0715 -0.2637
11849PP      PP21953   4.307   3.718   8.594 -0.1087  0.0199 -0.2511
11850PP      PP21954   6.031   0.248   0.936  0.3045  0.0589  0.1945
11851PP      PP21955   4.746  11.233   3.075  0.0059  0.4152 -0.2161
11852PP      PP21956  12.788  10.804   0.950 -0.1316 -0.1947 -0.1897
11853PP      PP21957  10.536   5.845   3.828 -0.0116  0.3165 -0.1664
11854PP      PP21958   7.427   8.368   2.846 -0.0892 -0.0687  0.0438
11855PP      PP21959   7.776   3.645  11.919 -0.0468  0.0016 -0.0524
11856PP      PP21960   6.484   8.736   2.999 -0.0135  0.0876 -0.3455
11857PP      PP21961   6.532   1.326   0.171 -0.2235  0.3243  0.2442
11858PP      PP21962   7.321   8.136  11.640 -0.0914 -0.0968  0.1561
11859PP      PP21963   0.432   0.320   3.871  0.1496  0.0760 -0.0258
11860PP      PP21964  15.581   5.284   3.842 -0.0222 -0.0857 -0.0418
11861PP      PP21965   5.041   5.580   9.478  0.1083 -0.1136 -0.0446
11862PP      PP21966   2.561   8.518  12.518 -0.1205 -0.0100  0.2161
11863PP      PP21967   3.956   9.843   0.923  0.2440  0.0803  0.1636
11864PP      PP21968   8.325  15.336  13.411 -0.0129 -0.1850  0.0181
11865PP      PP21969  10.021   1.953   0.470 -0.1799 -0.1558  0.0719
11866PP      PP21970  12.778  15.659  12.070 -0.0367  0.0286  0.2375
11867PP      PP21971   3.218  11.268   3.685 -0.3465 -0.0631  0.2524
11868PP      PP21972   2.803   1.020  10.140 -0.1539 -0.4789  0.0703
11869PP      PP21973   4.169   9.323   4.447  0.0445  0.2179  0.2109
11870PP      PP21974   7.161  11.337   5.375 -0.1473  0.1719  0.0272
11871PP      PP21975  10.333  15.773   0.585  0.0941 -0.0550 -0.1157
11872PP      PP21976  10.854   9.001   0.148 -0.0616  0.0597  0.0467
11873PP      PP21977   8.304  14.834  11.214  0.0925 -0.2340 -0.3289
11874PP      PP21978   8.851   6.066  12.086  0.0817 -0.1936 -0.0294
11875PP      PP21979  14.040   8.319   9.317  0.2756  0.0736  0.0146
11876PP      PP21980   1.325  10.109  12.943 -0.1659  0.0394 -0.1740
11877PP      PP21981   8.579  13.417   4.276  0.0033 -0.0490 -0.1278
11878PP      PP21982  14.263   3.216   2.744 -0.1508  0.0594 -0.1500
11879PP      PP21983   3.438  14.286   2.679  0.1235 -0.0987  0.2077
11880PP      PP21984  12.892  10.649   0.459  0.0526  0.2914  0.1505
11881PP      PP21985   6.328   4.738   1.471 -0.2394  0.0297  0.0313
11882PP      PP21986   1.023   5.963   9.649 -0.4123 -0.2772  0.3226
11883PP      PP21987   2.450   1.432   8.247 -0.0777  0.3108  0.2457
11884PP      PP21988   5.633   4.967   9.640 -0.1696 -0.0881 -0.0772
11885PP      PP21989   3.002  14.176   9.591  0.1607 -0.1255  0.2996
11886PP      PP21990  11.658   1.657   3.113  0.3130  0.2092  0.0833
11887PP      PP21991  12.031   2.529  10.444 -0.1591  0.1470  0.0256
11888PP      PP21992  13.664   6.254  10.025 -0.2027  0.0738  0.3054
11889PP      PP21993  15.752   3.202   8.908  0.1300  0.1448  0.1149
11890PP      PP21994   7.327   7.208  11.669 -0.2132  0.1797  0.2087
11891PP      PP21995   7.979  13.962  11.972 -0.0259 -0.0806 -0.0899
11892PP      PP21996  14.474   1.959   3.062  0.3493 -0.2360  0.0416
11893PP      PP21997  12.588   0.273   3.148 -0.0430  0.1660 -0.2603
11894PP      PP21998   0.372  12.059  13.200  0.1233 -0.0864 -0.1861
11895PP      PP21999  14.428   4.977   9.940  0.0845 -0.2002 -0.1945
11896PP      PP22000  11.141   4.827  11.921  0.0658  0.2051  0.0264
11897PP      PP22001   7.232   8.366   9.580  0.1134  0.0869  0.3544
11898PP      PP22002   2.255  13.345   2.594 -0.0444  0.0040 -0.1703
11899PP      PP22003  15.358  13.829  12.645 -0.0290 -0.0387  0.2352
11900PP      PP22004   8.984  15.325   0.922  0.5095 -0.1757 -0.2136
11901PP      PP22005  10.198   1.398   2.101 -0.1002 -0.0719  0.2438
11902PP      PP22006   6.306   0.941   8.787  0.1230 -0.1240  0.3114
11903PP      PP22007   7.058   9.970   3.611 -0.1381  0.1425  0.1123
11904PP      PP22008  15.425   5.778   9.223 -0.0228 -0.0089  0.0521
11905PP      PP22009  10.953   5.982  10.272  0.0214 -0.0219 -0.1564
11906PP      PP22010  13.154  15.857   9.800  0.0568 -0.1953  0.2739
11907PP      PP22011   2.556  10.995  10.128  0.0047  0.1469  0.2564
11908PP      PP22012   7.510   2.964  11.364 -0.2711  0.2942  0.2758
11909PP      PP22013   9.755   6.123   8.720 -0.1103  0.2056  0.0574
11910PP      PP22014   7.463  10.063  13.322 -0.0973 -0.0509 -0.2644
11911PP      PP22015   8.685   9.884   3.899 -0.2858  0.1811 -0.1691
11912PP      PP22016  14.392  15.719   2.349 -0.1668  0.2483  0.4093
11913PP      PP22017  10.992   3.541  12.415 -0.3251  0.1145 -0.0522
11914PP      PP22018   9.834   0.691  11.501 -0.4437 -0.2487 -0.0774
11915PP      PP22019   8.837  12.365  13.447 -0.0220  0.0881  0.0746
11916PP      PP22020  15.006   4.673   3.996  0.0748  0.0008 -0.1326
11917PP      PP22021   2.641   5.010   2.722  0.2642  0.2182  0.0124
11918PP      PP22022  14.636   8.545  10.764 -0.2430  0.1862  0.1605
11919PP      PP22023   5.876  13.617   3.140  0.1329  0.2001  0.1634
11920PP      PP22024   0.103  13.361   3.723 -0.1974 -0.2212 -0.0040
11921PP      PP22025   7.279  14.489  12.464  0.0093  0.0410 -0.1871
11922PP      PP22026  13.403   8.116  13.201 -0.0955  0.0729 -0.1772
11923PP      PP22027   9.139   6.186  10.975  0.0460  0.2318  0.0509
11924PP      PP22028   6.129   8.460  10.771 -0.0332  0.0648  0.0748
11925PP      PP22029  14.138   7.578  10.783 -0.1464 -0.0337 -0.0412
11926PP      PP22030   7.668   7.920   9.638 -0.0537  0.1979  0.0639
11927PP      PP22031   0.304   5.434   9.302  0.0488  0.0555 -0.0209
11928PP      PP22032  15.626   8.390   2.797 -0.0473 -0.1139  0.2480
11929PP      PP22033   8.351  10.886   4.139 -0.2701  0.0285 -0.0793
11930PP      PP22034  14.606   3.436   9.921 -0.2010 -0.0050  0.2660
11931PP      PP22035  10.505   4.425   4.046 -0.1085 -0.0573  0.0332
11932PP      PP22036   6.909  11.637   9.821  0.0024 -0.1050  0.0487
11933PP      PP22037  12.071   2.943  12.469 -0.1180  0.1396 -0.0494
11934PP      PP22038   8.757  13.003  11.537  0.0577 -0.0573  0.1933
11935PP      PP22039   2.123   7.040   3.325  0.0439 -0.0407  0.1978
11936PP      PP22040   1.187   5.377   4.599 -0.0696  0.2719 -0.0022
11937PP      PP22041  13.493   3.978   9.684  0.0844  0.0224 -0.1426
11938PP      PP22042  15.237  15.608   8.941 -0.3113  0.1475  0.0372
11939PP      PP22043   6.558   3.091   0.893 -0.0489  0.3282 -0.1062
11940PP      PP22044   4.529  15.215   0.699 -0.1766 -0.1601 -0.3411
11941PP      PP22045  14.979   8.622  10.295 -0.1741  0.0514  0.0252
11942PP      PP22046   2.362   1.363  10.516  0.1259  0.1246  0.1207
11943PP      PP22047  14.788  15.077   0.700 -0.3729 -0.2307  0.3769
11944PP      PP22048  12.619   3.575  11.257  0.2891  0.1204 -0.0689
11945PP      PP22049   9.535   2.637   1.478  0.2119 -0.1152  0.1584
11946PP      PP22050   9.016   0.633   1.540  0.0976 -0.2261  0.0204
11947PP      PP22051  15.313   7.208   3.703  0.0602 -0.0175 -0.1322
11948PP      PP22052   9.898  11.341  10.596 -0.2108 -0.1029  0.0558
11949PP      PP22053   5.598   1.547   0.284  0.1224  0.0066 -0.1297
11950PP      PP22054   0.359  13.563   2.623  0.1645 -0.1135 -0.2186
11951PP      PP22055   4.057   0.893   8.080  0.0642  0.2254 -0.0629
11952PP      PP22056   7.807  12.235   3.759 -0.0757 -0.0679  0.0045
11953PP      PP22057  15.266   6.222   1.055  0.1232 -0.0502 -0.2628
11954PP      PP22058   9.930   5.628  10.764  0.1545  0.0789  0.0092
11955PP      PP22059   9.297   5.636   3.995 -0.0494  0.1412 -0.0970
11956PP      PP22060  15.297  15.391  12.369 -0.3914  0.3218 -0.2506
11957PP      PP22061   3.047   0.151   3.484 -0.1229  0.2561 -0.2023
11958PP      PP22062   5.040   1.393  10.125  0.0286 -0.0507  0.1543
11959PP      PP22063  14.286   9.070  10.361  0.0989 -0.1007 -0.1684
11960PP      PP22064  15.584   2.003   0.928  0.1190 -0.2820 -0.1156
11961PP      PP22065   4.175   3.569  10.371  0.2002 -0.1098 -0.0480
11962PP      PP22066  10.042   0.835   3.722 -0.1741 -0.1402 -0.0781
11963PP      PP22067  10.012   3.497   9.817  0.0587 -0.3295  0.0349
11964PP      PP22068   9.094  12.140   2.536  0.2016  0.3645 -0.1896
11965PP      PP22069   3.476  10.328  10.981  0.0891  0.1104 -0.3689
11966PP      PP22070   2.187   2.531   1.313  0.2392  0.0901 -0.0193
11967PP      PP22071  11.027  11.232  13.407  0.0903  0.0422  0.1410
11968PP      PP22072   4.450  12.211   2.194 -0.0230 -0.1441  0.1348
11969PP      PP22073  11.883  15.068   8.152  0.0282  0.0874 -0.0080
11970PP      PP22074  15.322   6.974   0.507 -0.2154  0.2766  0.0894
11971PP      PP22075  12.341  10.735   1.129  0.0181 -0.0644 -0.1017
11972PP      PP22076   5.059   7.906  13.353  0.0135  0.1281  0.0419
11973PP      PP22077  12.144  10.466  10.884  0.2224 -0.2560 -0.0257
11974PP      PP22078  11.429   5.365   0.023 -0.1672  0.1074 -0.1527
11975PP      PP22079   9.770  11.293   3.405 -0.0965  0.1339  0.0455
11976PP      PP22080   7.937  14.404   9.653 -0.0564 -0.1722 -0.0528
11977PP      PP22081   8.697   1.717  12.657  0.0869 -0.0934 -0.0140
11978PP      PP22082   2.363  14.224   3.621  0.0933 -0.3151 -0.0546
11979PP      PP22083  10.840   7.365   8.884 -0.2158 -0.1009  0.0869
11980PP      PP22084  10.359  11.465   9.164  0.0534 -0.3342  0.1841
11981PP      PP22085  15.032  12.667  11.939  0.2286  0.0693 -0.1299
11982PP      PP22086   0.519   9.882   0.396  0.0847  0.2212 -0.0323
11983PP      PP22087  14.349   1.995  11.068 -0.1951 -0.0841  0.1621
11984PP      PP22088  14.175  15.648   0.758 -0.0862  0.1117 -0.2034
11985PP      PP22089   5.428   6.065  12.886 -0.0075 -0.1558 -0.2416
11986PP      PP22090  14.632  12.918  11.810  0.2215  0.1478  0.0795
11987PP      PP22091  10.714   8.213   3.817  0.1519 -0.2302  0.0038
11988PP      PP22092   9.307   0.611   0.580 -0.2963 -0.1170  0.1011
11989PP      PP22093   4.322   1.711   1.437  0.1349  0.1320  0.1523
11990PP      PP22094   7.089   8.968   4.225  0.0888  0.5420 -0.1963
11991PP      PP22095  15.777   1.324   9.233 -0.1132  0.2935 -0.0479
11992PP      PP22096  15.652   8.217   4.395 -0.3232 -0.1319  0.0068
11993PP      PP22097  15.887  12.011   0.587 -0.1274  0.2455 -0.0744
11994PP      PP22098   6.771   6.309  10.372  0.1983 -0.1226  0.2339
11995PP      PP22099   6.307  12.160  10.258  0.1693 -0.1486  0.1576
11996PP      PP22100   9.223   7.612  10.639 -0.3995 -0.0267  0.0081
11997PP      PP22101  13.030  14.904  12.607 -0.0123  0.0187 -0.2660
11998PP      PP22102   1.369   8.453  10.780 -0.1944  0.0635  0.2907
11999PP      PP22103   6.481   6.880   1.809 -0.0046 -0.1742  0.1648
12000PP      PP22104   8.800   5.247  10.834 -0.0775  0.0126  0.1000
12001PP      PP22105   4.248  10.402   2.505 -0.0850 -0.0722  0.1494
12002PP      PP22106   6.405   9.906   2.000 -0.0353 -0.2115 -0.0745
12003PP      PP22107   0.008  11.369   1.348  0.0542 -0.1409 -0.3401
12004PP      PP22108   6.237   0.069  13.352  0.0679 -0.2357  0.0258
12005PP      PP22109   0.413   2.409   1.956  0.0947 -0.1231 -0.0965
12006PP      PP22110   1.513   2.806   3.399  0.3237 -0.0155 -0.1197
12007PP      PP22111  15.209   6.855   8.499  0.0859  0.2154 -0.0621
12008PP      PP22112  15.494  15.550   1.974  0.0656  0.1049 -0.4854
12009PP      PP22113   7.152   5.952   1.592  0.1105 -0.1198 -0.1674
12010PP      PP22114   0.005  14.521   3.558 -0.0747  0.3079 -0.0501
12011PP      PP22115  12.800   0.068   9.447 -0.1793 -0.0972 -0.0787
12012PP      PP22116   4.393   1.062   8.413  0.1551  0.2873 -0.0145
12013PP      PP22117   3.731  11.028  10.407 -0.0525 -0.1617  0.0316
12014PP      PP22118   9.922   3.632   0.719  0.2755 -0.1609  0.2079
12015PP      PP22119   9.518  10.374  13.381  0.2145 -0.1280 -0.1403
12016PP      PP22120  15.144  11.156  10.773  0.0889  0.0055 -0.0279
12017PP      PP22121   3.252   9.784   3.809  0.1535  0.0098  0.4456
12018PP      PP22122   4.618   1.565   2.816  0.0323 -0.2863  0.0454
12019PP      PP22123  13.187  13.275   0.414  0.1749 -0.1146 -0.1401
12020PP      PP22124  12.488   3.572   9.511 -0.2854  0.1052 -0.1371
12021PP      PP22125   1.230  14.307   2.676  0.1914 -0.1336 -0.2050
12022PP      PP22126  11.729   1.227   2.822  0.1397  0.3156 -0.0955
12023PP      PP22127   3.497  12.589  11.400 -0.0207  0.1117  0.1714
12024PP      PP22128  10.341   9.913   3.375  0.1056  0.1493 -0.2172
12025PP      PP22129   8.286   5.718  11.933 -0.3046  0.1544 -0.1644
12026PP      PP22130   1.541   9.802   3.613 -0.0576 -0.1339  0.0032
12027PP      PP22131   7.883   0.594   3.453 -0.1133  0.0351  0.0578
12028PP      PP22132  10.109  12.892   9.633 -0.1412 -0.1607 -0.0797
12029PP      PP22133   0.708   1.311  13.162  0.0438 -0.0006 -0.1940
12030PP      PP22134   3.045  10.532   1.082  0.2463  0.0387  0.2803
12031PP      PP22135  14.340   9.773  11.325  0.2669  0.0816 -0.0507
12032PP      PP22136   9.937   4.655   8.908 -0.0693 -0.0194  0.0054
12033PP      PP22137  15.649   0.411   4.403 -0.0927  0.0590  0.1668
12034PP      PP22138   4.250   8.256   0.173  0.2687  0.2646 -0.0479
12035PP      PP22139   9.065   0.852  12.732 -0.0335 -0.0148  0.3553
12036PP      PP22140   4.435  12.613   0.178  0.2025  0.5908  0.1931
12037PP      PP22141   4.153  10.550  13.359  0.0891 -0.1684  0.0100
12038PP      PP22142   5.438  11.649   0.521  0.0170  0.0644 -0.0771
12039PP      PP22143   8.804   7.563  12.973  0.1504  0.2003 -0.0813
12040PP      PP22144   1.137   9.141   2.672 -0.0217 -0.3757  0.0517
12041PP      PP22145  13.362   1.838   2.629  0.0149 -0.0734 -0.3023
12042PP      PP22146  11.130  10.974   2.591  0.0608 -0.0067 -0.0988
12043PP      PP22147  14.052  11.059   3.529 -0.0200  0.2623 -0.1346
12044PP      PP22148   3.810  15.714   8.729  0.0188  0.2557  0.0322
12045PP      PP22149   4.736   1.363   0.587 -0.0464  0.1700  0.0526
12046PP      PP22150  14.824   1.226   3.509  0.1347  0.2353  0.0653
12047PP      PP22151  14.676   7.373   0.995  0.1440 -0.0751  0.1024
12048PP      PP22152   1.742  13.338  11.719 -0.1662  0.0560  0.0126
12049PP      PP22153   5.274   9.059  12.802  0.1775  0.1144  0.1608
12050PP      PP22154   6.117  12.189  13.379 -0.0436  0.1504  0.0399
12051PP      PP22155  14.575   0.042   9.961  0.0116 -0.3851 -0.0759
12052PP      PP22156  14.015  15.283   3.071  0.0621  0.1054  0.1384
12053PP      PP22157  14.480   1.246   0.892  0.1520 -0.0891 -0.0461
12054PP      PP22158  11.668  11.348   3.452 -0.1409  0.2691 -0.2382
12055PP      PP22159   0.907   9.133  10.124  0.2734  0.0581 -0.1042
12056PP      PP22160   1.738   5.636   0.935  0.2241 -0.4074  0.0147
12057PP      PP22161   1.196   4.361   9.308  0.4841 -0.0212  0.4526
12058PP      PP22162   2.315   8.776   3.271 -0.2156  0.0399  0.2744
12059PP      PP22163   0.860   0.473  12.854 -0.1437 -0.0687 -0.2251
12060PP      PP22164  11.318   6.936  13.341 -0.1379 -0.1819 -0.0654
12061PP      PP22165  13.235  11.024   2.966  0.2964  0.1106 -0.0959
12062PP      PP22166   6.634   4.370   9.585 -0.4025 -0.0488  0.2340
12063PP      PP22167   8.618   1.839   1.571 -0.1790  0.1751  0.1670
12064PP      PP22168   1.275   2.110  12.181  0.4099 -0.0371 -0.4799
12065PP      PP22169   1.281   2.873   2.349  0.2045  0.0686 -0.3737
12066PP      PP22170   7.590   9.414   2.611 -0.2163  0.0997 -0.1599
12067PP      PP22171   6.618   2.731  11.306 -0.0040  0.1375  0.3160
12068PP      PP22172   3.448   4.291   0.667 -0.1962  0.0147 -0.2876
12069PP      PP22173   8.337  14.412   8.861 -0.2488 -0.0379  0.1156
12070PP      PP22174   0.954  10.527   0.975  0.0515  0.0485 -0.0942
12071PP      PP22175  13.265   3.453   3.893 -0.0019 -0.1841 -0.0717
12072PP      PP22176   6.139  10.702   0.222  0.1018 -0.3011  0.0391
12073PP      PP22177  12.285  11.022  11.092  0.1199  0.2445  0.0279
12074PP      PP22178  13.308  13.510  10.077 -0.2019  0.0149  0.1342
12075PP      PP22179   2.512   0.877  12.105  0.0422  0.0806 -0.0430
12076PP      PP22180  14.620   1.542   2.851  0.2171  0.0924  0.0507
12077PP      PP22181   0.406   7.990   0.055  0.1230  0.2099  0.0844
12078PP      PP22182  12.422   8.429  12.487  0.1452  0.1792 -0.0720
12079PP      PP22183   3.551   8.102  10.325 -0.2127 -0.0738  0.0650
12080PP      PP22184   1.129  12.206   1.004 -0.2782 -0.2575 -0.0227
12081PP      PP22185   1.599   4.130   0.596  0.2711  0.3462 -0.2307
12082PP      PP22186  15.593   1.718  12.146  0.1318 -0.0239  0.1774
12083PP      PP22187   2.452   9.473  12.185 -0.1753  0.0809  0.2122
12084PP      PP22188   3.338  11.655   8.693 -0.2287 -0.0084 -0.0036
12085PP      PP22189   9.675   9.974   3.386  0.0692 -0.2212  0.3126
12086PP      PP22190   6.768  15.753   1.541  0.0689  0.1626  0.0485
12087PP      PP22191  11.141  10.375  11.674 -0.0538  0.1297 -0.0485
12088PP      PP22192   9.982  15.791  11.863 -0.1034 -0.1623  0.2480
12089PP      PP22193   7.486  11.881  13.098  0.1342  0.4035  0.0668
12090PP      PP22194   6.420  10.935  11.547  0.1956  0.1621  0.3204
12091PP      PP22195  12.445  11.037  10.090 -0.0934  0.1379  0.0314
12092PP      PP22196  15.901  12.236  12.210  0.3319 -0.0524  0.1041
12093PP      PP22197  10.613   1.784   1.324  0.0754 -0.0436 -0.1657
12094PP      PP22198   6.544   4.586  11.752  0.1792 -0.1114 -0.3557
12095PP      PP22199  15.500   4.664   2.517  0.3245  0.2069  0.1203
12096PP      PP22200   5.533   8.339   5.141  0.1670  0.0356 -0.0085
12097PP      PP22201   5.719  11.250   1.436  0.2250  0.1709  0.1261
12098PP      PP22202   3.398  13.991  12.675 -0.1453  0.0614 -0.0902
12099PP      PP22203   3.177   4.773  11.346 -0.0501  0.0762  0.0378
12100PP      PP22204   2.590  13.212  10.441  0.1185 -0.0533  0.0470
12101PP      PP22205   6.280   5.233   0.469 -0.0623 -0.0540  0.2983
12102PP      PP22206  11.513   7.869   1.843 -0.2030 -0.1149 -0.0759
12103PP      PP22207  12.131   8.658   1.568 -0.4203 -0.1219  0.0470
12104PP      PP22208   1.643  14.682   0.712  0.2665  0.2915  0.1895
12105PP      PP22209  11.232   5.244  11.413 -0.1861  0.0529 -0.3458
12106PP      PP22210  10.165  10.360   1.916  0.0546  0.1864  0.0951
12107PP      PP22211  12.650   9.323   3.727  0.3158 -0.1209  0.2860
12108PP      PP22212   7.164   2.551   3.459 -0.1029 -0.1243  0.0321
12109PP      PP22213   1.253   3.383   2.541 -0.2129  0.0514 -0.2994
12110PP      PP22214   5.798  14.031  12.883 -0.0602 -0.4451 -0.0457
12111PP      PP22215   8.312   9.446  12.841  0.1407  0.2742 -0.0973
12112PP      PP22216   5.388   9.853   3.971  0.1833 -0.3870  0.1897
12113PP      PP22217   0.316   5.957  10.510  0.1882 -0.0102  0.0615
12114PP      PP22218   6.977   0.295  11.793 -0.1045 -0.1588  0.1407
12115PP      PP22219   2.240  14.459  10.882 -0.1682  0.0758  0.2934
12116PP      PP22220   9.584  15.107   9.254 -0.0175  0.1145 -0.3600
12117PP      PP22221  12.795   3.616   2.383 -0.1226 -0.1823 -0.0019
12118PP      PP22222   6.506   7.034  11.849 -0.0997  0.0503 -0.0404
12119PP      PP22223   2.631   4.655   1.493 -0.1545 -0.2910 -0.1702
12120PP      PP22224   7.260  15.349   8.394  0.2125  0.1543  0.0692
12121PP      PP22225  10.718   1.406   2.206 -0.1104 -0.0217  0.3241
12122PP      PP22226   7.575   0.291   4.927 -0.2583 -0.0003  0.5860
12123PP      PP22227  15.048  14.926   1.877 -0.1293  0.1172 -0.0515
12124PP      PP22228   5.703  12.229  10.441 -0.1350  0.0695 -0.0539
12125PP      PP22229  11.711   9.452   4.757  0.1369  0.0899 -0.2162
12126PP      PP22230  14.472  13.518   2.496 -0.0484  0.0141  0.0601
12127PP      PP22231   3.913   3.451   1.509 -0.2644 -0.1434  0.4417
12128PP      PP22232   4.055   4.210   3.847 -0.0477 -0.1740  0.0995
12129PP      PP22233  11.454   8.767  11.399  0.2662  0.0596 -0.1275
12130PP      PP22234   5.122   9.923   0.518  0.0198  0.2871  0.1199
12131PP      PP22235  15.691  15.324   9.297 -0.0022  0.0058 -0.0551
12132PP      PP22236   4.293  12.333  12.818 -0.0494  0.2112  0.2607
12133PP      PP22237   5.140   2.966  10.956  0.0350  0.0003  0.0065
12134PP      PP22238   3.461   5.579   2.452  0.3682  0.2195 -0.2106
12135PP      PP22239  11.576   2.213   3.353 -0.1031 -0.0218 -0.1217
12136PP      PP22240   9.599  12.237  11.378 -0.0574  0.1285 -0.2313
12137PP      PP22241  15.173  12.193   2.215  0.1330 -0.1207  0.0325
12138PP      PP22242   9.029   7.162   2.360  0.1874  0.1469 -0.2595
12139PP      PP22243   0.658  13.546  10.818 -0.3074 -0.0838 -0.0793
12140PP      PP22244   6.043   8.117   9.048  0.1822 -0.2608  0.2282
12141PP      PP22245   5.094   6.218  12.436 -0.3104 -0.1593  0.0125
12142PP      PP22246  11.633  13.620  12.527 -0.1367  0.0954  0.1090
12143PP      PP22247  13.177   3.919   1.605  0.1292  0.0742  0.1346
12144PP      PP22248  10.041   7.322   1.039  0.1904 -0.3151  0.1534
12145PP      PP22249  15.760   2.043   4.042  0.1314  0.2109  0.0615
12146PP      PP22250   7.581   2.116   9.459 -0.0349 -0.4319  0.0934
12147PP      PP22251   7.976   7.573  12.357 -0.2191 -0.1427  0.0063
12148PP      PP22252   2.584  10.172  12.828 -0.3877  0.1125 -0.1694
12149PP      PP22253   0.810   5.107  10.760  0.1391 -0.1821  0.2255
12150PP      PP22254   0.402  13.108  11.935 -0.0052 -0.0687  0.0942
12151PP      PP22255  11.171   2.135  13.242  0.1477 -0.2142 -0.1728
12152PP      PP22256  14.750   2.813  11.573 -0.0251  0.0700  0.0039
12153PP      PP22257   4.890  14.680   2.584  0.0367 -0.0809  0.0730
12154PP      PP22258  10.932  10.566  12.728  0.0331 -0.3980 -0.1225
12155PP      PP22259   2.701   9.648   1.182 -0.1827 -0.0351  0.2789
12156PP      PP22260   9.494   8.005   1.189 -0.1118  0.2822 -0.0967
12157PP      PP22261  14.393  13.357   1.206  0.0283  0.2557  0.0671
12158PP      PP22262  11.995  11.684   8.785  0.2275 -0.1748 -0.1722
12159PP      PP22263  11.363  14.416  13.051  0.2659 -0.0082 -0.1853
12160PP      PP22264   0.797  13.231   9.911  0.3213  0.2134 -0.2936
12161PP      PP22265  15.104   0.530   9.556 -0.0907 -0.1683 -0.2418
12162PP      PP22266   5.489  11.965   4.380 -0.0144 -0.0511  0.1058
12163PP      PP22267   0.567   7.489   4.802  0.0662  0.1401  0.1361
12164PP      PP22268  14.594  11.062   0.982 -0.2772 -0.0880  0.1085
12165PP      PP22269  12.390   8.119   4.009 -0.0434 -0.2124 -0.0136
12166PP      PP22270   7.430   2.993   4.114 -0.0017  0.0964  0.1318
12167PP      PP22271   6.212  14.985   1.903  0.2520  0.0557 -0.2421
12168PP      PP22272  11.989  15.112   7.655  0.1231 -0.1443 -0.0404
12169PP      PP22273  13.811   5.389  11.644  0.1470 -0.2513 -0.4426
12170PP      PP22274   1.042   4.286  10.149  0.0202 -0.1330 -0.3017
12171PP      PP22275  15.198   1.479   8.700  0.3035 -0.0844 -0.0176
12172PP      PP22276   6.462  15.456   3.056  0.1107 -0.0012  0.2812
12173PP      PP22277   5.799   9.430   9.383 -0.1752  0.0551  0.0208
12174PP      PP22278  11.018  14.112   2.103 -0.2960  0.0112  0.2250
12175PP      PP22279   2.574   6.030  10.510 -0.0044 -0.1292 -0.0392
12176PP      PP22280   8.492   8.555   4.433  0.2633 -0.4959  0.0747
12177PP      PP22281   2.020   6.304  13.253 -0.1243 -0.1827  0.0618
12178PP      PP22282  12.445   9.799  12.498 -0.1175  0.1586 -0.0894
12179PP      PP22283   2.427   2.352   8.071  0.0921  0.1187  0.0739
12180PP      PP22284   5.376   5.406   2.460 -0.2014  0.1018 -0.2329
12181PP      PP22285   0.257   1.395   0.105  0.0071  0.1755  0.0204
12182PP      PP22286   2.778  15.692   9.250 -0.1018 -0.1295  0.0400
12183PP      PP22287   3.461   9.712   1.282  0.2067 -0.2537  0.0671
12184PP      PP22288   0.290  10.415  11.103  0.0098 -0.2174 -0.1163
12185PP      PP22289  13.462   4.868   1.558  0.2330 -0.0515 -0.0315
12186PP      PP22290   0.000  15.784  10.023  0.0694  0.1159 -0.1928
12187PP      PP22291   6.201  11.410   2.817  0.0006 -0.2058  0.1142
12188PP      PP22292  11.239  12.522   9.937 -0.1732 -0.2420 -0.0443
12189PP      PP22293   7.854   6.338   0.030 -0.0810 -0.4475 -0.1950
12190PP      PP22294  13.249  12.404  12.012  0.1714 -0.0021  0.1797
12191PP      PP22295  12.289  11.069   9.224 -0.1365  0.3782 -0.2835
12192PP      PP22296  10.912   9.689   9.193  0.0308 -0.0485  0.1313
12193PP      PP22297   4.837   9.076   0.300 -0.0691 -0.0296 -0.0380
12194PP      PP22298   3.039  12.628   4.364 -0.2561 -0.3366  0.2094
12195PP      PP22299   2.398  12.041   0.803  0.0773 -0.2296  0.0924
12196PP      PP22300   4.645  10.788   2.096 -0.2222 -0.0956 -0.1062
12197PP      PP22301   0.093   8.940   3.871  0.1400 -0.3744 -0.0111
12198PP      PP22302  11.527   6.883   3.622  0.1449 -0.2754 -0.0675
12199PP      PP22303   5.555   5.074   4.128  0.1680 -0.0442 -0.1609
12200PP      PP22304  13.720  13.794  10.032 -0.2865 -0.0515  0.0183
12201PP      PP22305   9.633   8.542   4.335 -0.3366  0.2045  0.0919
12202PP      PP22306   7.465   8.256   1.549 -0.0760  0.2920  0.2651
12203PP      PP22307   0.339  15.088  11.782 -0.1377  0.1652 -0.4734
12204PP      PP22308  13.741   0.123  12.620  0.1441 -0.0652  0.0104
12205PP      PP22309  15.640  11.533  11.513  0.1960  0.0985 -0.0063
12206PP      PP22310   8.923  14.113  10.053  0.3720 -0.1441  0.1020
12207PP      PP22311  11.573   7.154   1.976 -0.0054  0.0897 -0.3162
12208PP      PP22312   3.056   5.519  12.176 -0.2018  0.4670  0.4128
12209PP      PP22313  10.056   1.073  11.861 -0.0605  0.3161 -0.0827
12210PP      PP22314   8.939   6.546  10.628  0.0859  0.1871  0.0519
12211PP      PP22315   4.136   0.581   0.143  0.0356  0.0146  0.2484
12212PP      PP22316   6.319   5.861   1.906 -0.1279 -0.0606  0.0534
12213PP      PP22317  14.491   9.787  12.350 -0.1337 -0.0944 -0.0204
12214PP      PP22318  12.990   5.547   2.571 -0.0425  0.2508  0.2058
12215PP      PP22319  12.894   2.279   1.120 -0.3099 -0.0649 -0.2805
12216PP      PP22320  12.965  13.079  11.361  0.0835  0.3062 -0.0010
12217PP      PP22321   3.812  10.216   0.087  0.1281 -0.0998 -0.1381
12218PP      PP22322   4.584  14.540   2.136 -0.2428  0.1786  0.2253
12219PP      PP22323   9.760   9.234   3.188  0.1096  0.3814  0.0928
12220PP      PP22324  14.370   1.042   2.724 -0.0920  0.2038  0.1140
12221PP      PP22325   8.908   9.162   2.147 -0.2472  0.0863  0.0544
12222PP      PP22326   8.360   9.102  13.290  0.0776  0.0667  0.1706
12223PP      PP22327  11.410   2.589   8.420  0.2858  0.1159  0.4460
12224PP      PP22328   1.142   5.149  13.340  0.2152 -0.0913 -0.0895
12225PP      PP22329   8.765   3.043   1.831 -0.0157 -0.0178 -0.1215
12226PP      PP22330  11.553  13.709   9.203 -0.1203  0.0303 -0.0005
12227PP      PP22331   3.203  15.312   2.616 -0.1461  0.3077  0.2734
12228PP      PP22332  11.177   3.122  11.014  0.1247  0.1196 -0.0272
12229PP      PP22333  10.001  12.115   2.386 -0.0174  0.0999 -0.3918
12230PP      PP22334   7.793   2.854   2.204 -0.2289 -0.0949 -0.2962
12231PP      PP22335  11.528  11.122   2.976 -0.0496  0.1727  0.1280
12232PP      PP22336   8.422   1.831   3.496  0.1264 -0.2950 -0.1023
12233PP      PP22337   9.036   0.268   1.853 -0.1284  0.1941 -0.1263
12234PP      PP22338   1.939   3.298   4.077 -0.3443  0.1123 -0.4204
12235PP      PP22339   2.203  11.472   3.184  0.3361  0.2546  0.3013
12236PP      PP22340  10.350  13.520   1.278 -0.0826  0.0358  0.0526
12237PP      PP22341   5.374  13.004  12.658  0.1061  0.1967 -0.0264
12238PP      PP22342   9.273  15.054   8.819 -0.5087 -0.1227 -0.0728
12239PP      PP22343   0.896   5.260   3.587  0.0099  0.0398 -0.1004
12240PP      PP22344   4.636  13.045   2.828 -0.2518  0.1116  0.1332
12241PP      PP22345   8.931  10.532  11.958 -0.0623 -0.0828  0.2594
12242PP      PP22346   1.382   0.452   9.685  0.1796 -0.5100 -0.2640
12243PP      PP22347  14.582   0.827   3.239  0.1234 -0.1516 -0.1770
12244PP      PP22348   3.930   9.725  13.273  0.0653  0.3950 -0.1826
12245PP      PP22349  14.466  13.700   8.187  0.0082  0.1734 -0.0945
12246PP      PP22350  13.129   0.141   3.015  0.1609  0.3528  0.1610
12247PP      PP22351   4.301   5.691   9.256  0.1557  0.0544  0.1501
12248PP      PP22352  14.692  13.362  10.053  0.4958  0.0479  0.1812
12249PP      PP22353   4.500  11.679   2.798  0.0453 -0.0106  0.1762
12250PP      PP22354   0.346   4.635   8.989  0.2300  0.0136  0.1382
12251PP      PP22355  10.405   6.696   2.394  0.0130  0.0279 -0.0692
12252PP      PP22356   8.624   1.087  11.959 -0.1192 -0.2086  0.3131
12253PP      PP22357   3.215   4.758   4.299 -0.1885  0.0066  0.1687
12254PP      PP22358  11.708  12.767  12.021 -0.0779 -0.1988  0.2252
12255PP      PP22359   6.014  12.389   2.936 -0.1205  0.2630  0.1574
12256PP      PP22360   1.787   6.036  12.518 -0.1646 -0.1625  0.0625
12257PP      PP22361  12.624  15.075  12.828 -0.0405 -0.3633  0.1858
12258PP      PP22362   1.493  14.489  10.581  0.0608  0.1199 -0.1166
12259PP      PP22363  10.911   8.482   0.032  0.0216  0.2092 -0.0349
12260PP      PP22364  10.725   8.151  13.086 -0.1735 -0.0604  0.3827
12261PP      PP22365  13.470  10.722  11.962  0.0811 -0.2641 -0.0183
12262PP      PP22366   3.389   3.344   8.376  0.1315 -0.2135  0.0247
12263PP      PP22367  13.030   6.226   1.161  0.0226 -0.2838  0.0588
12264PP      PP22368  10.052   5.175   2.538 -0.0433  0.1298 -0.1045
12265PP      PP22369  11.817   9.512  13.424 -0.0626  0.2021 -0.2899
12266PP      PP22370   9.006  10.860   4.011  0.0400 -0.2970 -0.1938
12267PP      PP22371   3.057   9.863  12.142 -0.1091  0.1561 -0.2490
12268PP      PP22372   8.173   3.247   4.158 -0.1841  0.0072 -0.0950
12269PP      PP22373  14.027   1.515  13.418  0.2393 -0.0354  0.1420
12270PP      PP22374   3.576   9.255   1.004  0.0081 -0.0966 -0.0230
12271PP      PP22375  11.899  14.748   8.558 -0.1473  0.1631  0.1631
12272PP      PP22376  13.805   0.225   9.560  0.4214 -0.0505  0.1311
12273PP      PP22377   8.272  15.481  11.875  0.1479 -0.2468  0.1803
12274PP      PP22378   1.669   1.562  10.825 -0.2139 -0.0828  0.0260
12275PP      PP22379   5.595  11.640  12.062 -0.0780  0.0174 -0.1816
12276PP      PP22380  12.121  13.327   1.825 -0.2736  0.0707  0.0878
12277PP      PP22381   8.642   6.067   9.597  0.3671 -0.3777 -0.0747
12278PP      PP22382   0.448   4.800  12.803  0.0384 -0.1007 -0.1257
12279PP      PP22383  13.702   6.572  13.094  0.3853  0.0282  0.0616
12280PP      PP22384  13.535   0.838   2.491 -0.1966  0.0835  0.2074
12281PP      PP22385  15.571  15.617  11.501 -0.0734 -0.2148  0.1826
12282PP      PP22386   6.053   1.136   3.710 -0.2123  0.0393 -0.1718
12283PP      PP22387  15.152  10.854   0.936 -0.0889  0.0817 -0.0919
12284PP      PP22388   8.641  11.270   4.552  0.1328 -0.0209 -0.0626
12285PP      PP22389   1.780   7.970   4.519 -0.1955 -0.0642  0.3737
12286PP      PP22390   7.201   7.626  11.384  0.0263  0.1226 -0.0100
12287PP      PP22391   0.959   0.529   2.333 -0.2259  0.0050 -0.0155
12288PP      PP22392  11.822   6.872  11.285 -0.2250 -0.0625  0.0087
12289PP      PP22393   8.320   9.648   1.047 -0.1504 -0.1339 -0.0342
12290PP      PP22394  12.538  13.659   0.290  0.0335 -0.1874 -0.2822
12291PP      PP22395   2.442   2.933  10.785 -0.1879  0.1333  0.2780
12292PP      PP22396  10.617  10.074  12.015  0.4823 -0.1852 -0.0407
12293PP      PP22397   0.501   9.315   3.934 -0.1501 -0.1498 -0.1729
12294PP      PP22398  11.332  13.360   1.635 -0.2073  0.0723  0.1090
12295PP      PP22399  13.395  12.609   9.819  0.1731  0.3133 -0.0421
12296PP      PP22400   9.450   5.437  12.412  0.0687  0.0954  0.0279
12297PP      PP22401  15.336   1.476   8.213 -0.0360 -0.0006  0.0267
12298PP      PP22402  14.821   6.809   0.431  0.2927 -0.0521 -0.0053
12299PP      PP22403  12.962   6.915  10.485  0.3817 -0.0436  0.2788
12300PP      PP22404   6.365   3.160   0.041 -0.1614  0.1720 -0.2051
12301PP      PP22405   9.432   6.560  10.816 -0.1330 -0.1764 -0.0386
12302PP      PP22406  11.715   4.188   2.830 -0.1314  0.0282  0.2438
12303PP      PP22407  14.724   8.683  12.996 -0.0049 -0.0319  0.2969
12304PP      PP22408   0.509   6.871   9.151 -0.2271  0.3101  0.1215
12305PP      PP22409   7.931   9.464  10.907  0.1586  0.0365 -0.1641
12306PP      PP22410   0.520   9.555   9.402 -0.3602  0.0711  0.0118
12307PP      PP22411  10.983   4.949   8.631 -0.0593 -0.1148  0.1793
12308PP      PP22412   3.351  10.563   0.611  0.0533 -0.1749 -0.1862
12309PP      PP22413   3.900   8.397  11.123  0.3441 -0.2837  0.1355
12310PP      PP22414   6.258   3.036  12.159 -0.6629  0.1123  0.1347
12311PP      PP22415   2.551   4.716  12.029 -0.1512  0.2325 -0.0842
12312PP      PP22416   7.422  12.524  10.972 -0.0095 -0.0928  0.0168
12313PP      PP22417   1.405   5.972  12.188  0.0396  0.0847 -0.3011
12314PP      PP22418  11.409   4.181   1.472  0.1947 -0.0252  0.2871
12315PP      PP22419  11.949   6.588   2.246  0.0258  0.0932  0.2001
12316PP      PP22420   2.530  14.929   0.511  0.1445 -0.1060  0.0161
12317PP      PP22421   5.782   1.839  12.742 -0.1712 -0.0661  0.2076
12318PP      PP22422  14.093   8.107  10.791 -0.1512 -0.0644 -0.0809
12319PP      PP22423  12.607  10.375   8.516  0.1656  0.0922  0.1761
12320PP      PP22424   5.156   5.251  13.119  0.2425  0.1692 -0.0563
12321PP      PP22425  12.084  10.106  11.660 -0.2217 -0.0451  0.2119
12322PP      PP22426   6.985  10.287   4.797 -0.0084  0.0022 -0.0157
12323PP      PP22427   6.373  10.390  12.717 -0.0145 -0.0131  0.0772
12324PP      PP22428  11.693   1.284   9.716  0.2486 -0.1591 -0.0642
12325PP      PP22429  13.736   2.904  11.921 -0.1799  0.3481 -0.1232
12326PP      PP22430   0.836   9.810  11.466 -0.1974 -0.2394  0.0195
12327PP      PP22431  12.325   6.974  12.345  0.1264 -0.0257 -0.1037
12328PP      PP22432  10.156   8.529   3.212  0.0943  0.0648 -0.3511
12329PP      PP22433  15.299  12.907   0.950 -0.0475  0.1078 -0.1861
12330PP      PP22434  12.210   3.135   9.482  0.1025  0.0046 -0.0018
12331PP      PP22435  11.088   3.181  10.519  0.2527  0.1201 -0.0280
12332PP      PP22436  13.883   0.553  11.898  0.1911  0.1177 -0.2742
12333PP      PP22437  13.475   4.261   9.032  0.0542 -0.0606 -0.0971
12334PP      PP22438   8.434   7.217   9.572 -0.0709  0.2104 -0.3088
12335PP      PP22439   3.806   6.745  11.297  0.0319 -0.2075  0.3503
12336PP      PP22440   9.900   4.151   9.166 -0.1921  0.0852 -0.1155
12337PP      PP22441   4.128   2.658   0.001  0.0413  0.0554  0.0106
12338PP      PP22442   0.548  15.651   1.625  0.0294  0.0441 -0.1221
12339PP      PP22443   3.437  10.184   9.428 -0.0147 -0.1140 -0.2555
12340PP      PP22444   4.554  10.725   1.305 -0.5388  0.1612  0.2748
12341PP      PP22445  14.474  13.869   1.175  0.1357  0.2510  0.2552
12342PP      PP22446  12.725  11.196   1.609 -0.0723 -0.1921 -0.0530
12343PP      PP22447   8.433   7.357  11.961  0.0352 -0.1538  0.1339
12344PP      PP22448  11.067   9.971   4.115  0.0718  0.1212 -0.0016
12345PP      PP22449   4.514   2.024  12.381  0.2162  0.3246 -0.0533
12346PP      PP22450   4.881   6.734   2.745 -0.1806 -0.0649  0.1370
12347PP      PP22451  14.366  14.911   4.021 -0.0339 -0.0194 -0.0328
12348PP      PP22452   9.372   4.638  11.919  0.1165 -0.1517  0.0212
12349PP      PP22453  15.217  14.901   8.376  0.0456  0.0789  0.0035
12350PP      PP22454   5.917  13.301  12.871  0.0124 -0.2761  0.1436
12351PP      PP22455  13.638   9.433   1.504  0.4594  0.0875  0.2655
12352PP      PP22456  14.975   3.655  10.799  0.1982  0.0323 -0.4572
12353PP      PP22457   6.238   4.286  12.175  0.1388 -0.3010  0.1591
12354PP      PP22458  10.603   6.168   1.719 -0.1972 -0.2162 -0.2934
12355PP      PP22459   8.045   6.218   1.080 -0.0764 -0.1489 -0.4022
12356PP      PP22460   9.719   2.211   0.037 -0.2334  0.4542  0.2428
12357PP      PP22461   7.645   8.403  10.619  0.1714 -0.1648 -0.0523
12358PP      PP22462   5.464  10.173  10.533 -0.2210 -0.0857  0.0825
12359PP      PP22463   3.153  11.199   4.201 -0.1279 -0.0185  0.3029
12360PP      PP22464  15.665   1.661   2.282 -0.2357 -0.0161 -0.1320
12361PP      PP22465   5.613   4.999   1.516  0.0982  0.3305 -0.0114
12362PP      PP22466  14.587   5.709  10.607  0.1763 -0.0290  0.1284
12363PP      PP22467   0.118  12.060   9.671  0.2250 -0.1347  0.2920
12364PP      PP22468   6.049   9.000   1.135  0.1374  0.2189  0.1421
12365PP      PP22469   0.107   4.822  11.982  0.0236 -0.0143  0.2012
12366PP      PP22470   6.266   1.065   1.053  0.3529 -0.0875 -0.1409
12367PP      PP22471  12.046   4.760  13.017 -0.2072  0.1193 -0.0567
12368PP      PP22472  10.018  15.673  12.604 -0.2074 -0.0108  0.2260
12369PP      PP22473   7.052  12.134   2.357  0.0883 -0.2468  0.1177
12370PP      PP22474   0.169   0.263  13.469 -0.1462 -0.0052  0.0644
12371PP      PP22475  14.383   1.946   0.398  0.0010 -0.1451  0.1563
12372PP      PP22476  15.660   6.032   3.814 -0.0212  0.0564  0.0145
12373PP      PP22477  11.905  14.996  12.051  0.2355  0.1399  0.0811
12374PP      PP22478   8.033  12.377   2.862 -0.1909 -0.0263 -0.0600
12375PP      PP22479   2.079   1.208   8.501 -0.0550  0.0162  0.0806
12376PP      PP22480   0.857   5.756   0.979  0.1502  0.0671 -0.3169
12377PP      PP22481   8.524   7.907   9.496 -0.1497 -0.0174 -0.1215
12378PP      PP22482  12.167   7.929   3.533 -0.1422 -0.2639  0.1150
12379PP      PP22483   2.479   0.190   2.249  0.1479 -0.1955  0.0244
12380PP      PP22484   9.349  13.345   8.770  0.2173 -0.0751 -0.1833
12381PP      PP22485   1.762   0.666  12.793  0.1195  0.1350 -0.3112
12382PP      PP22486   4.818  14.758  10.642 -0.2371 -0.0837 -0.0978
12383PP      PP22487  11.076   7.255   0.672 -0.2857  0.0332  0.3243
12384PP      PP22488  13.282  14.785   1.508 -0.0638  0.0424  0.0466
12385PP      PP22489   9.610   1.421  13.316 -0.1640 -0.0572 -0.0628
12386PP      PP22490   7.589  15.108   2.289 -0.1760  0.3175 -0.2328
12387PP      PP22491  14.455   3.944   2.081  0.3557  0.2289 -0.0631
12388PP      PP22492  11.728  13.608   1.425 -0.1172  0.3636  0.4062
12389PP      PP22493   7.497   1.185   4.447  0.2484 -0.1482 -0.0381
12390PP      PP22494   9.370   2.507  11.209  0.1869 -0.3301  0.1780
12391PP      PP22495   8.593   7.616   3.562 -0.1649 -0.0564  0.2558
12392PP      PP22496   7.891   1.643   9.118 -0.2489 -0.2543 -0.1683
12393PP      PP22497   9.014   6.966  13.263  0.0363 -0.1146 -0.0802
12394PP      PP22498   9.186   1.979   3.013  0.1115 -0.4186 -0.3123
12395PP      PP22499  10.690   5.631   0.573  0.3096  0.0522 -0.2220
12396PP      PP22500   7.228   2.736   1.345  0.1291  0.1479 -0.3492
12397PP      PP22501   4.320   1.061   0.335  0.0249 -0.2532 -0.0468
12398PP      PP22502   5.656   3.843   0.522 -0.1217 -0.2738 -0.2622
12399PP      PP22503  11.104  12.107  12.964  0.1908  0.0095 -0.2155
12400PP      PP22504  13.502   4.846   7.953  0.1098  0.2139  0.0361
12401PP      PP22505  15.157   0.009   1.071  0.3734 -0.2651 -0.1866
12402PP      PP22506   8.282   7.653   4.403  0.2874 -0.0647  0.2197
12403PP      PP22507   8.140  11.298   2.196 -0.1267  0.0358  0.5021
12404PP      PP22508   9.368  14.633   1.525 -0.0945 -0.1084  0.1799
12405PP      PP22509   9.113   8.814   0.918  0.4163 -0.0983 -0.1248
12406PP      PP22510  10.903   9.970   9.726  0.2095  0.0391 -0.2898
12407PP      PP22511   6.097   2.034  12.385 -0.2713 -0.1492  0.2220
12408PP      PP22512   6.483   9.857   9.947  0.1934 -0.0414 -0.1173
12409PP      PP22513   6.475   6.385   9.417 -0.1786 -0.3314 -0.0670
12410PP      PP22514  14.062   2.547   9.622 -0.0353  0.1961 -0.1216
12411PP      PP22515   7.662   9.862   1.260 -0.2422  0.2861  0.3375
12412PP      PP22516   3.522  12.734   2.967 -0.0131 -0.0646  0.2526
12413PP      PP22517   8.103  14.718   2.117  0.2744  0.0553  0.5552
12414PP      PP22518   6.510  12.242   4.521  0.1691  0.1642 -0.3137
12415PP      PP22519  15.346   8.306  10.166  0.0304 -0.0706 -0.2814
12416PP      PP22520   3.942  12.846  11.148  0.1783  0.0745 -0.2245
12417PP      PP22521   3.391  15.467   9.857  0.2289 -0.0113 -0.0244
12418PP      PP22522   1.288   8.742   3.154  0.0989 -0.1731 -0.0948
12419PP      PP22523  13.454   6.717   2.450 -0.1482 -0.0928  0.4131
12420PP      PP22524   1.675  15.093   2.267  0.1844  0.2343 -0.0491
12421PP      PP22525   6.111  11.660   1.368  0.1265 -0.0779 -0.1790
12422PP      PP22526   1.023   8.560   1.353 -0.1140 -0.3664 -0.0715
12423PP      PP22527   5.519  11.757  10.032  0.0397  0.3053 -0.0148
12424PP      PP22528   2.527  12.855   4.585  0.0412 -0.3498 -0.0404
12425PP      PP22529   7.085  14.946  10.649 -0.0669 -0.2396 -0.2084
12426PP      PP22530   8.650  10.419   5.242  0.0569 -0.1372 -0.1198
12427PP      PP22531  10.503  14.871   8.150 -0.0856 -0.0552 -0.0896
12428PP      PP22532  13.957   9.442   0.858  0.4090 -0.0226 -0.0042
12429PP      PP22533   7.155  10.335   0.646 -0.0731 -0.1338 -0.2550
12430PP      PP22534   0.076   8.053  10.505  0.0944  0.0899 -0.0320
12431PP      PP22535   8.234  11.073   0.964 -0.1220 -0.1313  0.2787
12432PP      PP22536  13.263  12.053   0.986 -0.0734 -0.0809 -0.0211
12433PP      PP22537  12.489   8.291   3.427 -0.1515 -0.2424 -0.0440
12434PP      PP22538   0.033   3.176   1.904 -0.1309  0.1041  0.2352
12435PP      PP22539   8.999   7.163   9.542  0.2859 -0.2752 -0.3044
12436PP      PP22540   0.403  14.974   2.928 -0.5215  0.0479 -0.2650
12437PP      PP22541   6.405  13.239   1.424  0.1060 -0.1799  0.1240
12438PP      PP22542   8.932   7.555   3.145  0.0044  0.2192  0.1119
12439PP      PP22543   2.952   6.707   2.215 -0.1461 -0.1085  0.2587
12440PP      PP22544   6.070   6.954   0.690  0.0439  0.0778 -0.0429
12441PP      PP22545   8.520   4.665   3.196  0.3592 -0.1357 -0.1037
12442PP      PP22546  13.159   2.042   1.770  0.2103  0.1778 -0.1508
12443PP      PP22547   6.954   8.146  11.228  0.2432  0.0262  0.0224
12444PP      PP22548   9.572   3.825   2.225 -0.3138 -0.1498 -0.1468
12445PP      PP22549   9.137   4.747   1.155 -0.0901 -0.0154  0.4233
12446PP      PP22550   9.667   7.642   4.262 -0.0462 -0.2692 -0.1565
12447PP      PP22551   7.253  13.308  10.405  0.2314  0.2563 -0.0703
12448PP      PP22552   2.127  14.385   2.794 -0.0398  0.1183  0.1323
12449PP      PP22553   3.892   9.316   3.972  0.2607  0.2128 -0.1476
12450PP      PP22554   6.575   5.065  10.590 -0.3162 -0.3769 -0.2404
12451PP      PP22555   2.989   5.530  11.625 -0.1538 -0.1039 -0.1173
12452PP      PP22556   5.810   1.326  10.098  0.1806  0.0725 -0.1110
12453PP      PP22557   1.859   7.618  11.821  0.0732 -0.1809 -0.0768
12454PP      PP22558   5.572  11.773   1.087  0.0938  0.0778  0.2577
12455PP      PP22559   8.783   2.263  11.901  0.2721  0.4655 -0.2373
12456PP      PP22560   3.910   1.863   1.906 -0.2009 -0.2522 -0.1305
12457PP      PP22561  12.530   4.748  12.303 -0.0287  0.0247 -0.0781
12458PP      PP22562   7.161   8.150  10.650 -0.0314 -0.1996  0.2317
12459PP      PP22563  15.889  14.914   1.463  0.3660  0.0735  0.0158
12460PP      PP22564  10.012   5.067   3.808  0.0085  0.0136  0.1949
12461PP      PP22565   1.554   0.408  10.122 -0.1244 -0.2043 -0.0734
12462PP      PP22566   7.151   0.976   3.235  0.0004 -0.1340  0.2984
12463PP      PP22567   6.060  12.190   4.273 -0.1648  0.0350  0.0087
12464PP      PP22568   9.402  11.763   3.729 -0.3579  0.0731  0.1571
12465PP      PP22569  10.082   2.586   3.328  0.0671 -0.2439 -0.4295
12466PP      PP22570   0.798   4.662   4.322 -0.0345  0.0643  0.0821
12467PP      PP22571  12.620   9.535  11.809 -0.1288 -0.0783  0.2552
12468PP      PP22572   8.737   8.855   0.030  0.1951  0.0172 -0.0779
12469PP      PP22573   5.217   6.300   1.848 -0.3853 -0.1649 -0.0456
12470PP      PP22574   6.843   5.136  11.677 -0.0010  0.1898  0.0500
12471PP      PP22575  15.210  15.466   8.451 -0.0493 -0.0968  0.0414
12472PP      PP22576  13.703  11.808   0.301  0.0079 -0.0269  0.0199
12473PP      PP22577  12.679  15.479   8.189  0.1640 -0.1366  0.2754
12474PP      PP22578   9.222   1.778   2.291  0.2029 -0.0191  0.0433
12475PP      PP22579   2.603   8.647   0.106 -0.2239 -0.1671 -0.1351
12476PP      PP22580  15.581  12.838   9.797 -0.0004 -0.0208 -0.2650
12477PP      PP22581   2.112  13.249   0.900 -0.1669 -0.3422  0.1550
12478PP      PP22582   5.927   4.566   0.129  0.2663 -0.1431  0.1771
12479PP      PP22583  14.049   3.951  10.990  0.2328  0.0303  0.0065
12480PP      PP22584   0.859   5.138   2.478  0.0688 -0.2082  0.0561
12481PP      PP22585  10.863  10.294  10.694  0.2966 -0.1228  0.0732
12482PP      PP22586  15.515  11.232  12.629  0.2502 -0.0688  0.0081
12483PP      PP22587   9.859   1.139   1.646  0.2009 -0.3430  0.0067
12484PP      PP22588   2.507   3.581  12.951 -0.1174  0.2500  0.4432
12485PP      PP22589  15.887   4.541  13.294  0.2243  0.0305 -0.1829
12486PP      PP22590   6.720  10.052  10.522 -0.0400  0.0420  0.0378
12487PP      PP22591   7.411  14.628  11.533  0.0300 -0.0092  0.3096
12488PP      PP22592   1.930   7.130   1.624 -0.2123 -0.2276  0.1587
12489PP      PP22593  13.740  11.373   9.332  0.1941  0.0109  0.2761
12490PP      PP22594  14.956  11.221   9.493  0.3011  0.0965 -0.3011
12491PP      PP22595   8.246  10.306  13.259 -0.1655 -0.2142 -0.1775
12492PP      PP22596  14.261  14.225  13.042  0.0671  0.0570 -0.1753
12493PP      PP22597   1.850   1.622   8.578 -0.1007 -0.1836  0.0118
12494PP      PP22598   9.819   3.131  10.554 -0.0821  0.0166  0.0546
12495PP      PP22599   9.503   4.210  12.778  0.1294  0.0684  0.1328
12496PP      PP22600   4.374   4.458   3.507 -0.0654  0.0767 -0.0692
12497PP      PP22601   4.012   6.478  12.324 -0.0976 -0.1608 -0.0138
12498PP      PP22602  14.909   5.983   3.401 -0.0008  0.1786  0.0991
12499PP      PP22603  11.542   6.385   9.763  0.2661 -0.0068 -0.2237
12500PP      PP22604  13.729  13.561   3.168 -0.1165  0.1861 -0.1485
12501PP      PP22605   4.458   6.933   4.688 -0.1320 -0.0318 -0.0604
12502PP      PP22606   4.275  14.932   9.519 -0.2146  0.2062 -0.3277
12503PP      PP22607   9.657   4.829   1.368 -0.0321  0.1024 -0.2547
12504PP      PP22608   1.127   8.183   0.136  0.3700  0.0937  0.0898
12505PP      PP22609   6.545   9.036   3.702 -0.0030 -0.0798 -0.1369
12506PP      PP22610   7.567   6.024  10.958 -0.1236  0.2897 -0.0997
12507PP      PP22611   3.881   3.008  10.029 -0.2332  0.0739  0.1360
12508PP      PP22612   7.490   0.359  11.946 -0.1124 -0.4447 -0.0844
12509PP      PP22613   9.602   0.442   3.351  0.0056 -0.0769  0.0341
12510PP      PP22614  10.383  13.454   1.787  0.1308 -0.0776  0.0897
12511PP      PP22615   8.868  15.300   9.992 -0.0930  0.4431 -0.0845
12512PP      PP22616   1.588  15.825   1.733  0.1031 -0.2995  0.1918
12513PP      PP22617  15.495  12.569   1.291  0.3463  0.0162  0.0269
12514PP      PP22618  13.732   9.668  12.934 -0.2104 -0.1255 -0.2444
12515PP      PP22619  12.850  11.678   8.119  0.2928 -0.0251 -0.1301
12516PP      PP22620  14.332   9.599   8.269  0.0587 -0.0083 -0.0355
12517PP      PP22621  10.270  14.494   2.542  0.1384  0.1810  0.2810
12518PP      PP22622   6.713   3.869  10.510 -0.2064  0.1222  0.1908
12519PP      PP22623  14.553   8.038  10.637 -0.0041  0.2711  0.3412
12520PP      PP22624   4.564   8.006  11.183 -0.1848  0.1848 -0.1334
12521PP      PP22625  10.190  15.440  10.682  0.2811  0.0231  0.2374
12522PP      PP22626   7.759   3.772   2.685 -0.1243  0.2813 -0.0389
12523PP      PP22627   6.496   4.598  12.662 -0.1440 -0.0763 -0.3113
12524PP      PP22628  13.932   2.685  10.552 -0.0512 -0.2410 -0.3691
12525PP      PP22629   1.578   0.707  11.526 -0.0315  0.1738 -0.1274
12526PP      PP22630  10.032  12.408   9.621 -0.2812  0.0858  0.1876
12527PP      PP22631  10.599  12.151  11.325  0.2218 -0.1099  0.2616
12528PP      PP22632  14.561   2.468   9.562 -0.2729 -0.0009 -0.1173
12529PP      PP22633  13.350  15.737  10.223 -0.0124 -0.4635 -0.1227
12530PP      PP22634  10.335  11.569   4.167  0.1746 -0.3312 -0.1523
12531PP      PP22635  10.367   2.488  10.879  0.0314  0.2387  0.0820
12532PP      PP22636  12.856   0.301   8.892 -0.1336  0.4977 -0.0510
12533PP      PP22637   4.025  10.383  12.559  0.3315  0.2172 -0.1221
12534PP      PP22638  14.652  11.380  12.979 -0.0201  0.2557  0.1064
12535PP      PP22639   1.763  14.038   3.845  0.5533 -0.2897  0.0920
12536PP      PP22640   7.076   2.315   1.637 -0.2561  0.2609  0.0783
12537PP      PP22641  11.023   5.437   8.717 -0.1792  0.1474  0.0385
12538PP      PP22642   0.693   3.081   2.595  0.2956 -0.0765  0.1404
12539PP      PP22643  15.459   9.383   3.701  0.1364 -0.1638 -0.2565
12540PP      PP22644   2.070  13.179   9.919  0.3903 -0.3109 -0.0582
12541PP      PP22645   1.038   4.889   3.157 -0.0766  0.2760 -0.0312
12542PP      PP22646   4.787   9.976   3.496 -0.1863  0.1065 -0.0590
12543PP      PP22647   9.259   3.553   2.984  0.2465  0.0036  0.0571
12544PP      PP22648   3.674  15.410   2.337 -0.0528 -0.1843  0.2869
12545PP      PP22649   8.018   7.702  11.844  0.1264  0.1272  0.1575
12546PP      PP22650   4.393  10.857   0.373  0.1074 -0.1332  0.2230
12547PP      PP22651   1.345  12.902  13.294  0.2476  0.0076 -0.1123
12548PP      PP22652   2.762  14.421   8.702  0.0747 -0.2496 -0.0207
12549PP      PP22653  12.970  10.933  11.825  0.1939 -0.2632 -0.3605
12550PP      PP22654  12.501  15.113   9.779 -0.1111 -0.1361 -0.1638
12551PP      PP22655  11.175  13.385   9.251 -0.0775 -0.0471  0.0646
12552PP      PP22656   2.630  14.055  13.358 -0.1023  0.4033 -0.0427
12553PP      PP22657  10.752  15.460  11.694  0.2114  0.0237 -0.0903
12554PP      PP22658  10.632   0.455   2.381  0.2231 -0.0012  0.1108
12555PP      PP22659  14.798  14.751   2.645 -0.3682  0.4342  0.1576
12556PP      PP22660  13.699   4.797  10.210  0.0098 -0.0626  0.0485
12557PP      PP22661  11.657   4.899  10.105  0.0233  0.2871  0.0483
12558PP      PP22662  12.845  12.088   2.477 -0.4162 -0.0606 -0.0615
12559PP      PP22663  14.663   9.826   1.730  0.0641  0.0315  0.0309
12560PP      PP22664   5.246   9.374   9.583 -0.0258  0.0982  0.3405
12561PP      PP22665   8.642  15.299  12.182 -0.1228  0.0846  0.1136
12562PP      PP22666   9.324   7.675  12.167 -0.1436  0.1932  0.0003
12563PP      PP22667  13.700   7.514   3.807  0.0414 -0.1625 -0.0013
12564PP      PP22668   3.345   4.335   1.699 -0.1065  0.0928 -0.0603
12565PP      PP22669   7.907   2.834  13.028 -0.2623  0.0494  0.2971
12566PP      PP22670   8.302   0.269  10.965  0.0907  0.0181 -0.0539
12567PP      PP22671   9.092   0.157   4.056  0.0625 -0.3919  0.2031
12568PP      PP22672   9.405  13.103   3.909 -0.1093 -0.4153 -0.0470
12569PP      PP22673  14.762   8.472   9.234 -0.1766  0.1541 -0.3041
12570PP      PP22674   4.912  12.188   1.942  0.3702 -0.0307 -0.3267
12571PP      PP22675   0.624  10.526  10.747  0.1683 -0.0952 -0.1113
12572PP      PP22676  12.464   7.291   3.692 -0.0551  0.0945 -0.2603
12573PP      PP22677  12.008   9.338  12.862 -0.1538 -0.2982  0.1231
12574PP      PP22678  13.273   4.936   3.222 -0.0327  0.0998 -0.2131
12575PP      PP22679   7.586   3.169  12.794  0.2287 -0.1337  0.1573
12576PP      PP22680  15.803  14.353   4.085 -0.1148 -0.3038 -0.2115
12577PP      PP22681   4.185   5.158  11.617 -0.0127  0.1250  0.0841
12578PP      PP22682   6.024  13.681   4.005 -0.1524  0.1498  0.1220
12579PP      PP22683   1.325   2.841   0.090 -0.3046 -0.2493  0.1749
12580PP      PP22684   4.996   0.710  11.216 -0.2276  0.0330  0.0327
12581PP      PP22685   7.277   9.493   9.580 -0.0412  0.3408 -0.1671
12582PP      PP22686   8.695   8.297   3.945  0.0513  0.0628 -0.0260
12583PP      PP22687  14.185  10.576   2.932 -0.2554  0.2056  0.1054
12584PP      PP22688  10.363   1.161   3.049  0.0580 -0.0719 -0.0343
12585PP      PP22689   8.695   5.661  12.295  0.0596 -0.0293  0.0842
12586PP      PP22690   4.899   0.772   9.293 -0.1279 -0.0378  0.4261
12587PP      PP22691   0.103   0.574   1.185 -0.1891  0.0061 -0.1007
12588PP      PP22692   5.686  10.433   1.398 -0.2698  0.0591  0.0131
12589PP      PP22693  15.407  12.442  10.465  0.0483 -0.0917  0.1042
12590PP      PP22694   0.692   7.979   0.502 -0.4933 -0.1619 -0.1818
12591PP      PP22695  13.606   3.198  10.941  0.0282  0.5538  0.0988
12592PP      PP22696   4.477   3.516   3.214 -0.0639 -0.1347  0.1587
12593PP      PP22697  13.254   7.908  12.806  0.1390  0.2324 -0.0033
12594PP      PP22698   8.315   2.835   1.807  0.2865  0.0755  0.2517
12595PP      PP22699   2.731   0.729   9.258 -0.3071 -0.0498  0.0166
12596PP      PP22700   4.111  11.806   4.405  0.1086  0.1090 -0.0091
12597PP      PP22701  10.298   5.552   9.889 -0.1769  0.1842  0.0693
12598PP      PP22702  15.755   8.924  10.833  0.1241  0.0609  0.1205
12599PP      PP22703  15.150   3.997   1.617  0.1447 -0.1188  0.2850
12600PP      PP22704   2.460  15.160   3.057  0.0402 -0.1929 -0.1593
12601PP      PP22705   8.753  14.715   8.887  0.1733  0.0408  0.1562
12602PP      PP22706  15.046   5.658   4.141  0.1018  0.0558  0.2108
12603PP      PP22707  15.645   9.473   2.808  0.0966  0.0424 -0.2324
12604PP      PP22708  13.772   6.139  12.687 -0.0163 -0.4513  0.1641
12605PP      PP22709   9.325  12.962   9.720  0.0039  0.0632 -0.0070
12606PP      PP22710   2.098  14.436  11.346  0.0117 -0.0563  0.1117
12607PP      PP22711  11.254  13.476   2.774 -0.2003  0.0108  0.3091
12608PP      PP22712   1.368   0.725  11.979 -0.0520  0.1149  0.0241
12609PP      PP22713  11.118  14.674   2.181 -0.0865 -0.1383 -0.1750
12610PP      PP22714   8.767   5.284   0.595 -0.2081 -0.2095  0.3728
12611PP      PP22715   0.225   9.363   4.394  0.1729 -0.2308 -0.1579
12612PP      PP22716  14.428  10.949  13.070 -0.0998 -0.2586 -0.0910
12613PP      PP22717  13.853   9.540   8.071  0.0348 -0.4554  0.1790
12614PP      PP22718  15.451  10.901   1.379  0.1553  0.1090 -0.3209
12615PP      PP22719   1.028   2.331   9.111  0.1138  0.1423 -0.4489
12616PP      PP22720  15.114  14.766  11.194  0.2540 -0.0301  0.1666
12617PP      PP22721  13.904   5.597  10.841  0.1653  0.2548 -0.0419
12618PP      PP22722  11.311  14.993  11.123 -0.0100 -0.1923 -0.0725
12619PP      PP22723  14.196   2.895  11.834 -0.1342 -0.0042 -0.0012
12620PP      PP22724   9.435  14.591   2.013  0.1275 -0.1783  0.0815
12621PP      PP22725  13.677   1.987   1.129  0.2736 -0.0557  0.1286
12622PP      PP22726   2.720   1.659   9.729  0.1124 -0.0568 -0.2926
12623PP      PP22727   9.792   1.375   1.166 -0.1236 -0.3018  0.0354
12624PP      PP22728  15.260   5.592   2.463 -0.0705 -0.1531 -0.0786
12625PP      PP22729   8.339   8.164   2.203 -0.2161 -0.2065 -0.0904
12626PP      PP22730   5.474   4.537   1.412  0.0648  0.2446 -0.0441
12627PP      PP22731   1.928   4.099  12.275 -0.0290  0.0598 -0.1255
12628PP      PP22732   0.370   1.940   3.203 -0.2226 -0.1509 -0.0802
12629PP      PP22733   7.731  12.462   1.467  0.0557 -0.1901  0.3062
12630PP      PP22734   3.427   8.259   5.081 -0.2326  0.0032  0.0907
12631PP      PP22735   8.867   0.388  11.031  0.1167 -0.0827  0.2878
12632PP      PP22736   0.242   2.150  10.812  0.0756  0.2109  0.1885
12633PP      PP22737   3.159   2.037   8.058 -0.2341  0.0754 -0.0758
12634PP      PP22738  14.772  13.523   2.123 -0.2316 -0.1749 -0.4280
12635PP      PP22739  12.244  13.428  12.318  0.4649  0.3353  0.1908
12636PP      PP22740   4.191   9.434   2.555 -0.2451  0.0271 -0.1959
12637PP      PP22741   8.941   3.162   2.305  0.1403 -0.0351 -0.2517
12638PP      PP22742  10.240   5.906   9.375  0.2235  0.1261 -0.0544
12639PP      PP22743   1.456   2.063   2.713  0.3264 -0.0020 -0.0770
12640PP      PP22744  15.047  10.852   3.980  0.1836 -0.0793  0.0430
12641PP      PP22745   5.066   8.957  11.793 -0.1052 -0.0430 -0.0952
12642PP      PP22746   3.355  10.667   9.127 -0.1231  0.0114 -0.0273
12643PP      PP22747   2.729  12.682   2.343  0.0657  0.2290  0.2424
12644PP      PP22748  11.443  11.064   4.155 -0.2594  0.3107  0.1302
12645PP      PP22749  11.208   3.691  13.288  0.1255  0.2996  0.1222
12646PP      PP22750   3.188  13.434  11.545 -0.2043  0.1918 -0.3721
12647PP      PP22751   2.841   0.451  10.099  0.0057  0.0196 -0.0924
12648PP      PP22752   1.420  13.759   8.761 -0.2364 -0.3062 -0.2371
12649PP      PP22753  11.230  12.525   0.871  0.0876 -0.2373  0.2228
12650PP      PP22754   7.436  11.309   1.425 -0.1843 -0.0810 -0.2320
12651PP      PP22755  10.585   0.937   8.800  0.2920  0.2010 -0.0821
12652PP      PP22756   3.128   2.450   1.031  0.5632  0.0187  0.0777
12653PP      PP22757   2.407   9.189   4.791 -0.2490  0.1439 -0.0985
12654PP      PP22758   9.488   7.773   1.714 -0.0256  0.1520 -0.0389
12655PP      PP22759   9.126  10.882   3.044 -0.5185  0.0516  0.0841
12656PP      PP22760   5.920  13.318   3.548 -0.1757 -0.1340 -0.0316
12657PP      PP22761   8.744  10.207   4.252 -0.1911  0.0267 -0.0934
12658PP      PP22762   8.501  14.541   1.824  0.0415  0.0153  0.2071
12659PP      PP22763  12.749  10.243   3.277 -0.0473 -0.0880  0.1407
12660PP      PP22764   1.836  10.153   0.716  0.2380 -0.3397 -0.1881
12661PP      PP22765   6.530   3.027  12.929 -0.4802  0.0295 -0.3420
12662PP      PP22766   4.917   0.194  11.095 -0.3123  0.0113  0.0756
12663PP      PP22767   8.397   1.481  12.300  0.1436  0.1008  0.1384
12664PP      PP22768   9.522  14.644  12.954 -0.0971 -0.1367 -0.1477
12665PP      PP22769  12.488  14.809  10.176 -0.1613  0.1391 -0.1509
12666PP      PP22770   2.557  11.278   0.675 -0.1946 -0.0735  0.1812
12667PP      PP22771   5.868  12.451   0.259  0.1359 -0.2380  0.2873
12668PP      PP22772  15.527   4.121  10.787  0.2015  0.1528 -0.0428
12669PP      PP22773   9.834   3.695   2.614 -0.1085  0.0848 -0.3563
12670PP      PP22774   2.787   1.456  13.121  0.0640 -0.2378 -0.0316
12671PP      PP22775   0.322  11.151  13.132  0.2792 -0.0109 -0.0297
12672PP      PP22776  14.940   7.817   3.079 -0.1956 -0.2689  0.0847
12673PP      PP22777  12.577  14.171   8.118  0.1863  0.2952 -0.0677
12674PP      PP22778  12.553  15.257   1.735 -0.1515  0.0582 -0.2082
12675PP      PP22779  11.384   3.570  12.033  0.3119  0.4979 -0.0466
12676PP      PP22780   6.114   9.108   2.626  0.2977 -0.0422  0.0831
12677PP      PP22781  15.889   2.396   8.514  0.0175 -0.0289 -0.1712
12678PP      PP22782   1.847   6.738   4.178  0.2481 -0.0115  0.0689
12679PP      PP22783  10.700   8.611  12.885  0.0976  0.2121 -0.0837
12680PP      PP22784   8.107  12.254   5.182  0.1592 -0.2664  0.1306
12681PP      PP22785  12.866  11.453  11.666  0.1023  0.1498  0.0890
12682PP      PP22786   0.811   7.147  10.392  0.0379  0.0955 -0.1657
12683PP      PP22787   5.575   2.706  10.820  0.0379 -0.3196 -0.3770
12684PP      PP22788   5.166   1.624   0.544 -0.1203 -0.0221  0.0390
12685PP      PP22789  12.676  14.841   0.717 -0.1290 -0.0303 -0.2800
12686PP      PP22790   3.000  11.140   0.478  0.1009  0.0642 -0.1132
12687PP      PP22791  12.101   7.731   9.613  0.0751 -0.2757 -0.2530
12688PP      PP22792  11.922   9.343  10.336  0.0079 -0.2786 -0.0533
12689PP      PP22793   4.138   6.232   5.021 -0.0601  0.1083 -0.0982
12690PP      PP22794   1.532  11.754  12.589  0.1399  0.1741  0.1104
12691PP      PP22795   6.940   5.070   2.678  0.2745  0.0582 -0.1188
12692PP      PP22796  11.593  10.426   9.103  0.2233 -0.2297  0.0030
12693PP      PP22797  12.690   2.363  12.661  0.2842 -0.0438 -0.2694
12694PP      PP22798   3.512   0.556   2.240  0.0468 -0.3393  0.1937
12695PP      PP22799   4.191  10.134   3.500 -0.1695  0.1346 -0.0193
12696PP      PP22800   8.791   2.536   2.163 -0.2352  0.5120  0.4413
12697PP      PP22801   7.395   2.489  10.814 -0.0158 -0.1551  0.0156
12698PP      PP22802   7.090   4.370   9.408  0.2808 -0.3794  0.1388
12699PP      PP22803   8.219  12.441   1.802  0.0877 -0.2157 -0.0964
12700PP      PP22804   1.920  13.248  12.731 -0.1202  0.2430 -0.0905
12701PP      PP22805  15.351   2.873   1.121  0.1530 -0.1074 -0.1114
12702PP      PP22806   3.528  15.796   1.496 -0.1634  0.2713  0.0152
12703PP      PP22807   5.696   3.446  12.571 -0.0395  0.0631  0.1488
12704PP      PP22808   6.460   9.806   1.114 -0.2481  0.1839  0.0849
12705PP      PP22809  13.301   4.663   9.966  0.3454 -0.0881 -0.0025
12706PP      PP22810   9.987   9.409   4.083 -0.4021 -0.2881 -0.1275
12707PP      PP22811   1.067   5.597  10.030 -0.2173  0.0736  0.3501
12708PP      PP22812   9.972  14.683  13.351  0.0501  0.1960 -0.0895
12709PP      PP22813   8.285   6.885   0.745  0.0248  0.0592 -0.0895
12710PP      PP22814   6.664  11.709   3.848 -0.0587  0.0149 -0.0151
12711PP      PP22815  15.663  11.819   0.987  0.1259  0.1333 -0.0339
12712PP      PP22816   5.844   9.952   9.416 -0.1514  0.2635  0.1076
12713PP      PP22817  11.052   4.679  11.411 -0.0161 -0.2067 -0.0421
12714PP      PP22818   1.086  15.351   8.553 -0.0669  0.3002  0.1558
12715PP      PP22819   3.033   8.716  13.082  0.0102 -0.4445 -0.0070
12716PP      PP22820   3.946   8.174   4.341  0.1384  0.1156  0.0567
12717PP      PP22821  11.268   7.485   3.507 -0.0814  0.1771 -0.0444
12718PP      PP22822   4.700   1.439   8.514  0.0070 -0.1644  0.0718
12719PP      PP22823  12.560  11.030   0.245 -0.0189 -0.1142  0.0943
12720PP      PP22824  12.765   3.053  11.336 -0.1337 -0.2350 -0.1080
12721PP      PP22825   5.279  11.976   1.409 -0.3337 -0.1895 -0.3020
12722PP      PP22826   1.898   4.696   9.946  0.1505 -0.1453  0.2315
12723PP      PP22827  14.494   7.545  12.505 -0.2871 -0.2232  0.1179
12724PP      PP22828   5.051   0.426  12.394 -0.0951  0.0533 -0.1273
12725PP      PP22829   4.909  12.756   0.267 -0.1794  0.0009  0.0830
12726PP      PP22830   3.661   5.930   9.969 -0.0598  0.0314  0.3235
12727PP      PP22831  11.037   0.392   0.064 -0.3087 -0.3325 -0.0245
12728PP      PP22832  13.891  13.851   0.669  0.2128 -0.2345  0.1423
12729PP      PP22833   3.886   1.409  10.475  0.1425 -0.1856  0.2541
12730PP      PP22834  11.437   2.447   9.293 -0.1218  0.0256  0.1486
12731PP      PP22835   4.770   8.903  12.782  0.1597  0.2075 -0.1401
12732PP      PP22836   7.435  15.841  10.309  0.3092  0.2121  0.3166
12733PP      PP22837   8.724   1.118   1.520 -0.1077  0.4375 -0.1651
12734PP      PP22838   5.122   7.503  11.179  0.2133  0.0878 -0.1593
12735PP      PP22839   3.508   4.473  12.623 -0.2246 -0.1083 -0.0332
12736PP      PP22840   4.723  14.999   2.223  0.0092 -0.0711 -0.0542
12737PP      PP22841   8.203  10.947   2.656  0.2169  0.0423  0.0741
12738PP      PP22842  13.053  10.458  11.976 -0.0877 -0.1118  0.0736
12739PP      PP22843   7.232   2.917   2.986 -0.0085 -0.0092 -0.4521
12740PP      PP22844   9.663   1.793   4.680  0.0121  0.2112  0.1775
12741PP      PP22845   0.654   3.499  10.701  0.0189 -0.2332 -0.0912
12742PP      PP22846  10.905   5.397   0.172  0.1410 -0.4628 -0.3327
12743PP      PP22847  10.574   3.772  11.123  0.1664 -0.0593  0.2838
12744PP      PP22848   9.695  10.742   8.988  0.1820 -0.2187  0.1390
12745PP      PP22849  10.148  13.030  11.553 -0.0531  0.0381 -0.1020
12746PP      PP22850   9.400   4.631   9.755 -0.1481 -0.0813  0.0976
12747PP      PP22851   8.172   6.447   2.482  0.1621  0.0363  0.1366
12748PP      PP22852  14.386   5.484   3.621  0.1706 -0.0171  0.3600
12749PP      PP22853  15.778   1.953   7.835  0.0105  0.2145 -0.2113
12750PP      PP22854  10.140   5.000   1.774  0.2389 -0.0997 -0.0968
12751PP      PP22855  12.984  13.390   0.908 -0.1491 -0.1083  0.2796
12752PP      PP22856   9.984   9.794   3.703  0.2897  0.2478  0.2868
12753PP      PP22857  15.054   9.512   1.542  0.0990 -0.2180 -0.1981
12754PP      PP22858   2.172  10.298   9.338  0.0546 -0.1860 -0.0632
12755PP      PP22859   8.639  13.679  10.426 -0.0409 -0.3092  0.2129
12756PP      PP22860   9.969   7.450   0.460  0.0880 -0.0263  0.1595
12757PP      PP22861  12.949   0.262  10.322  0.0577 -0.0423  0.0827
12758PP      PP22862  15.709   2.651   9.048  0.0188  0.2022  0.4624
12759PP      PP22863   0.697  12.481   1.083 -0.0691 -0.1634 -0.2908
12760PP      PP22864  11.706  11.521   4.106  0.2365 -0.2500 -0.1324
12761PP      PP22865   8.605  12.532   1.056 -0.1412 -0.0166  0.1329
12762PP      PP22866   4.893  14.512   3.891 -0.0003  0.0134  0.1144
12763PP      PP22867   2.766  10.911   9.588 -0.1271 -0.4654 -0.0581
12764PP      PP22868  14.512   9.275   2.372 -0.0757 -0.1542 -0.1047
12765PP      PP22869  10.032   5.813  13.010  0.0840  0.2243  0.4339
12766PP      PP22870   4.711   5.139  11.531  0.0911  0.1016  0.0408
12767PP      PP22871   2.749   2.116   3.938  0.1566  0.0343  0.0886
12768PP      PP22872   4.017  13.303  11.390 -0.1314  0.1298 -0.0413
12769PP      PP22873  11.777   0.014   8.370 -0.1195  0.1048 -0.1048
12770PP      PP22874   3.250  15.819   9.518 -0.0474  0.2174 -0.1933
12771PP      PP22875  10.528   9.886   0.514 -0.2058  0.5407 -0.3042
12772PP      PP22876   0.164   2.095  11.314  0.1180 -0.2551  0.0222
12773PP      PP22877   8.357   9.719   9.611 -0.3756 -0.1496 -0.2523
12774PP      PP22878   1.375   7.494   2.618 -0.0649  0.1514 -0.2715
12775PP      PP22879   2.435   1.141  11.285 -0.2181  0.0375  0.1813
12776PP      PP22880   9.708   6.527  12.379 -0.3274 -0.3690 -0.2373
12777PP      PP22881   3.040  15.045  10.110 -0.1569 -0.1851  0.2143
12778PP      PP22882   8.631   8.933  11.289  0.2454  0.1685 -0.0669
12779PP      PP22883   4.286   8.528   4.981 -0.0480  0.0466 -0.1099
12780PP      PP22884   1.614  14.472   2.934  0.0737  0.0077  0.2004
12781PP      PP22885   3.726   7.371   9.913  0.0304 -0.0846 -0.1753
12782PP      PP22886  14.215  11.662   2.640 -0.1304  0.2672 -0.1506
12783PP      PP22887   3.495   3.988  11.128  0.0108  0.0586  0.0588
12784PP      PP22888  10.599   2.999  10.638  0.0746  0.1905 -0.3806
12785PP      PP22889  13.851  14.751   3.055  0.2116 -0.1575 -0.3371
12786PP      PP22890   7.750   3.818  10.083  0.0388  0.2075 -0.4268
12787PP      PP22891   8.546  11.498  12.227  0.2784 -0.0094 -0.3297
12788PP      PP22892   3.093   9.349   1.075 -0.1486  0.0558  0.1305
12789PP      PP22893   8.176  11.170  11.001  0.0997 -0.0662  0.0455
12790PP      PP22894   6.040  11.865  10.838  0.0388 -0.0849  0.0847
12791PP      PP22895   4.760  14.323   0.784 -0.0741  0.0010 -0.1837
12792PP      PP22896   6.279  14.835   9.228  0.0288  0.1332 -0.2539
12793PP      PP22897  15.103   1.451  11.190  0.4548 -0.0175 -0.0971
12794PP      PP22898  13.634   4.137   0.089 -0.1137 -0.1214 -0.1711
12795PP      PP22899   1.219  15.478  10.265 -0.2810  0.0470 -0.1189
12796PP      PP22900   0.723   0.858  10.397 -0.0039 -0.3880  0.0532
12797PP      PP22901   8.408   7.184   0.303  0.0182  0.0918 -0.2338
12798PP      PP22902   8.268  10.752  10.647 -0.2609  0.1183  0.0388
12799PP      PP22903   2.886   8.102  11.729  0.1049  0.0942  0.2710
12800PP      PP22904   8.003  11.129  10.484 -0.0562 -0.1211 -0.0840
12801PP      PP22905   6.586  12.722   2.399  0.1346  0.2523 -0.4412
12802PP      PP22906   3.566  14.783  11.713  0.0087 -0.0748  0.3103
12803PP      PP22907  14.613   8.622   4.006 -0.2460 -0.2072  0.1426
12804PP      PP22908  10.498  10.407   1.472  0.1524 -0.2080 -0.0142
12805PP      PP22909  11.090   7.768   2.060 -0.4505  0.1189  0.1379
12806PP      PP22910  14.354   7.655   3.770  0.0801 -0.1423 -0.1263
12807PP      PP22911  12.549  11.822  11.422  0.0143  0.0947  0.2668
12808PP      PP22912  11.773  14.796   9.521  0.0105 -0.0524  0.1049
12809PP      PP22913  11.328   7.335   0.214 -0.0218 -0.3049 -0.0104
12810PP      PP22914   0.601   5.485  12.016 -0.1478  0.0252  0.2914
12811PP      PP22915  14.569  14.089   8.499  0.3659 -0.1303 -0.1393
12812PP      PP22916  14.902  14.497   8.685  0.0589 -0.1279  0.1191
12813PP      PP22917   1.490   5.425   1.763  0.2940  0.0992  0.1732
12814PP      PP22918   8.473   4.461  12.264  0.3969  0.1220 -0.1645
12815PP      PP22919   2.768   8.910   0.844 -0.2254  0.3064 -0.0393
12816PP      PP22920  12.040   6.272   1.916 -0.0316 -0.0675 -0.0536
12817PP      PP22921   0.270  12.730  10.985 -0.1189 -0.0688  0.1507
12818PP      PP22922   6.369   0.801  12.650 -0.2047  0.2276  0.1742
12819PP      PP22923   3.841  10.964   3.939 -0.1360  0.1029 -0.2838
12820PP      PP22924  15.386   8.743   8.774  0.2029 -0.2056  0.0975
12821PP      PP22925  10.060   9.245  12.324  0.2227 -0.2722 -0.0078
12822PP      PP22926   4.800   3.870   1.617 -0.1491 -0.0939  0.1011
12823PP      PP22927  14.227   3.498  12.993 -0.3715  0.2328  0.0321
12824PP      PP22928   8.476   2.192  12.445 -0.2786  0.1236 -0.1236
12825PP      PP22929  14.540  15.747   7.952  0.2694  0.0105  0.0821
12826PP      PP22930   7.317  15.594  12.626  0.0959 -0.0512 -0.2751
12827PP      PP22931   5.928   3.424   9.651  0.1113 -0.1342 -0.0246
12828PP      PP22932   5.482   9.802   4.458  0.1174 -0.1855 -0.0598
12829PP      PP22933   8.507   4.405   4.209 -0.0095  0.2240 -0.1247
12830PP      PP22934   9.923  12.029   3.937  0.3051  0.1377 -0.2350
12831PP      PP22935   1.223  10.071   9.804  0.0220 -0.2312 -0.1950
12832PP      PP22936   7.334  15.378  12.025  0.2851 -0.3322  0.2837
12833PP      PP22937   8.387   3.867   9.274 -0.0249 -0.2128  0.0407
12834PP      PP22938  13.536   9.568   1.923 -0.0399 -0.2241  0.1014
12835PP      PP22939   6.726   0.241   1.994 -0.0871  0.4414  0.0222
12836PP      PP22940  14.693   2.040  10.173 -0.0934  0.1557  0.1392
12837PP      PP22941   6.177  13.263  10.861  0.0719  0.1427 -0.1271
12838PP      PP22942   3.917   4.266   1.821  0.0005  0.2717  0.1675
12839PP      PP22943   6.796  10.822   3.160 -0.1227  0.2152  0.1949
12840PP      PP22944  10.647   8.696  11.881  0.3717 -0.2947 -0.0120
12841PP      PP22945  14.878   4.667  12.689  0.0688  0.0340 -0.0725
12842PP      PP22946   2.689   1.987   2.010  0.1154 -0.4339 -0.2036
12843PP      PP22947  12.979   8.653   4.757 -0.2234 -0.2835 -0.2102
12844PP      PP22948  13.723   2.971   2.004 -0.0527 -0.2789  0.1367
12845PP      PP22949   4.009   4.240   9.346 -0.0075  0.2856 -0.0131
12846PP      PP22950  10.435  11.749  10.272  0.3542  0.3010 -0.0776
12847PP      PP22951  13.337   5.427  10.771  0.3724  0.2434  0.0236
12848PP      PP22952   3.173   4.426  10.493  0.0826 -0.0284  0.1504
12849PP      PP22953   6.145   5.722  11.765 -0.4274 -0.0254 -0.0806
12850PP      PP22954  13.810  10.712  10.275  0.0930 -0.0580 -0.0482
12851PP      PP22955  14.826   2.297   1.946 -0.0305 -0.0156  0.0805
12852PP      PP22956  11.140   5.996  12.261  0.1775  0.0766  0.1456
12853PP      PP22957   8.880  10.052  12.147  0.1102 -0.0339  0.2454
12854PP      PP22958  13.170  12.081  11.241  0.1112 -0.1919  0.3761
12855PP      PP22959  13.759  13.238   8.179 -0.0722 -0.6007 -0.0044
12856PP      PP22960  12.933  11.166  11.247 -0.4299  0.4103  0.1482
12857PP      PP22961  11.578  10.318   3.966 -0.0318  0.0833  0.2444
12858PP      PP22962   2.679  13.993   3.887 -0.1560 -0.0256 -0.1734
12859PP      PP22963  10.984  11.825  11.043 -0.0630  0.2523 -0.2759
12860PP      PP22964   2.365   2.909   9.263 -0.2807 -0.1145  0.1760
12861PP      PP22965  15.192   6.756   9.044  0.0986  0.1586 -0.1649
12862PP      PP22966   1.155  11.923   1.592  0.1499  0.3027 -0.2040
12863PP      PP22967  10.506  10.317   0.170 -0.3077  0.0727 -0.0198
12864PP      PP22968   5.473  12.200   1.826 -0.2087  0.0365 -0.0537
12865PP      PP22969   7.351   3.524   9.984 -0.2278  0.1934  0.1395
12866PP      PP22970   3.866  11.544   2.080  0.1141 -0.1339  0.1226
12867PP      PP22971   0.987   1.469  12.622  0.1566 -0.1231 -0.0729
12868PP      PP22972  13.220  10.664   8.921 -0.2976  0.1181  0.0377
12869PP      PP22973   5.813   2.318   3.029 -0.0291  0.4259 -0.2805
12870PP      PP22974   5.896  10.487  10.416 -0.0264 -0.0303  0.0967
12871PP      PP22975  10.438   6.810  13.254 -0.0578  0.2916  0.1942
12872PP      PP22976   6.662   6.846  13.012  0.1916  0.0532  0.0983
12873PP      PP22977   0.949  10.732   9.294 -0.0876 -0.3968  0.0547
12874PP      PP22978   4.262   2.567  10.235  0.0250  0.1363 -0.0366
12875PP      PP22979   2.532   8.083  12.220 -0.4048 -0.0935 -0.1019
12876PP      PP22980   9.038  12.644   0.820  0.1849 -0.1304  0.1051
12877PP      PP22981  15.667   6.915   1.409  0.2307  0.0264 -0.2312
12878PP      PP22982   6.981   1.445  11.143 -0.4827  0.0587 -0.2277
12879PP      PP22983   1.440  13.019  10.033 -0.0014 -0.0273  0.3962
12880PP      PP22984  10.883  12.266   2.644  0.1543  0.1699  0.2182
12881PP      PP22985   0.383   5.777   0.848  0.2834  0.2565  0.1525
12882PP      PP22986   6.914   9.143  12.263 -0.1925 -0.2465 -0.1258
12883PP      PP22987   5.263  14.500  11.561  0.0162 -0.1183 -0.2682
12884PP      PP22988   6.177  11.447  13.043  0.1260 -0.1607  0.2694
12885PP      PP22989   3.440   1.147   9.012  0.0897 -0.1407 -0.2753
12886PP      PP22990   1.708  12.530   4.195 -0.0087  0.0194 -0.0973
12887PP      PP22991   6.332  12.501  12.430  0.2247  0.1440 -0.1805
12888PP      PP22992   8.075   4.708   2.652 -0.3393 -0.0609  0.2256
12889PP      PP22993   3.636  15.323  12.478  0.1771  0.3169 -0.0698
12890PP      PP22994  13.653  13.199   2.378  0.2343 -0.3163 -0.0119
12891PP      PP22995  13.335   4.129   2.873 -0.0152 -0.2177 -0.1414
12892PP      PP22996   0.211   7.489   3.532  0.0443  0.0568 -0.3194
12893PP      PP22997   0.599  12.021   2.326 -0.1354 -0.1215 -0.0221
12894PP      PP22998   8.822   9.423  13.282 -0.0157  0.2235 -0.0424
12895PP      PP22999   2.485   6.125   0.153  0.0566 -0.0190 -0.0435
12896PP      PP23000   1.460  11.726   9.818  0.1222 -0.0464  0.1103
12897PP      PP23001   0.819   1.553   3.109 -0.3201  0.0230  0.0061
12898PP      PP23002   1.539  11.330   4.356  0.0220  0.0355  0.1875
12899PP      PP23003   0.162  11.898  11.549  0.0322 -0.0795  0.0829
12900PP      PP23004   4.805   3.371   9.287  0.0096  0.0715  0.1009
12901PP      PP23005   8.393   5.348   8.975 -0.2630 -0.2140  0.0790
12902PP      PP23006   8.395  15.576   1.043 -0.1155 -0.2102  0.0222
12903PP      PP23007  15.563   6.431   2.049  0.1166 -0.0741 -0.1696
12904PP      PP23008   1.951   3.141  10.642 -0.2300 -0.2162 -0.3726
12905PP      PP23009  15.899   6.071   3.109 -0.3813 -0.2537 -0.3440
12906PP      PP23010   5.924   1.637   4.055 -0.0479 -0.0640 -0.2006
12907PP      PP23011   0.184   9.274   2.909 -0.1302  0.0172  0.2728
12908PP      PP23012  13.050   6.590  13.092  0.0088 -0.0703  0.2161
12909PP      PP23013  10.129  11.163  12.655  0.0565  0.1757 -0.1953
12910PP      PP23014   2.649   1.816  10.604 -0.3282 -0.0750 -0.0685
12911PP      PP23015  12.983   1.511  11.671  0.0649 -0.1671 -0.0046
12912PP      PP23016   0.955  12.309   0.544  0.1849  0.1115 -0.1343
12913PP      PP23017   8.498  11.472   0.784  0.3018 -0.1814  0.1185
12914PP      PP23018   5.467  12.299   3.924  0.0241  0.2339 -0.0370
12915PP      PP23019  13.132  12.654  11.008  0.3299  0.1658 -0.0965
12916PP      PP23020   2.399  12.894  11.342  0.1735  0.2807 -0.0103
12917PP      PP23021   9.946  14.208  11.826  0.0690 -0.2548 -0.1651
12918PP      PP23022  13.893  13.318  10.057 -0.0503  0.1992 -0.0158
12919PP      PP23023   9.389  13.975  12.248  0.1685  0.0029  0.0089
12920PP      PP23024   6.236   6.321  10.423 -0.1466  0.2019 -0.1933
12921PP      PP23025  12.050  10.015   3.913  0.1005 -0.0182  0.0275
12922PP      PP23026   6.101   0.540   3.685 -0.0570  0.1220  0.2096
12923PP      PP23027   1.082   8.942  11.909  0.2118  0.2102 -0.2855
12924PP      PP23028   6.919   1.495   9.181 -0.1253  0.2717  0.0307
12925PP      PP23029  15.854   7.704   4.435 -0.1207 -0.2997 -0.2039
12926PP      PP23030   3.274   1.273  10.300  0.1917  0.1416 -0.0273
12927PP      PP23031   8.190   2.715   4.370  0.0526  0.0626  0.1178
12928PP      PP23032  12.663  11.576  10.519  0.0493  0.0850  0.0002
12929PP      PP23033   5.869   0.256  11.892  0.1419 -0.2374 -0.0006
12930PP      PP23034  12.835  15.636   3.086 -0.0494 -0.2169  0.0574
12931PP      PP23035   6.553  10.457   2.898  0.1977  0.1037 -0.0102
12932PP      PP23036  11.289   9.514   0.667  0.3516  0.1717 -0.0574
12933PP      PP23037  10.928   5.986   9.285  0.1062  0.1427  0.3343
12934PP      PP23038   7.900   0.485  12.220  0.0097 -0.3102  0.0901
12935PP      PP23039  15.373  14.850  10.722 -0.0735  0.1418 -0.0013
12936PP      PP23040   2.267  15.576   3.311 -0.1338  0.2159 -0.0161
12937PP      PP23041   1.107   6.659  12.749 -0.0840 -0.0358 -0.0128
12938PP      PP23042   9.106   8.709  10.521 -0.0698 -0.0692  0.0245
12939PP      PP23043   4.738  10.469   1.694 -0.0752 -0.0363  0.2322
12940PP      PP23044   9.104   9.709   4.187  0.0279 -0.2103 -0.1352
12941PP      PP23045  14.159   4.013   2.552  0.1961 -0.1319  0.1798
12942PP      PP23046  14.992  10.519  12.606  0.1887  0.0512  0.3085
12943PP      PP23047  10.544   1.115  11.353  0.0247 -0.1290  0.0109
12944PP      PP23048   6.899   7.431   9.690 -0.2069 -0.0645  0.1097
12945PP      PP23049  14.543  11.787   2.184  0.2220  0.3438  0.2453
12946PP      PP23050   1.793  14.822   2.629  0.1240 -0.0292 -0.1567
12947PP      PP23051  14.130   9.718   3.259 -0.1877 -0.1796  0.0689
12948PP      PP23052   6.353  15.648  13.024  0.0129  0.0625 -0.3540
12949PP      PP23053   8.947  14.329  11.827  0.0809 -0.0978  0.1201
12950PP      PP23054   5.954   0.766  11.915  0.4165  0.2303 -0.2848
12951PP      PP23055  14.759   1.603   9.937 -0.3077  0.4191 -0.2659
12952PP      PP23056  15.133  10.576   8.601  0.0642  0.2052  0.0896
12953PP      PP23057   3.940  12.001   1.845  0.3281  0.1499 -0.1253
12954PP      PP23058  15.409  13.001   1.638 -0.3254  0.1568  0.0163
12955PP      PP23059   9.521   1.176   9.320  0.1912  0.1507  0.2612
12956PP      PP23060   5.782   8.040  10.656  0.3408  0.1182 -0.2039
12957PP      PP23061   9.214   2.649   2.429  0.1671  0.3534  0.1739
12958PP      PP23062   2.884   3.362   3.227 -0.3045 -0.0218 -0.2976
12959PP      PP23063  13.722   6.814   1.453 -0.0637 -0.0658  0.0436
12960PP      PP23064   6.691   2.944   3.492 -0.3560 -0.2800  0.1839
12961PP      PP23065   9.829   1.838  13.083 -0.0982  0.1444 -0.2014
12962PP      PP23066   5.660  15.258  12.904  0.1732 -0.2464  0.0548
12963PP      PP23067   6.630  14.786   9.892 -0.0345  0.0339  0.0040
12964PP      PP23068  11.090   5.456  12.226  0.2522  0.1151  0.0872
12965PP      PP23069   4.504   4.839   2.344 -0.1345  0.1393 -0.6240
12966PP      PP23070   8.902  10.053   3.367  0.0514 -0.0663 -0.1304
12967PP      PP23071   8.404  13.240   1.803  0.0851 -0.2611  0.1221
12968PP      PP23072   3.522   8.500  11.421 -0.1966  0.0741 -0.3489
12969PP      PP23073   5.030   1.337   2.523 -0.2743 -0.1472  0.1136
12970PP      PP23074  10.924   5.443  13.122 -0.1115 -0.2085  0.0854
12971PP      PP23075  11.027   9.842  10.688 -0.1092  0.0602  0.2996
12972PP      PP23076   2.559   6.738   9.413  0.1927  0.0840 -0.0190
12973PP      PP23077  13.515  11.693  13.095 -0.0888 -0.1300 -0.2724
12974PP      PP23078  14.377   7.431   2.584  0.0153 -0.0536 -0.1602
12975PP      PP23079   3.682   3.438   9.463  0.1294  0.1828  0.0124
12976PP      PP23080   6.165   6.490  11.138  0.0017  0.4316 -0.1756
12977PP      PP23081  10.659   5.123   1.773  0.1528 -0.0188 -0.0040
12978PP      PP23082   1.340   1.836   1.259 -0.0586 -0.2523 -0.1534
12979PP      PP23083  14.718   9.959   9.534  0.2085 -0.0194  0.3909
12980PP      PP23084  15.066   7.349  13.051 -0.2748 -0.0141  0.1426
12981PP      PP23085  14.424   1.400  10.374  0.0268 -0.1423  0.2201
12982PP      PP23086  10.060  11.298   2.168  0.1654 -0.1565  0.2097
12983PP      PP23087   5.119   1.301  11.862  0.1249  0.2768 -0.1388
12984PP      PP23088  12.860  14.890  11.822  0.1124  0.0911  0.0989
12985PP      PP23089  14.040   9.972   9.061 -0.0315  0.2646  0.2303
12986PP      PP23090  10.278   2.747   2.849 -0.0150  0.0018  0.0811
12987PP      PP23091  11.891   4.339   1.716 -0.1325 -0.0626 -0.0847
12988PP      PP23092   5.940  12.147  11.458 -0.0974  0.3615 -0.1717
12989PP      PP23093  15.446  12.895   2.489  0.0807 -0.1146 -0.2541
12990PP      PP23094   1.573   4.887  11.904 -0.0560 -0.1053  0.1525
12991PP      PP23095   9.020   2.431  12.951 -0.1368 -0.2033 -0.0263
12992PP      PP23096  10.577   5.311   8.722  0.0833  0.2711  0.3976
12993PP      PP23097  15.676   6.864   8.888  0.0428 -0.0128 -0.0625
12994PP      PP23098  10.687   0.894  12.904  0.0644  0.2400  0.1977
12995PP      PP23099   0.048  15.433  11.107 -0.2725  0.1210  0.2582
12996PP      PP23100   1.073   4.309  10.817 -0.1622 -0.0870 -0.0239
12997PP      PP23101  14.341   6.712   9.390  0.1520 -0.1298 -0.5676
12998PP      PP23102   9.731   8.254   0.509  0.0781 -0.1307  0.1344
12999PP      PP23103   3.483   3.238   2.428 -0.0361  0.0956 -0.1770
13000PP      PP23104   1.440  10.591  11.514 -0.4052  0.0383 -0.0212
13001PP      PP23105   6.732   8.112   1.406  0.0085 -0.0269 -0.7292
13002PP      PP23106   7.419   9.727  12.868  0.1075  0.0186 -0.0129
13003PP      PP23107   8.705   8.158   0.136 -0.2753 -0.3622 -0.1962
13004PP      PP23108  15.816  13.162   0.439 -0.2543 -0.1313  0.0756
13005PP      PP23109   0.897   1.006   0.781 -0.0202 -0.0910  0.1893
13006PP      PP23110   2.673   9.103   1.308  0.1045 -0.3597 -0.3077
13007PP      PP23111   1.993  15.779  11.511  0.0493  0.1736 -0.3249
13008PP      PP23112   5.408   9.992  11.630  0.3394  0.1240  0.2128
13009PP      PP23113  10.411   3.330   4.134  0.1197  0.2491  0.4010
13010PP      PP23114  15.670   6.784   0.177  0.0608  0.3282  0.1710
13011PP      PP23115  11.252   1.490   8.812  0.0442  0.1618  0.0625
13012PP      PP23116   8.614   4.065  12.573 -0.2317  0.1029 -0.0427
13013PP      PP23117   4.029  10.701   0.726  0.1492  0.3647  0.3366
13014PP      PP23118   9.411   8.737   3.887  0.0029 -0.1333  0.2537
13015PP      PP23119   5.396  14.794   2.461 -0.0438 -0.3017  0.1401
13016PP      PP23120   7.094   7.031   4.786  0.4307 -0.2929 -0.1129
13017PP      PP23121   3.566   2.360  10.340  0.2192  0.2955  0.0795
13018PP      PP23122   0.494   0.011   0.736  0.1953  0.0985  0.0927
13019PP      PP23123   4.751   7.703  12.491  0.0883  0.0231  0.0277
13020PP      PP23124  14.193   9.639  13.347 -0.1801 -0.0075 -0.0799
13021PP      PP23125   6.487   7.454   1.789 -0.1146  0.0632  0.1516
13022PP      PP23126   8.663   8.662  12.036 -0.2319  0.1949  0.2401
13023PP      PP23127   8.800  11.751   2.594 -0.1691 -0.4384  0.2583
13024PP      PP23128   4.867   1.843   1.236  0.0863 -0.0220  0.0555
13025PP      PP23129  14.859   8.484   9.860 -0.1677  0.1684 -0.0307
13026PP      PP23130   6.914   5.623   2.878 -0.0122 -0.1510  0.0951
13027PP      PP23131  13.969   5.398  13.198  0.1178  0.1251  0.0789
13028PP      PP23132  14.760  13.613   1.536  0.0327  0.3748  0.3769
13029PP      PP23133   5.994   4.333   0.574  0.1927  0.1643  0.1193
13030PP      PP23134   7.143  14.963  12.345 -0.3424 -0.0229 -0.4139
13031PP      PP23135   4.159   4.001   1.381 -0.1402  0.3176  0.1065
13032PP      PP23136   9.744   7.000  10.053  0.0669 -0.0139  0.0231
13033PP      PP23137   1.379   1.749  12.666 -0.2900 -0.1308  0.1314
13034PP      PP23138   1.528  15.850   2.239  0.0358  0.0922  0.4080
13035PP      PP23139   7.468  12.001   4.413  0.1085  0.0317 -0.1584
13036PP      PP23140  11.178   8.191  10.230 -0.3021  0.1392 -0.0048
13037PP      PP23141  14.612  11.158   2.141 -0.0382  0.0170 -0.1224
13038PP      PP23142   5.051   2.887   2.844 -0.0540 -0.2318 -0.0579
13039PP      PP23143  12.698  12.653  10.083  0.4635 -0.0936  0.1327
13040PP      PP23144   4.436  14.557  12.803  0.1485  0.1830 -0.2450
13041PP      PP23145  13.891   9.009   1.018  0.1432  0.1177 -0.3508
13042PP      PP23146   2.013  15.390   8.129  0.2306 -0.0472  0.0561
13043PP      PP23147  15.713   2.379  11.019  0.0679 -0.1881  0.0650
13044PP      PP23148  14.758   8.511   2.451 -0.3372  0.1149  0.0849
13045PP      PP23149   0.753   8.700  10.486  0.2763 -0.1690  0.1135
13046PP      PP23150   0.877   0.450   0.767 -0.0977  0.1106 -0.2122
13047PP      PP23151   7.060   0.612  13.266 -0.1554  0.5721 -0.1822
13048PP      PP23152  10.702  10.713   9.507 -0.1061 -0.0515  0.0191
13049PP      PP23153  14.467   3.897   0.592 -0.1017  0.1254 -0.1540
13050PP      PP23154  13.120   0.461  11.515 -0.1616 -0.0957  0.0493
13051PP      PP23155   8.605   1.871  11.569 -0.2666 -0.6236  0.0229
13052PP      PP23156  12.198   8.516   3.719  0.2720  0.0161 -0.1438
13053PP      PP23157  13.304   8.299  11.031  0.0045  0.1671 -0.2119
13054PP      PP23158  12.658   8.699   1.557 -0.1428  0.3995  0.0572
13055PP      PP23159   3.644   2.979  11.023 -0.0850 -0.0921  0.2250
13056PP      PP23160   8.866  13.146   1.573 -0.1189  0.1057 -0.1613
13057PP      PP23161   8.524   6.799   2.696  0.2168 -0.0834 -0.0322
13058PP      PP23162   3.422  14.665   8.690 -0.1708 -0.1588 -0.1471
13059PP      PP23163  10.853   5.944   4.194  0.1087 -0.3941 -0.1489
13060PP      PP23164   0.586   6.166   4.717  0.0371 -0.0876  0.1615
13061PP      PP23165   2.827   7.074   0.123  0.3295  0.0178 -0.0272
13062PP      PP23166  12.569   5.475  10.953 -0.0710  0.0395 -0.0028
13063PP      PP23167  13.763  13.368   0.424 -0.1169 -0.0400  0.1323
13064PP      PP23168  15.641   1.443   7.769  0.0504 -0.5477 -0.0441
13065PP      PP23169   9.327   9.889   2.964 -0.0382 -0.0625  0.1847
13066PP      PP23170  12.227   5.324   3.088 -0.0162 -0.1376 -0.2497
13067PP      PP23171   2.420   0.943  12.573 -0.2022 -0.0632  0.0257
13068PP      PP23172   1.009   1.479   3.986  0.0072  0.1979 -0.1689
13069PP      PP23173   2.239  13.197   1.917  0.1013  0.0371 -0.1902
13070PP      PP23174  14.173  10.346  11.281 -0.1579  0.3867 -0.2731
13071PP      PP23175   1.443   6.295   1.430  0.1098  0.0245 -0.0639
13072PP      PP23176   5.566  11.989  12.408 -0.3685  0.4479  0.1713
13073PP      PP23177  12.871   0.700  12.138 -0.0781  0.2065  0.0479
13074PP      PP23178  11.896   1.430   3.489 -0.0898  0.3813 -0.1584
13075PP      PP23179  15.821   2.391  12.757 -0.0094 -0.1233 -0.4171
13076PP      PP23180   0.333  12.704   4.578 -0.0578  0.2178  0.0954
13077PP      PP23181   2.055  10.602  10.583 -0.2779 -0.1654 -0.0286
13078PP      PP23182  10.929   2.359   8.825  0.2263 -0.1968 -0.2811
13079PP      PP23183   3.149   6.885   0.843 -0.1604 -0.0047 -0.0088
13080PP      PP23184   2.473  12.563  10.581  0.5356 -0.1071 -0.2421
13081PP      PP23185   4.398   6.013   0.974 -0.0984  0.0192  0.2470
13082PP      PP23186   7.993   5.384  10.830 -0.1783  0.1256  0.0626
13083PP      PP23187  13.468   4.422   0.595 -0.1982 -0.1114  0.0080
13084PP      PP23188  14.625   0.532  12.803  0.0687 -0.1958 -0.1523
13085PP      PP23189  10.408   2.709  10.261 -0.2181 -0.0591  0.0274
13086PP      PP23190   1.369  10.982  10.316  0.0611 -0.1283  0.0654
13087PP      PP23191  15.790   8.234   0.806 -0.0029 -0.0116 -0.0036
13088PP      PP23192  10.601  14.892   0.208 -0.2351  0.3194  0.0402
13089PP      PP23193  12.738   3.153   1.838  0.0312 -0.5107 -0.0674
13090PP      PP23194  12.801  13.424  11.694  0.0238 -0.1459  0.2327
13091PP      PP23195  15.872   4.312   3.157 -0.0809 -0.2450 -0.0963
13092PP      PP23196   3.126   3.489  10.923  0.2467 -0.0843  0.0034
13093PP      PP23197   7.569   1.114   8.752  0.0919  0.0192 -0.0504
13094PP      PP23198  14.754  10.211  10.331 -0.1037 -0.0429  0.0389
13095PP      PP23199   5.039   8.515   0.473 -0.1418 -0.1267  0.0720
13096PP      PP23200   6.936  15.027   3.706 -0.3173  0.2401 -0.0149
13097PP      PP23201  14.836   8.670   4.490 -0.0098  0.0220  0.0289
13098PP      PP23202  15.138  14.312   2.845  0.0638 -0.1929 -0.4447
13099PP      PP23203   9.478   1.944  11.269  0.1874 -0.1491 -0.0936
13100PP      PP23204  11.957   3.695  12.047  0.3329  0.1640 -0.3457
13101PP      PP23205   2.530   3.788   8.797  0.0140 -0.1040 -0.0776
13102PP      PP23206   6.780   2.899   0.192  0.2107  0.1408  0.1286
13103PP      PP23207   1.533  12.635   1.481 -0.0016  0.1465 -0.0141
13104PP      PP23208   4.559   0.151  12.470  0.1736 -0.2390  0.0658
13105PP      PP23209   7.089  10.608  10.666  0.0903 -0.0852  0.2692
13106PP      PP23210   3.870  12.089  11.990 -0.0121 -0.5210 -0.0226
13107PP      PP23211   7.003  11.418  11.756  0.2259  0.1561 -0.1731
13108PP      PP23212  10.956   1.417   0.320 -0.1622  0.0133  0.2394
13109PP      PP23213   3.755   0.755   8.496  0.2729 -0.1577 -0.0896
13110PP      PP23214  12.867   5.224   1.328 -0.2092 -0.1544 -0.2642
13111PP      PP23215   5.284  10.155  13.016 -0.1126  0.0409 -0.1079
13112PP      PP23216   8.702   2.817   2.581 -0.1002  0.0170  0.1815
13113PP      PP23217   0.050   2.334  12.241  0.1273 -0.0459 -0.3802
13114PP      PP23218   2.244   0.804   1.895 -0.0566 -0.2300  0.1837
13115PP      PP23219   9.863  12.010  12.404 -0.2628 -0.2313  0.1286
13116PP      PP23220   0.268  10.308   3.545  0.0136  0.0583 -0.0120
13117PP      PP23221   0.574   0.556  12.469 -0.2415  0.1959  0.0160
13118PP      PP23222   6.299   7.950  10.994 -0.2294 -0.2908  0.0096
13119PP      PP23223   7.650  11.359   3.104  0.1481 -0.0516 -0.1222
13120PP      PP23224   4.221   0.008   0.820 -0.0286 -0.0759  0.1416
13121PP      PP23225  12.324   1.153   1.212 -0.5037  0.2151 -0.2870
13122PP      PP23226  10.012   4.337   0.169 -0.0745 -0.1142  0.0053
13123PP      PP23227  13.137   4.389   2.471 -0.1702  0.3450 -0.1656
13124PP      PP23228  15.146  13.263  11.108  0.0180 -0.2411 -0.3440
13125PP      PP23229   1.950   0.017   8.473 -0.2513 -0.0583  0.1515
13126PP      PP23230   3.517  12.294   3.675  0.0511  0.2721  0.0319
13127PP      PP23231   8.051   6.794   9.499 -0.1455  0.2042  0.3033
13128PP      PP23232  11.202   0.347  11.796 -0.1526 -0.2626  0.1600
13129PP      PP23233  10.970  15.142   8.518  0.0972  0.0966  0.2426
13130PP      PP23234   1.919   7.810   9.744  0.2300 -0.2201 -0.2083
13131PP      PP23235  13.114   2.163   9.595 -0.0648 -0.2002  0.1480
13132PP      PP23236  15.135   9.519   0.601 -0.5565 -0.1608  0.0300
13133PP      PP23237  12.571   6.583   8.959  0.1914 -0.0474  0.1577
13134PP      PP23238  14.033   2.364   1.086  0.0316 -0.0592 -0.3240
13135PP      PP23239   3.985   0.498  12.091  0.0014 -0.1194  0.2922
13136PP      PP23240  14.248  12.588   2.964  0.0418  0.1040  0.0130
13137PP      PP23241  13.687   3.880   2.535  0.0914 -0.0452 -0.0086
13138PP      PP23242   6.044  10.936   4.320  0.1355 -0.1331 -0.0430
13139PP      PP23243   4.668  14.469   0.282  0.1541 -0.1232 -0.0752
13140PP      PP23244  10.342  13.232   9.108 -0.3114  0.0306  0.2985
13141PP      PP23245   4.336   2.921  12.279 -0.3039 -0.3204  0.5134
13142PP      PP23246   2.079  11.410  11.559  0.1190 -0.0358  0.0865
13143PP      PP23247   9.853   6.543   9.881 -0.1905  0.0900 -0.0367
13144PP      PP23248  11.765   8.927   1.878 -0.4833 -0.3170  0.1264
13145PP      PP23249   2.838  13.585   9.167  0.2283  0.1910 -0.0455
13146PP      PP23250  12.529   8.995   4.102 -0.0131  0.0864  0.0874
13147PP      PP23251   3.442  14.675   2.361  0.1623 -0.2752  0.1767
13148PP      PP23252   0.294   8.302   4.418  0.0092 -0.0116 -0.0175
13149PP      PP23253   9.384   5.971  12.303 -0.0996  0.1523  0.0188
13150PP      PP23254   7.730  10.778   2.934 -0.1776 -0.3049 -0.2582
13151PP      PP23255   1.956   6.181  11.488 -0.5052 -0.0282  0.4131
13152PP      PP23256   0.370   2.815  12.008  0.3116  0.0904 -0.1751
13153PP      PP23257   0.708   6.275   2.127  0.0661  0.0404  0.1569
13154PP      PP23258   6.873   1.694   9.760 -0.0238  0.1806 -0.0178
13155PP      PP23259   2.045   5.469   3.347 -0.3575 -0.1915 -0.2639
13156PP      PP23260  14.278   6.749  13.052 -0.0097  0.1281  0.1398
13157PP      PP23261  13.917   5.687   0.284  0.0004  0.0051 -0.0125
13158PP      PP23262   7.004  10.516  12.380 -0.0506  0.0380  0.1880
13159PP      PP23263   7.691   4.654   3.719 -0.4546  0.3483  0.1219
13160PP      PP23264   0.192   9.056   4.744  0.0623  0.0904 -0.0943
13161PP      PP23265   1.598  11.081   0.054  0.0635 -0.0970 -0.2668
13162PP      PP23266   2.334   2.723   0.341  0.0461  0.1257  0.0101
13163PP      PP23267  15.348   9.276  10.778 -0.1326  0.0854  0.2433
13164PP      PP23268   0.655   7.751  11.119 -0.0792  0.0024  0.0148
13165PP      PP23269   6.897   4.752  12.169  0.0516  0.1633 -0.3313
13166PP      PP23270   3.897   4.537   3.510  0.0467  0.2121  0.0315
13167PP      PP23271  11.949   5.164   9.642 -0.2164  0.3435 -0.1631
13168PP      PP23272   5.652   9.011   4.198 -0.3322  0.1027  0.2199
13169PP      PP23273   8.809   9.792   1.068  0.1192 -0.0443 -0.2222
13170PP      PP23274   5.821   4.255   2.374  0.0783  0.0025 -0.1371
13171PP      PP23275   7.804   0.766   0.225  0.2615  0.2400 -0.1269
13172PP      PP23276   1.837   1.544   9.644  0.0338 -0.1114  0.3702
13173PP      PP23277  15.558  10.685   9.931 -0.0718  0.1216  0.2918
13174PP      PP23278  11.339  11.140   1.056  0.0991 -0.1487 -0.1410
13175PP      PP23279   2.670  12.546   9.659 -0.2856  0.1899  0.2072
13176PP      PP23280   4.990   1.409   0.083 -0.1193  0.4116  0.1459
13177PP      PP23281   1.807   1.306   3.117  0.1310  0.0138 -0.1121
13178PP      PP23282  13.842   2.514   2.346  0.0866 -0.0700 -0.4076
13179PP      PP23283   8.111  14.864   9.572 -0.3873 -0.0878 -0.2734
13180PP      PP23284  15.734   4.605  11.082  0.0189  0.0513 -0.0464
13181PP      PP23285  11.043  10.865   9.858 -0.2673 -0.2314  0.1187
13182PP      PP23286   3.463   7.590  10.271  0.1010  0.1338 -0.0757
13183PP      PP23287   7.201  13.076   3.411 -0.2191  0.0527  0.0799
13184PP      PP23288   8.349  11.743  11.840 -0.0548  0.0212 -0.0399
13185PP      PP23289  10.645  13.905   9.822  0.1550  0.3585 -0.0653
13186PP      PP23290   6.637   6.395   0.467 -0.2162  0.3380  0.3056
13187PP      PP23291   0.528   5.609   1.480 -0.0166  0.1664 -0.0478
13188PP      PP23292   5.769   6.022  10.465 -0.0889  0.1410 -0.0062
13189PP      PP23293   9.105  12.611   2.803 -0.1332  0.5226 -0.2384
13190PP      PP23294   0.849   6.830  13.128 -0.0798  0.4023 -0.0245
13191PP      PP23295   1.116   8.196  12.133 -0.1626  0.1334 -0.0812
13192PP      PP23296  12.748  15.777  11.030 -0.1300 -0.1768  0.0563
13193PP      PP23297   5.107   8.332   3.194 -0.1774  0.1659 -0.0618
13194PP      PP23298   0.527   4.517  11.771 -0.3123  0.1891 -0.0412
13195PP      PP23299   9.445   2.064   9.753 -0.3629 -0.2900 -0.0531
13196PP      PP23300   2.496   2.399  13.396 -0.0404 -0.0964 -0.0565
13197PP      PP23301  13.642   1.564   8.853  0.0988 -0.0814  0.0956
13198PP      PP23302   0.080  11.677  10.156 -0.1948  0.0358  0.2470
13199PP      PP23303   7.818  10.572   4.602  0.1351  0.0181 -0.1442
13200PP      PP23304  14.502   2.839  10.513 -0.0361 -0.1918 -0.1889
13201PP      PP23305   2.353   2.863   9.846 -0.2678  0.1863 -0.0178
13202PP      PP23306  13.960   3.123   8.185  0.2196 -0.0733  0.1506
13203PP      PP23307   7.274   0.177  13.398 -0.0893 -0.0365  0.1515
13204PP      PP23308   9.453  11.533   4.218  0.0126  0.1819 -0.2314
13205PP      PP23309   0.435   6.673  12.282 -0.0809 -0.0737 -0.0223
13206PP      PP23310   9.710   6.331  13.303  0.0847  0.1702 -0.0279
13207PP      PP23311   1.915   4.265   0.213 -0.0806  0.1406 -0.2192
13208PP      PP23312  13.290   7.247  11.549  0.0649  0.2068  0.2745
13209PP      PP23313  15.752  14.392  11.782 -0.0581 -0.0324 -0.2413
13210PP      PP23314   0.128   3.977  11.178 -0.0769  0.0370 -0.2672
13211PP      PP23315   7.796   7.293   1.349 -0.1848 -0.0945 -0.0346
13212PP      PP23316  15.875  14.137   8.528  0.3147 -0.1321 -0.3261
13213PP      PP23317  14.738   6.876   8.700  0.0687 -0.1095 -0.0656
13214PP      PP23318   6.387   5.357  11.541 -0.1802 -0.1341 -0.0846
13215PP      PP23319  13.925   6.225  12.192 -0.1321  0.2144  0.0201
13216PP      PP23320  11.485   2.681  12.319 -0.0535  0.0811 -0.0341
13217PP      PP23321  10.869  14.976   2.443 -0.2226  0.2987 -0.1258
13218PP      PP23322  15.002   5.453   8.906 -0.3008 -0.1288  0.0933
13219PP      PP23323   2.620   8.855  10.620  0.1548 -0.0844  0.0384
13220PP      PP23324   5.078  12.612  10.265  0.2156  0.0119 -0.1038
13221PP      PP23325   5.509   0.299   4.141  0.1081 -0.1026  0.2423
13222PP      PP23326   6.533  11.671  12.688  0.4096 -0.0822  0.1089
13223PP      PP23327  10.485  13.119   3.173  0.3441 -0.1530 -0.3619
13224PP      PP23328   8.922  12.260  10.587 -0.0949 -0.0362 -0.0264
13225PP      PP23329   3.170   6.695   2.692  0.4191 -0.2112 -0.0373
13226PP      PP23330  12.169   4.078  12.904 -0.1795  0.0609  0.1502
13227PP      PP23331   6.785  13.629  10.833  0.1293  0.0633 -0.4528
13228PP      PP23332  15.471  10.311   0.040  0.1018  0.0029 -0.1040
13229PP      PP23333   0.713   3.028  13.457 -0.0739 -0.0148 -0.3363
13230PP      PP23334  14.933   0.419   1.273  0.1067  0.0578  0.1829
13231PP      PP23335  12.771   0.021  11.542 -0.1454 -0.0764  0.4838
13232PP      PP23336  13.497   0.566   4.217 -0.0793 -0.0949  0.2481
13233PP      PP23337   4.378   1.326   7.994 -0.0354 -0.1529 -0.0815
13234PP      PP23338  10.794   0.487  12.098 -0.1073  0.0206 -0.0397
13235PP      PP23339   1.363   9.019  12.334  0.0982 -0.1256  0.1128
13236PP      PP23340   4.754   3.825   2.129 -0.0077  0.3632  0.0422
13237PP      PP23341   3.261   2.947   2.046 -0.1958  0.0916  0.0236
13238PP      PP23342  14.585  15.384   1.616 -0.1907 -0.1703 -0.1200
13239PP      PP23343   3.484   9.597   1.829  0.0260 -0.1329 -0.3505
13240PP      PP23344   2.122   7.780  12.878 -0.2171 -0.0099 -0.2238
13241PP      PP23345  14.836   4.216   8.293 -0.1374  0.0488  0.0957
13242PP      PP23346   5.494  10.477  11.677  0.2027  0.0187  0.0381
13243PP      PP23347   6.467   2.075   8.224  0.1761 -0.0136  0.0978
13244PP      PP23348   8.880  13.395   2.759  0.2282 -0.2435  0.0376
13245PP      PP23349   9.135   4.698   0.101 -0.0247 -0.0239  0.1234
13246PP      PP23350  12.321  13.410  11.415  0.1364 -0.2157  0.2152
13247PP      PP23351   6.933   1.336   2.383 -0.0205  0.2284 -0.2015
13248PP      PP23352  15.008   4.266  12.988  0.0846 -0.1907 -0.1104
13249PP      PP23353   0.319   4.749   3.351 -0.0754 -0.0720  0.0251
13250PP      PP23354  10.586   8.231   2.217 -0.1080 -0.0783 -0.2876
13251PP      PP23355   7.400   0.918  12.852 -0.2012  0.2194 -0.2058
13252PP      PP23356   3.869   5.989   3.375  0.0833  0.0636 -0.0757
13253PP      PP23357   8.175   6.854   3.447 -0.1218 -0.2085  0.2680
13254PP      PP23358   1.293   8.377   4.076 -0.0085  0.2801  0.0670
13255PP      PP23359  13.248   6.910  12.228 -0.2901  0.1830 -0.1615
13256PP      PP23360   0.220  15.465   2.610 -0.0859 -0.0262 -0.1379
13257PP      PP23361   9.293   3.955   1.119  0.1760 -0.1845 -0.4683
13258PP      PP23362  10.665   2.730   3.209  0.1526  0.0638  0.1583
13259PP      PP23363  13.721   6.312   1.575  0.0693 -0.1978  0.0981
13260PP      PP23364   6.357  15.800   4.124 -0.0987 -0.1463 -0.0648
13261PP      PP23365   2.368   9.772   4.035  0.0643  0.0097  0.2661
13262PP      PP23366   2.755   3.297  10.628  0.2409 -0.0324  0.0093
13263PP      PP23367  15.569   9.282   1.524 -0.1293  0.1071 -0.1380
13264PP      PP23368  10.672  11.893  12.607 -0.1019 -0.3404 -0.2024
13265PP      PP23369   4.563   5.641  13.167  0.0711 -0.0729 -0.0340
13266PP      PP23370   3.436   4.778   0.898 -0.1153 -0.2939 -0.0309
13267PP      PP23371   3.923   9.697  12.656  0.1557  0.1542  0.3964
13268PP      PP23372  14.201   4.441  11.688 -0.1777 -0.0592 -0.0209
13269PP      PP23373   4.220   5.375   0.603  0.3544  0.0508  0.1103
13270PP      PP23374  12.735  12.559  10.752 -0.0201 -0.1069 -0.2092
13271PP      PP23375   4.980   2.100   8.680 -0.4843 -0.0685 -0.3553
13272PP      PP23376   3.739   5.025   9.607 -0.0299  0.0074  0.0242
13273PP      PP23377   6.925   1.606  11.639 -0.2791  0.1137  0.1991
13274PP      PP23378   6.587   0.497  13.142 -0.1338  0.0362  0.2016
13275PP      PP23379  10.367  12.399   0.894  0.2261  0.1012 -0.1071
13276PP      PP23380   5.670   2.961   9.864 -0.0655 -0.0103 -0.3235
13277PP      PP23381  12.764   0.263  12.623 -0.2248  0.2508 -0.2625
13278PP      PP23382   3.781  13.439  10.345  0.0017 -0.0939  0.1735
13279PP      PP23383   6.714   1.357  13.130 -0.1170  0.2155  0.0016
13280PP      PP23384  11.367   2.004  10.616  0.0223  0.2153  0.2485
13281PP      PP23385   3.804  13.115   1.192 -0.0525  0.0779 -0.0661
13282PP      PP23386   4.775  13.538  11.150  0.2750 -0.1960  0.3982
13283PP      PP23387  15.217   3.420  12.720  0.0025 -0.1082 -0.2654
13284PP      PP23388   2.877  15.689  11.422 -0.0122  0.0025 -0.1324
13285PP      PP23389   9.700  15.083   0.068 -0.3698 -0.1362  0.3869
13286PP      PP23390   2.559   4.143   1.550  0.0900  0.2004  0.0744
13287PP      PP23391  14.129   2.971  12.968 -0.0107  0.0979  0.3513
13288PP      PP23392   5.529   4.863   0.246 -0.4251  0.1678  0.3380
13289PP      PP23393  13.284   6.685  10.101  0.1097  0.1973  0.1333
13290PP      PP23394  13.168  10.710  11.467 -0.0335 -0.0079  0.2224
13291PP      PP23395   0.873  11.466  11.253  0.1618  0.0109  0.1405
13292PP      PP23396   8.098  15.079   4.107 -0.1212  0.1207  0.0953
13293PP      PP23397   9.147   6.912  11.113 -0.0365  0.1128 -0.1156
13294PP      PP23398   8.440   2.433   0.767  0.1537 -0.1552 -0.2572
13295PP      PP23399  10.355   0.033  12.322  0.1897  0.0122 -0.1465
13296PP      PP23400   1.107   9.496   0.596  0.1031  0.2662 -0.0627
13297PP      PP23401   1.033   1.542   1.605  0.2515 -0.0437 -0.2712
13298PP      PP23402   4.735   4.532   4.455  0.1566 -0.0334  0.0365
13299PP      PP23403  12.236   8.833   9.634 -0.1900 -0.0299 -0.1390
13300PP      PP23404   8.018   8.571   2.130  0.0811  0.0971  0.0130
13301PP      PP23405   9.768  15.098   1.500  0.2052  0.1958  0.0504
13302PP      PP23406  12.664   1.487  12.899 -0.0968  0.1329  0.2993
13303PP      PP23407   6.872   3.960   4.072 -0.0567  0.2544 -0.0017
13304PP      PP23408   5.453  13.392  10.222  0.1015 -0.0380 -0.3026
13305PP      PP23409  10.374  10.777   3.692 -0.1317  0.0884 -0.2538
13306PP      PP23410   9.701  14.585   3.754 -0.2333 -0.0657  0.0567
13307PP      PP23411   1.127   0.868  11.266  0.1566  0.1980  0.1053
13308PP      PP23412   4.235   0.781  12.863 -0.0925  0.0462 -0.0955
13309PP      PP23413  15.663  14.140  12.486  0.0266  0.4123 -0.4253
13310PP      PP23414   7.078   7.859   4.145  0.1568  0.0804  0.1165
13311PP      PP23415   9.609  13.291  13.167 -0.0885 -0.1861  0.2255
13312PP      PP23416   0.442   8.458   0.315 -0.1999  0.3227 -0.3663
13313PP      PP23417   0.728  12.004   1.263  0.0953  0.2501  0.1848
13314PP      PP23418   6.007  15.642  11.704  0.0867 -0.1986 -0.0221
13315PP      PP23419  12.656   5.965  11.121  0.0553 -0.1435 -0.0995
13316PP      PP23420  10.319  11.112  11.031  0.0654  0.1038  0.1000
13317PP      PP23421   5.419   7.541   1.879  0.0236 -0.2267  0.4208
13318PP      PP23422  15.763   6.074  11.404  0.1250 -0.2193  0.0245
13319PP      PP23423   2.765  12.143   0.144 -0.0814  0.1377 -0.0957
13320PP      PP23424   6.355  15.890   2.827  0.1570  0.1304 -0.4075
13321PP      PP23425   0.255   2.788   0.687  0.0876  0.1977 -0.0646
13322PP      PP23426   9.943  13.628   1.062  0.0379 -0.2179  0.0256
13323PP      PP23427  15.011   1.353   0.983 -0.0317  0.0604 -0.3607
13324PP      PP23428   0.445   9.113  10.396  0.0887 -0.3980 -0.2400
13325PP      PP23429  12.923   5.154   0.393  0.3642  0.1733  0.1314
13326PP      PP23430   2.639  12.457   0.885 -0.0050 -0.1878  0.0108
13327PP      PP23431   2.869  11.662   3.538 -0.0482  0.1411  0.0521
13328PP      PP23432   4.937  10.218  10.433  0.0846  0.1851 -0.2340
13329PP      PP23433   8.235   8.663   3.546  0.2632  0.0726 -0.1845
13330PP      PP23434   8.457   3.046  10.621 -0.2149 -0.3241  0.3516
13331PP      PP23435   3.840  10.320   9.690  0.0127  0.2566  0.3967
13332PP      PP23436  10.412   8.652  10.293 -0.1336 -0.0680 -0.0720
13333PP      PP23437   2.855   7.857   2.727  0.1074 -0.2223  0.2709
13334PP      PP23438   2.635   9.930   1.671 -0.0740 -0.0184  0.0298
13335PP      PP23439   7.372  11.685   1.107 -0.1632 -0.1245  0.0916
13336PP      PP23440   9.392   2.901   8.922  0.1792  0.0271  0.2970
13337PP      PP23441   2.284   6.798   2.910 -0.1877  0.1618 -0.1723
13338PP      PP23442  12.634   8.805  10.486  0.0960 -0.3250 -0.2024
13339PP      PP23443   0.542   8.340  10.193 -0.4022 -0.2965  0.2176
13340PP      PP23444   2.213  10.402   2.389 -0.0284 -0.1735 -0.0325
13341PP      PP23445  15.441   3.499  11.871 -0.2001  0.2272 -0.0005
13342PP      PP23446  14.873   9.042  10.069 -0.0451  0.2698 -0.1189
13343PP      PP23447   7.395   9.614   0.874  0.2810  0.0903  0.4182
13344PP      PP23448  14.772   9.388   1.976  0.2209 -0.0260  0.1366
13345PP      PP23449  10.725   9.030   4.602 -0.2329  0.1292 -0.0097
13346PP      PP23450   3.087   5.900  11.951 -0.0722  0.1879 -0.3312
13347PP      PP23451   1.149  14.854   2.509  0.4576  0.0299 -0.1809
13348PP      PP23452   3.625  13.822  12.172  0.2163 -0.4654 -0.0350
13349PP      PP23453   6.918   0.512   3.181  0.1826 -0.1581  0.2149
13350PP      PP23454  12.516  15.126   2.918 -0.1610  0.0394 -0.0922
13351PP      PP23455   7.392   4.950   1.248  0.3955 -0.2284 -0.1974
13352PP      PP23456  15.886  15.857   2.737  0.1889  0.0593  0.1605
13353PP      PP23457  15.645  11.542  10.982 -0.1624  0.0386 -0.4028
13354PP      PP23458  11.158  11.833   2.756  0.0071 -0.2481 -0.0793
13355PP      PP23459  15.126   3.821   0.652  0.1402  0.5475 -0.0471
13356PP      PP23460   5.790   3.230   9.211 -0.1349  0.0788 -0.2377
13357PP      PP23461   4.289   2.538  13.047 -0.0770 -0.0082  0.1473
13358PP      PP23462   2.902   4.209   0.114 -0.0112  0.0972 -0.2605
13359PP      PP23463   4.883   3.771  12.298  0.3661 -0.3850  0.4250
13360PP      PP23464   1.241   9.053   0.364  0.1037 -0.1127 -0.4391
13361PP      PP23465  11.684  13.105   8.577 -0.1137  0.2136  0.0166
13362PP      PP23466   1.036  15.017   1.289  0.0531 -0.0629 -0.1931
13363PP      PP23467   4.111   7.515  11.367 -0.0154  0.5662 -0.1740
13364PP      PP23468  15.566   4.244  12.935  0.0245 -0.1092  0.1104
13365PP      PP23469  12.525   8.432  10.084 -0.1228 -0.0109 -0.0709
13366PP      PP23470   3.566   5.271   1.215  0.0111 -0.2085 -0.1137
13367PP      PP23471  12.727  10.613   8.894  0.0136 -0.2792 -0.1988
13368PP      PP23472   7.562  11.514  11.696 -0.0784 -0.1281 -0.3524
13369PP      PP23473  10.574   4.673   0.874 -0.0072 -0.0939  0.4206
13370PP      PP23474   0.644   9.977   9.127 -0.1225  0.0396  0.2828
13371PP      PP23475  13.413  14.606  10.778 -0.1328 -0.0930  0.3408
13372PP      PP23476   8.426   5.633   3.720 -0.0969  0.5124 -0.2939
13373PP      PP23477   9.938   7.948   3.983  0.1045 -0.0749  0.2803
13374PP      PP23478  13.169   8.252   9.176  0.1815  0.4202 -0.0501
13375PP      PP23479   9.294   5.736   1.083  0.0633  0.0678  0.2570
13376PP      PP23480   8.171   0.952   3.769  0.2481 -0.0379  0.1706
13377PP      PP23481   4.782  12.265   0.066 -0.3076  0.0644  0.0485
13378PP      PP23482   6.101  11.928   1.831 -0.3825 -0.1335 -0.3944
13379PP      PP23483   0.428   0.077   9.914 -0.0052 -0.1695  0.1176
13380PP      PP23484   2.761   6.988   3.969  0.1523 -0.0445 -0.1041
13381PP      PP23485  15.057   5.667   0.477  0.1265  0.1280 -0.1135
13382PP      PP23486   4.477   8.116   1.095 -0.2089 -0.0875 -0.2107
13383PP      PP23487  13.292   2.822  11.716 -0.0634 -0.0658 -0.1710
13384PP      PP23488   6.238   5.749  12.314 -0.0703 -0.2851 -0.1300
13385PP      PP23489   7.630   6.861   3.952  0.0062  0.2162 -0.3994
13386PP      PP23490  10.565  13.907   1.909 -0.2777  0.0799 -0.0819
13387PP      PP23491   7.508   3.391  12.236 -0.0194 -0.0139  0.0837
13388PP      PP23492  10.086   5.653   2.452  0.3120  0.0888  0.0288
13389PP      PP23493   2.235   5.053  11.152  0.0362 -0.0847 -0.2001
13390PP      PP23494  11.009   6.366   8.885  0.1750 -0.0355  0.0227
13391PP      PP23495  13.421  12.288   8.889  0.2063  0.2144 -0.4152
13392PP      PP23496   3.796   6.591   4.616 -0.0739  0.1771 -0.0046
13393PP      PP23497   7.201  13.129  13.459  0.0296  0.1724  0.3590
13394PP      PP23498   8.641  14.693  12.087  0.1269  0.2615  0.1226
13395PP      PP23499   7.982  10.079   2.977  0.0690  0.6731  0.0189
13396PP      PP23500  11.732  12.114   1.222  0.2054 -0.0784 -0.0639
13397PP      PP23501  10.699   8.406  11.491  0.2311  0.1280  0.0775
13398PP      PP23502  15.321   9.859   1.027  0.1373 -0.0188 -0.0632
13399PP      PP23503   7.984   1.159   8.964 -0.2076  0.0315 -0.1191
13400PP      PP23504   8.442   3.046   2.231 -0.0329 -0.1547  0.0800
13401PP      PP23505   3.739   9.797   3.885 -0.1618 -0.2740 -0.1034
13402PP      PP23506   6.471  11.295  10.650 -0.1733 -0.7341 -0.1405
13403PP      PP23507   5.163   0.383  10.267 -0.1699 -0.1220  0.2970
13404PP      PP23508  14.978   3.827   2.815 -0.2086 -0.1337  0.1339
13405PP      PP23509   1.631   5.274   0.543 -0.1078 -0.1462  0.2297
13406PP      PP23510   2.596   7.783   3.202 -0.0158 -0.3456 -0.0692
13407PP      PP23511  12.970  13.456  10.406  0.1309 -0.1452 -0.0662
13408PP      PP23512   3.185  13.509   2.323  0.0165  0.0725 -0.0835
13409PP      PP23513   7.239  14.537  11.069  0.0552 -0.1618 -0.0151
13410PP      PP23514   2.424   1.037   8.962 -0.0519 -0.0599  0.0277
13411PP      PP23515   1.188  12.587  10.657  0.0164  0.1153  0.0872
13412PP      PP23516  13.945  15.877   2.188 -0.1019  0.1575  0.0105
13413PP      PP23517  10.796  11.803   9.468 -0.3524 -0.2486 -0.1057
13414PP      PP23518   4.371  11.791   1.929  0.0501 -0.1903  0.0390
13415PP      PP23519   4.541   3.394  12.331 -0.1423  0.0109 -0.0953
13416PP      PP23520   9.438  10.992   1.024  0.1470 -0.0293  0.1262
13417PP      PP23521  14.954  15.324  11.918 -0.1892  0.3275 -0.1576
13418PP      PP23522  14.325   5.412  11.868  0.0119  0.0846  0.1313
13419PP      PP23523   0.739  15.013  12.500 -0.1150 -0.2532 -0.0607
13420PP      PP23524   0.480   9.678  13.080  0.3133  0.0106  0.2959
13421PP      PP23525   8.066   6.644  13.156 -0.1913  0.2857 -0.1138
13422PP      PP23526  13.106   7.796   2.821  0.2223 -0.2058 -0.0547
13423PP      PP23527   2.329   4.582   2.441  0.0858  0.1579 -0.1833
13424PP      PP23528  12.083  13.820  10.586  0.0496  0.1755 -0.0076
13425PP      PP23529  13.312   1.883   3.248  0.2249 -0.0532 -0.2389
13426PP      PP23530  12.226  15.808   2.296 -0.0237  0.1472  0.4084
13427PP      PP23531  10.367   1.568   4.038  0.0228  0.1009 -0.1533
13428PP      PP23532   3.331  10.117   3.340 -0.5229  0.1281  0.1931
13429PP      PP23533   0.570   4.213  12.717 -0.2230 -0.0261 -0.1753
13430PP      PP23534   9.741   0.487   2.482 -0.0533  0.0129 -0.1597
13431PP      PP23535  10.066   2.785   0.594  0.1757 -0.0493  0.1060
13432PP      PP23536  12.309   9.055  10.224  0.2092 -0.2757  0.3684
13433PP      PP23537   9.116  10.828  10.774  0.0610 -0.1371  0.0405
13434PP      PP23538   4.688   5.195  13.063  0.0874 -0.1201 -0.1390
13435PP      PP23539   2.509   4.048  13.002 -0.1970 -0.1417 -0.1805
13436PP      PP23540  14.646   8.735  12.460 -0.0673 -0.1039  0.1967
13437PP      PP23541   1.697   8.584   4.362 -0.1342  0.2277  0.1758
13438PP      PP23542  14.425   0.036   0.486  0.0259 -0.1447  0.1233
13439PP      PP23543  14.592   1.547   3.850 -0.2605  0.0621 -0.2889
13440PP      PP23544  10.280  14.466   3.028 -0.1971  0.0822 -0.2312
13441PP      PP23545   3.750  11.167   2.447 -0.0013 -0.0878 -0.2386
13442PP      PP23546  11.456  12.156   3.558 -0.0797 -0.1185  0.1908
13443PP      PP23547   2.223   2.373   0.852  0.0005  0.0070 -0.0453
13444PP      PP23548  14.469   4.545   8.196  0.0876 -0.0663  0.2465
13445PP      PP23549   2.885   9.349   9.949 -0.0569 -0.4131 -0.3124
13446PP      PP23550   9.788  10.453   3.148  0.3690  0.2202 -0.0993
13447PP      PP23551   0.037   3.817   9.014  0.1387 -0.2559  0.2465
13448PP      PP23552  10.108   5.577   0.420  0.1702 -0.2418 -0.1928
13449PP      PP23553   0.820  12.877   1.634 -0.0096 -0.1768 -0.1758
13450PP      PP23554  14.275   1.053   1.317  0.2738 -0.1798  0.0566
13451PP      PP23555  11.985   6.121   9.802 -0.0886 -0.1099  0.0509
13452PP      PP23556   1.974   7.515   0.764 -0.0274  0.1258  0.1573
13453PP      PP23557  12.703   7.620  12.847  0.0032  0.0393  0.0883
13454PP      PP23558  11.244  12.444   2.985  0.0411 -0.0642 -0.2032
13455PP      PP23559  15.160   7.253   8.884  0.2522  0.1667  0.4465
13456PP      PP23560  12.948  11.219  12.248  0.0685 -0.1376 -0.0119
13457PP      PP23561   1.239   3.623  11.276  0.1790 -0.0158  0.0843
13458PP      PP23562   1.215   1.729   3.600 -0.1499  0.1294  0.1205
13459PP      PP23563  15.886   8.192   0.020  0.3838 -0.2554 -0.1071
13460PP      PP23564  15.100  15.445   0.938  0.0139  0.0346  0.0545
13461PP      PP23565   2.222   6.781  12.357 -0.0853 -0.0879 -0.1133
13462PP      PP23566   4.455   1.776   9.634 -0.0342 -0.0399 -0.2552
13463PP      PP23567  10.086   3.777   2.028  0.0530  0.0844 -0.1549
13464PP      PP23568  10.997  12.673   2.331  0.2985  0.3961  0.1512
13465PP      PP23569   8.886   3.637   2.613  0.0622  0.2394 -0.3080
13466PP      PP23570   3.407  11.693  10.506 -0.0335  0.0932  0.0754
13467PP      PP23571   5.675   4.087   1.421 -0.1057  0.0780  0.1419
13468PP      PP23572   5.303  13.925  10.065  0.0544 -0.0972  0.0289
13469PP      PP23573  10.285   2.945  11.696 -0.5313 -0.2933  0.3940
13470PP      PP23574   1.572  10.823   0.506 -0.1358  0.2134 -0.0772
13471PP      PP23575   4.544   9.822   9.553 -0.1600  0.0129 -0.0135
13472PP      PP23576   8.586  12.915   2.702 -0.0096  0.0283  0.4189
13473PP      PP23577  12.655  10.680   1.585  0.1104 -0.0434 -0.2503
13474PP      PP23578   2.950  10.443   9.695  0.2224  0.3850 -0.2134
13475PP      PP23579   4.600   3.193  11.075  0.1695  0.2637  0.0343
13476PP      PP23580   6.431  10.356  11.315 -0.1794  0.0603 -0.1207
13477PP      PP23581   9.425  14.161   9.407  0.1767 -0.0890 -0.0341
13478PP      PP23582   3.582   1.493   8.717 -0.1166 -0.0342  0.1051
13479PP      PP23583  11.507  10.460   3.374 -0.3474 -0.0005  0.0418
13480PP      PP23584   6.202  15.016  10.628  0.1671  0.0605 -0.0795
13481PP      PP23585   4.552   1.850   8.795  0.4866  0.0017 -0.0625
13482PP      PP23586   1.223   9.115  12.787 -0.1192 -0.2216  0.2593
13483PP      PP23587   5.614   8.807  11.946 -0.1576 -0.3545  0.2765
13484PP      PP23588  12.983  15.030   8.903  0.0334  0.1205 -0.2116
13485PP      PP23589   1.802   3.852   3.266 -0.2901 -0.0347 -0.3656
13486PP      PP23590  10.611  14.292  12.110  0.0560 -0.1782  0.2838
13487PP      PP23591   1.969  12.541   3.086 -0.1131  0.0513 -0.1573
13488PP      PP23592  10.542  10.672  11.799 -0.2756  0.2914  0.1123
13489PP      PP23593   8.539   4.071   8.791  0.1644 -0.0103 -0.0542
13490PP      PP23594   6.486   4.748  10.916  0.1252  0.3664  0.1790
13491PP      PP23595  13.078   1.646   0.190 -0.1993 -0.0846 -0.4407
13492PP      PP23596  14.306  15.520   3.384  0.0771  0.1725 -0.0284
13493PP      PP23597  10.129   0.305   8.672  0.2308 -0.0113  0.4664
13494PP      PP23598   1.958   6.204   0.320 -0.0527 -0.2088 -0.0127
13495PP      PP23599  10.331   3.977   2.426  0.2082  0.0917 -0.1278
13496PP      PP23600   7.680   2.246  11.182 -0.2622  0.1675 -0.1390
13497PP      PP23601   5.259  10.648  10.732 -0.0661 -0.0358  0.1742
13498PP      PP23602   7.600   9.378   0.453  0.0482  0.2669 -0.2789
13499PP      PP23603   7.231   2.788  12.449  0.0683 -0.1410  0.0069
13500PP      PP23604  11.350  13.850   3.083 -0.0060  0.0004  0.3627
13501PP      PP23605   2.340   9.968   1.215  0.3233  0.3419 -0.0454
13502PP      PP23606  12.016   4.773   1.359  0.1533 -0.2922 -0.2171
13503PP      PP23607  11.308   4.869   3.506  0.0944 -0.0857  0.0028
13504PP      PP23608   6.256   4.337   4.232  0.1103 -0.4510 -0.1894
13505PP      PP23609   9.828   0.216   1.759  0.1201  0.2500  0.1717
13506PP      PP23610  15.324   6.689   9.857 -0.2212 -0.3313  0.0724
13507PP      PP23611   2.350   7.673  12.422 -0.4689  0.1508  0.1721
13508PP      PP23612   8.329  15.818   9.598 -0.2035  0.1787  0.0708
13509PP      PP23613  15.729  10.137  11.203 -0.0530  0.0861  0.1828
13510PP      PP23614   1.548   3.918  12.512  0.1995  0.3126 -0.0457
13511PP      PP23615  14.650   7.346  13.344 -0.0104 -0.0646 -0.0530
13512PP      PP23616   0.843   6.075  10.133 -0.0415  0.1089  0.0272
13513PP      PP23617   5.076  15.814  11.508  0.1008 -0.3266  0.2496
13514PP      PP23618   1.426   2.855  11.852 -0.2908 -0.0047 -0.2877
13515PP      PP23619   2.433  10.008   0.628  0.1915  0.1049 -0.0220
13516PP      PP23620  15.753   7.931   2.635  0.3450  0.1119  0.2892
13517PP      PP23621   1.841   5.224   9.884  0.2554 -0.0604  0.2607
13518PP      PP23622  14.313   4.024   8.271 -0.2051  0.0470  0.0753
13519PP      PP23623  10.209   8.964   4.809 -0.1623 -0.2096 -0.0640
13520PP      PP23624  13.462  15.624   0.827  0.0984 -0.2149  0.0949
13521PP      PP23625   5.576   0.490   1.061 -0.0448  0.0850 -0.0237
13522PP      PP23626   5.057   8.542  13.005 -0.0186 -0.1360 -0.1353
13523PP      PP23627   6.230   1.593  12.563 -0.1250  0.2564 -0.1876
13524PP      PP23628  12.183   1.422  11.598  0.1084  0.2325  0.2078
13525PP      PP23629  10.352   8.520  10.786  0.3388 -0.0058  0.0790
13526PP      PP23630   9.894  14.009   0.762  0.0018  0.0188 -0.3170
13527PP      PP23631  14.238  13.011  13.057  0.1973 -0.0772  0.3728
13528PP      PP23632  12.762   3.818   8.273  0.2617  0.2136 -0.0279
13529PP      PP23633   2.488   5.165  10.732 -0.1341 -0.0891  0.0360
13530PP      PP23634  13.727   3.705  11.717  0.1996 -0.1685  0.0537
13531PP      PP23635   4.717   6.220   1.320 -0.2087  0.2660 -0.1934
13532PP      PP23636  14.853   9.575   3.842  0.4938  0.1529  0.2013
13533PP      PP23637   9.662  15.570   9.732 -0.2114  0.2241  0.2971
13534PP      PP23638   8.129   4.614   3.977  0.3033 -0.4549  0.0631
13535PP      PP23639   5.947  11.652  11.746 -0.1202 -0.1068  0.0634
13536PP      PP23640   7.690   4.133   2.374  0.3354 -0.3534 -0.0625
13537PP      PP23641  14.490  12.604   2.477  0.2050  0.2736 -0.0257
13538PP      PP23642   3.558  14.253   1.920  0.2464  0.1432 -0.2293
13539PP      PP23643   7.398   4.279   0.573  0.0444  0.3222 -0.0869
13540PP      PP23644   1.368   8.012   2.314 -0.0448 -0.2736 -0.2326
13541PP      PP23645   2.609   6.338  12.254  0.1210 -0.1850 -0.2049
13542PP      PP23646   5.871  13.305  10.479 -0.0071  0.0425 -0.0457
13543PP      PP23647   8.073   7.521   0.168 -0.1790 -0.2782  0.0895
13544PP      PP23648  14.430   9.414  11.818 -0.0639  0.1249  0.0858
13545PP      PP23649   4.024   0.084  10.480  0.2447  0.0586 -0.0362
13546PP      PP23650   0.137  11.436   1.843  0.0627 -0.0960  0.0857
13547PP      PP23651   3.322  11.992   2.704  0.0666  0.0406  0.4546
13548PP      PP23652  15.695   3.930  11.980 -0.1732  0.1465  0.1881
13549PP      PP23653  13.145   0.427   9.258  0.0318  0.1908 -0.1042
13550PP      PP23654   7.988   4.373  13.454  0.0097 -0.1140 -0.0852
13551PP      PP23655  12.249   3.133   0.600 -0.0382  0.1074 -0.1221
13552PP      PP23656   4.476   6.694   0.030 -0.2574  0.0861 -0.1173
13553PP      PP23657   4.603   2.498   8.008  0.0105  0.2203  0.3863
13554PP      PP23658   4.211   7.062  11.231  0.2007  0.2116  0.0323
13555PP      PP23659   8.813  10.893  11.524  0.2608 -0.1706  0.0857
13556PP      PP23660  15.218   6.656   3.845 -0.1939 -0.0476 -0.2608
13557PP      PP23661  15.679  14.317   9.019 -0.2069  0.0517 -0.2034
13558PP      PP23662   4.537  14.979   2.899 -0.0176  0.2265  0.1519
13559PP      PP23663   4.299   9.329  12.771 -0.1202 -0.1306 -0.1172
13560PP      PP23664   0.021   0.344   3.017 -0.1634  0.1776 -0.1491
13561PP      PP23665   3.896  15.595  10.140  0.0433 -0.2330 -0.0548
13562PP      PP23666   4.081  10.927   1.156 -0.2750  0.4219  0.0181
13563PP      PP23667   7.965   5.099  12.253 -0.1033 -0.0025 -0.3439
13564PP      PP23668   3.862  12.369  11.067 -0.0495 -0.2658 -0.0013
13565PP      PP23669   9.533  15.148  13.029  0.0361 -0.0657  0.0428
13566PP      PP23670  15.768  13.773  10.804  0.0274  0.1175  0.3777
13567PP      PP23671   7.676   7.808   0.250 -0.2766 -0.1122  0.1748
13568PP      PP23672   1.380   9.558   8.745  0.1252 -0.1653 -0.2071
13569PP      PP23673   2.494   9.514   9.627 -0.2963  0.1176  0.3571
13570PP      PP23674  15.577  15.444  10.672  0.1837 -0.0145 -0.0279
13571PP      PP23675  13.802  15.518   3.569  0.0788  0.2275 -0.2035
13572PP      PP23676   6.123  12.697   4.397 -0.3380  0.2650  0.0668
13573PP      PP23677   1.938   4.726   9.085 -0.6204 -0.0024 -0.3191
13574PP      PP23678  12.861   1.233   3.660  0.2536  0.0915  0.0797
13575PP      PP23679   8.447   3.818   0.550  0.1741 -0.2496  0.0618
13576PP      PP23680   4.026  12.479   2.052  0.0872 -0.1126  0.1622
13577PP      PP23681   4.473   2.755  11.343  0.3077  0.1138  0.0005
13578PP      PP23682  11.940  11.050  13.273 -0.2556  0.0362  0.2223
13579PP      PP23683   4.530   0.053   9.521  0.0221 -0.3270 -0.3310
13580PP      PP23684  13.203   0.030   1.641  0.0464  0.0112  0.2270
13581PP      PP23685   6.558   5.125  12.580 -0.0567  0.0481 -0.0538
13582PP      PP23686  14.091  15.397   1.679  0.2997 -0.1030  0.0976
13583PP      PP23687   7.707   5.019   0.820  0.0228 -0.2517 -0.0021
13584PP      PP23688   0.083   3.470   8.588  0.1379  0.0241  0.1412
13585PP      PP23689   9.162  11.493   4.994 -0.0276  0.1921  0.2205
13586PP      PP23690  14.441   6.524   0.589 -0.0333  0.1663  0.0055
13587PP      PP23691  15.409  14.419   8.570 -0.3390  0.2269  0.1335
13588PP      PP23692   0.186   1.556   2.005 -0.1094  0.0713 -0.3961
13589PP      PP23693  15.709   4.806  10.619  0.1227  0.0667 -0.1519
13590PP      PP23694   0.960   1.692   8.431  0.2993 -0.0466 -0.0947
13591PP      PP23695  15.171  15.460   3.358  0.3776 -0.2110  0.0338
13592PP      PP23696   1.045   8.708   9.383 -0.1336  0.0107 -0.2302
13593PP      PP23697  13.837   7.723   1.693  0.0709 -0.0536 -0.7196
13594PP      PP23698  10.322  15.505  13.080 -0.0643 -0.0510 -0.0865
13595PP      PP23699  10.709  13.534  13.393  0.2021 -0.0748 -0.0161
13596PP      PP23700  15.321  12.612   0.578 -0.0093 -0.1407  0.1141
13597PP      PP23701  11.354   3.805   8.737  0.0741 -0.5237 -0.0598
13598PP      PP23702   7.926   1.798  10.224  0.1738  0.3239 -0.0650
13599PP      PP23703  10.828   3.013  11.724  0.1592 -0.0103 -0.1669
13600PP      PP23704   4.786  15.198  10.334 -0.2904  0.0362  0.1262
13601PP      PP23705  15.691   6.461   3.518  0.2303  0.2102  0.0797
13602PP      PP23706   4.068  15.533   9.122  0.0611 -0.3085  0.0331
13603PP      PP23707   6.715   9.087   0.622  0.1975 -0.1617  0.4238
13604PP      PP23708   1.726   9.773   0.294  0.2559  0.0815 -0.0602
13605PP      PP23709   0.902  15.209   2.840 -0.0345  0.0178 -0.1383
13606PP      PP23710   9.637  15.432  11.032  0.0265 -0.0558  0.4099
13607PP      PP23711   9.172   3.233   1.567 -0.4106  0.0240  0.6337
13608PP      PP23712   9.345   4.001  11.773 -0.1870 -0.1612 -0.0633
13609PP      PP23713  10.446   3.493   2.280 -0.0605 -0.1830  0.0664
13610PP      PP23714   3.285  13.215   2.730 -0.1919 -0.0413  0.3137
13611PP      PP23715  14.457   5.021  10.463 -0.0701 -0.1212  0.0707
13612PP      PP23716  15.199   3.566   3.192 -0.0127 -0.0275  0.0887
13613PP      PP23717   5.565   1.615   2.265  0.0405  0.2189  0.0791
13614PP      PP23718  11.554   4.458   4.264  0.0387 -0.0072 -0.2946
13615PP      PP23719   0.661   6.390  12.567  0.1842  0.3797  0.1423
13616PP      PP23720  11.766   6.650  12.911  0.0477  0.1379  0.3454
13617PP      PP23721  15.561   6.852  12.430 -0.0927  0.1301  0.1501
13618PP      PP23722   1.984   2.036   2.662 -0.3140  0.3088 -0.0581
13619PP      PP23723   3.189   5.978  11.338 -0.1567  0.0236  0.2836
13620PP      PP23724  11.450  11.132   2.206  0.0485 -0.2401  0.1438
13621PP      PP23725   2.001  12.912   9.066  0.1054  0.1276  0.2179
13622PP      PP23726  10.789   7.843  11.770  0.1323  0.1307  0.1626
13623PP      PP23727   7.894  10.264  10.148  0.0598 -0.0945 -0.0049
13624PP      PP23728   5.556  13.504   4.450 -0.0573  0.0523  0.1479
13625PP      PP23729   1.145   6.821   0.137  0.2173 -0.1348 -0.1718
13626PP      PP23730   6.120   8.516   0.268 -0.5260  0.2773 -0.3629
13627PP      PP23731   1.948   1.443   8.048  0.0429  0.0591  0.1160
13628PP      PP23732   5.006  13.123  10.228 -0.1255  0.0231 -0.0460
13629PP      PP23733   6.277  14.830   1.415  0.0802  0.1277 -0.0327
13630PP      PP23734   5.733   4.382  12.199  0.3072  0.0853 -0.4030
13631PP      PP23735  13.072   4.313  13.100 -0.0331 -0.4219  0.2590
13632PP      PP23736  15.440  13.352   0.041 -0.1712 -0.0206 -0.2980
13633PP      PP23737   0.793   4.203   1.267 -0.4027  0.1808  0.3410
13634PP      PP23738  12.143   8.246   9.843 -0.0717  0.0027 -0.2305
13635PP      PP23739   2.647   7.601   3.678 -0.0521  0.0260  0.2556
13636PP      PP23740  11.870  10.903   2.688 -0.0445  0.1393 -0.0474
13637PP      PP23741  13.478   8.945   9.891  0.1218  0.1181  0.4111
13638PP      PP23742   3.002  11.808  11.884  0.1734  0.1330  0.1154
13639PP      PP23743   3.411   7.118   4.014 -0.2085  0.0177  0.2839
13640PP      PP23744  10.726   0.445  11.110  0.0961  0.0336 -0.0401
13641PP      PP23745  10.079  12.782   9.091  0.2041 -0.1298  0.0618
13642PP      PP23746  12.072   8.846   2.310 -0.0978  0.0426 -0.1510
13643PP      PP23747   4.015   4.739   4.010 -0.1674  0.1405 -0.1353
13644PP      PP23748  14.698   9.673   8.990 -0.0010  0.1178 -0.2593
13645PP      PP23749   6.007  11.181   9.800 -0.1121 -0.2822 -0.2388
13646PP      PP23750  11.282  14.481   9.324 -0.1925 -0.1777  0.2315
13647PP      PP23751  14.309   9.289  11.320  0.1084 -0.2885 -0.1701
13648PP      PP23752   2.082   2.934   7.852  0.0457  0.2712 -0.1530
13649PP      PP23753   4.532   3.949   9.393  0.0315  0.0104  0.1865
13650PP      PP23754   1.322   0.277   3.268 -0.0017  0.4623  0.1603
13651PP      PP23755   7.377   6.309   3.322 -0.0181  0.0551 -0.1075
13652PP      PP23756   1.982  14.580   3.828 -0.0831 -0.0465 -0.0433
13653PP      PP23757  12.204   9.775  10.285  0.4364  0.1669  0.1919
13654PP      PP23758  15.531   6.460   3.056 -0.0148 -0.2234 -0.0804
13655PP      PP23759  14.078   6.096   9.221  0.2554  0.0850  0.1322
13656PP      PP23760   2.921   2.606   3.833 -0.1467  0.0329 -0.1231
13657PP      PP23761  12.160  13.235   2.435 -0.0674  0.1745  0.5135
13658PP      PP23762  15.683   9.662  10.908 -0.0312 -0.0971 -0.0965
13659PP      PP23763   5.335  11.007   2.799  0.1737 -0.0771  0.3596
13660PP      PP23764  12.041  15.264   9.635  0.1146  0.2175 -0.1004
13661PP      PP23765   4.118   3.650   9.420 -0.0982 -0.3595  0.1592
13662PP      PP23766  13.771  15.058   1.447  0.0768 -0.0737  0.4089
13663PP      PP23767   7.882   1.450  12.325  0.1906 -0.0646  0.0752
13664PP      PP23768   5.357   6.602   3.992 -0.1868 -0.0375 -0.3167
13665PP      PP23769  14.561   6.185  11.319 -0.2091  0.3227 -0.0776
13666PP      PP23770   1.801   8.197   1.856 -0.1767  0.4451  0.3080
13667PP      PP23771  13.161  13.354  13.095 -0.1440 -0.0859  0.0535
13668PP      PP23772  15.119  12.908   9.059 -0.0916 -0.0027 -0.0093
13669PP      PP23773   2.059   0.054   1.985  0.2562 -0.3750 -0.2344
13670PP      PP23774   7.124   8.650  11.255 -0.3199 -0.3592 -0.0735
13671PP      PP23775  13.478   3.912   0.489  0.1537  0.1564  0.2850
13672PP      PP23776   1.268   6.985   2.915 -0.0374  0.4637 -0.4557
13673PP      PP23777   2.086  14.815   3.066 -0.0395 -0.0438  0.3381
13674PP      PP23778  14.068   4.019  11.945  0.1068  0.0167 -0.1199
13675PP      PP23779   1.376   7.026   0.588 -0.2439  0.2065 -0.2527
13676PP      PP23780   3.575  10.963   1.948  0.2093  0.0436  0.2959
13677PP      PP23781   1.893   4.168  12.797 -0.0154 -0.2537  0.0520
13678PP      PP23782   7.655  13.538  11.910  0.0222  0.0642 -0.1003
13679PP      PP23783   8.366  14.971  12.992 -0.1799 -0.2102 -0.2869
13680PP      PP23784   9.881   7.386   2.888  0.0107  0.3492  0.1470
13681PP      PP23785  12.577   6.428   2.336  0.1668 -0.0465 -0.1087
13682PP      PP23786  10.087   8.927   9.006  0.2160  0.0609 -0.1870
13683PP      PP23787   1.947  10.802   2.870 -0.0228  0.1115 -0.1612
13684PP      PP23788   5.252   4.869   3.765  0.2736 -0.2973  0.2690
13685PP      PP23789   0.109  14.036   1.715  0.1602 -0.0752  0.0065
13686PP      PP23790  10.140  15.121   1.889  0.0221  0.3336  0.0079
13687PP      PP23791   9.063   1.924   0.856  0.0136  0.0784 -0.2118
13688PP      PP23792   8.200   0.167   1.589  0.1205  0.1449 -0.2467
13689PP      PP23793  14.888   8.031  10.996 -0.1215  0.0534 -0.0426
13690PP      PP23794   6.573  13.807  12.570  0.1831  0.0148 -0.1894
13691PP      PP23795  13.315   1.628   2.166  0.2537  0.3442 -0.2525
13692PP      PP23796   1.407  13.067   9.373 -0.2815  0.0634 -0.0373
13693PP      PP23797  13.133   7.301  12.901 -0.1536  0.1384  0.1339
13694PP      PP23798  14.118   4.658   2.550  0.0138  0.3926 -0.0188
13695PP      PP23799   4.695   4.002   9.892  0.1782 -0.0282  0.1948
13696PP      PP23800  10.492  14.009  10.318  0.2478  0.0150 -0.0199
13697PP      PP23801   8.930   7.701  13.447  0.2680 -0.1263  0.1484
13698PP      PP23802   2.029   0.540   2.279  0.0572 -0.0748  0.0780
13699PP      PP23803   1.007   7.814   2.781 -0.0648 -0.2576  0.0104
13700PP      PP23804   8.885   5.225  10.358 -0.0986 -0.0655  0.4157
13701PP      PP23805   7.046  10.814  10.164 -0.2275  0.1558 -0.1077
13702PP      PP23806   0.659   1.637   2.467 -0.0564 -0.2384 -0.0410
13703PP      PP23807  10.243  12.119   1.387 -0.3506 -0.2765  0.2315
13704PP      PP23808  11.494   4.147   8.045  0.1344 -0.1003  0.4359
13705PP      PP23809   4.729  11.277  11.785 -0.0873 -0.1358  0.1766
13706PP      PP23810  15.400   2.673  12.904  0.0486  0.1813 -0.0059
13707PP      PP23811   4.357  14.159  10.842  0.1244 -0.0753  0.2331
13708PP      PP23812  12.004   8.845   4.056 -0.0188  0.2825 -0.3674
13709PP      PP23813   2.565   7.555   0.348 -0.1087  0.1622  0.1633
13710PP      PP23814  15.574   8.605   4.034 -0.0179 -0.0245 -0.0515
13711PP      PP23815   8.921   4.942   2.836  0.0625 -0.0442 -0.0156
13712PP      PP23816   7.355   6.423   2.776 -0.2636  0.1185  0.0393
13713PP      PP23817  12.256  13.817   3.854  0.2395  0.2520  0.2352
13714PP      PP23818   8.319  10.873  11.364 -0.1605  0.2754  0.1262
13715PP      PP23819  10.779   8.409  10.051 -0.0144 -0.1714 -0.3039
13716PP      PP23820   4.900   0.834   1.578  0.1852  0.0674  0.2451
13717PP      PP23821  11.997   5.116   3.774 -0.2089 -0.1758  0.3851
13718PP      PP23822   4.129   4.995   1.320  0.1193 -0.0318  0.2306
13719PP      PP23823  13.946   8.544   3.461  0.0916  0.0815 -0.0367
13720PP      PP23824   1.678   5.607  10.153 -0.1862 -0.2341  0.1542
13721PP      PP23825  15.467   1.932  10.601  0.2833 -0.3653  0.0477
13722PP      PP23826   9.877   6.261  12.790  0.1222 -0.2109  0.2390
13723PP      PP23827  11.128   6.924   3.384  0.1084 -0.0258 -0.2729
13724PP      PP23828  11.199   7.748   0.997  0.1945  0.0563 -0.0066
13725PP      PP23829  15.095   6.356   8.713 -0.0839 -0.1614 -0.1966
13726PP      PP23830   7.069   0.982   8.846 -0.1317 -0.3522  0.1564
13727PP      PP23831   4.007  15.126   2.763 -0.0073 -0.1562 -0.1452
13728PP      PP23832  10.661  15.794  10.764  0.3723 -0.2358  0.1577
13729PP      PP23833  14.376  15.219   0.922  0.3286  0.0386  0.1103
13730PP      PP23834   5.725   7.166   1.618 -0.1838  0.0882  0.1784
13731PP      PP23835   6.480   2.221   2.208  0.1072 -0.0215 -0.0415
13732PP      PP23836   5.387   6.164  10.763  0.0475  0.1005 -0.2998
13733PP      PP23837   6.056   8.567   2.504 -0.2927 -0.0858  0.0546
13734PP      PP23838   5.643  14.114  12.267 -0.1644 -0.3022  0.2263
13735PP      PP23839   1.825   0.320   3.380 -0.0796 -0.1244 -0.2039
13736PP      PP23840   6.005  14.237  11.038  0.0332  0.3583 -0.1732
13737PP      PP23841   7.789   0.087  10.597 -0.2915  0.0450 -0.1459
13738PP      PP23842   7.755   1.071  13.241 -0.2053  0.1002  0.1510
13739PP      PP23843   6.793   7.719   0.071  0.1220 -0.3074 -0.0579
13740PP      PP23844   7.558   1.166  10.758 -0.0069  0.0744 -0.1179
13741PP      PP23845   1.645   8.052  11.701 -0.0502  0.1198  0.0115
13742PP      PP23846   3.070  12.523  11.664  0.1764  0.2284 -0.0024
13743PP      PP23847   3.538   2.418   8.330 -0.0027 -0.4117  0.0719
13744PP      PP23848   1.047  10.456   2.295  0.1094 -0.1572 -0.1640
13745PP      PP23849   2.602   9.605   2.823 -0.1331  0.4003  0.0468
13746PP      PP23850   8.942  14.974   1.838 -0.0116 -0.4915  0.2310
13747PP      PP23851   9.689   0.959  11.060 -0.0183  0.0257 -0.3049
13748PP      PP23852   0.694  10.652   1.713  0.0991  0.1755 -0.1917
13749PP      PP23853   2.446  15.447  10.037 -0.1667 -0.1473  0.5978
13750PP      PP23854  11.857   0.699  12.349  0.1314 -0.1986  0.0513
13751PP      PP23855   3.949   9.296   9.218 -0.2730  0.0904 -0.1107
13752PP      PP23856   0.018   2.556   3.953 -0.0955  0.0793 -0.1465
13753PP      PP23857  14.564   9.159   9.136  0.1489  0.3179 -0.1258
13754PP      PP23858  14.979  11.683  10.890  0.0891  0.2908  0.5194
13755PP      PP23859  13.798   6.013  10.540  0.0909 -0.0894  0.1025
13756PP      PP23860   1.633  14.814   3.393 -0.1829 -0.3360  0.3376
13757PP      PP23861   8.062   3.378   2.663  0.0526 -0.0674 -0.3300
13758PP      PP23862  14.276   5.465   1.813 -0.0469 -0.0503 -0.2091
13759PP      PP23863  12.306   4.474   2.114 -0.1700 -0.3195  0.0558
13760PP      PP23864  13.273  10.024   4.761 -0.1576 -0.1735 -0.2728
13761PP      PP23865   7.285  15.629   0.848  0.3421 -0.1008 -0.1412
13762PP      PP23866   3.226   6.675   4.079  0.3122 -0.2406  0.1693
13763PP      PP23867   4.267   9.114   5.140  0.3530 -0.1364  0.0448
13764PP      PP23868   3.355  15.748  12.259  0.0477 -0.2747  0.2974
13765PP      PP23869   2.081  10.971  13.324  0.1940  0.0095  0.0923
13766PP      PP23870   0.732   1.513   8.846 -0.1965  0.0461 -0.0523
13767PP      PP23871   7.535   5.601  10.687 -0.1893  0.2039 -0.0217
13768PP      PP23872  10.680   3.014   4.434 -0.1436  0.0947 -0.3573
13769PP      PP23873   1.877   2.864   3.006  0.1071  0.0653 -0.1395
13770PP      PP23874   6.093   7.248   9.532  0.2654 -0.1381  0.1352
13771PP      PP23875  12.208   6.719  10.954 -0.1294  0.1616 -0.1869
13772PP      PP23876  14.386   3.164  13.342 -0.0398  0.0336  0.0210
13773PP      PP23877   3.519   9.105   9.327 -0.4141 -0.0383 -0.1647
13774PP      PP23878  11.653   2.924  12.793  0.0063 -0.0111 -0.1814
13775PP      PP23879   4.413   5.607  10.690  0.0673  0.0392  0.0276
13776PP      PP23880  13.646  14.276   8.990  0.0284  0.1383  0.1970
13777PP      PP23881   7.857  14.401   0.281  0.1115  0.0400  0.0906
13778PP      PP23882  13.457  14.462  11.824 -0.0699  0.1067  0.1620
13779PP      PP23883   0.534  13.665  11.723 -0.4661 -0.1437  0.1906
13780PP      PP23884   4.922   2.681   2.364  0.2597  0.0508  0.0523
13781PP      PP23885  14.327   1.590   8.464  0.3102  0.2407 -0.1791
13782PP      PP23886   1.037   7.274  11.182 -0.0275  0.2379 -0.0634
13783PP      PP23887   1.907   8.549   3.009 -0.1138 -0.2996 -0.1796
13784PP      PP23888   5.678  12.344  13.277  0.2486 -0.0612 -0.2624
13785PP      PP23889   4.413  12.141   4.165  0.2738 -0.1102  0.2366
13786PP      PP23890   2.707   5.495  13.306  0.2502 -0.2034 -0.0335
13787PP      PP23891   2.015  10.015   4.775 -0.3386 -0.0430 -0.2149
13788PP      PP23892  15.688  10.596  11.095 -0.0420  0.0315  0.1707
13789PP      PP23893   9.422   3.447   2.495 -0.3018  0.3320  0.3235
13790PP      PP23894   9.951   7.848  10.497 -0.0300  0.4088 -0.2326
13791PP      PP23895  15.192  12.777  12.644 -0.0328  0.1054 -0.3441
13792PP      PP23896   2.418   1.496   3.164 -0.2201 -0.2827  0.0223
13793PP      PP23897  12.357   9.017   1.930 -0.0053  0.0040 -0.1130
13794PP      PP23898   0.143   5.835   2.418 -0.1629 -0.0183 -0.1217
13795PP      PP23899  13.458   9.699   0.212 -0.2884  0.0700 -0.0048
13796PP      PP23900   8.315  11.998  11.373 -0.2163 -0.1748 -0.0666
13797PP      PP23901   1.666  10.025  12.642  0.1858 -0.0613 -0.3215
13798PP      PP23902   0.112  11.483   9.691 -0.1594 -0.0642 -0.1406
13799PP      PP23903  11.368   9.940   0.980  0.1903 -0.0941 -0.2112
13800PP      PP23904   6.206   8.928   0.598  0.0494  0.2507 -0.0759
13801PP      PP23905  14.562  12.433  13.331 -0.1218  0.2295  0.2000
13802PP      PP23906   3.409   0.015   2.554  0.0715  0.1765  0.1428
13803PP      PP23907  12.579  12.663   0.622 -0.3333  0.2922  0.1329
13804PP      PP23908   7.127   7.186   2.929  0.2214 -0.1115 -0.1147
13805PP      PP23909   1.638  10.950  13.001 -0.3722 -0.3332 -0.1821
13806PP      PP23910  12.915  12.259   1.765  0.1428  0.4537  0.1616
13807PP      PP23911   9.488   2.929  10.851 -0.0292  0.3247 -0.0262
13808PP      PP23912  13.564  15.723   1.373  0.1455  0.1034  0.1162
13809PP      PP23913  13.629   3.683  10.010 -0.4454  0.1820 -0.0067
13810PP      PP23914   4.691   7.249  13.246 -0.2614 -0.5175  0.0662
13811PP      PP23915   6.622   9.912   5.003 -0.0666  0.1171 -0.1757
13812PP      PP23916   4.701  12.061   3.102  0.2148  0.0948 -0.1369
13813PP      PP23917   9.980   3.912  10.816  0.0297 -0.2646 -0.2684
13814PP      PP23918   5.757   6.252   1.431  0.1992 -0.1072 -0.3950
13815PP      PP23919   8.597  10.067  10.341  0.1743  0.0350  0.1356
13816PP      PP23920   6.000   6.087   3.552 -0.1945  0.0095  0.4121
13817PP      PP23921   0.524   3.126  12.879 -0.0887  0.0724  0.0326
13818PP      PP23922  13.014  10.346   1.431  0.0579  0.3915  0.2463
13819PP      PP23923   4.735  12.529  10.698 -0.1266 -0.0208 -0.1341
13820PP      PP23924  11.199   1.443   3.002 -0.1418 -0.0117 -0.0396
13821PP      PP23925  14.061   7.178   9.934  0.2215  0.1571 -0.0724
13822PP      PP23926   9.851  14.249  10.912  0.0572  0.2058 -0.3145
13823PP      PP23927  12.293   9.294  13.334  0.0486  0.0909 -0.0185
13824PP      PP23928  14.592   9.397   0.871  0.0652  0.1109  0.0351
13825PP      PP23929   9.362   8.970   2.915 -0.1826  0.0744  0.1335
13826PP      PP23930   4.880  11.124   1.163  0.0081  0.2620 -0.2199
13827PP      PP23931   4.346   3.618   2.648 -0.0784  0.1849  0.2248
13828PP      PP23932  13.771   0.822  10.447  0.0526 -0.1518  0.3115
13829PP      PP23933  15.740   6.765   4.606  0.2156  0.0532 -0.1544
13830PP      PP23934   1.311   0.364   0.230 -0.1411 -0.1022 -0.1506
13831PP      PP23935  11.937   2.986  10.436  0.0119 -0.2040 -0.1484
13832PP      PP23936   9.445   4.165   8.905 -0.2261  0.0179  0.1821
13833PP      PP23937   0.034   5.621  11.166 -0.0961  0.1962 -0.1556
13834PP      PP23938   8.428   7.294  10.996  0.3150 -0.0112 -0.2339
13835PP      PP23939  10.845   3.641   2.635 -0.0599 -0.1140  0.0749
13836PP      PP23940   7.467   5.817   4.276  0.1352 -0.0514  0.2207
13837PP      PP23941   5.153  14.243   0.473  0.1757 -0.0510 -0.1539
13838PP      PP23942  11.707  12.411   1.600 -0.1298  0.2047 -0.2289
13839PP      PP23943   4.074   2.328   8.773  0.0745 -0.1183 -0.0518
13840PP      PP23944  14.240   8.129  13.232 -0.0368 -0.2315 -0.1784
13841PP      PP23945   8.432  13.873  10.829 -0.0448  0.3245  0.1489
13842PP      PP23946   1.974  15.183   1.350  0.1119 -0.3034  0.1729
13843PP      PP23947   2.001   4.382   3.223  0.0904 -0.1299  0.1561
13844PP      PP23948   9.403   4.359   1.417  0.2864  0.3786  0.2163
13845PP      PP23949   7.491   2.617  12.875  0.0612  0.0857  0.1206
13846PP      PP23950   5.470   6.957   4.322 -0.0560 -0.0927  0.0330
13847PP      PP23951  14.455   4.893   0.998 -0.0902 -0.0197  0.0845
13848PP      PP23952   1.855   0.473   1.804  0.2670 -0.0475 -0.3163
13849PP      PP23953   5.489  13.655  12.119 -0.0130  0.1539  0.1981
13850PP      PP23954  13.590   1.155   2.099  0.0758 -0.1339 -0.0228
13851PP      PP23955   9.274   0.598  10.144 -0.2865 -0.0574 -0.1281
13852PP      PP23956  14.716  13.722   0.728  0.3361  0.0284  0.0471
13853PP      PP23957  10.791   3.120   3.772 -0.0995  0.2351 -0.2788
13854PP      PP23958   3.000   6.083   3.396 -0.0704 -0.1579 -0.1727
13855PP      PP23959   6.043   0.333  10.361 -0.0234  0.0363 -0.0236
13856PP      PP23960   1.394   7.929  10.135  0.2022 -0.0682 -0.4742
13857PP      PP23961   8.234  13.541  12.775  0.0748 -0.2376  0.1832
13858PP      PP23962   9.848   5.180   4.584 -0.0287 -0.0260  0.1748
13859PP      PP23963   9.171   8.504   2.835  0.1234 -0.1972  0.0153
13860PP      PP23964  11.946  11.133   2.170 -0.0911 -0.2240 -0.1676
13861PP      PP23965   0.082  14.351   9.490 -0.2233  0.2144 -0.0892
13862PP      PP23966   4.208   8.293   9.654 -0.1189  0.1616  0.1102
13863PP      PP23967   4.662  11.439   0.204 -0.0682 -0.0309 -0.0017
13864PP      PP23968   1.517   5.840  11.715 -0.1325  0.0703  0.1549
13865PP      PP23969   9.395   7.087   1.304 -0.1262  0.2303 -0.3495
13866PP      PP23970   9.413   5.922  11.807  0.0521  0.1691 -0.4120
13867PP      PP23971  11.228   0.294   1.020  0.1347  0.1537  0.1752
13868PP      PP23972   4.420   5.125   4.965  0.1124 -0.2544  0.1436
13869PP      PP23973   3.214  11.231  10.385 -0.2269  0.1630 -0.2766
13870PP      PP23974   5.277   8.430  12.486 -0.0568 -0.2290 -0.0650
13871PP      PP23975   5.663   6.131   3.928  0.0004 -0.0999  0.2302
13872PP      PP23976   6.999  11.266   9.429  0.2415 -0.2078 -0.0525
13873PP      PP23977  15.081   6.942  11.594 -0.0996  0.0676  0.1293
13874PP      PP23978   5.160   1.165   3.799  0.1162 -0.0090  0.5209
13875PP      PP23979  10.168  13.732  13.413  0.0636 -0.2754 -0.0830
13876PP      PP23980   0.979  13.541  10.228 -0.0732 -0.2256  0.1670
13877PP      PP23981   4.876   7.531   2.107  0.1819  0.0255  0.0145
13878PP      PP23982  11.424  13.592  12.008  0.3056 -0.1745  0.0325
13879PP      PP23983  14.471   0.345  10.539  0.1037 -0.0992  0.6418
13880PP      PP23984   4.323   3.860   1.798  0.1281 -0.0717  0.0054
13881PP      PP23985   7.103   0.658   1.691 -0.1755  0.0192 -0.0037
13882PP      PP23986  10.247   4.795  10.933 -0.2311  0.2621  0.0808
13883PP      PP23987   2.952  10.284   9.232  0.0583 -0.1033  0.1268
13884PP      PP23988  11.338   3.289   0.591 -0.2981 -0.3500  0.2906
13885PP      PP23989   8.872   8.846   2.698 -0.0493  0.0373 -0.3587
13886PP      PP23990   8.328  15.796   2.744  0.2794  0.0915  0.0294
13887PP      PP23991   2.408  11.531   4.811 -0.3116 -0.1275 -0.0011
13888PP      PP23992  10.049   4.355   3.840  0.3820 -0.3188 -0.0499
13889PP      PP23993   1.261  12.340   3.821 -0.1737  0.0495 -0.1020
13890PP      PP23994   7.993  13.463   3.189  0.0179  0.1957  0.0674
13891PP      PP23995   5.976   0.555   2.696  0.0340  0.1995  0.1175
13892PP      PP23996  15.176  14.055   3.345 -0.1196  0.1866 -0.2000
13893PP      PP23997   7.546  14.793   0.305 -0.0773 -0.3809 -0.0523
13894PP      PP23998   0.930   8.445   1.925 -0.1206 -0.0526 -0.0390
13895PP      PP23999   3.001   4.611   0.800  0.0485  0.2696  0.0421
13896PP      PP24000   5.268  12.624  12.114 -0.0987  0.0041  0.0753
13897PP      PP24001   7.314   1.952  11.333  0.0588 -0.1385  0.0256
13898PP      PP24002   3.200   1.189  13.096 -0.1991  0.3438  0.3450
13899PP      PP24003   9.491   7.184   4.235  0.0680  0.0873  0.0466
13900PP      PP24004  12.292   3.580  11.649  0.1462  0.0491  0.0904
13901PP      PP24005   6.876  15.556  11.011  0.0878 -0.0441 -0.0883
13902PP      PP24006   9.270   0.179   2.409 -0.2017  0.0679  0.0726
13903PP      PP24007   5.782  12.346   0.799 -0.1895 -0.1197  0.1603
13904PP      PP24008   2.974  13.681  10.160  0.1031 -0.1595 -0.1861
13905PP      PP24009   8.077   5.083  10.224 -0.3470  0.0199  0.2009
13906PP      PP24010   4.788   1.602  10.542 -0.2866 -0.1363 -0.2809
13907PP      PP24011   7.694  12.671   2.695 -0.0821  0.1748 -0.1467
13908PP      PP24012  10.678   2.103  13.177  0.0382 -0.0960 -0.0828
13909PP      PP24013  11.871   5.260   1.234 -0.0806  0.0654  0.1021
13910PP      PP24014   8.318   9.392  11.586  0.2004  0.2705  0.0203
13911PP      PP24015  12.924   5.711   9.709  0.1429 -0.3819  0.0084
13912PP      PP24016  10.651   6.499   8.492  0.0852  0.0265  0.1584
13913PP      PP24017   9.730   5.651   4.290  0.5034 -0.1441 -0.0132
13914PP      PP24018   4.854   1.779  13.205 -0.4395  0.3078 -0.3319
13915PP      PP24019  14.424   6.169   3.556  0.0769  0.0003  0.2828
13916PP      PP24020   8.198  15.810  11.466  0.0013  0.2659  0.0764
13917PP      PP24021   7.158   5.047  11.320  0.0565 -0.0999  0.2548
13918PP      PP24022   3.772  14.045   0.959 -0.3688  0.0782 -0.0104
13919PP      PP24023   0.875   6.451   0.101 -0.2362  0.2676  0.1987
13920PP      PP24024   0.049   9.465   0.716  0.2180 -0.1995  0.2341
13921PP      PP24025   5.853  10.760  11.885  0.1635  0.2281 -0.0976
13922PP      PP24026  10.674  13.573  11.651  0.0254  0.0532  0.1479
13923PP      PP24027  14.659   1.658  11.911 -0.0864  0.1379  0.0395
13924PP      PP24028   5.464   5.208  12.033 -0.1066 -0.1888  0.2054
13925PP      PP24029   1.048   1.204  10.216 -0.1733  0.0797  0.1142
13926PP      PP24030   9.338  12.992   0.951  0.2124 -0.3855 -0.0072
13927PP      PP24031   6.154   8.891  10.547  0.0023 -0.2415 -0.0914
13928PP      PP24032   8.234  13.143   3.935  0.2263  0.3438  0.0705
13929PP      PP24033   2.172   6.260  12.708  0.1343  0.2610 -0.1539
13930PP      PP24034   7.742  13.534  12.624  0.0200  0.0349 -0.1514
13931PP      PP24035  14.843   6.582  11.249 -0.0256 -0.3328  0.0921
13932PP      PP24036   2.086  15.777   1.190 -0.2684  0.0108 -0.0386
13933PP      PP24037   1.404   0.531   0.742 -0.1285 -0.3395 -0.2143
13934PP      PP24038  12.166   3.426  12.413  0.0311  0.0305  0.2962
13935PP      PP24039  13.803   2.213  12.575 -0.2590  0.1815  0.0688
13936PP      PP24040  11.302  12.883   2.657 -0.0885 -0.0424 -0.2338
13937PP      PP24041  12.128   7.952   1.148 -0.1449 -0.3153 -0.4537
13938PP      PP24042  13.560   9.849   8.887 -0.2428 -0.0369 -0.0835
13939PP      PP24043  13.622  12.864   3.447  0.0436  0.1988  0.2410
13940PP      PP24044   7.526   7.434   9.570  0.4225  0.1680  0.3084
13941PP      PP24045  13.592   3.119   3.551  0.0307  0.0115  0.5406
13942PP      PP24046   9.827   7.859   0.784 -0.1792  0.0092  0.1110
13943PP      PP24047   3.832  14.943   1.620  0.1341  0.1544  0.0319
13944PP      PP24048   1.148   1.973   3.144 -0.0190 -0.0576 -0.2407
13945PP      PP24049  12.987  11.564   2.409  0.0855 -0.0139  0.1359
13946PP      PP24050   2.080   8.595   1.987 -0.2290 -0.0658  0.0135
13947PP      PP24051   0.171  14.953   3.798 -0.1478  0.0137  0.1479
13948PP      PP24052  13.389  12.835  12.799 -0.2433  0.0074 -0.2149
13949PP      PP24053  13.875   5.268   9.902  0.2515  0.1843  0.0404
13950PP      PP24054   0.264   1.610   7.924  0.2656 -0.5994 -0.0153
13951PP      PP24055  15.493   9.432   2.016 -0.2133 -0.0589  0.1038
13952PP      PP24056  12.794  14.086   3.106  0.2382 -0.1735  0.4659
13953PP      PP24057  11.237   6.200   3.875 -0.0302 -0.0647 -0.3363
13954PP      PP24058  14.569  15.623  12.821  0.1073 -0.3471  0.0165
13955PP      PP24059  11.408  10.800  12.739  0.0987 -0.1216  0.3931
13956PP      PP24060   4.614  11.377  10.236 -0.1106 -0.0842  0.1485
13957PP      PP24061   2.846   7.127   0.601 -0.0298 -0.2159  0.4291
13958PP      PP24062   9.417  12.218   0.590  0.0664  0.0509  0.2174
13959PP      PP24063   6.596   2.512   2.583 -0.1337 -0.2031  0.0292
13960PP      PP24064  12.541  13.123  10.005 -0.1290  0.0003 -0.0484
13961PP      PP24065  14.603   6.265  10.381  0.2897  0.2573 -0.2326
13962PP      PP24066   4.471  15.179   9.876 -0.3377  0.1693 -0.3056
13963PP      PP24067   5.447   1.828   4.126 -0.1445  0.2697  0.0433
13964PP      PP24068  10.953   4.607   4.365  0.0262  0.1933  0.1073
13965PP      PP24069   3.424  15.043  12.813  0.3187  0.2583 -0.1900
13966PP      PP24070  15.042   6.050   9.117  0.2056 -0.2636 -0.2120
13967PP      PP24071   8.835  12.766  12.820  0.0959  0.0692  0.0421
13968PP      PP24072  13.061  13.458   8.180 -0.3131  0.1037 -0.0909
13969PP      PP24073  15.489   6.507   2.549  0.0407 -0.1824  0.0845
13970PP      PP24074  14.091   8.587   1.319 -0.2840 -0.1377 -0.4194
13971PP      PP24075  15.273   1.384   3.390 -0.1205 -0.0318 -0.1741
13972PP      PP24076   5.073  13.660   3.522  0.0813  0.0951  0.0095
13973PP      PP24077  14.766  10.922   8.577  0.0970  0.2538  0.0426
13974PP      PP24078   2.751   7.040   2.646  0.0225 -0.2742  0.1576
13975PP      PP24079   4.918  14.391   3.352  0.2315 -0.1638 -0.0239
13976PP      PP24080   2.646  13.914   2.754 -0.1864  0.0312  0.0604
13977PP      PP24081  10.739   9.477   9.891  0.1692  0.0307 -0.2774
13978PP      PP24082   2.751   9.414   2.403 -0.0898  0.1722 -0.0627
13979PP      PP24083   2.159   1.153   3.495  0.2402  0.4818  0.0171
13980PP      PP24084  12.042  12.858  12.982 -0.1125  0.0140  0.2037
13981PP      PP24085   6.128  12.492   2.407  0.0802  0.0738 -0.1586
13982PP      PP24086   1.047  11.843  12.852 -0.0771 -0.2882 -0.2031
13983PP      PP24087   4.907   8.305  10.818  0.0897  0.1119 -0.0604
13984PP      PP24088   4.248   2.869  10.801  0.0747  0.3438  0.4869
13985PP      PP24089   6.851  10.745   5.172 -0.0428  0.0194  0.2744
13986PP      PP24090  15.133   6.128   2.359 -0.2428 -0.0292 -0.1874
13987PP      PP24091   2.545   3.385   9.968 -0.2671 -0.1395 -0.3804
13988PP      PP24092   7.875   1.264   2.838  0.1264  0.1564  0.0551
13989PP      PP24093   1.297   3.178  12.198  0.2018 -0.0260 -0.3220
13990PP      PP24094   8.618   2.032   2.057  0.1695 -0.0400  0.2534
13991PP      PP24095   4.118   1.434   1.795  0.0825  0.1375 -0.1578
13992PP      PP24096   3.568   3.624  12.124 -0.0231 -0.1508 -0.0695
13993PP      PP24097   2.660   9.598  10.348  0.0614 -0.0858 -0.1009
13994PP      PP24098   1.161  13.502   0.524 -0.1416 -0.1079 -0.0922
13995PP      PP24099  10.344   4.146   9.411  0.1448 -0.2091  0.1782
13996PP      PP24100   8.774   0.366   3.624 -0.2811 -0.2087 -0.1743
13997PP      PP24101   8.543   4.420   2.748  0.0225 -0.0275 -0.0246
13998PP      PP24102  10.926  15.730   0.614 -0.1396  0.0679 -0.0661
13999PP      PP24103  15.253   3.144   8.754 -0.0264  0.2156 -0.2240
14000PP      PP24104  13.259   1.081   0.034 -0.3526 -0.2156 -0.3182
14001PP      PP24105   1.502   6.207  11.203  0.3845  0.4538 -0.0686
14002PP      PP24106   8.836  13.398  13.364  0.0390  0.1386 -0.0792
14003PP      PP24107   3.525   4.963   3.930 -0.0643  0.0429  0.1570
14004PP      PP24108   6.724   1.696  10.704  0.2682  0.3539 -0.1856
14005PP      PP24109   8.269  10.656   3.025  0.0654  0.1488 -0.1126
14006PP      PP24110   3.930   9.362   0.719 -0.0705 -0.0086 -0.0452
14007PP      PP24111   1.134   1.297  10.779  0.1218  0.2027 -0.2783
14008PP      PP24112  12.486   0.267  11.268  0.0132 -0.2383  0.1952
14009PP      PP24113   9.629  13.852   2.598  0.1136 -0.2406 -0.0308
14010PP      PP24114   2.335   3.635   9.309  0.1723  0.1263  0.3072
14011PP      PP24115  11.859  12.803   2.370 -0.2004  0.0205  0.0324
14012PP      PP24116   5.106   0.981   0.222 -0.0801  0.2266 -0.0534
14013PP      PP24117   0.949   4.341   3.115 -0.2097  0.0689  0.1293
14014PP      PP24118   6.578  15.206  12.781 -0.1189 -0.2690  0.0685
14015PP      PP24119   0.657   1.678   9.853 -0.0274 -0.0812 -0.0305
14016PP      PP24120   3.853  12.199  12.603  0.2495 -0.1822  0.2307
14017PP      PP24121  15.589   5.988   2.621 -0.1739  0.4401 -0.0169
14018PP      PP24122   2.422  10.786   1.468  0.0652  0.2198 -0.3276
14019PP      PP24123   7.741   2.769   0.201  0.1199  0.0127 -0.0077
14020PP      PP24124  11.370   8.250   9.653  0.1690  0.1767  0.1288
14021PP      PP24125   8.462   3.070   9.486  0.1345  0.4741 -0.1992
14022PP      PP24126   4.229   4.941   0.292  0.1958  0.2230  0.1112
14023PP      PP24127  13.741  15.726   4.036  0.0108 -0.1144 -0.1163
14024PP      PP24128   1.694  10.857   3.680  0.2133  0.2084  0.2011
14025PP      PP24129  13.832   5.080   3.454  0.3770 -0.1622 -0.2446
14026PP      PP24130   0.266   9.059  12.247 -0.1660  0.1133 -0.2568
14027PP      PP24131   6.581   3.527   3.475  0.2871 -0.1634  0.1813
14028PP      PP24132   3.886   4.101   0.604  0.1155  0.2383  0.1620
14029PP      PP24133   3.496   4.741   3.352 -0.1015  0.0533 -0.0712
14030PP      PP24134  13.150  14.321   2.376 -0.0356 -0.0887 -0.1131
14031PP      PP24135   6.099   6.958  10.955 -0.1453  0.2928 -0.0444
14032PP      PP24136  10.879   3.229   2.321 -0.3154 -0.3193  0.1316
14033PP      PP24137  13.065   0.219   2.089 -0.1884 -0.0128  0.2034
14034PP      PP24138  14.498   0.304  13.454  0.0309  0.1131  0.2441
14035PP      PP24139   1.752   7.578  10.487 -0.0020 -0.0728 -0.1678
14036PP      PP24140  15.276   5.254   9.923 -0.1083  0.1261  0.2560
14037PP      PP24141   5.346   7.441   3.245  0.5930  0.1064 -0.0535
14038PP      PP24142  13.083  14.411   3.492  0.2980 -0.0941  0.2383
14039PP      PP24143  14.170  11.491   0.310  0.0042 -0.0881  0.0380
14040PP      PP24144  10.040  12.586   2.570  0.1037  0.3935  0.0277
14041PP      PP24145   9.243   5.098  11.915  0.4763 -0.0754 -0.2421
14042PP      PP24146  11.220   4.170   0.425  0.1429  0.0126 -0.0791
14043PP      PP24147   1.257   4.018   2.889 -0.1160 -0.0343 -0.2046
14044PP      PP24148  10.746  11.934   1.083 -0.5466  0.1637  0.0157
14045PP      PP24149  12.800   0.555   1.160 -0.0208  0.0255  0.1279
14046PP      PP24150   7.891  15.612  10.290  0.1107  0.1624 -0.0382
14047PP      PP24151   3.098  12.839   9.796  0.0167 -0.1598  0.1156
14048PP      PP24152  10.835   3.135  10.053 -0.0652 -0.0745  0.1128
14049PP      PP24153   4.781   7.314   9.999 -0.1631 -0.2447  0.1676
14050PP      PP24154  15.609   0.833   3.098  0.0970  0.1204 -0.0690
14051PP      PP24155   4.797   6.144  11.998  0.2678  0.1796 -0.1633
14052PP      PP24156  11.690  10.154   4.386  0.1050 -0.1475  0.0796
14053PP      PP24157   6.290   9.279   0.187  0.0202  0.0001 -0.3299
14054PP      PP24158   5.854   4.747   1.118  0.1535  0.1153  0.0987
14055PP      PP24159  11.744   3.843  10.712 -0.5252  0.0576  0.0437
14056PP      PP24160   1.210   1.901   0.160  0.0950  0.1097 -0.1220
14057PP      PP24161   1.752  10.366   3.739 -0.0809  0.1121  0.1218
14058PP      PP24162   0.284   5.151   0.536  0.1580  0.2043 -0.1062
14059PP      PP24163   1.869   2.352   3.112 -0.2209  0.0218 -0.0900
14060PP      PP24164   5.717   5.634   3.429  0.1741  0.0381  0.2067
14061PP      PP24165   4.433   8.616  13.082 -0.1699 -0.1566 -0.2286
14062PP      PP24166   6.808  11.589  10.379 -0.2827  0.1501 -0.1353
14063PP      PP24167   4.721   0.212   0.856  0.1325  0.0580 -0.0746
14064PP      PP24168   3.344  10.704   4.113  0.0306 -0.2790  0.1381
14065PP      PP24169  14.975   3.333   9.553  0.0840 -0.1300  0.1343
14066PP      PP24170   6.955   8.925   4.731 -0.0523  0.3660 -0.0946
14067PP      PP24171   1.342  12.223  11.543  0.2260  0.1520  0.1032
14068PP      PP24172   2.533  15.255   9.446  0.4460 -0.1522 -0.0209
14069PP      PP24173  14.799   4.232   0.788  0.0772  0.0845  0.0532
14070PP      PP24174  10.215   0.689   2.670  0.0125  0.0356 -0.2189
14071PP      PP24175   9.429   5.732   2.958  0.0782  0.2499 -0.2489
14072PP      PP24176   8.341   7.121   3.063  0.2433  0.1937 -0.0286
14073PP      PP24177   6.638   2.014   2.776 -0.2507 -0.2402  0.0045
14074PP      PP24178  11.027   3.727  11.327 -0.1680  0.2549 -0.1722
14075PP      PP24179  10.194  12.709   0.538 -0.2108  0.1781 -0.0436
14076PP      PP24180   2.891  13.321  12.894  0.1559 -0.0666 -0.1764
14077PP      PP24181   3.218  13.884  11.265  0.0298  0.0210  0.1042
14078PP      PP24182   5.626  13.850  13.270 -0.0485 -0.1555 -0.0483
14079PP      PP24183   7.899  10.723   4.023 -0.0743 -0.1388  0.0060
14080PP      PP24184  14.383  13.780   8.847 -0.3582  0.0159  0.0642
14081PP      PP24185   9.051  11.773  12.996  0.0823  0.1423  0.0226
14082PP      PP24186   3.343  13.290  10.534 -0.1530  0.1172 -0.1087
14083PP      PP24187  12.656  15.243  11.597  0.2105  0.2834  0.1459
14084PP      PP24188   6.179  14.075  11.458 -0.2290 -0.1607 -0.1203
14085PP      PP24189   5.552  12.124  11.910  0.1512 -0.0597 -0.2346
14086PP      PP24190   7.211   1.524   3.866  0.0963  0.1603 -0.1654
14087PP      PP24191   7.600   9.944   3.733 -0.0149  0.2066 -0.1199
14088PP      PP24192   3.060  13.147   3.132 -0.0884  0.1796  0.1710
14089PP      PP24193   2.027   4.961   9.540  0.2759 -0.0980  0.2544
14090PP      PP24194   1.034   6.302  13.093  0.1627  0.2344 -0.1528
14091PP      PP24195   0.619   1.990   9.021 -0.2315  0.3058  0.1864
14092PP      PP24196  10.199   7.811  10.981  0.0233  0.0290  0.0535
14093PP      PP24197   5.504   5.631  13.279 -0.0248 -0.1391 -0.1005
14094PP      PP24198   4.206  14.825  13.123 -0.0271 -0.1313 -0.1157
14095PP      PP24199   0.188   6.158   0.552 -0.2497 -0.0087  0.0799
14096PP      PP24200  12.451   7.161  11.766  0.0349  0.4720  0.3392
14097PP      PP24201   1.225  13.389   9.719  0.1075 -0.1747 -0.1370
14098PP      PP24202   7.255   4.835   2.237 -0.0392 -0.1760 -0.2348
14099PP      PP24203   8.644   4.019   2.463 -0.0561 -0.0001 -0.2208
14100PP      PP24204   8.973   8.656  11.042 -0.1470 -0.1327  0.0970
14101PP      PP24205  14.619  11.759  12.355 -0.1595  0.0258 -0.0136
14102PP      PP24206  11.694  14.306  12.650 -0.0230  0.0492 -0.3913
14103PP      PP24207  10.475   8.619   1.842 -0.2771 -0.0823  0.0876
14104PP      PP24208  13.512   7.973  10.200  0.1703  0.0819 -0.0326
14105PP      PP24209   7.526  14.065   2.902 -0.1071  0.0294 -0.1678
14106PP      PP24210   2.397   1.364   2.205 -0.1789 -0.2564 -0.0879
14107PP      PP24211   7.721   7.447   4.251 -0.0996  0.0822 -0.1759
14108PP      PP24212   2.395   5.304   3.748  0.0954 -0.1270 -0.1866
14109PP      PP24213   5.574   9.557  10.737  0.0943 -0.2633  0.0279
14110PP      PP24214  11.796  11.029   1.153  0.0322  0.2298  0.3269
14111PP      PP24215  13.207   8.318   0.632 -0.1732 -0.0825  0.0660
14112PP      PP24216   2.829   1.507  11.439 -0.2358  0.0965 -0.1525
14113PP      PP24217   0.457  14.958   9.711  0.0940  0.1678 -0.2793
14114PP      PP24218  11.383   2.887   4.245  0.3749 -0.0842 -0.3205
14115PP      PP24219   7.183   4.763  11.775 -0.1710  0.0577 -0.1652
14116PP      PP24220   1.103   4.475   0.519 -0.1908 -0.4520  0.0254
14117PP      PP24221   6.784  12.043   3.410 -0.0464  0.0947  0.0148
14118PP      PP24222  12.505  10.442  11.839 -0.4202 -0.1949 -0.0054
14119PP      PP24223  11.353  15.102   2.423 -0.0609  0.0260 -0.1875
14120PP      PP24224  11.534   8.321   1.635  0.0733  0.0853 -0.0915
14121PP      PP24225   5.088   1.758  12.033  0.1700  0.0361 -0.1141
14122PP      PP24226  12.398   7.498  13.231  0.3038  0.2046 -0.2744
14123PP      PP24227  11.184   9.402  13.249 -0.1444 -0.0287 -0.0165
14124PP      PP24228  13.978   6.885   0.118  0.1705 -0.0506 -0.1408
14125PP      PP24229  15.852   4.601   2.132 -0.0262 -0.1300  0.1465
14126PP      PP24230   7.231   6.920   0.103 -0.0082 -0.1185 -0.4074
14127PP      PP24231  10.274   7.189   0.077 -0.0609 -0.4696  0.0262
14128PP      PP24232   2.888   6.106   4.722 -0.0019 -0.0948 -0.0709
14129PP      PP24233  12.098  12.391   0.633  0.0360  0.2290 -0.1541
14130PP      PP24234   5.397   8.457   4.290  0.2487 -0.3120 -0.2042
14131PP      PP24235   1.184   7.469   2.164  0.2104 -0.2242  0.0297
14132PP      PP24236  14.167  14.303  10.831  0.0770 -0.0290  0.0955
14133PP      PP24237   5.747  15.878  10.357  0.0727  0.0343  0.1932
14134PP      PP24238   2.226   9.985   9.706  0.2606  0.1132  0.2634
14135PP      PP24239  10.137  15.286  13.454  0.3564  0.3609  0.2478
14136PP      PP24240  11.152   9.207   2.537  0.2331 -0.0805 -0.1130
14137PP      PP24241  15.679   0.673   2.371 -0.2705  0.1901  0.1280
14138PP      PP24242   2.586   5.709  11.356 -0.2949 -0.0142 -0.1410
14139PP      PP24243   2.712  13.292   2.191 -0.1064 -0.0477  0.0614
14140PP      PP24244  15.313   5.915   8.736 -0.1597  0.2268 -0.0697
14141PP      PP24245   7.371   8.859   9.571  0.2004  0.0419 -0.2309
14142PP      PP24246   7.484  15.015   0.977  0.0043 -0.3332  0.2192
14143PP      PP24247   4.361   8.588   2.084 -0.0910  0.1594 -0.0788
14144PP      PP24248  14.050   1.562  11.589 -0.2927 -0.0425 -0.1183
14145PP      PP24249   7.002  11.598   2.415 -0.1139 -0.1767  0.2705
14146PP      PP24250  13.327  14.941   2.380 -0.1892 -0.0531  0.1475
14147PP      PP24251   7.687  11.612  10.225  0.2142 -0.1188  0.0818
14148PP      PP24252   3.366   6.551   1.590 -0.0911  0.0773  0.1824
14149PP      PP24253  12.171  14.865  12.886  0.3599 -0.2587 -0.0770
14150PP      PP24254   1.978   8.313   3.571 -0.0678  0.0633 -0.0578
14151PP      PP24255   9.575   3.425   0.385  0.3010 -0.4182 -0.2080
14152PP      PP24256   1.787   7.791   2.510  0.0846  0.1266 -0.2397
14153PP      PP24257   5.754   8.266  11.084  0.0720 -0.0950 -0.1641
14154PP      PP24258  13.200   4.129   4.211 -0.1529  0.0067 -0.0095
14155PP      PP24259   1.483   4.312   9.924  0.1959 -0.1489 -0.2734
14156PP      PP24260   7.571   1.743   3.030 -0.1846  0.0075 -0.1782
14157PP      PP24261   3.732   8.228   9.473  0.0292 -0.2243  0.0624
14158PP      PP24262   4.318  11.919   9.431 -0.1095  0.0692 -0.0024
14159PP      PP24263   0.570   4.207   2.046 -0.4257  0.1161  0.1341
14160PP      PP24264   6.010   1.046  12.405  0.1865  0.0776 -0.2244
14161PP      PP24265  12.786  10.269   4.611 -0.1835 -0.0648  0.1482
14162PP      PP24266  11.915  13.415   0.571 -0.1833 -0.2093  0.1913
14163PP      PP24267   7.649  12.921  13.291  0.1540  0.0686 -0.2101
14164PP      PP24268  14.848   2.362  12.282 -0.0299  0.0857 -0.0332
14165PP      PP24269  12.192  10.295  13.210  0.2568  0.0046  0.1581
14166PP      PP24270   1.417  14.235  12.527  0.3952  0.0457  0.1904
14167PP      PP24271  13.580   8.090  11.399 -0.1270  0.4314  0.0063
14168PP      PP24272   6.164  13.020   2.580  0.1688 -0.3002 -0.1151
14169PP      PP24273   0.632   5.643   3.884 -0.0054 -0.1069 -0.0383
14170PP      PP24274   3.058  15.443   8.886  0.1182  0.1966  0.3199
14171PP      PP24275  15.484   1.912   3.198  0.0088  0.0909  0.0003
14172PP      PP24276  12.337   7.867   2.743 -0.0518  0.0035 -0.0237
14173PP      PP24277  14.196   2.764   3.410 -0.0753  0.2108 -0.5323
14174PP      PP24278   5.573  14.450   1.264  0.0159  0.1030  0.0494
14175PP      PP24279   7.833   6.491   3.144 -0.1137 -0.2077  0.1049
14176PP      PP24280   4.910  10.059   3.968 -0.0562 -0.0628 -0.0759
14177PP      PP24281   6.144   7.222   2.089  0.0616 -0.2482  0.0433
14178PP      PP24282   0.846   3.996  12.374 -0.0418 -0.0400  0.1884
14179PP      PP24283  13.511  10.247   2.181 -0.2092  0.1485  0.0022
14180PP      PP24284   4.499  15.656   0.541 -0.2249 -0.2348  0.0853
14181PP      PP24285   5.096   9.850  11.256 -0.0920 -0.0578  0.2334
14182PP      PP24286   4.932  11.624   4.299  0.0419 -0.1343  0.0076
14183PP      PP24287  12.831  10.080  13.414 -0.0201 -0.2440  0.1869
14184PP      PP24288   6.556   4.181   3.060 -0.2141  0.1332 -0.1307
14185PP      PP24289  13.849   8.127   9.784  0.2254 -0.1727 -0.2084
14186PP      PP24290  14.667   9.014   3.686 -0.0929 -0.2776  0.1813
14187PP      PP24291   7.930   2.035  10.776 -0.1157  0.1261 -0.2124
14188PP      PP24292  13.933   6.815  12.140  0.0406  0.2913 -0.0558
14189PP      PP24293   3.528   6.382  12.475  0.2788 -0.1271 -0.2109
14190PP      PP24294   1.024  11.264  11.714  0.2045  0.0733 -0.0990
14191PP      PP24295  11.000  11.977  13.449 -0.1136  0.0006 -0.0537
14192PP      PP24296   2.381   8.517   2.835  0.0977 -0.4604  0.0947
14193PP      PP24297   5.148  15.124  10.734  0.1838 -0.1857 -0.2963
14194PP      PP24298   5.997   4.070  13.389 -0.1617  0.0737 -0.1526
14195PP      PP24299   6.809  15.866   9.764 -0.0159 -0.0370  0.1411
14196PP      PP24300  11.686   8.258   3.492  0.1320  0.1141 -0.0170
14197PP      PP24301  11.846  13.600   7.996  0.0719 -0.0312  0.0842
14198PP      PP24302   4.075   4.459   2.242  0.3140  0.1923  0.1016
14199PP      PP24303   6.878  10.319   4.306 -0.1353  0.1525 -0.1006
14200PP      PP24304   5.547   2.778   2.972  0.0632  0.2178  0.1960
14201PP      PP24305   4.212  13.106  10.121  0.0591 -0.0345 -0.2226
14202PP      PP24306  14.311   7.912   2.184 -0.0995  0.0817  0.1004
14203PP      PP24307  14.039   6.040  11.120 -0.0905  0.0492 -0.0951
14204PP      PP24308  10.517   3.610   9.938 -0.1125 -0.0526  0.4447
14205PP      PP24309   8.635   3.636   3.848 -0.1020  0.2672  0.1300
14206PP      PP24310   5.250  14.125   3.718  0.1508 -0.1192  0.2601
14207PP      PP24311  15.711  13.967   8.100 -0.3798  0.0119  0.1124
14208PP      PP24312  13.186   1.214  12.120 -0.0332 -0.1061  0.0766
14209PP      PP24313   5.999   3.863   0.945  0.0229  0.0029 -0.0595
14210PP      PP24314   7.049   4.344  10.653 -0.1695  0.1399 -0.1807
14211PP      PP24315  12.257   3.842   8.568  0.1403  0.0328  0.0648
14212PP      PP24316   0.578   9.480   8.872  0.2420  0.0212  0.2399
14213PP      PP24317   0.923   3.301  12.642 -0.1701  0.3335  0.1977
14214PP      PP24318  15.283  13.232   9.414 -0.0083 -0.1274  0.3039
14215PP      PP24319   7.097  15.478   9.326  0.0543 -0.1377 -0.1538
14216PP      PP24320   7.905   1.761   9.617  0.2051  0.0795 -0.2077
14217PP      PP24321  14.037  14.923   9.411 -0.1631 -0.0151  0.1357
14218PP      PP24322  11.384   5.922   4.280  0.0515 -0.1216  0.0804
14219PP      PP24323   7.660   5.714   3.403  0.0100 -0.0194  0.1740
14220PP      PP24324  10.306  12.906  11.037  0.3770  0.2606  0.3100
14221PP      PP24325   9.819  13.351   9.835  0.3722 -0.1272 -0.2096
14222PP      PP24326   6.285   1.613   2.027  0.0966  0.0925 -0.1257
14223PP      PP24327   2.189  12.869   0.049  0.0701 -0.0531  0.1136
14224PP      PP24328   8.248   4.331   2.310 -0.2962  0.1661  0.1465
14225PP      PP24329   7.356   6.518   0.814  0.2089  0.0055 -0.2189
14226PP      PP24330   0.051  12.089   8.814 -0.0424  0.0366  0.0060
14227PP      PP24331  13.155  11.362  10.613  0.0202  0.0088 -0.0769
14228PP      PP24332   0.436  10.078  12.062 -0.3738  0.0316  0.1536
14229PP      PP24333  11.800   7.419  13.423  0.1981  0.2989  0.0258
14230PP      PP24334  10.442   5.078  12.473  0.2813 -0.0707 -0.1085
14231PP      PP24335   5.278  12.366   0.081  0.2115  0.1305  0.0649
14232PP      PP24336  14.613   8.481  11.660 -0.2039  0.1622  0.0764
14233PP      PP24337   6.282   6.658   4.163 -0.0590 -0.0012 -0.0132
14234PP      PP24338   4.303  11.539  11.993  0.1188  0.0492 -0.1219
14235PP      PP24339   4.770  11.800   2.211 -0.1066  0.0703  0.1714
14236PP      PP24340   1.084   4.841   0.851  0.4255  0.1711  0.0250
14237PP      PP24341  11.938   3.841   1.309 -0.1597 -0.2898  0.0388
14238PP      PP24342   2.246  13.519  11.480 -0.1696 -0.1984 -0.1642
14239PP      PP24343   8.848   0.060   2.684  0.0365  0.4064 -0.2096
14240PP      PP24344  11.865   9.788   2.164  0.1484  0.0799 -0.1676
14241PP      PP24345   0.552   4.483   2.483 -0.1008  0.3649  0.0999
14242PP      PP24346   1.945   0.692   0.523  0.2594  0.0313  0.2400
14243PP      PP24347   6.631   2.421   0.194  0.2349  0.0424  0.1788
14244PP      PP24348   8.064   2.227   9.850  0.0815  0.0970 -0.1787
14245PP      PP24349  10.284   7.681   1.852  0.2222 -0.2627 -0.2903
14246PP      PP24350  11.584   1.175  12.511  0.0811  0.0312 -0.1261
14247PP      PP24351  11.600   9.779  10.467  0.1569  0.1096 -0.0736
14248PP      PP24352  13.271  11.381  10.062 -0.2859  0.4014 -0.2146
14249PP      PP24353  13.507  12.618  10.455  0.0080  0.0085 -0.0328
14250PP      PP24354  15.522   0.745  12.535  0.2939  0.1600  0.0753
14251PP      PP24355   9.119  10.592   5.887 -0.2144  0.1043 -0.1612
14252PP      PP24356  11.553   9.566   3.163 -0.2284 -0.0824 -0.0236
14253PP      PP24357   7.116   7.629  10.835  0.3921 -0.0807 -0.1080
14254PP      PP24358  12.635   0.097   1.048  0.4131  0.2183 -0.0032
14255PP      PP24359  13.095   3.941  12.737  0.0259  0.0894  0.3116
14256PP      PP24360  12.970   2.497   1.665 -0.1093 -0.1646 -0.1398
14257PP      PP24361   1.975  15.562   1.660  0.0750  0.3010  0.0318
14258PP      PP24362  11.014   1.654  12.297 -0.0152  0.0143 -0.0249
14259PP      PP24363  12.672  14.675   8.035  0.0608  0.1117  0.1804
14260PP      PP24364  14.994   7.100  10.929 -0.2826 -0.0922  0.1995
14261PP      PP24365   7.467   6.799  11.259 -0.0003  0.2655 -0.0973
14262PP      PP24366  10.432   9.846  10.774 -0.0634 -0.1082  0.0989
14263PP      PP24367  11.783   1.625  12.670 -0.1651  0.0981 -0.0681
14264PP      PP24368  11.909   1.462  12.195 -0.2154  0.0727  0.3278
14265PP      PP24369  15.718   3.108   0.849  0.0271 -0.0527 -0.1433
14266PP      PP24370  13.275   0.169   1.096 -0.1873  0.3796  0.2921
14267PP      PP24371   0.024  14.016   3.457  0.2319  0.2271 -0.0001
14268PP      PP24372  12.375   2.381  11.709  0.1033  0.0847  0.0079
14269PP      PP24373   5.744   7.346  12.382  0.2329  0.0577  0.0237
14270PP      PP24374   5.357   0.721   9.230  0.2471  0.1123  0.0447
14271PP      PP24375  14.742  12.500  10.893 -0.0898  0.2608  0.1221
14272PP      PP24376   9.266   5.909   0.646 -0.2601 -0.2788  0.0153
14273PP      PP24377   2.970  14.429   2.527 -0.0760 -0.2783 -0.2021
14274PP      PP24378   6.131   4.001   3.838  0.0803  0.0015 -0.0208
14275PP      PP24379   7.090   1.687   0.998  0.1683  0.3169 -0.2689
14276PP      PP24380   0.598   8.590  13.038  0.0434  0.0757  0.1572
14277PP      PP24381   8.797  11.415  10.102 -0.2523  0.1430  0.0164
14278PP      PP24382  13.981  15.659   9.457 -0.0902  0.1210 -0.4317
14279PP      PP24383  11.754   6.097   0.116 -0.2195 -0.1164  0.0534
14280PP      PP24384  10.412   3.697   0.612  0.2539 -0.3655  0.0856
14281PP      PP24385   9.104   1.070   8.969  0.4018  0.0459 -0.0174
14282PP      PP24386   8.398   5.138   3.856 -0.1538  0.1919  0.3286
14283PP      PP24387   6.508   6.014  12.682  0.1232  0.0777  0.2030
14284PP      PP24388   8.207   2.861   0.511 -0.2757  0.0381 -0.0955
14285PP      PP24389   5.400   8.937  13.357  0.0359 -0.0910  0.0982
14286PP      PP24390  15.871  12.462   0.408  0.1160 -0.1999 -0.0977
14287PP      PP24391  12.503  13.120   0.879 -0.1531  0.0892 -0.1792
14288PP      PP24392   2.829   0.766  13.277 -0.0238  0.2035 -0.2172
14289PP      PP24393   7.772   5.596   2.918 -0.0451  0.0862 -0.1295
14290PP      PP24394  15.512   8.514  12.086  0.1003 -0.0647 -0.2536
14291PP      PP24395   3.602  14.362   9.060 -0.3458  0.0012 -0.2642
14292PP      PP24396   6.833   4.423   0.541 -0.1326  0.2476 -0.1556
14293PP      PP24397   8.728   8.182  13.110 -0.3488 -0.4922  0.6289
14294PP      PP24398  11.149  10.116  11.161  0.3018  0.0585  0.2000
14295PP      PP24399  10.499   0.577   3.085  0.3100 -0.0143  0.1720
14296PP      PP24400   3.591   8.695   9.676  0.0509 -0.1883  0.0377
14297PP      PP24401  12.148   8.569   5.137  0.2337  0.0803 -0.1019
14298PP      PP24402  10.357  14.985   9.386 -0.1796  0.1171 -0.2114
14299PP      PP24403  15.850   3.026  12.837  0.0602 -0.2568  0.1790
14300PP      PP24404  15.692   8.468   4.825  0.2799 -0.3748  0.0683
14301PP      PP24405   3.352   5.046  12.227  0.3701  0.0309  0.2069
14302PP      PP24406   6.640  13.983   1.941 -0.3484  0.1462  0.6148
14303PP      PP24407   2.325  11.050  10.559  0.1450 -0.6522 -0.0854
14304PP      PP24408  12.673   3.649  12.508  0.5911  0.4581  0.6116
14305PP      PP24409  14.603  13.239  11.342  0.1395 -0.0222  0.3579
14306PP      PP24410  15.578  10.408   1.028  0.0920 -0.0447  0.0882
14307PP      PP24411   9.782   0.482   0.657  0.0737  0.1300  0.0983
14308PP      PP24412   9.041   9.234   1.658  0.2836  0.2208 -0.1511
14309PP      PP24413   5.915   6.848  12.535 -0.0047  0.2608  0.2079
14310PP      PP24414  13.995  14.825  12.513  0.1520  0.1843 -0.1651
14311PP      PP24415  12.385   1.798   1.892 -0.0600 -0.0176 -0.2049
14312PP      PP24416  13.423  12.874   2.082  0.1514 -0.0282  0.1301
14313PP      PP24417   4.732  14.013   3.696 -0.1560  0.1810  0.0155
14314PP      PP24418  14.871   2.659   1.000  0.1659 -0.1297  0.1895
14315PP      PP24419   6.674   3.373   1.376 -0.0900  0.1409  0.0023
14316PP      PP24420   7.363   1.716   0.575 -0.3875  0.1501  0.0148
14317PP      PP24421   3.248  11.398  12.926  0.2042 -0.5928 -0.2372
14318PP      PP24422   8.407   4.864  11.988 -0.0579 -0.1083 -0.1709
14319PP      PP24423  12.168   6.024   8.253 -0.0640  0.0816 -0.0988
14320PP      PP24424   3.753   7.038   0.105  0.0758 -0.0232 -0.1200
14321PP      PP24425   7.154   4.827  13.145 -0.2564  0.2686  0.3167
14322PP      PP24426   8.012   1.246   9.533 -0.1021  0.0126  0.2417
14323PP      PP24427  13.838   0.563  12.440  0.2229  0.2550 -0.4458
14324PP      PP24428   8.895  13.370   9.595  0.0948  0.0384 -0.2026
14325PP      PP24429  11.377   8.638  10.043 -0.3681  0.1039  0.1462
14326PP      PP24430  13.227  12.396   9.326 -0.1127 -0.2272 -0.1496
14327PP      PP24431   1.273  14.572   8.749 -0.3610  0.1335  0.0884
14328PP      PP24432  10.176  13.916   1.599  0.1851 -0.1801 -0.0643
14329PP      PP24433   2.204   5.582   0.081 -0.0518  0.2405  0.0853
14330PP      PP24434  10.018  13.376   3.233 -0.0653 -0.3694  0.2206
14331PP      PP24435  11.006  11.383   9.728 -0.1295  0.1745 -0.0915
14332PP      PP24436  14.263   6.170  10.715  0.2246 -0.2665  0.0663
14333PP      PP24437  10.445   8.678   9.286 -0.1881  0.1944 -0.0296
14334PP      PP24438   1.591   5.310   2.277 -0.0323 -0.2060  0.1562
14335PP      PP24439   3.089   7.357   2.884 -0.1716 -0.2868  0.3698
14336PP      PP24440   0.423   9.989   4.744 -0.1280 -0.0286 -0.0782
14337PP      PP24441   5.140  11.757   1.843  0.1879 -0.5237  0.2301
14338PP      PP24442   4.779   2.493  12.417  0.2754 -0.0363 -0.7184
14339PP      PP24443  11.208   6.709  10.692  0.1376 -0.1918 -0.0973
14340PP      PP24444   7.940   5.767   4.539  0.0848 -0.0798 -0.2878
14341PP      PP24445  15.678  13.646   4.238  0.0033  0.5029 -0.0618
14342PP      PP24446  12.772  12.020  10.180  0.2674  0.1480 -0.1550
14343PP      PP24447   3.048  13.346  11.999  0.0168  0.1004  0.1189
14344PP      PP24448  11.264  10.149   2.650 -0.0285  0.1030  0.0794
14345PP      PP24449   5.638   1.636   8.728 -0.0840 -0.0344 -0.1048
14346PP      PP24450   5.199  11.452   1.447  0.0223 -0.0957 -0.0477
14347PP      PP24451   2.337  14.304  12.538  0.2508  0.1362  0.1200
14348PP      PP24452   7.929   9.518   4.146  0.2437 -0.1707  0.1965
14349PP      PP24453   4.971  15.639  10.235 -0.0011 -0.0994  0.0052
14350PP      PP24454  13.959   6.593  12.621  0.3443  0.0367  0.1902
14351PP      PP24455   4.165   0.169   1.804  0.1561 -0.0413  0.0797
14352PP      PP24456   3.456  10.948   2.798 -0.2454  0.1995  0.0648
14353PP      PP24457  14.361   0.540  11.762 -0.1796  0.0726 -0.1432
14354PP      PP24458  15.102  15.896   9.962  0.2036  0.0405 -0.3365
14355PP      PP24459   4.696   9.392   9.908 -0.0573 -0.0368 -0.3093
14356PP      PP24460  10.156  10.801   4.640  0.0442  0.1743  0.0548
14357PP      PP24461   1.661  12.547   3.600 -0.2317 -0.1865  0.0131
14358PP      PP24462  15.092   0.954   3.202  0.1193  0.1216  0.0683
14359PP      PP24463  14.655  15.733   3.730  0.1745  0.2561  0.2868
14360PP      PP24464  10.231  11.092   2.580 -0.2170 -0.0469  0.3592
14361PP      PP24465  10.783   2.071   0.891  0.2754  0.3883 -0.0437
14362PP      PP24466   8.678   6.896   9.268  0.3220 -0.0633 -0.0732
14363PP      PP24467  15.475   1.779   2.711 -0.0021 -0.1353  0.0125
14364PP      PP24468   8.991  10.085  11.124  0.2212 -0.0640 -0.0727
14365PP      PP24469  13.776   8.840   3.816  0.0613  0.0952 -0.1263
14366PP      PP24470  10.851  13.192   2.521  0.2055  0.2783  0.0357
14367PP      PP24471   6.299   2.634  12.455 -0.1309 -0.0628 -0.0247
14368PP      PP24472   7.759  10.474   2.261 -0.0530  0.2793 -0.1121
14369PP      PP24473   0.287   6.903  10.372 -0.1116 -0.2056 -0.0340
14370PP      PP24474   8.858   0.692   2.859 -0.2079 -0.1144  0.0171
14371PP      PP24475   3.467   1.865  12.376  0.2831 -0.2967 -0.1115
14372PP      PP24476  14.776  14.264  11.624  0.2735 -0.0657 -0.2439
14373PP      PP24477   1.407   1.051   2.930 -0.1426  0.4333  0.1569
14374PP      PP24478   1.405   9.255  10.365  0.1628 -0.1021 -0.0014
14375PP      PP24479  11.083   6.415  11.982 -0.1643  0.1078 -0.1489
14376PP      PP24480  14.137   0.641  13.350  0.1690  0.0131 -0.1100
14377PP      PP24481   6.310   8.557   8.984  0.1422  0.1586  0.0085
14378PP      PP24482   4.103  11.143  10.062 -0.0897  0.2100 -0.3412
14379PP      PP24483  14.547   2.151  13.232 -0.3525  0.0777  0.0272
14380PP      PP24484  14.516   7.517   2.045 -0.0804 -0.1502 -0.0307
14381PP      PP24485  11.764  12.792   9.511  0.1231  0.2048  0.1847
14382PP      PP24486   2.584   2.691  11.778 -0.1621  0.2004 -0.2515
14383PP      PP24487   7.997   0.895   2.242 -0.0773  0.3120  0.0663
14384PP      PP24488   7.071   8.459   2.360  0.2166 -0.1036 -0.1233
14385PP      PP24489  12.586   5.894   3.586 -0.0514 -0.1131  0.0964
14386PP      PP24490   0.649   7.792   9.713 -0.1349  0.1150 -0.0729
14387PP      PP24491   4.225   9.640   9.960  0.0558 -0.1598 -0.0151
14388PP      PP24492   8.344  14.561  12.493  0.2445 -0.1481 -0.2312
14389PP      PP24493  10.249   7.488  12.443 -0.3842  0.0536  0.6434
14390PP      PP24494   6.019   8.510   0.760  0.0027  0.0544 -0.1318
14391PP      PP24495  14.887   3.290   9.015  0.3195  0.1564 -0.0530
14392PP      PP24496   2.931   6.230   2.889  0.1334 -0.2521 -0.0965
14393PP      PP24497   4.564   8.980  12.292 -0.1196 -0.0184 -0.3723
14394PP      PP24498  11.210  10.816  13.221 -0.0205 -0.1459  0.1066
14395PP      PP24499   9.484   9.885  12.743  0.1189  0.1143  0.3019
14396PP      PP24500   9.067   7.909   0.975  0.3332 -0.0532 -0.0552
14397PP      PP24501  10.062  11.571   0.436 -0.2499 -0.0282 -0.2567
14398PP      PP24502  13.978   8.333  11.585 -0.0578 -0.2979 -0.0844
14399PP      PP24503   6.685  11.030   1.103  0.0716 -0.1187 -0.3359
14400PP      PP24504   2.185   1.942   1.128 -0.1758 -0.1768 -0.1746
14401PP      PP24505   4.117  13.910  12.211  0.0128 -0.0480 -0.3158
14402PP      PP24506   8.217   8.369  11.913  0.2416 -0.2620  0.2098
14403PP      PP24507   7.214   2.570   0.890 -0.0849  0.0130 -0.0435
14404PP      PP24508   4.148   5.749   4.878  0.2715  0.1250 -0.1522
14405PP      PP24509  11.740   2.703   2.128 -0.1937  0.1417  0.0219
14406PP      PP24510   6.397   7.625   9.735  0.1004 -0.1303 -0.1968
14407PP      PP24511   7.202   3.919   9.214  0.1779 -0.0550 -0.1097
14408PP      PP24512   1.101   1.830   0.744 -0.1575 -0.0490  0.1595
14409PP      PP24513  12.831  13.674   9.871  0.0903 -0.1900  0.5075
14410PP      PP24514   6.322   7.299  13.260 -0.1822  0.0003 -0.1843
14411PP      PP24515   2.097   3.351   8.179  0.4268  0.2748  0.0968
14412PP      PP24516   4.655   8.143   0.482  0.2669 -0.0157 -0.3088
14413PP      PP24517   8.471   7.500  12.506 -0.1827  0.2256 -0.0526
14414PP      PP24518  12.952  12.943   1.107 -0.1388  0.0113  0.2082
14415PP      PP24519   2.201   7.708  13.396  0.0064 -0.3690  0.2107
14416PP      PP24520   7.981   4.972  11.238  0.1811 -0.1570 -0.1757
14417PP      PP24521  14.947   0.142   0.360  0.0834 -0.1312  0.0458
14418PP      PP24522   1.228  14.253  10.947 -0.2840  0.0337  0.0310
14419PP      PP24523  15.231  10.482   1.382  0.0515 -0.1249 -0.1216
14420PP      PP24524  11.178   4.087   2.833  0.1375  0.0450 -0.0767
14421PP      PP24525  15.828   8.457  13.093 -0.1899 -0.1087  0.1464
14422PP      PP24526   9.154   1.692  11.687 -0.1317  0.1608  0.0330
14423PP      PP24527   2.216  13.090  11.773 -0.0543 -0.0471 -0.0730
14424PP      PP24528   8.028  14.376   2.548  0.3261 -0.1994 -0.0771
14425PP      PP24529  13.452   4.686  13.373 -0.1025 -0.3723  0.1582
14426PP      PP24530   6.461  11.567  13.417  0.1787  0.4928 -0.1365
14427PP      PP24531  14.025  10.265   0.661  0.1211  0.0825  0.3907
14428PP      PP24532   8.937   2.145   2.520  0.0771  0.2635 -0.3833
14429PP      PP24533   5.879  11.424  12.610  0.1363 -0.2397  0.5000
14430PP      PP24534  11.723  10.048  12.743  0.2213 -0.0543 -0.0397
14431PP      PP24535  14.868  10.926  13.293 -0.1383  0.0655 -0.0117
14432PP      PP24536   9.445   9.819   2.403  0.0858  0.3933 -0.2032
14433PP      PP24537   7.519   1.897   1.174  0.2531  0.0231 -0.1692
14434PP      PP24538   4.927   3.505  11.397  0.0433  0.0516  0.1137
14435PP      PP24539   7.496  15.512  11.223 -0.0351  0.2777  0.2985
14436PP      PP24540  10.558   6.474  12.376  0.1983 -0.0651 -0.1054
14437PP      PP24541   5.897  15.385  10.384  0.0556 -0.1490  0.1545
14438PP      PP24542   8.194   4.382   0.393 -0.0263 -0.1859  0.0109
14439PP      PP24543  11.881   0.162   9.587 -0.1165  0.1327 -0.2430
14440PP      PP24544  13.808   5.758   1.813  0.4056 -0.3505 -0.1246
14441PP      PP24545   9.125   2.597   9.514 -0.2294  0.0924  0.0568
14442PP      PP24546   7.590  10.339   2.743  0.2407  0.0007 -0.0745
14443PP      PP24547   5.406  14.166   1.774  0.2496 -0.1367  0.0619
14444PP      PP24548   3.897   2.493   9.399  0.0302 -0.2026  0.2114
14445PP      PP24549  11.059  10.615  10.390  0.1654 -0.1032  0.4323
14446PP      PP24550   6.731   6.673  12.119 -0.0656 -0.1086  0.2560
14447PP      PP24551   9.857   8.827  11.557  0.4638  0.0037  0.0812
14448PP      PP24552  15.294   1.777   0.567 -0.1108  0.0106  0.0637
14449PP      PP24553  13.909   6.834  10.802  0.0671 -0.0757 -0.1080
14450PP      PP24554  13.001  13.232  12.645 -0.0447  0.2088  0.1076
14451PP      PP24555   7.567  13.563   5.246  0.0133 -0.2477  0.4611
14452PP      PP24556   0.177   7.992  11.945 -0.1050  0.0992  0.3192
14453PP      PP24557   9.084   7.400  11.184  0.0364 -0.3051  0.0047
14454PP      PP24558   8.590  14.914   2.199  0.3164 -0.1911  0.0328
14455PP      PP24559  11.205   0.941   3.631 -0.0128  0.1300  0.1673
14456PP      PP24560   0.831   0.575   9.098 -0.0626 -0.1897  0.0099
14457PP      PP24561  10.581   4.556  11.325 -0.0823 -0.2371  0.4381
14458PP      PP24562  10.244   1.222   0.915  0.1359  0.0780 -0.1586
14459PP      PP24563  14.310   1.111   9.288 -0.1942  0.0945 -0.1317
14460PP      PP24564   2.692  10.610   4.828  0.0007 -0.3874  0.2245
14461PP      PP24565   2.871  15.518   9.738 -0.3352 -0.0187 -0.1331
14462PP      PP24566  10.018  15.666  11.270  0.0571  0.0582  0.1346
14463PP      PP24567  10.630  11.618   2.105  0.2848 -0.3370 -0.0406
14464PP      PP24568  10.236   6.405   8.719  0.0548  0.1903 -0.0432
14465PP      PP24569   9.232   1.552   9.940  0.3394  0.0656  0.1151
14466PP      PP24570  14.043  10.064  10.871  0.0564  0.4553 -0.2798
14467PP      PP24571  13.311   8.361   1.085 -0.0392 -0.1471 -0.0530
14468PP      PP24572   4.768   0.647  10.252 -0.0221 -0.1636 -0.1028
14469PP      PP24573  15.881   3.266   2.753  0.2460 -0.1686 -0.0406
14470PP      PP24574   6.036   7.945  12.181  0.3511  0.0219  0.2595
14471PP      PP24575  11.853  14.284   3.079  0.1843  0.2024 -0.0316
14472PP      PP24576  10.958   1.217  10.342  0.1288  0.0684 -0.1737
14473PP      PP24577   0.343   4.890  10.683  0.0911  0.0821 -0.0696
14474PP      PP24578   3.965   2.670  11.174 -0.2628 -0.1741  0.2694
14475PP      PP24579   8.303   5.241   1.563 -0.2446 -0.3309  0.1863
14476PP      PP24580  11.796   2.457   1.151 -0.3523 -0.1317  0.1155
14477PP      PP24581   3.102   0.675   3.289 -0.0006 -0.2703 -0.2873
14478PP      PP24582   0.859   4.254  13.346 -0.2969 -0.0621 -0.2064
14479PP      PP24583   0.808  14.203   0.268 -0.0477  0.1234  0.1105
14480PP      PP24584  11.138   9.008  11.010 -0.0314 -0.2304 -0.3256
14481PP      PP24585   1.427   1.308   0.877  0.1634 -0.2979  0.2780
14482PP      PP24586  12.742  11.025  13.211 -0.0033 -0.2704 -0.1050
14483PP      PP24587  10.158   7.372   4.448 -0.1773  0.3077 -0.1438
14484PP      PP24588   6.357   2.366   3.047 -0.0636 -0.2445 -0.3097
14485PP      PP24589   1.664   2.686  11.458 -0.1794 -0.1226  0.0462
14486PP      PP24590   7.573  14.146  12.186 -0.0814 -0.0631 -0.2021
14487PP      PP24591   9.641  12.218   2.041 -0.0547 -0.0698  0.2906
14488PP      PP24592   2.712   9.320   1.923 -0.0361  0.2760 -0.1148
14489PP      PP24593  12.311   0.315  10.238 -0.1681  0.1477  0.2560
14490PP      PP24594   7.201  11.862   0.024  0.3096 -0.3631  0.1075
14491PP      PP24595  10.304   7.396   9.683 -0.1815  0.1544  0.2406
14492PP      PP24596   3.712   8.758   0.855 -0.0197  0.0699  0.1307
14493PP      PP24597  15.317   5.752   4.565 -0.2886  0.1637  0.2617
14494PP      PP24598  14.693  11.245  10.698 -0.2845 -0.0523 -0.1387
14495PP      PP24599  13.790   4.567   1.841 -0.0528  0.0953 -0.0078
14496PP      PP24600  13.950  12.440  12.483 -0.1803  0.2768  0.3613
14497PP      PP24601  10.350  10.166  13.200  0.0544 -0.3427 -0.3884
14498PP      PP24602   7.031  13.426   3.056  0.1005 -0.0600 -0.3401
14499PP      PP24603   3.272   5.262   9.575 -0.0930  0.3427  0.0502
14500PP      PP24604  12.452   4.584  11.850 -0.1357  0.2501  0.1096
14501PP      PP24605   4.954  15.374   3.093  0.2529 -0.1538  0.0254
14502PP      PP24606  11.588   1.086  10.420  0.0097 -0.1269  0.4589
14503PP      PP24607   0.929   6.346  12.072 -0.0446  0.0212  0.1021
14504PP      PP24608   7.901   5.075   3.985  0.0764  0.2192  0.0151
14505PP      PP24609  13.138  10.509   2.893 -0.0680  0.0517  0.2189
14506PP      PP24610   2.202   8.042   1.537  0.1395 -0.1821 -0.2535
14507PP      PP24611  11.703   3.032   8.676  0.4323  0.3022  0.0477
14508PP      PP24612   1.032  13.082   4.263  0.2900 -0.2674  0.1027
14509PP      PP24613   5.567  14.407  10.198 -0.2151  0.1302  0.1662
14510PP      PP24614   6.483  15.674  12.471  0.0193  0.1634 -0.3150
14511PP      PP24615   7.933   1.646   1.136 -0.1084  0.3875 -0.0157
14512PP      PP24616   3.493   5.486  10.520  0.2894  0.0735 -0.0074
14513PP      PP24617   7.315   2.118  11.834 -0.1559  0.0718  0.1823
14514PP      PP24618  14.455   9.389   3.370 -0.0802  0.0051  0.0825
14515PP      PP24619  13.708   3.161  10.389  0.0524 -0.1422 -0.1843
14516PP      PP24620  11.091   5.521   9.291 -0.1305  0.0775 -0.0309
14517PP      PP24621   1.492   7.193   5.037  0.1493 -0.2254  0.0142
14518PP      PP24622   4.628  10.364   3.260 -0.2027  0.2090 -0.1872
14519PP      PP24623  10.937   7.352  11.378  0.3669  0.3461 -0.1409
14520PP      PP24624  14.569   1.030  10.903 -0.1152  0.0881  0.0610
14521PP      PP24625   8.757   9.620   4.590  0.0644 -0.3461 -0.1387
14522PP      PP24626   0.389  15.775  10.365  0.0008 -0.5939 -0.1501
14523PP      PP24627  11.794   5.781  11.725 -0.0306 -0.0733 -0.0190
14524PP      PP24628   4.735   5.646   1.194 -0.0629  0.1546  0.1892
14525PP      PP24629   4.216   1.602   8.393  0.2901 -0.0521 -0.1151
14526PP      PP24630   0.492  10.561   9.411  0.4913  0.1142  0.2725
14527PP      PP24631   6.852   8.692  10.376  0.0777  0.0698  0.0485
14528PP      PP24632   5.076   2.484   9.597 -0.1018 -0.0340 -0.1187
14529PP      PP24633  15.815   7.466   0.619  0.1061  0.1953  0.0190
14530PP      PP24634  12.464   1.762  10.128 -0.2624 -0.0547  0.1317
14531PP      PP24635   7.898   8.942  10.736 -0.0966 -0.1056 -0.0413
14532PP      PP24636  10.828   3.318   1.827  0.0941 -0.1231  0.1482
14533PP      PP24637  12.739  12.083   9.320  0.0157  0.0980  0.0140
14534PP      PP24638  12.249  11.765  12.979  0.1520 -0.0413 -0.2565
14535PP      PP24639   4.036   2.723  11.749 -0.0347  0.1874  0.2107
14536PP      PP24640   2.296   0.134  12.797  0.2774 -0.0007 -0.2140
14537PP      PP24641  14.516   0.297   3.057 -0.1108  0.2821  0.2422
14538PP      PP24642   1.926  14.868  10.815  0.4398 -0.1927 -0.3467
14539PP      PP24643  10.741  12.403  12.724 -0.0871 -0.1970  0.4834
14540PP      PP24644   9.528   6.666   0.373  0.1528  0.1602  0.2159
14541PP      PP24645  13.023  12.434  10.380 -0.1478 -0.3348  0.2592
14542PP      PP24646  13.943   5.385  10.407  0.0181  0.0380 -0.1809
14543PP      PP24647   8.556   6.781   3.790 -0.2952  0.1916  0.0678
14544PP      PP24648   7.888  12.354  10.604  0.2388 -0.2006 -0.2075
14545PP      PP24649  14.194   5.758  12.901 -0.1404 -0.0995 -0.0529
14546PP      PP24650  14.366   7.978  12.606  0.0621 -0.1521 -0.1697
14547PP      PP24651   2.836   5.247  11.155  0.0816 -0.0565  0.0574
14548PP      PP24652  10.250  15.241   3.585  0.0198 -0.3368  0.0101
14549PP      PP24653  14.842   0.965   2.794  0.0665 -0.2761  0.0114
14550PP      PP24654  15.585   4.531   1.714  0.0534 -0.0678 -0.4998
14551PP      PP24655  10.165   4.164   4.869 -0.0496  0.2329 -0.0222
14552PP      PP24656   9.914   2.695  13.415 -0.1642 -0.1453 -0.1842
14553PP      PP24657  15.881   8.883   3.348  0.0663 -0.5070  0.0827
14554PP      PP24658  11.915   6.767   4.284 -0.0157  0.0109 -0.0339
14555PP      PP24659   8.326  10.470  10.257 -0.1505 -0.1559  0.1998
14556PP      PP24660   5.053   7.798   4.785 -0.2036 -0.1268 -0.1414
14557PP      PP24661   2.273   5.248   4.319 -0.1217 -0.2215 -0.1706
14558PP      PP24662   0.703   1.434  10.503 -0.1381 -0.0168  0.1304
14559PP      PP24663   9.183   8.247   3.718 -0.0527 -0.0447  0.2347
14560PP      PP24664   2.140   5.431   0.612 -0.0629  0.1475  0.0330
14561PP      PP24665   3.403   0.461   3.675 -0.1008 -0.0090 -0.2263
14562PP      PP24666   3.222  14.593   9.929  0.1018 -0.0185  0.1557
14563PP      PP24667   5.852   2.802   0.641  0.1888  0.0619 -0.0692
14564PP      PP24668  10.331   1.336  10.967  0.2603 -0.1910 -0.0793
14565PP      PP24669  15.261   3.033  10.231  0.0898  0.0274 -0.1142
14566PP      PP24670  10.162  12.805   1.764 -0.4343 -0.0524  0.2811
14567PP      PP24671   5.656   8.022   1.630 -0.2524  0.1961  0.1178
14568PP      PP24672   6.576   3.360   0.459  0.3049  0.0543  0.1052
14569PP      PP24673   2.724   1.894   8.446 -0.1208  0.0688  0.4111
14570PP      PP24674  15.438   9.849  13.337 -0.2517  0.0077 -0.0990
14571PP      PP24675  12.940   9.872  12.585  0.1497 -0.2156 -0.1555
14572PP      PP24676   4.214   5.229  13.403  0.0241  0.0096 -0.0841
14573PP      PP24677   2.866  15.697  13.285 -0.0341  0.3634  0.1658
14574PP      PP24678   6.968   4.844   9.700  0.1765  0.1841 -0.0802
14575PP      PP24679   2.253   3.234  12.106 -0.1134  0.1146  0.3414
14576PP      PP24680  13.236  12.964   3.046  0.4449 -0.3140  0.0292
14577PP      PP24681   6.576   9.977  10.968 -0.0995 -0.0772  0.0916
14578PP      PP24682  12.190   7.639  10.598  0.2259  0.1029  0.1002
14579PP      PP24683  15.417   3.773   3.651  0.2824 -0.0392  0.3222
14580PP      PP24684  13.988  15.580   8.613  0.0748  0.2593 -0.0344
14581PP      PP24685   9.519   1.675   2.719  0.1740 -0.1972 -0.0606
14582PP      PP24686   6.117   2.524  10.561  0.2120 -0.2231  0.1700
14583PP      PP24687  13.654   1.734  12.810  0.4051 -0.3121 -0.2284
14584PP      PP24688   4.594   0.640   9.649 -0.0994 -0.1075 -0.1800
14585PP      PP24689   1.234  10.250  10.764  0.0153  0.0837  0.5084
14586PP      PP24690   0.198  15.390   4.083 -0.0320  0.1673 -0.0146
14587PP      PP24691  10.368   8.790   0.215 -0.1188 -0.0705 -0.0885
14588PP      PP24692  11.574  14.118   8.203  0.3420  0.3963  0.0719
14589PP      PP24693  14.109   4.103   1.606  0.2199 -0.2086 -0.0061
14590PP      PP24694   4.606  11.928   4.595  0.0107 -0.4045  0.0998
14591PP      PP24695   1.362   6.329   1.945 -0.2678  0.2161  0.3567
14592PP      PP24696   0.688   5.823   1.938  0.2236  0.3027 -0.0796
14593PP      PP24697  14.967  10.682   8.182 -0.1185  0.1746  0.2725
14594PP      PP24698   7.866  12.869   1.137  0.1336 -0.0428 -0.0528
14595PP      PP24699   5.644  14.933   2.012  0.2244 -0.0349 -0.1498
14596PP      PP24700  15.450  15.226   1.395 -0.0972 -0.0889  0.2674
14597PP      PP24701  10.364   4.683   3.611 -0.1505  0.0971  0.0188
14598PP      PP24702   0.617   0.340  10.333  0.1240 -0.0353 -0.1707
14599PP      PP24703  15.600   5.448   8.851 -0.1799  0.0958  0.4401
14600PP      PP24704   7.600   4.327  11.733 -0.4042 -0.0402  0.1069
14601PP      PP24705  11.427   4.453   3.228  0.0713 -0.0151  0.3300
14602PP      PP24706   6.031  12.911   2.126 -0.0568  0.1014  0.0453
14603PP      PP24707   0.649  12.610   9.766 -0.1620  0.0257  0.1837
14604PP      PP24708   4.827  13.540  13.393  0.2246  0.2037  0.1101
14605PP      PP24709  10.060   3.249   2.712 -0.0328  0.1595 -0.3900
14606PP      PP24710   7.753   1.755  13.282 -0.1788  0.2445 -0.0450
14607PP      PP24711   0.776   7.353  12.115  0.2780  0.1518 -0.0981
14608PP      PP24712   6.291   9.743   2.622  0.2100  0.0893 -0.0456
14609PP      PP24713   3.838   5.056  13.024  0.0016  0.0387  0.2042
14610PP      PP24714   5.056   8.958  11.252 -0.0425  0.0677  0.2042
14611PP      PP24715   1.475   0.047   3.827  0.3730 -0.0542  0.2226
14612PP      PP24716   8.313   1.991  10.372  0.0719 -0.4163 -0.2210
14613PP      PP24717   2.687   3.821   2.220  0.1153  0.1940  0.0229
14614PP      PP24718  14.006   6.539  11.254 -0.1069 -0.0061  0.0340
14615PP      PP24719   4.283  13.964  10.395  0.0102 -0.2228 -0.3818
14616PP      PP24720   0.870  12.853   3.673 -0.0220  0.0780  0.2186
14617PP      PP24721  13.892  15.853  10.429 -0.0599 -0.0994  0.0201
14618PP      PP24722   3.901  13.706  12.729  0.1321 -0.2142  0.0404
14619PP      PP24723   9.478  14.991  12.509  0.1022  0.1154 -0.0518
14620PP      PP24724   4.077   9.245   0.062 -0.1902 -0.0610  0.0924
14621PP      PP24725   5.431  13.795   0.632  0.2158 -0.1151  0.2580
14622PP      PP24726  12.869   4.681  10.996 -0.0987  0.2577 -0.2287
14623PP      PP24727  14.460  13.764  11.645  0.3954  0.0487 -0.1318
14624PP      PP24728   0.478   2.065   2.748  0.3260 -0.0990  0.0491
14625PP      PP24729   6.518  11.990  12.320 -0.1564  0.0717  0.1319
14626PP      PP24730   2.759   8.895   2.755 -0.2486 -0.1542 -0.0167
14627PP      PP24731  10.712   3.775   3.163  0.1142  0.0620  0.0906
14628PP      PP24732   6.819  12.289   9.459 -0.5319  0.1929  0.2838
14629PP      PP24733   8.208   8.108  12.476  0.1911 -0.1569  0.0742
14630PP      PP24734   7.533   8.794   2.017 -0.0047  0.4683  0.1832
14631PP      PP24735   8.534   1.365   0.422  0.1530 -0.0731  0.0442
14632PP      PP24736   4.231   2.456  12.542 -0.0745  0.0200  0.2387
14633PP      PP24737  12.918  11.908  11.731  0.3625 -0.0915 -0.0685
14634PP      PP24738   1.663  12.608   2.090 -0.3814 -0.0816 -0.2047
14635PP      PP24739   4.045   3.510   1.971 -0.1453  0.0675 -0.2453
14636PP      PP24740  10.190   8.854  12.003  0.0905  0.0698  0.4679
14637PP      PP24741   1.631  11.854   0.861 -0.2117 -0.2445  0.0152
14638PP      PP24742   7.165   6.424   2.355  0.0904  0.0040 -0.1154
14639PP      PP24743   1.069   5.238  11.203 -0.0428  0.2908 -0.5659
14640PP      PP24744   7.434   1.595  11.649  0.1684 -0.2343 -0.2743
14641PP      PP24745   9.124   9.196  11.345 -0.2783 -0.1890  0.1056
14642PP      PP24746  10.599  15.226   3.221  0.0069 -0.0619  0.1397
14643PP      PP24747   6.705  15.551   3.493 -0.0396 -0.1246  0.2583
14644PP      PP24748   5.359   6.874   3.147 -0.0743  0.2978  0.3256
14645PP      PP24749   3.139  11.386  10.873  0.1158  0.1385 -0.0222
14646PP      PP24750  10.887   7.212  13.174 -0.1039 -0.2557 -0.2788
14647PP      PP24751   4.984   4.354   2.628  0.1423 -0.1233 -0.0513
14648PP      PP24752  12.705   1.853   9.673  0.1241 -0.3446 -0.0903
14649PP      PP24753   2.532   8.069   4.469 -0.1893  0.0938 -0.1586
14650PP      PP24754  11.174   5.513   4.340  0.2887  0.0870 -0.0432
14651PP      PP24755  14.546   8.065   2.707  0.0341  0.0694 -0.0124
14652PP      PP24756   1.536   6.616  11.461 -0.1200  0.0836  0.0155
14653PP      PP24757   2.643   5.606   4.666 -0.1043  0.3540  0.0142
14654PP      PP24758   3.618  12.409   1.749 -0.2048  0.0380  0.1850
14655PP      PP24759   0.822  12.727  13.204  0.2164 -0.2187 -0.0907
14656PP      PP24760  14.384   3.508   8.884  0.0138 -0.0010 -0.0178
14657PP      PP24761   3.022   8.649   0.345  0.1702 -0.0503  0.0321
14658PP      PP24762   3.670  11.988  10.130  0.1727 -0.0206  0.2420
14659PP      PP24763   8.990   5.864   1.950 -0.0081 -0.1491  0.1941
14660PP      PP24764   6.629  12.033   0.083  0.0529  0.1046  0.0257
14661PP      PP24765   4.562   0.819   1.141  0.2417  0.0346  0.1701
14662PP      PP24766  14.989  13.166   0.057 -0.2100  0.0260  0.2827
14663PP      PP24767   1.942   9.365  12.141 -0.0424 -0.0189 -0.0148
14664PP      PP24768   9.893   2.693  11.314 -0.2650  0.0974 -0.1733
14665PP      PP24769   8.440   0.367   2.756 -0.1742  0.0180  0.2460
14666PP      PP24770   0.917   6.780  12.289  0.1507  0.2277  0.0588
14667PP      PP24771   4.839  14.243  12.609  0.1281 -0.1022 -0.1461
14668PP      PP24772   5.527   1.078   1.055 -0.0212 -0.0453  0.1534
14669PP      PP24773  10.962  15.302  12.850  0.0392  0.0385  0.1284
14670PP      PP24774   8.440   4.013  11.399  0.0900 -0.2619  0.1502
14671PP      PP24775  10.961  12.539   9.154 -0.0253 -0.0046 -0.0767
14672PP      PP24776   6.233  13.731   1.673 -0.0109 -0.2272 -0.0971
14673PP      PP24777   2.503   3.757   0.353 -0.2447  0.0961  0.0638
14674PP      PP24778   8.836  10.929   9.971  0.2097  0.1021  0.0600
14675PP      PP24779   9.165   3.798   1.604 -0.1798  0.0307  0.0460
14676PP      PP24780   9.392   1.236  10.756 -0.0047  0.0712  0.1888
14677PP      PP24781   1.646  15.331  11.538  0.0851 -0.0163 -0.1540
14678PP      PP24782  13.297  10.282  11.062  0.2442  0.0475 -0.0460
14679PP      PP24783   0.537   8.877  12.633  0.1739  0.4035 -0.0292
14680PP      PP24784  13.324   2.773  10.967  0.2307  0.0281  0.2001
14681PP      PP24785  11.176   8.215   1.226 -0.0092 -0.2578 -0.1267
14682PP      PP24786   4.081  13.460  12.328 -0.0190 -0.2286  0.2125
14683PP      PP24787  14.483  12.888  12.637  0.1219  0.1333 -0.2402
14684PP      PP24788   2.382   3.397   3.273 -0.1111  0.1080 -0.2217
14685PP      PP24789   3.418   1.232  12.304 -0.3755  0.0994 -0.1993
14686PP      PP24790   2.817   4.538   2.487 -0.0002  0.1800  0.1495
14687PP      PP24791   3.084   3.420  11.962 -0.1446  0.3722  0.1313
14688PP      PP24792   4.870   4.567   3.486 -0.0980  0.0029 -0.0290
14689PP      PP24793   4.075  11.970   3.075  0.0042 -0.0495 -0.1057
14690PP      PP24794  14.134   0.789   3.544 -0.0900  0.0689 -0.0376
14691PP      PP24795   3.623   7.130  11.006  0.1261 -0.0266 -0.1305
14692PP      PP24796   3.373   9.472   9.866  0.2000 -0.1455  0.2816
14693PP      PP24797   7.924   5.865   3.800 -0.0564 -0.1273  0.2250
14694PP      PP24798  14.370   4.307  12.264  0.1234 -0.1631  0.0334
14695PP      PP24799   3.752  12.353   2.683  0.0655  0.0383  0.0383
14696PP      PP24800   3.420   8.554   1.803 -0.1846 -0.1915 -0.2628
14697PP      PP24801   7.746  14.345  11.769 -0.0761  0.3010 -0.0824
14698PP      PP24802   5.127   8.819   2.815 -0.1283 -0.3424  0.1577
14699PP      PP24803   0.480  11.179   4.030 -0.0291 -0.0977 -0.0157
14700PP      PP24804  14.021   9.840   3.872  0.0059  0.0156 -0.3368
14701PP      PP24805  11.571   5.318   4.065  0.1144  0.0894 -0.0144
14702PP      PP24806  14.631   7.172   9.049 -0.2562  0.1859 -0.1152
14703PP      PP24807   5.386  15.648  12.723 -0.0217 -0.1561  0.1637
14704PP      PP24808   8.771   7.077   0.721  0.2242 -0.1213  0.0810
14705PP      PP24809  10.938   3.462  11.864  0.0019 -0.1429  0.2722
14706PP      PP24810   8.134   8.038   1.488 -0.0102  0.0550 -0.0740
14707PP      PP24811   9.717  14.636  11.616 -0.0476  0.0335 -0.0987
14708PP      PP24812   1.451   3.652   9.972  0.0181 -0.3208 -0.2499
14709PP      PP24813   7.798   4.254   1.871 -0.2646  0.1064  0.2585
14710PP      PP24814   4.977   7.669   1.607 -0.2086 -0.1544 -0.2225
14711PP      PP24815   6.163   3.811   0.493  0.2428 -0.3693 -0.1911
14712PP      PP24816  15.145  15.052   9.522 -0.1360 -0.1103  0.2123
14713PP      PP24817   1.591   1.631   9.123  0.1024  0.0164 -0.1671
14714PP      PP24818  12.967   8.805   1.159  0.1659  0.1107  0.0590
14715PP      PP24819   6.855   7.470  11.692  0.0971 -0.1853  0.0592
14716PP      PP24820  15.223   9.674   4.747  0.0405 -0.3671  0.1089
14717PP      PP24821  10.774  10.341  10.059 -0.1253  0.0434  0.0928
14718PP      PP24822   6.595  12.658  11.863  0.0325  0.0450  0.4418
14719PP      PP24823   3.639   9.024   1.915  0.1194  0.0051  0.1261
14720PP      PP24824   5.979   8.433  12.554 -0.0601 -0.1943 -0.0590
14721PP      PP24825   0.630  10.003  10.658 -0.2659 -0.1983 -0.0623
14722PP      PP24826  14.313   5.072   8.203  0.2038  0.0858 -0.2088
14723PP      PP24827   3.046   6.436   1.241 -0.2731 -0.1652 -0.2280
14724PP      PP24828  10.675   8.089   0.281  0.1621 -0.0330 -0.3405
14725PP      PP24829   2.419   9.888   3.230  0.2476  0.0576 -0.3666
14726PP      PP24830   0.570   5.123   1.585  0.2507 -0.2199 -0.0259
14727PP      PP24831  13.110   3.194   0.271  0.2664  0.2669 -0.1280
14728PP      PP24832   4.525  10.232   4.351 -0.1738  0.4378  0.2949
14729PP      PP24833   7.603   3.876  11.560 -0.0697 -0.1680 -0.2707
14730PP      PP24834  13.379  11.990   2.683 -0.1653 -0.1823 -0.0898
14731PP      PP24835  13.642   5.757  11.343 -0.3033 -0.0317  0.2686
14732PP      PP24836   1.803  15.384   0.872  0.0358 -0.2444  0.0531
14733PP      PP24837   6.680   1.836  11.167  0.1929 -0.2911 -0.1794
14734PP      PP24838   1.469   5.044   1.196  0.1434 -0.0908 -0.0183
14735PP      PP24839  11.678   7.100   9.272  0.0841  0.0584 -0.0626
14736PP      PP24840   3.476  13.438  13.391 -0.1523  0.3239 -0.2506
14737PP      PP24841   5.980   2.108   8.789  0.0032  0.1203 -0.2526
14738PP      PP24842  10.448   6.047   8.448  0.2931 -0.0679  0.3128
14739PP      PP24843  14.756  15.741   4.241  0.1255  0.2559  0.0152
14740PP      PP24844   3.995   7.245   3.402 -0.4046 -0.2907 -0.0941
14741PP      PP24845  12.905   3.752   0.933  0.0269  0.3414 -0.1157
14742PP      PP24846   4.540   1.945   4.070 -0.3308  0.1477  0.0875
14743PP      PP24847  14.175   0.583   1.517  0.1220 -0.2141 -0.0642
14744PP      PP24848  13.479   5.423   3.101 -0.4619  0.0281 -0.2171
14745PP      PP24849  10.477  12.956   1.390 -0.0189  0.0050  0.0472
14746PP      PP24850   0.764  11.265   0.598 -0.0604  0.1313 -0.0975
14747PP      PP24851   4.680  14.846   1.058  0.1950 -0.3325  0.0624
14748PP      PP24852   1.730  13.537   3.753  0.2394  0.2284 -0.0589
14749PP      PP24853   6.404   7.904  13.224  0.2085 -0.0047 -0.3346
14750PP      PP24854   1.380  12.336   2.389 -0.1674  0.2296 -0.0945
14751PP      PP24855  11.329  11.652  13.186 -0.2353  0.2134  0.0185
14752PP      PP24856   3.142   7.164   2.392  0.0977  0.3831  0.2045
14753PP      PP24857   3.879  11.903  10.576  0.2425  0.0519  0.3232
14754PP      PP24858  14.386   6.669   9.955  0.0904 -0.0884  0.1854
14755PP      PP24859   6.378   7.230  10.363 -0.2804 -0.4123 -0.1125
14756PP      PP24860  11.671   6.511   1.041 -0.2267 -0.0128 -0.3529
14757PP      PP24861   6.410   1.712  11.562 -0.1648 -0.0430  0.1557
14758PP      PP24862  10.005  12.594  10.088  0.1790  0.2222 -0.1100
14759PP      PP24863  15.785   0.844   9.295  0.1648 -0.0260  0.2009
14760PP      PP24864   0.191  14.111   2.558 -0.2930  0.0804 -0.2410
14761PP      PP24865   6.744  14.495  13.260  0.1162 -0.0542 -0.1563
14762PP      PP24866   6.562   9.215  12.653  0.1509 -0.0281 -0.2616
14763PP      PP24867   1.811   0.823  10.359 -0.0204  0.0262  0.0142
14764PP      PP24868  14.950   2.545   0.288  0.0232 -0.0306 -0.2930
14765PP      PP24869   3.285  15.720  11.149 -0.3438  0.0500  0.2079
14766PP      PP24870   7.532   5.179   3.582 -0.0774  0.2508  0.1327
14767PP      PP24871   7.979   2.418   0.427  0.1319  0.1890  0.0291
14768PP      PP24872   1.996   5.953  12.001 -0.3102  0.2900  0.0160
14769PP      PP24873   8.082  14.056  12.435 -0.1338  0.2099 -0.1420
14770PP      PP24874  11.388  13.716   2.251 -0.0294  0.1106 -0.1127
14771PP      PP24875  11.786  10.470   9.707 -0.1677 -0.0099  0.0048
14772PP      PP24876   5.028   6.941   4.171 -0.0057  0.0361  0.0970
14773PP      PP24877   6.743  10.169   1.032  0.0292  0.1651  0.0364
14774PP      PP24878  13.086   1.183  12.849 -0.0424  0.2118 -0.2155
14775PP      PP24879  13.411   9.521   4.345 -0.1707 -0.1594  0.2005
14776PP      PP24880   7.285   8.008   1.181  0.0537 -0.0151  0.2337
14777PP      PP24881   6.710  14.561   3.065 -0.0561  0.0360 -0.2601
14778PP      PP24882   6.027  14.246   1.916  0.1911 -0.1230  0.1640
14779PP      PP24883   0.225  14.774  13.311 -0.1202 -0.4007  0.1076
14780PP      PP24884  13.929  14.398   9.448  0.0225  0.2355 -0.0887
14781PP      PP24885  15.522  10.848  11.796  0.0755 -0.3242 -0.2749
14782PP      PP24886   1.832   1.657  13.019 -0.1208  0.4617 -0.0773
14783PP      PP24887   9.092   4.399  12.829  0.2410 -0.0478  0.0071
14784PP      PP24888   9.879   3.535   4.309 -0.1911 -0.0336 -0.0850
14785PP      PP24889  13.187  12.407  13.142 -0.0051  0.0090  0.1512
14786PP      PP24890   9.233   7.248   0.655 -0.1468 -0.2373 -0.0675
14787PP      PP24891  12.652   1.907   1.450 -0.1463  0.2934 -0.0391
14788PP      PP24892   6.245  11.494  12.119  0.0239  0.0520 -0.1654
14789PP      PP24893   5.805   0.488   9.043  0.0312 -0.0459  0.1742
14790PP      PP24894  13.165  11.937  12.770  0.0776  0.0987  0.0618
14791PP      PP24895  14.583   8.467   1.489 -0.0702 -0.3821 -0.0305
14792PP      PP24896  12.391   9.276   2.392  0.1689  0.1525 -0.0023
14793PP      PP24897   6.700  12.231   0.561 -0.0038  0.1129  0.1882
14794PP      PP24898   8.191  15.547   1.524 -0.0981  0.2864  0.2352
14795PP      PP24899   0.305  10.215   9.773  0.0813 -0.3756 -0.1855
14796PP      PP24900   8.009  11.398  11.825 -0.0936  0.1614  0.3403
14797PP      PP24901   1.620   4.315  10.919  0.1864 -0.1436 -0.0923
14798PP      PP24902  11.292   3.016   9.382  0.4541 -0.2149 -0.2315
14799PP      PP24903  13.487   2.870   0.134  0.3699  0.1607  0.0700
14800PP      PP24904   9.041   4.008   3.635 -0.2790 -0.1435 -0.1234
14801PP      PP24905   0.270  15.312   9.287 -0.1194  0.0713 -0.1263
14802PP      PP24906   4.150   0.713   9.826  0.0849 -0.1670 -0.0641
14803PP      PP24907   1.663   0.665   9.358  0.2089  0.0194  0.2854
14804PP      PP24908   5.738   9.831   2.769  0.2954 -0.0830  0.3387
14805PP      PP24909  14.295  12.944   9.350 -0.0176 -0.0492  0.1700
14806PP      PP24910   4.236   6.495  11.488  0.1692  0.0432 -0.3437
14807PP      PP24911  10.488   6.134  11.127 -0.2093 -0.0195  0.0033
14808PP      PP24912  10.356  11.923   3.723 -0.0594 -0.1189 -0.1475
14809PP      PP24913   2.660  13.355   1.623  0.0555 -0.2211  0.1255
14810PP      PP24914  14.713   4.197   9.229  0.0550  0.1190  0.2629
14811PP      PP24915   3.997   3.469   9.882 -0.1665  0.2042 -0.1621
14812PP      PP24916   7.716  12.331  12.318  0.3206  0.0913  0.0762
14813PP      PP24917  13.083   5.301   3.428 -0.1762 -0.1123  0.1740
14814PP      PP24918   6.810   0.888   2.532 -0.2026 -0.2479 -0.2737
14815PP      PP24919   2.653  12.128  11.058 -0.1873 -0.1402 -0.2980
14816PP      PP24920  12.691  14.673   2.271 -0.1532  0.2776 -0.0715
14817PP      PP24921   2.287  14.152   8.835 -0.1845  0.2650 -0.1964
14818PP      PP24922   8.236   1.979   0.646  0.3085  0.1327 -0.1710
14819PP      PP24923   8.353  14.230   2.988  0.0178 -0.1169 -0.2092
14820PP      PP24924   3.284   8.323   9.905  0.0625  0.0569  0.0169
14821PP      PP24925  14.670  10.325   3.592  0.2871 -0.0601  0.1771
14822PP      PP24926  14.505   8.425  10.324  0.0066 -0.1957  0.2237
14823PP      PP24927  10.185   8.847   4.271  0.2030  0.0020  0.0719
14824PP      PP24928   7.187   7.061   3.709  0.1108  0.0110  0.2813
14825PP      PP24929   7.864   0.651  12.792 -0.3564  0.0978 -0.0242
14826PP      PP24930   3.773  10.595   4.383 -0.0291  0.0740  0.2447
14827PP      PP24931  13.380  14.108   8.557 -0.0965  0.1022  0.0475
14828PP      PP24932   7.650   2.510   3.648 -0.0056 -0.0225  0.3102
14829PP      PP24933   8.974  12.360  11.569 -0.1304  0.1238  0.0477
14830PP      PP24934   7.962   4.810   9.807  0.2928  0.0544 -0.0620
14831PP      PP24935   2.984  12.242   3.900  0.2277  0.2203  0.1090
14832PP      PP24936  11.812   8.766  11.848 -0.0941 -0.0358 -0.3468
14833PP      PP24937  12.775   1.169  12.433 -0.0490  0.0525 -0.3180
14834PP      PP24938   0.933   6.416   1.675 -0.0430  0.0363 -0.3810
14835PP      PP24939  13.004   3.031   3.642  0.0067  0.1238  0.3593
14836PP      PP24940   4.799   1.048   2.163 -0.0435  0.1489  0.0371
14837PP      PP24941  14.361  13.396   3.568 -0.0122 -0.1647 -0.3163
14838PP      PP24942   3.587   3.669  12.647 -0.2106  0.0163 -0.1490
14839PP      PP24943   3.503   8.044   4.620 -0.0134  0.1919  0.0567
14840PP      PP24944  11.214  10.701   1.910  0.2840 -0.2687  0.1832
14841PP      PP24945   6.386  12.241   3.851 -0.0771 -0.1469 -0.1177
14842PP      PP24946   1.119  13.064  10.910 -0.2186  0.0858 -0.1975
14843PP      PP24947   0.266  12.718  12.281 -0.0516 -0.2223  0.0528
14844PP      PP24948  12.124  14.327   3.578  0.1639 -0.1408 -0.1360
14845PP      PP24949   7.826  11.891   2.913  0.1381  0.1263  0.1169
14846PP      PP24950   2.379   7.400   2.917 -0.3263  0.5143 -0.0547
14847PP      PP24951   7.871   8.716  12.077 -0.0701  0.1670  0.1298
14848PP      PP24952   5.961   8.021   5.041 -0.0394 -0.1658 -0.1551
14849PP      PP24953  15.889   5.038  12.461 -0.0805 -0.2882 -0.0066
14850PP      PP24954   4.477   9.576  13.159 -0.3213 -0.1763  0.3718
14851PP      PP24955   8.085   6.937   2.579  0.0120 -0.0467 -0.2023
14852PP      PP24956   8.276   9.879   4.386 -0.1226  0.1147 -0.0322
14853PP      PP24957   2.267  11.414   2.263 -0.1643  0.1525  0.0553
14854PP      PP24958   0.212  11.306  10.528  0.1678 -0.0351 -0.0528
14855PP      PP24959   6.094   5.167   3.306  0.0763  0.1180 -0.2429
14856PP      PP24960  10.325  13.195   2.703 -0.1852  0.0208  0.0552
14857PP      PP24961  11.704  13.498   3.096 -0.0686  0.1207 -0.2206
14858PP      PP24962   2.410   3.845   3.549  0.2045 -0.0886 -0.0481
14859PP      PP24963   7.643   0.955   1.133  0.1301 -0.1207  0.4836
14860PP      PP24964   4.505  10.304   3.843  0.1090 -0.1313  0.1211
14861PP      PP24965  10.100   4.734   4.194  0.2315 -0.3081 -0.1992
14862PP      PP24966  15.637   1.189   2.334  0.0445 -0.1124 -0.2123
14863PP      PP24967  14.749   9.280  10.521 -0.0652 -0.0742 -0.1965
14864PP      PP24968   7.285  11.045  11.579 -0.0188 -0.1011  0.0722
14865PP      PP24969   8.586   4.528  12.798  0.0195 -0.1222  0.4329
14866PP      PP24970   7.049   4.101   0.153  0.0825 -0.0663 -0.2261
14867PP      PP24971   0.736   2.557  13.281 -0.0746 -0.0506 -0.0383
14868PP      PP24972  14.037   9.990  11.626 -0.3817  0.0341 -0.1104
14869PP      PP24973   9.746   7.168   0.128  0.1870 -0.0451 -0.1364
14870PP      PP24974  11.096   8.538   3.257 -0.1691 -0.0711 -0.1538
14871PP      PP24975  11.366   4.058  11.083 -0.1428 -0.1677  0.0900
14872PP      PP24976   9.953  13.083  12.852  0.0728  0.0580  0.0087
14873PP      PP24977   4.297   9.148  10.059 -0.1921 -0.1709  0.2668
14874PP      PP24978   7.090  12.681   0.735 -0.3905  0.0915  0.1549
14875PP      PP24979  11.093   3.012   1.412 -0.1341 -0.1241  0.1371
14876PP      PP24980  10.264  14.971  10.152 -0.0282  0.0388 -0.1062
14877PP      PP24981  14.293   8.447  12.853 -0.1336  0.0463  0.1592
14878PP      PP24982   0.097  10.190   1.291  0.2452  0.1047 -0.0572
14879PP      PP24983  13.967   3.651   1.380 -0.1753  0.1505 -0.1223
14880PP      PP24984   1.741   9.096   9.481  0.4178 -0.0693 -0.1929
14881PP      PP24985  12.488   4.503  11.262 -0.1187 -0.2439  0.1336
14882PP      PP24986   8.973   2.925  12.815 -0.3766 -0.0732 -0.0465
14883PP      PP24987   0.310   9.851  11.163 -0.0041 -0.0572 -0.0009
14884PP      PP24988   3.170   3.395   9.273 -0.1698 -0.2889  0.0892
14885PP      PP24989  11.899  10.471   0.644 -0.0925  0.0211 -0.0717
14886PP      PP24990  10.901  11.152   2.983  0.1754  0.1638 -0.0996
14887PP      PP24991   9.487  13.419  12.678  0.0645 -0.0127 -0.2561
14888PP      PP24992   8.471  11.333  11.490 -0.2107 -0.0140 -0.0754
14889PP      PP24993  12.436   4.323   9.293 -0.0912  0.0824  0.0273
14890PP      PP24994  12.787   0.842  10.227 -0.0299  0.2862 -0.0129
14891PP      PP24995   8.775   3.608  11.241 -0.0648 -0.2341 -0.0389
14892PP      PP24996  11.078  14.878   3.276 -0.0910  0.0843  0.0801
14893PP      PP24997   6.683  12.198  12.730 -0.1676  0.0334  0.0136
14894PP      PP24998  15.750  10.461   1.642  0.2498 -0.3755  0.0705
14895PP      PP24999   4.360   3.167   9.505 -0.1659 -0.1651 -0.3481
14896PP      PP25000  15.294   9.890   3.861  0.2114 -0.1182 -0.2611
14897PP      PP25001   7.012   7.044  10.010  0.1494  0.0903 -0.4801
14898PP      PP25002  15.220   9.424   4.321  0.3294  0.0617 -0.0527
14899PP      PP25003   2.467  10.975   0.249 -0.1123 -0.0934 -0.1944
14900PP      PP25004   6.091  15.415   2.592  0.0548  0.0393  0.2673
14901PP      PP25005   4.499  13.838   2.726 -0.0531  0.0092  0.2432
14902PP      PP25006  15.660   7.919  12.253 -0.2261  0.0445  0.0819
14903PP      PP25007   1.637   9.458  11.757 -0.0938 -0.0616 -0.2561
14904PP      PP25008   8.782   8.925   1.254  0.0377  0.0874  0.1134
14905PP      PP25009  10.336   4.671   0.291 -0.1611 -0.3590  0.0636
14906PP      PP25010   0.270  13.570   1.329  0.0182 -0.2726  0.1894
14907PP      PP25011   1.740   9.412   9.134 -0.0932  0.0050 -0.1635
14908PP      PP25012   3.065   5.721   3.770  0.2511 -0.1747 -0.2008
14909PP      PP25013   6.173   9.490   1.843 -0.0148 -0.0349 -0.0643
14910PP      PP25014   1.357   8.906   4.122 -0.3133  0.0532 -0.0599
14911PP      PP25015   6.728   1.368   1.151  0.1457 -0.0878  0.2385
14912PP      PP25016   2.893   7.537   2.038 -0.1551 -0.2173 -0.0333
14913PP      PP25017  13.670  11.628   9.866  0.0183 -0.1744 -0.1500
14914PP      PP25018  15.631  12.293   0.876  0.0292 -0.0600  0.1042
14915PP      PP25019   5.153   0.572  10.763 -0.1052 -0.4169  0.3408
14916PP      PP25020  11.469  10.764   1.445  0.2448 -0.1134 -0.0740
14917PP      PP25021   4.418   0.229  13.319  0.2277 -0.0663  0.1340
14918PP      PP25022   6.935   8.543   1.249 -0.2572 -0.3793 -0.0535
14919PP      PP25023   2.184   0.541  11.522  0.4780 -0.1890  0.2564
14920PP      PP25024  11.248  12.685   8.406  0.1556  0.3076  0.2054
14921PP      PP25025   3.379   7.508   1.040 -0.0035 -0.2258 -0.0239
14922PP      PP25026   8.510   3.564   0.105  0.0363 -0.1576 -0.1440
14923PP      PP25027   8.947   3.937   9.179  0.3839 -0.2084  0.1225
14924PP      PP25028   3.935  12.981   4.322 -0.1196  0.1620 -0.3327
14925PP      PP25029   7.762   1.206   4.010 -0.0622 -0.5032 -0.1304
14926PP      PP25030   0.364   7.161   0.648  0.0116 -0.0698 -0.0656
14927PP      PP25031  15.731   3.844   8.549 -0.0476 -0.1721  0.2254
14928PP      PP25032  14.702   5.382   1.034  0.3138 -0.1621  0.0368
14929PP      PP25033   7.371  11.108   1.909  0.2377 -0.0885 -0.1604
14930PP      PP25034   2.068  15.154   9.831  0.1950 -0.0338  0.0957
14931PP      PP25035  11.897   8.608   2.862  0.3261  0.0095 -0.2022
14932PP      PP25036   8.232   5.563   3.201 -0.1583  0.0439 -0.0462
14933PP      PP25037  15.478   9.962  12.166 -0.1483  0.1155  0.0552
14934PP      PP25038   0.829   3.487  13.133  0.2889  0.1816  0.0880
14935PP      PP25039   0.295   3.209  12.434  0.0329  0.0446  0.0575
14936PP      PP25040  11.063   8.827  13.148 -0.0147  0.1358  0.1183
14937PP      PP25041  11.347   7.787   4.080 -0.1656  0.4336 -0.2043
14938PP      PP25042   3.912  14.823   0.261 -0.0772 -0.0637  0.2684
14939PP      PP25043  14.794   7.732  11.936 -0.0912  0.2800  0.3143
14940PP      PP25044   5.487   1.511   1.404 -0.0856 -0.2831  0.0741
14941PP      PP25045   9.305   9.261   5.232 -0.0413 -0.3318  0.4765
14942PP      PP25046   8.332   2.209  10.903  0.2242  0.0905 -0.1748
14943PP      PP25047   5.209   0.017   1.060  0.1138  0.1965 -0.1395
14944PP      PP25048   9.732  15.876   3.441  0.1869  0.2296 -0.2270
14945PP      PP25049   2.338   1.720  11.438  0.0579  0.0188 -0.2217
14946PP      PP25050  13.638   7.954   4.414  0.1308 -0.3284  0.2553
14947PP      PP25051   4.787   4.611  11.467 -0.0897  0.0424 -0.0977
14948PP      PP25052  10.900   1.021   3.046 -0.2029 -0.1093 -0.0984
14949PP      PP25053   9.986   0.411  13.221 -0.1593  0.1658 -0.0588
14950PP      PP25054   5.675   1.777   1.787  0.1832 -0.1605 -0.0103
14951PP      PP25055   1.332   7.253  10.827 -0.1026 -0.1835 -0.0979
14952PP      PP25056   7.273   0.731   0.235  0.2672  0.0757  0.0198
14953PP      PP25057  11.343  13.975  10.516  0.4131  0.0876  0.0165
14954PP      PP25058  10.788   7.082   3.014 -0.2501  0.2786 -0.3626
14955PP      PP25059   6.387   8.349   1.133  0.0581 -0.2774  0.2862
14956PP      PP25060   0.127   3.637   1.221 -0.2092 -0.2529 -0.0102
14957PP      PP25061   7.318  15.792  10.837 -0.1129  0.0653  0.0336
14958PP      PP25062  12.419   1.621   9.293  0.1972 -0.1843 -0.0979
14959PP      PP25063  15.847   4.024   3.666 -0.0851  0.1218 -0.1208
14960PP      PP25064   9.674   0.182   9.333  0.1000  0.0813  0.0250
14961PP      PP25065   1.568   0.743  10.881  0.3300 -0.3193 -0.3526
14962PP      PP25066  15.787   9.655   2.379  0.4393 -0.1274  0.3579
14963PP      PP25067  12.693   9.317  10.666 -0.1834  0.1748  0.0253
14964PP      PP25068   9.991   2.884   1.987 -0.4206  0.2145  0.0266
14965PP      PP25069   5.785   2.225  10.878 -0.2526 -0.2535 -0.0356
14966PP      PP25070   2.443   8.357   4.859  0.0447 -0.2463  0.1014
14967PP      PP25071   0.585   9.105  10.908  0.2367 -0.0273 -0.2041
14968PP      PP25072  11.093   7.761   1.532 -0.1471  0.1115  0.2838
14969PP      PP25073  12.456   6.859   2.112  0.1160 -0.0893 -0.0056
14970PP      PP25074  12.570  13.901  11.550 -0.0842 -0.4661 -0.0590
14971PP      PP25075  13.973  15.219   0.526 -0.1034  0.1294  0.2206
14972PP      PP25076   8.344  14.306  11.139  0.1110  0.0540 -0.1999
14973PP      PP25077   6.764  11.016  11.864  0.0700 -0.0652 -0.3198
14974PP      PP25078   3.025   9.959  12.935  0.3423 -0.0770 -0.1375
14975PP      PP25079   1.605   5.675  11.193 -0.0945 -0.0142  0.2357
14976PP      PP25080  15.819   5.956  10.207  0.0430  0.2900  0.0462
14977PP      PP25081  10.540   2.134   2.625 -0.5717 -0.0651  0.3607
14978PP      PP25082  14.960   0.228   3.938 -0.0619  0.1375  0.1246
14979PP      PP25083   4.585   8.661   0.786  0.0529  0.0756 -0.0849
14980PP      PP25084   0.663   8.188   2.886  0.3029  0.1124  0.2484
14981PP      PP25085   9.756   4.316   9.611 -0.0507 -0.1040 -0.2277
14982PP      PP25086   0.128   8.667   9.181  0.1001 -0.3823 -0.0700
14983PP      PP25087   0.403   7.625   0.834 -0.2701 -0.3292 -0.0937
14984PP      PP25088   1.224  11.859   3.031  0.2173  0.0024 -0.0145
14985PP      PP25089  14.280  10.855  11.178  0.1071 -0.0740 -0.0031
14986PP      PP25090   8.143   9.252   9.434 -0.1119 -0.0379  0.2314
14987PP      PP25091   2.400   1.416  12.743  0.0078 -0.0982 -0.3244
14988PP      PP25092   9.540  11.748  10.566  0.0582 -0.1770 -0.1019
14989PP      PP25093  11.901   7.813  10.050  0.4841 -0.0726 -0.2232
14990PP      PP25094  13.007  14.833  11.361 -0.1904 -0.4541  0.1105
14991PP      PP25095  14.389  10.023   0.167 -0.0375 -0.1967 -0.0255
14992PP      PP25096   7.542   5.199   2.235 -0.1762  0.1963  0.0514
14993PP      PP25097  15.231   7.964   4.156  0.0856 -0.5072 -0.0108
14994PP      PP25098   4.178   6.770   0.962  0.0252 -0.0808  0.0194
14995PP      PP25099  12.712   5.558   3.054  0.0981  0.0959  0.1082
14996PP      PP25100   3.802   4.969   0.092  0.0922  0.2875  0.0797
14997PP      PP25101   4.751  12.984  11.064  0.0642  0.0723  0.0726
14998PP      PP25102   6.926  12.445  10.314  0.1756  0.1746 -0.1914
14999PP      PP25103   5.139  11.415  10.258 -0.1123  0.1743  0.0125
15000PP      PP25104  13.259   5.099   2.780  0.4696 -0.0042  0.1225
15001PP      PP25105   2.170   4.912   4.017 -0.2193  0.3157  0.0333
15002PP      PP25106   1.375   3.646   1.607 -0.2503 -0.1789 -0.2390
15003PP      PP25107   8.951   7.079  11.986 -0.0535 -0.2190 -0.0430
15004PP      PP25108   5.051   3.374   9.799  0.2389 -0.2496  0.1770
15005PP      PP25109   1.851   7.235   4.402 -0.3160 -0.1121 -0.0433
15006PP      PP25110  11.092   4.641   2.278  0.1292  0.0616 -0.0860
15007PP      PP25111   0.468  13.981   0.567  0.0192  0.0737  0.0735
15008PP      PP25112  10.970   9.930  11.694  0.2050 -0.0537 -0.0974
15009PP      PP25113   4.236   4.755  11.279  0.1597  0.2020  0.1602
15010PP      PP25114   7.784   3.458   2.230 -0.0897 -0.1744  0.2250
15011PP      PP25115  14.669   1.265   2.386  0.2436  0.2777 -0.1040
15012PP      PP25116   4.180  12.777   2.721  0.1646  0.0880  0.0548
15013PP      PP25117  12.986   4.557   1.036 -0.0136  0.1416 -0.1891
15014PP      PP25118  14.965  12.160  10.433 -0.3415  0.2923  0.2936
15015PP      PP25119   9.564  14.204  10.515  0.0071 -0.1052 -0.1380
15016PP      PP25120  11.572  14.790   2.841 -0.1287 -0.0956 -0.0176
15017PP      PP25121   2.699   2.154   1.091 -0.3800  0.3539  0.0467
15018PP      PP25122   4.143   7.958   1.469 -0.1507  0.0747  0.0040
15019PP      PP25123   0.161   2.293   1.070 -0.0126  0.0912  0.1776
15020PP      PP25124   7.203   2.978   0.451  0.0846  0.0964 -0.0048
15021PP      PP25125   6.705   7.694  11.256 -0.0609  0.0329 -0.1186
15022PP      PP25126  13.342   6.306  12.821 -0.0601 -0.0085  0.3198
15023PP      PP25127   4.463   5.165  12.140 -0.0191 -0.0800 -0.0510
15024PP      PP25128   3.572   2.821  12.079  0.0126 -0.0244 -0.0100
15025PP      PP25129  13.054  10.368   1.926  0.4267  0.1723 -0.2449
15026PP      PP25130  13.040   4.717  12.212  0.0111  0.0242  0.2979
15027PP      PP25131   8.156   7.460   2.636  0.1057  0.2906 -0.1640
15028PP      PP25132  11.352   7.275  12.402  0.1204  0.1748  0.2168
15029PP      PP25133  11.134   8.716   0.477  0.4031  0.0428 -0.0048
15030PP      PP25134   2.339   6.817   1.579  0.0729  0.0950  0.2605
15031PP      PP25135   1.297   0.757  12.563  0.0186 -0.0856 -0.1083
15032PP      PP25136   5.890  10.972  12.923  0.1101 -0.0868 -0.1283
15033PP      PP25137  12.319  14.096   0.468 -0.1663  0.2963 -0.4878
15034PP      PP25138   4.238   5.971   9.717  0.0201  0.0025  0.1672
15035PP      PP25139   0.778  14.795  12.997  0.1289 -0.0763  0.0977
15036PP      PP25140  12.923  10.279   4.028 -0.1327  0.2041 -0.1710
15037PP      PP25141  13.524   8.993   9.417 -0.0242 -0.0720 -0.0380
15038PP      PP25142  12.359   2.621   2.196  0.0112  0.0284  0.2053
15039PP      PP25143   3.137   7.853   4.341  0.2049  0.4003 -0.1621
15040PP      PP25144   8.010   5.226   2.101 -0.1449 -0.1043  0.1264
15041PP      PP25145   8.791   0.256   9.347 -0.1237 -0.1512  0.0549
15042PP      PP25146  14.326   2.417   1.711  0.1162  0.3435 -0.2791
15043PP      PP25147   5.451   1.185   0.586 -0.0428 -0.1748  0.0772
15044PP      PP25148   1.672   9.310   2.505 -0.3763 -0.0261  0.0102
15045PP      PP25149   8.482   3.613  10.861 -0.1330 -0.1471 -0.1858
15046PP      PP25150   8.004   7.402   9.759  0.3530  0.2467 -0.0969
15047PP      PP25151  13.643   8.025   9.305 -0.1284  0.3746  0.0534
15048PP      PP25152  10.234  15.872   0.050 -0.1494 -0.0340  0.0126
15049PP      PP25153   9.082   5.421   2.731  0.1087  0.2338  0.0829
15050PP      PP25154   5.781   7.370  13.470 -0.1017  0.0227 -0.0891
15051PP      PP25155   6.852  15.592   1.993 -0.3191  0.1366 -0.1388
15052PP      PP25156   1.558   3.981   9.529 -0.2011  0.0720 -0.1730
15053PP      PP25157   9.342   0.780   2.376  0.2755 -0.0216 -0.0138
15054PP      PP25158   3.266   9.345   4.198 -0.2845  0.1318  0.0793
15055PP      PP25159  15.881  13.872   0.823  0.2043 -0.2722  0.1772
15056PP      PP25160   1.302  14.671  11.244 -0.0430  0.2161 -0.0705
15057PP      PP25161   1.999   3.570   2.901  0.0383  0.2670 -0.2347
15058PP      PP25162   2.279   2.434   2.004  0.1022 -0.0615 -0.2214
15059PP      PP25163   8.194  12.310   4.072  0.1237 -0.2138 -0.3935
15060PP      PP25164  11.438   5.924  10.055  0.1031  0.2021  0.0526
15061PP      PP25165   0.966   9.665   4.601  0.0402 -0.1487 -0.1023
15062PP      PP25166   9.444   6.054   4.769 -0.0660  0.2720  0.2532
15063PP      PP25167   7.116   8.761   9.992 -0.2895  0.1244 -0.0784
15064PP      PP25168   7.247   9.430  13.245  0.2202  0.1158 -0.1179
15065PP      PP25169  14.866   6.433   3.665 -0.3288 -0.0386  0.2055
15066PP      PP25170   4.481   1.027   9.979  0.0463 -0.0854 -0.0054
15067PP      PP25171   4.648   6.433   4.880  0.0650 -0.1028  0.0215
15068PP      PP25172  13.344   8.312  11.920 -0.1065  0.1384 -0.3028
15069PP      PP25173  13.238   8.201   2.333  0.0234 -0.1483 -0.0252
15070PP      PP25174   7.596  14.623  10.698 -0.1147 -0.4544  0.1862
15071PP      PP25175  12.852   9.879   1.842  0.1210 -0.3128 -0.2286
15072PP      PP25176   3.891   8.497  13.048 -0.1542 -0.0906 -0.0168
15073PP      PP25177   0.852   4.043  11.807  0.1601 -0.1024  0.2791
15074PP      PP25178   1.428  10.901   3.212  0.1402 -0.2295  0.0142
15075PP      PP25179   5.712   5.948   2.182  0.0874 -0.0508  0.0785
15076PP      PP25180   3.713   9.785  10.704  0.2482  0.1382  0.2608
15077PP      PP25181   5.024  12.880   1.357 -0.0682  0.1368 -0.0072
15078PP      PP25182   5.897   9.457   2.299 -0.0378 -0.2590  0.2240
15079PP      PP25183   0.620   8.986   0.411 -0.0700 -0.1467  0.2083
15080PP      PP25184   3.882  14.327   0.478  0.0013  0.0893 -0.0056
15081PP      PP25185   9.731   2.400  13.001 -0.2232  0.0248 -0.2781
15082PP      PP25186  10.695   4.953  12.905  0.3332  0.1009  0.1104
15083PP      PP25187   8.328   0.975  12.869 -0.1856  0.0499 -0.0627
15084PP      PP25188   6.216   0.467   8.630  0.1076  0.0249  0.3379
15085PP      PP25189  12.257   2.365  10.915  0.0035  0.0808 -0.0890
15086PP      PP25190  10.019   2.063   8.846 -0.1486 -0.0627  0.2600
15087PP      PP25191  12.935   6.227   1.680 -0.1615  0.0513 -0.3412
15088PP      PP25192   6.421  11.717   9.943  0.0734 -0.0315  0.0735
15089PP      PP25193   1.231   0.773  10.490  0.2777 -0.2001 -0.1028
15090PP      PP25194   9.972   0.910   4.234  0.1193  0.2188 -0.2729
15091PP      PP25195   9.889  10.533   2.359 -0.0268  0.0885  0.0698
15092PP      PP25196  11.640  15.495   8.202 -0.2061  0.3769 -0.0199
15093PP      PP25197   8.341  12.655   0.307 -0.1958 -0.0194  0.1778
15094PP      PP25198  14.163   0.219   2.589 -0.0646  0.2138 -0.0843
15095PP      PP25199  14.697   9.700   0.391 -0.0231  0.3340 -0.0086
15096PP      PP25200   4.005  12.764   3.588 -0.2897  0.2246 -0.0162
15097PP      PP25201  11.637   9.032  13.001  0.0851 -0.0541  0.0441
15098PP      PP25202   3.070   0.033  10.021 -0.2580 -0.0353 -0.0488
15099PP      PP25203  12.976  14.335   1.506 -0.1486 -0.1181  0.0493
15100PP      PP25204   0.097   2.963  10.176  0.1477  0.0123  0.4968
15101PP      PP25205  10.284  12.411   3.890 -0.1742 -0.1215  0.2155
15102PP      PP25206  10.629  13.449  10.219 -0.0648  0.0633 -0.0720
15103PP      PP25207   5.398  12.728   4.867  0.1257  0.2826 -0.1752
15104PP      PP25208   4.324  12.206   1.149  0.0116  0.1188  0.0692
15105PP      PP25209   0.148   6.116  10.953  0.1772  0.1760 -0.4354
15106PP      PP25210  14.445   3.880  10.227  0.2936  0.0302 -0.1258
15107PP      PP25211   1.060   9.814   3.644 -0.2337 -0.3811 -0.1657
15108PP      PP25212   3.558   2.196   7.527  0.2027  0.0309 -0.0278
15109PP      PP25213   2.124   9.186   9.802  0.2668 -0.0169 -0.1776
15110PP      PP25214   7.879  10.638  10.999 -0.0911 -0.1458 -0.1825
15111PP      PP25215   8.285  12.133   1.371 -0.0531 -0.1936  0.1260
15112PP      PP25216  13.398   2.094   0.312  0.2326 -0.1829 -0.0952
15113PP      PP25217  13.280   1.510   3.559  0.1547 -0.0864  0.1453
15114PP      PP25218  15.834   3.122  10.763  0.0908  0.0735 -0.3724
15115PP      PP25219   8.660   0.974   3.563 -0.0824 -0.0459 -0.2200
15116PP      PP25220   9.817  13.453   0.150  0.4456  0.0745 -0.0069
15117PP      PP25221   8.947   8.449  12.747 -0.1422 -0.3470  0.0651
15118PP      PP25222   7.790  14.930   1.398  0.3111  0.0440 -0.0788
15119PP      PP25223  11.292   6.086   1.274 -0.5450  0.1568 -0.0462
15120PP      PP25224   5.596   4.212   1.956 -0.1366 -0.2297 -0.0268
15121PP      PP25225  13.208  14.529   9.833 -0.4309 -0.1515  0.2795
15122PP      PP25226   0.953   0.764   8.343  0.0369 -0.0466 -0.0347
15123PP      PP25227  10.081  13.736  12.455 -0.2305 -0.0447  0.2247
15124PP      PP25228  10.452  11.129  11.534  0.2630  0.0248 -0.1765
15125PP      PP25229  15.880  12.106   3.744 -0.1036  0.0149 -0.0054
15126PP      PP25230  10.317   8.318   9.900  0.0857  0.0415 -0.2031
15127PP      PP25231   4.705   7.017   9.578  0.0531 -0.3617  0.1315
15128PP      PP25232   4.893   8.148   1.373  0.0326 -0.0540 -0.3241
15129PP      PP25233   5.613   2.805  10.354 -0.1170 -0.0751  0.0648
15130PP      PP25234   8.354   8.440   0.001 -0.3110  0.0182 -0.1260
15131PP      PP25235   3.484   8.093   1.957 -0.1018  0.0064  0.0479
15132PP      PP25236   6.612   0.288  12.221  0.0528  0.0711  0.2357
15133PP      PP25237   8.464   7.138  12.908 -0.0540  0.1299 -0.2183
15134PP      PP25238   2.386   5.456   2.388  0.1670 -0.0167  0.2981
15135PP      PP25239  10.875   5.271  11.807  0.2058  0.3009 -0.0486
15136PP      PP25240   4.687   1.879   0.249 -0.0065 -0.2893 -0.0995
15137PP      PP25241  10.013   9.161   1.798 -0.3044 -0.3849  0.1789
15138PP      PP25242   8.028   7.707   9.382 -0.2293 -0.2840  0.0379
15139PP      PP25243  10.581   0.038   9.961  0.1479 -0.1661  0.0721
15140PP      PP25244   6.047  14.431  12.787 -0.0904  0.2158  0.0023
15141PP      PP25245   0.419   5.305   4.671 -0.1790  0.1842 -0.1045
15142PP      PP25246  12.257  10.766  13.071  0.0483 -0.0018 -0.1891
15143PP      PP25247   8.274   6.373   3.605  0.0636  0.0476 -0.2183
15144PP      PP25248   1.864   1.163   9.956 -0.0999  0.1845 -0.0560
15145PP      PP25249  14.386   7.679   3.153 -0.1894 -0.2834 -0.1735
15146PP      PP25250   6.360   6.746   2.312  0.2114  0.1115  0.0676
15147PP      PP25251  15.675   2.590   0.824 -0.0124  0.0623 -0.0851
15148PP      PP25252  13.176  12.884  12.292 -0.1998 -0.0267 -0.0771
15149PP      PP25253  14.080  11.472  12.139 -0.0398 -0.0938  0.0809
15150PP      PP25254   6.604   5.366   4.081  0.1402 -0.2454 -0.1991
15151PP      PP25255  14.545   9.324  12.316  0.1871 -0.0001 -0.0393
15152PP      PP25256  11.371   3.752   0.906 -0.1272 -0.1054 -0.1215
15153PP      PP25257  14.798   5.626  13.059 -0.0958 -0.2896  0.0999
15154PP      PP25258   6.363  12.793  10.992  0.1503 -0.2140  0.1099
15155PP      PP25259  13.640   5.277   8.848 -0.4060 -0.2426 -0.1469
15156PP      PP25260  11.423  14.972   8.467 -0.0151 -0.1914 -0.0749
15157PP      PP25261   4.989   9.547   1.938  0.0061 -0.1022  0.1336
15158PP      PP25262   6.384   9.121  12.070 -0.1673 -0.0717 -0.2720
15159PP      PP25263  11.061   5.717   3.802 -0.3395  0.2097 -0.2832
15160PP      PP25264   8.573   3.912  13.112  0.0198  0.0784 -0.1383
15161PP      PP25265  13.262  11.432   8.937 -0.1921  0.2513 -0.0687
15162PP      PP25266   6.147  10.581   1.502  0.0175  0.1247 -0.2855
15163PP      PP25267  10.621  14.746   3.412 -0.2837  0.0812  0.1102
15164PP      PP25268   5.141   5.185   9.824  0.2584  0.1992 -0.0522
15165PP      PP25269   5.244  14.343   4.229 -0.0848 -0.2007 -0.1223
15166PP      PP25270   2.494  14.495   0.131  0.2541  0.1257 -0.0057
15167PP      PP25271  12.543   6.117  10.641  0.1293 -0.0556  0.1057
15168PP      PP25272   4.640   4.221   0.388  0.2096 -0.4138 -0.1801
15169PP      PP25273   7.490   5.586   1.766  0.0156  0.2136 -0.2804
15170PP      PP25274  13.073  13.413   2.635  0.2118 -0.1086  0.0276
15171PP      PP25275   0.775  10.130   2.048 -0.1183  0.1482 -0.2151
15172PP      PP25276   9.102  11.382  11.701  0.0300 -0.0466 -0.1257
15173PP      PP25277   8.215   8.160   9.768  0.3380 -0.1129 -0.2201
15174PP      PP25278   0.043  11.073  10.021 -0.0082 -0.1351  0.0987
15175PP      PP25279   4.033  14.483   3.551 -0.0100  0.3007  0.1325
15176PP      PP25280   6.903  14.383   0.809  0.2763 -0.0350  0.0263
15177PP      PP25281   0.147  13.413   9.000  0.0485  0.0129  0.2949
15178PP      PP25282   0.967   3.353   3.888  0.2520  0.0839 -0.0900
15179PP      PP25283   0.913   2.017   7.806 -0.1658 -0.0853 -0.0260
15180PP      PP25284   5.746   2.329  12.934  0.2603 -0.2313 -0.0172
15181PP      PP25285  15.101   9.578   0.066  0.0142 -0.3223  0.0845
15182PP      PP25286  10.803  12.802  12.291  0.3832  0.0685 -0.0926
15183PP      PP25287  10.276  12.623  12.528  0.3270 -0.1321 -0.2319
15184PP      PP25288  11.295   6.296   7.984  0.0027  0.0627 -0.0468
15185PP      PP25289   9.357   6.307  11.403 -0.0482 -0.0054 -0.2567
15186PP      PP25290  10.719  12.408   4.249 -0.3926  0.1060  0.0999
15187PP      PP25291  14.152  11.459   8.976 -0.0462 -0.0170  0.2157
15188PP      PP25292  14.757   9.838   9.987 -0.2232  0.0556 -0.3027
15189PP      PP25293  13.052  13.916   2.611 -0.0747  0.0784 -0.0035
15190PP      PP25294   6.250   9.736  11.264 -0.0158  0.4792  0.0049
15191PP      PP25295   9.846   6.043   5.350  0.0791  0.2208  0.0505
15192PP      PP25296   0.026  10.976  12.740  0.2587  0.2718  0.0870
15193PP      PP25297   6.971   6.683   1.603  0.4004 -0.2704 -0.2495
15194PP      PP25298   9.540   3.216   4.108 -0.3678 -0.3760  0.0137
15195PP      PP25299   0.603  10.806  10.339 -0.0356 -0.0181  0.1250
15196PP      PP25300   4.528   5.967   5.134  0.0161  0.1159  0.1830
15197PP      PP25301  11.024   4.218   4.046 -0.1301  0.2683 -0.2986
15198PP      PP25302  10.704   3.810   4.282 -0.0463 -0.0204  0.2976
15199PP      PP25303   5.421   0.012   1.546 -0.0141  0.0942 -0.3521
15200PP      PP25304   8.162  12.827  10.788 -0.1851 -0.0330 -0.3241
15201PP      PP25305  10.693  10.775  11.254 -0.3270 -0.0391 -0.0293
15202PP      PP25306  10.988  10.533   1.512 -0.1806 -0.3401  0.3666
15203PP      PP25307  15.327   5.061  12.657  0.0451  0.1107 -0.1981
15204PP      PP25308   5.935   7.364   0.510  0.0284 -0.1427  0.0089
15205PP      PP25309   7.757   4.012  13.139  0.1465  0.0767 -0.0439
15206PP      PP25310   8.083  11.630   9.911 -0.0394 -0.3327 -0.2077
15207PP      PP25311   0.458   7.766   4.398 -0.2125 -0.1202 -0.1746
15208PP      PP25312   8.178   0.053  11.974 -0.0118 -0.0410 -0.1811
15209PP      PP25313  12.978  15.899   8.362  0.1487 -0.2402 -0.1599
15210PP      PP25314   9.287   8.650   3.340 -0.0209  0.0248  0.0062
15211PP      PP25315   4.319   6.728   5.110  0.2487  0.0281 -0.2916
15212PP      PP25316   6.318  12.607   3.479  0.3162  0.2484 -0.3417
15213PP      PP25317  10.744  14.637   9.325 -0.1588  0.2165  0.0115
15214PP      PP25318   8.031   3.812  11.282  0.2770  0.1722 -0.2131
15215PP      PP25319   6.284   3.400   2.999 -0.2639  0.0024 -0.1570
15216PP      PP25320   4.775  15.325   2.640  0.1908 -0.0182 -0.1335
15217PP      PP25321  11.481  12.401  10.798 -0.3083 -0.4164  0.2085
15218PP      PP25322   7.141  15.121  10.114  0.1979 -0.1584 -0.0723
15219PP      PP25323  14.374   3.871   1.132  0.1837 -0.0581  0.0914
15220PP      PP25324   2.594  14.605  11.732 -0.0121  0.5193 -0.0207
15221PP      PP25325  12.408   5.098  11.700 -0.1353 -0.0446  0.2121
15222PP      PP25326  12.364  13.041  13.332 -0.3108 -0.2756 -0.0417
15223PP      PP25327   3.768   0.289   8.704  0.0095 -0.1348 -0.0956
15224PP      PP25328  15.709   6.283   9.622 -0.1504  0.1766  0.1912
15225PP      PP25329   9.125   1.249   2.292 -0.0100  0.0075 -0.1497
15226PP      PP25330   1.482   1.986   8.685 -0.0269 -0.0227 -0.0353
15227PP      PP25331   3.774   7.662   0.691 -0.2605  0.0185 -0.1630
15228PP      PP25332  13.070  11.912  13.255 -0.0330 -0.1890 -0.0477
15229PP      PP25333   5.160  11.979  13.207 -0.2974  0.1614 -0.0474
15230PP      PP25334   0.039  11.977   1.976  0.2478 -0.2431  0.0065
15231PP      PP25335   9.617   1.908   4.014 -0.1402 -0.0940  0.2029
15232PP      PP25336   6.602   1.707   0.741 -0.0968  0.1040  0.0091
15233PP      PP25337  10.111   9.555   3.131 -0.0423  0.0256  0.1767
15234PP      PP25338  15.070   7.201   0.866 -0.1835 -0.3489  0.0047
15235PP      PP25339   0.243  14.564   2.375  0.1157  0.0710 -0.1152
15236PP      PP25340   0.898   3.985  11.243 -0.1575 -0.2537 -0.0016
15237PP      PP25341   5.120   0.114  11.950  0.2166 -0.2539 -0.0960
15238PP      PP25342   6.654   6.276   1.816 -0.5423 -0.5421  0.0129
15239PP      PP25343   7.087   5.545   3.789 -0.1510 -0.0850 -0.2014
15240PP      PP25344   0.479  11.024   3.094  0.0545  0.2398  0.0261
15241PP      PP25345   4.906   5.512   0.041 -0.0589 -0.1246  0.2575
15242PP      PP25346   8.643  11.919   3.223 -0.1027 -0.1940 -0.0567
15243PP      PP25347   7.435  15.686   9.723 -0.0698  0.0946  0.0839
15244PP      PP25348   5.939   3.123  13.194 -0.0676 -0.1320  0.5011
15245PP      PP25349  12.093   4.073  10.010  0.0246  0.2106  0.1389
15246PP      PP25350   9.119   5.592  12.065  0.0709  0.1000  0.2631
15247PP      PP25351   7.375   3.190   2.148  0.0086  0.0277  0.1288
15248PP      PP25352  13.032   0.643   0.650  0.1026  0.1731 -0.1326
15249PP      PP25353  14.272   8.946   2.649  0.1711  0.0395  0.0477
15250PP      PP25354  11.853   2.410   1.740  0.1671 -0.0967  0.0334
15251PP      PP25355  13.437   8.410   0.157 -0.1182 -0.2129  0.2343
15252PP      PP25356   4.641  14.378   2.926 -0.1591 -0.0594 -0.2593
15253PP      PP25357  10.002  15.145  12.927 -0.0305  0.1128  0.1477
15254PP      PP25358  13.889   3.681   0.822  0.1504 -0.0243  0.0140
15255PP      PP25359   5.362  10.528   2.780  0.5348 -0.3503  0.1294
15256PP      PP25360   5.342   2.722  13.177 -0.1370  0.3062 -0.1157
15257PP      PP25361  10.026  14.071  10.475  0.1718  0.1629  0.1227
15258PP      PP25362  11.369   9.106   0.151 -0.1250 -0.0659  0.0273
15259PP      PP25363   2.386   7.281   1.382 -0.1682  0.0586  0.1703
15260PP      PP25364  13.730   6.085  13.447 -0.2806 -0.0205  0.0404
15261PP      PP25365  10.235   5.400   2.060  0.1569 -0.4853  0.1248
15262PP      PP25366  12.836   6.342   3.753 -0.1274 -0.0050 -0.1175
15263PP      PP25367   0.614  15.562  11.562  0.0622  0.1969 -0.2132
15264PP      PP25368  13.553  11.660  10.414  0.0665 -0.1515  0.1449
15265PP      PP25369   6.385   3.854   1.377  0.0257 -0.2748 -0.1354
15266PP      PP25370   9.706  12.711   1.592 -0.2989  0.2007  0.2122
15267PP      PP25371  11.621   6.132  12.039  0.3827  0.0531  0.1170
15268PP      PP25372  10.537   0.008   1.467 -0.3627 -0.1343  0.0883
15269PP      PP25373   0.135   7.888   2.212 -0.5511 -0.1391 -0.0900
15270PP      PP25374  10.569  11.944  10.775 -0.2126 -0.2074 -0.0780
15271PP      PP25375   4.719   2.998   3.260 -0.0784 -0.1104  0.0388
15272PP      PP25376   0.044  13.114   2.566 -0.1086  0.1512 -0.1018
15273PP      PP25377  12.037   4.826   1.923  0.0491 -0.1961 -0.1243
15274PP      PP25378  12.587  11.211   9.616 -0.3962 -0.0109 -0.2850
15275PP      PP25379  13.009  15.578   1.130  0.2722  0.0065 -0.5521
15276PP      PP25380   2.284   9.275   3.175 -0.0944  0.0543 -0.1146
15277PP      PP25381   2.316  13.659   3.934  0.1830 -0.0796 -0.1652
15278PP      PP25382  11.947   5.372   1.714  0.1829 -0.0138  0.1146
15279PP      PP25383   7.360  10.888   4.062 -0.1176 -0.0132  0.0524
15280PP      PP25384  15.637  10.371  13.041  0.1906 -0.1774  0.1328
15281PP      PP25385  13.651   5.266  11.178  0.0410  0.2140 -0.0051
15282PP      PP25386   9.072  15.226   1.445 -0.1339  0.1030 -0.0918
15283PP      PP25387   5.517  10.844   4.131 -0.3558  0.0869  0.0590
15284PP      PP25388   4.728   6.597   4.405 -0.1021  0.0144 -0.3820
15285PP      PP25389   0.720   2.273   2.303 -0.2600  0.3091  0.3605
15286PP      PP25390  11.017  15.282   1.989  0.1917  0.0136 -0.1639
15287PP      PP25391   0.449   1.795  13.305 -0.0734  0.0838 -0.2077
15288PP      PP25392  12.369  13.609   7.857 -0.3134 -0.0066  0.3723
15289PP      PP25393  12.172   5.696   9.627 -0.0640 -0.1034  0.4768
15290PP      PP25394   6.022  10.381   4.533 -0.1627 -0.1006  0.0548
15291PP      PP25395   4.275   3.105   3.508 -0.0949  0.0261  0.1932
15292PP      PP25396   2.056  12.200   4.285  0.0813 -0.2032  0.3378
15293PP      PP25397   3.483  11.000   0.423  0.0159 -0.0831  0.0442
15294PP      PP25398   0.165   7.263   4.475 -0.2657  0.1853 -0.2567
15295PP      PP25399   8.785   0.178   1.381  0.3198 -0.0715 -0.0464
15296PP      PP25400  10.662   3.531   8.806  0.1350  0.0515  0.0078
15297PP      PP25401   0.133   9.690   9.722  0.0351  0.0396 -0.1419
15298PP      PP25402   7.118  11.301   4.843  0.2156 -0.0235  0.0801
15299PP      PP25403  10.579   5.177   9.750 -0.1684 -0.4004  0.2731
15300PP      PP25404   1.027  12.762  12.344  0.2395 -0.0199 -0.0003
15301PP      PP25405   7.739   6.016   1.722 -0.1610 -0.3250 -0.1517
15302PP      PP25406  15.508  10.514  10.586  0.1954 -0.1677  0.0693
15303PP      PP25407  10.277   8.200   9.290 -0.1136  0.0129  0.0868
15304PP      PP25408  13.361   1.517   1.690  0.0540 -0.2614 -0.2509
15305PP      PP25409   0.397   7.999  12.504  0.0251 -0.1195 -0.1729
15306PP      PP25410   9.477  10.661  11.222 -0.1138  0.0731 -0.0046
15307PP      PP25411  13.069  14.764   4.406 -0.0001  0.1604 -0.3010
15308PP      PP25412   1.561  14.862  13.136  0.1485 -0.1469  0.2240
15309PP      PP25413   0.195   3.475  10.256  0.3920  0.0612 -0.0906
15310PP      PP25414  10.403   8.944  13.082 -0.0597 -0.1941 -0.0110
15311PP      PP25415  15.017   1.241   9.155 -0.3285  0.0315 -0.2109
15312PP      PP25416  13.346  15.399   8.928 -0.0017  0.2887  0.0298
15313PP      PP25417   9.873   4.046  13.269 -0.2657 -0.1632  0.1073
15314PP      PP25418   8.743  11.367   5.332  0.0091 -0.0545  0.0823
15315PP      PP25419   5.344   3.573   3.441  0.1058 -0.0983 -0.2078
15316PP      PP25420   9.478   4.332  13.407  0.0744  0.6750 -0.0467
15317PP      PP25421  15.202   1.613  12.748  0.2628  0.0190  0.0302
15318PP      PP25422  15.440   5.982   1.403  0.1935  0.0346 -0.0009
15319PP      PP25423   0.746   3.291   1.179 -0.0676  0.1344 -0.2831
15320PP      PP25424   0.891   0.622  12.026  0.0817  0.1333 -0.0119
15321PP      PP25425  10.450   4.906   2.173 -0.2304 -0.0956 -0.1149
15322PP      PP25426   6.443   2.984  10.431 -0.1777 -0.0836 -0.0345
15323PP      PP25427  15.862   7.430   9.735 -0.0013  0.1952  0.1012
15324PP      PP25428  10.022   9.813   0.537 -0.0474  0.0691 -0.3770
15325PP      PP25429   9.935   1.543   9.333 -0.1784 -0.0472 -0.0905
15326PP      PP25430  15.556  15.223   8.729  0.0195 -0.2774 -0.2095
15327PP      PP25431  14.422   7.166   3.951  0.2122 -0.3469  0.0650
15328PP      PP25432  10.997   2.091   1.337  0.0564  0.0365 -0.0091
15329PP      PP25433  15.075   4.822  10.143 -0.0752  0.2791 -0.0342
15330PP      PP25434  11.144   2.640  11.979  0.1552 -0.0196  0.0201
15331PP      PP25435   0.726   1.582   9.326  0.0899  0.1336 -0.3542
15332PP      PP25436   8.095   1.457   3.661 -0.0861  0.2467 -0.2590
15333PP      PP25437   5.631   6.466  12.491 -0.1574  0.2647  0.2464
15334PP      PP25438  11.072   6.404   4.295 -0.2385  0.0123  0.1924
15335PP      PP25439   5.735  13.376   2.202  0.1480 -0.1150 -0.0229
15336PP      PP25440  11.460  10.548   2.892 -0.0553 -0.0358 -0.0817
15337PP      PP25441   4.733   3.377  12.782  0.0305 -0.1784 -0.1781
15338PP      PP25442  14.824   3.438  10.377  0.0954 -0.2701  0.0480
15339PP      PP25443  14.569  14.392   2.931 -0.3168 -0.0090 -0.1131
15340PP      PP25444   9.459  12.215  12.578  0.5025  0.0617  0.0996
15341PP      PP25445  14.865   9.168   1.227 -0.3957  0.3824  0.1263
15342PP      PP25446  14.504   5.275  10.870  0.0303  0.0601  0.4669
15343PP      PP25447  10.893   4.636  10.844  0.1306  0.0972 -0.1221
15344PP      PP25448   8.116  15.201   2.134  0.1584  0.0479 -0.2918
15345PP      PP25449   3.412  15.137   0.968 -0.3544 -0.1089 -0.0203
15346PP      PP25450   8.486   2.543  10.171 -0.2323 -0.2283  0.4945
15347PP      PP25451   2.450  13.494   8.395 -0.2830 -0.1392  0.0852
15348PP      PP25452  10.491  12.249   3.393  0.0893 -0.0473  0.0641
15349PP      PP25453  12.932   0.966   1.509  0.3632 -0.2922 -0.0145
15350PP      PP25454  10.338   4.167  12.935 -0.1541 -0.0715  0.0474
15351PP      PP25455   7.826   5.279  13.280  0.0741  0.1036  0.1326
15352PP      PP25456  14.414   8.048  10.010 -0.0065  0.4075 -0.0130
15353PP      PP25457  11.283  10.653  12.144 -0.2314  0.3207  0.0189
15354PP      PP25458  13.584   4.012  10.979  0.1111  0.0347 -0.0169
15355PP      PP25459  11.918   4.626   3.112 -0.0527 -0.0318  0.0368
15356PP      PP25460   1.304   1.949   1.796 -0.1698 -0.2833 -0.1616
15357PP      PP25461   2.511   8.622   2.322 -0.0890 -0.0351  0.0101
15358PP      PP25462   8.122   5.511   4.145  0.0549 -0.0210  0.0609
15359PP      PP25463   5.249   7.315   1.458 -0.0927 -0.0637  0.1041
15360PP      PP25464   4.954  15.833  12.375 -0.0893 -0.1192 -0.2583
15361PP      PP25465   3.034   3.533  12.765  0.2768  0.1488  0.1088
15362PP      PP25466   4.913  13.325   4.061  0.1104 -0.2702 -0.3575
15363PP      PP25467  10.107   3.233   1.058  0.2836 -0.2316  0.2263
15364PP      PP25468   6.968   6.765  10.444 -0.1663 -0.0627  0.2338
15365PP      PP25469   8.642   0.850  12.377 -0.1060  0.3108  0.0461
15366PP      PP25470   6.007   7.558   4.810 -0.0573 -0.1117 -0.1807
15367PP      PP25471  15.617   7.667   5.139 -0.1469  0.0233 -0.0433
15368PP      PP25472  14.047   6.888   0.645  0.1184  0.1254 -0.0548
15369PP      PP25473   4.766  11.815  11.737 -0.4203  0.0252  0.0984
15370PP      PP25474   0.839   9.167   9.179  0.0395  0.4506  0.0429
15371PP      PP25475   9.759   9.772  11.088  0.2669  0.2465  0.2647
15372PP      PP25476   6.730   0.076   3.737 -0.0857 -0.1891  0.3338
15373PP      PP25477  13.546   5.784  13.096  0.0021  0.2445  0.1137
15374PP      PP25478   0.370  10.128   2.463 -0.5572 -0.2422  0.1317
15375PP      PP25479   0.678  11.070   3.549 -0.2383 -0.2289 -0.1151
15376PP      PP25480  11.259   6.537  13.007  0.1225 -0.0653  0.2799
15377PP      PP25481   5.106  13.413  12.456  0.0014 -0.1479 -0.0226
15378PP      PP25482   1.150   1.673  12.096 -0.2298 -0.0050 -0.1671
15379PP      PP25483   7.463  10.302   5.030  0.2359 -0.0389 -0.2480
15380PP      PP25484   3.377  15.050   8.140 -0.0197 -0.1041  0.1089
15381PP      PP25485   3.584   2.794   0.250  0.0840 -0.2316  0.2142
15382PP      PP25486   1.731  11.812   1.617 -0.1280 -0.1560 -0.0065
15383PP      PP25487   3.238   3.889   3.880 -0.0814  0.1938  0.0728
15384PP      PP25488   2.456   2.060   2.455  0.0638 -0.0015  0.3109
15385PP      PP25489  13.525  14.804   0.324  0.2066  0.0233 -0.1775
15386PP      PP25490   0.414  12.793   5.043  0.0779  0.0064 -0.0294
15387PP      PP25491  13.311   7.796   0.627  0.1686  0.2818 -0.1167
15388PP      PP25492   9.576   6.915  12.040 -0.0519 -0.1405 -0.2850
15389PP      PP25493  15.871  14.612   8.593 -0.0283  0.1066  0.2934
15390PP      PP25494   8.401   8.898   2.221  0.1854  0.0094 -0.0437
15391PP      PP25495   3.545  14.371  11.342 -0.1233 -0.4021 -0.1370
15392PP      PP25496  13.071  13.918   1.794  0.1187  0.0894  0.2136
15393PP      PP25497   6.491   9.725   3.178 -0.2419 -0.0830 -0.0252
15394PP      PP25498   8.709   1.286   9.866 -0.3310  0.0185 -0.2517
15395PP      PP25499  10.551   0.203   9.477  0.3063 -0.0183 -0.1831
15396PP      PP25500   4.948   5.203  12.572  0.3001  0.1354 -0.0951
15397PP      PP25501  14.699   8.062   8.940 -0.2019  0.0688 -0.1162
15398PP      PP25502  15.058  11.508   2.825 -0.1235 -0.2267 -0.1673
15399PP      PP25503   4.390   1.818   2.013 -0.1051 -0.0815  0.2939
15400PP      PP25504   1.903   4.047  10.038  0.0101  0.2285  0.1329
15401PP      PP25505   7.099   4.638   0.196 -0.0570 -0.0785 -0.1389
15402PP      PP25506  15.814   6.762  13.021 -0.1274 -0.0745 -0.0980
15403PP      PP25507  14.964  15.814  12.189  0.2749 -0.1180  0.3107
15404PP      PP25508   7.546   0.727   9.064  0.0692 -0.0794  0.2098
15405PP      PP25509   3.531  11.856   3.517  0.2103  0.0605 -0.2971
15406PP      PP25510   3.157   6.309   1.975  0.6623  0.2431  0.0457
15407PP      PP25511   3.064  14.414   2.023  0.0935  0.0093 -0.0467
15408PP      PP25512   8.596   2.051   1.136  0.3005  0.3529 -0.2089
15409PP      PP25513   5.068   9.525   3.552  0.0971  0.2328  0.2079
15410PP      PP25514   8.813   9.555  12.825 -0.4163  0.2405  0.2235
15411PP      PP25515  11.294   6.572   8.402  0.1452 -0.1769  0.3031
15412PP      PP25516   5.066   2.694  11.833  0.1039  0.3120  0.0461
15413PP      PP25517  15.443  12.887   4.218 -0.0962  0.2377  0.1479
15414PP      PP25518   5.994   1.510  11.380 -0.1056  0.2262  0.1514
15415PP      PP25519   7.389   5.435   1.262  0.0935  0.0116 -0.0976
15416PP      PP25520   3.025   5.819   2.574  0.1315 -0.1903 -0.2506
15417PP      PP25521  10.269   6.292   3.664  0.2917 -0.5264 -0.3557
15418PP      PP25522   2.415   2.719   3.836  0.1765  0.0488  0.2556
15419PP      PP25523  15.622   3.016   8.427 -0.0451  0.0652  0.0869
15420PP      PP25524   8.895   0.679  11.809 -0.1924 -0.2050  0.0211
15421PP      PP25525  14.376  15.415   8.361  0.0565  0.0700 -0.0530
15422PP      PP25526   2.490  13.036   0.539  0.1478 -0.3758 -0.2702
15423PP      PP25527   0.869   0.035   1.034 -0.1857 -0.0517  0.1441
15424PP      PP25528   3.485   6.717  12.955  0.3441  0.1576  0.2246
15425PP      PP25529   0.949   8.296   4.907 -0.0749  0.2428 -0.0437
15426PP      PP25530   3.857   8.770   9.187  0.1422  0.3051  0.0541
15427PP      PP25531   1.706   8.760   3.639  0.0586 -0.0523 -0.1107
15428PP      PP25532   2.193   5.400  13.096  0.2985 -0.0398  0.3057
15429PP      PP25533  15.624   4.200   8.930 -0.0687 -0.4029  0.0338
15430PP      PP25534   7.642  12.779  12.759 -0.0228  0.2817 -0.0503
15431PP      PP25535  10.783   1.560  11.284 -0.0295 -0.0495 -0.2276
15432PP      PP25536   1.985  11.692   4.115 -0.0044  0.1729  0.2199
15433PP      PP25537   7.756   9.051   9.216  0.1174 -0.2099  0.1287
15434PP      PP25538   1.659   5.354   4.492  0.3900 -0.1346  0.0605
15435PP      PP25539   4.142  15.710   9.760 -0.0176  0.0345  0.2100
15436PP      PP25540  15.256   5.660  11.425 -0.0111  0.3001  0.0613
15437PP      PP25541   0.290   5.470  10.753  0.1243  0.0530 -0.4252
15438PP      PP25542  11.252  11.518  11.344  0.2111  0.0861  0.0296
15439PP      PP25543   1.469   3.199  11.486 -0.4672  0.0267 -0.0710
15440PP      PP25544   2.866   5.489   9.748  0.0654 -0.3330  0.0181
15441PP      PP25545   0.851   1.621  11.056  0.0463  0.1115 -0.0567
15442PP      PP25546  12.519  11.740   0.328  0.0644 -0.2310  0.0434
15443PP      PP25547   5.474   0.357  11.055  0.2779  0.1182  0.1336
15444PP      PP25548  11.551   3.056   2.986 -0.2581 -0.1425 -0.3028
15445PP      PP25549   1.929   4.915   4.475 -0.2800 -0.2636 -0.3078
15446PP      PP25550   1.512   1.227   2.426  0.0054  0.3077 -0.2247
15447PP      PP25551   7.370  12.798   2.382 -0.2045  0.1258 -0.1134
15448PP      PP25552   4.004  15.864  13.344 -0.3255 -0.0293 -0.5554
15449PP      PP25553  14.730   2.337  10.588 -0.0572 -0.1181  0.0131
15450PP      PP25554  13.456  14.819  10.202 -0.1768 -0.3316 -0.1470
15451PP      PP25555  12.030   5.302  10.084  0.0791 -0.3167  0.2566
15452PP      PP25556  15.210   5.891  12.347 -0.2455 -0.2796  0.0474
15453PP      PP25557   7.573   2.981  10.842  0.0642 -0.0404  0.0963
15454PP      PP25558   5.475  15.399  13.387 -0.0198 -0.0294  0.1562
15455PP      PP25559   0.833   9.962  12.894  0.1406  0.0526 -0.0778
15456PP      PP25560  12.658   2.040   2.892  0.0281 -0.1842  0.3678
15457PP      PP25561   5.856  11.944   3.091 -0.0290  0.4348  0.1416
15458PP      PP25562   3.044  10.242   5.273  0.2484  0.0155 -0.2171
15459PP      PP25563   8.451  10.963   5.915 -0.0210 -0.0682 -0.2341
15460PP      PP25564   7.664   3.576  13.427 -0.0708 -0.0722 -0.3408
15461PP      PP25565   9.831  12.654  11.673  0.0585  0.2183 -0.1293
15462PP      PP25566   7.028   4.762  10.291  0.2815  0.2044 -0.0190
15463PP      PP25567   3.322   8.448   0.674 -0.1831  0.4750  0.1159
15464PP      PP25568   3.039   9.792   0.815  0.0103 -0.0874 -0.1516
15465PP      PP25569   1.524   5.467   3.634 -0.2758  0.1863 -0.2717
15466PP      PP25570   5.744  12.716   2.581  0.2788 -0.0237  0.1568
15467PP      PP25571   1.426   4.407   1.983  0.1314 -0.0975  0.1069
15468PP      PP25572   4.418   9.704   2.032  0.0942  0.2697  0.0930
15469PP      PP25573   1.879   7.461  12.332  0.0982  0.0859  0.1086
15470PP      PP25574  12.953   7.236  13.379 -0.1071 -0.1675  0.0857
15471PP      PP25575   9.036   0.321  13.128  0.1702 -0.0868 -0.4317
15472PP      PP25576  14.619   3.248  10.801  0.1126  0.0580 -0.0546
15473PP      PP25577   3.772  10.781   1.546 -0.2475  0.2142 -0.0148
15474PP      PP25578  14.417   4.447  13.462 -0.1766  0.4563 -0.0779
15475PP      PP25579   8.194  14.437  11.636 -0.1680  0.1910  0.2219
15476PP      PP25580   1.354   7.994   4.837 -0.3244 -0.0553  0.4356
15477PP      PP25581   6.548   0.446   3.525 -0.0486 -0.4246 -0.1947
15478PP      PP25582   3.216  10.927  13.009  0.1799 -0.4719 -0.1087
15479PP      PP25583  15.757   3.264   1.400 -0.0777 -0.1575 -0.0324
15480PP      PP25584  11.274   5.079   1.274 -0.3001  0.0258 -0.1039
15481PP      PP25585   1.508   6.340   3.144  0.1763 -0.1312 -0.2050
15482PP      PP25586  14.295  11.600   1.731 -0.1108  0.1766 -0.2044
15483PP      PP25587   1.426  10.016   9.005  0.1479 -0.1009 -0.0023
15484PP      PP25588  12.655   1.007   1.924  0.2142  0.2204 -0.2139
15485PP      PP25589  15.567  10.195   8.994  0.0675 -0.1019  0.4486
15486PP      PP25590  10.781  14.375   0.879 -0.0106 -0.1163  0.2000
15487PP      PP25591   1.836  11.353   9.014 -0.2212  0.3606 -0.2448
15488PP      PP25592   7.221   5.877   0.990  0.1265 -0.0622  0.0530
15489PP      PP25593   8.589   9.701  10.016  0.1495  0.1677 -0.1133
15490PP      PP25594   7.079  12.232  11.105  0.0258 -0.0025 -0.0936
15491PP      PP25595   5.974   0.837   2.330 -0.0933  0.3246  0.3601
15492PP      PP25596  15.760  15.446   3.020  0.0246  0.0472  0.2060
15493PP      PP25597  14.093   6.351   8.759  0.0133 -0.0687  0.0128
15494PP      PP25598  10.172  15.123   3.028 -0.1475  0.0863  0.0447
15495PP      PP25599   2.038   3.315   9.032  0.3854  0.2457  0.0513
15496PP      PP25600  10.099   6.825   1.070  0.3271 -0.1240  0.1720
15497PP      PP25601   7.347  13.623  12.315 -0.0889  0.0232  0.2024
15498PP      PP25602  14.976   1.989  10.926  0.0266 -0.0935 -0.0680
15499PP      PP25603   7.233   9.268   5.019  0.1944  0.1338  0.0074
15500PP      PP25604   2.687   1.362   9.272  0.0882 -0.1143  0.2363
15501PP      PP25605  12.491   9.759   3.842 -0.2999  0.2350  0.1505
15502PP      PP25606   8.639  10.250   0.985  0.0107 -0.1320 -0.0861
15503PP      PP25607   6.638   0.099   3.192  0.2643  0.2469 -0.1548
15504PP      PP25608  11.711  13.053   0.185 -0.0053 -0.0185 -0.3576
15505PP      PP25609   3.165   4.822   1.920  0.0244 -0.0163  0.0547
15506PP      PP25610   5.545   7.198  11.723  0.2537 -0.0044 -0.4550
15507PP      PP25611   7.447   5.763   2.489 -0.1482  0.1369  0.1134
15508PP      PP25612   6.062   2.587  12.050 -0.1726  0.1160 -0.0400
15509PP      PP25613   2.627   5.133   0.620  0.0403  0.0542 -0.0178
15510PP      PP25614   0.077   0.326  10.221  0.0175 -0.0984 -0.2924
15511PP      PP25615  10.832   9.487  11.412 -0.0332 -0.3368  0.0327
15512PP      PP25616  13.518   9.030  11.904 -0.0758  0.1599 -0.0925
15513PP      PP25617   8.908   2.245   9.859 -0.2461  0.0967  0.1396
15514PP      PP25618   5.972   7.106  10.042  0.1117  0.1867 -0.1277
15515PP      PP25619  12.668  14.213   2.656  0.0256  0.0844  0.0493
15516PP      PP25620  15.178   4.523   9.114  0.1140 -0.2798  0.1286
15517PP      PP25621   6.139   2.851   3.378  0.3625  0.0189  0.2308
15518PP      PP25622  12.624   0.136   1.531  0.0239  0.0232 -0.2061
15519PP      PP25623  11.626  12.744  11.138  0.0698 -0.0660  0.0698
15520PP      PP25624   1.843  14.971  12.162 -0.0119  0.2185  0.0325
15521PP      PP25625  14.331   4.254  10.652 -0.0699 -0.0251 -0.0830
15522PP      PP25626  11.235  12.878  13.206 -0.0634 -0.1288  0.1821
15523PP      PP25627   6.032   7.334  12.771  0.0527 -0.0238 -0.3464
15524PP      PP25628  10.161   2.906   4.231  0.0813  0.4604 -0.1445
15525PP      PP25629  15.220  10.411  10.177 -0.2756 -0.0400 -0.1560
15526PP      PP25630   7.473  10.068   3.222  0.0393  0.0436  0.1130
15527PP      PP25631  10.977   5.633   1.326 -0.0315  0.1532 -0.0908
15528PP      PP25632  10.225  11.881   9.474  0.0075 -0.0222  0.0226
15529PP      PP25633   4.000   0.476  10.842 -0.1319  0.1695  0.2273
15530PP      PP25634   5.963  15.243   0.039  0.2270  0.1408 -0.1238
15531PP      PP25635  14.745   5.761  11.525  0.2271  0.3018 -0.1289
15532PP      PP25636   3.127  13.975   3.689 -0.2434  0.3777  0.0621
15533PP      PP25637  13.017   2.557  10.416  0.0841 -0.2857 -0.2102
15534PP      PP25638   2.895   8.951   2.297  0.2358  0.0686 -0.0731
15535PP      PP25639   1.620  13.444   0.604 -0.0445 -0.0819 -0.1621
15536PP      PP25640  11.989  13.296   9.470 -0.2831  0.1404 -0.2254
15537PP      PP25641  12.644  14.703  10.857  0.0286 -0.0352 -0.0345
15538PP      PP25642   7.789  10.895   1.041  0.3291  0.0752 -0.0765
15539PP      PP25643   7.668  10.602  12.696  0.2898 -0.1115  0.2024
15540PP      PP25644  11.157   5.910   0.360 -0.1933 -0.1304  0.5355
15541PP      PP25645  11.445  10.309  10.595  0.1348  0.0219  0.0532
15542PP      PP25646   1.311   1.595  11.253  0.3141  0.0336 -0.0306
15543PP      PP25647  12.475   2.539   1.629 -0.1571 -0.1699  0.0796
15544PP      PP25648   1.134   6.691   3.359 -0.0172 -0.1913  0.2603
15545PP      PP25649   5.962   8.577   4.174 -0.0298 -0.0661 -0.1380
15546PP      PP25650  12.993   4.629   0.489 -0.2589  0.0289 -0.3043
15547PP      PP25651  12.427   0.763   1.464  0.1260 -0.2876  0.0975
15548PP      PP25652   0.812  10.422   2.834 -0.0983  0.1064 -0.1413
15549PP      PP25653   7.045   5.034   3.604  0.1482  0.3600 -0.0212
15550PP      PP25654   5.895   7.792   9.431 -0.1266 -0.3712 -0.1771
15551PP      PP25655  13.965   0.693   2.698  0.0953  0.0066  0.2155
15552PP      PP25656   1.150  15.765   1.484  0.0137 -0.1666 -0.1123
15553PP      PP25657   3.158   1.566   9.288  0.2217  0.0064 -0.1141
15554PP      PP25658  12.826   2.802  10.843  0.1375  0.1434 -0.0250
15555PP      PP25659  11.387   5.069  10.504 -0.0132 -0.0736 -0.0002
15556PP      PP25660   1.244   0.778   3.337  0.0919  0.0096 -0.2444
15557PP      PP25661  12.465   9.876  11.367  0.0287  0.1209  0.0371
15558PP      PP25662   0.043   0.144   1.531 -0.2399 -0.0874  0.0421
15559PP      PP25663   0.507  14.678   3.336  0.0757  0.2861  0.1285
15560PP      PP25664   8.450   1.485   1.842  0.0653  0.2864  0.1166
15561PP      PP25665  15.801   4.183  12.353  0.1210 -0.0318  0.0651
15562PP      PP25666  15.674   8.187   1.899 -0.1320 -0.0001  0.4138
15563PP      PP25667   0.393  12.329   0.683 -0.0485  0.1510 -0.2097
15564PP      PP25668   7.022   4.775  10.840  0.0339 -0.1137  0.0997
15565PP      PP25669  13.358   9.096   4.825 -0.1351 -0.1585  0.0248
15566PP      PP25670   4.989   9.755   9.736  0.2083 -0.1126 -0.0338
15567PP      PP25671   9.149  13.652   3.131 -0.0164 -0.0948 -0.3448
15568PP      PP25672   8.172  11.560   3.362  0.1145  0.0494 -0.1354
15569PP      PP25673   6.412  15.379   2.133  0.3609 -0.1392 -0.1917
15570PP      PP25674  12.668  10.473   2.743  0.0015  0.0370  0.0126
15571PP      PP25675  14.777   3.296   2.830 -0.1417  0.0777 -0.1580
15572PP      PP25676  13.989  15.241  11.256 -0.1508  0.0985  0.2222
15573PP      PP25677   2.549   6.060   0.676  0.2469  0.4118 -0.2151
15574PP      PP25678  10.139  10.099  11.835  0.2480  0.0765  0.2982
15575PP      PP25679   2.270   7.388  11.077 -0.1443  0.1169 -0.0968
15576PP      PP25680   4.713  12.583  12.194  0.1038 -0.1242  0.0868
15577PP      PP25681  10.206   9.417   2.679 -0.2984 -0.1696  0.2449
15578PP      PP25682   2.798   0.285   2.687  0.1443  0.1133  0.0413
15579PP      PP25683   3.710   8.712  12.394 -0.2695 -0.2820 -0.3123
15580PP      PP25684   7.872   1.185  12.753  0.1885 -0.1101  0.2073
15581PP      PP25685   6.502  13.116   9.788 -0.1462  0.2172  0.3115
15582PP      PP25686   2.965   3.169   1.143 -0.0248 -0.0506 -0.1483
15583PP      PP25687  15.467   2.476   9.509  0.3819  0.0172  0.1011
15584PP      PP25688  11.732   1.710   8.900 -0.0947  0.2641  0.2145
15585PP      PP25689   7.005   1.652   1.532  0.1285 -0.3934  0.1932
15586PP      PP25690   9.234  10.119   1.972  0.0921 -0.1218  0.0553
15587PP      PP25691  13.341   4.161  11.410 -0.0658 -0.1899  0.0709
15588PP      PP25692  15.071   1.857   1.080  0.0832  0.2283 -0.1070
15589PP      PP25693   2.141  14.294  13.265 -0.0234  0.1840  0.1821
15590PP      PP25694  12.984   9.357  12.723  0.0499  0.1833  0.0341
15591PP      PP25695  13.724   1.807   3.787 -0.3472  0.1442 -0.0820
15592PP      PP25696  15.413  14.502   3.233  0.0869  0.1121 -0.2377
15593PP      PP25697   0.947   1.987   2.690  0.0019  0.0663 -0.2413
15594PP      PP25698   7.945  11.940   5.707  0.0938  0.1012  0.1446
15595PP      PP25699   7.585  14.052  11.186  0.1132 -0.0639  0.1619
15596PP      PP25700  15.795   7.596  10.305  0.0097 -0.0323 -0.0701
15597PP      PP25701   1.188  11.700  10.238  0.0340 -0.1113 -0.0293
15598PP      PP25702  10.857   7.129   1.402 -0.1084  0.2608 -0.2937
15599PP      PP25703  12.216   1.356   9.675  0.2275 -0.2212 -0.1615
15600PP      PP25704  10.184   2.193  13.272 -0.1085  0.1513  0.0340
15601PP      PP25705   0.356   1.194   8.948  0.1672  0.0667 -0.2403
15602PP      PP25706   2.348   6.399   1.173 -0.1792 -0.0279 -0.1980
15603PP      PP25707   8.737  15.811  12.888  0.2712 -0.1252 -0.3210
15604PP      PP25708  14.414  13.586  12.198  0.1093  0.0876  0.2036
15605PP      PP25709  13.346   5.951  10.393  0.0889  0.1074 -0.0003
15606PP      PP25710   5.695   8.201   9.395  0.1238  0.1744 -0.2277
15607PP      PP25711   9.218  11.918   2.021 -0.1629  0.2090  0.0924
15608PP      PP25712  13.564   7.074  10.283 -0.0663 -0.2436  0.1925
15609PP      PP25713  15.209   8.568   9.545  0.0708  0.0574  0.1270
15610PP      PP25714   4.442  15.422   9.471  0.2219 -0.0102  0.1491
15611PP      PP25715   3.683   1.367  13.297  0.0486  0.3459 -0.0380
15612PP      PP25716   0.169   1.208  11.133 -0.0468  0.2802 -0.1140
15613PP      PP25717   2.380   0.135  11.265  0.0089 -0.4497  0.0700
15614PP      PP25718   4.380   9.921   4.703 -0.2078 -0.2450 -0.3893
15615PP      PP25719   5.220   1.964  11.069  0.0313 -0.0165 -0.0210
15616PP      PP25720  12.364  12.649   2.570  0.0506  0.2174  0.3084
15617PP      PP25721  14.885   5.737  11.039  0.0313  0.1228 -0.1960
15618PP      PP25722   8.801   5.343   4.204 -0.0336  0.0469  0.0011
15619PP      PP25723   1.372  13.180  11.386  0.2459  0.1216 -0.0390
15620PP      PP25724  10.716   9.867  10.335 -0.5640 -0.0072 -0.0441
15621PP      PP25725  11.465  14.151  11.753  0.2536 -0.1566  0.1511
15622PP      PP25726  11.941   2.812  11.070 -0.0539 -0.2803  0.0942
15623PP      PP25727   5.942   7.633   1.810 -0.2416  0.1953  0.0016
15624PP      PP25728  10.104   9.210  13.412  0.0469  0.0958  0.1730
15625PP      PP25729   1.742   5.373   2.947  0.1437  0.1511  0.0834
15626PP      PP25730  11.847   4.900  11.029  0.0953 -0.3111 -0.0422
15627PP      PP25731  10.872   5.109   2.454  0.0801 -0.0898  0.0934
15628PP      PP25732   8.810   7.071  12.432  0.2486 -0.0663 -0.2100
15629PP      PP25733   3.560  11.580   0.798  0.2447  0.0894  0.1454
15630PP      PP25734   4.696   8.249  13.391  0.0713 -0.1375 -0.0705
15631PP      PP25735   8.448  13.208  12.494 -0.0859  0.0503 -0.0561
15632PP      PP25736   6.326   2.563   9.985  0.1086  0.3195 -0.0609
15633PP      PP25737  14.986   6.419   1.927 -0.0372 -0.2821  0.1714
15634PP      PP25738  12.888  15.099   7.882  0.0054  0.1627  0.0370
15635PP      PP25739  14.371  11.831  11.895 -0.1179  0.1396 -0.0697
15636PP      PP25740  13.259   0.848   1.078 -0.1602 -0.2211  0.3331
15637PP      PP25741   2.863   8.718   3.311 -0.2609 -0.0891 -0.1820
15638PP      PP25742  15.211   2.268   0.627  0.2004 -0.1131  0.1499
15639PP      PP25743   3.571   4.691  11.873  0.2480  0.0377 -0.0513
15640PP      PP25744   3.002   0.497  12.901  0.0976 -0.2773 -0.1090
15641PP      PP25745  11.230   6.426  10.254  0.0929 -0.0917 -0.2195
15642PP      PP25746   4.014   3.491   3.850 -0.0214 -0.0310  0.0100
15643PP      PP25747   5.233   1.356   4.269  0.0710  0.0240 -0.2196
15644PP      PP25748   7.192   6.566  12.314 -0.0237 -0.0512 -0.0017
15645PP      PP25749  14.755  12.899  13.027 -0.0524 -0.3716  0.1011
15646PP      PP25750  12.398  15.728   2.819  0.0141 -0.0628 -0.0036
15647PP      PP25751   5.833   2.396  10.155 -0.3069  0.3075 -0.0328
15648PP      PP25752   6.475   7.694  11.915  0.1522  0.2703  0.2930
15649PP      PP25753  12.700   4.286   8.403  0.1863 -0.3591 -0.4370
15650PP      PP25754  12.684  13.432   1.279  0.1034 -0.0017  0.2416
15651PP      PP25755  14.501   9.482   1.387 -0.0831 -0.2885  0.0405
15652PP      PP25756  10.202  15.313   9.066  0.0982 -0.0892  0.4878
15653PP      PP25757   6.196  12.563   4.880 -0.1668  0.0518 -0.0139
15654PP      PP25758   7.851   4.327   9.918  0.2274  0.2738 -0.0293
15655PP      PP25759   8.388   6.355  12.130 -0.2682 -0.3805  0.1112
15656PP      PP25760   9.206   9.668   9.518 -0.2684  0.1405 -0.1399
15657PP      PP25761   4.590   1.479  10.047  0.1014  0.1247 -0.1410
15658PP      PP25762   7.258   9.904   2.637 -0.1765  0.0211  0.3309
15659PP      PP25763   1.620   2.532   9.831  0.2647  0.1501  0.0492
15660PP      PP25764   3.245   5.832   4.200 -0.3238  0.0406  0.0326
15661PP      PP25765   1.705  13.830  11.067 -0.2179 -0.0421  0.1111
15662PP      PP25766  13.934  10.202   2.514 -0.0159 -0.2934 -0.0491
15663PP      PP25767   7.945  15.558   9.761 -0.0717 -0.1155  0.2706
15664PP      PP25768   1.710   2.443   0.855  0.1446  0.0215 -0.3037
15665PP      PP25769   4.287  12.653  10.288 -0.0004 -0.1035  0.0154
15666PP      PP25770  13.607  11.014   3.847 -0.1661  0.2220  0.2596
15667PP      PP25771  15.483   0.356   1.230 -0.2150  0.1555 -0.0087
15668PP      PP25772  13.375  14.357   0.034  0.1006 -0.2302 -0.1038
15669PP      PP25773  13.951   3.180   0.687  0.0425  0.2372  0.0469
15670PP      PP25774  13.480   1.218   9.170  0.0269  0.1124  0.1404
15671PP      PP25775  13.973  13.689   8.134  0.0194  0.1389  0.1889
15672PP      PP25776   6.473  11.387  11.740 -0.3177  0.0595  0.2632
15673PP      PP25777   3.896   5.671  12.896  0.0364  0.0771  0.1142
15674PP      PP25778   3.880  11.618  11.716 -0.0415 -0.0848  0.1081
15675PP      PP25779  13.152  13.327  12.005 -0.3263 -0.2971  0.0775
15676PP      PP25780   5.665   2.347   9.272 -0.1758 -0.0716  0.0388
15677PP      PP25781  14.508   1.643  13.427 -0.1973 -0.3264 -0.1678
15678PP      PP25782   1.163  15.339  12.357  0.0325  0.2541  0.0387
15679PP      PP25783   4.736  12.295  13.062 -0.1144  0.0948  0.1652
15680PP      PP25784   8.783  10.728   4.514 -0.2510 -0.0561 -0.0269
15681PP      PP25785  11.709   5.108   3.370 -0.0838  0.2880 -0.1388
15682PP      PP25786   6.178   9.084   4.068  0.3525  0.3202  0.1080
15683PP      PP25787   7.987  12.881   1.739  0.2336  0.1834 -0.1327
15684PP      PP25788  13.439   0.058   3.347  0.0009  0.1877 -0.2321
15685PP      PP25789   1.833  15.208   8.772 -0.3233 -0.0148  0.0910
15686PP      PP25790  13.074   1.751   9.955 -0.2514 -0.1103  0.1393
15687PP      PP25791  15.256   6.906   2.782  0.1335  0.0820  0.1666
15688PP      PP25792  14.461   2.509   9.056 -0.1738 -0.2093 -0.0586
15689PP      PP25793  15.541  13.429   0.888  0.3223  0.1222 -0.2019
15690PP      PP25794   5.050   3.929  11.853  0.1403  0.1366 -0.2693
15691PP      PP25795  13.314  14.209   3.083  0.0856 -0.2019 -0.0673
15692PP      PP25796   9.802   1.941  12.157  0.0231 -0.0698  0.1487
15693PP      PP25797   0.432   1.217   3.358 -0.2996  0.1473  0.1109
15694PP      PP25798   4.309  15.569   8.646 -0.2339  0.1828 -0.0805
15695PP      PP25799   7.904   3.194   3.625 -0.2781  0.2314  0.0353
15696PP      PP25800  10.408   3.738  12.032  0.2303 -0.1429 -0.0872
15697PP      PP25801   9.583   1.245   2.390 -0.3310  0.0893 -0.1229
15698PP      PP25802   6.423   6.970  12.379  0.1205  0.2517  0.5334
15699PP      PP25803   8.737  10.425  12.840 -0.0126  0.1600  0.0008
15700PP      PP25804   7.214   8.942   2.374 -0.0070 -0.0488  0.0048
15701PP      PP25805   2.690   7.161   1.710 -0.2185  0.1673 -0.0563
15702PP      PP25806   1.725  10.463   4.851 -0.0697 -0.5020 -0.0180
15703PP      PP25807   3.349   0.649   8.866  0.0112 -0.0322  0.3037
15704PP      PP25808  12.728  12.325  11.278 -0.0919  0.0122 -0.0450
15705PP      PP25809  15.180  11.237  13.015 -0.0256 -0.1746 -0.1155
15706PP      PP25810   0.256   6.664   0.356 -0.1435  0.1671 -0.2643
15707PP      PP25811   5.850   6.697   3.326  0.2858 -0.0016  0.2333
15708PP      PP25812   2.958   4.005   0.684 -0.3309 -0.1719  0.0238
15709PP      PP25813  13.805   7.762  13.194  0.1044 -0.0682  0.0665
15710PP      PP25814   0.858   8.469  11.745 -0.0236  0.3112 -0.0179
15711PP      PP25815  10.514   2.268   3.095 -0.2163 -0.1216  0.5332
15712PP      PP25816  11.670   8.634   0.390  0.1590  0.2372  0.0558
15713PP      PP25817   2.945   7.507   7.751  0.4223  0.1430 -0.0789
15714PP      PP25818   8.625   4.269   0.708  0.0978  0.2815 -0.0143
15715PP      PP25819   8.573  10.819   9.144 -0.0912 -0.3427  0.3475
15716PP      PP25820  14.245  12.945   9.862  0.1789  0.1514  0.1595
15717PP      PP25821   3.487   5.968   1.985  0.2121  0.0811  0.2703
15718PP      PP25822  12.873   7.334  11.953  0.2975  0.1701  0.0939
15719PP      PP25823  14.738   0.160   9.505 -0.1212 -0.1358 -0.2087
15720PP      PP25824  13.372   7.284   8.756  0.2002  0.2135  0.0434
15721PP      PP25825   6.950   2.377  12.325  0.2375 -0.0479 -0.3211
15722PP      PP25826   9.883  11.849   2.764 -0.0734  0.0831  0.0725
15723PP      PP25827   8.695   4.457   2.122 -0.0950  0.0583  0.1635
15724PP      PP25828  10.717   3.051  13.385  0.0515  0.1590 -0.0823
15725PP      PP25829   1.130  10.188   4.315  0.1744 -0.0106  0.0769
15726PP      PP25830   2.817   6.783   3.073 -0.2813 -0.0340  0.1693
15727PP      PP25831   0.270  11.843   4.831 -0.3214 -0.0717  0.0143
15728PP      PP25832   5.297   1.934   1.028 -0.4431  0.0839 -0.0955
15729PP      PP25833   2.618   8.849  11.152  0.0285  0.0441 -0.0661
15730PP      PP25834   9.770  11.836  11.693  0.4100 -0.3518 -0.1109
15731PP      PP25835  10.915   6.684   3.855  0.5966 -0.1538 -0.0654
15732PP      PP25836   2.580  11.790  12.793 -0.1465  0.0907  0.2312
15733PP      PP25837  14.195  13.405   0.082 -0.1409 -0.1012  0.0406
15734PP      PP25838   1.535   3.728  12.958  0.2029 -0.0394 -0.0445
15735PP      PP25839   0.238   2.943   8.712  0.2305  0.2226  0.0413
15736PP      PP25840   1.685   8.952  11.877 -0.1082 -0.1207  0.1022
15737PP      PP25841   7.473   9.625  11.268  0.0645  0.1118 -0.2823
15738PP      PP25842   1.440   2.128   0.519  0.0660  0.1085 -0.0241
15739PP      PP25843   4.301   5.655   0.145  0.1580  0.2353 -0.0304
15740PP      PP25844   8.871   6.514  12.297 -0.0362 -0.0817  0.1087
15741PP      PP25845  14.269  12.937   0.974 -0.1654 -0.1059 -0.3438
15742PP      PP25846   7.174   3.473  10.703 -0.1085  0.1136 -0.0209
15743PP      PP25847  10.987   5.931  11.158  0.1659 -0.0650  0.2416
15744PP      PP25848   2.480   3.619   2.834 -0.1534  0.0985  0.2062
15745PP      PP25849   0.196  13.257   0.974  0.2122  0.0466 -0.3415
15746PP      PP25850  13.824  10.223   8.691 -0.3385 -0.0234  0.1752
15747PP      PP25851  12.369   0.563   8.827 -0.0299 -0.1528  0.1170
15748PP      PP25852  13.925  11.278  11.262 -0.2617 -0.1679  0.0220
15749PP      PP25853  12.586   8.237   9.141 -0.2290  0.0024  0.3763
15750PP      PP25854   1.890   3.828  11.133  0.0759  0.0146 -0.1342
15751PP      PP25855   1.545   6.004   2.684 -0.0823 -0.1390  0.1352
15752PP      PP25856   9.226  10.896   2.257 -0.1427 -0.2389  0.0204
15753PP      PP25857   1.473  13.974   2.992  0.2796 -0.0589  0.3121
15754PP      PP25858  10.016   4.941   9.714  0.0749  0.1398 -0.2546
15755PP      PP25859   2.540  11.887   3.163 -0.1220  0.0293 -0.1094
15756PP      PP25860   5.850  13.048  10.017 -0.1814 -0.4722  0.1232
15757PP      PP25861   6.785   8.124   2.084 -0.0243 -0.0378 -0.1210
15758PP      PP25862   8.065  12.748  11.763 -0.2163 -0.0864 -0.1059
15759PP      PP25863  11.191   2.949  12.628  0.1439 -0.0651  0.2532
15760PP      PP25864  14.406   2.946   9.737 -0.0767 -0.0246  0.1111
15761PP      PP25865  11.674   8.934   4.760  0.0415 -0.0092  0.1398
15762PP      PP25866   4.890   0.013   3.017  0.0956 -0.1950 -0.1627
15763PP      PP25867   1.940  13.930  11.546 -0.0342  0.4267  0.2074
15764PP      PP25868   6.533  15.346  11.804 -0.4501  0.0690 -0.0833
15765PP      PP25869  12.508  13.625   0.836  0.0771 -0.2438 -0.1094
15766PP      PP25870   8.755  10.113   2.162 -0.3750  0.2002 -0.0883
15767PP      PP25871   7.767  13.859   1.034  0.1274 -0.1600  0.2800
15768PP      PP25872  12.345  10.646   0.581  0.2345 -0.0608 -0.0287
15769PP      PP25873   3.527   0.438  12.980  0.0337 -0.0350 -0.0420
15770PP      PP25874   7.452   3.391   1.520  0.1370  0.0695  0.0815
15771PP      PP25875   7.133   8.817   0.548 -0.2098 -0.0198  0.1199
15772PP      PP25876   1.217  13.660  10.912  0.1613  0.1866  0.1223
15773PP      PP25877   2.570   3.046  12.921  0.0728 -0.0340  0.0195
15774PP      PP25878  11.155   9.013   1.200 -0.2498 -0.0767 -0.0877
15775PP      PP25879   1.060   4.876   1.371 -0.2764  0.0495 -0.1003
15776PP      PP25880  10.317  11.872  12.207  0.0213  0.0424 -0.2219
15777PP      PP25881  14.646   1.497  10.976 -0.0407 -0.6478 -0.2901
15778PP      PP25882  11.770   3.258  10.051 -0.2261  0.2130 -0.1093
15779PP      PP25883  12.996  15.447   8.576 -0.1985 -0.0787  0.1546
15780PP      PP25884   7.367   6.373   4.925 -0.0609 -0.0422  0.1211
15781PP      PP25885  12.189   9.645   0.706 -0.1569  0.0257 -0.1002
15782PP      PP25886  12.805   0.522   1.801  0.2505 -0.0015  0.2085
15783PP      PP25887   0.082   4.344   8.644 -0.3113  0.3305 -0.0134
15784PP      PP25888  13.712   5.056   2.964  0.1338  0.1943 -0.3335
15785PP      PP25889   1.390   6.928   9.265  0.1972  0.0289 -0.0307
15786PP      PP25890   2.180  12.089   8.694 -0.1492 -0.1759  0.2661
15787PP      PP25891  12.278  15.367  13.078 -0.0331  0.0673  0.1607
15788PP      PP25892   4.691   5.576   2.944  0.0882 -0.1489 -0.0228
15789PP      PP25893   3.183   0.013   8.645  0.3239 -0.1494  0.0563
15790PP      PP25894  13.378  13.758   2.196  0.2499  0.1789  0.3690
15791PP      PP25895   4.614  13.913   1.156 -0.4312  0.4152 -0.0503
15792PP      PP25896   7.944   3.357   0.794  0.2110  0.0885  0.2523
15793PP      PP25897   9.952  10.457  13.174  0.0458  0.1484 -0.0105
15794PP      PP25898  12.319  14.038  12.224  0.0668  0.0928 -0.1197
15795PP      PP25899  10.729   9.898   3.731 -0.0842  0.4337  0.2072
15796PP      PP25900   5.961   9.865  12.118 -0.2964 -0.0255  0.0401
15797PP      PP25901   5.488   1.175   1.783 -0.1461  0.1226 -0.3232
15798PP      PP25902   0.848  12.934   2.186  0.0486  0.0499  0.0971
15799PP      PP25903   0.196  15.201   1.124  0.2967 -0.0836  0.0366
15800PP      PP25904   6.956  15.143   4.255 -0.0369  0.2682 -0.2384
15801PP      PP25905  13.684  11.225  12.041  0.0696 -0.1393  0.0352
15802PP      PP25906  10.134   7.289  10.159 -0.0024  0.2497 -0.0411
15803PP      PP25907  14.314   6.708  10.449 -0.1668  0.1453  0.0648
15804PP      PP25908   2.640  15.248  12.479 -0.0190  0.1966  0.0547
15805PP      PP25909   4.744   5.034   4.594 -0.2379  0.1027  0.0266
15806PP      PP25910  12.883  11.104   9.164 -0.2351  0.2320 -0.0087
15807PP      PP25911   5.635   4.837  10.273  0.1724 -0.0076  0.3145
15808PP      PP25912  13.969  11.000  12.328 -0.0811  0.0528  0.0663
15809PP      PP25913   6.316   9.767   9.387  0.1797  0.1081 -0.2925
15810PP      PP25914   2.858  15.678   2.596 -0.0072  0.0303  0.0194
15811PP      PP25915  13.092  15.197   3.000  0.0196 -0.0912  0.0143
15812PP      PP25916   3.472   1.725   3.347  0.0347  0.2421  0.0026
15813PP      PP25917   1.623   4.710   0.466  0.2460 -0.0090  0.1610
15814PP      PP25918   6.309   4.969   2.350 -0.1165  0.4076  0.1813
15815PP      PP25919   5.457   8.454   1.459  0.0447  0.0735  0.0046
15816PP      PP25920   4.849   4.844  12.161  0.2732  0.1767 -0.1023
15817PP      PP25921  10.850   1.853   2.916 -0.0821 -0.1339 -0.1126
15818PP      PP25922   0.375  12.802   0.663 -0.0548  0.0417  0.0000
15819PP      PP25923  10.158  12.997   2.257 -0.2115 -0.2222 -0.0132
15820PP      PP25924   8.045   9.086  11.316  0.1804 -0.0548  0.1472
15821PP      PP25925  11.472  12.318   9.483 -0.0798 -0.1956 -0.0121
15822PP      PP25926   9.709  10.147   4.008 -0.0402  0.0282 -0.4247
15823PP      PP25927   8.126   3.873   9.684  0.4048  0.2793 -0.0240
15824PP      PP25928   8.215   4.861   0.682 -0.0014  0.2550  0.0175
15825PP      PP25929   5.475  15.446  10.100  0.0308 -0.0876  0.0115
15826PP      PP25930   1.000   0.236  12.431  0.0362  0.1920 -0.1004
15827PP      PP25931   5.810   4.586   9.914 -0.1090 -0.3744  0.1922
15828PP      PP25932   7.758   0.237   0.161 -0.0433  0.2465  0.3782
15829PP      PP25933   6.559   9.374  11.235 -0.0734 -0.2332 -0.0377
15830PP      PP25934   8.929  15.737   2.197  0.1950  0.0609 -0.1289
15831PP      PP25935   2.160   0.999   1.257 -0.2963 -0.4188 -0.0375
15832PP      PP25936   9.556  10.539   1.911  0.1248 -0.0055  0.1714
15833PP      PP25937  10.260   6.280  11.717 -0.1819 -0.1389  0.3546
15834PP      PP25938   1.407   1.272   1.755  0.1538  0.0138  0.3612
15835PP      PP25939   5.828  14.610   1.646  0.3035 -0.0586  0.1331
15836PP      PP25940   7.371   3.722   0.372  0.0345 -0.1437  0.1769
15837PP      PP25941   3.946   3.016   1.848  0.0682  0.2072  0.0405
15838PP      PP25942   6.738   2.699   1.199 -0.0577 -0.0571  0.1815
15839PP      PP25943  12.754  15.684   1.921  0.2006  0.0482 -0.1908
15840PP      PP25944  10.396  14.355   2.021 -0.0713 -0.1713  0.1555
15841PP      PP25945  11.036   9.083   9.844  0.0599  0.1894  0.1034
15842PP      PP25946   0.033   0.386  12.435 -0.1539  0.0235 -0.3429
15843PP      PP25947  12.492  14.700  11.446  0.2576 -0.2168 -0.0803
15844PP      PP25948  15.744   5.961  12.478  0.1760 -0.0916 -0.0469
15845PP      PP25949   1.262   6.915  10.481  0.0944  0.0636 -0.0393
15846PP      PP25950  10.175  11.822   1.978 -0.0901  0.0509  0.1564
15847PP      PP25951   7.285   5.028   1.763  0.3285  0.0114 -0.2945
15848PP      PP25952   5.913   6.061  11.995 -0.1480 -0.0738 -0.1219
15849PP      PP25953  13.842   1.600   2.026  0.2020 -0.0883 -0.0713
15850PP      PP25954  11.114  14.754   0.723  0.2336 -0.3151  0.1695
15851PP      PP25955   9.070  14.953  12.974  0.1442  0.1148 -0.3182
15852PP      PP25956   9.455   9.032  10.763  0.0924 -0.0296 -0.0218
15853PP      PP25957  13.352   3.400   2.540  0.4099 -0.3365  0.0073
15854PP      PP25958  11.544  15.163   1.214  0.2584 -0.0866  0.3176
15855PP      PP25959  14.372   9.749   2.194 -0.2600 -0.2195  0.2539
15856PP      PP25960  13.246  12.581   3.782 -0.2343 -0.1688 -0.0053
15857PP      PP25961   9.016   5.702  10.625  0.0058 -0.0337  0.3238
15858PP      PP25962   3.548   3.315   1.924  0.0643 -0.1528  0.2960
15859PP      PP25963   1.676  14.194  10.106 -0.0206  0.0626 -0.1652
15860PP      PP25964   6.926   6.555   3.443 -0.3061 -0.1259  0.0929
15861PP      PP25965  10.759   3.058  12.815  0.1344  0.2487 -0.0210
15862PP      PP25966   3.330   8.723  12.102 -0.2527 -0.0807  0.1009
15863PP      PP25967   7.337  12.601  12.297  0.0968 -0.1582 -0.0761
15864PP      PP25968   2.161   1.621   0.364 -0.1296 -0.0757 -0.1124
15865PP      PP25969   3.203   1.595  11.769  0.0532 -0.2136  0.1113
15866PP      PP25970   4.632   5.093   9.781  0.1481  0.1788 -0.0045
15867PP      PP25971   4.977  15.067   1.729 -0.0514 -0.0488 -0.1263
15868PP      PP25972   0.689   1.197  11.292 -0.2069 -0.2660  0.1246
15869PP      PP25973  13.983   9.480  10.426 -0.0733  0.3013  0.1686
15870PP      PP25974   7.278   0.212   1.859  0.1925 -0.1190  0.3561
15871PP      PP25975   2.253   0.190   3.080 -0.1035  0.1603  0.2056
15872PP      PP25976   4.687   0.077   1.443  0.2257  0.1210 -0.0112
15873PP      PP25977   1.363  13.463  11.983 -0.0970  0.0653 -0.2383
15874PP      PP25978   3.867   6.424   2.080 -0.2110  0.3438 -0.0105
15875PP      PP25979   8.080   4.330   3.569  0.1627  0.3314 -0.2274
15876PP      PP25980   7.347   9.611  10.474 -0.1432  0.6377  0.2955
15877PP      PP25981   4.801  13.952   0.210 -0.2600 -0.0588  0.0806
15878PP      PP25982  10.960  14.266   9.668 -0.0187 -0.0812 -0.0540
15879PP      PP25983   9.297   0.504   2.836 -0.2895 -0.1162  0.2223
15880PP      PP25984   5.957  12.189   9.930  0.1989 -0.1858  0.1743
15881PP      PP25985   8.438   6.531   9.548 -0.1031 -0.1871 -0.1753
15882PP      PP25986   7.967   3.097  10.500  0.0057 -0.0860  0.0461
15883PP      PP25987  15.452   2.419  11.986 -0.1100  0.1700  0.2458
15884PP      PP25988   8.319   2.555  12.949 -0.0988 -0.1463 -0.2407
15885PP      PP25989  10.279  11.096   5.495  0.0873  0.1553 -0.0321
15886PP      PP25990  13.037   2.985  12.170  0.0186 -0.0818  0.1925
15887PP      PP25991  10.941   9.405  12.764 -0.0450 -0.0141 -0.1068
15888PP      PP25992   5.260  14.803   9.694  0.0230 -0.0540  0.0200
15889PP      PP25993  14.517  12.045  10.728  0.0783  0.2624 -0.0213
15890PP      PP25994   0.595   5.967  13.234  0.2872  0.0014  0.1590
15891PP      PP25995   9.430   8.694  11.210  0.0197  0.3116 -0.3622
15892PP      PP25996  13.461   9.210   3.784 -0.0812  0.1025 -0.2460
15893PP      PP25997   8.958   8.125  11.686  0.0408 -0.0301  0.1246
15894PP      PP25998  11.260  11.517   3.155 -0.0072  0.1661  0.1428
15895PP      PP25999   3.055  10.114   0.082 -0.1142 -0.1370  0.0032
15896PP      PP26000   2.824  10.619   2.374 -0.1067  0.1682  0.1108
15897PP      PP26001   6.664   1.319   8.804  0.0280 -0.2202  0.0034
15898PP      PP26002   2.995   9.606   1.624  0.2723  0.2790  0.3188
15899PP      PP26003   5.176  13.586   2.554 -0.0750  0.1309  0.1176
15900PP      PP26004   7.831  15.612   3.072  0.1818 -0.1026  0.4134
15901PP      PP26005  14.093   7.001  11.645 -0.0179  0.4001 -0.2399
15902PP      PP26006   1.874   5.484   1.414 -0.2534 -0.2733 -0.0165
15903PP      PP26007   7.482  12.274  13.378 -0.4661  0.2572 -0.2570
15904PP      PP26008   8.280   2.459   2.146 -0.0170 -0.0385  0.2881
15905PP      PP26009   7.117   4.197   3.084  0.2318  0.0477  0.0639
15906PP      PP26010  11.537   7.743   9.636 -0.0227 -0.0436 -0.1459
15907PP      PP26011   5.881   7.478  11.940 -0.1536  0.0207 -0.0460
15908PP      PP26012   1.814  13.078   2.417  0.2572 -0.2813  0.1497
15909PP      PP26013  13.528   1.752   9.337 -0.2809 -0.0656  0.1614
15910PP      PP26014  11.441   8.955   3.974  0.0886  0.1478  0.0937
15911PP      PP26015  13.311  10.240  12.391  0.4748  0.0232 -0.0421
15912PP      PP26016  13.078   5.082   1.804 -0.0463  0.0732  0.1558
15913PP      PP26017   1.200  12.299   4.338  0.2808 -0.0331 -0.1150
15914PP      PP26018   4.630  10.795   3.890 -0.1503 -0.0494 -0.1485
15915PP      PP26019   2.259   4.365   9.911 -0.1356  0.0993  0.0363
15916PP      PP26020  13.418   3.282  11.874 -0.0553  0.0885 -0.0647
15917PP      PP26021   5.609  11.331   0.128  0.2853  0.0469 -0.0255
15918PP      PP26022   2.866  14.043   0.848 -0.0812  0.2626 -0.0657
15919PP      PP26023  15.542   2.617   2.474 -0.6401  0.1207 -0.0880
15920PP      PP26024   3.444   8.035   0.980 -0.0582  0.3043 -0.5839
15921PP      PP26025  11.447   7.862   3.183  0.0362 -0.0679  0.3284
15922PP      PP26026  12.637   1.236  11.946  0.3505  0.0424 -0.2859
15923PP      PP26027   5.878   6.541   3.812 -0.3771  0.0465 -0.1018
15924PP      PP26028   0.145  12.602   1.165  0.1905 -0.0873 -0.1504
15925PP      PP26029   4.632   3.884  10.985 -0.1318  0.1410  0.0485
15926PP      PP26030  13.752   6.935   3.759  0.1372  0.1486  0.1595
15927PP      PP26031   8.074  12.694  12.279 -0.1088  0.1096 -0.0436
15928PP      PP26032   8.609  11.204   3.563 -0.1036 -0.0610  0.2403
15929PP      PP26033  10.361   9.707   4.028 -0.2826  0.2017  0.0371
15930PP      PP26034  12.008  14.353   0.200  0.0031 -0.2049  0.0619
15931PP      PP26035  15.558   2.196   8.218 -0.0601  0.1006  0.0262
15932PP      PP26036  14.362  13.833  12.596 -0.3338 -0.1071 -0.0808
15933PP      PP26037  14.549   2.522   3.869  0.0726 -0.1699  0.1424
15934PP      PP26038  12.787   6.936   9.203  0.3057 -0.0606  0.3303
15935PP      PP26039   3.208   2.054   8.614  0.0924 -0.2384 -0.1302
15936PP      PP26040   2.283  12.589   0.565  0.0922  0.2405  0.0139
15937PP      PP26041  14.639  12.141   3.261  0.0760 -0.3029  0.0982
15938PP      PP26042   9.419   7.917  11.734 -0.0348  0.1649 -0.0995
15939PP      PP26043   6.830  14.641   2.569  0.1645  0.0898 -0.1555
15940PP      PP26044   2.331   2.858   8.256 -0.0350  0.0456 -0.1889
15941PP      PP26045  13.230  11.538   3.662 -0.0397 -0.0096  0.0348
15942PP      PP26046   5.026   8.999   9.832  0.0156  0.0155 -0.0153
15943PP      PP26047  12.405   6.739   0.220 -0.0595  0.0404 -0.3501
15944PP      PP26048  10.694   4.695   9.323 -0.0816 -0.0437 -0.1797
15945PP      PP26049   7.658   2.179   0.754 -0.0618 -0.0455 -0.0546
15946PP      PP26050  14.123   5.007  13.457 -0.1197  0.0269 -0.3625
15947PP      PP26051   6.972  11.811   0.528  0.0828  0.0518 -0.0060
15948PP      PP26052   7.473   4.590  12.685  0.1985  0.0112 -0.1185
15949PP      PP26053  13.827   2.553  11.626  0.1818  0.2170 -0.1257
15950PP      PP26054  10.443   4.879   8.891 -0.1979  0.3040 -0.0469
15951PP      PP26055   7.071   3.925  10.105  0.1161 -0.2501 -0.2326
15952PP      PP26056   2.535   3.899   0.875 -0.0617 -0.1072  0.2592
15953PP      PP26057  12.637   7.533  10.981  0.1828 -0.0507  0.2826
15954PP      PP26058  15.541  15.786   1.387 -0.1363  0.2062  0.5191
15955PP      PP26059   5.741  15.479   3.539 -0.0983 -0.0488  0.1654
15956PP      PP26060   3.679   6.190  11.953 -0.4458 -0.1425 -0.3288
15957PP      PP26061  11.544   9.705   2.628  0.1852 -0.0428 -0.0292
15958PP      PP26062   3.012   3.728   0.218  0.1676  0.1125 -0.0501
15959PP      PP26063   7.828   3.895   9.298  0.1503  0.0671  0.1034
15960PP      PP26064  15.765   8.386   2.334 -0.1005  0.2672  0.2214
15961PP      PP26065   0.396   3.997  11.591  0.1029 -0.0882 -0.0643
15962PP      PP26066   4.768   9.456   9.318 -0.0401 -0.1370  0.1751
15963PP      PP26067   2.645   1.745   7.361  0.0969 -0.3436 -0.2704
15964PP      PP26068  12.562   1.401   0.782 -0.0428  0.4106 -0.1025
15965PP      PP26069   1.356   0.365  11.245 -0.2399 -0.1926  0.2433
15966PP      PP26070   7.351   8.562   4.628 -0.0714  0.0733  0.2808
15967PP      PP26071   3.345   7.573   1.899  0.1226  0.1147 -0.0856
15968PP      PP26072   6.134   1.647   3.527  0.0982 -0.0465  0.0817
15969PP      PP26073  15.427   6.685   1.026  0.0365  0.0644  0.0186
15970PP      PP26074   4.637   4.353  11.054 -0.2219  0.0691  0.1084
15971PP      PP26075  14.846  13.214   0.925 -0.3475 -0.1248  0.1397
15972PP      PP26076   8.933  12.424   4.110  0.0136 -0.0121 -0.0623
15973PP      PP26077   4.206   9.030   1.003 -0.2755  0.2343 -0.0562
15974PP      PP26078  15.141   3.794  13.076  0.0153  0.0053  0.0067
15975PP      PP26079  11.704   7.287   2.721  0.3862  0.1631  0.0835
15976PP      PP26080  11.354  13.925  12.913  0.2071  0.0178 -0.3673
15977PP      PP26081   1.206   6.385   9.783  0.0858 -0.0455 -0.1474
15978PP      PP26082   7.315   2.024   4.089 -0.1362  0.1923  0.0978
15979PP      PP26083   5.593   7.009   9.677  0.3033 -0.0691  0.2281
15980PP      PP26084   3.359  13.732   0.728  0.2624  0.1502 -0.2028
15981PP      PP26085  10.763   7.706   9.304 -0.0786 -0.2925  0.1699
15982PP      PP26086   2.767   8.976  12.688  0.0919  0.0823  0.0296
15983PP      PP26087   0.528   2.254  12.971 -0.0337 -0.1735  0.0905
15984PP      PP26088   3.426   9.637  12.885 -0.0818  0.0933 -0.1887
15985PP      PP26089   7.724   4.600   0.445 -0.0783  0.0283 -0.0511
15986PP      PP26090   1.198   0.453   8.633 -0.0458 -0.0872  0.0521
15987PP      PP26091  11.430  10.864   8.963  0.2932  0.2041 -0.2009
15988PP      PP26092  10.285   8.001  12.391 -0.0956 -0.3254  0.1218
15989PP      PP26093   5.829   4.641   4.254 -0.0336  0.0642 -0.1749
15990PP      PP26094  12.296  14.236   9.918 -0.1900 -0.0885 -0.0415
15991PP      PP26095   3.267  15.537   3.313  0.0754  0.2914  0.0239
15992PP      PP26096  11.448   1.814  12.406 -0.3379  0.1227 -0.0688
15993PP      PP26097  14.603   1.761  12.898 -0.0829  0.2306  0.3236
15994PP      PP26098   5.635   5.160   0.822 -0.1128 -0.2340 -0.0484
15995PP      PP26099  10.340   3.927   8.448 -0.0959 -0.3303  0.0034
15996PP      PP26100   0.967  13.986   0.647  0.1607  0.2195 -0.0124
15997PP      PP26101   1.922   2.692   9.030 -0.2854 -0.2169  0.0517
15998PP      PP26102   3.397   6.823   9.232 -0.0352  0.3616 -0.1756
15999PP      PP26103   5.249  14.511  12.133 -0.0403  0.1857  0.0870
16000PP      PP26104  15.138  15.252  10.901  0.1341 -0.1508  0.1994
16001PP      PP26105  14.387  15.777  10.399 -0.3266  0.2185 -0.2678
16002PP      PP26106  15.638  11.882  11.908 -0.0643 -0.1831 -0.2048
16003PP      PP26107   1.355   4.974   3.545 -0.0144 -0.0582  0.1464
16004PP      PP26108   4.278   3.885   4.141 -0.2859  0.1986  0.0048
16005PP      PP26109   6.604   6.922   3.266  0.0497 -0.0060  0.1043
16006PP      PP26110   5.032   6.539  10.103  0.1024 -0.1294  0.2102
16007PP      PP26111   6.892  12.766   0.278  0.1267  0.0897 -0.4094
16008PP      PP26112  15.110  14.817  12.569 -0.2513  0.1307  0.2317
16009PP      PP26113  14.484   5.953   9.929  0.0003 -0.0066  0.0033
16010PP      PP26114   9.071   3.419  12.592 -0.0056 -0.1174 -0.0734
16011PP      PP26115   3.331   1.559   0.617  0.3194  0.1786  0.1560
16012PP      PP26116  15.480   9.295  13.099  0.0429 -0.1807 -0.0718
16013PP      PP26117   2.189   5.466  12.053 -0.1065  0.0530 -0.0038
16014PP      PP26118  12.561  12.184   3.216  0.0894  0.0616 -0.1646
16015PP      PP26119   7.081  12.778   5.109 -0.1062  0.1475 -0.0356
16016PP      PP26120  13.428   3.018   0.610  0.2222 -0.1477 -0.0302
16017PP      PP26121   5.369  15.783   3.904 -0.3356  0.2107 -0.1472
16018PP      PP26122   5.555  14.826  13.392  0.1868  0.1082 -0.1153
16019PP      PP26123  10.474  11.405   1.251 -0.2313  0.0117  0.1489
16020PP      PP26124   6.930   2.460   3.891 -0.1859 -0.1074 -0.1353
16021PP      PP26125   0.187   2.772   8.183  0.0482  0.0238  0.1090
16022PP      PP26126  10.113   4.849  11.558  0.0438  0.2758 -0.2049
16023PP      PP26127  12.248  11.972  10.061  0.1391  0.2858 -0.0943
16024PP      PP26128  12.152   3.957   9.523  0.0877  0.2707 -0.4631
16025PP      PP26129  13.398   9.008   4.266 -0.0250  0.0798  0.3314
16026PP      PP26130  14.995  11.829   3.396 -0.0523 -0.1626  0.2984
16027PP      PP26131   2.705  13.126  11.659 -0.0918  0.3414  0.1884
16028PP      PP26132   6.167  10.601  13.196 -0.1470  0.0806 -0.0729
16029PP      PP26133   1.414   7.576  12.876 -0.1183  0.3866  0.0752
16030PP      PP26134   2.562   9.163   5.326  0.1048 -0.0569 -0.0992
16031PP      PP26135   6.501   9.350   1.300 -0.2013  0.1300  0.0793
16032PP      PP26136   0.518   3.141   2.047 -0.1649 -0.0339 -0.2550
16033PP      PP26137   7.061   8.681   0.066 -0.2710 -0.1149  0.1002
16034PP      PP26138   5.843  14.474   2.833  0.0439  0.3267  0.1507
16035PP      PP26139   1.977   9.441   2.875 -0.1205 -0.2391  0.2704
16036PP      PP26140  10.993  10.588   2.938 -0.0461 -0.0443 -0.1689
16037PP      PP26141   7.855   8.540   1.609  0.0436  0.0092  0.2318
16038PP      PP26142   9.529   9.365   3.702  0.0622 -0.0314  0.0324
16039PP      PP26143  15.896   4.911   3.977  0.2488  0.2967  0.2414
16040PP      PP26144   1.944   2.561   0.060 -0.2261  0.2479 -0.0064
16041PP      PP26145   7.591  10.836   3.582  0.2055 -0.1127  0.0443
16042PP      PP26146   5.314  14.635  10.750  0.1111  0.0724 -0.1283
16043PP      PP26147   9.729  13.182   1.876  0.1311  0.2622  0.3110
16044PP      PP26148   2.337   3.311   2.434  0.1801 -0.3126  0.0814
16045PP      PP26149  14.914   3.902   9.959  0.1023 -0.0579 -0.2658
16046PP      PP26150  13.681  14.807   3.609  0.2751 -0.1792  0.5106
16047PP      PP26151  10.416   6.754   3.855 -0.2155 -0.1796  0.0156
16048PP      PP26152  10.215  11.395   1.647 -0.1535 -0.0743 -0.0827
16049PP      PP26153  11.525   7.526   0.615 -0.2929 -0.0311 -0.1004
16050PP      PP26154   6.987  15.422  11.489 -0.0887 -0.1662 -0.3532
16051PP      PP26155   0.414  12.333   0.207  0.0954  0.1945  0.2405
16052PP      PP26156  12.428   7.133   0.749  0.2058 -0.2386 -0.0326
16053PP      PP26157  15.637  11.576   2.062 -0.0563  0.1765 -0.1149
16054PP      PP26158   6.449   8.100   4.322  0.3642 -0.2482 -0.1732
16055PP      PP26159   2.877  11.689  11.164 -0.3941  0.0467  0.2277
16056PP      PP26160  13.094   5.916   3.638  0.2234  0.1319  0.1872
16057PP      PP26161   4.972   5.290  12.049  0.1176  0.1517 -0.1591
16058PP      PP26162   6.407   8.087   0.506 -0.2565  0.0407  0.1179
16059PP      PP26163   2.140  10.422  13.237 -0.0538 -0.0092 -0.0375
16060PP      PP26164  13.920  12.975  10.372 -0.1132 -0.0842 -0.2223
16061PP      PP26165  14.873   0.059   1.730  0.0897  0.1254 -0.2941
16062PP      PP26166   9.255   5.398  10.983  0.3461 -0.2611 -0.1015
16063PP      PP26167   8.059  15.158  10.083  0.1305  0.0513 -0.1132
16064PP      PP26168  10.262   5.618   8.927 -0.2453  0.1198  0.0645
16065PP      PP26169   9.054   0.677   3.833  0.0196  0.4370  0.1144
16066PP      PP26170  10.696  13.969   8.570 -0.0565 -0.1193 -0.2312
16067PP      PP26171   3.285  12.174  10.377  0.1715 -0.2110 -0.1633
16068PP      PP26172   0.773  12.620   3.172  0.2651  0.0466 -0.1847
16069PP      PP26173   1.934   1.148  12.749 -0.2261 -0.0876  0.1606
16070PP      PP26174   1.142  14.999   8.936 -0.1465 -0.0205 -0.2792
16071PP      PP26175  11.923  15.771  12.329 -0.0033 -0.0996  0.0127
16072PP      PP26176  13.332   8.672  12.285 -0.0033  0.3599  0.0366
16073PP      PP26177  10.460   1.411  11.756 -0.1462 -0.0727 -0.1354
16074PP      PP26178   6.110   5.602   4.625 -0.0418 -0.0306 -0.0705
16075PP      PP26179   0.333   8.756  10.002 -0.1715  0.2446 -0.0235
16076PP      PP26180   5.317   6.732  13.252 -0.0284 -0.0626 -0.1635
16077PP      PP26181  13.050   9.173  10.071 -0.2308 -0.2209 -0.0091
16078PP      PP26182  12.811  14.213  12.562  0.3553 -0.2418 -0.4106
16079PP      PP26183  11.356  11.921  10.012 -0.0269  0.0245  0.0959
16080PP      PP26184  13.645   0.264   3.809 -0.0654 -0.0528 -0.2658
16081PP      PP26185   4.896   7.965   0.902  0.0115  0.1548  0.0615
16082PP      PP26186   2.881  13.410   0.666  0.2978  0.1024  0.0650
16083PP      PP26187   1.236   7.231  13.293 -0.1558  0.0162  0.0144
16084PP      PP26188   6.598   7.600  10.753 -0.1760 -0.1807  0.1207
16085PP      PP26189  10.467   1.854   3.444 -0.4278  0.1893  0.1433
16086PP      PP26190   3.526   9.151  12.027 -0.0051 -0.2738 -0.0608
16087PP      PP26191   7.750   7.932   4.061  0.2531 -0.0032 -0.0623
16088PP      PP26192   3.090   6.503  12.192  0.1471  0.1305 -0.2495
16089PP      PP26193  15.899  13.377  11.719  0.2336 -0.1632 -0.0877
16090PP      PP26194  12.483   3.949   0.432 -0.1293  0.2994 -0.1823
16091PP      PP26195   1.536   7.720   0.347 -0.0141  0.0437 -0.0053
16092PP      PP26196   6.880  14.719  12.700  0.1161 -0.1172 -0.0610
16093PP      PP26197  14.750   9.328   4.695 -0.1632  0.0723  0.0568
16094PP      PP26198   2.922   5.268   0.244 -0.0505  0.0002  0.1508
16095PP      PP26199  13.306   1.408  10.813  0.2415 -0.0870 -0.1890
16096PP      PP26200   0.570   8.893   3.643  0.1100 -0.0228 -0.2981
16097PP      PP26201   1.728  10.275   0.227  0.1766  0.1745  0.1598
16098PP      PP26202   8.473  13.901   3.802 -0.2576  0.0265 -0.3689
16099PP      PP26203   6.932   7.164   1.797 -0.1655 -0.0587 -0.1372
16100PP      PP26204   0.811   9.342   1.258  0.0164  0.0665  0.1998
16101PP      PP26205   0.522   8.201  10.661  0.2941  0.2354  0.2550
16102PP      PP26206  12.827   0.782   8.110  0.2048 -0.2072 -0.0935
16103PP      PP26207   3.992  13.740  10.747 -0.0138  0.0254 -0.2160
16104PP      PP26208   7.634  12.003   5.333  0.1330  0.0691  0.0758
16105PP      PP26209   8.566  15.440   3.859  0.2918  0.0587 -0.4263
16106PP      PP26210  12.822   1.395   1.217  0.1145  0.1752  0.1897
16107PP      PP26211  13.171   6.018   0.340 -0.2516  0.2334  0.1914
16108PP      PP26212   0.243  15.312   0.071  0.0601 -0.3273 -0.3697
16109PP      PP26213   0.354  13.480   0.040 -0.1302  0.0839 -0.0765
16110PP      PP26214   0.577  13.947   1.741 -0.2610 -0.1204 -0.2848
16111PP      PP26215  11.775  11.366   9.438  0.2742  0.0960  0.2158
16112PP      PP26216  12.072  11.666   2.616  0.0096 -0.1606 -0.1820
16113PP      PP26217  10.438  14.961  13.219  0.0739  0.3220 -0.0264
16114PP      PP26218   1.817   6.405   1.021  0.2723 -0.0163  0.1965
16115PP      PP26219  14.267  15.064   1.411  0.0846  0.1718  0.0703
16116PP      PP26220  14.016  14.849  10.888 -0.0512 -0.0962  0.2380
16117PP      PP26221   4.671   4.828   1.854  0.1416  0.0373 -0.0732
16118PP      PP26222   3.253   1.624   0.064  0.0967  0.2847 -0.0720
16119PP      PP26223   8.321   0.542   9.403 -0.2950  0.0081  0.1175
16120PP      PP26224   5.399   2.947   2.396  0.1043  0.0846  0.0116
16121PP      PP26225   8.727   8.614   3.217 -0.0507 -0.3039  0.0063
16122PP      PP26226   3.526   9.726   0.792  0.1647 -0.2005 -0.0686
16123PP      PP26227   8.930   9.967  11.646 -0.1131  0.0219  0.4367
16124PP      PP26228  11.460   4.256  12.646 -0.3174  0.1072 -0.3584
16125PP      PP26229  10.073  14.635  11.090  0.0259 -0.0454  0.2718
16126PP      PP26230   8.702  11.183  10.975  0.0055  0.0604  0.1881
16127PP      PP26231  14.800   4.444  10.966 -0.1248  0.0652 -0.0272
16128PP      PP26232   7.362  11.139   0.439 -0.4134 -0.1077  0.4483
16129PP      PP26233   6.891   8.377   4.674  0.1750 -0.2873 -0.2594
16130PP      PP26234  11.677   1.801  11.920  0.1138 -0.3674 -0.1596
16131PP      PP26235  15.002   9.729  13.026 -0.0908 -0.6238  0.1025
16132PP      PP26236   6.203   5.211  11.030 -0.3439  0.2067 -0.0897
16133PP      PP26237  14.469  14.804  12.688 -0.1349 -0.1725 -0.0226
16134PP      PP26238   4.629  11.603   3.360 -0.2779  0.1776 -0.1427
16135PP      PP26239   3.424  13.579  10.002  0.1304  0.2775  0.3757
16136PP      PP26240   3.827  15.651  11.816  0.0011 -0.0573 -0.1116
16137PP      PP26241   0.553  12.942   4.225  0.1576 -0.3928 -0.0002
16138PP      PP26242   9.431   2.454  10.038 -0.1651 -0.0430  0.0661
16139PP      PP26243  14.160  13.759   3.276 -0.1752 -0.1629  0.2139
16140PP      PP26244  10.537  15.309   2.025  0.0224 -0.0443  0.0337
16141PP      PP26245  11.619   1.764   0.302 -0.0509 -0.1135 -0.1536
16142PP      PP26246   6.785  12.600  10.815 -0.1478 -0.1538  0.0355
16143PP      PP26247  10.700  13.820   0.730 -0.2790 -0.0101 -0.0761
16144PP      PP26248   9.536  14.704   9.642 -0.1626 -0.0255  0.0917
16145PP      PP26249   6.039   7.826   3.812 -0.0184  0.2772  0.2036
16146PP      PP26250  11.603   2.614  11.757 -0.1293 -0.0118  0.1823
16147PP      PP26251  14.574   7.089  11.246 -0.2193 -0.2654 -0.0658
16148PP      PP26252   6.799   3.775  12.316  0.0215 -0.2030 -0.0848
16149PP      PP26253  15.335  15.000   3.301 -0.1228  0.1043  0.1932
16150PP      PP26254   4.010   4.568  13.355 -0.0607  0.0944 -0.1351
16151PP      PP26255   9.480   1.989   8.566  0.1113  0.1855 -0.2127
16152PP      PP26256   7.088  13.645   1.763  0.0793 -0.1820  0.0102
16153PP      PP26257   4.244   3.349   4.313  0.1208  0.3965  0.1408
16154PP      PP26258  11.781   6.393   2.957 -0.3699 -0.1090 -0.1122
16155PP      PP26259  13.799   3.055   2.476  0.1880 -0.5164  0.0984
16156PP      PP26260  14.096   1.987  13.377  0.0499 -0.1487  0.0699
16157PP      PP26261   5.890  12.576   9.557 -0.0029 -0.1625 -0.0039
16158PP      PP26262   8.628   3.940  10.555 -0.1871 -0.2201 -0.2521
16159PP      PP26263  13.035   5.609   8.476  0.2246 -0.0896  0.2879
16160PP      PP26264   9.751   2.156  10.429 -0.0177 -0.2897  0.1314
16161PP      PP26265  12.585   2.929   9.185 -0.3449  0.2116  0.2826
16162PP      PP26266   3.338   1.982   1.069  0.0712  0.2685 -0.0315
16163PP      PP26267  13.202   6.154  13.247 -0.1926  0.3737 -0.2023
16164PP      PP26268  12.562   4.282   9.820 -0.0274 -0.0881  0.2011
16165PP      PP26269   1.249   2.171  11.243 -0.0556 -0.1026 -0.1805
16166PP      PP26270   5.802   1.533  12.349  0.1111 -0.0247 -0.0318
16167PP      PP26271  15.443  15.153   0.694 -0.1818  0.0268  0.5675
16168PP      PP26272  10.813   4.906   0.062 -0.0275 -0.0024 -0.1516
16169PP      PP26273  10.002  10.320   4.513 -0.0645 -0.1528  0.1157
16170PP      PP26274   8.582   7.245   2.517  0.3994 -0.0170 -0.2367
16171PP      PP26275   3.676  11.673  12.517 -0.1683  0.1454 -0.0072
16172PP      PP26276   5.176  15.631   9.094 -0.2184  0.2176 -0.0513
16173PP      PP26277  14.681   2.892   8.862 -0.3039  0.2394  0.0366
16174PP      PP26278   4.880  12.824  11.792  0.0673 -0.1921 -0.0571
16175PP      PP26279   1.939  12.328   1.629 -0.2695  0.0074  0.2259
16176PP      PP26280   2.138  13.817   3.450  0.0465  0.0902 -0.0081
16177PP      PP26281   0.865   1.086   1.525  0.1701 -0.1026 -0.1839
16178PP      PP26282   7.078   9.372   0.491  0.0436  0.0628  0.0520
16179PP      PP26283   6.575   1.218  12.487  0.2809 -0.0255  0.1283
16180PP      PP26284  15.892   6.881   4.159 -0.0800 -0.3702 -0.4282
16181PP      PP26285  11.929  14.231  13.112 -0.1504 -0.2647 -0.0772
16182PP      PP26286  13.109   6.268   3.303 -0.1031 -0.1896 -0.2216
16183PP      PP26287  13.860  15.253   8.944  0.0474  0.1623  0.0481
16184PP      PP26288   6.080   1.371   0.699  0.3545  0.0052 -0.0805
16185PP      PP26289  15.525  14.516  10.390  0.0977 -0.1554  0.2073
16186PP      PP26290   7.139   1.658  10.257  0.3178  0.3750 -0.3721
16187PP      PP26291   5.369   1.826  13.050  0.0548 -0.2619 -0.1979
16188PP      PP26292  15.653  11.110  13.114  0.1354 -0.0858 -0.0434
16189PP      PP26293   3.329   1.654  13.002  0.0947 -0.2585 -0.0512
16190PP      PP26294   1.657   1.625   2.673 -0.0242  0.0215 -0.2858
16191PP      PP26295   2.341   0.458   0.590 -0.0841  0.2087 -0.0007
16192PP      PP26296   6.633   5.843   1.491 -0.0536  0.0536 -0.0593
16193PP      PP26297   0.070  15.789  12.552 -0.1203  0.4700 -0.0508
16194PP      PP26298   4.762  14.185  10.527  0.0774 -0.1813  0.0748
16195PP      PP26299   4.806   6.070  13.203  0.2569 -0.4226 -0.0761
16196PP      PP26300   6.781   5.444   0.315  0.0334 -0.0315 -0.0876
16197PP      PP26301   1.311   7.413   3.136  0.3168 -0.1298 -0.0561
16198PP      PP26302   5.121   2.829   1.434 -0.0295  0.0265  0.3195
16199PP      PP26303   2.139  11.981   1.220  0.1302  0.1766 -0.2665
16200PP      PP26304   1.242  10.304   3.768 -0.1563 -0.2364 -0.0373
16201PP      PP26305   6.996   6.714   2.982  0.3201  0.1280 -0.2852
16202PP      PP26306   0.579  10.728   0.655  0.0385 -0.0616  0.3900
16203PP      PP26307  12.748   4.733   1.992  0.0754 -0.1904  0.0913
16204PP      PP26308  15.341   6.519   1.520  0.2277 -0.1138 -0.2357
16205PP      PP26309  13.628   8.266   1.516  0.0522 -0.1815 -0.1673
16206PP      PP26310   7.451  10.191  12.027 -0.3685  0.1129 -0.0660
16207PP      PP26311   1.084  11.897   2.583  0.1455 -0.1504  0.1997
16208PP      PP26312   1.746  10.996  11.330  0.0842  0.1600 -0.0994
16209PP      PP26313   8.079  13.848  10.440  0.0468  0.2120  0.1765
16210PP      PP26314  13.858   9.012   9.028 -0.3251 -0.0437  0.0234
16211PP      PP26315   7.890  13.939   2.033 -0.0302  0.0839 -0.2049
16212PP      PP26316   9.778  13.799  12.009 -0.0611 -0.0777  0.3317
16213PP      PP26317  11.208  14.555  12.521  0.2245  0.1293  0.0081
16214PP      PP26318   3.105   4.359  11.114 -0.0321 -0.0626 -0.2824
16215PP      PP26319  10.149   5.968   1.308 -0.1263  0.1609 -0.1682
16216PP      PP26320   7.702   4.141  12.207 -0.0104 -0.1185  0.2706
16217PP      PP26321   2.429   6.235   3.589 -0.0091  0.1240 -0.4001
16218PP      PP26322   8.051  14.902   0.487  0.1922 -0.0534  0.3063
16219PP      PP26323   8.843  13.494   0.603 -0.0964 -0.1857 -0.1692
16220PP      PP26324  13.442   7.282   3.426 -0.0797 -0.0714 -0.5623
16221PP      PP26325   1.285   6.137   4.260 -0.1552 -0.2484  0.1290
16222PP      PP26326   9.166   8.216   1.467  0.1308  0.1065 -0.0250
16223PP      PP26327   5.160  10.406   1.451 -0.1777  0.2833 -0.0613
16224PP      PP26328   1.161   6.170  12.604  0.0581  0.1679  0.4075
16225PP      PP26329   0.599  15.637   9.026 -0.0943  0.2146 -0.2590
16226PP      PP26330   6.596   7.049   2.673  0.3115  0.3596 -0.1931
16227PP      PP26331  13.606   9.886  10.633  0.0667 -0.0115 -0.3510
16228PP      PP26332  14.760   0.107  13.034  0.1342 -0.1563  0.3104
16229PP      PP26333   1.336   5.307  10.796 -0.1101  0.0402  0.1147
16230PP      PP26334  13.755   5.742   1.286 -0.2147  0.0666  0.1635
16231PP      PP26335   2.287   6.279   4.082 -0.1636  0.1687  0.0287
16232PP      PP26336   5.119   9.015   0.850 -0.0808 -0.1699 -0.0333
16233PP      PP26337   8.507   2.649   1.198  0.0743 -0.0397 -0.1570
16234PP      PP26338   7.223   4.343   4.256  0.1519 -0.0130  0.0177
16235PP      PP26339  11.751   2.334  10.777  0.1337  0.1760 -0.1644
16236PP      PP26340   4.272   5.956  12.853 -0.1521  0.1986  0.1419
16237PP      PP26341  13.828   4.660   9.165  0.3255 -0.2562 -0.0891
16238PP      PP26342  11.727  13.159   2.719  0.2874  0.1650  0.3449
16239PP      PP26343   3.423   3.564   1.481 -0.0229  0.0841  0.0624
16240PP      PP26344   8.129  10.649   0.319  0.1208 -0.0195 -0.2247
16241PP      PP26345   1.406   5.789   3.178 -0.2383  0.0589 -0.1287
16242PP      PP26346   3.585   1.065   1.795 -0.0172  0.0405  0.0055
16243PP      PP26347   2.198  10.579  11.128 -0.0067 -0.0446  0.1859
16244PP      PP26348   2.869  13.080   9.306 -0.1692  0.0478 -0.0163
16245PP      PP26349  10.776   1.459   0.794  0.3299 -0.1986  0.0488
16246PP      PP26350   4.262   3.821   3.536 -0.4145  0.0143 -0.0417
16247PP      PP26351   2.803  11.646   9.402 -0.1972  0.0136 -0.4607
16248PP      PP26352   2.564   1.469  10.963 -0.2088 -0.0454  0.1875
16249PP      PP26353   2.944   3.749  12.294 -0.0838 -0.0361  0.0118
16250PP      PP26354   7.466   6.456   1.831  0.0710  0.2076 -0.0429
16251PP      PP26355  11.046  14.217   1.250  0.1631 -0.4010  0.0033
16252PP      PP26356   5.346  14.656   1.721  0.0853 -0.3652  0.2241
16253PP      PP26357   8.433   6.163  11.678 -0.1765  0.1516  0.0714
16254PP      PP26358   6.215   4.743   9.506 -0.0137 -0.1653 -0.2619
16255PP      PP26359   0.234  10.560   2.690  0.0503  0.1234  0.1905
16256PP      PP26360  12.759  14.080   1.149 -0.2184 -0.1477 -0.0509
16257PP      PP26361   9.379  14.039   4.094 -0.3434 -0.0380  0.1587
16258PP      PP26362   5.357   7.755   2.682 -0.1937 -0.0877  0.2301
16259PP      PP26363  11.853  13.603   2.122  0.3158  0.3473 -0.1860
16260PP      PP26364   4.550  11.202  10.901 -0.2311 -0.3706 -0.0683
16261PP      PP26365  12.104   5.342   0.322 -0.1441 -0.1517  0.0886
16262PP      PP26366   4.353   1.992   2.667  0.2012 -0.2489  0.1377
16263PP      PP26367   2.138  11.986  13.013 -0.0813 -0.0234 -0.1664
16264PP      PP26368   2.915  14.195  10.652 -0.2767 -0.2603  0.1586
16265PP      PP26369   9.010  11.607   3.478  0.4299  0.0741 -0.1047
16266PP      PP26370   2.835  10.014   4.766 -0.0703  0.2811 -0.4399
16267PP      PP26371   3.932  12.705  12.712 -0.2468 -0.1862 -0.1228
16268PP      PP26372   6.478   5.854  11.305  0.1245  0.1120 -0.0136
16269PP      PP26373  14.559   4.637   2.801 -0.1559 -0.1059  0.0914
16270PP      PP26374   8.634   4.980   1.843 -0.1896  0.1812  0.0628
16271PP      PP26375   1.953  10.693   9.644 -0.2282 -0.1755  0.2038
16272PP      PP26376  14.547  15.011   9.576 -0.0384  0.0640  0.0969
16273PP      PP26377  14.925   6.034  12.697  0.1014 -0.1437  0.2090
16274PP      PP26378  15.335  10.844  13.451 -0.2434  0.5007  0.0303
16275PP      PP26379  11.489   5.458   1.512 -0.3176 -0.0963 -0.1447
16276PP      PP26380  13.079  14.933   8.393 -0.2920 -0.0100  0.2603
16277PP      PP26381   2.878  11.533  13.178  0.2549  0.0012 -0.0630
16278PP      PP26382   4.132  11.130   3.543  0.4091 -0.0512 -0.0780
16279PP      PP26383   2.729   6.947   4.574  0.1256 -0.0366 -0.1694
16280PP      PP26384  11.870   4.361  11.058  0.1977 -0.0959 -0.0588
16281PP      PP26385   4.418  11.199   1.339  0.1584 -0.0761  0.1172
16282PP      PP26386   9.400  15.565   8.720 -0.0206  0.4941  0.0310
16283PP      PP26387   2.882  12.906   0.893  0.2282  0.2928 -0.3156
16284PP      PP26388  11.544   2.797  10.644  0.0608  0.2396 -0.0088
16285PP      PP26389   1.177  14.417   0.412  0.2155  0.0939  0.0366
16286PP      PP26390  14.295   0.839  11.309 -0.2418  0.3469 -0.1546
16287PP      PP26391  11.514  12.635   2.031  0.4058 -0.0343 -0.0977
16288PP      PP26392  14.833   8.056   2.206 -0.1154  0.2758 -0.0309
16289PP      PP26393  12.829   2.234   0.513 -0.2483 -0.0950 -0.2977
16290PP      PP26394   5.498   7.700  11.577 -0.0036  0.2402 -0.1109
16291PP      PP26395   9.072  13.959  12.752 -0.1267 -0.1453 -0.0389
16292PP      PP26396  11.675  10.425  11.021  0.1163 -0.4559  0.0746
16293PP      PP26397  14.642  11.703  10.360 -0.0851  0.0406  0.4937
16294PP      PP26398  12.894   4.958   7.940  0.0596  0.0054  0.1383
16295PP      PP26399  13.081   9.052  11.611 -0.2873  0.3304  0.1816
16296PP      PP26400   8.894  10.606   9.484 -0.1534  0.3218 -0.0677
16297PP      PP26401   8.451   4.876   9.677 -0.1108  0.1656 -0.1418
16298PP      PP26402   7.139   3.055  11.061  0.0709  0.0508 -0.1955
16299PP      PP26403   8.436   0.774   2.427  0.0882 -0.0238  0.1624
16300PP      PP26404   8.295  10.713   3.603  0.1511 -0.0803 -0.2892
16301PP      PP26405  14.824  15.756   0.715 -0.0349 -0.1428  0.4006
16302PP      PP26406   2.112   0.554  12.480  0.1419  0.0631 -0.0699
16303PP      PP26407   7.896   2.518   9.293  0.0874 -0.2323  0.0467
16304PP      PP26408   7.271  12.137   3.481  0.1957  0.1276  0.2301
16305PP      PP26409   8.785   5.514   1.552  0.0171  0.1132 -0.0515
16306PP      PP26410  12.878  11.677  11.015  0.3932  0.3388 -0.1384
16307PP      PP26411   6.695   3.273   2.201  0.0681  0.0207 -0.2276
16308PP      PP26412   9.575  15.469  12.664  0.0206 -0.0071  0.0354
16309PP      PP26413   3.941  10.178  10.828  0.2213 -0.4417 -0.1809
16310PP      PP26414  14.526   7.552   4.808 -0.3181 -0.0396  0.0039
16311PP      PP26415   6.085  12.883   0.498  0.2613 -0.1033 -0.1483
16312PP      PP26416   3.189  15.869   2.987 -0.0049  0.1462 -0.2579
16313PP      PP26417  13.334   6.848  12.745 -0.0277 -0.1084 -0.1078
16314PP      PP26418   0.627   6.931   4.267 -0.4115  0.1064  0.0356
16315PP      PP26419  10.110  12.603   1.348 -0.0738 -0.2195 -0.3364
16316PP      PP26420   1.443   0.909   9.954  0.0892 -0.0337  0.3719
16317PP      PP26421  13.385   6.904   9.203 -0.2063  0.0081 -0.2853
16318PP      PP26422   4.307   4.379   4.213 -0.1242 -0.1949  0.1182
16319PP      PP26423   0.979   7.414   9.864  0.1606 -0.1411 -0.1697
16320PP      PP26424  13.799   1.326   3.594  0.1038 -0.1351 -0.0848
16321PP      PP26425   4.137  11.418  10.536 -0.1899 -0.3249 -0.0980
16322PP      PP26426  14.464   4.996  11.528 -0.1923 -0.2014 -0.1459
16323PP      PP26427  15.017   3.287   2.235  0.1998 -0.1573  0.2421
16324PP      PP26428  12.557   1.089   2.936  0.2296  0.3051  0.2940
16325PP      PP26429   0.679  10.886  11.100  0.0992  0.1706  0.1853
16326PP      PP26430   3.627   4.374   9.108 -0.2238 -0.0704 -0.3350
16327PP      PP26431   9.516   4.374   2.994  0.1018  0.1853  0.1746
16328PP      PP26432   4.844   2.321   1.452 -0.1625 -0.0285  0.0680
16329PP      PP26433   7.640   1.887   5.185  0.2131  0.1475  0.1661
16330PP      PP26434  10.845  12.063  11.850 -0.1288  0.0168 -0.3898
16331PP      PP26435   2.147   9.754  12.486 -0.2675 -0.0126  0.0301
16332PP      PP26436   0.785   7.162   0.116 -0.2120 -0.1078 -0.1174
16333PP      PP26437   2.394   6.112   4.624 -0.0800  0.2003  0.2460
16334PP      PP26438   7.462   6.116  11.916 -0.3216 -0.0282 -0.0407
16335PP      PP26439  10.398   6.491   0.640  0.0315  0.1880  0.3556
16336PP      PP26440   4.489   3.743  11.842 -0.0557 -0.2483  0.1042
16337PP      PP26441  10.218   6.122  12.457  0.5087  0.0581  0.2239
16338PP      PP26442   4.309   4.888  13.037  0.0091 -0.0076  0.0740
16339PP      PP26443   7.282  10.625  11.187 -0.4029 -0.0902  0.1170
16340PP      PP26444   6.554  13.268  11.313  0.4539 -0.1335 -0.0392
16341PP      PP26445   1.940   6.970  11.401 -0.5782  0.3359  0.2175
16342PP      PP26446  14.557  15.328  11.634 -0.0191 -0.1257  0.1705
16343PP      PP26447  15.692   5.766   0.321  0.2964  0.2522  0.0829
16344PP      PP26448  14.480  13.502   3.051  0.2287 -0.2220  0.4571
16345PP      PP26449  11.816  11.755   9.695  0.1187  0.2285 -0.0136
16346PP      PP26450   2.177  10.671   5.003  0.3612  0.1994  0.0305
16347PP      PP26451   7.807   2.207   4.347 -0.3231 -0.1038 -0.0870
16348PP      PP26452   1.721   9.830   2.651 -0.1787  0.1531  0.0083
16349PP      PP26453  13.691  14.112   8.172  0.0689 -0.1473 -0.0635
16350PP      PP26454  10.101   4.525  10.071 -0.1804  0.1582  0.1912
16351PP      PP26455  15.778  12.845   0.825  0.0509 -0.0139 -0.1114
16352PP      PP26456   9.840  12.618   3.955 -0.1442 -0.0743  0.2141
16353PP      PP26457  12.691   9.047   9.788  0.2127  0.0783  0.1056
16354PP      PP26458  10.557   3.873   1.943  0.3169 -0.1873  0.2569
16355PP      PP26459   7.004  14.035  13.337 -0.1657  0.1873  0.0789
16356PP      PP26460   7.716   7.951  12.652  0.2166  0.0454  0.2363
16357PP      PP26461   9.458   5.658   3.550 -0.1835 -0.2236  0.0267
16358PP      PP26462   9.101   5.750  13.217  0.2036  0.4456  0.1202
16359PP      PP26463  14.184  12.020   1.595  0.0064 -0.1668  0.0995
16360PP      PP26464  11.392   9.940   0.419  0.3408  0.1147  0.0403
16361PP      PP26465   1.807   2.947  12.354  0.1256  0.0355 -0.2259
16362PP      PP26466   3.442   6.647   2.226  0.1814  0.0562  0.1134
16363PP      PP26467  14.564   1.607   1.196  0.0131 -0.3402 -0.2676
16364PP      PP26468   3.944   9.255  11.752  0.2998 -0.3346 -0.0863
16365PP      PP26469   2.900  10.521  13.146  0.1003  0.0838  0.0745
16366PP      PP26470   8.652   5.464   2.948  0.3745 -0.1448 -0.2853
16367PP      PP26471   7.826   4.236  11.285  0.0985  0.3077 -0.1344
16368PP      PP26472   7.306   6.882   2.005 -0.1143 -0.2684 -0.3525
16369PP      PP26473   9.043   0.541   0.103 -0.3583  0.1826 -0.2441
16370PP      PP26474   4.212  13.646   0.963 -0.1702 -0.3286 -0.1527
16371PP      PP26475   4.025   4.588  12.825 -0.1958 -0.0611  0.2232
16372PP      PP26476  11.482   3.759  12.476 -0.0484 -0.0376  0.0511
16373PP      PP26477  13.322   6.418   0.715  0.1904 -0.0091  0.0346
16374PP      PP26478   8.702  11.515   0.330  0.0100  0.0723 -0.0275
16375PP      PP26479   0.976   3.968  10.522 -0.2566  0.1540  0.2479
16376PP      PP26480   4.955   9.503   4.103 -0.2315  0.0090  0.1929
16377PP      PP26481  13.412  10.046  13.301  0.0198  0.1372 -0.1373
16378PP      PP26482   1.451   9.882   0.721  0.0256 -0.1553 -0.3100
16379PP      PP26483   9.456  11.799   4.687  0.0622  0.0865  0.2047
16380PP      PP26484   0.925   7.705  12.930 -0.4524  0.2303 -0.2199
16381PP      PP26485   6.134  15.108  13.031 -0.3249  0.1000 -0.2012
16382PP      PP26486   3.643   8.843  11.049 -0.1923  0.2013 -0.1501
16383PP      PP26487   8.802   2.133  10.529 -0.1975  0.2295  0.0121
16384PP      PP26488   1.703   5.653   9.218 -0.3680 -0.3004  0.0017
16385PP      PP26489  15.664   0.718  10.364  0.0935 -0.2423  0.2515
16386PP      PP26490   6.934   3.433  10.247  0.4190  0.0026 -0.0806
16387PP      PP26491  13.827  10.499   3.345 -0.2158  0.0649 -0.3130
16388PP      PP26492  11.651   8.545  12.739  0.0928  0.2188  0.1976
16389PP      PP26493   4.579  15.198  13.242  0.1369  0.1292 -0.1963
16390PP      PP26494  11.811  11.728  10.200 -0.1726 -0.1312 -0.1918
16391PP      PP26495   3.464   6.183   1.220 -0.2063  0.1771  0.0049
16392PP      PP26496  11.507   6.681   1.962  0.0493  0.1700 -0.0087
16393PP      PP26497   0.130   5.151   3.508 -0.1869  0.0822 -0.1562
16394PP      PP26498   6.192   7.966   0.895  0.1081  0.5592  0.1791
16395PP      PP26499   4.199   5.046  12.546  0.1145 -0.0134  0.0539
16396PP      PP26500   0.020  12.739  10.383 -0.1114  0.1548 -0.1106
16397PP      PP26501  11.519   6.855  10.296  0.1971 -0.1635 -0.1269
16398PP      PP26502  13.257   2.649   0.994 -0.0725  0.0278 -0.2840
16399PP      PP26503   1.439   6.375   0.060  0.1042  0.2502 -0.0942
16400PP      PP26504  13.623   4.381  10.626 -0.2179 -0.0533 -0.2019
16401PP      PP26505  13.946   1.801   3.218 -0.0089 -0.1650  0.1969
16402PP      PP26506  12.115   3.098  13.011  0.2017  0.0108  0.1004
16403PP      PP26507  11.493  15.330   7.561  0.1335 -0.1892 -0.1980
16404PP      PP26508  14.586   2.050   8.458  0.0452  0.3425  0.0213
16405PP      PP26509   3.181   0.754   1.772 -0.0000  0.0056 -0.0617
16406PP      PP26510  11.435   6.165   2.091 -0.1146 -0.0917  0.2549
16407PP      PP26511  14.787   2.911   9.380 -0.0106  0.1193  0.1921
16408PP      PP26512  15.497   7.773   1.400  0.1188 -0.2159  0.0516
16409PP      PP26513  14.409   4.762  12.522 -0.2860 -0.1004 -0.0328
16410PP      PP26514   7.828  10.684  10.327 -0.0509 -0.0227  0.0477
16411PP      PP26515   1.950   3.006   3.597  0.1272 -0.0079  0.1563
16412PP      PP26516   7.994  14.141   3.893 -0.1853 -0.0389 -0.5614
16413PP      PP26517   0.587   1.844   8.181  0.2401 -0.0740 -0.0737
16414PP      PP26518   5.243  10.443  11.251  0.1293 -0.1788 -0.1599
16415PP      PP26519   6.989   3.126  12.081 -0.1556 -0.1448 -0.0723
16416PP      PP26520   6.250  12.592  11.449  0.2086  0.2604  0.0774
16417PP      PP26521   3.712   9.150   4.416  0.1014 -0.3530 -0.0456
16418PP      PP26522   5.729   7.700   0.824  0.0224 -0.0543  0.5043
16419PP      PP26523   0.262   9.234   9.862  0.0834 -0.3250  0.0764
16420PP      PP26524   1.116   1.342   0.433  0.2646  0.0626 -0.0421
16421PP      PP26525   7.413   6.932  10.314 -0.0928  0.1668  0.0162
16422PP      PP26526   8.939   2.340   4.712 -0.0364  0.2155  0.0703
16423PP      PP26527  13.359   4.865   0.372 -0.2843  0.3385  0.4740
16424PP      PP26528  12.420   7.824   1.968  0.3669  0.1062 -0.0195
16425PP      PP26529  11.922  10.982  12.664  0.1070 -0.0364  0.1775
16426PP      PP26530  12.865  12.910  11.874  0.2207 -0.1751 -0.1110
16427PP      PP26531   9.604   1.137  11.659  0.2541  0.1977 -0.0933
16428PP      PP26532  13.720   8.334   3.041 -0.1050  0.1324  0.1268
16429PP      PP26533   3.663  11.968  11.417  0.0666  0.1704  0.5152
16430PP      PP26534  13.172   7.329   2.581  0.0026 -0.2376  0.2701
16431PP      PP26535  15.221   4.642   2.109 -0.1851 -0.2122 -0.2200
16432PP      PP26536  10.106   6.009   0.765 -0.2177 -0.1609  0.0708
16433PP      PP26537   6.574   1.403   2.768  0.0975  0.0093 -0.0746
16434PP      PP26538   7.597   8.410   2.384 -0.0234  0.0526 -0.0297
16435PP      PP26539  12.143  13.337  10.386 -0.0183 -0.0607 -0.1615
16436PP      PP26540   1.966   9.909   4.294  0.1166 -0.1295  0.1492
16437PP      PP26541  14.334  10.042   9.936  0.0151 -0.1247  0.2398
16438PP      PP26542   6.695  14.375  12.216  0.2232  0.1045 -0.0088
16439PP      PP26543   3.109   4.368  12.962  0.0091  0.3698  0.2701
16440PP      PP26544   2.316   7.066   4.180  0.2581 -0.3018  0.3020
16441PP      PP26545   0.197   0.237  12.924 -0.1803 -0.3100 -0.2245
16442PP      PP26546   2.359   7.954   3.661  0.0934 -0.0805  0.1159
16443PP      PP26547   2.290   4.691  10.759  0.4500  0.2456 -0.0226
16444PP      PP26548  12.658   1.456   2.167  0.2581 -0.1236 -0.0371
16445PP      PP26549   0.069   3.582   0.700 -0.2275 -0.2383 -0.0993
16446PP      PP26550  14.367   6.670   3.715  0.2602  0.1263  0.3103
16447PP      PP26551   9.776   0.608  10.111 -0.1642  0.3350 -0.0062
16448PP      PP26552   0.874   6.910   9.460  0.0759 -0.3615 -0.3053
16449PP      PP26553   2.929  10.974   2.781 -0.1754 -0.1259  0.0531
16450PP      PP26554   4.528  13.508   3.855  0.0218 -0.1217  0.1518
16451PP      PP26555   6.374   1.446   3.918  0.1331 -0.1951  0.0910
16452PP      PP26556   5.958   3.354   1.133  0.0294  0.1525  0.1494
16453PP      PP26557   7.199  13.214   2.593 -0.0743 -0.1377 -0.3061
16454PP      PP26558  12.340  11.249  12.966  0.3910  0.1986  0.0563
16455PP      PP26559   5.474   6.869  12.758 -0.0879  0.2138 -0.1400
16456PP      PP26560   4.100  13.520   1.391 -0.1711  0.1105  0.0723
16457PP      PP26561  11.366   8.971   9.316  0.0336  0.2005 -0.3117
16458PP      PP26562   8.173   6.680   0.172 -0.1028 -0.0411  0.0825
16459PP      PP26563   2.696   9.386  11.746  0.0453  0.0191  0.2099
16460PP      PP26564  11.942  11.714   2.143 -0.1609 -0.0409 -0.2261
16461PP      PP26565   5.435  15.347   1.799 -0.4455 -0.0990 -0.0286
16462PP      PP26566  13.519   5.382   1.707 -0.0205 -0.0872 -0.0899
16463PP      PP26567  10.434   0.046  11.575  0.1041 -0.0772  0.1326
16464PP      PP26568   5.621   4.341  10.897  0.2041 -0.0890  0.1200
16465PP      PP26569   0.973  11.714   0.906  0.2380  0.1069  0.4656
16466PP      PP26570  13.526   8.146   3.654 -0.2846  0.2245 -0.0261
16467PP      PP26571   9.678   4.037  11.211  0.1531  0.2838 -0.1088
16468PP      PP26572  15.765   8.721  10.150 -0.0645 -0.0512 -0.0930
16469PP      PP26573  10.405   1.785   9.761 -0.2589 -0.2598  0.0363
16470PP      PP26574   7.118   2.931  12.958  0.1672  0.1052  0.2182
16471PP      PP26575  11.616   1.250  11.178  0.0003  0.2326  0.1181
16472PP      PP26576  11.345   0.975   3.162  0.2081  0.0532 -0.0719
16473PP      PP26577  10.585  12.304  12.218 -0.0669 -0.2342  0.1608
16474PP      PP26578   7.721  14.405   2.145 -0.2840  0.2254 -0.4444
16475PP      PP26579   3.849  10.125   5.017 -0.1948  0.2509  0.2749
16476PP      PP26580  10.345  15.250   0.473 -0.3564 -0.0968 -0.0277
16477PP      PP26581   5.305   6.805  10.739 -0.1438  0.1931 -0.0558
16478PP      PP26582   1.300   4.315  13.056 -0.0112 -0.0267  0.0038
16479PP      PP26583  12.720   8.528   3.809 -0.0454  0.3096 -0.1711
16480PP      PP26584   4.353  13.294  11.005  0.4425  0.0021  0.0776
16481PP      PP26585  13.568  14.084   1.156  0.1782  0.0964  0.0838
16482PP      PP26586   9.309  10.562   5.108  0.2120 -0.1006  0.1141
16483PP      PP26587   1.009  15.000   0.348 -0.1906  0.1230 -0.0052
16484PP      PP26588   2.047  12.992   2.914 -0.0603 -0.3111  0.0517
16485PP      PP26589  15.092  13.658  10.217 -0.1485  0.2458 -0.0736
16486PP      PP26590   4.779   1.805   1.673 -0.1545  0.1825  0.0521
16487PP      PP26591   8.773   6.156  10.357  0.2088 -0.0514 -0.1715
16488PP      PP26592  11.287   5.635   8.358 -0.2806  0.1284 -0.2386
16489PP      PP26593   1.466   7.945  10.649  0.0869 -0.2151 -0.0871
16490PP      PP26594   0.345  14.611  11.898  0.3568 -0.1633  0.1747
16491PP      PP26595   0.039  11.548   3.960 -0.1422 -0.2226  0.2388
16492PP      PP26596   6.597   8.957  10.007 -0.1605 -0.0343 -0.0948
16493PP      PP26597  15.364   8.154  13.385  0.0711 -0.0915 -0.0767
16494PP      PP26598   9.573  13.707   0.486 -0.1812  0.1021 -0.0489
16495PP      PP26599  14.256   2.305   8.159 -0.1319 -0.2418  0.2794
16496PP      PP26600   8.175  15.172  12.409 -0.2028 -0.0255  0.1147
16497PP      PP26601   5.826  10.153   5.066 -0.1130 -0.0887  0.0913
16498PP      PP26602   0.159  11.316   2.714  0.1718 -0.2786 -0.1494
16499PP      PP26603   5.549  12.725   3.608  0.2674 -0.2110 -0.2404
16500PP      PP26604  10.926   9.111   0.678  0.1586 -0.1202 -0.1052
16501PP      PP26605  13.295  13.083   3.768  0.2329  0.2741  0.0064
16502PP      PP26606   5.369  13.162   5.062 -0.3471  0.0902  0.0223
16503PP      PP26607   4.714  14.632   1.662 -0.0728  0.2468  0.3175
16504PP      PP26608   0.865   3.698   8.741  0.6275 -0.1434  0.1367
16505PP      PP26609  10.927   4.931  12.410 -0.0224  0.0133  0.2151
16506PP      PP26610  10.564   7.030   9.982  0.4142 -0.0738 -0.1297
16507PP      PP26611   4.876   3.140   0.685  0.3588 -0.1712  0.1709
16508PP      PP26612   1.067  11.743  10.866 -0.2334  0.0756  0.0147
16509PP      PP26613  11.080   8.653   4.656 -0.0408  0.2005  0.1474
16510PP      PP26614   1.310  10.240   1.174 -0.1157 -0.1905  0.2738
16511PP      PP26615   0.069   6.156   4.719  0.0654 -0.0042 -0.0619
16512PP      PP26616   4.439  15.485   1.109 -0.0027  0.2637  0.1229
16513PP      PP26617   5.941  11.359   0.941 -0.0648 -0.0654 -0.1670
16514PP      PP26618  14.260   0.889   0.600 -0.0281  0.1093  0.0685
16515PP      PP26619  12.683  15.304   7.183  0.0267 -0.0547 -0.0883
16516PP      PP26620  12.599   5.710   2.229 -0.1140  0.1586  0.0549
16517PP      PP26621  14.057  11.035   0.258 -0.0262 -0.0639  0.0327
16518PP      PP26622  15.669  11.089   9.244  0.2960  0.0514  0.0124
16519PP      PP26623   7.003  10.749   4.643 -0.0928  0.0791 -0.0494
16520PP      PP26624   1.885   9.552   1.587  0.2906 -0.1621 -0.1715
16521PP      PP26625   0.528  14.996  10.222  0.2197 -0.3953  0.2833
16522PP      PP26626  14.024  14.989   1.938  0.3880  0.2422  0.1055
16523PP      PP26627   1.981   9.383   4.505  0.1217  0.1535 -0.1808
16524PP      PP26628   6.373   0.645   9.959 -0.2100  0.3431  0.1374
16525PP      PP26629   5.973   4.731  10.965  0.1193 -0.1658 -0.0294
16526PP      PP26630  12.269   6.216  11.242 -0.1695  0.0258  0.1640
16527PP      PP26631  15.684   2.201   2.160  0.0720 -0.0625  0.1166
16528PP      PP26632   4.098   9.589   4.956 -0.1502  0.3012 -0.1100
16529PP      PP26633   8.325   3.219  11.973 -0.1057 -0.1003 -0.4049
16530PP      PP26634   4.825   3.910   3.499 -0.0553 -0.1173 -0.1257
16531PP      PP26635  12.077   8.202  11.256  0.1089  0.3005 -0.0789
16532PP      PP26636   0.819  13.596   9.568  0.0938  0.0575  0.3187
16533PP      PP26637  10.898   0.472   9.788  0.0191 -0.1286 -0.1481
16534PP      PP26638   8.174   7.379   2.140 -0.2180 -0.0097  0.0106
16535PP      PP26639   3.164   0.286  10.909  0.1762 -0.1038 -0.1821
16536PP      PP26640  13.657   9.622   3.024 -0.0167 -0.0341 -0.1362
16537PP      PP26641   1.916   0.910  11.275  0.2319  0.0071 -0.1488
16538PP      PP26642  12.863   3.187  13.290  0.1299  0.0263 -0.0050
16539PP      PP26643   7.741   5.465  11.400 -0.1767  0.1863 -0.2317
16540PP      PP26644   1.125  15.449   2.484  0.1232  0.0800 -0.0665
16541PP      PP26645   3.137   4.970   2.455  0.4118 -0.0872 -0.2484
16542PP      PP26646   3.878   1.010  10.104  0.0248  0.1068 -0.1500
16543PP      PP26647   3.270   9.023   0.652  0.2170 -0.1954 -0.2701
16544PP      PP26648  10.449   9.345   0.356 -0.1612  0.0862 -0.2336
16545PP      PP26649  15.888  13.823   9.715  0.2526  0.0975 -0.3174
16546PP      PP26650  10.644   3.138  11.196  0.0498 -0.0108  0.0622
16547PP      PP26651  13.366   0.938  12.532 -0.0611 -0.0175  0.0680
16548PP      PP26652   7.885  13.504   9.480 -0.3103 -0.0248 -0.0693
16549PP      PP26653   1.338   9.602   9.928  0.2099  0.3366 -0.0374
16550PP      PP26654  13.374  11.486   1.608 -0.2951  0.0145  0.0595
16551PP      PP26655   9.168   3.545   4.141  0.1943  0.0477  0.0335
16552PP      PP26656  13.870   8.686   4.315  0.1791  0.0889 -0.0065
16553PP      PP26657   9.545   2.190   1.066  0.0580 -0.0436 -0.2397
16554PP      PP26658  11.907  12.713   3.385  0.2534 -0.1561  0.3036
16555PP      PP26659  12.177  14.317  11.318 -0.1745  0.0589 -0.1572
16556PP      PP26660  14.978   3.063  12.487 -0.0237  0.0190  0.1845
16557PP      PP26661  13.270   7.551   1.764  0.0131  0.1273 -0.1867
16558PP      PP26662  12.957  15.734   9.025  0.0695 -0.2541  0.1721
16559PP      PP26663   3.251  10.507  12.137 -0.1683  0.1579  0.2455
16560PP      PP26664   5.571   1.512   8.239 -0.0556  0.4281  0.0797
16561PP      PP26665  14.706   6.557   2.404 -0.0540 -0.2443 -0.2705
16562PP      PP26666  15.366   1.474  10.762  0.0305  0.2691 -0.0436
16563PP      PP26667   3.669   8.627   2.703  0.0949  0.1029 -0.2524
16564PP      PP26668  13.696   3.505   2.168  0.1767  0.1689  0.0964
16565PP      PP26669   5.802   7.285   2.664  0.0751  0.0078 -0.1789
16566PP      PP26670  10.266  10.856   0.056 -0.0474 -0.0753  0.1902
16567PP      PP26671  15.594   0.457  12.059  0.0312  0.2513 -0.1526
16568PP      PP26672   5.187  14.011  11.395  0.0739  0.1813  0.2303
16569PP      PP26673   1.418   4.458   6.261 -0.0358  0.0713 -0.0956
16570PP      PP26674  11.884   0.344   8.748 -0.2018  0.1200 -0.4531
16571PP      PP26675  11.987   3.202   2.172 -0.3573  0.1057  0.3462
16572PP      PP26676   5.854   9.520  12.922 -0.1093  0.0125  0.1847
16573PP      PP26677  12.863   0.291   7.856 -0.0883  0.3509 -0.0151
16574PP      PP26678   8.128  12.224  12.681 -0.0364 -0.3142  0.0656
16575PP      PP26679   5.546   3.718   1.108 -0.0188  0.0630  0.3402
16576PP      PP26680  13.766   8.914  13.384  0.0232  0.0762 -0.0370
16577PP      PP26681   3.807   7.777   1.215  0.1076  0.2620 -0.2371
16578PP      PP26682  11.589   4.275   0.080  0.2712  0.1435 -0.1104
16579PP      PP26683   7.575   6.890   1.604  0.1085 -0.0260 -0.0524
16580PP      PP26684  13.335   3.499   0.780 -0.1566 -0.1567  0.1436
16581PP      PP26685   1.795  14.553   1.681  0.2166  0.3093 -0.1016
16582PP      PP26686   6.354   6.719   1.298  0.2196  0.4009  0.1932
16583PP      PP26687   7.725   6.794  12.174  0.2836 -0.1824  0.1893
16584PP      PP26688   4.287  15.488  11.760  0.0209  0.0783  0.0097
16585PP      PP26689  14.459  10.599   2.087  0.2649 -0.0344  0.1036
16586PP      PP26690  13.051  10.140  10.665  0.3420  0.2980  0.2590
16587PP      PP26691   0.366   8.355   5.082 -0.0712  0.1967  0.2073
16588PP      PP26692   1.694   1.909  11.249  0.2662  0.2490 -0.2388
16589PP      PP26693   9.370   5.221   8.782 -0.3406 -0.2036 -0.1033
16590PP      PP26694  11.208  15.686   7.809  0.3262 -0.1870  0.0187
16591PP      PP26695   0.736   2.099   9.467 -0.0420 -0.0028  0.0159
16592PP      PP26696   9.229  15.783  12.184  0.1391  0.0170  0.2266
16593PP      PP26697   2.576   2.558  10.182  0.2010 -0.1334  0.0158
16594PP      PP26698  10.652   9.645   2.495 -0.0974  0.2091  0.0581
16595PP      PP26699  11.256  14.797  10.642  0.0725  0.2676 -0.1522
16596PP      PP26700  11.806  14.846  10.768  0.1373  0.1180 -0.1032
16597PP      PP26701  12.656   9.472   4.225  0.2790  0.1629  0.1897
16598PP      PP26702   0.397  14.510  10.482 -0.1953 -0.0195  0.0153
16599PP      PP26703   8.288   0.957   9.853  0.1267 -0.2197  0.0991
16600PP      PP26704   6.253   2.170   4.291  0.3766 -0.2162  0.3759
16601PP      PP26705   0.603   0.080  12.681 -0.1921  0.0750  0.1087
16602PP      PP26706   6.526   8.898   8.649 -0.1639  0.3562  0.1570
16603PP      PP26707   2.166  10.148  10.810 -0.1783 -0.0433 -0.3773
16604PP      PP26708   7.790   3.850   3.646  0.0226  0.1859  0.1857
16605PP      PP26709   6.611  12.436  13.199  0.1609 -0.0542  0.1056
16606PP      PP26710  13.617  14.523   0.868 -0.0271 -0.1047  0.1072
16607PP      PP26711  13.678   8.363   2.552 -0.1489 -0.0969 -0.1084
16608PP      PP26712  15.481  14.110   3.753  0.1943  0.0254 -0.2453
16609PP      PP26713  14.868   0.706  11.062  0.1797 -0.0666 -0.0751
16610PP      PP26714   7.350  12.677   3.680 -0.1187  0.0953 -0.1286
16611PP      PP26715  10.885  15.564   8.889 -0.2561  0.0894 -0.0135
16612PP      PP26716  11.476   0.725  12.694 -0.2536 -0.0573  0.1639
16613PP      PP26717   5.003   7.172   3.499 -0.2368  0.3235  0.0741
16614PP      PP26718  15.145   1.240   1.469  0.1657 -0.3194 -0.1368
16615PP      PP26719   4.287   4.046   8.937 -0.2912  0.3912 -0.0244
16616PP      PP26720  15.003  15.293   2.908  0.0576 -0.0810 -0.0878
16617PP      PP26721   3.303   1.087  11.820 -0.1495 -0.2736 -0.2770
16618PP      PP26722  11.189  12.830   9.506 -0.0284 -0.2635 -0.1906
16619PP      PP26723  13.594  10.720  11.118  0.1006 -0.1151 -0.2632
16620PP      PP26724   1.820   7.325  13.020  0.1235  0.0180 -0.0354
16621PP      PP26725   0.672   3.519   2.319  0.1972  0.2333  0.3318
16622PP      PP26726  11.403   9.434   9.218 -0.2539  0.0627 -0.0456
16623PP      PP26727  12.861   3.952  13.434  0.1174 -0.1849  0.2253
16624PP      PP26728  10.348  10.906   1.169 -0.4095  0.0024 -0.0162
16625PP      PP26729  12.207   2.052  10.494  0.4572  0.0117 -0.1400
16626PP      PP26730   4.902   2.027   9.514 -0.1199  0.2482 -0.1009
16627PP      PP26731   6.970  12.499   2.714 -0.1039  0.2258 -0.1072
16628PP      PP26732  11.715   6.329  10.255  0.0806  0.0493 -0.0072
16629PP      PP26733   5.040  12.449  12.629 -0.1342 -0.1038  0.2131
16630PP      PP26734  15.797  10.554   9.347  0.1435 -0.0801 -0.0099
16631PP      PP26735   5.015  10.954  11.086 -0.0167 -0.1013 -0.1540
16632PP      PP26736   5.395   3.822  12.252  0.0007  0.1480  0.0821
16633PP      PP26737   8.870  15.275   0.259 -0.1879  0.0029  0.0911
16634PP      PP26738   7.032   0.040   2.343 -0.0442 -0.1012  0.4152
16635PP      PP26739  12.579   8.357  12.016 -0.1591  0.3114  0.0536
16636PP      PP26740  14.143   5.134   2.773 -0.1552 -0.0404 -0.1556
16637PP      PP26741   4.646  10.855   3.422  0.2300 -0.0257 -0.0781
16638PP      PP26742   9.884   1.714   0.090  0.0832  0.1919  0.2447
16639PP      PP26743   6.618  11.826   2.062 -0.0809  0.1208  0.1348
16640PP      PP26744   1.842   4.873   0.936  0.0411 -0.1866 -0.0064
16641PP      PP26745   8.222  12.195   2.281  0.2745 -0.1442 -0.0694
16642PP      PP26746   6.458  15.256   1.047  0.1538  0.5135  0.0639
16643PP      PP26747   4.259   6.409   1.265  0.0128 -0.0560  0.0876
16644PP      PP26748  10.254   8.765   3.684  0.3109  0.3178 -0.1000
16645PP      PP26749   5.582   0.450  10.546  0.0124  0.0940 -0.1417
16646PP      PP26750   7.986  10.600   9.812  0.1006 -0.2992  0.6335
16647PP      PP26751   4.104   8.767   4.340  0.1084  0.4976  0.2772
16648PP      PP26752   8.949  11.121   9.442  0.0410  0.0365  0.0819
16649PP      PP26753  14.971   6.925  12.642 -0.0478  0.1414 -0.3316
16650PP      PP26754   1.873  14.170   0.226  0.0864 -0.1934  0.3969
16651PP      PP26755  14.634   7.272   0.453  0.1697 -0.0429  0.0446
16652PP      PP26756  14.828  13.762  12.796  0.1960 -0.0816 -0.0203
16653PP      PP26757   4.142  10.573  12.068  0.1953  0.1268 -0.2387
16654PP      PP26758  10.342   0.438  10.102 -0.1312  0.2378  0.1917
16655PP      PP26759   2.395   0.605  12.950  0.0843 -0.0776  0.0605
16656PP      PP26760  10.194   1.255   9.664  0.0300 -0.1956 -0.0582
16657PP      PP26761   5.991   6.192   1.823 -0.0354  0.0362  0.0158
16658PP      PP26762  12.996  11.335   3.263 -0.0678  0.1053  0.1637
16659PP      PP26763   0.780   6.130   1.332 -0.2484 -0.0136 -0.1311
16660PP      PP26764   0.798  14.578   1.254 -0.0489 -0.2876  0.1318
16661PP      PP26765   4.457   5.040   4.005  0.1379 -0.1116  0.0174
16662PP      PP26766  12.432  12.289   9.682 -0.1115  0.2470  0.0862
16663PP      PP26767   4.095   1.103  13.377 -0.0522  0.1075  0.3258
16664PP      PP26768   4.964  13.376   9.806 -0.4003  0.3234  0.2500
16665PP      PP26769  15.384  15.704   0.631 -0.0161 -0.3994  0.2132
16666PP      PP26770   4.598   8.827   1.277  0.1814 -0.2120  0.2465
16667PP      PP26771  12.101   8.749   4.655 -0.0088 -0.0848  0.0712
16668PP      PP26772   5.420   5.910   9.323 -0.4093 -0.0657  0.2291
16669PP      PP26773  14.899   9.134   0.222  0.1721  0.1272  0.2826
16670PP      PP26774   3.047   1.055  11.374 -0.4636  0.1166 -0.1140
16671PP      PP26775   4.813   0.814   0.665 -0.1499  0.1444  0.3918
16672PP      PP26776   0.315  14.459   0.344 -0.0388  0.3071 -0.0069
16673PP      PP26777   2.883   5.001   9.725 -0.1850 -0.1721  0.0379
16674PP      PP26778   2.337   3.126   2.865  0.1735 -0.0439  0.1168
16675PP      PP26779   9.068   6.029   9.805 -0.4420 -0.0777  0.2043
16676PP      PP26780  13.264   2.128   0.828 -0.2777 -0.2824  0.0054
16677PP      PP26781   7.725   0.102   3.419  0.0244 -0.0705  0.2301
16678PP      PP26782  11.263   8.563  10.775  0.0538 -0.0857 -0.3279
16679PP      PP26783   8.265  13.314  13.414 -0.0297  0.0751 -0.1464
16680PP      PP26784  14.108   4.339   9.978 -0.4966 -0.2116 -0.3173
16681PP      PP26785   9.627  10.362  12.769  0.0509 -0.0493 -0.1164
16682PP      PP26786   9.009   1.411   0.557  0.1093 -0.1632  0.1304
16683PP      PP26787   3.381   1.737   2.453  0.2695 -0.0417 -0.1862
16684PP      PP26788   4.714  11.493   5.140 -0.0679 -0.3589  0.2275
16685PP      PP26789   9.351   4.961   0.472 -0.0521  0.0698 -0.1696
16686PP      PP26790   8.158   4.022  10.810  0.2620  0.1118  0.1474
16687PP      PP26791   1.377   1.285  11.642 -0.3037  0.2245  0.2322
16688PP      PP26792   5.971  10.436   0.594 -0.0698 -0.3155 -0.1745
16689PP      PP26793   9.772   8.880  12.551  0.5159  0.0657 -0.0935
16690PP      PP26794   3.141  12.557   3.367  0.1245  0.2596  0.0723
16691PP      PP26795   5.155  10.647  10.148  0.1300  0.2478  0.0731
16692PP      PP26796   9.514  14.717   8.065 -0.0557  0.0763  0.2982
16693PP      PP26797  10.079  10.770  10.673 -0.2768  0.0382  0.3838
16694PP      PP26798  12.276   9.303   9.734  0.1242  0.2036 -0.0745
16695PP      PP26799   1.826   0.178   0.825  0.1510  0.2616  0.1524
16696PP      PP26800  13.225   2.114   9.099  0.0791  0.2343 -0.0104
16697PP      PP26801   4.085   4.047   9.853  0.0771  0.0950 -0.1455
16698PP      PP26802   9.616   1.018   9.828 -0.1718 -0.0648  0.0058
16699PP      PP26803   9.494   0.153  10.241 -0.0605 -0.0515  0.3152
16700PP      PP26804   6.692   4.877  13.042 -0.0496 -0.1779 -0.1193
16701PP      PP26805  14.860   9.979  13.420 -0.0590  0.1207  0.2878
16702PP      PP26806   2.834   6.689  11.473  0.1251  0.1558 -0.0924
16703PP      PP26807   2.229   7.948  10.877 -0.0780 -0.0141  0.2015
16704PP      PP26808   1.997   3.026   1.288 -0.2542  0.0875 -0.3021
16705PP      PP26809  11.518   7.562   2.224 -0.1914  0.0846 -0.3188
16706PP      PP26810  13.956   2.596   9.069 -0.0559 -0.1446  0.0323
16707PP      PP26811   6.549   3.836  11.920  0.0669  0.0283 -0.1272
16708PP      PP26812  13.659  15.838  13.112  0.0560  0.0723 -0.1292
16709PP      PP26813   8.205  14.063   0.139  0.5837 -0.1239 -0.1829
16710PP      PP26814  13.957   1.295  12.498 -0.1546  0.1124  0.0242
16711PP      PP26815   1.808   9.257   0.410  0.2448 -0.0499 -0.1372
16712PP      PP26816   6.591   9.387   2.765  0.0122  0.0536  0.0092
16713PP      PP26817  15.029   9.415   9.256  0.0614  0.0964 -0.0900
16714PP      PP26818   0.765  15.189  12.032  0.0298  0.3705 -0.1675
16715PP      PP26819   5.589   7.459  12.938 -0.0876  0.1748 -0.0852
16716PP      PP26820   7.116   3.291  12.639 -0.2102 -0.0175  0.1016
16717PP      PP26821   3.304   6.748  11.245 -0.0743  0.1088 -0.2667
16718PP      PP26822  10.118   4.035   9.865  0.1610 -0.1439 -0.3594
16719PP      PP26823   2.565  12.668   1.878  0.0687 -0.0528  0.2970
16720PP      PP26824  11.751   1.676   1.354 -0.0874  0.1534  0.0198
16721PP      PP26825  14.966  10.666   2.185 -0.1319 -0.0053  0.2480
16722PP      PP26826   5.250   0.092   9.859  0.2329 -0.0081 -0.0610
16723PP      PP26827   7.372   2.981   3.565 -0.0775  0.2540 -0.1599
16724PP      PP26828  13.698   9.532   9.275  0.3250  0.1440  0.1918
16725PP      PP26829  13.832  10.094   1.734  0.1413  0.1052 -0.2971
16726PP      PP26830   1.594   8.527   2.188 -0.3570  0.1046  0.1402
16727PP      PP26831  12.679   8.119  11.111 -0.3366 -0.0975  0.0334
16728PP      PP26832   3.482   0.640   0.859  0.2605 -0.2819  0.1486
16729PP      PP26833   3.348  14.127   1.122  0.0821 -0.1022 -0.1705
16730PP      PP26834  11.400   8.567   0.915 -0.1714  0.1711  0.1506
16731PP      PP26835   9.078   6.647   2.514  0.3874 -0.2572  0.2462
16732PP      PP26836  14.552   3.675   3.179 -0.1347  0.0203  0.4802
16733PP      PP26837  13.280  10.010   1.694  0.1484 -0.3705  0.1283
16734PP      PP26838  14.052   1.712  10.222 -0.2470  0.1593 -0.3367
16735PP      PP26839   0.801   0.920  10.885  0.3914 -0.0219  0.1037
16736PP      PP26840   3.857   9.047   2.387 -0.0750  0.1098  0.2394
16737PP      PP26841  14.121   7.747   0.134 -0.0766  0.3587  0.0156
16738PP      PP26842   2.957   5.043   3.116  0.0003  0.0185  0.2647
16739PP      PP26843  15.366   9.515  12.210 -0.0484  0.3027 -0.1471
16740PP      PP26844   7.563   0.020   9.267  0.0172 -0.2788  0.0557
16741PP      PP26845  14.830   3.224   8.446  0.0508  0.2843 -0.2468
16742PP      PP26846  14.127   0.108  11.685  0.1307  0.0644  0.0364
16743PP      PP26847   8.034   4.871   0.018  0.3000 -0.1616 -0.1655
16744PP      PP26848  11.823  10.636  10.552 -0.1797 -0.0476 -0.0282
16745PP      PP26849   4.409  12.949  12.225  0.2075  0.0794  0.0715
16746PP      PP26850   1.419  15.166   0.567  0.2796 -0.0795  0.1826
16747PP      PP26851   3.904   1.403   0.286 -0.2018 -0.0412 -0.2274
16748PP      PP26852   9.986   2.068   3.670 -0.1034 -0.1095 -0.0477
16749PP      PP26853   8.665   3.613  12.310 -0.1266 -0.2909  0.3676
16750PP      PP26854   9.916  15.562   1.833  0.2182 -0.4251 -0.0309
16751PP      PP26855  15.789   7.113   3.723  0.0959 -0.0306 -0.0327
16752PP      PP26856   8.071   2.803  10.069  0.0653  0.2970  0.0029
16753PP      PP26857   8.369   5.432  10.372  0.0163  0.4296  0.2386
16754PP      PP26858   0.415  10.129  11.582 -0.1399 -0.2169  0.0576
16755PP      PP26859   8.249   6.082   0.212  0.1016  0.0884 -0.2259
16756PP      PP26860  14.059  11.220   8.433  0.2963  0.0482  0.0120
16757PP      PP26861   9.897   1.657  11.038 -0.2903  0.1238  0.4070
16758PP      PP26862  11.749   8.711   9.094 -0.0229 -0.3680  0.0172
16759PP      PP26863   5.687   2.793  12.741  0.2346 -0.0722 -0.2223
16760PP      PP26864   5.651   1.708  10.943 -0.3182 -0.0171 -0.0390
16761PP      PP26865   1.376  14.657   1.427 -0.2812  0.2921  0.4185
16762PP      PP26866   8.902   8.696   1.711 -0.0492  0.1200  0.1002
16763PP      PP26867   1.588   5.919   1.696  0.4934 -0.4802  0.0872
16764PP      PP26868   0.571   9.055   2.627 -0.0803 -0.1390 -0.0185
16765PP      PP26869   9.330   6.359   9.013  0.0124  0.0058  0.0026
16766PP      PP26870  11.444  10.614   2.294  0.1853 -0.0874 -0.1175
16767PP      PP26871   8.895  10.507   1.931 -0.3058 -0.0142 -0.2326
16768PP      PP26872  14.600   7.680   9.240 -0.1810 -0.2512  0.1922
16769PP      PP26873  12.342   0.278   9.724  0.0594 -0.1065 -0.0547
16770PP      PP26874  11.616   5.693   3.256 -0.1265 -0.2402  0.0982
16771PP      PP26875  14.243   3.113   1.652  0.2071  0.0748  0.0995
16772PP      PP26876   9.101   0.901  13.245  0.2603  0.2784 -0.0452
16773PP      PP26877   9.542  10.597   2.694  0.1802 -0.0125 -0.1918
16774PP      PP26878   7.799   6.414   9.842 -0.0236  0.0016  0.3071
16775PP      PP26879   0.058   5.802   1.362 -0.0183  0.0359  0.0961
16776PP      PP26880   9.871  12.722  11.184  0.1602  0.0619 -0.1214
16777PP      PP26881   7.662   7.393   2.512 -0.1396  0.0618 -0.1201
16778PP      PP26882   7.473   7.687  12.329  0.0210 -0.1356 -0.0203
16779PP      PP26883   4.445   6.191  12.415 -0.3318 -0.2107  0.0505
16780PP      PP26884  13.260  14.635   9.203  0.0345  0.4228  0.3309
16781PP      PP26885   6.159  11.574   5.126  0.0401 -0.1403  0.0283
16782PP      PP26886  10.913  10.219   1.858  0.1364  0.2105 -0.6088
16783PP      PP26887   5.220   1.927   2.005  0.2746  0.1529 -0.2212
16784PP      PP26888  13.184   6.314  11.005  0.2178 -0.0726  0.1450
16785PP      PP26889   3.946   3.138  12.048  0.2619 -0.1096 -0.0234
16786PP      PP26890   8.318  10.059   5.363 -0.3427 -0.0322  0.0543
16787PP      PP26891   7.163  12.556   1.278  0.1171 -0.2872 -0.2504
16788PP      PP26892  14.208   2.181   2.579 -0.0647  0.1071 -0.0206
16789PP      PP26893   1.868   4.232   2.310  0.0331  0.0991 -0.0198
16790PP      PP26894   1.355  12.834   3.878 -0.2370 -0.1464  0.1461
16791PP      PP26895  13.190   9.735   2.222 -0.2216 -0.3268 -0.0321
16792PP      PP26896   7.091   2.113   3.038 -0.1108  0.2207  0.3007
16793PP      PP26897  14.027   5.811   0.899 -0.0622 -0.0046  0.0918
16794PP      PP26898  15.024   8.856  10.789  0.0142 -0.1781 -0.1357
16795PP      PP26899   8.762   3.537   1.755  0.1344  0.4355 -0.2436
16796PP      PP26900   7.909  14.407   3.036 -0.1096  0.0003 -0.1887
16797PP      PP26901   4.293  10.606   4.164  0.7208  0.0807 -0.1130
16798PP      PP26902   1.995  12.470   1.084 -0.0103  0.0114 -0.2627
16799PP      PP26903   5.939   7.053   4.983 -0.1336 -0.0297 -0.5460
16800PP      PP26904  13.696   5.719  10.085 -0.0885  0.0919 -0.0790
16801PP      PP26905   5.349   0.040  13.173 -0.1305  0.1968 -0.2762
16802PP      PP26906   7.893   6.579   0.630 -0.0962  0.2257  0.0495
16803PP      PP26907  13.835   3.593   7.486  0.0627  0.1560  0.1289
16804PP      PP26908  15.050  10.839   9.889  0.0972 -0.1065  0.3917
16805PP      PP26909   9.282   6.189   3.249  0.2707 -0.0667  0.2460
16806PP      PP26910   9.705   6.064   1.100  0.4537 -0.0857  0.2091
16807PP      PP26911  10.876  11.492  10.618  0.3203  0.3452  0.1924
16808PP      PP26912   6.605   7.123   1.388  0.1191 -0.2411  0.0985
16809PP      PP26913  15.085   4.077   8.931  0.1427 -0.0093  0.0915
16810PP      PP26914  10.039  10.831   1.926 -0.1158 -0.0839 -0.1927
16811PP      PP26915  12.988  10.653  12.460  0.0211 -0.1702 -0.2283
16812PP      PP26916   5.232   4.418  11.662 -0.0949 -0.0045  0.0685
16813PP      PP26917  14.308  14.820   2.730 -0.1826  0.2917  0.3017
16814PP      PP26918  14.708  15.035  12.275  0.0195  0.1036 -0.2062
16815PP      PP26919  12.295   3.831   3.540 -0.1259 -0.0562 -0.2655
16816PP      PP26920  14.581   5.070   1.515 -0.3260 -0.0936  0.2938
16817PP      PP26921  11.469  13.160  11.739  0.0728  0.0536 -0.2553
16818PP      PP26922   0.877   6.401   0.946  0.2845  0.1419  0.3195
16819PP      PP26923   7.274   4.217  11.388  0.0879 -0.1140  0.1510
16820PP      PP26924  12.173   9.547   3.535  0.1103 -0.0419  0.1143
16821PP      PP26925   3.390   4.034  12.332  0.1848  0.0181  0.2788
16822PP      PP26926   8.291   1.030   1.885  0.0611  0.2815 -0.2215
16823PP      PP26927   3.051   1.188   9.565  0.1488 -0.2266  0.1122
16824PP      PP26928  11.289   7.383   3.005  0.0489 -0.0763  0.2631
16825PP      PP26929   1.925  14.686   8.588  0.1389  0.0979 -0.0319
16826PP      PP26930   7.884   9.736  13.070 -0.0659  0.5033  0.0413
16827PP      PP26931  14.996   1.117   0.130  0.0757  0.1385 -0.2583
16828PP      PP26932   2.691  10.647   3.213 -0.2266 -0.1760  0.0171
16829PP      PP26933  15.277   8.317   2.161  0.0617 -0.1525 -0.1072
16830PP      PP26934   3.993  14.373  10.193 -0.0962 -0.0485  0.0143
16831PP      PP26935   7.560   0.603  13.235  0.0508  0.1675 -0.0142
16832PP      PP26936   7.967  13.038   0.289 -0.0215 -0.0960 -0.1362
16833PP      PP26937   0.114   8.835  11.395  0.0095  0.2396  0.1398
16834PP      PP26938  14.880  13.528   3.461  0.1125  0.2440 -0.0065
16835PP      PP26939  10.787   8.623  11.037  0.2068  0.2325  0.0927
16836PP      PP26940   1.479  11.025   2.684 -0.0862  0.0824 -0.2557
16837PP      PP26941   9.620   4.036   9.977 -0.0306  0.0244  0.2801
16838PP      PP26942   2.810  11.340   1.579 -0.1858 -0.0321  0.0221
16839PP      PP26943  11.395   9.121   3.435 -0.3176 -0.3784  0.3116
16840PP      PP26944  14.579   6.146   2.911 -0.0059 -0.0335  0.1515
16841PP      PP26945   1.250  13.724   3.971  0.2676  0.0155  0.0821
16842PP      PP26946   0.033   8.516  11.051 -0.2095  0.1655 -0.1876
16843PP      PP26947   7.903  15.770  11.099 -0.2297 -0.1122 -0.2256
16844PP      PP26948   3.894   3.050  12.542 -0.1035 -0.1899  0.3052
16845PP      PP26949   9.023   9.862  10.044 -0.0034 -0.1979  0.3213
16846PP      PP26950   3.484  14.984   9.751 -0.1913  0.2209  0.2120
16847PP      PP26951  13.864  13.843   1.900  0.0647 -0.1369  0.0369
16848PP      PP26952   1.552   2.199   3.501 -0.1310  0.0058  0.5483
16849PP      PP26953  15.441  12.919  12.140 -0.0118 -0.2069  0.1597
16850PP      PP26954   1.873  14.742   9.622  0.1562  0.0033  0.1907
16851PP      PP26955  10.163   0.852   0.615  0.0568  0.0930  0.0154
16852PP      PP26956  12.596   4.512   2.507 -0.1096  0.0830 -0.2286
16853PP      PP26957  13.628  10.210  11.993  0.0041 -0.0359  0.0698
16854PP      PP26958  13.029   7.674   0.204 -0.0606 -0.1494  0.3807
16855PP      PP26959   7.063  10.174  10.928  0.2569  0.4274  0.3903
16856PP      PP26960   5.755   2.268   1.616 -0.2810 -0.0534  0.0773
16857PP      PP26961   7.927   1.666   2.582  0.2309 -0.2206 -0.0446
16858PP      PP26962   1.938   1.224  13.364 -0.2322 -0.1860 -0.0488
16859PP      PP26963   5.228   4.546   9.088  0.0952  0.0663  0.0463
16860PP      PP26964  12.577   8.910  11.523 -0.0608 -0.0479 -0.1898
16861PP      PP26965   5.190  15.766   0.120  0.4281  0.0133  0.0859
16862PP      PP26966   7.607   8.455   4.038  0.0208 -0.0672 -0.1310
16863PP      PP26967  13.787  11.420  13.448 -0.2801 -0.1285  0.0900
16864PP      PP26968   4.560   5.078   3.091 -0.1729  0.0296 -0.1493
16865PP      PP26969   7.821  12.638   0.620  0.2347  0.2388  0.1154
16866PP      PP26970  13.079   8.809   0.614  0.0070  0.0802 -0.3812
16867PP      PP26971   8.993  12.177   4.609 -0.2637 -0.2643 -0.0155
16868PP      PP26972   7.973   8.098  13.435 -0.0755  0.3021  0.1377
16869PP      PP26973   9.377   8.792   2.368  0.1998 -0.2346  0.2807
16870PP      PP26974  11.219   9.103  12.165  0.2985 -0.0154 -0.1641
16871PP      PP26975   5.550   5.856   1.661  0.2694  0.1051 -0.0028
16872PP      PP26976   1.736   9.319  10.066 -0.0609  0.0790 -0.0033
16873PP      PP26977  11.680  14.400  11.363  0.0377 -0.0733  0.2463
16874PP      PP26978   6.234   7.965  10.526  0.0997  0.1947 -0.0104
16875PP      PP26979  11.528   8.762   1.427 -0.2487 -0.0313  0.2734
16876PP      PP26980  13.306   2.211  10.085 -0.1480 -0.2922 -0.0618
16877PP      PP26981   8.330   7.462   0.753  0.2170 -0.0059 -0.2644
16878PP      PP26982   5.394   1.044   8.429  0.0073  0.0148  0.0803
16879PP      PP26983  15.252   8.748   2.569 -0.4420  0.0830 -0.0043
16880PP      PP26984   2.866   0.353  11.319  0.1344  0.1395  0.1107
16881PP      PP26985  10.410   1.908  11.903 -0.1736  0.0548  0.1419
16882PP      PP26986   4.523  15.587   1.702  0.0761  0.1412 -0.1547
16883PP      PP26987   4.620   9.841  10.100  0.0372  0.0851 -0.0768
16884PP      PP26988   9.988  11.496   9.727  0.1987 -0.0424  0.1182
16885PP      PP26989   0.304   9.657  11.693  0.1903  0.2336  0.0807
16886PP      PP26990   4.012   0.397  12.596  0.2349  0.1225  0.2663
16887PP      PP26991   8.864  10.977   1.624 -0.0202 -0.2532  0.1064
16888PP      PP26992  12.856   2.447   2.554  0.1535  0.0428 -0.1886
16889PP      PP26993   6.511  14.333  10.041 -0.1702  0.0888 -0.0304
16890PP      PP26994  13.975  10.483  12.491 -0.0400  0.1382 -0.0084
16891PP      PP26995   5.004  10.784  11.596  0.1298  0.1074  0.3243
16892PP      PP26996  11.435  10.754  11.638  0.0455 -0.3143  0.1586
16893PP      PP26997   0.535  11.582   9.491 -0.0419 -0.2386 -0.2035
16894PP      PP26998   7.851   7.032   0.946  0.0579  0.0866 -0.2216
16895PP      PP26999   7.804  10.150   9.675 -0.2398  0.0780  0.2238
16896PP      PP27000  15.217   6.506  10.852 -0.2388 -0.3086  0.1204
16897PP      PP27001   2.602  12.283   3.544  0.1518 -0.2980 -0.2966
16898PP      PP27002  13.539   4.380  12.878 -0.2114 -0.3249  0.1524
16899PP      PP27003  12.659  11.751   8.602  0.3550 -0.1821  0.0890
16900PP      PP27004   6.735   1.706   4.189 -0.1079  0.1874  0.1907
16901PP      PP27005   0.312   6.182   9.941 -0.1016  0.0990  0.1349
16902PP      PP27006  10.479  11.349   0.710 -0.2665 -0.2333  0.0095
16903PP      PP27007  11.831  10.324   0.178  0.4689  0.0867  0.1386
16904PP      PP27008   0.869   9.887   9.583  0.0676 -0.3050 -0.0218
16905PP      PP27009  12.453  13.075   4.151  0.3129 -0.1580 -0.0387
16906PP      PP27010  12.469   2.618   0.686  0.0955  0.0303  0.0389
16907PP      PP27011  14.024   0.002   1.562  0.0683  0.0306  0.0297
16908PP      PP27012   6.923   3.485   0.779 -0.1691  0.1174 -0.1396
16909PP      PP27013   4.687  11.876   0.423  0.1420 -0.1577  0.2295
16910PP      PP27014   8.897   9.360   3.791 -0.0801 -0.0103 -0.0017
16911PP      PP27015   2.757   9.182   4.404 -0.0855 -0.2836  0.3277
16912PP      PP27016  11.648   5.232  13.044  0.0726 -0.0032 -0.1455
16913PP      PP27017  13.992  14.201   0.968 -0.3247  0.3797  0.0610
16914PP      PP27018   2.315   6.609   4.458 -0.0217  0.0801 -0.2553
16915PP      PP27019   0.771   3.893   2.792  0.2220  0.2202  0.0678
16916PP      PP27020   2.446   0.838   2.413  0.3206 -0.2624  0.2064
16917PP      PP27021   8.177   0.130   1.079 -0.2009 -0.5332  0.1159
16918PP      PP27022   4.650   6.369   2.964  0.0591 -0.0298  0.0485
16919PP      PP27023  14.159   6.091   2.626  0.0393 -0.1014  0.1023
16920PP      PP27024  11.070   4.052  10.247 -0.3457  0.0226  0.1121
16921PP      PP27025  11.945  12.216   9.690  0.0345  0.2320 -0.2653
16922PP      PP27026   2.870  13.878  12.946  0.0670  0.0228 -0.2165
16923PP      PP27027   9.602   8.357  13.276  0.0167 -0.2032 -0.0004
16924PP      PP27028  15.876   4.763   9.596 -0.0311 -0.0424  0.2248
16925PP      PP27029  15.502   9.059   9.413 -0.1685  0.0659  0.0157
16926PP      PP27030   6.446   4.101   0.858  0.4663  0.1542  0.2917
16927PP      PP27031  10.945   4.432   3.110 -0.3738  0.0020  0.0415
16928PP      PP27032  15.240  12.262   9.699  0.0253 -0.2133  0.0155
16929PP      PP27033   7.965   1.061  10.558 -0.3099 -0.1720 -0.1722
16930PP      PP27034  15.603   7.893   9.302 -0.1106  0.3875 -0.2165
16931PP      PP27035   1.367  10.417  11.934 -0.1043  0.1293 -0.2993
16932PP      PP27036   9.586  10.112   0.599  0.0866 -0.1989  0.0988
16933PP      PP27037  10.745   9.338  10.965 -0.0660  0.1693 -0.1506
16934PP      PP27038  15.342   9.032   0.078 -0.0309 -0.1727 -0.0490
16935PP      PP27039   5.630   5.062  13.210 -0.1081 -0.4132  0.0980
16936PP      PP27040  10.955  15.048  11.465 -0.2114  0.2790  0.0839
16937PP      PP27041   4.345  14.140   0.392 -0.1624 -0.1355  0.1019
16938PP      PP27042   3.082  12.244   8.974  0.0734  0.2264  0.0088
16939PP      PP27043   8.878  11.106  11.999  0.1201  0.1193 -0.1832
16940PP      PP27044   9.421   9.966  11.883 -0.1798  0.3185 -0.0654
16941PP      PP27045   7.571   1.187   0.268  0.1323 -0.1190 -0.0372
16942PP      PP27046  14.233   1.456   9.778 -0.0365 -0.1172  0.4777
16943PP      PP27047  14.440  11.177  10.179  0.2174  0.0427 -0.1549
16944PP      PP27048   7.452   2.956  11.907 -0.1354 -0.2145  0.1199
16945PP      PP27049   7.469  10.681   9.957 -0.1057 -0.1234 -0.3303
16946PP      PP27050   3.384  10.076   1.767  0.4312 -0.0594  0.1583
16947PP      PP27051  11.197   6.845   9.520  0.0800  0.1218  0.1145
16948PP      PP27052   6.821   1.401   1.921 -0.2106  0.0851 -0.1106
16949PP      PP27053   4.575   6.352  10.153 -0.1083 -0.0394 -0.0764
16950PP      PP27054   5.611  14.451   2.106  0.3139 -0.0631  0.0605
16951PP      PP27055   6.521   0.820   9.487  0.1960 -0.0005  0.1344
16952PP      PP27056   9.566  12.443   2.575 -0.1793  0.3354  0.0542
16953PP      PP27057  12.351   8.554   4.242  0.4020 -0.1401 -0.0008
16954PP      PP27058  11.991   1.173  10.772 -0.2493 -0.0666  0.1012
16955PP      PP27059  11.186   7.021  12.831  0.1500  0.2030 -0.1264
16956PP      PP27060  13.003   8.165   3.469 -0.2837  0.4452 -0.3897
16957PP      PP27061  15.685  10.202   9.956  0.5357  0.0306  0.0152
16958PP      PP27062   4.061   2.772   8.909 -0.2156  0.0336  0.1496
16959PP      PP27063  13.260   6.549   1.499  0.0634  0.0145 -0.1269
16960PP      PP27064   1.819   5.004   3.296 -0.1569  0.1970 -0.0357
16961PP      PP27065  13.030   6.314  12.027 -0.0487 -0.1150  0.1566
16962PP      PP27066   0.164   3.889   2.850  0.1538  0.1478  0.0806
16963PP      PP27067  15.583  14.796   9.456 -0.0752  0.0361  0.2052
16964PP      PP27068  13.512   6.185  11.823  0.2510 -0.0296  0.2401
16965PP      PP27069  11.250   7.874  12.147  0.1113  0.0969  0.2163
16966PP      PP27070  13.748   0.540  13.038 -0.1650  0.0943 -0.1078
16967PP      PP27071   7.816  11.398   0.967 -0.1633 -0.0374 -0.2538
16968PP      PP27072  13.288   7.037   1.363  0.0151 -0.1037 -0.1389
16969PP      PP27073  12.637   4.268  10.820  0.1016  0.2180  0.1168
16970PP      PP27074  12.012   6.588   8.867 -0.1208 -0.3271  0.4308
16971PP      PP27075   3.128   8.855  11.285  0.0339 -0.1676  0.1438
16972PP      PP27076  13.679   7.857  10.934 -0.0148  0.1363  0.1687
16973PP      PP27077   0.020   8.939  12.762 -0.0825  0.0188  0.0874
16974PP      PP27078   2.245  15.544   8.635 -0.0360  0.0215 -0.0788
16975PP      PP27079   2.383   5.664   0.918 -0.4676  0.0232  0.2787
16976PP      PP27080   7.252  14.646   0.643  0.1838 -0.2465  0.0496
16977PP      PP27081   3.365   8.173  12.421  0.0352 -0.1093  0.0010
16978PP      PP27082   4.479   6.230  10.648 -0.0838  0.2288 -0.1097
16979PP      PP27083  12.889   4.738   2.902 -0.0871 -0.0890 -0.3070
16980PP      PP27084   5.775   8.862   2.212 -0.1532  0.0066  0.3167
16981PP      PP27085  13.745  10.529  13.333  0.1643 -0.2536 -0.0845
16982PP      PP27086   1.058  13.158   8.789  0.1904  0.3406  0.0668
16983PP      PP27087   3.274   0.793   9.434  0.1112  0.1303 -0.1159
16984PP      PP27088   3.756   3.519  11.203  0.2668  0.0781  0.0556
16985PP      PP27089   5.059   0.811  13.267  0.0583  0.0269  0.0758
16986PP      PP27090  15.555   5.755   9.789  0.0346  0.1112 -0.0125
16987PP      PP27091   8.922   9.647   0.270  0.2552  0.1182  0.0903
16988PP      PP27092   1.748   5.335  13.435 -0.2318  0.1303 -0.0336
16989PP      PP27093   8.530  13.188   0.372 -0.1709  0.0822  0.5280
16990PP      PP27094  10.341   5.597  12.625  0.2002  0.3103  0.0296
16991PP      PP27095  13.700   6.237   2.482 -0.3477 -0.1004 -0.1271
16992PP      PP27096   7.344  11.508  11.247  0.0346 -0.1831  0.1311
16993PP      PP27097  10.262   8.138   1.390 -0.1117  0.2112  0.0056
16994PP      PP27098   7.423  12.418   2.047 -0.0092 -0.1699 -0.1140
16995PP      PP27099   7.161   8.450   5.113  0.1982 -0.2208  0.1097
16996PP      PP27100   9.689   9.265  11.358  0.0730 -0.0015  0.1022
16997PP      PP27101  13.846  10.643   2.015 -0.0136  0.2458  0.3753
16998PP      PP27102   6.995   9.908  12.016 -0.2848 -0.2209  0.0237
16999PP      PP27103  14.613   3.976  13.165  0.1923 -0.0859  0.1256
17000PP      PP27104   5.776  10.814   1.018  0.0575 -0.0542  0.0861
17001PP      PP27105   1.582  12.641   2.868 -0.1322  0.1722  0.1223
17002PP      PP27106   0.723   8.958   1.626 -0.1758  0.0040 -0.1124
17003PP      PP27107   3.208  11.326   1.891 -0.1568 -0.2041 -0.0570
17004PP      PP27108  12.143  15.880   1.786  0.3359 -0.4070  0.0428
17005PP      PP27109   8.142   2.061   2.968  0.4183  0.3245  0.2802
17006PP      PP27110   3.763  11.450   0.187 -0.1395  0.1305  0.0297
17007PP      PP27111   9.518   2.209   2.685 -0.2814 -0.2705  0.1828
17008PP      PP27112  10.505  14.240   3.449 -0.1512 -0.0618 -0.2464
17009PP      PP27113   1.747   2.076  12.730 -0.0957  0.0042  0.0196
17010PP      PP27114   6.396  15.808  12.009 -0.1511  0.3744 -0.0596
17011PP      PP27115  11.736   0.045   2.512  0.2259 -0.2524 -0.0772
17012PP      PP27116  12.355   4.281   8.750 -0.1016 -0.1230  0.0060
17013PP      PP27117   5.640   9.104  11.573  0.0917  0.1236  0.2793
17014PP      PP27118   7.453  10.719   0.128 -0.0138 -0.3210  0.1095
17015PP      PP27119   9.877   0.879   2.168 -0.0462  0.0740 -0.2381
17016PP      PP27120   6.402   6.257   9.933 -0.0985  0.0779 -0.1302
17017PP      PP27121   9.988  10.699   9.371 -0.1884  0.0526  0.3129
17018PP      PP27122  13.592  15.191  12.157 -0.2520  0.3257 -0.1519
17019PP      PP27123   3.908   2.891   0.968  0.0991  0.2768 -0.1295
17020PP      PP27124   7.596   3.449   3.913  0.0395  0.1364 -0.0803
17021PP      PP27125   3.370   1.106   8.508 -0.1884 -0.4249  0.0134
17022PP      PP27126  11.003  13.804   9.006 -0.0072  0.0191 -0.1811
17023PP      PP27127   2.440   3.283   8.630 -0.2875 -0.4550 -0.4348
17024PP      PP27128   6.563  15.055   2.789  0.0458 -0.1107  0.2603
17025PP      PP27129   0.032   4.908  10.193 -0.3072 -0.1646 -0.0387
17026PP      PP27130  13.893  12.218   2.750  0.1257 -0.0653  0.0066
17027PP      PP27131   8.868   1.676   3.365 -0.0931  0.4090  0.1559
17028PP      PP27132   9.076  13.053  12.370 -0.2071 -0.0531  0.0219
17029PP      PP27133   2.689  12.651   9.194 -0.0185  0.0822 -0.2129
17030PP      PP27134  10.244   7.163   8.738  0.1381  0.4547 -0.0373
17031PP      PP27135   2.842   4.085   3.610  0.1807  0.2456  0.1243
17032PP      PP27136   6.060  14.182   9.958  0.1437 -0.0103 -0.1688
17033PP      PP27137   7.575   0.209   1.039  0.1471 -0.1668  0.2421
17034PP      PP27138  11.669   3.870   9.655 -0.2408 -0.1914  0.1692
17035PP      PP27139   6.703  15.106  11.185  0.1455 -0.0426  0.1360
17036PP      PP27140   2.926   5.325  10.603 -0.0366  0.0096  0.0352
17037PP      PP27141   1.760   3.237  11.963 -0.0332  0.0518 -0.0494
17038PP      PP27142   9.922  10.572   0.439  0.1031 -0.0967 -0.0181
17039PP      PP27143  10.953   2.501   9.271  0.1627 -0.0258 -0.1298
17040PP      PP27144   2.699   3.002   3.543  0.2906 -0.2398  0.1717
17041PP      PP27145  15.381   3.783  11.361 -0.0707  0.1996  0.2128
17042PP      PP27146   2.295   1.571   9.504 -0.0457 -0.0171  0.2157
17043PP      PP27147  10.141   8.217   1.874  0.0196 -0.2587  0.2915
17044PP      PP27148   2.768  10.041   2.532  0.0655  0.1767  0.2823
17045PP      PP27149  10.176   5.525   4.055 -0.0495 -0.0141 -0.0440
17046PP      PP27150   9.127   5.910   9.295  0.3246 -0.0021 -0.1530
17047PP      PP27151  14.158  15.040   0.125 -0.1381  0.0066  0.0319
17048PP      PP27152   6.458  15.339   9.236  0.1585 -0.0028  0.3266
17049PP      PP27153  12.248  10.874   9.670  0.0215 -0.0044 -0.3925
17050PP      PP27154   5.626   0.649   3.744  0.2076 -0.0255 -0.2438
17051PP      PP27155   1.269  12.748   0.300  0.4174 -0.0350 -0.0680
17052PP      PP27156   5.338   9.621  12.978  0.2045 -0.4371  0.2535
17053PP      PP27157   1.483   2.947   8.823  0.1566 -0.2851 -0.1415
17054PP      PP27158   1.770   2.006   8.306  0.3015  0.0595  0.0931
17055PP      PP27159   0.723  15.599   3.442  0.2154  0.0176  0.2402
17056PP      PP27160   0.033  14.180  10.474  0.1416 -0.1223 -0.2577
17057PP      PP27161   6.680   1.464  10.278 -0.1578 -0.0657  0.2623
17058PP      PP27162   2.640   7.761   1.495  0.0938 -0.2875 -0.1606
17059PP      PP27163  14.252  15.637   1.237  0.0766 -0.1004  0.0549
17060PP      PP27164  11.573   0.114  10.570  0.1805  0.0902  0.0519
17061PP      PP27165  11.659   6.953  10.801  0.1775  0.2363  0.1259
17062PP      PP27166   9.961   9.165  12.919 -0.0654 -0.3012 -0.1566
17063PP      PP27167   1.598   8.975   4.643  0.0086 -0.1947  0.0225
17064PP      PP27168   1.510   1.202  10.515  0.0325  0.0542  0.1568
17065PP      PP27169   0.289  10.309   0.427  0.0880 -0.0875 -0.0023
17066PP      PP27170  10.807   8.722  12.397 -0.2351 -0.0594  0.2829
17067PP      PP27171  15.105  15.696  11.134  0.1160 -0.2971 -0.0546
17068PP      PP27172   2.179   9.220   1.176 -0.0472  0.1193  0.0975
17069PP      PP27173   6.551   0.300  10.412 -0.1461 -0.0766 -0.1559
17070PP      PP27174   2.350   4.145  12.535 -0.1728  0.1688 -0.3152
17071PP      PP27175  12.213   6.479  13.313  0.1944  0.2081 -0.0658
17072PP      PP27176  14.733  12.346   9.430 -0.1898 -0.0501 -0.1001
17073PP      PP27177  11.819  15.175  10.270 -0.0546  0.0332  0.0762
17074PP      PP27178   8.703  11.471   2.101 -0.0444  0.3592  0.4042
17075PP      PP27179  12.876  11.794   0.776 -0.2459 -0.1341  0.0484
17076PP      PP27180  15.286  12.640   3.296  0.1712  0.1080  0.1784
17077PP      PP27181   7.811   0.569   3.975 -0.3389 -0.0983  0.1108
17078PP      PP27182   6.873  12.966   3.811  0.0636  0.1573  0.1067
17079PP      PP27183   0.127  15.629   9.597  0.0449 -0.0457  0.1054
17080PP      PP27184   2.021   3.745   8.784 -0.1558  0.0204  0.0755
17081PP      PP27185   6.699   8.258  10.610  0.2115 -0.0064  0.2401
17082PP      PP27186  10.496   6.545   0.158  0.1881  0.1342 -0.0799
17083PP      PP27187   5.287   8.881   2.327 -0.2432 -0.1380  0.0515
17084PP      PP27188   2.935  13.653   1.925 -0.1925 -0.2689 -0.1907
17085PP      PP27189  13.107   1.153   1.969  0.2478 -0.0632  0.3053
17086PP      PP27190   5.213   4.072   0.731  0.2967 -0.1591  0.1815
17087PP      PP27191  13.601   4.462   2.325 -0.0971 -0.3172 -0.0144
17088PP      PP27192   3.245   0.256   1.198  0.0692  0.2601 -0.1430
17089PP      PP27193   4.664  12.123  12.463 -0.0625 -0.0393  0.0337
17090PP      PP27194  10.559   2.680  11.389  0.1013 -0.0258 -0.3302
17091PP      PP27195   1.538   4.537  10.408 -0.1519 -0.4971 -0.2709
17092PP      PP27196   9.684   1.959   1.696  0.1941  0.0643 -0.1467
17093PP      PP27197   1.260  13.868   9.566 -0.3007 -0.1278 -0.0171
17094PP      PP27198   0.937   7.652   1.034 -0.0104  0.0391  0.1823
17095PP      PP27199   7.596   4.778   2.663  0.3928  0.2006 -0.2613
17096PP      PP27200   6.403  14.473   3.977  0.1689 -0.2538  0.1485
17097PP      PP27201   0.098   6.255  12.966 -0.2789  0.2173 -0.0938
17098PP      PP27202  14.798  13.051   9.470  0.0656 -0.1905  0.1572
17099PP      PP27203   4.497   2.182   0.555 -0.3740 -0.1839 -0.1550
17100PP      PP27204  13.953   7.615   2.253 -0.0718  0.2079  0.0146
17101PP      PP27205  13.810   5.134   0.361  0.2917  0.0649 -0.0571
17102PP      PP27206  11.594   2.879   1.527 -0.2393  0.1292  0.1642
17103PP      PP27207   2.901   8.209  12.701  0.0480  0.0146 -0.0339
17104PP      PP27208   0.071  14.931   8.929  0.2861  0.2550 -0.1857
17105PP      PP27209   2.442   1.225   1.610 -0.2611 -0.2721 -0.1450
17106PP      PP27210   1.991  15.624   9.926  0.0629 -0.0891 -0.2400
17107PP      PP27211   9.565   8.634  10.344 -0.1250  0.0167  0.0874
17108PP      PP27212   0.712   1.784   1.974  0.1069  0.0060 -0.4197
17109PP      PP27213  13.290  14.451   8.154  0.1364 -0.0380  0.2328
17110PP      PP27214  11.236  13.309  10.711  0.0674  0.0828  0.1276
17111PP      PP27215   9.048  10.366   0.731  0.0366 -0.0185  0.0492
17112PP      PP27216   3.032   2.528   9.824  0.1651  0.0198  0.2875
17113PP      PP27217  11.026  15.492  11.135 -0.2593 -0.4313 -0.1475
17114PP      PP27218   0.816   8.016   1.492  0.0379  0.0180  0.0905
17115PP      PP27219   0.256  10.828  11.346 -0.1949  0.3337 -0.1288
17116PP      PP27220  13.476   9.263  11.393  0.0895 -0.3407 -0.1322
17117PP      PP27221   6.852  13.090  13.030  0.0689 -0.1050 -0.1351
17118PP      PP27222  13.432  12.139  10.227  0.1141  0.5182 -0.1043
17119PP      PP27223  12.640  13.046  10.961 -0.0141  0.0069 -0.1389
17120PP      PP27224   1.223  12.645  11.220 -0.0068 -0.1323  0.0389
17121PP      PP27225   4.565   5.511   3.435 -0.1305  0.1368 -0.3595
17122PP      PP27226   3.819  10.247   0.581 -0.1440  0.0970  0.1474
17123PP      PP27227   5.272   1.526  12.464 -0.1188 -0.0457 -0.0967
17124PP      PP27228   9.582   4.850   0.871  0.0286 -0.0805 -0.0708
17125PP      PP27229  11.953   5.865  10.238  0.1476  0.1303 -0.2424
17126PP      PP27230  11.583  12.633   0.409  0.1339 -0.0220 -0.0434
17127PP      PP27231  13.745   5.012  13.062  0.0084  0.1399  0.0417
17128PP      PP27232   3.828   4.316   1.046 -0.0268  0.0384 -0.1823
17129PP      PP27233   4.690   5.860   3.822 -0.0033  0.1710 -0.0679
17130PP      PP27234   7.909   7.185  10.267  0.5098 -0.1170  0.0416
17131PP      PP27235   4.811  11.818   1.378 -0.3411 -0.2881 -0.5999
17132PP      PP27236   3.046   1.073   3.795 -0.1186 -0.0157  0.2990
17133PP      PP27237   6.828   4.155   3.617  0.0627 -0.1294 -0.0619
17134PP      PP27238  11.362   9.396   4.161  0.0877 -0.2755  0.0260
17135PP      PP27239   0.434   5.272  11.236 -0.0409  0.1792  0.0423
17136PP      PP27240   1.421   6.744   1.599  0.1525  0.1787  0.2423
17137PP      PP27241  13.457   9.342  13.214  0.0780  0.0671 -0.1654
17138PP      PP27242  14.578   4.140   8.723  0.0305 -0.0811 -0.3251
17139PP      PP27243  11.963   1.939   1.009  0.0432  0.0854 -0.0244
17140PP      PP27244  13.653  15.380   2.301  0.0285 -0.5682 -0.3142
17141PP      PP27245   8.393  10.706   4.820 -0.3656  0.1345 -0.0323
17142PP      PP27246  15.138  11.781  11.569 -0.1227  0.3435 -0.3642
17143PP      PP27247   7.692   5.865  13.323 -0.0010  0.2386 -0.1779
17144PP      PP27248  11.514   5.260   9.578 -0.1910 -0.1829 -0.0191
17145PP      PP27249   0.571   4.360   9.375 -0.0065  0.1306  0.2092
17146PP      PP27250   5.692   3.932  10.281 -0.1012  0.0769 -0.2510
17147PP      PP27251   4.006   0.867   2.889 -0.2694 -0.0022 -0.0296
17148PP      PP27252   1.951   8.856   9.129 -0.1091 -0.0014  0.0693
17149PP      PP27253  12.323  13.675  11.864 -0.1786 -0.3001  0.1089
17150PP      PP27254  11.251  15.162  13.335  0.0076  0.2478  0.1911
17151PP      PP27255  13.425  15.409   0.330 -0.2230  0.1998  0.3469
17152PP      PP27256   1.189   3.839   9.077 -0.0148  0.2362 -0.0386
17153PP      PP27257   1.312   7.229  12.184  0.3597 -0.1107  0.1574
17154PP      PP27258   8.075   8.784  13.047 -0.1335  0.2179 -0.2239
17155PP      PP27259  12.596  13.120   2.650 -0.0664  0.0084  0.3932
17156PP      PP27260  11.426   6.719  12.488  0.2907  0.3405 -0.2468
17157PP      PP27261   4.367   0.098  11.006  0.0656  0.2046  0.2610
17158PP      PP27262  12.825   2.738   2.100 -0.1023 -0.0282  0.1936
17159PP      PP27263   8.332   9.199   9.976 -0.2258  0.1605  0.3021
17160PP      PP27264   3.838  14.872   8.248 -0.0518 -0.2625 -0.0079
17161PP      PP27265  13.072   7.455  12.430 -0.0043  0.0930 -0.0145
17162PP      PP27266  11.557  11.412   1.404  0.0305  0.2013 -0.3853
17163PP      PP27267  15.512  13.266   8.963  0.3168  0.1932  0.3589
17164PP      PP27268   5.894  11.297   3.982  0.0084  0.2750 -0.0089
17165PP      PP27269  12.155   2.690   0.202  0.1218 -0.3808 -0.2681
17166PP      PP27270   4.266  12.163  13.291  0.1982  0.1211 -0.1140
17167PP      PP27271   6.163   3.644  11.127 -0.0120 -0.1117 -0.0561
17168PP      PP27272   1.546  12.161   1.278  0.5183 -0.0025 -0.2012
17169PP      PP27273   9.488   6.183  10.012 -0.2626  0.2982  0.1538
17170PP      PP27274   5.280   0.465   0.169  0.1174 -0.2741  0.1270
17171PP      PP27275   1.736   0.778   3.195  0.0682 -0.1882 -0.0168
17172PP      PP27276  15.594   9.763   0.569 -0.1814 -0.2608  0.1205
17173PP      PP27277   2.899  12.863   8.818  0.0400  0.0112  0.2238
17174PP      PP27278  11.066   7.276   1.881  0.1242  0.3173  0.1395
17175PP      PP27279   3.287   2.859   8.413  0.0621 -0.1816 -0.0566
17176PP      PP27280  10.039   3.704   9.382  0.2112 -0.1115 -0.0321
17177PP      PP27281   1.074   6.758   4.215 -0.2836 -0.1001 -0.1679
17178PP      PP27282   2.369  15.657  13.160 -0.1404  0.0072 -0.1437
17179PP      PP27283   5.879   2.963  11.727  0.3509 -0.1415 -0.0296
17180PP      PP27284   9.412   1.908   3.514 -0.1001  0.1432 -0.0777
17181PP      PP27285   5.672   6.643   4.751  0.2143  0.1893 -0.1321
17182PP      PP27286   7.540   7.775  11.003 -0.0701 -0.1514  0.0854
17183PP      PP27287   3.750   5.645   0.328  0.2830  0.2229 -0.2821
17184PP      PP27288   6.329   5.565  12.897 -0.1095 -0.2235 -0.1080
17185PP      PP27289   4.367   4.137  13.398 -0.0828 -0.2854  0.4566
17186PP      PP27290   9.939   9.984   9.681 -0.2143  0.1936  0.2481
17187PP      PP27291   3.633   6.666   1.089  0.3201 -0.0557  0.1016
17188PP      PP27292   6.497  10.466  11.789  0.0910  0.1880 -0.0667
17189PP      PP27293  10.232   8.849  12.636 -0.1324  0.1970 -0.0268
17190PP      PP27294  10.116  14.108  10.002  0.1322  0.2135 -0.4725
17191PP      PP27295   0.982   9.204   8.709 -0.3630  0.0802 -0.0653
17192PP      PP27296  12.131   4.008   0.806 -0.0599  0.3200 -0.0470
17193PP      PP27297   8.458  11.358  10.510  0.0867 -0.0228  0.2310
17194PP      PP27298   3.091   4.672   1.295 -0.2134 -0.1347  0.2243
17195PP      PP27299   2.673  14.942   1.078 -0.1442 -0.1376  0.0956
17196PP      PP27300   6.038   7.354   3.600  0.0909  0.0254  0.0783
17197PP      PP27301   4.257   9.525  10.491  0.0214 -0.4528  0.0215
17198PP      PP27302   9.802   7.497  12.289 -0.1216  0.0670  0.2401
17199PP      PP27303  10.078  10.323   3.529 -0.1760 -0.1484 -0.2066
17200PP      PP27304  12.760  12.391  11.812 -0.1668  0.1194  0.0059
17201PP      PP27305   8.640   9.560   2.478  0.0499  0.2299 -0.0797
17202PP      PP27306   8.296   0.548   0.270 -0.1873 -0.0733  0.2495
17203PP      PP27307   4.421   9.376   8.873 -0.1580 -0.1126 -0.3363
17204PP      PP27308   7.333   3.768  12.438  0.0609  0.0994  0.0160
17205PP      PP27309  11.457   8.584   4.402 -0.0538 -0.1499 -0.2038
17206PP      PP27310   2.682  15.829   8.745  0.0726  0.0123  0.1836
17207PP      PP27311   7.312   5.887   9.928  0.1428 -0.0806 -0.4149
17208PP      PP27312  13.742  15.278  10.789  0.2787  0.0015  0.3008
17209PP      PP27313  10.999   6.967  11.700  0.2113  0.0502  0.1635
17210PP      PP27314  15.596  14.832   3.743  0.2476  0.2916 -0.1802
17211PP      PP27315   8.434   1.156  10.750  0.3135 -0.1617  0.1301
17212PP      PP27316  11.426   7.144  11.561  0.0837  0.3005 -0.1647
17213PP      PP27317  14.542  13.372  12.635  0.2248 -0.0595  0.0276
17214PP      PP27318   2.591   0.404  12.404  0.2122 -0.0830  0.0346
17215PP      PP27319   3.552   2.352   2.720 -0.0588  0.1847 -0.0647
17216PP      PP27320   2.692   3.216  12.467 -0.3810 -0.1809 -0.0808
17217PP      PP27321   4.167  15.466  13.025 -0.0327 -0.1746  0.2494
17218PP      PP27322   5.834  15.298  10.885  0.1924 -0.0135  0.1261
17219PP      PP27323   5.544   1.981  12.269 -0.0133  0.1531  0.2207
17220PP      PP27324  11.853  14.527   1.151  0.2708 -0.0080  0.0696
17221PP      PP27325  13.789   1.019  12.119 -0.2454 -0.1182  0.0537
17222PP      PP27326   5.464   4.168  13.303 -0.1839  0.1401 -0.0621
17223PP      PP27327   3.667   5.103   1.768  0.0131  0.5390 -0.1528
17224PP      PP27328   7.211   7.660   2.893  0.1091  0.0392 -0.2749
17225PP      PP27329   9.948   7.807   3.505 -0.0912  0.0806  0.0246
17226PP      PP27330  12.592   5.027  11.214 -0.2316  0.1280  0.1265
17227PP      PP27331   3.259   7.207   9.973 -0.2588  0.0646 -0.0454
17228PP      PP27332   6.290  10.925   0.809 -0.0264 -0.0184  0.0605
17229PP      PP27333  11.421   0.642   1.324  0.1222 -0.0602  0.0502
17230PP      PP27334   4.448   2.959   0.307 -0.1155 -0.1844 -0.0752
17231PP      PP27335   0.533   3.582   9.779 -0.0552 -0.1964 -0.3354
17232PP      PP27336  11.786  10.140  10.125 -0.1789  0.0416  0.0715
17233PP      PP27337  12.191   6.437   3.435 -0.0805  0.1103  0.3460
17234PP      PP27338   9.526   4.934  11.028  0.3321  0.0861  0.0325
17235PP      PP27339   7.921  14.286   4.518 -0.1845  0.2420 -0.0487
17236PP      PP27340  12.205  14.566  13.316  0.0004  0.1746  0.0265
17237PP      PP27341   3.368   6.246   2.520 -0.1331  0.0828 -0.1847
17238PP      PP27342  13.908   8.443   1.930  0.1257 -0.1455  0.4235
17239PP      PP27343   5.463   1.988   9.045 -0.2557  0.1033  0.1877
17240PP      PP27344  12.300   1.483  12.576  0.1113  0.0630  0.0384
17241PP      PP27345   8.227   1.753   4.547 -0.2846  0.0048 -0.0880
17242PP      PP27346  15.872  12.266   1.460  0.1062  0.0114 -0.0801
17243PP      PP27347  12.741   8.837  12.361  0.0646  0.0676  0.0058
17244PP      PP27348   7.637   0.080  12.915 -0.3255 -0.0531 -0.2110
17245PP      PP27349   6.794   6.771   1.033  0.0734  0.1205 -0.0010
17246PP      PP27350   9.366   3.347  10.541  0.2192  0.0628 -0.1080
17247PP      PP27351   6.330  14.959   2.385 -0.0415  0.0815 -0.2718
17248PP      PP27352  10.146  13.026   0.985  0.2389  0.0518  0.0174
17249PP      PP27353  13.761  10.975   3.094 -0.3460 -0.0823  0.0398
17250PP      PP27354   5.870   8.256  11.559 -0.1632 -0.1580 -0.0233
17251PP      PP27355  10.081  10.651   2.818 -0.2434 -0.1987 -0.0305
17252PP      PP27356  10.067  12.284   1.795  0.1651 -0.2482 -0.2375
17253PP      PP27357  11.576   6.083   8.327 -0.0841  0.2516 -0.2666
17254PP      PP27358   9.129  14.159  11.408  0.1056  0.1446 -0.0432
17255PP      PP27359   8.266   0.447  11.449  0.1347 -0.0225  0.2382
17256PP      PP27360   8.464   1.937   2.545 -0.0872  0.0610 -0.1516
17257PP      PP27361   9.284  12.083   4.120  0.1177 -0.1142  0.1459
17258PP      PP27362  13.512  14.568   2.680 -0.1695  0.0418  0.1754
17259PP      PP27363  14.154  14.231   8.213  0.0289 -0.0751  0.2539
17260PP      PP27364   3.035  13.511  12.488 -0.4107  0.0521  0.1120
17261PP      PP27365   0.075   4.768   2.881  0.0987  0.2175  0.3677
17262PP      PP27366  15.012  14.239  12.563 -0.0323  0.3005  0.1389
17263PP      PP27367   6.891   0.483   4.465  0.0441 -0.0928 -0.1588
17264PP      PP27368  12.390   5.052   1.354  0.0178 -0.0940 -0.1318
17265PP      PP27369   3.255   2.018  10.027  0.0332  0.2527 -0.0552
17266PP      PP27370  14.678   7.366   3.491  0.0068  0.0204 -0.0541
17267PP      PP27371   4.361  14.018  12.628 -0.1276 -0.2551 -0.0420
17268PP      PP27372   4.849  12.287   3.825 -0.0346  0.0377 -0.1385
17269PP      PP27373  15.044   0.383  13.398 -0.2182  0.1601 -0.0920
17270PP      PP27374   1.790  14.324   3.385  0.0411 -0.0892 -0.2469
17271PP      PP27375  13.499  13.354   2.809  0.0819 -0.1179  0.0221
17272PP      PP27376   2.122  12.981   3.492  0.0198  0.0099  0.0128
17273PP      PP27377   4.777   2.232  11.976  0.0633  0.4275  0.0100
17274PP      PP27378  11.885   3.243   3.420 -0.2595 -0.1990  0.0543
17275PP      PP27379   3.539   2.119   1.668 -0.1239  0.0702  0.1662
17276PP      PP27380  10.050   9.285   0.720 -0.0402 -0.0006 -0.0426
17277PP      PP27381   9.373  13.499  12.116  0.0218 -0.2044  0.1028
17278PP      PP27382  15.067   7.196   9.944  0.0264 -0.2045  0.1320
17279PP      PP27383  10.377  11.731  11.166 -0.2249  0.2367  0.2704
17280PP      PP27384   5.125   0.433   0.754  0.0620 -0.1254 -0.2145
17281PP      PP27385   4.042   3.194   2.918  0.0779 -0.1276  0.3708
17282PP      PP27386   0.120   1.959  13.012  0.2018  0.0269  0.1690
17283PP      PP27387  11.738   4.193   1.062  0.3162  0.1315  0.0515
17284PP      PP27388   8.424   7.414  13.320  0.0226 -0.2026 -0.1697
17285PP      PP27389   6.246  15.417   3.673  0.0646 -0.1964  0.0272
17286PP      PP27390   6.181   3.966   2.230 -0.0391  0.0868 -0.1966
17287PP      PP27391  15.571  14.995   1.859 -0.1162 -0.0906 -0.1597
17288PP      PP27392   3.927   5.483  11.879 -0.0262 -0.0546  0.1408
17289PP      PP27393   6.032   4.882   3.777 -0.0526 -0.2246  0.0657
17290PP      PP27394   5.056  14.999   0.041 -0.2668  0.1504  0.0236
17291PP      PP27395   2.097  10.062  11.975 -0.0765 -0.0642  0.0552
17292PP      PP27396   3.773   1.918   2.830 -0.3623 -0.0772  0.0048
17293PP      PP27397   4.309  14.131   0.886  0.1114 -0.0054  0.0251
17294PP      PP27398   6.134   2.873   8.356  0.2304 -0.0861  0.1498
17295PP      PP27399   1.654   2.503  12.129  0.1780  0.0726  0.0733
17296PP      PP27400   8.079   8.084   2.632 -0.0876  0.0402  0.3984
17297PP      PP27401   5.535  15.744  11.913 -0.0758 -0.1098  0.1982
17298PP      PP27402  15.222   5.660  13.302  0.2203 -0.0950 -0.1608
17299PP      PP27403   7.003   3.302   3.112 -0.0365  0.1380  0.1828
17300PP      PP27404  10.168  13.774  10.874 -0.0029  0.1982 -0.0275
17301PP      PP27405   4.197   8.538  12.137 -0.0004  0.1947 -0.1481
17302PP      PP27406  13.480   4.496   9.527  0.0027  0.2572 -0.2737
17303PP      PP27407   1.605   9.030  13.058  0.1853 -0.0800  0.0236
17304PP      PP27408   1.083  14.200   2.117 -0.0541 -0.0964 -0.0027
17305PP      PP27409   6.681   4.303  12.217 -0.1659  0.1773 -0.1478
17306PP      PP27410   6.237   1.783   3.057  0.1960  0.0916  0.0068
17307PP      PP27411  11.614  11.392  11.760 -0.4989 -0.0704  0.1463
17308PP      PP27412  14.598   8.531   2.923 -0.0533  0.1069 -0.0166
17309PP      PP27413  10.058   6.932   0.527  0.1525 -0.1592 -0.0053
17310PP      PP27414   0.993  13.862  11.751 -0.2015 -0.2596  0.0199
17311PP      PP27415   6.668   0.021   0.530  0.3420  0.0644 -0.0979
17312PP      PP27416  14.982  15.610   9.529  0.1717  0.0515 -0.0967
17313PP      PP27417   2.355   3.454  11.556 -0.2584  0.1610  0.2213
17314PP      PP27418   5.439  11.274   0.934  0.1523  0.2221 -0.0127
17315PP      PP27419   4.217  10.982  12.344 -0.1744 -0.0335  0.2222
17316PP      PP27420   0.248   8.060  11.085 -0.0248 -0.1410 -0.1913
17317PP      PP27421  12.605   4.402  13.240  0.0056  0.0210  0.0117
17318PP      PP27422   0.633   0.510   0.334  0.2713 -0.0771  0.2796
17319PP      PP27423   1.926  10.428  11.702  0.2116  0.2312  0.1737
17320PP      PP27424   8.889   7.590   2.608 -0.0439  0.1553  0.1475
17321PP      PP27425   6.120  11.190  13.470 -0.0296 -0.1443  0.1518
17322PP      PP27426   6.829  10.667  11.490  0.1028 -0.0729  0.1215
17323PP      PP27427   5.250  13.590  13.108  0.0688  0.0069 -0.0189
17324PP      PP27428  14.641   0.165   8.649 -0.0987 -0.3255  0.1648
17325PP      PP27429  13.531   4.883  12.150 -0.1814 -0.0990  0.2708
17326PP      PP27430   3.193   0.792   8.076  0.0050  0.1078  0.0347
17327PP      PP27431   7.912   6.455  10.911  0.1175 -0.1869 -0.2900
17328PP      PP27432   7.547  14.482   1.136  0.3343  0.2714 -0.2220
17329PP      PP27433   5.088   9.390  10.894 -0.3669 -0.0091 -0.1350
17330PP      PP27434   1.579  14.125   1.876  0.0400 -0.3480 -0.1412
17331PP      PP27435   6.484  14.401   1.679  0.0857 -0.3589 -0.0368
17332PP      PP27436   7.833   0.383   9.067 -0.1311  0.1936  0.0778
17333PP      PP27437   0.102   3.891   0.130  0.0320  0.0921 -0.1160
17334PP      PP27438   9.920   7.234  10.667  0.1332  0.1476  0.0925
17335PP      PP27439   8.002   6.069   3.373 -0.2604 -0.0783  0.4569
17336PP      PP27440  13.238   4.980   4.270 -0.1672 -0.0924  0.0250
17337PP      PP27441   7.253   7.003   1.234  0.1283  0.2503  0.0387
17338PP      PP27442   2.726  11.578   2.002  0.3828  0.3223 -0.0300
17339PP      PP27443   3.948  12.081   3.622 -0.0223 -0.0190  0.3948
17340PP      PP27444   2.964  13.402   3.752  0.0460 -0.3225  0.1601
17341PP      PP27445  13.936   6.497   3.507 -0.2460 -0.1706  0.2832
17342PP      PP27446  13.681  13.803   2.682 -0.1677 -0.3154  0.1271
17343PP      PP27447   4.804   0.284   9.963 -0.0912 -0.0861  0.2260
17344PP      PP27448  11.366  10.288   1.613  0.1635 -0.2657 -0.1035
17345PP      PP27449  13.570  15.229   2.762 -0.0993  0.1253 -0.0310
17346PP      PP27450  10.274  12.172  12.684 -0.1135 -0.1912 -0.1961
17347PP      PP27451   6.789   4.399  10.046 -0.0536  0.1990  0.0882
17348PP      PP27452  15.299   3.075   9.269  0.0525  0.1585  0.0494
17349PP      PP27453   1.817  10.812  12.058 -0.2113  0.1101  0.1649
17350PP      PP27454  15.088  13.438   0.540 -0.1990 -0.3844 -0.0412
17351PP      PP27455   2.199   3.696  11.963  0.1660 -0.6599  0.0419
17352PP      PP27456  13.524   2.489   1.872 -0.1039 -0.2346  0.0413
17353PP      PP27457   2.775   6.150   2.287 -0.0711 -0.1260  0.1701
17354PP      PP27458   9.074   7.703   3.617  0.2752  0.2932 -0.0824
17355PP      PP27459   2.669   8.862  11.681  0.0721  0.1497 -0.0866
17356PP      PP27460  14.665   3.008   2.414  0.1432 -0.1380 -0.2209
17357PP      PP27461   1.993   3.085  11.513 -0.2801 -0.3438 -0.0494
17358PP      PP27462   9.667  13.418   2.811 -0.0065 -0.0697 -0.2164
17359PP      PP27463   8.128   3.794   2.329  0.1376  0.0605  0.0385
17360PP      PP27464   8.238  11.847   3.785  0.0784 -0.1414 -0.1455
17361PP      PP27465   5.233   6.414   2.948  0.1641 -0.1301  0.3548
17362PP      PP27466   4.388   9.906  12.703  0.5373 -0.2647 -0.0645
17363PP      PP27467   0.058   0.402  11.491  0.2807  0.3421  0.3463
17364PP      PP27468   9.150   3.948  11.291 -0.0582 -0.0491 -0.2084
17365PP      PP27469   9.354  11.382   3.183 -0.3774  0.1928 -0.1509
17366PP      PP27470  14.560  14.328   2.430  0.2291 -0.3658 -0.0363
17367PP      PP27471  11.348  10.326  12.983  0.1089  0.2135  0.0509
17368PP      PP27472   9.667   7.006   0.823  0.1552  0.0907  0.0941
17369PP      PP27473   2.102  10.233  12.499  0.2417 -0.1664 -0.1582
17370PP      PP27474   5.505   0.669   0.538 -0.3165  0.2148  0.0210
17371PP      PP27475   8.347   5.031  10.663 -0.2224  0.0313  0.1318
17372PP      PP27476  12.243   6.771  12.784 -0.0914 -0.0197 -0.2496
17373PP      PP27477  15.495   1.986  13.016 -0.0950  0.0554  0.1031
17374PP      PP27478  15.429   7.353  12.213 -0.1442 -0.0038 -0.0080
17375PP      PP27479   7.605  13.543   2.789  0.0106 -0.0730  0.2432
17376PP      PP27480   0.996   9.112  10.625 -0.3148  0.0333  0.2083
17377PP      PP27481  11.597   7.419  11.925  0.2510  0.0046  0.4587
17378PP      PP27482   2.584  14.387   9.264  0.0661 -0.0219 -0.0208
17379PP      PP27483  10.308   6.582  10.095  0.1275  0.0648 -0.2562
17380PP      PP27484   1.121   5.485   2.205 -0.1010  0.3103 -0.0237
17381PP      PP27485   7.078   8.700   9.260 -0.2469  0.1030  0.0781
17382PP      PP27486   6.505   0.539   2.866  0.0029  0.3337  0.1502
17383PP      PP27487  15.841   4.960   8.628  0.0136  0.2257  0.0423
17384PP      PP27488  15.051  14.624  10.322 -0.0832  0.1267  0.2121
17385PP      PP27489   7.744  14.276   0.745  0.0812 -0.3820  0.2255
17386PP      PP27490   2.431  10.804   2.103  0.1538  0.3628  0.1438
17387PP      PP27491   0.476   0.294   2.711  0.1989  0.1706 -0.2057
17388PP      PP27492   1.063  11.276   9.943  0.1253  0.1669 -0.4522
17389PP      PP27493  11.319   9.459  10.858 -0.0025 -0.3210  0.1060
17390PP      PP27494   4.093   5.773  11.013 -0.0117 -0.1212  0.1051
17391PP      PP27495   5.603   6.082   2.660  0.0423  0.2401  0.2433
17392PP      PP27496   7.208  14.160   9.332 -0.0741  0.1737 -0.0402
17393PP      PP27497   1.581  14.026   2.449 -0.1729 -0.1108  0.0932
17394PP      PP27498   1.388   9.331  13.408 -0.0612 -0.1828  0.4097
17395PP      PP27499   5.869  15.654   1.664 -0.0304 -0.2579 -0.0962
17396PP      PP27500   2.883   5.434   2.334  0.1319  0.2185  0.1672
17397PP      PP27501  10.742  13.628   2.705  0.0873  0.0426 -0.0623
17398PP      PP27502   3.863   8.349   4.796  0.2500 -0.0080  0.0175
17399PP      PP27503   3.686   2.984   1.443  0.3109 -0.0474 -0.1829
17400PP      PP27504   1.124  14.368  10.232 -0.0844  0.0380 -0.1156
17401PP      PP27505   4.925  14.412  11.024 -0.1282 -0.1044 -0.1281
17402PP      PP27506   4.813   6.221   0.829 -0.0214 -0.0988  0.1186
17403PP      PP27507   5.969   7.730  13.088  0.0681  0.2390 -0.0556
17404PP      PP27508  15.173  11.660   0.442 -0.0343  0.0287 -0.1339
17405PP      PP27509  12.725  14.320   0.707  0.2541  0.2283 -0.1341
17406PP      PP27510   7.362  10.630   1.916 -0.2679 -0.1408  0.3275
17407PP      PP27511   4.778  11.029   1.644  0.0535 -0.1275  0.2307
17408PP      PP27512   9.723  10.289   9.340 -0.1553  0.0266 -0.3433
17409PP      PP27513   4.147   3.997  13.005  0.3734  0.1916  0.2012
17410PP      PP27514   0.577   8.056   3.507  0.1139  0.2107  0.0247
17411PP      PP27515  13.415   3.000   2.854 -0.0983  0.0317  0.0589
17412PP      PP27516  11.993   8.128   1.615  0.1510 -0.3102  0.1859
17413PP      PP27517   0.987  10.642   8.528  0.2844  0.0258  0.0802
17414PP      PP27518   5.094  14.014   1.019  0.3158  0.2097 -0.2131
17415PP      PP27519  11.262  10.024  10.119  0.1034  0.0791  0.4727
17416PP      PP27520   5.691   4.321   8.873  0.0345 -0.0616 -0.0516
17417PP      PP27521   6.193   3.912   3.254  0.0258  0.0849 -0.0134
17418PP      PP27522  12.807  13.393   3.133 -0.0789  0.0416 -0.0458
17419PP      PP27523  10.280   1.158   2.516 -0.0924 -0.1036  0.1708
17420PP      PP27524   1.251   8.739   8.251  0.2066  0.1176  0.1564
17421PP      PP27525   3.058   9.359  12.099  0.1525 -0.1956  0.1069
17422PP      PP27526   1.167   9.839   2.033  0.0153 -0.1922 -0.2474
17423PP      PP27527  10.562  13.991   2.460 -0.0764  0.1621 -0.0557
17424PP      PP27528   4.700  15.482   2.165 -0.0087 -0.1374 -0.2075
17425PP      PP27529  13.571   9.798  11.520  0.3187 -0.1259  0.0750
17426PP      PP27530   1.975  12.386  10.300 -0.2792 -0.2121  0.1376
17427PP      PP27531   8.166  13.799   4.293 -0.4140 -0.2376  0.0713
17428PP      PP27532  15.434   6.127  12.800 -0.0336 -0.0218 -0.1723
17429PP      PP27533  14.037   5.909   3.714  0.2121 -0.2352  0.0487
17430PP      PP27534  15.083   5.801  11.882  0.0050 -0.2422  0.1474
17431PP      PP27535  11.586  15.202   9.804  0.1068 -0.0376  0.1282
17432PP      PP27536   3.125   4.142   9.733 -0.1772  0.0440 -0.0846
17433PP      PP27537   3.516  15.195  11.950 -0.0166  0.0969 -0.0274
17434PP      PP27538   9.198  12.590   0.279  0.2540  0.0961 -0.0878
17435PP      PP27539   0.455   5.044  11.736  0.2679  0.0553  0.0019
17436PP      PP27540  13.327   2.819   2.328 -0.0944  0.0528  0.0591
17437PP      PP27541   7.319   8.320  12.063  0.1651  0.1792 -0.3162
17438PP      PP27542   9.813  11.222   1.326  0.3135  0.0699  0.2460
17439PP      PP27543  13.736   2.155   8.857  0.4209 -0.1950  0.1369
17440PP      PP27544   8.679  12.948  13.454  0.2282  0.0658 -0.0011
17441PP      PP27545  14.159  15.098  12.119 -0.2379 -0.0670 -0.3811
17442PP      PP27546  10.233   7.868   0.463  0.1812  0.0266  0.2837
17443PP      PP27547  11.084  12.021  10.538 -0.1578  0.1327  0.0662
17444PP      PP27548  10.500  11.606   9.802  0.2149  0.0430  0.1708
17445PP      PP27549   8.044   8.199  11.053 -0.1818  0.2027  0.0408
17446PP      PP27550   1.787   7.069   9.726 -0.0976  0.0340  0.1212
17447PP      PP27551   1.615   3.209  12.740 -0.1763 -0.0052  0.3155
17448PP      PP27552   9.514   7.504   1.009 -0.2394 -0.2715  0.0084
17449PP      PP27553   8.679   6.173  12.544  0.1929 -0.0595 -0.0510
17450PP      PP27554  12.684   6.602   3.334  0.2977  0.0404 -0.0223
17451PP      PP27555   0.070   4.078  13.118 -0.0795 -0.0205  0.0026
17452PP      PP27556  10.588   4.251   4.556 -0.0998  0.1680 -0.1490
17453PP      PP27557   5.888  15.651  13.174  0.0970 -0.0365 -0.1716
17454PP      PP27558   2.772   8.285   2.994 -0.2292  0.2341  0.0794
17455PP      PP27559   6.799  15.650   4.419  0.1310 -0.0321 -0.0674
17456PP      PP27560  12.167  15.444  10.868 -0.2896 -0.0809  0.0294
17457PP      PP27561   9.199   8.314  10.165  0.3015  0.1220  0.3684
17458PP      PP27562   5.214   5.827  11.093  0.1752 -0.0968 -0.2067
17459PP      PP27563   0.517   9.701   2.170 -0.1209 -0.2951 -0.2319
17460PP      PP27564   8.015   1.495   1.615 -0.2960  0.1511 -0.0533
17461PP      PP27565  12.461   3.124   8.181  0.1277  0.1151  0.0092
17462PP      PP27566  10.393   8.058  11.941  0.1761  0.4007  0.3894
17463PP      PP27567   0.823   5.485  11.555 -0.0940 -0.0675 -0.1076
17464PP      PP27568   4.577   5.628   9.650 -0.1981 -0.2256  0.1682
17465PP      PP27569  12.033  12.800   1.813  0.1086 -0.2636 -0.2194
17466PP      PP27570   9.806   6.934   1.524 -0.1570 -0.0277 -0.1013
17467PP      PP27571   2.067   2.225  11.006  0.0895 -0.4237 -0.0225
17468PP      PP27572   1.209  10.419   3.223 -0.0820  0.2846 -0.3650
17469PP      PP27573   7.706  12.847   9.694  0.2863 -0.0601 -0.1323
17470PP      PP27574  14.023  11.039  13.267 -0.1472  0.1896 -0.0023
17471PP      PP27575   4.568  10.248   9.352 -0.2618 -0.2164 -0.0062
17472PP      PP27576  11.485   2.023  11.079  0.1741  0.1887  0.0892
17473PP      PP27577   2.663  13.452   0.167 -0.0337  0.0113 -0.0473
17474PP      PP27578   7.580   3.242   0.318  0.2340  0.0454 -0.1744
17475PP      PP27579  13.012  11.051   8.712  0.2229  0.2409 -0.2883
17476PP      PP27580  12.733  11.579  12.783  0.3361 -0.2077 -0.0241
17477PP      PP27581  14.401  10.532  10.290 -0.2939 -0.0364 -0.1364
17478PP      PP27582  14.290  15.568   9.026 -0.2559  0.0825  0.0148
17479PP      PP27583  11.785   3.730   0.018 -0.2039 -0.0053 -0.1263
17480PP      PP27584   3.506   9.535  11.619  0.1947 -0.1031  0.1483
17481PP      PP27585   7.492   6.320   4.122 -0.1144 -0.0155  0.1541
17482PP      PP27586   6.983   6.618   4.074 -0.2277  0.0864 -0.0366
17483PP      PP27587   5.608  12.003   0.146  0.2603 -0.0345  0.1064
17484PP      PP27588   5.543   7.889   2.218 -0.0981  0.0107  0.0213
17485PP      PP27589   7.808   8.791   4.266 -0.0910 -0.1427 -0.2366
17486PP      PP27590  11.242   3.817  10.663 -0.0685  0.1155 -0.1660
17487PP      PP27591   8.965   5.951   2.957 -0.2279  0.0461 -0.0156
17488PP      PP27592   6.280   8.997   2.120  0.3353 -0.0851 -0.2206
17489PP      PP27593   0.062   4.356   0.303  0.3074  0.1654  0.0488
17490PP      PP27594   3.662   4.291  10.604  0.3490 -0.2422 -0.0271
17491PP      PP27595   9.705   9.602   2.760  0.0983  0.1423 -0.0517
17492PP      PP27596   2.874   7.600  10.081 -0.1221 -0.1465 -0.1002
17493PP      PP27597  15.702  13.123   1.210 -0.2498 -0.1850 -0.1246
17494PP      PP27598   8.138   0.263   3.115 -0.0068 -0.0233 -0.0318
17495PP      PP27599   0.914   1.135   3.542 -0.2039  0.0047  0.0853
17496PP      PP27600  11.299   2.536   1.295 -0.0242  0.1953 -0.4738
17497PP      PP27601  15.642   6.430  13.281 -0.1710 -0.1998 -0.2987
17498PP      PP27602   1.554   8.455  12.248 -0.1907  0.2179 -0.1271
17499PP      PP27603   8.079   1.084   3.298  0.0877 -0.2082  0.3822
17500PP      PP27604  13.535   1.653  13.351 -0.0671  0.1464  0.1645
17501PP      PP27605  14.766  13.936   3.091 -0.0118 -0.2530  0.3884
17502PP      PP27606   1.613   3.765   3.896 -0.0640  0.1084  0.0032
17503PP      PP27607   7.636   8.712  11.026  0.1195  0.0819 -0.0376
17504PP      PP27608  15.695  12.763  12.508 -0.3895 -0.1786  0.2272
17505PP      PP27609   9.639   2.019   2.164 -0.2188  0.0812 -0.2060
17506PP      PP27610   2.242   1.007   0.751  0.0141  0.1815 -0.1207
17507PP      PP27611   0.358  13.642  11.268  0.1813  0.1307  0.0150
17508PP      PP27612   3.588   2.478   1.291  0.1569 -0.1389 -0.3761
17509PP      PP27613  12.579  10.012   9.997 -0.1182  0.1350  0.1764
17510PP      PP27614   8.807   0.121  12.100 -0.0886 -0.2003 -0.0318
17511PP      PP27615   0.523  10.654   1.217  0.0084 -0.1473  0.0339
17512PP      PP27616   6.840   0.527  12.637  0.0272  0.2200  0.4103
17513PP      PP27617   1.658   6.285   4.003 -0.0062  0.1034  0.1359
17514PP      PP27618  10.994  12.336  10.982  0.1015 -0.2105  0.1702
17515PP      PP27619  10.258   7.081   3.044 -0.2408  0.1747 -0.3773
17516PP      PP27620  12.315   6.336   2.941 -0.1082  0.2524  0.2935
17517PP      PP27621  13.710   2.201   3.074  0.2587  0.1371 -0.0724
17518PP      PP27622  12.219   0.274   0.781  0.1285 -0.0071 -0.0423
17519PP      PP27623   7.911  10.771  13.330 -0.1183 -0.0031 -0.1339
17520PP      PP27624   2.213   3.337   0.400  0.2758  0.0047  0.1470
17521PP      PP27625  15.736  11.780   1.570 -0.0839 -0.0160 -0.1109
17522PP      PP27626  13.276   0.337  12.904  0.1528  0.1759 -0.6677
17523PP      PP27627   8.246   6.340  10.497  0.0396 -0.2266 -0.0620
17524PP      PP27628   0.943   2.701   8.771  0.1610  0.2856  0.0605
17525PP      PP27629   7.596   5.489   3.913 -0.0417 -0.0852 -0.0878
17526PP      PP27630  15.382   7.372   1.660  0.2692 -0.1155  0.2514
17527PP      PP27631   0.302  15.033   1.985 -0.0251 -0.1098  0.2892
17528PP      PP27632  15.145  13.144   2.081 -0.0998 -0.0210 -0.1347
17529PP      PP27633  15.397  12.363  12.307  0.0479 -0.0534  0.1322
17530PP      PP27634   9.789  10.399  11.550  0.1907  0.1687 -0.1141
17531PP      PP27635   0.080   6.948  11.093 -0.1602 -0.1557  0.0124
17532PP      PP27636  14.064  14.751   1.049 -0.1627  0.0119 -0.0162
17533PP      PP27637  10.066  15.025   0.985  0.0500 -0.0271 -0.1353
17534PP      PP27638  14.272  15.652   0.033  0.0795  0.1666 -0.2101
17535PP      PP27639  10.173   3.547   1.391 -0.0072  0.0013 -0.0693
17536PP      PP27640   4.776   9.545  10.458  0.0104  0.3042 -0.2332
17537PP      PP27641   9.805  11.770   3.368 -0.0736 -0.0881  0.2677
17538PP      PP27642   9.113  12.516  12.397 -0.5556 -0.0216 -0.0580
17539PP      PP27643  13.024   9.190   4.042 -0.0201 -0.1781  0.0735
17540PP      PP27644   2.734   0.840  10.986 -0.0455 -0.0336 -0.1138
17541PP      PP27645  10.911  10.995   1.324 -0.4058  0.2328 -0.0580
17542PP      PP27646   4.802   8.962   3.725  0.2365  0.0533  0.1658
17543PP      PP27647   4.374   0.718  11.813  0.2660 -0.0028  0.0545
17544PP      PP27648   7.234   5.417  11.866  0.1751 -0.1752 -0.4729
17545PP      PP27649  14.739   6.647   1.437 -0.1297 -0.0607  0.0806
17546PP      PP27650   7.256  13.778   2.561  0.1886 -0.0368 -0.4003
17547PP      PP27651   1.134   9.518  12.555  0.1045 -0.2505  0.1200
17548PP      PP27652   4.177  13.629  11.808 -0.3671  0.5582 -0.0620
17549PP      PP27653  14.564   7.259  11.764  0.1489 -0.0520 -0.0903
17550PP      PP27654   6.833  13.457  13.451  0.1441  0.0833  0.0275
17551PP      PP27655  11.741   2.156  10.304 -0.0571  0.1671 -0.2073
17552PP      PP27656   0.616   1.163   9.963 -0.1451  0.0881 -0.2347
17553PP      PP27657   8.005  13.308  11.547  0.0705 -0.0490  0.0774
17554PP      PP27658   2.595  10.189   5.501  0.1029  0.2299  0.0327
17555PP      PP27659   1.662   0.870   2.072 -0.3311  0.3738 -0.0897
17556PP      PP27660  14.714  15.242   3.406 -0.0251 -0.0079  0.0405
17557PP      PP27661   2.199   3.319  11.083 -0.0466 -0.0883 -0.0313
17558PP      PP27662   8.200   7.361   3.465  0.3150 -0.0026 -0.0444
17559PP      PP27663  14.193   1.540  12.067  0.2362 -0.1240 -0.1952
17560PP      PP27664  15.116   0.084   3.511  0.1696  0.3151  0.2324
17561PP      PP27665   0.045   9.450  13.016  0.1375 -0.2622 -0.0322
17562PP      PP27666   1.855   3.819  10.587 -0.2383 -0.0296 -0.1122
17563PP      PP27667   4.971  13.499   0.421 -0.0236 -0.0617  0.1028
17564PP      PP27668   1.554   0.211  11.771 -0.3902  0.3899 -0.0967
17565PP      PP27669   7.761  15.463  11.684 -0.2536 -0.3835 -0.2155
17566PP      PP27670  12.086   1.995   1.563 -0.1073 -0.0787  0.1836
17567PP      PP27671   8.111   2.935   1.032  0.0497 -0.1412  0.0259
17568PP      PP27672  13.925   0.478   3.198  0.3142 -0.1611  0.1094
17569PP      PP27673   6.001   6.679  11.591  0.1623  0.0274  0.0991
17570PP      PP27674   5.166   2.651  10.576 -0.2430  0.1561  0.1916
17571PP      PP27675  14.336   5.372   0.234 -0.0381  0.4000 -0.1216
17572PP      PP27676   2.592   4.539   3.001  0.0750  0.2614 -0.2110
17573PP      PP27677   4.519   5.576  12.537  0.0926  0.1766 -0.1614
17574PP      PP27678   9.820  15.141   2.622 -0.3593  0.2494  0.0271
17575PP      PP27679   5.812  12.462  12.237  0.2390  0.0978 -0.0463
17576PP      PP27680   1.593  12.891  10.967 -0.0781 -0.0172  0.0866
17577PP      PP27681  15.766   5.046   0.902 -0.1730 -0.3777 -0.0500
17578PP      PP27682   0.434  12.469   4.104  0.1760 -0.0963 -0.1975
17579PP      PP27683   9.167  11.704  10.178 -0.1862 -0.0521 -0.1308
17580PP      PP27684  15.713   4.545   0.847 -0.0773  0.0162 -0.2327
17581PP      PP27685   1.990  14.248   0.701 -0.0238 -0.0196  0.0617
17582PP      PP27686   5.553   9.219   1.109 -0.0775  0.0346  0.1367
17583PP      PP27687   0.416  15.474   9.981  0.3158 -0.2713  0.2349
17584PP      PP27688   5.752   8.200   2.619  0.1909  0.1694  0.0091
17585PP      PP27689   6.034   0.878   4.882  0.0294  0.0104  0.0042
17586PP      PP27690  13.314   9.014  12.828  0.0149  0.0064 -0.0273
17587PP      PP27691   3.053  15.076   8.523 -0.2983 -0.1812  0.0969
17588PP      PP27692  10.397   7.340   0.703  0.2781  0.0911 -0.0023
17589PP      PP27693   3.675   1.951   8.568 -0.1315 -0.2115  0.0959
17590PP      PP27694  12.246   6.288  10.215 -0.0044  0.2014  0.0482
17591PP      PP27695   3.685   6.267  11.450 -0.0078 -0.0626 -0.1444
17592PP      PP27696   9.470   0.659  10.645 -0.1737  0.1223  0.1864
17593PP      PP27697   0.793  10.138   3.883  0.3646 -0.0443 -0.2780
17594PP      PP27698   1.636  13.360   9.000 -0.3080 -0.0431 -0.1032
17595PP      PP27699   2.457  14.288  10.452  0.0455  0.3247 -0.0776
17596PP      PP27700  13.454  14.763  13.294  0.1896 -0.0564 -0.1874
17597PP      PP27701   9.507   9.144   1.953  0.0319 -0.0168  0.1273
17598PP      PP27702  10.692   5.948  12.538 -0.0505 -0.1660  0.2743
17599PP      PP27703   9.927  15.467   1.099  0.2651  0.0163  0.0657
17600PP      PP27704   0.295   9.247   3.471 -0.1139 -0.2100  0.0220
17601PP      PP27705  15.271   7.881   1.831  0.0948  0.1086 -0.0446
17602PP      PP27706   9.827   4.548  11.188  0.0008 -0.1152  0.2483
17603PP      PP27707   8.758   8.071   9.974  0.2488 -0.3491  0.1841
17604PP      PP27708   3.816   4.070  12.580  0.0704 -0.0716 -0.0395
17605PP      PP27709  13.846  13.226  10.848 -0.1172 -0.0836  0.0588
17606PP      PP27710   1.878   0.552   8.440  0.1882  0.0578 -0.0728
17607PP      PP27711  10.918  12.111   1.525 -0.2789  0.2962  0.3109
17608PP      PP27712  10.258   9.607   2.061  0.1742 -0.1415  0.2934
17609PP      PP27713  15.417   5.321   0.324 -0.0118  0.2392  0.0602
17610PP      PP27714   5.744  10.826  13.396 -0.0778 -0.0407 -0.0812
17611PP      PP27715  10.096  14.211  12.289  0.0025 -0.2672 -0.0987
17612PP      PP27716  11.873  12.780   9.046 -0.3021 -0.1648 -0.1839
17613PP      PP27717   2.745   2.030  10.164 -0.1333 -0.0176  0.0462
17614PP      PP27718  13.544   3.869   8.728 -0.0405  0.1305 -0.1748
17615PP      PP27719   2.351   8.235   3.289  0.0118 -0.5554 -0.3472
17616PP      PP27720   7.942   2.347  12.703 -0.0810 -0.3573 -0.0274
17617PP      PP27721  14.296   4.473   9.199  0.0706 -0.0532 -0.1276
17618PP      PP27722  10.435   6.944  12.381  0.0038 -0.0271 -0.0915
17619PP      PP27723   1.632   5.232   9.427  0.0754  0.2455  0.0418
17620PP      PP27724  12.689   6.058   3.156 -0.2935  0.2003  0.4675
17621PP      PP27725   6.784   6.889   4.438  0.1554  0.0832 -0.0067
17622PP      PP27726  10.882   3.478  10.912 -0.0277  0.1775 -0.4674
17623PP      PP27727   4.655   3.046   8.099 -0.0053  0.0940  0.0736
17624PP      PP27728  14.804   0.641   1.706 -0.1709 -0.0440  0.0525
17625PP      PP27729   3.878   2.409   9.866  0.0733  0.2606  0.3001
17626PP      PP27730   9.577   2.554   2.102 -0.0567  0.0395  0.1300
17627PP      PP27731   5.028  13.706  11.959 -0.0489 -0.0066  0.0494
17628PP      PP27732   9.693   0.077  11.447 -0.1847 -0.1897  0.3027
17629PP      PP27733  14.104   4.500   3.502 -0.0365  0.0273 -0.0448
17630PP      PP27734  15.601   4.034  10.000  0.0095  0.0829  0.0310
17631PP      PP27735  12.163  15.217   9.153 -0.0601 -0.2679  0.2691
17632PP      PP27736   6.031   8.152   2.185  0.1014 -0.2869  0.0919
17633PP      PP27737   9.725  11.189   2.517 -0.1046  0.0464 -0.0577
17634PP      PP27738   9.829  10.260   1.518 -0.1238 -0.0154  0.1289
17635PP      PP27739  12.018   0.492   9.258 -0.1425 -0.2926  0.3669
17636PP      PP27740  14.873   6.253   9.932 -0.1271  0.0220  0.1008
17637PP      PP27741   6.708   9.367   4.135  0.0843 -0.0298  0.1241
17638PP      PP27742   4.987   5.925   1.621 -0.3585 -0.1169  0.1028
17639PP      PP27743   8.773   9.194   0.411 -0.1162  0.1523  0.3383
17640PP      PP27744   5.494  12.612   3.051 -0.2496  0.3551 -0.4986
17641PP      PP27745   1.630  11.295   1.565  0.1056  0.0871 -0.0198
17642PP      PP27746   2.603  12.169  11.577 -0.2200  0.0263  0.1031
17643PP      PP27747   1.283   5.071   2.769 -0.1656  0.1337  0.1465
17644PP      PP27748   0.875   0.036  11.188 -0.1448  0.0090  0.1236
17645PP      PP27749   8.566  14.022  11.587 -0.1147  0.2468  0.1348
17646PP      PP27750  11.031   9.926   2.277 -0.1483  0.1940 -0.1534
17647PP      PP27751  12.956  10.021   2.869 -0.1063 -0.1269 -0.1742
17648PP      PP27752  13.195  11.483   9.503 -0.0633 -0.1418 -0.0171
17649PP      PP27753  14.694   8.129   9.574 -0.0010  0.0376 -0.2611
17650PP      PP27754  11.915   7.665   2.968  0.0288 -0.1330 -0.2184
17651PP      PP27755   4.906  10.781  12.944 -0.0953  0.3339  0.1736
17652PP      PP27756  14.725   1.135  11.335 -0.2242 -0.2043 -0.0792
17653PP      PP27757   0.922   7.738  10.695  0.0769 -0.2156 -0.0906
17654PP      PP27758   5.146   2.949   1.961 -0.0176 -0.0825  0.0665
17655PP      PP27759  14.301  12.271   8.771 -0.2052  0.0620  0.1691
17656PP      PP27760   0.163   1.009   4.217 -0.1686 -0.2479  0.0457
17657PP      PP27761   0.421  11.869   9.111  0.1447  0.1116  0.1945
17658PP      PP27762   0.777  14.700   3.767 -0.0738  0.1093 -0.0131
17659PP      PP27763   6.633   0.825  12.135  0.0564  0.1308 -0.3516
17660PP      PP27764   8.496  15.414  12.757  0.2455 -0.1634 -0.0533
17661PP      PP27765  14.519  10.189   9.183  0.1410  0.0399 -0.1024
17662PP      PP27766   8.442   4.393  13.317  0.0521 -0.0804 -0.0761
17663PP      PP27767  10.372  15.831   9.036  0.0056 -0.3750 -0.1374
17664PP      PP27768  11.504  11.244  12.945 -0.0613  0.1836  0.2505
17665PP      PP27769   8.319   3.211   8.986  0.1556 -0.0948 -0.0834
17666PP      PP27770  11.033   8.149   9.222 -0.0620  0.1776 -0.0530
17667PP      PP27771  15.078  15.173   8.859  0.0073  0.1903 -0.3687
17668PP      PP27772  13.408  13.499  11.462 -0.0596  0.1241 -0.1465
17669PP      PP27773  13.455  13.602   8.373  0.1137 -0.0468 -0.2771
17670PP      PP27774  10.338   0.669  11.441  0.0619  0.2142  0.0621
17671PP      PP27775   6.192   9.387   4.908 -0.1240  0.0856  0.1764
17672PP      PP27776  13.711   3.607  11.230 -0.2783 -0.4335 -0.0202
17673PP      PP27777   0.211  14.054   1.233  0.1572  0.1507 -0.1580
17674PP      PP27778   9.678  12.538   9.237 -0.1752  0.0717 -0.0992
17675PP      PP27779  12.330   2.159   0.342  0.1796 -0.1823  0.1528
17676PP      PP27780   4.693  14.694   9.533 -0.1623  0.1779 -0.0424
17677PP      PP27781  15.175   5.386   9.438  0.2893 -0.2123  0.1328
17678PP      PP27782   7.005   0.595   3.678  0.1454  0.0023  0.2091
17679PP      PP27783   9.614   3.297   9.562 -0.0830  0.0375  0.0682
17680PP      PP27784   0.790   2.182  10.975 -0.0486 -0.1056  0.1210
17681PP      PP27785   1.931  11.877   4.610  0.1304 -0.2688 -0.1782
17682PP      PP27786   1.949  12.171   0.579 -0.1184 -0.4225  0.0326
17683PP      PP27787   5.700   8.721   3.729 -0.2001 -0.3351  0.0770
17684PP      PP27788  13.872   0.530   2.234 -0.0869  0.2309  0.1497
17685PP      PP27789  10.050  15.372   2.282 -0.0024  0.2009 -0.2998
17686PP      PP27790   5.241   1.073   2.861  0.0307 -0.1055 -0.5127
17687PP      PP27791  10.457   4.073  12.363  0.2590  0.2627 -0.3248
17688PP      PP27792  13.335   0.787  13.081 -0.1111 -0.3061  0.1603
17689PP      PP27793   7.420   8.211  11.128  0.0445 -0.2596 -0.0927
17690PP      PP27794  15.260   5.992   1.852  0.1389  0.0990 -0.0125
17691PP      PP27795   9.291   2.836   3.775 -0.1306  0.0815  0.2320
17692PP      PP27796  11.959  11.273   9.898  0.1016 -0.0807  0.3401
17693PP      PP27797  12.079   8.692  11.479  0.0339  0.1479  0.0007
17694PP      PP27798  12.345  11.170  12.038  0.1501  0.0038  0.0858
17695PP      PP27799   6.028  15.692   3.149 -0.0382  0.0725 -0.1453
17696PP      PP27800  13.574   3.057   9.852 -0.2873 -0.2781 -0.0810
17697PP      PP27801  12.389  15.574  11.323  0.1505  0.0556  0.3394
17698PP      PP27802   7.008  11.103   1.522  0.1874  0.2728  0.2497
17699PP      PP27803  10.356   0.118   1.007  0.4048 -0.3630 -0.0516
17700PP      PP27804  13.259   9.981   1.195 -0.0859  0.1665  0.0604
17701PP      PP27805   0.370   6.646   1.283 -0.4874  0.3799  0.3636
17702PP      PP27806  14.587  10.453   8.406  0.2120 -0.0786 -0.0046
17703PP      PP27807  12.338  15.889  12.902  0.0435  0.0732  0.1108
17704PP      PP27808   4.787  15.523  11.920 -0.0116 -0.1818  0.1082
17705PP      PP27809   8.578   6.644   0.369 -0.0610  0.2189 -0.3277
17706PP      PP27810   9.635   7.812  13.117 -0.0544 -0.0984 -0.2807
17707PP      PP27811  15.698   7.681   1.960 -0.2048  0.0467  0.1927
17708PP      PP27812  12.997   1.779  10.923 -0.0156  0.0390  0.1033
17709PP      PP27813  10.455   4.933   2.868 -0.0038 -0.0855  0.0121
17710PP      PP27814   3.986  12.152   9.673  0.0658  0.2641 -0.1544
17711PP      PP27815   0.035  15.418   1.562  0.0776  0.2774 -0.0550
17712PP      PP27816  13.699   2.150  13.122 -0.1437  0.0869  0.2791
17713PP      PP27817  10.238   2.968   0.133 -0.1036 -0.0997 -0.0251
17714PP      PP27818  11.766   9.472   1.805 -0.0066 -0.0499 -0.0180
17715PP      PP27819   2.335   8.163  12.735  0.0114  0.0278  0.2115
17716PP      PP27820   7.573   5.573   0.650  0.1435 -0.1643  0.2140
17717PP      PP27821  13.322   6.888  13.300  0.0789 -0.1457  0.0945
17718PP      PP27822   2.128  10.025  12.978  0.0559 -0.0740 -0.0721
17719PP      PP27823  14.145  14.131   9.941 -0.1897 -0.0449  0.1434
17720PP      PP27824  10.763   3.614  10.490  0.6682 -0.0356 -0.2330
17721PP      PP27825   5.618   9.963  12.709  0.1568 -0.0188 -0.0160
17722PP      PP27826   6.674  13.157  10.679  0.1597 -0.1986 -0.0147
17723PP      PP27827   6.817   4.389  13.273  0.0828 -0.4204  0.1867
17724PP      PP27828  13.865   0.828   1.821  0.0299  0.0207  0.0987
17725PP      PP27829   5.032   4.181   3.154 -0.1134  0.2145 -0.1727
17726PP      PP27830   6.212  14.061   2.838  0.0635 -0.0774 -0.2338
17727PP      PP27831   1.837   3.115   0.148  0.1150  0.2394 -0.1002
17728PP      PP27832   3.762   9.489   2.261 -0.1551  0.2625  0.1899
17729PP      PP27833   7.554   8.457  12.458 -0.0710 -0.0509  0.1491
17730PP      PP27834  10.496   9.522   0.865  0.1507 -0.1183 -0.3182
17731PP      PP27835   3.183   8.823   1.200  0.1743 -0.2332 -0.0807
17732PP      PP27836   3.265   6.562   0.509 -0.4855 -0.0351  0.2324
17733PP      PP27837   9.184   4.527   4.928 -0.1716 -0.1174 -0.0084
17734PP      PP27838  15.403   3.679   8.982  0.1488  0.2266 -0.0935
17735PP      PP27839   2.364  15.768   9.658 -0.1209  0.0853  0.0593
17736PP      PP27840   5.999   5.317   4.126 -0.1820 -0.4187 -0.1484
17737PP      PP27841   8.245  12.994  10.283 -0.1488  0.0365  0.3459
17738PP      PP27842  15.606  12.430   2.314  0.1584  0.0504 -0.1722
17739PP      PP27843   4.552   3.413   3.834 -0.1594  0.1184  0.1224
17740PP      PP27844   5.046  11.638   2.914 -0.0934  0.1016 -0.1232
17741PP      PP27845   8.179   4.835  12.970 -0.0521  0.1358  0.1777
17742PP      PP27846   3.194   8.987   2.916  0.3313 -0.1883  0.0932
17743PP      PP27847  11.919   4.852  12.358 -0.1480  0.0459 -0.0863
17744PP      PP27848  12.029   5.542   3.530  0.0437  0.2742 -0.1246
17745PP      PP27849  12.397   6.793   2.637 -0.0081 -0.1623  0.0378
17746PP      PP27850  10.546   6.254  12.878  0.1599  0.0143  0.1688
17747PP      PP27851   2.889   9.725   3.322 -0.1257 -0.1900  0.2391
17748PP      PP27852   6.985   3.568  11.662 -0.0175 -0.0063 -0.0579
17749PP      PP27853   0.877   3.009   1.604 -0.3203  0.1852 -0.1011
17750PP      PP27854   0.628   2.563   2.758 -0.2573 -0.0042  0.1046
17751PP      PP27855  11.524  14.256   0.865  0.0711  0.1730 -0.2925
17752PP      PP27856   2.052   4.491  10.355  0.1329 -0.1589 -0.2109
17753PP      PP27857  14.363   1.999  12.177  0.1146 -0.1726 -0.0895
17754PP      PP27858   4.989   7.001   1.136  0.0454 -0.0487 -0.1723
17755PP      PP27859   7.834   5.276   9.099 -0.2008  0.1470  0.3504
17756PP      PP27860  15.344  12.152   0.407 -0.1220 -0.2158  0.4815
17757PP      PP27861   2.700   6.519   3.917 -0.2612  0.1588 -0.0952
17758PP      PP27862  10.618  13.709  12.405  0.2386  0.3528 -0.0742
17759PP      PP27863  15.893  13.157  12.205  0.0586  0.1956 -0.1978
17760PP      PP27864  11.579   2.949   3.779  0.0294 -0.0388 -0.0952
17761PP      PP27865   1.298  13.895  10.253  0.0848 -0.0266 -0.1388
17762PP      PP27866   8.080   6.910  11.103  0.0099  0.1046 -0.1666
17763PP      PP27867   9.961   4.696   2.099 -0.2486 -0.1251  0.0567
17764PP      PP27868   5.946   9.492   1.348 -0.2089 -0.0819  0.1597
17765PP      PP27869  15.095   2.831   9.693 -0.2028 -0.2312  0.1042
17766PP      PP27870   9.914   4.636   0.574 -0.0091 -0.1483  0.1375
17767PP      PP27871   4.212   2.581   1.327 -0.2198  0.0961  0.0194
17768PP      PP27872   0.052  15.343  10.357 -0.0344  0.0163  0.2127
17769PP      PP27873  10.411   1.088  10.528 -0.0029  0.1340  0.0685
17770PP      PP27874  12.123   6.022  13.094 -0.0727  0.0129  0.1728
17771PP      PP27875  10.864   9.329  10.465 -0.2751  0.1695 -0.0021
17772PP      PP27876   7.561  10.360  10.696  0.2781 -0.0075  0.3941
17773PP      PP27877  13.577   0.208   1.946 -0.2049  0.1925 -0.1050
17774PP      PP27878   1.875   9.989   3.166 -0.1030 -0.2493 -0.0764
17775PP      PP27879   3.329   4.305   1.143 -0.1366  0.1025 -0.1152
17776PP      PP27880   4.201  10.288   8.790  0.4314 -0.3640  0.0156
17777PP      PP27881   5.419   2.413   0.699  0.1641  0.0073  0.0444
17778PP      PP27882  12.634   0.516   9.299 -0.2629 -0.0626  0.1656
17779PP      PP27883   7.280  10.804   2.756  0.0952 -0.1893 -0.1404
17780PP      PP27884   9.483  13.271   3.227  0.0032  0.0260  0.3655
17781PP      PP27885   9.025   6.201  13.051 -0.0468 -0.0336  0.0198
17782PP      PP27886  10.750   4.352  12.013  0.0613 -0.1247 -0.0126
17783PP      PP27887   5.971  10.987   2.399 -0.1764 -0.0858  0.0508
17784PP      PP27888   0.054  14.496  12.298  0.0826  0.0785  0.0928
17785PP      PP27889   5.285   9.623  10.352 -0.2373 -0.0621  0.6529
17786PP      PP27890  11.766  13.653  13.073 -0.1052  0.0242 -0.3146
17787PP      PP27891  14.383   5.486  10.079 -0.2994  0.0987  0.0359
17788PP      PP27892   1.329   2.424   3.040 -0.0579 -0.4023 -0.1030
17789PP      PP27893   5.173   4.089   1.288  0.1907  0.0418  0.0921
17790PP      PP27894  11.709  15.867  12.917 -0.1123 -0.0312  0.0630
17791PP      PP27895  11.704   3.126   1.079 -0.1227 -0.1609 -0.0583
17792PP      PP27896   4.645  10.301   4.886 -0.1864  0.1468  0.1314
17793PP      PP27897  13.027   7.049   3.460  0.1929  0.1096  0.2724
17794PP      PP27898   2.159   9.918   0.100 -0.0154  0.1505  0.4007
17795PP      PP27899  14.179   5.771  11.532 -0.1044 -0.0204  0.2267
17796PP      PP27900   5.175   8.247   4.683  0.0265  0.1306 -0.2996
17797PP      PP27901   5.032  15.618   1.801 -0.1020  0.5785  0.3364
17798PP      PP27902   8.821   7.743  11.998  0.1846 -0.0623 -0.1883
17799PP      PP27903   7.218  15.783   3.392  0.0465 -0.0559 -0.2973
17800PP      PP27904   6.227   9.733  10.339 -0.1765  0.4630  0.1423
17801PP      PP27905   3.201  10.872   3.195 -0.1507  0.1762  0.2177
17802PP      PP27906   9.891   1.332  10.642 -0.0389  0.0552 -0.0799
17803PP      PP27907   8.806   3.601   9.557 -0.0205  0.0915  0.1688
17804PP      PP27908   0.962   4.578   2.187  0.0640  0.0405  0.2203
17805PP      PP27909  13.559  15.202   3.316 -0.1317 -0.0957  0.3193
17806PP      PP27910  12.457   2.870  13.300  0.0134  0.1017 -0.1274
17807PP      PP27911  12.599   3.273  12.150 -0.0904 -0.0402 -0.0604
17808PP      PP27912   8.901   9.215   4.286  0.3093  0.0897  0.0715
17809PP      PP27913   2.860   4.832  10.626 -0.0750 -0.0576  0.0103
17810PP      PP27914   9.618  10.692   4.635 -0.0557  0.1343 -0.0276
17811PP      PP27915   8.678  12.935   3.485 -0.0102  0.1045 -0.2278
17812PP      PP27916   2.964   8.302  12.185  0.0017  0.0685  0.0329
17813PP      PP27917   4.740  10.422   0.159  0.2093 -0.0665  0.1268
17814PP      PP27918   5.647   7.385   9.273 -0.1000  0.0799  0.2771
17815PP      PP27919  15.303  13.643   3.851 -0.0015 -0.1429 -0.0141
17816PP      PP27920   9.760   3.769   8.847  0.1542 -0.0941 -0.0230
17817PP      PP27921  10.693  10.831   3.332 -0.0243  0.1147 -0.1189
17818PP      PP27922   5.942  13.181   4.239 -0.0728 -0.2282 -0.2540
17819PP      PP27923  14.299   0.977   9.796  0.3658  0.2945 -0.1540
17820PP      PP27924  13.096   2.411   7.899 -0.1142  0.1676 -0.2161
17821PP      PP27925   5.875   0.772   8.306  0.0073 -0.1690 -0.1392
17822PP      PP27926  10.268   2.293  12.241  0.6283 -0.1744  0.2547
17823PP      PP27927  11.502  13.194   8.084 -0.1220  0.1037 -0.1789
17824PP      PP27928   7.444   1.183  10.284 -0.1059  0.1036 -0.4148
17825PP      PP27929   7.411   4.637  12.154 -0.2826  0.0227  0.0491
17826PP      PP27930   4.714   7.190  12.692  0.3246 -0.2619  0.2650
17827PP      PP27931  14.342  10.574   9.522  0.1565 -0.0102  0.0329
17828PP      PP27932  10.633  14.849   2.890  0.2775  0.1746  0.1125
17829PP      PP27933   5.887  10.734   2.792 -0.0786 -0.1350 -0.0613
17830PP      PP27934   5.052  12.429   9.724 -0.2312  0.0399 -0.0487
17831PP      PP27935   0.439  11.088   8.632 -0.0198 -0.2030  0.3047
17832PP      PP27936   0.667  14.040   9.224  0.0727 -0.3754  0.0569
17833PP      PP27937  11.099   0.117   8.758 -0.3034 -0.0957 -0.1961
17834PP      PP27938   2.808   1.624   2.372 -0.1741  0.1151 -0.0648
17835PP      PP27939   4.333   1.860   3.155  0.0061 -0.0058 -0.3843
17836PP      PP27940   8.399   6.391  12.929  0.5017 -0.1259  0.0954
17837PP      PP27941   9.331   9.722  11.442 -0.0148 -0.2203  0.0681
17838PP      PP27942  13.514  13.452   0.042 -0.1776 -0.0411 -0.1384
17839PP      PP27943  11.725   4.583   8.206 -0.0319  0.2087 -0.1196
17840PP      PP27944  13.620  12.218  12.927 -0.2039  0.1380  0.0572
17841PP      PP27945  10.362   5.167  11.957 -0.3859  0.0120  0.2404
17842PP      PP27946  15.691   8.249   9.603 -0.3202  0.2848 -0.1293
17843PP      PP27947   3.142   7.408   4.721  0.0621  0.0220  0.3406
17844PP      PP27948  13.983   4.336  13.177  0.0121 -0.1848  0.1450
17845PP      PP27949  11.479  12.140  12.545  0.0668  0.1965  0.0584
17846PP      PP27950  12.177  12.090   4.003  0.1047  0.2940 -0.0141
17847PP      PP27951   5.051  12.284  11.766 -0.1908 -0.3639  0.1200
17848PP      PP27952  13.076   5.657  11.156  0.1893 -0.1338 -0.0732
17849PP      PP27953   4.754   9.873  12.360 -0.1451  0.1855  0.0625
17850PP      PP27954   1.353   6.666  13.179  0.3129  0.0622  0.1162
17851PP      PP27955   7.728  11.606   0.561  0.3496  0.2362 -0.0805
17852PP      PP27956   7.657   2.549   1.058 -0.0369  0.1801  0.1754
17853PP      PP27957   4.325   3.829   0.396 -0.2261  0.2031  0.0370
17854PP      PP27958  14.949  10.723   3.449  0.1855  0.0715 -0.1277
17855PP      PP27959   1.190   1.163  12.238  0.0543  0.0326 -0.1504
17856PP      PP27960  12.761  13.723  12.096  0.2453 -0.0272  0.0972
17857PP      PP27961   7.096   0.557   2.183  0.1596  0.0335 -0.2319
17858PP      PP27962  10.064  12.273  11.966  0.4075 -0.2209 -0.0463
17859PP      PP27963   2.044   3.421  10.022  0.2818 -0.1492  0.1333
17860PP      PP27964  11.249  11.167  11.985  0.1230 -0.0605  0.0615
17861PP      PP27965   2.277   0.256   1.521  0.1768 -0.1778  0.0775
17862PP      PP27966   3.833   1.468  12.160  0.3546 -0.0826  0.0722
17863PP      PP27967   5.243   7.996  12.173 -0.0760 -0.1772 -0.3309
17864PP      PP27968   0.775   3.376  10.201 -0.3037  0.0412  0.0320
17865PP      PP27969  11.507  14.824   7.733 -0.1569 -0.0293 -0.0510
17866PP      PP27970  12.259   5.579   1.157  0.0452  0.0597 -0.1106
17867PP      PP27971  11.945   4.520   9.256  0.1213 -0.3525  0.1176
17868PP      PP27972   5.805   5.528   0.271 -0.0596  0.4236  0.0435
17869PP      PP27973   1.138   5.078   0.357  0.1892 -0.0385  0.2128
17870PP      PP27974   2.059   3.804   0.669 -0.0897 -0.1487  0.1805
17871PP      PP27975  10.532   1.939   0.433  0.0077 -0.1038  0.1553
17872PP      PP27976  14.348   0.890   2.264 -0.4748  0.1549  0.1349
17873PP      PP27977   4.455   1.372   2.297  0.2380 -0.0824 -0.2595
17874PP      PP27978  13.109  10.273   2.490 -0.3082 -0.2170  0.3323
17875PP      PP27979   2.299   4.832   3.523  0.2352 -0.0587  0.3680
17876PP      PP27980  13.414   8.792   8.964  0.0153 -0.2467 -0.1102
17877PP      PP27981   0.907  15.277   9.905  0.0229  0.3050  0.1784
17878PP      PP27982   3.055   3.755   1.718 -0.2528 -0.1773 -0.0832
17879PP      PP27983   2.533   5.878   2.688 -0.0781 -0.2082 -0.0214
17880PP      PP27984   4.492   3.391   0.113  0.1308 -0.1889  0.2490
17881PP      PP27985   5.356   3.155  11.699 -0.2640 -0.1661  0.1157
17882PP      PP27986   8.543   7.724   2.140 -0.1979  0.0404  0.0546
17883PP      PP27987   6.424   3.997  13.183 -0.2840  0.2379  0.0932
17884PP      PP27988  11.839   7.304   1.141  0.2919 -0.1815  0.0757
17885PP      PP27989   8.708  13.595  12.862 -0.0207  0.3685 -0.2376
17886PP      PP27990  15.439   4.853   3.643 -0.3171  0.2606 -0.0519
17887PP      PP27991  12.395   0.359   1.999 -0.1388 -0.0378 -0.0708
17888PP      PP27992   6.984   2.236  12.929 -0.0628  0.3505 -0.4628
17889PP      PP27993   4.579  11.017  11.377 -0.0446  0.2112  0.4811
17890PP      PP27994   9.043  11.897   0.545  0.0386  0.3276 -0.1754
17891PP      PP27995   9.121   8.407   4.561 -0.1156  0.2199 -0.2115
17892PP      PP27996   4.588   7.615   3.189 -0.2320  0.2903 -0.1685
17893PP      PP27997   0.225   1.380   9.631 -0.1758  0.4117 -0.0940
17894PP      PP27998   9.151  12.260   1.704  0.1043 -0.0424  0.1292
17895PP      PP27999   1.883   6.654   1.439 -0.2951 -0.0609 -0.2437
17896PP      PP28000  13.834  10.314   3.889 -0.0323  0.3011 -0.0274
17897PP      PP28001  13.238   8.660   3.897 -0.2935  0.1683 -0.3511
17898PP      PP28002  12.244  10.349   8.846 -0.1399  0.1900  0.1069
17899PP      PP28003   9.907  11.015  11.396  0.3780  0.0136  0.3453
17900PP      PP28004   5.934  14.952   2.763  0.0008  0.2540  0.1338
17901PP      PP28005  12.894  15.458  10.053 -0.0106  0.0713 -0.0890
17902PP      PP28006  13.858   5.123   9.370 -0.1421  0.2370  0.1538
17903PP      PP28007  14.152   3.808   3.615 -0.0966 -0.0295  0.0612
17904PP      PP28008  10.891  10.463   0.524  0.4766 -0.0965  0.1372
17905PP      PP28009  11.726   5.679   9.739 -0.0347  0.2397  0.1022
17906PP      PP28010   8.579   8.455   9.624  0.0490 -0.2003  0.1670
17907PP      PP28011  11.439   7.686   2.707 -0.0379 -0.2104  0.3750
17908PP      PP28012   8.522  12.493  12.419  0.2730 -0.0313  0.3459
17909PP      PP28013   7.117  12.145   0.868 -0.2210  0.1724 -0.1603
17910PP      PP28014   5.058  11.866  12.731  0.4432  0.0182 -0.0741
17911PP      PP28015   1.598   1.354   1.308 -0.0792 -0.1496  0.1483
17912PP      PP28016   6.055   8.358  13.030  0.0223  0.0640  0.1310
17913PP      PP28017   5.802  15.735   9.882 -0.1466 -0.1174  0.2636
17914PP      PP28018  14.881  10.099   8.770 -0.0664  0.2221 -0.0042
17915PP      PP28019   9.195  15.249   9.629 -0.4773 -0.0297  0.1752
17916PP      PP28020   3.888  15.696   0.527 -0.1542 -0.1459  0.4018
17917PP      PP28021  13.621  11.039  10.645  0.1519  0.2227  0.0506
17918PP      PP28022  13.937  13.277   0.936  0.1274 -0.0003 -0.0021
17919PP      PP28023   6.464  10.018  12.227 -0.1708  0.0295 -0.0270
17920PP      PP28024   5.758  12.796  13.006  0.0705 -0.2420  0.0164
17921PP      PP28025   6.012   4.552  11.760  0.0230 -0.1681 -0.0078
17922PP      PP28026  13.612   3.875   9.212 -0.1022  0.2571 -0.0279
17923PP      PP28027   8.602  13.590   1.437 -0.0056 -0.2244 -0.3225
17924PP      PP28028   0.686  11.036   9.655 -0.1131 -0.1384  0.1713
17925PP      PP28029  11.132   5.186  10.074  0.1008 -0.1936 -0.0273
17926PP      PP28030   9.129  13.943  10.555  0.0240  0.0212  0.2679
17927PP      PP28031  12.741   9.205   8.663 -0.1615  0.0619  0.3451
17928PP      PP28032   3.329   0.200  11.472 -0.0538 -0.0616  0.1477
17929PP      PP28033   8.416   0.312   8.915  0.1975  0.1587 -0.0533
17930PP      PP28034  15.614   6.917   2.305  0.1100  0.0547  0.4311
17931PP      PP28035  13.120  13.454   1.612  0.2009 -0.1796 -0.1655
17932PP      PP28036   9.951  12.949  13.347 -0.0421  0.0929 -0.0545
17933PP      PP28037   7.487   1.202  11.308  0.2349 -0.2314  0.0812
17934PP      PP28038   9.154  13.513  10.320  0.1910  0.2364 -0.2766
17935PP      PP28039   9.327  10.366   1.535 -0.3259  0.4481 -0.3534
17936PP      PP28040   7.543   0.869   3.704  0.3397  0.0648 -0.0092
17937PP      PP28041  14.141   3.131  10.819  0.4537  0.2349 -0.0887
17938PP      PP28042   1.132  10.319   1.771 -0.1097 -0.0781  0.2334
17939PP      PP28043   1.478   9.504   1.290 -0.0386 -0.1692 -0.0599
17940PP      PP28044   4.644   0.438  12.893 -0.1621  0.1772  0.2909
17941PP      PP28045   5.045  11.943  12.204 -0.4205 -0.3053 -0.0677
17942PP      PP28046  11.391   2.408   4.246  0.4306 -0.0374 -0.3008
17943PP      PP28047   5.655  13.241   2.759  0.0588 -0.0363 -0.0140
17944PP      PP28048  10.087  15.133  11.038 -0.4257  0.0482  0.0738
17945PP      PP28049   6.630  10.388   2.100  0.3037  0.0933  0.0792
17946PP      PP28050  12.876   2.540   9.329  0.0457  0.2283 -0.3646
17947PP      PP28051  15.381   4.708  13.106 -0.0472  0.3894  0.0776
17948PP      PP28052   1.301   6.894   9.862 -0.1626  0.1870  0.1305
17949PP      PP28053  14.884   1.072   1.931  0.2291 -0.2039  0.0640
17950PP      PP28054  12.855   1.264  10.663  0.0945  0.4913  0.1208
17951PP      PP28055   3.283   6.984   3.121 -0.2021  0.0323 -0.2699
17952PP      PP28056   7.870   0.678   9.903 -0.1494 -0.1419 -0.0651
17953PP      PP28057  10.390   8.524  12.297  0.2782  0.1178  0.2919
17954PP      PP28058   1.943  15.498   2.155  0.1775 -0.0990  0.1300
17955PP      PP28059  11.057  13.763   1.727  0.0908  0.1500  0.2307
17956PP      PP28060   2.973   3.238   1.669  0.2082 -0.0669 -0.3407
17957PP      PP28061   6.124   8.372   2.977  0.2711  0.0580 -0.2786
17958PP      PP28062   3.808  10.407  10.281  0.0379  0.0324  0.3978
17959PP      PP28063   8.631   4.681   0.954 -0.0416 -0.1288  0.1791
17960PP      PP28064  14.872  12.174   3.783 -0.0965 -0.1415 -0.1768
17961PP      PP28065  10.410   9.324  12.725  0.0013 -0.2025  0.1293
17962PP      PP28066   0.433   5.407   2.141  0.0867  0.1056  0.0800
17963PP      PP28067   9.348  15.317   1.910 -0.2606  0.2043 -0.1629
17964PP      PP28068   0.852   4.736  11.443  0.1400 -0.1453  0.0378
17965PP      PP28069   4.021  14.499   1.089 -0.2099  0.1022  0.0706
17966PP      PP28070   9.728   9.120   2.621  0.1018  0.1897  0.0301
17967PP      PP28071   3.976   5.970   1.299  0.0538 -0.2058  0.1723
17968PP      PP28072  13.052  13.841  11.661  0.0794  0.2173 -0.0329
17969PP      PP28073   9.392   1.683   1.420 -0.3148  0.2240  0.0873
17970PP      PP28074   2.271   4.646   1.908 -0.2652  0.2224 -0.1632
17971PP      PP28075  12.140   0.316  12.180  0.2052  0.1037 -0.0807
17972PP      PP28076   8.497   4.127   9.739 -0.2526 -0.0503  0.3876
17973PP      PP28077   5.918   4.660   2.154 -0.1820 -0.1254  0.2996
17974PP      PP28078   6.032  14.248   2.427  0.0995 -0.1100 -0.3212
17975PP      PP28079  11.629   4.679   2.207 -0.1112 -0.0140  0.1230
17976PP      PP28080   4.689   8.765   5.137  0.0317  0.1172  0.1172
17977PP      PP28081   5.204   5.882   2.118 -0.2783  0.1418 -0.4116
17978PP      PP28082   2.764   6.875   1.266  0.1970  0.1120  0.0510
17979PP      PP28083   5.812   5.182  10.634  0.3364  0.0633  0.0768
17980PP      PP28084  10.880   5.064   0.581  0.1312 -0.0186 -0.1360
17981PP      PP28085  11.236   3.519   2.990  0.2031  0.0269 -0.0776
17982PP      PP28086  10.377  14.740   1.632 -0.1907  0.0763  0.0819
17983PP      PP28087   2.328   3.033  10.303 -0.2836  0.1743 -0.0116
17984PP      PP28088   8.298   7.979  11.553  0.1597 -0.0154 -0.1700
17985PP      PP28089   0.435  15.201  11.252  0.0932 -0.2522  0.0337
17986PP      PP28090   5.631   1.237  12.682 -0.1556 -0.2037 -0.2644
17987PP      PP28091  14.463   9.053   0.559 -0.2461 -0.1192 -0.1790
17988PP      PP28092   6.678   0.975   3.029 -0.2322  0.0423 -0.1288
17989PP      PP28093   6.158   6.033  13.188  0.2626 -0.0135  0.1767
17990PP      PP28094   0.941  15.462   0.606  0.1415  0.1379 -0.0305
17991PP      PP28095  13.817   3.638   8.231 -0.1843 -0.0847 -0.0873
17992PP      PP28096   1.327  12.337   0.068  0.2872  0.4133 -0.0433
17993PP      PP28097  11.194   2.758   3.448 -0.1309 -0.1242  0.2566
17994PP      PP28098   2.878  14.819   2.240  0.0281 -0.3531  0.2959
17995PP      PP28099  12.629   8.628   2.411  0.0463 -0.1862 -0.1123
17996PP      PP28100  13.580  13.343   1.918  0.1452 -0.2860  0.0220
17997PP      PP28101  15.808   5.211   3.063 -0.0790  0.0744  0.1291
17998PP      PP28102   4.097   7.687  12.523  0.0844  0.1550  0.1317
17999PP      PP28103  14.095   8.698  10.153  0.0467  0.0618 -0.1817
18000PP      PP28104  13.498  11.341   3.299 -0.0572  0.0374  0.0722
18001PP      PP28105   7.211   7.604  13.308  0.0989  0.1805  0.1192
18002PP      PP28106   4.972  12.127   4.279 -0.1561  0.3264 -0.3697
18003PP      PP28107  10.309   7.839   0.930 -0.3748  0.0338  0.2194
18004PP      PP28108  13.530   6.226   1.121  0.5416 -0.2376  0.1685
18005PP      PP28109   0.849   4.440  12.142  0.0720 -0.0112  0.0218
18006PP      PP28110   3.733   2.254  12.235  0.2591  0.1553 -0.3227
18007PP      PP28111   5.209   8.248  10.038 -0.0797  0.1414 -0.6182
18008PP      PP28112   1.169   4.322  12.546  0.2221  0.0226 -0.1350
18009PP      PP28113   7.821   3.334   9.110 -0.0862 -0.2245 -0.0539
18010PP      PP28114   9.548   1.896   0.667  0.1287  0.1904  0.0081
18011PP      PP28115   3.541   6.846   3.578 -0.0607 -0.1004  0.1781
18012PP      PP28116   1.647   3.961   1.910  0.4073  0.2126  0.0867
18013PP      PP28117  10.034   6.695   0.061 -0.0216 -0.2412  0.0987
18014PP      PP28118   5.097   5.455   3.897  0.2283  0.2436 -0.0066
18015PP      PP28119  15.809  15.853   3.403  0.1916 -0.0852  0.1033
18016PP      PP28120  15.332   2.117  11.295 -0.1146 -0.2116 -0.2500
18017PP      PP28121   8.456  10.683   9.787  0.1287  0.2742  0.3060
18018PP      PP28122   1.486  13.318  12.554 -0.0631 -0.1170  0.3342
18019PP      PP28123  15.625   1.259  11.250 -0.0830  0.1239  0.1377
18020PP      PP28124   6.341   6.485   3.235 -0.3063 -0.1381 -0.1845
18021PP      PP28125   4.079   0.919   0.983  0.0281 -0.0196  0.0660
18022PP      PP28126  14.950  12.355  12.889  0.1451  0.0607  0.1525
18023PP      PP28127   2.572   6.674   0.282 -0.3248  0.0776  0.0781
18024PP      PP28128  10.815   0.604  11.590 -0.2448  0.5697  0.0627
18025PP      PP28129   8.412   8.128  10.396  0.0372 -0.2666 -0.0012
18026PP      PP28130   1.294   5.603  13.157  0.2201 -0.0603 -0.5602
18027PP      PP28131   6.804   2.169   9.894  0.1519 -0.2338 -0.2336
18028PP      PP28132  10.066   3.338  12.142  0.0675  0.2117 -0.1357
18029PP      PP28133  15.053  11.549   9.103  0.2279  0.1279 -0.1008
18030PP      PP28134   6.738  13.443   4.039  0.1212 -0.0391 -0.0724
18031PP      PP28135   5.663   5.660   0.726 -0.1470 -0.0050 -0.0664
18032PP      PP28136   1.786  13.564   2.797  0.0704 -0.0408 -0.1457
18033PP      PP28137   1.856   3.161   2.470 -0.0949  0.0015 -0.0142
18034PP      PP28138   5.574   4.963   2.284 -0.0382  0.0947 -0.1145
18035PP      PP28139   8.320   0.099   0.584  0.0054  0.0101  0.2233
18036PP      PP28140  11.680  15.401  13.042  0.0497  0.0168 -0.1018
18037PP      PP28141   8.769   7.038  11.495  0.0458 -0.2618 -0.3511
18038PP      PP28142  11.765   4.981   9.159 -0.2777  0.2619 -0.1597
18039PP      PP28143   1.298   4.948   2.269  0.2122  0.0440 -0.0570
18040PP      PP28144   5.538  11.926  12.897  0.2669  0.0516  0.0706
18041PP      PP28145   6.873  14.639   4.084 -0.0760 -0.2950  0.1718
18042PP      PP28146  10.367   9.690   9.435 -0.1389 -0.0578  0.0802
18043PP      PP28147   4.742   1.021   2.776  0.1266  0.1514  0.1053
18044PP      PP28148  11.641   4.965   0.897 -0.2537 -0.1464 -0.0969
18045PP      PP28149  15.707   6.376   4.162  0.1833 -0.3122  0.1248
18046PP      PP28150   1.561  12.430   0.833 -0.0154  0.1866 -0.1178
18047PP      PP28151   2.481   1.263   2.693  0.1504  0.2782  0.0373
18048PP      PP28152  13.212   9.909   9.247  0.2831 -0.0735  0.3614
18049PP      PP28153   4.185  13.171  12.733  0.3198 -0.0193  0.0224
18050PP      PP28154   0.624  15.259   3.871  0.0252 -0.2021  0.1285
18051PP      PP28155   6.769   9.585  12.315  0.2480 -0.0178 -0.0364
18052PP      PP28156   7.095   2.618  11.863 -0.1029  0.3188  0.0436
18053PP      PP28157  15.129   8.943  13.116  0.2246  0.3478  0.2403
18054PP      PP28158   9.981   5.125   8.655  0.0826 -0.2746  0.0768
18055PP      PP28159  10.417  11.158   9.534 -0.0765  0.1262 -0.0245
18056PP      PP28160   0.710   7.901  11.980 -0.1110  0.0052  0.1511
18057PP      PP28161  14.773   4.631  10.494 -0.1116 -0.1942 -0.1866
18058PP      PP28162   3.844   6.763   5.141  0.3546  0.1060 -0.1437
18059PP      PP28163   0.350   1.686  10.977 -0.1563  0.2770 -0.1688
18060PP      PP28164   9.343  12.706  11.489  0.6129 -0.1998  0.1348
18061PP      PP28165   5.071   6.398  12.946 -0.1126 -0.2301 -0.1969
18062PP      PP28166   3.101   0.629  11.738 -0.0001  0.0436  0.0829
18063PP      PP28167   2.417  11.393   5.439 -0.0017 -0.0088 -0.1461
18064PP      PP28168   4.314   4.078  11.291  0.1114  0.0999 -0.1768
18065PP      PP28169  12.996   1.211   9.959  0.0325  0.0660  0.0201
18066PP      PP28170   8.058   5.274   9.563  0.0675 -0.3522 -0.3017
18067PP      PP28171   1.641  14.832   9.021  0.0476  0.0739 -0.0824
18068PP      PP28172   3.381   2.029   0.401 -0.1669 -0.1200  0.1039
18069PP      PP28173  11.096  15.303   0.355  0.1475  0.1680  0.1387
18070PP      PP28174   0.001   5.440  10.105  0.0221  0.1159 -0.0786
18071PP      PP28175  10.509  12.797  10.546  0.0674  0.1014 -0.3874
18072PP      PP28176   4.099   3.209   8.314  0.1234 -0.2380 -0.0112
18073PP      PP28177  11.718   2.464   8.781 -0.0035  0.1407  0.0790
18074PP      PP28178   3.222   2.121  12.783 -0.1130 -0.1478  0.3127
18075PP      PP28179   1.404   8.363   9.798  0.0241 -0.0891  0.3649
18076PP      PP28180   7.667   1.711   4.148 -0.1885 -0.1018  0.2365
18077PP      PP28181   9.981  14.754   9.175  0.0449 -0.1752  0.0518
18078PP      PP28182   9.592  11.057   1.907  0.0783 -0.0675 -0.2028
18079PP      PP28183   0.963   6.459   2.947 -0.2265 -0.2582 -0.1859
18080PP      PP28184  10.922   7.728   2.968 -0.0067  0.2303 -0.0695
18081PP      PP28185  11.618   9.863   9.130  0.0859 -0.1179  0.1198
18082PP      PP28186  11.904   5.293  11.522  0.0708 -0.2912 -0.0528
18083PP      PP28187   1.124   9.335   3.204 -0.0918  0.2386  0.0080
18084PP      PP28188  12.637  10.129   2.405 -0.0388  0.0427 -0.2851
18085PP      PP28189   0.091  13.040  12.800 -0.1670  0.0849  0.5553
18086PP      PP28190  11.877   4.151   3.363 -0.2377 -0.1114 -0.2279
18087PP      PP28191   5.174  12.595  13.131  0.0343 -0.1631  0.1591
18088PP      PP28192   2.634   6.406  10.216  0.1580  0.2096 -0.1886
18089PP      PP28193   5.394  12.410  10.815 -0.3510  0.0803 -0.2340
18090PP      PP28194   6.986   8.245  10.165  0.0072 -0.2095 -0.2041
18091PP      PP28195   4.465   3.606   9.742  0.1557 -0.3146 -0.2463
18092PP      PP28196   0.893   2.525  12.678 -0.1249 -0.1230 -0.2373
18093PP      PP28197  13.711  12.259   9.298  0.1464  0.3023  0.0492
18094PP      PP28198  11.705  14.838   9.029  0.0721  0.1929  0.4196
18095PP      PP28199   9.996   3.781   0.203 -0.0505  0.2508 -0.0262
18096PP      PP28200   8.343   6.512   3.067  0.1561 -0.0049  0.4719
18097PP      PP28201   6.614  14.975   3.322 -0.0864  0.1052 -0.3695
18098PP      PP28202  12.176   1.296   0.233 -0.0245 -0.3686  0.1814
18099PP      PP28203   9.852   8.028  12.097 -0.0864  0.0100  0.0043
18100PP      PP28204   9.856   5.145  10.673  0.1463 -0.1403  0.1026
18101PP      PP28205  15.526  15.659   9.703 -0.0478  0.1309  0.4334
18102PP      PP28206   4.259   8.944   1.659 -0.0342  0.1441  0.4210
18103PP      PP28207  10.065   7.225   9.279  0.1118 -0.0534  0.1816
18104PP      PP28208   6.020   1.855   4.578 -0.0517  0.1117 -0.1536
18105PP      PP28209   6.309  13.211  10.217  0.0851  0.2097 -0.2812
18106PP      PP28210  15.158  12.218  10.878 -0.1016  0.1622  0.4323
18107PP      PP28211   2.740   4.400  12.355  0.1068 -0.0581  0.1203
18108PP      PP28212  11.102   8.189   1.832 -0.0396  0.0300  0.2231
18109PP      PP28213  13.668  11.781   1.248  0.1197  0.1415 -0.2198
18110PP      PP28214   4.869   5.551   2.448  0.1055 -0.0102 -0.1125
18111PP      PP28215  14.366   9.421   3.847  0.0480 -0.0380  0.0722
18112PP      PP28216  15.393   8.116   5.129  0.2988  0.1620  0.0142
18113PP      PP28217  13.417  12.416  12.490  0.2861  0.3475  0.1014
18114PP      PP28218  11.870   7.037  12.423  0.0726  0.0235  0.0063
18115PP      PP28219   0.866  14.698  11.988 -0.1430  0.1307 -0.3597
18116PP      PP28220  13.248  11.534   2.871 -0.0816 -0.0486  0.2528
18117PP      PP28221  10.764   0.064   2.753 -0.0491 -0.0147  0.0456
18118PP      PP28222  10.776   0.356  12.989 -0.0387 -0.2771 -0.2587
18119PP      PP28223   5.883  13.642  11.292 -0.2323 -0.2015 -0.0518
18120PP      PP28224   8.054   1.082  11.957 -0.0098  0.0329 -0.2699
18121PP      PP28225   8.682   5.573   0.055 -0.3293 -0.0379 -0.1453
18122PP      PP28226   8.931   2.866  11.923 -0.1377  0.1060 -0.2535
18123PP      PP28227  12.066   7.004  13.304 -0.2144 -0.2567  0.0041
18124PP      PP28228  15.827   8.270  10.104 -0.0423 -0.1933 -0.0209
18125PP      PP28229   1.137  11.872   3.871  0.1132 -0.2106 -0.1185
18126PP      PP28230  14.303   9.783   2.708  0.2022 -0.0382  0.1824
18127PP      PP28231  10.693  11.329   3.949 -0.1242 -0.1558  0.1997
18128PP      PP28232   0.310   1.931   1.701  0.0506  0.0745  0.1542
18129PP      PP28233  14.629  14.132   1.712 -0.0600  0.0589  0.3337
18130PP      PP28234   5.357   4.676   1.899 -0.3136 -0.2655  0.0333
18131PP      PP28235  15.505  11.396   8.835  0.0957 -0.2158  0.2457
18132PP      PP28236   3.197  12.670   3.857  0.1478  0.0069  0.4464
18133PP      PP28237  11.516   4.545   0.612  0.1615  0.0049  0.2340
18134PP      PP28238  15.898  12.109  10.392 -0.0071  0.0542  0.0921
18135PP      PP28239  15.169   7.981  12.007  0.1980 -0.1637  0.0052
18136PP      PP28240   8.737  13.004   1.038  0.1684 -0.3149 -0.0231
18137PP      PP28241  13.297   0.061   8.736  0.0207  0.2714 -0.3784
18138PP      PP28242  13.283   0.061  10.718  0.1761 -0.1337  0.2269
18139PP      PP28243  11.841  11.471  11.253 -0.1179  0.1300  0.1457
18140PP      PP28244  15.808  15.398   0.497  0.0285 -0.0840 -0.0007
18141PP      PP28245   4.056   5.053   9.986  0.0218  0.0718  0.0136
18142PP      PP28246   1.544  14.239  11.508 -0.0991 -0.2783  0.0685
18143PP      PP28247   5.170   2.917  10.129  0.1226  0.1581 -0.1252
18144PP      PP28248  12.422   5.931  12.687 -0.0749  0.3271 -0.2152
18145PP      PP28249  15.775   0.892  12.053 -0.1945 -0.0277  0.0222
18146PP      PP28250   8.728  12.073  11.031 -0.2937 -0.2757  0.1554
18147PP      PP28251  14.404   2.467  11.965 -0.0286 -0.2699 -0.0965
18148PP      PP28252   9.674   9.298   0.425  0.2903 -0.0949 -0.1518
18149PP      PP28253   0.980   9.834   1.026 -0.0862 -0.0606  0.1103
18150PP      PP28254   8.689  13.308  11.963 -0.2099  0.3255  0.2643
18151PP      PP28255   8.721   9.674   1.946 -0.1388 -0.1801  0.1321
18152PP      PP28256   1.708   1.874  12.257  0.0712 -0.1044 -0.3234
18153PP      PP28257   5.593  11.014   3.620  0.3595 -0.3631  0.1484
18154PP      PP28258  10.414   7.790   4.179  0.1898 -0.1329 -0.1369
18155PP      PP28259   9.600   9.092   9.893  0.0652  0.0002  0.1909
18156PP      PP28260  15.018   1.758   2.506  0.0121 -0.0695 -0.0308
18157PP      PP28261   8.223  15.310   9.334 -0.1120  0.0960  0.2167
18158PP      PP28262  14.771   6.645  12.082  0.1933 -0.1546  0.0794
18159PP      PP28263   9.212   6.814  11.655 -0.2404 -0.2135 -0.0729
18160PP      PP28264  12.182   7.691   0.199  0.0641  0.1728 -0.1479
18161PP      PP28265  14.259  13.503   0.605 -0.2275  0.0047 -0.0646
18162PP      PP28266   0.333  11.857  12.021  0.2405 -0.0847 -0.3785
18163PP      PP28267   1.842  13.441   4.660  0.0221  0.2782 -0.0773
18164PP      PP28268  15.531   5.192  10.358 -0.3024 -0.0299  0.1472
18165PP      PP28269   4.411   2.128   1.151  0.1978 -0.0960 -0.1052
18166PP      PP28270   5.131   4.289  12.759 -0.1032  0.2234  0.1778
18167PP      PP28271   4.678   0.823   8.804  0.4045  0.1462  0.1312
18168PP      PP28272   7.384  11.250  12.542 -0.3065  0.1639  0.0867
18169PP      PP28273  11.632   3.854  12.909 -0.1470  0.0756 -0.0068
18170PP      PP28274   8.774   6.729  12.894  0.2953  0.3386 -0.2570
18171PP      PP28275   9.242  13.658  13.104  0.1927 -0.1446 -0.1035
18172PP      PP28276   8.878  11.289  13.328  0.0981 -0.0774  0.1246
18173PP      PP28277   0.254  11.577  12.864  0.0566  0.1247  0.2602
18174PP      PP28278  14.858   2.807  12.050 -0.0232  0.1447 -0.0018
18175PP      PP28279   7.668  10.214   0.795  0.0179  0.3754 -0.2620
18176PP      PP28280   9.690   5.956   2.523 -0.0389  0.0409  0.2069
18177PP      PP28281  10.550   5.230  13.317  0.2573 -0.1398 -0.1286
18178PP      PP28282   1.783   0.366   2.896 -0.4030  0.2195 -0.1317
18179PP      PP28283   2.320  12.834   1.010  0.0947 -0.2814  0.0186
18180PP      PP28284   8.861   5.967   1.382  0.2385 -0.0397 -0.3091
18181PP      PP28285   9.789  12.569   0.241  0.1496  0.3066  0.3534
18182PP      PP28286   2.192   1.615   2.587  0.2419 -0.4404 -0.0139
18183PP      PP28287   8.372  14.930  11.724  0.1213  0.0240  0.3833
18184PP      PP28288  10.369  12.419   2.196  0.2065  0.0620 -0.0579
18185PP      PP28289  11.036   8.581   9.461 -0.0451 -0.2507 -0.1211
18186PP      PP28290  10.981   4.627   3.792 -0.1358  0.1005  0.0450
18187PP      PP28291  15.893   6.885   2.694 -0.4931  0.0675 -0.0479
18188PP      PP28292   9.540   3.098   1.300  0.1358 -0.0685 -0.2816
18189PP      PP28293   5.998   9.099  12.530  0.3538 -0.1730 -0.2781
18190PP      PP28294  11.129  11.969   4.048 -0.2531 -0.0240 -0.0518
18191PP      PP28295  14.094   5.730  12.363 -0.2182  0.0885  0.0777
18192PP      PP28296  14.792   8.924   2.679  0.1700 -0.0129  0.2416
18193PP      PP28297   4.467  13.732   1.618 -0.2029 -0.0997  0.0895
18194PP      PP28298  12.171  15.466   8.229 -0.0448  0.0245  0.1929
18195PP      PP28299   3.530  14.803  10.702 -0.4772  0.2530 -0.0567
18196PP      PP28300  10.342  11.918  11.674  0.2549  0.0447 -0.0336
18197PP      PP28301   6.929   2.568  10.089  0.1237 -0.1432 -0.2161
18198PP      PP28302  12.336   7.038   9.670 -0.0191 -0.1146  0.0324
18199PP      PP28303   9.352   3.820   4.527 -0.0828  0.0510  0.0237
18200PP      PP28304   0.828   3.518   1.696  0.0806 -0.1330  0.0814
18201PP      PP28305   6.008   0.740   4.103  0.2244 -0.1024 -0.2785
18202PP      PP28306  15.419   7.163  12.793 -0.1505  0.1370  0.1691
18203PP      PP28307   6.288   7.383  11.151 -0.0936 -0.1236 -0.0646
18204PP      PP28308   5.096  12.700   3.941  0.0633  0.1024  0.1415
18205PP      PP28309  11.944  13.391  11.827  0.1036 -0.1421  0.0868
18206PP      PP28310  10.072   8.851  10.548 -0.1218 -0.0862 -0.0441
18207PP      PP28311  11.039  12.937   0.584  0.0734  0.3412  0.0188
18208PP      PP28312   7.873  11.108   0.563 -0.3884  0.1530  0.0033
18209PP      PP28313   4.072   4.192   3.203 -0.3806  0.0567  0.3433
18210PP      PP28314   3.635   1.640   9.259  0.2596 -0.1004  0.0159
18211PP      PP28315   7.561   5.518   9.446  0.0556  0.0789  0.2003
18212PP      PP28316  11.411  14.383   1.677 -0.0298 -0.0653 -0.0460
18213PP      PP28317  14.592  11.215   1.519  0.2168 -0.0167 -0.0074
18214PP      PP28318   8.584   1.716  10.832  0.1268 -0.1965  0.1455
18215PP      PP28319  12.006  13.832   0.048 -0.1380 -0.3009  0.4052
18216PP      PP28320   3.882  15.027   0.737  0.4310  0.2450 -0.0362
18217PP      PP28321  10.166   4.856  13.359 -0.2217  0.0264  0.1511
18218PP      PP28322  10.765   5.587  11.399  0.0216 -0.1929  0.1157
18219PP      PP28323   7.729   3.005   2.667  0.1324 -0.2712 -0.1089
18220PP      PP28324  15.889   0.839   9.792  0.2188 -0.0697  0.0278
18221PP      PP28325   5.110   5.054   0.091  0.0814  0.0710  0.2239
18222PP      PP28326   8.208  14.665   3.389 -0.1092  0.0538  0.0130
18223PP      PP28327  10.871  15.554   1.568  0.3275 -0.2878 -0.1505
18224PP      PP28328   8.166   8.008   0.467  0.2096  0.3515 -0.1637
18225PP      PP28329   7.461  14.262   4.327  0.0935 -0.2816  0.1735
18226PP      PP28330  14.520  11.132   0.457 -0.0162 -0.4114  0.0995
18227PP      PP28331   6.969   9.910   3.134 -0.0471  0.1366 -0.1635
18228PP      PP28332   8.183   2.096   9.336 -0.1764  0.1285 -0.1524
18229PP      PP28333   6.634   1.371  11.995  0.2205  0.0020 -0.3478
18230PP      PP28334   9.278   3.190  12.162  0.1941  0.0436  0.1798
18231PP      PP28335   4.093  14.891  10.063 -0.1394  0.3436  0.1421
18232PP      PP28336   4.919   8.444   2.247 -0.0930  0.0815 -0.2403
18233PP      PP28337   6.123   6.521   0.485 -0.0689  0.2060  0.2094
18234PP      PP28338   8.198   7.121  12.322 -0.0402 -0.0222 -0.2250
18235PP      PP28339   5.137  10.338   0.951  0.1159  0.2790  0.1443
18236PP      PP28340  15.832   6.527  10.046 -0.2470  0.1643 -0.1094
18237PP      PP28341   5.332   0.996  11.010  0.0237 -0.2366 -0.1600
18238PP      PP28342   6.337  10.050   0.711 -0.0798  0.1794  0.2800
18239PP      PP28343   1.289   7.972   3.814  0.4339 -0.2632 -0.1743
18240PP      PP28344  12.970  12.370   0.745 -0.3522  0.1266  0.2411
18241PP      PP28345  14.779  12.794   1.808  0.4585 -0.1163  0.1601
18242PP      PP28346   1.827   1.236   0.458  0.0802  0.0455  0.0412
18243PP      PP28347  12.294  10.922   1.908  0.2439 -0.3281  0.0041
18244PP      PP28348   6.079   6.970   0.184  0.2053  0.3298 -0.0587
18245PP      PP28349   9.580  13.668   8.502  0.1915  0.2263  0.4409
18246PP      PP28350  12.710   5.267  12.081  0.1303 -0.0186 -0.2151
18247PP      PP28351   1.711   6.446   9.472  0.5736  0.0222  0.1236
18248PP      PP28352   6.668   5.682  11.893  0.5013  0.2791  0.2229
18249PP      PP28353  13.283   4.950   0.923 -0.2737  0.0135 -0.1367
18250PP      PP28354   9.760   9.312  11.856  0.1912  0.0900 -0.0281
18251PP      PP28355  12.197  14.931  11.105 -0.0433  0.0971 -0.3672
18252PP      PP28356   3.152  13.398   0.272 -0.3008  0.3881  0.1284
18253PP      PP28357   9.271   5.309  12.989  0.1372 -0.2229 -0.1189
18254PP      PP28358   8.225  11.514   4.282  0.0968  0.2321 -0.0587
18255PP      PP28359  13.243  15.256  12.946  0.0122 -0.1300 -0.0789
18256PP      PP28360  12.644   7.616   9.822  0.4272  0.2178  0.0831
18257PP      PP28361  11.616  10.164  12.065  0.1394 -0.0275  0.0656
18258PP      PP28362   9.550  13.128  10.980 -0.0406  0.1560  0.2906
18259PP      PP28363   4.797   2.029   3.061 -0.2169 -0.3196 -0.0013
18260PP      PP28364  11.106   5.806   3.326  0.0142 -0.0033 -0.2201
18261PP      PP28365  10.700   3.253   1.113  0.0453  0.3477  0.3710
18262PP      PP28366   5.482   3.676   9.865 -0.1395  0.2486  0.1646
18263PP      PP28367   1.358   8.791  10.362 -0.0410  0.0245 -0.0433
18264PP      PP28368   9.718   5.533   8.984 -0.1234  0.2132 -0.2029
18265PP      PP28369   7.647   2.756   3.231  0.2477  0.0566 -0.2865
18266PP      PP28370   8.827   6.445   2.995 -0.1058  0.1320 -0.0365
18267PP      PP28371   2.533   0.260   9.364  0.0479 -0.1076  0.0942
18268PP      PP28372   1.316   2.872  12.619  0.0655 -0.0358 -0.2897
18269PP      PP28373   9.322   6.592   2.944 -0.2903  0.0612  0.2709
18270PP      PP28374   6.268   3.522   2.494  0.1061 -0.0804 -0.0687
18271PP      PP28375   8.801   5.022   2.306  0.2208  0.2026  0.0366
18272PP      PP28376   3.228  15.486   1.234 -0.1156 -0.0070  0.1116
18273PP      PP28377  15.076   2.717   1.524  0.0937  0.0655 -0.0960
18274PP      PP28378   2.327   4.980  12.569 -0.0966  0.0791  0.0458
18275PP      PP28379   4.650  11.590  12.347  0.1032  0.1568 -0.2940
18276PP      PP28380  15.142  10.247   2.330 -0.0315  0.4911  0.1508
18277PP      PP28381   0.086   7.191   0.195  0.0263  0.0503  0.3332
18278PP      PP28382   4.259  13.394   2.881  0.2260 -0.0851 -0.2249
18279PP      PP28383   1.137   2.977   9.191 -0.0199 -0.0055  0.0681
18280PP      PP28384   0.023   8.028   4.794  0.0779  0.0691 -0.1368
18281PP      PP28385   2.790  10.983   1.170  0.0394  0.0552 -0.2367
18282PP      PP28386   5.470  13.734  10.691 -0.2608  0.1285 -0.0140
18283PP      PP28387   0.966  10.887   3.023  0.1124 -0.1889  0.0414
18284PP      PP28388  14.782  14.287   0.953 -0.2816 -0.1537  0.1440
18285PP      PP28389  11.773   7.954  12.039  0.0380 -0.2380  0.0342
18286PP      PP28390   0.853   6.790   0.555  0.0512  0.2177  0.1593
18287PP      PP28391   1.026  13.150   3.272 -0.1727 -0.0620 -0.2018
18288PP      PP28392  13.441   1.221  11.714 -0.0393 -0.0854  0.1144
18289PP      PP28393   9.171   1.106   9.771  0.1421  0.2269  0.0418
18290PP      PP28394   8.164  13.152   9.678 -0.3024  0.2803 -0.2165
18291PP      PP28395   2.250   3.667  13.394 -0.3931 -0.1581 -0.4661
18292PP      PP28396  12.847   1.480   1.692 -0.0115 -0.2188  0.2698
18293PP      PP28397   9.311  10.929  11.732  0.1886  0.1608 -0.1576
18294PP      PP28398  10.419   7.554  11.419 -0.3469  0.1446 -0.0613
18295PP      PP28399  11.668   1.857  13.245 -0.1271 -0.1770 -0.1315
18296PP      PP28400   5.253  14.198  10.505 -0.1186 -0.1531 -0.2018
18297PP      PP28401   2.283   7.928   4.849  0.1264  0.1707 -0.1245
18298PP      PP28402  12.307   9.774  13.361  0.5430 -0.2083  0.0151
18299PP      PP28403  15.749   6.499  11.100  0.4517  0.0887  0.1155
18300PP      PP28404  14.509  13.006   0.560  0.1183  0.0110  0.2290
18301PP      PP28405  10.104   8.232   2.455  0.2594  0.0029 -0.1348
18302PP      PP28406   9.825  13.261   0.724  0.0363  0.1398 -0.0445
18303PP      PP28407   8.772   5.698  10.086  0.2871  0.0664 -0.1291
18304PP      PP28408   8.510  11.814  10.140  0.0409  0.4253 -0.0661
18305PP      PP28409  10.685   4.934   3.371 -0.0731 -0.0487 -0.2782
18306PP      PP28410   8.173   6.902   9.962  0.0313 -0.1993  0.1014
18307PP      PP28411   1.054  12.057   2.066  0.0066  0.0715 -0.3149
18308PP      PP28412  11.333   4.190   9.841 -0.0640  0.0597 -0.2658
18309PP      PP28413   0.022   2.267  10.373  0.4886  0.0876  0.3679
18310PP      PP28414  13.361   3.561  12.594 -0.0691  0.0384  0.0613
18311PP      PP28415  14.092   7.269  12.749 -0.0628  0.1739 -0.2569
18312PP      PP28416   6.634   1.981   1.318  0.0316  0.2659 -0.0641
18313PP      PP28417   4.380  12.407   3.286 -0.0646  0.0496 -0.0297
18314PP      PP28418  15.205  11.380  11.234  0.1957 -0.1285  0.0142
18315PP      PP28419  13.531   0.761  11.513  0.1308  0.0236 -0.2044
18316PP      PP28420  15.870  11.855   3.342 -0.1080  0.2363  0.0382
18317PP      PP28421   2.310   7.183  13.152  0.2219 -0.2735 -0.0921
18318PP      PP28422  14.725   9.147   4.195  0.0645 -0.0446  0.1577
18319PP      PP28423  11.702   2.396  12.712  0.1241 -0.3240 -0.1228
18320PP      PP28424  15.275   3.731   2.371  0.0662  0.1634 -0.0036
18321PP      PP28425   2.497  13.760  10.554  0.1698 -0.0579 -0.2871
18322PP      PP28426  10.009   7.905  11.641  0.1131  0.4739  0.0142
18323PP      PP28427   4.256  11.488   9.153  0.1158  0.0830  0.1418
18324PP      PP28428   7.374   4.748   3.241  0.0219  0.1287  0.2732
18325PP      PP28429  12.632   7.362  10.446  0.0017 -0.0802  0.0955
18326PP      PP28430   8.928  10.015  12.668  0.1644 -0.0710  0.4333
18327PP      PP28431   0.462  13.999  13.357 -0.0902 -0.1359  0.3056
18328PP      PP28432   3.185  12.982  12.496  0.2116 -0.0586  0.0747
18329PP      PP28433   6.057   9.233   3.553 -0.1213  0.0590 -0.0655
18330PP      PP28434  13.026   5.308   4.568  0.0261  0.1704  0.0401
18331PP      PP28435   0.916  15.626  12.964  0.1444  0.0498 -0.3369
18332PP      PP28436   0.103   5.660   3.884  0.0833 -0.0210 -0.0857
18333PP      PP28437   1.277  13.424   4.571  0.2200 -0.1505 -0.0678
18334PP      PP28438   8.974  13.694  11.286 -0.3225  0.2547  0.0120
18335PP      PP28439   5.267   8.363   0.035  0.1566 -0.1259  0.1532
18336PP      PP28440  10.352   9.863  12.424 -0.0222 -0.0643  0.1359
18337PP      PP28441   7.201  11.573   4.481  0.1085 -0.0874 -0.1008
18338PP      PP28442   3.627  12.653   1.269 -0.1974 -0.2472  0.2121
18339PP      PP28443  13.479  12.541   2.775  0.1821 -0.0871  0.0889
18340PP      PP28444   3.208   1.232   2.143  0.0839 -0.1765  0.2407
18341PP      PP28445  14.962  14.019   1.332  0.0622 -0.1744  0.1842
18342PP      PP28446   0.981   9.438   2.242  0.1253 -0.0905  0.0464
18343PP      PP28447   0.505  14.033   9.684  0.0798  0.0832  0.0558
18344PP      PP28448   8.782  10.029   9.631  0.4242  0.0499 -0.1402
18345PP      PP28449   9.047   4.579   1.731 -0.2615  0.1332 -0.0457
18346PP      PP28450  12.272  15.410  12.065 -0.3376  0.0800 -0.3532
18347PP      PP28451   2.837   0.708   8.538 -0.0870 -0.2403  0.2129
18348PP      PP28452  12.454   4.471  12.744 -0.0310 -0.2146 -0.0059
18349PP      PP28453   2.042   5.882   3.697 -0.1105 -0.0236  0.0572
18350PP      PP28454  10.809  13.301   1.307  0.0540  0.1173  0.0397
18351PP      PP28455   7.947   0.043   8.709  0.0189  0.1050  0.0480
18352PP      PP28456  14.638   1.546   8.866 -0.1611 -0.1512 -0.3700
18353PP      PP28457  12.757   9.612   2.569  0.1440 -0.1416  0.1137
18354PP      PP28458  13.450  12.123   9.732 -0.0380 -0.1047  0.2182
18355PP      PP28459   7.362  15.618   4.251 -0.0828  0.0587 -0.2460
18356PP      PP28460   1.823   1.531  11.680  0.1781  0.1210 -0.0260
18357PP      PP28461   8.289   3.733   1.484  0.0239  0.2103  0.1668
18358PP      PP28462  10.011   4.510   1.057  0.0176  0.0454 -0.1433
18359PP      PP28463  11.784   3.429  12.726  0.0462  0.2169 -0.0654
18360PP      PP28464   9.917   1.398   2.827 -0.0007 -0.2381 -0.1811
18361PP      PP28465  10.177  11.274  10.166  0.0492 -0.5162  0.2235
18362PP      PP28466   8.006   2.204   4.798  0.1868  0.0370 -0.0340
18363PP      PP28467   5.919   4.369  10.311  0.1673 -0.0066  0.2530
18364PP      PP28468   1.049  14.754   3.027 -0.1911 -0.1398  0.0583
18365PP      PP28469   5.809  11.039   0.561  0.2082 -0.2716 -0.1382
18366PP      PP28470   3.030   0.447   2.222 -0.0072  0.3288 -0.1370
18367PP      PP28471   6.362   9.264  10.289 -0.1438  0.1534  0.0186
18368PP      PP28472   3.524   8.835  12.949 -0.1454  0.0822  0.3730
18369PP      PP28473   5.434   1.913   9.541  0.0963 -0.1037 -0.1553
18370PP      PP28474   6.978  12.694   1.920 -0.3606  0.3164  0.0942
18371PP      PP28475  14.339   2.951   8.465 -0.2159  0.2389  0.0166
18372PP      PP28476  12.140   0.090   1.260 -0.0867 -0.0625  0.2624
18373PP      PP28477   0.585  13.227  12.521 -0.2048 -0.4923 -0.0235
18374PP      PP28478  12.740  10.005  11.920 -0.0814  0.1090  0.0859
18375PP      PP28479   8.610   7.728   1.039  0.0938  0.1215  0.0456
18376PP      PP28480   3.393  13.339   1.858 -0.0733  0.1404  0.1176
18377PP      PP28481  15.694   1.063  10.783 -0.2203  0.2348 -0.2332
18378PP      PP28482  12.635   0.552  11.655  0.1722 -0.1701 -0.2839
18379PP      PP28483  14.048   0.456   0.323  0.3349  0.1268  0.0085
18380PP      PP28484  11.479  12.826  10.483  0.1255 -0.2933  0.0715
18381PP      PP28485   9.711   5.635   0.844 -0.0888  0.1298 -0.0063
18382PP      PP28486  14.158   8.452   3.941  0.1131  0.1829  0.0205
18383PP      PP28487   5.288  11.160   3.290  0.2370 -0.0245  0.0094
18384PP      PP28488  13.685   3.027   8.769  0.1244 -0.0018 -0.3816
18385PP      PP28489  15.238   0.526  10.619 -0.1013  0.2320  0.0321
18386PP      PP28490  11.655  13.949   0.458 -0.1386  0.1291 -0.0189
18387PP      PP28491   2.702  14.424   1.296  0.0451  0.1701  0.0933
18388PP      PP28492  12.062  10.028   9.264  0.3397 -0.2494  0.0274
18389PP      PP28493  12.171   4.577  13.444  0.2372  0.3554 -0.3734
18390PP      PP28494  11.568   5.742   3.794 -0.0973 -0.1528 -0.3127
18391PP      PP28495   4.240   5.344  12.921  0.0260  0.3155 -0.2862
18392PP      PP28496   3.008   4.120  11.948 -0.1199 -0.1423 -0.2296
18393PP      PP28497   9.941   6.714  10.425 -0.1825 -0.0410  0.1265
18394PP      PP28498   8.857  11.388   3.040 -0.2312  0.0856 -0.1703
18395PP      PP28499  14.786  13.601   9.144 -0.1427 -0.1035 -0.3153
18396PP      PP28500  10.214   3.963   1.007  0.0797  0.0336  0.0567
18397PP      PP28501   7.556  10.707   0.632  0.0973  0.1421 -0.1427
18398PP      PP28502  11.816   0.998  11.877 -0.0930  0.0124  0.0543
18399PP      PP28503  12.658  11.531   2.022  0.0512  0.2421  0.0524
18400PP      PP28504   5.199   0.603   9.708  0.1268 -0.3525  0.0046
18401PP      PP28505  12.112   1.757   0.008  0.2337 -0.2401 -0.0477
18402PP      PP28506   6.058  13.141   1.064 -0.0842 -0.0373 -0.2367
18403PP      PP28507   9.444   0.102   1.451  0.0007  0.2720  0.0933
18404PP      PP28508   2.985   6.105   0.228 -0.1352  0.0367 -0.1899
18405PP      PP28509   4.408   8.996   9.154  0.1564 -0.1781 -0.0006
18406PP      PP28510   6.813   7.960   9.687  0.0405 -0.1593  0.0001
18407PP      PP28511   8.965   4.277   1.109  0.1577 -0.0947  0.0407
18408PP      PP28512   5.447  14.826   4.181 -0.2225 -0.1009 -0.5371
18409PP      PP28513  13.641   5.081   8.358 -0.4349  0.1163 -0.0924
18410PP      PP28514   2.619  13.377  11.033  0.3291  0.0028 -0.3001
18411PP      PP28515   6.836  12.776   4.654 -0.3200 -0.0139  0.1290
18412PP      PP28516   6.220   3.980  10.312  0.2878 -0.2435  0.1907
18413PP      PP28517  14.713   5.250   0.561  0.0553 -0.2310 -0.0047
18414PP      PP28518   5.134   9.654   2.994 -0.1283 -0.0043  0.0529
18415PP      PP28519   2.262   0.615   3.451 -0.1063  0.1540 -0.3244
18416PP      PP28520   0.502  15.095   2.436 -0.1257 -0.1067 -0.4222
18417PP      PP28521   6.786  13.622   0.452  0.0899  0.1317 -0.0822
18418PP      PP28522  13.693   0.296   1.351  0.1966  0.2888 -0.1299
18419PP      PP28523  12.144   7.214  11.089  0.0408 -0.3323  0.1422
18420PP      PP28524   5.707  11.308  10.223 -0.0224  0.0435  0.0123
18421PP      PP28525  11.543   5.043  12.091 -0.0410  0.0100  0.0007
18422PP      PP28526   3.726   1.350   0.783  0.0972 -0.1616  0.1938
18423PP      PP28527   0.801   8.980   2.123 -0.1898 -0.2080 -0.0358
18424PP      PP28528   3.370   3.887  12.994  0.0953  0.0893 -0.4845
18425PP      PP28529   0.556   1.809  11.441  0.0540 -0.3695  0.0734
18426PP      PP28530  15.621   6.737   9.400 -0.1377 -0.0810 -0.3341
18427PP      PP28531   6.190   2.717   0.019 -0.3297 -0.0395  0.3264
18428PP      PP28532  10.848   1.300  10.856 -0.0074 -0.0834  0.0201
18429PP      PP28533   2.492   0.120  10.154  0.3458  0.0245  0.1033
18430PP      PP28534   7.044   1.001  12.521 -0.2116 -0.0085 -0.1895
18431PP      PP28535   4.931   4.610   2.194 -0.0975  0.0147  0.1412
18432PP      PP28536  14.536   4.417  12.981 -0.0123 -0.3910  0.1147
18433PP      PP28537   1.500   5.827   2.189 -0.1522  0.0765  0.1299
18434PP      PP28538   4.778   3.738   0.593 -0.0814  0.0588 -0.1795
18435PP      PP28539   9.321   0.188   0.898  0.0939 -0.0439  0.3769
18436PP      PP28540   5.278   4.607   9.986  0.0858 -0.2785 -0.0111
18437PP      PP28541  10.282  14.992   2.525  0.0984 -0.1040  0.1715
18438PP      PP28542   2.284  15.566   0.141 -0.0477 -0.3930  0.0058
18439PP      PP28543   6.412   0.755   8.226  0.0042  0.2382 -0.1242
18440PP      PP28544   6.480   1.485   1.527  0.4629 -0.0212  0.1087
18441PP      PP28545  11.337   6.863   2.925 -0.0033 -0.0287  0.1873
18442PP      PP28546   8.885  11.725  10.573 -0.0405 -0.1525  0.2376
18443PP      PP28547  15.415   2.144   9.151  0.3539 -0.2228  0.0033
18444PP      PP28548   7.567  13.115   6.032 -0.2400 -0.1030 -0.0494
18445PP      PP28549   5.901  13.697  12.438 -0.2111 -0.0224 -0.3948
18446PP      PP28550   8.499   9.048  12.688 -0.1416 -0.0850  0.1454
18447PP      PP28551  11.633   7.846   1.324  0.1900 -0.1355 -0.0162
18448PP      PP28552   4.669  11.844  13.287 -0.2906 -0.1353 -0.0250
18449PP      PP28553   2.289   5.770   4.139 -0.1166  0.2286 -0.0671
18450PP      PP28554   3.754   8.730  10.620  0.2056  0.3790  0.1717
18451PP      PP28555   1.617   8.322  10.290 -0.1537 -0.3682 -0.0755
18452PP      PP28556   4.614  13.474  10.212  0.2937  0.0301  0.1085
18453PP      PP28557   1.341   6.739   4.618 -0.0719 -0.1117  0.1736
18454PP      PP28558   4.046  10.169   4.038 -0.0107  0.0810  0.0178
18455PP      PP28559   4.930   0.451   1.258 -0.2714 -0.0609  0.1491
18456PP      PP28560   8.273   9.281   0.653  0.0257  0.0989 -0.0452
18457PP      PP28561   7.347  14.729  10.275  0.1572  0.0805 -0.1115
18458PP      PP28562   9.787   4.899  12.026  0.0628 -0.1138  0.2281
18459PP      PP28563  10.251  10.609  11.390  0.0596 -0.3055 -0.1842
18460PP      PP28564   4.839  12.578   2.976  0.2479  0.1487 -0.0134
18461PP      PP28565   2.719  15.780   3.117 -0.1019 -0.0813  0.1791
18462PP      PP28566   4.049   7.211   4.893 -0.0836 -0.2591  0.0978
18463PP      PP28567  14.223   9.122   0.132  0.3294  0.2326  0.1656
18464PP      PP28568  15.230   7.292   2.269  0.1268 -0.2594 -0.1087
18465PP      PP28569   3.720   4.914   4.437  0.2248  0.1417  0.0407
18466PP      PP28570   7.643   9.219   4.686 -0.0639  0.1718 -0.0932
18467PP      PP28571  15.441   4.419  11.988  0.1122 -0.0117 -0.2029
18468PP      PP28572   4.992   5.901   2.734  0.1604 -0.1488  0.0675
18469PP      PP28573   5.340   0.135   2.156  0.0785 -0.1915 -0.3572
18470PP      PP28574   0.379  12.394   8.490 -0.0201 -0.0792 -0.2712
18471PP      PP28575  13.217   7.784  11.085  0.0488 -0.1870  0.0410
18472PP      PP28576   4.329  12.284   2.705 -0.2192  0.1698  0.0742
18473PP      PP28577  11.923   9.013   0.630  0.0436  0.1463  0.0384
18474PP      PP28578   7.796  11.359  12.255  0.3131  0.1161 -0.1692
18475PP      PP28579   3.896   4.816   4.941  0.2434 -0.2453 -0.1711
18476PP      PP28580   9.280   5.810   8.778 -0.0139  0.1853  0.0499
18477PP      PP28581   9.764   5.620   2.037 -0.1900  0.1794 -0.4476
18478PP      PP28582  11.560   6.981   0.887  0.5464 -0.0474  0.0778
18479PP      PP28583   8.344  10.221   3.382  0.0175 -0.1309 -0.0249
18480PP      PP28584  12.138   5.848   0.249 -0.0369 -0.1545 -0.1482
18481PP      PP28585   0.680   8.676   4.780 -0.1730 -0.2643  0.0992
18482PP      PP28586  10.911  13.440  12.054  0.3936  0.1879  0.0695
18483PP      PP28587   3.177   8.385   1.351  0.0843 -0.1704  0.0195
18484PP      PP28588   6.248   8.355  11.933 -0.4354 -0.0408  0.2245
18485PP      PP28589  13.352   7.314   0.229  0.4978 -0.0628 -0.1692
18486PP      PP28590  11.745  12.601   1.026 -0.0857  0.4117  0.0792
18487PP      PP28591  11.222  13.641  11.565  0.0022 -0.1532  0.1531
18488PP      PP28592   6.290   4.438   9.964  0.2402  0.3322  0.2543
18489PP      PP28593   7.028  12.228  13.137 -0.0328 -0.0868  0.0515
18490PP      PP28594   8.745  11.930   1.653  0.0104  0.0257  0.1988
18491PP      PP28595   3.024  14.284  12.540 -0.2024  0.4013  0.4095
18492PP      PP28596   7.892   9.556  12.546 -0.4308 -0.2952 -0.1542
18493PP      PP28597   3.358  14.692   0.349  0.3343 -0.5181  0.3898
18494PP      PP28598   8.894  11.783  12.008  0.3604 -0.2444  0.0578
18495PP      PP28599  11.643   0.009   1.505  0.2046  0.2953  0.1654
18496PP      PP28600  11.493   3.534  11.090  0.0032 -0.2390  0.0847
18497PP      PP28601  10.729   2.297   0.163 -0.0311  0.1510 -0.4463
18498PP      PP28602   4.923  15.589  13.193  0.5032 -0.0099  0.3197
18499PP      PP28603   8.371   1.551   9.471 -0.0808 -0.2073 -0.0888
18500PP      PP28604   4.719  11.270   2.540 -0.0202  0.1831 -0.0670
18501PP      PP28605   1.677   3.351   3.381 -0.4537 -0.4522  0.0580
18502PP      PP28606   2.503   1.839   0.685  0.2671  0.2914  0.0055
18503PP      PP28607   4.917   1.945   7.819  0.0204  0.1652  0.0128
18504PP      PP28608   0.911   7.254   4.482 -0.0754 -0.2006  0.2130
18505PP      PP28609   3.149   1.274   8.003  0.0576  0.2233  0.1890
18506PP      PP28610   7.246   8.464  12.947 -0.1726  0.1152 -0.1311
18507PP      PP28611   6.808   9.194  13.099 -0.1520  0.2432  0.1458
18508PP      PP28612   9.524   9.428  13.207 -0.1455 -0.2301  0.1640
18509PP      PP28613   3.980   0.606   1.948  0.1467  0.0524  0.0807
18510PP      PP28614  13.866  14.718   8.993 -0.2273  0.0487  0.4057
18511PP      PP28615   6.803   3.834  10.965 -0.0159 -0.3425  0.0017
18512PP      PP28616   3.322   5.925   3.004  0.2243  0.2211 -0.1625
18513PP      PP28617   8.739   9.045  10.298 -0.0531 -0.0980 -0.3367
18514PP      PP28618  13.253   1.009  10.522  0.0535  0.0969 -0.2294
18515PP      PP28619   5.770   8.178   3.666 -0.3028  0.1882  0.0666
18516PP      PP28620  14.817   9.784   1.091 -0.5315  0.1787 -0.0410
18517PP      PP28621   8.537   0.898   4.643  0.1589 -0.1265  0.0187
18518PP      PP28622  14.283   7.691  13.030 -0.0403 -0.1407  0.0720
18519PP      PP28623   9.825   2.495   9.546 -0.0995  0.0715  0.1093
18520PP      PP28624   0.970   2.368   1.866  0.0201  0.2275  0.0869
18521PP      PP28625  11.985  12.216  10.837 -0.0519  0.1811 -0.1768
18522PP      PP28626   4.701  15.121  10.975  0.0251 -0.0094  0.0992
18523PP      PP28627   8.617   0.962   4.045 -0.0008  0.1714 -0.1761
18524PP      PP28628   3.784   2.290  11.593 -0.2927 -0.3840 -0.0235
18525PP      PP28629  14.667   7.856   0.576  0.2074 -0.0067  0.0235
18526PP      PP28630  13.004   2.736  13.066  0.0477 -0.0849  0.0061
18527PP      PP28631   6.147   3.457  11.679  0.0744 -0.1497 -0.1185
18528PP      PP28632   6.940   7.897   4.619 -0.1203  0.2143  0.0846
18529PP      PP28633   0.452   6.148   1.675 -0.1334 -0.2729  0.4216
18530PP      PP28634   2.855   8.145   0.447  0.2131 -0.2498  0.2528
18531PP      PP28635  13.133   1.808  11.997 -0.2611  0.4365 -0.0786
18532PP      PP28636   2.895  10.592   1.600 -0.0334 -0.0850  0.0681
18533PP      PP28637   1.840  13.472   3.295  0.1905 -0.0969  0.1709
18534PP      PP28638   2.579   0.755   0.966  0.0943  0.3474 -0.0484
18535PP      PP28639   8.783   4.125  11.014  0.2271  0.2119  0.2451
18536PP      PP28640   4.334  14.832  12.384  0.0264 -0.2208 -0.0460
18537PP      PP28641   8.688   8.922   9.736 -0.2611  0.0833 -0.3368
18538PP      PP28642  14.903   4.679  13.230 -0.1210 -0.2735 -0.1073
18539PP      PP28643  15.350   6.240   9.988  0.0485  0.2612 -0.3470
18540PP      PP28644  13.879  14.784   2.391 -0.1478 -0.3413  0.2304
18541PP      PP28645  14.337   6.552  11.689 -0.3716 -0.3070  0.0679
18542PP      PP28646   9.214  10.652  12.777  0.1759  0.0933 -0.1850
18543PP      PP28647   4.505  12.024   3.566  0.0971  0.2904 -0.0506
18544PP      PP28648  13.305  10.769   2.209  0.3394  0.1082 -0.3355
18545PP      PP28649   1.512   5.737   9.719 -0.1413  0.0373  0.0138
18546PP      PP28650   3.402   2.897  10.180 -0.2492  0.2998 -0.3380
18547PP      PP28651   7.491   7.527  12.863 -0.3353  0.1919  0.0430
18548PP      PP28652  13.847  12.851   2.888  0.1503 -0.1390  0.2264
18549PP      PP28653   4.147  15.294   0.390 -0.2461 -0.1272 -0.1579
18550PP      PP28654   2.465   6.946   5.080 -0.1696  0.0480 -0.0598
18551PP      PP28655   4.389   4.911   3.571 -0.4218 -0.1212 -0.0775
18552PP      PP28656   6.179  12.105   5.408 -0.0182  0.2474 -0.1581
18553PP      PP28657  11.287  15.230   8.017 -0.1067 -0.0864 -0.1051
18554PP      PP28658  11.465   3.369   9.674  0.3110 -0.0374  0.2106
18555PP      PP28659   8.924  10.355  10.586  0.0040 -0.0732  0.0829
18556PP      PP28660   0.059   3.643  11.628  0.0909 -0.2656  0.1827
18557PP      PP28661  12.731  12.288   3.693 -0.1433 -0.3871  0.0598
18558PP      PP28662  10.267   6.010  10.616 -0.0284  0.3134  0.0225
18559PP      PP28663  13.191  15.878  11.312 -0.0834  0.3061  0.0013
18560PP      PP28664   5.172  13.530   1.037  0.1168  0.2663  0.0660
18561PP      PP28665   1.198   7.500  10.318  0.1730 -0.0735  0.1184
18562PP      PP28666   2.862   8.892  12.189 -0.3857 -0.0436 -0.2997
18563PP      PP28667  14.330   4.987   9.160  0.0975 -0.2562  0.0031
18564PP      PP28668   9.616   2.403   9.018  0.0315  0.1504  0.3604
18565PP      PP28669  12.942  10.087   9.591 -0.0438 -0.2010  0.0303
18566PP      PP28670  11.525  14.077   9.498  0.1705 -0.2050 -0.1246
18567PP      PP28671  11.328   9.999   3.105 -0.1272  0.0953 -0.0942
18568PP      PP28672   7.135   9.086  11.794  0.1227  0.3189 -0.1959
18569PP      PP28673  15.285   3.402   2.739 -0.0584  0.1255 -0.0069
18570PP      PP28674  12.082  15.724   8.795  0.0719  0.4255 -0.1176
18571PP      PP28675  12.787   4.778  12.897  0.0325  0.1660  0.2327
18572PP      PP28676   0.932   4.597   9.720  0.3508 -0.1331 -0.0830
18573PP      PP28677  13.504   5.548   3.571 -0.1348  0.1977 -0.0462
18574PP      PP28678   1.496  14.425  12.092 -0.0125  0.0371 -0.2407
18575PP      PP28679  12.673   6.824   3.798  0.0697 -0.2932 -0.4356
18576PP      PP28680   9.281   9.376   3.222  0.0815  0.3375 -0.2307
18577PP      PP28681   0.709  12.028   3.113  0.0995  0.0237  0.0305
18578PP      PP28682   8.788   3.488  10.417  0.0923 -0.0794 -0.0621
18579PP      PP28683  15.521   5.910  11.017 -0.0787 -0.0619 -0.1664
18580PP      PP28684   3.306   5.289   3.380  0.0679  0.0126 -0.1143
18581PP      PP28685  11.989   2.636   2.887 -0.0468 -0.0258 -0.1690
18582PP      PP28686   0.817   5.130   9.814 -0.0578  0.1279 -0.1231
18583PP      PP28687  15.811  12.857   2.141  0.0504 -0.2062 -0.1673
18584PP      PP28688   3.331   4.137   8.746 -0.1367  0.0359 -0.3158
18585PP      PP28689   8.766   2.443   4.268 -0.1080  0.0223 -0.1941
18586PP      PP28690  11.644   8.055  12.567 -0.1821 -0.0378 -0.2572
18587PP      PP28691   3.758  11.306  12.149  0.0890  0.0954 -0.1041
18588PP      PP28692   7.765  11.432  10.808 -0.1858  0.0202 -0.3657
18589PP      PP28693   6.604   0.500  11.278  0.1437  0.2203  0.1462
18590PP      PP28694   0.173   9.268  11.101 -0.1132  0.0424  0.0173
18591PP      PP28695  11.897   2.778   8.254 -0.3158 -0.2089  0.1111
18592PP      PP28696   2.174  10.936   0.710  0.0847 -0.1151 -0.0882
18593PP      PP28697   8.199  10.070   0.574 -0.0626 -0.3173  0.1063
18594PP      PP28698  15.405   6.922  11.103 -0.0186 -0.2821 -0.0148
18595PP      PP28699   5.416  11.287   9.695 -0.2840  0.2482  0.2840
18596PP      PP28700   1.532   3.254   2.023 -0.0378  0.2863  0.0122
18597PP      PP28701  11.133  13.654  12.392 -0.0881 -0.0028 -0.5353
18598PP      PP28702   6.238   4.487   2.550 -0.1383  0.0142  0.0503
18599PP      PP28703  11.701  13.959   2.707  0.1395  0.2214 -0.3075
18600PP      PP28704  15.808  15.853  13.185  0.1267 -0.0989 -0.1162
18601PP      PP28705  13.356  11.163  11.572  0.2524  0.0065 -0.0082
18602PP      PP28706   5.733   7.188   3.201 -0.2965  0.0311  0.2346
18603PP      PP28707  12.605  15.012   9.246  0.0231  0.0780  0.0586
18604PP      PP28708  14.684   3.723   9.303  0.0683 -0.0464 -0.3696
18605PP      PP28709   3.386  10.064   0.433 -0.0454  0.0220 -0.2695
18606PP      PP28710   6.670  12.944   1.232 -0.0761 -0.0961 -0.0141
18607PP      PP28711   4.759   9.396   4.639 -0.0175  0.1576 -0.3058
18608PP      PP28712   7.986   3.536  13.037 -0.0917  0.0413  0.0445
18609PP      PP28713  15.714  11.039  11.372 -0.0374 -0.2198 -0.2493
18610PP      PP28714  14.086   3.043  12.320  0.0105  0.4774 -0.1039
18611PP      PP28715   7.068  12.188   1.851  0.1349 -0.0371 -0.1595
18612PP      PP28716   7.395   0.178  11.222  0.2717 -0.2170 -0.0131
18613PP      PP28717   4.890  14.140  13.189  0.0695  0.1560  0.4402
18614PP      PP28718   9.042  11.375   0.696  0.0764 -0.1461  0.1532
18615PP      PP28719   0.578   6.576  10.896 -0.0283  0.3190 -0.1069
18616PP      PP28720  14.837  15.112  12.864 -0.3656  0.0827  0.0196
18617PP      PP28721   4.593   7.838  13.115 -0.0324  0.0561 -0.0743
18618PP      PP28722  15.508   8.165   0.391  0.0873 -0.2379  0.0029
18619PP      PP28723  11.972  12.328   2.564 -0.0000 -0.1535  0.0018
18620PP      PP28724  10.523   3.537  11.591 -0.1577  0.1515  0.0013
18621PP      PP28725   5.799  12.775  10.730 -0.0340  0.1480  0.1473
18622PP      PP28726  10.674  12.861   9.774 -0.1506  0.0477 -0.1107
18623PP      PP28727   2.359  11.019   3.102  0.0025  0.0079  0.2357
18624PP      PP28728  12.726   6.639   1.253 -0.1602 -0.0752 -0.3462
18625PP      PP28729   7.618  15.680   2.272 -0.2275 -0.0467  0.2853
18626PP      PP28730   3.393   8.878   3.429 -0.1588  0.0654 -0.2094
18627PP      PP28731   0.094  13.947  11.843 -0.0084 -0.0916  0.1888
18628PP      PP28732   7.082   3.757  13.298 -0.0561  0.3085  0.2031
18629PP      PP28733  13.363   2.275  11.816 -0.0574 -0.1075 -0.0684
18630PP      PP28734   3.185  10.301   3.806 -0.1449  0.1121  0.0204
18631PP      PP28735  12.485  10.373   3.781 -0.0814 -0.0757  0.1336
18632PP      PP28736   7.963   9.565   2.244  0.1153 -0.1107 -0.0963
18633PP      PP28737   1.111  13.225   1.911 -0.0407 -0.1850  0.0111
18634PP      PP28738  10.615   8.501   3.381 -0.0943  0.2296 -0.1021
18635PP      PP28739   2.282  12.883   2.362  0.1784 -0.1545  0.0914
18636PP      PP28740   0.907  13.348  11.817 -0.0431 -0.0655  0.0802
18637PP      PP28741   8.498   5.649  10.775 -0.0377  0.1600 -0.3085
18638PP      PP28742  14.284   2.486  10.841 -0.0051 -0.0384 -0.2392
18639PP      PP28743  15.516   0.088  11.236 -0.0320 -0.2146 -0.1687
18640PP      PP28744  13.816  14.466  11.212  0.3064  0.0912 -0.2149
18641PP      PP28745   5.527   9.708   9.843 -0.0497  0.0098  0.3560
18642PP      PP28746   8.176  12.807   4.290  0.2998 -0.2320 -0.2125
18643PP      PP28747   6.256   8.446  11.236  0.2109  0.2285  0.1773
18644PP      PP28748   8.367   3.673  11.732  0.1953 -0.1664 -0.0739
18645PP      PP28749  12.148   6.444   1.353 -0.2016  0.0240 -0.0352
18646PP      PP28750  15.586   5.522  12.257  0.2028  0.1813 -0.0195
18647PP      PP28751   7.071   0.184   0.889 -0.0546 -0.2327 -0.0751
18648PP      PP28752   0.246   6.642   3.100 -0.3907 -0.2255  0.0004
18649PP      PP28753   8.663  14.919   9.548  0.0956 -0.0027  0.1506
18650PP      PP28754   8.624   8.050   4.519  0.0591  0.3478  0.2934
18651PP      PP28755   6.504   0.433   4.030  0.3155 -0.2488  0.0057
18652PP      PP28756   3.558  11.224   3.294  0.1950  0.2042  0.2098
18653PP      PP28757   9.216  15.576   3.404 -0.0138  0.1417 -0.2122
18654PP      PP28758   0.779   9.657  12.105 -0.0515  0.0741 -0.2361
18655PP      PP28759   9.605   4.942  12.792 -0.0037  0.0860  0.2953
18656PP      PP28760   4.369   4.220  10.252 -0.2068 -0.1304  0.0367
18657PP      PP28761  12.880   8.623   4.289  0.2941 -0.4813  0.0389
18658PP      PP28762   9.066   6.339   1.109  0.1265  0.3519 -0.0191
18659PP      PP28763   8.647  10.108   4.873 -0.0646  0.0497  0.2639
18660PP      PP28764   4.321   0.789   2.457 -0.3588 -0.0289  0.2536
18661PP      PP28765  11.092  13.814   0.272  0.1274 -0.2524 -0.2134
18662PP      PP28766  14.399  13.984   0.494 -0.2390  0.0604 -0.1312
18663PP      PP28767  11.914  11.001   4.083  0.0718 -0.1234  0.1936
18664PP      PP28768  15.358  15.581   2.534 -0.2389 -0.3771  0.2205
18665PP      PP28769   9.551   5.675  13.358  0.0416  0.1438  0.1888
18666PP      PP28770  14.785  11.038  11.164 -0.1303 -0.0520 -0.3228
18667PP      PP28771   4.317   4.140  12.052 -0.1244  0.2439 -0.2063
18668PP      PP28772   2.573   1.360   0.562 -0.3730 -0.0830  0.0912
18669PP      PP28773   2.260  12.290   0.049  0.0615 -0.3849 -0.2198
18670PP      PP28774   9.390  13.892   0.918 -0.4641 -0.1553  0.1681
18671PP      PP28775  12.290   1.127  13.203  0.0416  0.0100 -0.0460
18672PP      PP28776   4.630   1.352   1.107 -0.0689 -0.1080 -0.2433
18673PP      PP28777   2.918   2.278  11.908  0.0668 -0.1225  0.1499
18674PP      PP28778  15.016   5.803   1.031 -0.1714  0.0341  0.0156
18675PP      PP28779   4.351  14.212   1.757  0.1445  0.0845  0.0608
18676PP      PP28780  11.857   4.912   2.706  0.1011 -0.0183 -0.4461
18677PP      PP28781  13.193   2.912   1.854  0.0646 -0.2008  0.0258
18678PP      PP28782  13.385   8.678   1.997 -0.2900 -0.3524 -0.2454
18679PP      PP28783   2.982   0.852   2.513  0.1744 -0.1058 -0.1415
18680PP      PP28784  14.597  14.154   7.964 -0.2544  0.1634  0.2015
18681PP      PP28785   6.392  13.253   3.744 -0.0751 -0.0066 -0.0141
18682PP      PP28786  13.936  12.500   1.733  0.0833  0.0468  0.0990
18683PP      PP28787  13.415   6.447   0.161  0.1498  0.1560  0.1062
18684PP      PP28788   0.934  11.773   9.749 -0.2023  0.0275 -0.1028
18685PP      PP28789   7.014   0.056   9.282  0.1941  0.0436  0.0921
18686PP      PP28790  12.110   1.713   0.526  0.0230  0.1214  0.1362
18687PP      PP28791   2.996   7.494   3.329 -0.1802 -0.1979 -0.0308
18688PP      PP28792  13.435  11.218  11.104  0.2240  0.1083  0.0930
18689PP      PP28793   0.815  13.954  10.029  0.0702 -0.2723 -0.2343
18690PP      PP28794   9.062   4.606   0.685  0.2799  0.0896 -0.1166
18691PP      PP28795   9.695  12.630  12.276 -0.1763 -0.1958  0.1475
18692PP      PP28796   8.919   6.493   9.991 -0.1252 -0.0432 -0.2632
18693PP      PP28797   8.944   1.596   1.297  0.1855  0.0808  0.4814
18694PP      PP28798   2.134  13.545  10.903 -0.1721 -0.1575 -0.0459
18695PP      PP28799   2.377  15.878  12.299 -0.2026 -0.0922  0.0119
18696PP      PP28800   4.201  12.503  12.314  0.2429 -0.1135 -0.2951
18697PP      PP28801  11.113  14.017   2.605 -0.1622  0.2408  0.0773
18698PP      PP28802   7.432   5.174   8.730 -0.0437  0.1119  0.1188
18699PP      PP28803   7.773  12.739   3.309 -0.0323 -0.1603 -0.3854
18700PP      PP28804   3.576   2.844  11.536  0.1416 -0.0615  0.0989
18701PP      PP28805   7.496  13.954  13.064 -0.0797  0.1754 -0.2653
18702PP      PP28806   7.383   9.275  10.037 -0.1444 -0.0261  0.0904
18703PP      PP28807   2.462   2.288   0.410 -0.0722 -0.0568 -0.0364
18704PP      PP28808   9.737   3.685  10.476  0.0236  0.2840 -0.4358
18705PP      PP28809   2.965   7.510  11.770  0.0662  0.3887  0.0442
18706PP      PP28810   8.973  11.657   4.405 -0.0267  0.0814 -0.0208
18707PP      PP28811   9.657   2.245  11.809  0.0850  0.0336 -0.2955
18708PP      PP28812   1.610  11.852   8.735 -0.0688  0.1016 -0.1277
18709PP      PP28813   4.500  14.379   1.294  0.2679 -0.3265 -0.1847
18710PP      PP28814  13.707   3.309   1.647 -0.2136 -0.0624 -0.1039
18711PP      PP28815  10.628   9.221   2.241 -0.0556  0.0054  0.0754
18712PP      PP28816   3.906  15.540   3.420  0.6233 -0.3063 -0.1026
18713PP      PP28817   5.200  13.967   2.194 -0.2096 -0.1699  0.2078
18714PP      PP28818   3.970  14.126  11.194 -0.0296  0.0010 -0.0368
18715PP      PP28819   7.515  10.562  11.628  0.2674  0.0023 -0.1869
18716PP      PP28820   9.067   1.642   3.831 -0.0581  0.0943  0.1197
18717PP      PP28821   2.365   4.221  11.987  0.2478 -0.5223  0.0510
18718PP      PP28822  15.080   5.129   2.275  0.0005  0.2966  0.0783
18719PP      PP28823   5.400   8.053   3.980  0.0078  0.1031 -0.1310
18720PP      PP28824  14.288  11.014   8.827 -0.0459  0.2445 -0.0571
18721PP      PP28825   7.989   7.051   0.464 -0.3317 -0.1503  0.1773
18722PP      PP28826   6.443  13.227   0.334  0.1462 -0.0001  0.2745
18723PP      PP28827  12.757   5.711   1.155 -0.3418 -0.0147  0.2569
18724PP      PP28828   1.355   4.239   3.482 -0.0094 -0.1018 -0.1032
18725PP      PP28829   2.424  12.106   3.964 -0.0275  0.1397  0.2365
18726PP      PP28830  14.516   6.827   8.180 -0.0628  0.2279 -0.0613
18727PP      PP28831  12.249  11.778   3.141  0.1683 -0.0791 -0.0483
18728PP      PP28832  11.414   2.520   2.928 -0.1855  0.0728 -0.1037
18729PP      PP28833  15.838   7.511   2.928  0.3546 -0.2062  0.3001
18730PP      PP28834  10.953   6.369  12.630  0.0114  0.5619 -0.3933
18731PP      PP28835   4.191   0.099   0.300 -0.1929 -0.0956 -0.1845
18732PP      PP28836  10.991  11.969   0.622  0.0009 -0.0112  0.2090
18733PP      PP28837  13.511  11.556   2.152 -0.0332  0.0813  0.1162
18734PP      PP28838   8.261  12.438   8.834  0.2454  0.1209  0.1234
18735PP      PP28839   1.437   2.038   4.110  0.0626 -0.3375 -0.2879
18736PP      PP28840   2.529  15.235   1.422 -0.1445  0.0992 -0.0929
18737PP      PP28841   9.736   4.758   0.097 -0.0508  0.0476 -0.0986
18738PP      PP28842  11.596   1.305   9.156 -0.3044 -0.3020  0.0662
18739PP      PP28843   6.144   3.535  12.170 -0.4769  0.3729  0.3240
18740PP      PP28844  15.312  15.118  11.411 -0.1148  0.1685 -0.2358
18741PP      PP28845   0.441  14.744   8.509 -0.1942 -0.1470 -0.2844
18742PP      PP28846   7.314  12.638   3.167 -0.0935  0.2530  0.1659
18743PP      PP28847   0.229  13.573   0.490  0.1558 -0.1213 -0.3865
18744PP      PP28848   1.664   0.877   1.472  0.1038 -0.1043  0.4178
18745PP      PP28849  10.454   9.772   4.587  0.0172 -0.1112  0.0576
18746PP      PP28850   9.098   9.072  13.035 -0.0067  0.1966  0.0307
18747PP      PP28851  10.120   2.828  12.227 -0.5487  0.1631 -0.1477
18748PP      PP28852  13.149   9.764  10.122  0.2599  0.0900  0.1231
18749PP      PP28853  10.310   4.272  11.039 -0.3128 -0.3228  0.0134
18750PP      PP28854   6.856   6.289   1.334  0.0479 -0.1631 -0.0106
18751PP      PP28855   0.278  14.428   8.948 -0.0800  0.0080 -0.0806
18752PP      PP28856  14.784   5.330  11.296 -0.2135 -0.0801  0.2740
18753PP      PP28857  15.427  12.116   3.527  0.2364 -0.2251  0.0004
18754PP      PP28858   8.846   7.586   9.903 -0.3413  0.0484 -0.1847
18755PP      PP28859  14.281   4.007  12.799 -0.3491  0.1465 -0.2326
18756PP      PP28860  11.099  14.547  11.111 -0.0408  0.2031 -0.0485
18757PP      PP28861   3.108   6.056   0.822 -0.2361  0.0942  0.1029
18758PP      PP28862  11.946   1.988   3.646  0.2195 -0.0160 -0.1056
18759PP      PP28863  11.714   7.402  11.034 -0.0992  0.0814 -0.0681
18760PP      PP28864  14.581   5.216  12.271  0.0569  0.0400  0.0765
18761PP      PP28865  15.063   3.082   3.166  0.3009  0.3747 -0.0126
18762PP      PP28866   3.186   7.030   1.890  0.1994 -0.3075 -0.1919
18763PP      PP28867  14.200   5.304  11.274  0.1089  0.0767 -0.1323
18764PP      PP28868   9.068  12.705   3.698  0.1720  0.1231 -0.0266
18765PP      PP28869  15.705   3.493  13.012 -0.0519 -0.1361  0.1560
18766PP      PP28870   2.953   8.011  10.888  0.0992  0.0941  0.2618
18767PP      PP28871  11.832  11.035  10.885  0.2439 -0.0581  0.1696
18768PP      PP28872   2.634   2.097  12.730 -0.0181 -0.1674 -0.3176
18769PP      PP28873   7.954   5.894  11.627 -0.3691 -0.2920 -0.0380
18770PP      PP28874  14.999  15.446  10.418 -0.5211  0.1684 -0.0805
18771PP      PP28875  11.142   4.592  13.358 -0.0335  0.1064  0.2820
18772PP      PP28876   4.618  12.994  10.460 -0.1005 -0.2722  0.0912
18773PP      PP28877  13.362  14.665   8.702 -0.0664  0.0575  0.0284
18774PP      PP28878   1.463   4.839  11.447 -0.0992 -0.0814  0.1280
18775PP      PP28879  14.596   9.297  13.271 -0.0643  0.0812  0.3138
18776PP      PP28880   4.267   8.185  10.159 -0.1029 -0.2243  0.0727
18777PP      PP28881   1.232  13.505   0.032 -0.2331  0.1386 -0.2052
18778PP      PP28882   8.407   7.840  10.789 -0.1006  0.0119  0.3167
18779PP      PP28883  14.506   2.262  12.683 -0.0101  0.0008 -0.0232
18780PP      PP28884   0.205  11.025   3.614 -0.0207  0.0793 -0.0293
18781PP      PP28885   6.533  15.867   9.323  0.3237 -0.1195  0.1460
18782PP      PP28886  12.190  14.839   3.153 -0.2563  0.3975 -0.2354
18783PP      PP28887   4.546   8.882   8.618  0.3164 -0.0321 -0.1343
18784PP      PP28888   2.760  15.886  10.969 -0.0478  0.3613 -0.2042
18785PP      PP28889  12.959   1.611   9.147  0.1489 -0.0788 -0.2898
18786PP      PP28890  14.757  11.533  11.313  0.1259 -0.0927  0.2313
18787PP      PP28891  12.357   5.490  12.380  0.2320  0.0965  0.2615
18788PP      PP28892   7.900   2.332   1.874  0.2496  0.0322 -0.1919
18789PP      PP28893   3.094   6.212   3.929 -0.0931 -0.0181  0.0233
18790PP      PP28894  14.790  12.137   9.914 -0.2668  0.3649 -0.0253
18791PP      PP28895   0.569  14.187   2.258 -0.0164  0.1624 -0.0963
18792PP      PP28896   9.292   6.756  12.483  0.3196 -0.2597 -0.1582
18793PP      PP28897   0.848   6.862   1.429  0.2798 -0.2210 -0.2697
18794PP      PP28898   4.404   6.744   3.434  0.1024 -0.0425  0.1026
18795PP      PP28899  10.914   0.034  11.404 -0.1058 -0.1113  0.0492
18796PP      PP28900   8.947  14.455   9.653 -0.0895  0.0016  0.2073
18797PP      PP28901  12.492  14.137   0.000 -0.1487  0.0447  0.0522
18798PP      PP28902  13.024  12.821   0.484 -0.2280  0.1418 -0.0114
18799PP      PP28903   7.428  14.385  13.446 -0.2034 -0.2138 -0.0295
18800PP      PP28904   1.761   9.779  10.504  0.1218  0.1126  0.1050
18801PP      PP28905  10.250  14.614   3.801 -0.3152  0.0339 -0.1889
18802PP      PP28906  13.476   2.941   1.467  0.1042 -0.1740  0.0263
18803PP      PP28907  12.198   1.499  11.110 -0.0261  0.3354  0.0517
18804PP      PP28908   0.004   5.557   4.825  0.0315  0.0896  0.1812
18805PP      PP28909  10.492  10.224   4.782 -0.0517 -0.0067  0.1608
18806PP      PP28910   6.641  13.345   2.600 -0.2491  0.2060 -0.5993
18807PP      PP28911   3.515   9.516   3.286  0.0009 -0.0125  0.1334
18808PP      PP28912   6.916   7.342   0.837  0.3121  0.2142 -0.2545
18809PP      PP28913   3.846   6.886   3.118 -0.0947  0.1569  0.1063
18810PP      PP28914  11.485   3.466   8.455  0.0681 -0.5755  0.0117
18811PP      PP28915   4.173   4.846   0.845 -0.1207  0.2056  0.0664
18812PP      PP28916   4.022   2.344  10.621 -0.1032 -0.3388  0.1093
18813PP      PP28917  12.078   9.728  12.036  0.0443  0.2373 -0.2192
18814PP      PP28918   6.162   1.238  10.440  0.3143  0.1280  0.0037
18815PP      PP28919  15.629   2.461  11.495 -0.1323  0.3498 -0.1848
18816PP      PP28920   2.116  14.681   0.459 -0.3595  0.1685  0.0519
18817PP      PP28921   4.030   7.231   2.786 -0.0617  0.1782 -0.0671
18818PP      PP28922  10.989   4.319  12.460  0.0402  0.2808  0.0854
18819PP      PP28923  14.371   2.509  10.194 -0.0420  0.0894  0.3415
18820PP      PP28924  14.048  10.964   9.839 -0.2453 -0.2236 -0.1006
18821PP      PP28925   5.271  12.870  11.431 -0.1365 -0.1578 -0.2663
18822PP      PP28926   7.747   5.203   1.500  0.2912 -0.0725  0.0141
18823PP      PP28927  13.073  11.010  12.807  0.0905 -0.1117 -0.1146
18824PP      PP28928   5.883   4.580   1.672 -0.0228  0.1523  0.0084
18825PP      PP28929   0.130   6.037   8.690  0.2095  0.1087  0.1685
18826PP      PP28930  15.438   4.678   8.651  0.1117 -0.1946 -0.3612
18827PP      PP28931  13.109   2.529   0.048  0.0421 -0.1300 -0.0543
18828PP      PP28932   1.508  11.820   4.220 -0.1970  0.2821 -0.0107
18829PP      PP28933  12.812   7.053  12.609  0.0074  0.0554  0.2289
18830PP      PP28934  11.251   3.313   1.085  0.2889  0.3997  0.2082
18831PP      PP28935  14.943   5.829   2.832 -0.2238  0.2601 -0.3536
18832PP      PP28936   9.407   1.450   3.198  0.1238 -0.1542 -0.3876
18833PP      PP28937   0.089  15.359  12.960 -0.1291 -0.1707 -0.0006
18834PP      PP28938   0.932   2.927  11.841  0.0646 -0.0958  0.2698
18835PP      PP28939  12.091  13.503  10.996 -0.1176  0.3806 -0.1971
18836PP      PP28940  12.582  14.596  12.937 -0.1325 -0.0163  0.1427
18837PP      PP28941  12.316  13.646   9.287  0.4144 -0.0481  0.1625
18838PP      PP28942  14.795   9.701   8.502 -0.0674  0.2953 -0.3255
18839PP      PP28943  10.471  15.212  12.725 -0.0804 -0.1506 -0.3707
18840PP      PP28944  14.020   0.645   9.374 -0.0305  0.1388  0.3048
18841PP      PP28945   5.747   8.735  10.774 -0.1130  0.1307 -0.3698
18842PP      PP28946   2.218   2.596  11.412  0.3125  0.0266 -0.3238
18843PP      PP28947  11.609   0.538   2.730  0.0766 -0.2082 -0.0420
18844PP      PP28948  13.583   1.843  11.591  0.0400  0.1541 -0.3359
18845PP      PP28949   0.396   8.854   4.254 -0.2831 -0.0374 -0.0278
18846PP      PP28950   3.483   7.335  11.978  0.1406  0.1002  0.0824
18847PP      PP28951   3.393   9.317   3.706 -0.1633  0.0925 -0.0934
18848PP      PP28952  12.041  10.154  12.315  0.2023  0.1195 -0.0815
18849PP      PP28953   4.618  14.155   4.690  0.1923 -0.0973  0.3539
18850PP      PP28954   3.893   3.017   9.416 -0.1081  0.2286  0.3834
18851PP      PP28955   1.408   5.576   1.316  0.0018 -0.0631  0.2206
18852PP      PP28956  10.534  14.231   1.497  0.1171  0.2737  0.0151
18853PP      PP28957   3.418   9.212   2.495  0.0214 -0.0346 -0.1987
18854PP      PP28958   7.986   3.998   3.204 -0.3040  0.1145  0.1185
18855PP      PP28959   7.759  13.517  13.144  0.1294 -0.0274 -0.2224
18856PP      PP28960   5.090   3.536  10.742  0.0741  0.2180 -0.1059
18857PP      PP28961  10.303   3.013   3.712  0.1385 -0.2993 -0.1346
18858PP      PP28962  10.148   0.461   2.108 -0.1504  0.2135 -0.1267
18859PP      PP28963  15.868  11.026   4.065  0.1286  0.1242 -0.0368
18860PP      PP28964   6.929   5.404   1.675  0.0814  0.0632 -0.1216
18861PP      PP28965   4.495  14.667   3.300 -0.1591  0.0525  0.0509
18862PP      PP28966   8.815   0.845  10.047  0.4623 -0.2871  0.3577
18863PP      PP28967  15.463   0.234  10.290  0.3600 -0.0778 -0.0052
18864PP      PP28968  11.391   2.014   2.846 -0.0219 -0.0451  0.0921
18865PP      PP28969  11.143  14.740   8.893  0.0644  0.1408  0.0085
18866PP      PP28970   2.273   6.420   9.675  0.0690  0.0084 -0.1807
18867PP      PP28971   2.896   9.663   4.379  0.1880 -0.0720  0.1707
18868PP      PP28972   2.985  12.933   0.420  0.1696 -0.4405 -0.0952
18869PP      PP28973   1.603   2.591   2.618 -0.3843 -0.1021 -0.0264
18870PP      PP28974   8.458   5.332   9.899  0.0533  0.0118  0.3732
18871PP      PP28975   4.782  12.377   0.589 -0.0685 -0.1004 -0.2847
18872PP      PP28976  14.229   1.282  11.149 -0.0719 -0.1855 -0.2679
18873PP      PP28977  13.534   8.094  12.319 -0.1576 -0.1538  0.1826
18874PP      PP28978   8.062  10.106   1.063  0.0895 -0.2752  0.2911
18875PP      PP28979   6.568   8.219   3.063 -0.2551 -0.0529  0.0053
18876PP      PP28980   5.194   0.063  10.611 -0.0299 -0.0195 -0.0842
18877PP      PP28981   0.773  12.117   4.048 -0.0092  0.5164 -0.1790
18878PP      PP28982  12.113   6.815   3.082  0.0176  0.0744 -0.0050
18879PP      PP28983  12.616   6.017   2.641  0.1536  0.2572  0.0739
18880PP      PP28984   7.614  13.979  10.671  0.0209  0.0351  0.2097
18881PP      PP28985  11.868   6.612  11.739 -0.0146  0.0282 -0.1076
18882PP      PP28986  13.338   2.618  12.222 -0.1683  0.0405  0.0629
18883PP      PP28987   7.794   8.967   2.438  0.1666 -0.1668 -0.0379
18884PP      PP28988  13.287  10.243   8.681 -0.0252 -0.0011 -0.0857
18885PP      PP28989  10.092   5.605   8.468  0.1482  0.2574  0.0506
18886PP      PP28990  13.939   8.870   2.232 -0.0011 -0.1485  0.0574
18887PP      PP28991   1.422  12.253   1.763  0.0025  0.2182 -0.0968
18888PP      PP28992   7.226   7.039   9.581 -0.0923  0.1023 -0.0720
18889PP      PP28993   8.845   6.505  11.354 -0.1215 -0.0231 -0.0972
18890PP      PP28994  11.987  15.608  10.438 -0.0587  0.1616 -0.0538
18891PP      PP28995   5.650   7.142  10.725  0.3348 -0.0880  0.0758
18892PP      PP28996   7.136   5.491  12.668  0.1774  0.1841 -0.1440
18893PP      PP28997   1.776   3.966   1.425 -0.2001  0.2028 -0.1980
18894PP      PP28998  12.245   4.645  10.814  0.0703 -0.0805  0.1878
18895PP      PP28999   2.052   4.998   0.315  0.0635 -0.1327  0.0914
18896PP      PP29000   9.832   5.804  12.515 -0.0642 -0.0305 -0.3411
18897PP      PP29001  11.127   3.202   0.129 -0.0797  0.0622 -0.2258
18898PP      PP29002   9.695   9.545   9.477  0.2548 -0.1009 -0.1038
18899PP      PP29003  15.312   6.893   4.367 -0.0343 -0.0969 -0.3594
18900PP      PP29004  11.024   3.799   1.838 -0.1339 -0.0803  0.1843
18901PP      PP29005   3.732  13.842   9.655 -0.0671  0.0915  0.1216
18902PP      PP29006   8.095   9.437  12.103  0.0220  0.0552  0.0820
18903PP      PP29007  13.651   0.139  12.143  0.0731 -0.0591 -0.1985
18904PP      PP29008   9.168   0.853  11.162  0.2101 -0.0503  0.0885
18905PP      PP29009   7.969   9.805  11.287 -0.3941  0.1725  0.1979
18906PP      PP29010  15.103   5.858   9.694  0.4148 -0.1865  0.1820
18907PP      PP29011   3.993   6.429   3.601 -0.2019  0.1254 -0.3455
18908PP      PP29012  15.706  14.228   2.202 -0.0238 -0.0099  0.2866
18909PP      PP29013  11.976   7.514  12.328 -0.1353 -0.3230  0.5562
18910PP      PP29014  15.255   8.445  12.960 -0.1166 -0.1430  0.0184
18911PP      PP29015   4.323   6.743   1.910 -0.3637  0.0192 -0.0368
18912PP      PP29016   8.050   7.381   4.741  0.0860  0.1149  0.0538
18913PP      PP29017  11.747  12.303  11.292  0.0469 -0.1396  0.0965
18914PP      PP29018  12.447  10.438  11.341  0.2234 -0.0820 -0.0702
18915PP      PP29019  10.986   6.290   0.865 -0.0200  0.4967  0.1206
18916PP      PP29020  10.967  11.475   1.331  0.0340  0.0394 -0.1497
18917PP      PP29021   2.298   1.679   1.849  0.1645 -0.1307 -0.1721
18918PP      PP29022   3.907   6.621   9.390 -0.0957  0.0439  0.3418
18919PP      PP29023   5.874  10.298   3.593  0.1302  0.2331  0.2755
18920PP      PP29024   1.448  11.428   3.224  0.2645 -0.1808 -0.0430
18921PP      PP29025   3.628   1.594   1.527 -0.2124  0.0054 -0.2395
18922PP      PP29026   1.883   0.386  10.726  0.4970  0.1634 -0.0655
18923PP      PP29027   3.891   8.262  10.625  0.0500  0.1222 -0.1336
18924PP      PP29028  13.257  11.046   0.756 -0.0848 -0.1259  0.1325
18925PP      PP29029   5.477  13.472   0.140 -0.3755 -0.1115  0.0937
18926PP      PP29030  13.099   6.075  11.482 -0.1186 -0.1544 -0.2023
18927PP      PP29031   1.324   3.619   3.531 -0.1614  0.4448  0.0682
18928PP      PP29032   2.120  12.033   2.851 -0.2355  0.1403 -0.3430
18929PP      PP29033   7.163  13.843  10.515 -0.3076  0.2007 -0.0187
18930PP      PP29034  10.881   8.200   4.705 -0.0096 -0.0831 -0.1873
18931PP      PP29035   6.584  11.747   2.684 -0.0542 -0.0422 -0.3310
18932PP      PP29036  10.599  15.584   9.417 -0.0392  0.0183 -0.0345
18933PP      PP29037   2.250  12.467   9.372  0.0437 -0.2571  0.2042
18934PP      PP29038  14.173   1.477   2.889  0.1418 -0.0097 -0.1202
18935PP      PP29039   0.809   8.648   9.832  0.0827 -0.1384  0.2200
18936PP      PP29040   9.904   4.879   3.338  0.0751 -0.1508 -0.0510
18937PP      PP29041   0.494   2.455   8.889  0.1933 -0.0182  0.1285
18938PP      PP29042  15.279   4.546  10.637  0.0912  0.0100  0.1904
18939PP      PP29043  11.021  15.838   9.676 -0.0545 -0.0395 -0.3381
18940PP      PP29044   6.295  11.102   3.306  0.1045 -0.0790 -0.0307
18941PP      PP29045  13.916  13.344  11.362  0.0881  0.1432  0.0966
18942PP      PP29046   5.838   1.480  13.084 -0.0245  0.1832 -0.1501
18943PP      PP29047  14.132   9.997  12.723 -0.0973 -0.0238  0.3334
18944PP      PP29048   7.044   3.716   3.406 -0.1630 -0.0352 -0.2195
18945PP      PP29049  13.355  12.014  12.277  0.2904  0.1722  0.2639
18946PP      PP29050   2.497   2.003   9.311  0.2408  0.0303 -0.2160
18947PP      PP29051   5.486  15.091  11.103 -0.3394  0.0322 -0.2636
18948PP      PP29052  10.916   1.878   8.626 -0.2530  0.0473 -0.0095
18949PP      PP29053  10.805   4.735   1.460  0.3206 -0.0326 -0.2328
18950PP      PP29054   7.371   5.936   3.014 -0.0400 -0.0315  0.1502
18951PP      PP29055   3.990   8.116   0.954  0.4663  0.0308 -0.0423
18952PP      PP29056   6.725  12.759  11.325  0.0405 -0.1318  0.0928
18953PP      PP29057   5.953   9.993   2.285 -0.1304  0.1532 -0.5605
18954PP      PP29058   7.444   1.351  12.523  0.0991  0.3008 -0.0741
18955PP      PP29059   4.625   4.744   0.554  0.2952  0.0619 -0.1527
18956PP      PP29060   0.248   6.485   4.354  0.2352 -0.2251  0.0640
18957PP      PP29061   9.503   2.144  12.506 -0.1126 -0.1340  0.0581
18958PP      PP29062  10.829   5.400  12.628  0.0297 -0.1692 -0.3607
18959PP      PP29063   6.218  14.201  12.033  0.0259 -0.1095  0.0029
18960PP      PP29064   8.242   9.527   4.739  0.2243 -0.1057 -0.1197
18961PP      PP29065  12.351   4.749   9.663  0.0044  0.2080 -0.1531
18962PP      PP29066   0.633   3.661  12.663  0.0817 -0.2051 -0.1333
18963PP      PP29067  14.540   2.025   9.002 -0.0294  0.1177 -0.1104
18964PP      PP29068   0.010   3.201   3.298  0.0988 -0.1112  0.1128
18965PP      PP29069   7.443   8.122   4.437  0.0746 -0.0129 -0.1844
18966PP      PP29070   2.828   2.970  10.135 -0.2124  0.2092 -0.3436
18967PP      PP29071  11.211  13.917   0.735  0.4933  0.3241  0.0522
18968PP      PP29072  10.189   6.053   2.875  0.3320  0.2309 -0.2714
18969PP      PP29073  12.306  15.130   0.614  0.3245 -0.0451 -0.0543
18970PP      PP29074   4.061   0.939   1.499 -0.1605 -0.4361  0.4659
18971PP      PP29075  13.692   1.148   8.620 -0.2977 -0.0493  0.2205
18972PP      PP29076  14.858   9.758   2.462 -0.0855  0.1303 -0.2323
18973PP      PP29077  11.397   1.536  10.427 -0.1196  0.1526  0.4429
18974PP      PP29078   9.385  14.029  10.950 -0.0183 -0.0655 -0.0221
18975PP      PP29079   2.955  12.156   9.487 -0.0600  0.2473  0.2617
18976PP      PP29080   4.202  10.593   3.599 -0.5245  0.1287  0.2947
18977PP      PP29081   0.708   7.588   3.616  0.1662  0.2887  0.0383
18978PP      PP29082  11.874  15.441   2.438  0.0236  0.0420  0.2853
18979PP      PP29083   6.895  10.833   0.303  0.0107  0.0974  0.0449
18980PP      PP29084   4.501   8.994  10.478  0.0380  0.0301  0.0822
18981PP      PP29085  14.918   0.789   2.346 -0.0396 -0.4788  0.1050
18982PP      PP29086  11.197   4.120   3.574 -0.1097 -0.2896 -0.1910
18983PP      PP29087   0.802  13.692  12.183  0.3372  0.0422 -0.0709
18984PP      PP29088   4.738  14.673  13.279 -0.1423 -0.0392 -0.0445
18985PP      PP29089   0.531   8.484  11.125  0.1615  0.2161 -0.1050
18986PP      PP29090   3.914  14.010  11.754 -0.0757  0.2192  0.2042
18987PP      PP29091  10.455  14.455   0.013  0.0693 -0.3257  0.2296
18988PP      PP29092   7.407   5.999   3.701 -0.0964 -0.1135 -0.1369
18989PP      PP29093   3.682   3.817   1.008 -0.0571 -0.2501  0.2029
18990PP      PP29094   5.954   1.412   1.365  0.1315  0.1327 -0.0976
18991PP      PP29095   8.485   3.246   2.717  0.1064 -0.1161 -0.0750
18992PP      PP29096   7.916   0.405   0.638 -0.0294  0.0778 -0.2617
18993PP      PP29097  14.740  12.605   3.059 -0.2043  0.3284 -0.0639
18994PP      PP29098  10.088   0.679   0.166  0.1220  0.1346 -0.1491
18995PP      PP29099   3.482  14.317   9.508  0.4477 -0.2319 -0.1348
18996PP      PP29100   0.756   7.642   0.096 -0.0500 -0.4706 -0.1749
18997PP      PP29101   2.719   9.405   0.707  0.1423  0.0051 -0.1837
18998PP      PP29102  11.880   6.174   9.253  0.1591 -0.2178  0.2343
18999PP      PP29103  11.284  11.205   9.373 -0.0351  0.2379 -0.1380
19000PP      PP29104  11.696  13.292  11.256 -0.0073  0.2038  0.0970
19001PP      PP29105   0.737  15.470   1.079  0.0843  0.1466  0.2247
19002PP      PP29106   4.519   2.271   9.100  0.1573  0.0197 -0.0499
19003PP      PP29107  15.716   5.336  11.476  0.4433  0.2474  0.1822
19004PP      PP29108   6.416   4.255   0.177  0.0164  0.4613  0.4798
19005PP      PP29109   9.038  14.264   0.625 -0.1443  0.0708 -0.1256
19006PP      PP29110   1.822   5.011   1.678 -0.0700  0.1267  0.1100
19007PP      PP29111   2.365  11.603  11.175 -0.1348 -0.1895  0.3103
19008PP      PP29112   5.799  12.170   1.291 -0.0909  0.5138  0.1534
19009PP      PP29113  11.838   9.566   9.463 -0.0128  0.0377 -0.1995
19010PP      PP29114   2.374  10.913   4.520 -0.1773 -0.0417 -0.0380
19011PP      PP29115  15.743   2.018   0.307  0.3382 -0.0679  0.0799
19012PP      PP29116  12.282  14.275   2.133 -0.1453 -0.2457 -0.3710
19013PP      PP29117   6.123  14.079   4.269 -0.0244  0.0160  0.2660
19014PP      PP29118  10.781  14.741  10.723 -0.1469  0.1812  0.1427
19015PP      PP29119  12.689   9.831  10.493  0.2363 -0.2512 -0.3110
19016PP      PP29120   1.927  15.739   2.942 -0.0862 -0.2002 -0.0763
19017PP      PP29121  13.410   0.564  10.733 -0.3910 -0.0374  0.0707
19018PP      PP29122   8.648   5.903  12.951  0.0441  0.0489 -0.0678
19019PP      PP29123   8.085   4.268   9.028 -0.2987  0.2003  0.2198
19020PP      PP29124   5.911   1.252   8.488 -0.4332  0.0099 -0.2236
19021PP      PP29125   2.626  10.350   1.999 -0.1049 -0.1172 -0.2119
19022PP      PP29126   3.537   4.004   2.837 -0.2889 -0.3278  0.2085
19023PP      PP29127   7.713  11.319   3.622  0.1191 -0.1887 -0.2808
19024PP      PP29128   4.698   0.382  12.033  0.1289  0.2799  0.4834
19025PP      PP29129   9.974   8.460   0.125  0.2259  0.0262  0.0056
19026PP      PP29130   1.233   9.683  11.198 -0.0237 -0.0215  0.0384
19027PP      PP29131   3.806   9.183  12.680 -0.0867  0.4233 -0.1158
19028PP      PP29132  15.381   2.849  11.709 -0.1944 -0.3559 -0.3224
19029PP      PP29133   8.827  10.884   2.658  0.1763 -0.1802  0.2278
19030PP      PP29134   9.979   9.653   1.678 -0.1283  0.1058  0.0840
19031PP      PP29135  12.706   1.980   0.019  0.0189  0.2861 -0.1145
19032PP      PP29136  11.265  15.661   1.127  0.0754 -0.0246 -0.1488
19033PP      PP29137   9.955   2.316   1.351 -0.1534 -0.1699  0.2693
19034PP      PP29138   6.085  11.463   0.443 -0.3715 -0.1236  0.1857
19035PP      PP29139   0.894   8.453   3.250 -0.0015  0.0688  0.0507
19036PP      PP29140   3.995   0.450  13.147 -0.1752 -0.1013 -0.1418
19037PP      PP29141  11.425   0.694   0.783  0.0316  0.3609  0.0019
19038PP      PP29142   7.394  15.117  11.593  0.4968  0.0392 -0.2083
19039PP      PP29143  11.026  12.059   3.203  0.1540 -0.2698 -0.1378
19040PP      PP29144   6.456  11.058   0.341 -0.1576  0.1762  0.1826
19041PP      PP29145  12.267   2.991   1.860 -0.1362  0.2418  0.2687
19042PP      PP29146  13.107  15.010  10.916  0.1754  0.3578  0.0223
19043PP      PP29147  12.846  14.849   1.730  0.0739 -0.2454 -0.2535
19044PP      PP29148  14.336   9.825   0.882 -0.2132  0.1803 -0.0737
19045PP      PP29149  10.701  14.108   2.952  0.2344 -0.0564  0.1451
19046PP      PP29150   7.019   4.931  12.667  0.3100  0.0149  0.1067
19047PP      PP29151   8.166  10.290  11.332  0.0187  0.0312 -0.0076
19048PP      PP29152  14.144   8.645   0.196  0.3003  0.1694 -0.1346
19049PP      PP29153   5.272   5.418  11.428  0.3055  0.0409 -0.0770
19050PP      PP29154   1.397  12.139   9.603  0.2148  0.0901 -0.2167
19051PP      PP29155   6.847   7.979  11.711 -0.1027 -0.0837  0.1035
19052PP      PP29156  13.924   4.546   0.211  0.1278  0.0037 -0.0579
19053PP      PP29157   5.730   7.004  13.169 -0.2779  0.3598  0.2272
19054PP      PP29158  10.683   5.422   4.159 -0.1221  0.3311  0.1758
19055PP      PP29159   5.902   2.129  11.901 -0.1898  0.1329 -0.3036
19056PP      PP29160  10.142   7.136  12.022 -0.0157  0.4848  0.0111
19057PP      PP29161   9.082   7.922   4.365 -0.4364 -0.1367 -0.0330
19058PP      PP29162   1.628  11.292   0.714 -0.2749  0.0405 -0.1641
19059PP      PP29163   7.807  10.041   2.048  0.3893 -0.0471  0.2502
19060PP      PP29164  10.978  13.514  11.148  0.1234  0.1187 -0.1445
19061PP      PP29165   3.674   6.835  12.285  0.1017 -0.0627 -0.1309
19062PP      PP29166  15.685  11.057   1.002 -0.2770  0.1169  0.0271
19063PP      PP29167  13.022   9.854   4.348  0.1024  0.0451  0.1036
19064PP      PP29168   9.210  14.942   0.017 -0.0248 -0.1470 -0.0145
19065PP      PP29169   7.517   2.968   9.406  0.0511 -0.1621  0.1313
19066PP      PP29170  14.577  10.305   1.080 -0.0288  0.2593 -0.0901
19067PP      PP29171   3.796   1.820  12.996  0.1270  0.0704  0.1781
19068PP      PP29172   6.522   0.090  10.970  0.0562 -0.3568  0.2498
19069PP      PP29173   1.414   8.302   0.573  0.1673  0.1974  0.1192
19070PP      PP29174  11.202  10.952   0.272  0.0176 -0.0065 -0.3062
19071PP      PP29175   3.453   3.770   0.513  0.0387 -0.1569 -0.0512
19072PP      PP29176   2.091  15.711  10.433  0.0370  0.1680  0.2606
19073PP      PP29177  14.101  15.885   3.612 -0.2393 -0.0457 -0.3720
19074PP      PP29178   2.238   9.696  10.645  0.1490  0.0057 -0.2925
19075PP      PP29179   2.543   0.723  10.534  0.3331  0.0282  0.1122
19076PP      PP29180   6.248   3.956   2.690 -0.0516  0.2161  0.1614
19077PP      PP29181   3.955   6.815   2.312 -0.1564 -0.1215  0.1311
19078PP      PP29182   7.896  11.722   2.258  0.0597 -0.2142  0.4719
19079PP      PP29183   0.402   0.985  12.097 -0.4158 -0.0051 -0.2463
19080PP      PP29184  12.723   2.152   1.959 -0.2863 -0.5576 -0.1573
19081PP      PP29185   0.284  12.321  10.663  0.1391 -0.2812  0.2267
19082PP      PP29186   1.310  10.604  12.955  0.0898  0.0248  0.0578
19083PP      PP29187   2.112   2.889  13.027 -0.2354 -0.3027 -0.3534
19084PP      PP29188   2.129  12.883  10.348 -0.0965  0.1743  0.0963
19085PP      PP29189   5.598   1.509   9.276 -0.2117 -0.1251  0.1597
19086PP      PP29190   3.566   1.902  11.844  0.2002  0.0271 -0.0734
19087PP      PP29191   5.227   5.828   3.618  0.0821 -0.0383  0.1597
19088PP      PP29192   9.509  14.275   0.484 -0.0593  0.4697 -0.0590
19089PP      PP29193   1.813   5.716   0.437 -0.1079 -0.0664 -0.0312
19090PP      PP29194   3.170   1.230   1.627  0.0980 -0.1295  0.0948
19091PP      PP29195   7.645  13.972   9.565 -0.1400  0.0367 -0.1278
19092PP      PP29196   1.872  15.125   3.737  0.1169 -0.2977 -0.0795
19093PP      PP29197   1.733  10.440   3.231  0.0109 -0.0028 -0.0635
19094PP      PP29198  13.558   2.035  12.179 -0.0222  0.1874 -0.1842
19095PP      PP29199  12.579   6.945  10.174 -0.0585  0.2774 -0.0356
19096PP      PP29200   3.812   8.322   9.968 -0.0786  0.1018 -0.0759
19097PP      PP29201  14.491  10.672  12.637  0.0823 -0.1710  0.0163
19098PP      PP29202   3.034  15.008  10.662 -0.1503  0.1382  0.1451
19099PP      PP29203  13.088  11.332   2.001 -0.1460  0.3053  0.1044
19100PP      PP29204  10.335  14.211   0.615  0.0142 -0.0123  0.1301
19101PP      PP29205   7.893  12.106  11.631 -0.1804  0.0952 -0.1306
19102PP      PP29206   0.136  10.823   9.011  0.1481  0.0894  0.1106
19103PP      PP29207  14.438   3.374   0.708  0.0165 -0.1392 -0.0366
19104PP      PP29208  12.690  12.597  13.446  0.0086  0.1557  0.0712
19105PP      PP29209   5.131   6.559   0.791 -0.1446  0.1730  0.1342
19106PP      PP29210  15.598   5.642   1.700  0.0792  0.2387  0.0025
19107PP      PP29211   4.360   9.534   0.942  0.0067 -0.1583  0.2290
19108PP      PP29212   6.378  13.758   1.227 -0.1893 -0.0375  0.1994
19109PP      PP29213  14.738   5.185  12.751  0.1503 -0.1633  0.2923
19110PP      PP29214   4.983  12.067  10.677 -0.2327 -0.4760  0.1200
19111PP      PP29215   0.431   9.270   1.915 -0.0447  0.0427 -0.1176
19112PP      PP29216  12.370  11.628   0.843  0.3455  0.2742  0.2176
19113PP      PP29217  15.186  11.058   8.966 -0.0376 -0.0535 -0.3954
19114PP      PP29218   6.170   0.080  12.699 -0.2159  0.0465 -0.1198
19115PP      PP29219  11.185  12.335   0.383  0.0649  0.0656 -0.0623
19116PP      PP29220  15.403  14.719   9.904 -0.0352 -0.1986 -0.4370
19117PP      PP29221  12.384   8.371   2.957  0.0288  0.1027  0.0214
19118PP      PP29222  15.886   0.389   2.019 -0.1486 -0.2129 -0.1032
19119PP      PP29223   7.862  14.074   3.436 -0.0997 -0.1927 -0.0143
19120PP      PP29224   1.529   3.035   9.852 -0.4851 -0.1142  0.1579
19121PP      PP29225   2.178   3.189  12.655  0.0836  0.2084  0.1465
19122PP      PP29226  10.391   1.347  12.277 -0.2864 -0.0886  0.0244
19123PP      PP29227   7.601   1.802   1.680  0.0073  0.1498 -0.2596
19124PP      PP29228  13.202   8.414   2.870  0.1901 -0.1147 -0.0704
19125PP      PP29229  10.453  14.508  10.345 -0.1122  0.2598 -0.1606
19126PP      PP29230   8.358  13.639  11.301  0.2013 -0.0840 -0.0175
19127PP      PP29231  13.854   9.800   1.197  0.0804  0.3641 -0.1644
19128PP      PP29232   2.541   3.424   1.903 -0.0105 -0.0602 -0.1387
19129PP      PP29233   9.816  13.185   3.641 -0.0027 -0.0388 -0.0691
19130PP      PP29234   8.483   4.119   1.162  0.1715 -0.1263 -0.1353
19131PP      PP29235  15.246  14.399   1.121 -0.0581 -0.0665 -0.2841
19132PP      PP29236   6.483   8.329   0.032 -0.6140  0.4266  0.0107
19133PP      PP29237  15.576   8.165  11.783  0.0258  0.0492  0.0277
19134PP      PP29238   2.303   6.606  11.433 -0.0523  0.0134  0.2672
19135PP      PP29239   8.395   2.266   4.527  0.1585 -0.3040  0.2271
19136PP      PP29240  10.194   4.118   1.654 -0.0597  0.2869 -0.0664
19137PP      PP29241   0.601   3.735   0.130  0.2681 -0.2511  0.2366
19138PP      PP29242  12.649   6.123  11.697 -0.0773 -0.1235 -0.2491
19139PP      PP29243   9.000   0.011   8.645 -0.1651 -0.4106 -0.2934
19140PP      PP29244   9.148  14.805   9.302  0.2153  0.0915  0.0975
19141PP      PP29245  11.340   4.223  13.121 -0.0576  0.1559  0.2427
19142PP      PP29246   3.098   1.974  11.477  0.0282 -0.0396  0.4250
19143PP      PP29247   1.189   5.915   3.784  0.0900  0.4626 -0.0995
19144PP      PP29248   2.925  10.622   0.196  0.1435 -0.5120  0.3474
19145PP      PP29249   3.752   6.172  13.478 -0.1695 -0.0190 -0.1294
19146PP      PP29250   3.866   1.505   7.986  0.0961 -0.3524  0.2641
19147PP      PP29251  15.713   2.713   3.416  0.2138 -0.0023  0.0783
19148PP      PP29252  11.581   3.375  13.204  0.0686  0.1902  0.0346
19149PP      PP29253   3.077   7.701  11.252  0.2426 -0.4717  0.0034
19150PP      PP29254  14.687   2.853   3.454 -0.2420 -0.2815 -0.0228
19151PP      PP29255  12.230   7.664  12.765 -0.1537 -0.0024 -0.0421
19152PP      PP29256   4.791  13.948  10.090 -0.2947  0.0633 -0.2416
19153PP      PP29257   8.992  12.966   4.184  0.1401 -0.3021  0.1417
19154PP      PP29258   5.524  11.724  10.516  0.1021 -0.1804  0.1051
19155PP      PP29259  10.348  14.497  13.003  0.1953 -0.0131 -0.1355
19156PP      PP29260   2.996   2.071   2.389 -0.0869  0.2473 -0.1568
19157PP      PP29261  10.097  12.260  11.414  0.0110 -0.0719 -0.1620
19158PP      PP29262  15.768  11.072   8.533 -0.0099 -0.1987 -0.1431
19159PP      PP29263  11.863  11.618  13.277 -0.1591 -0.1474  0.1091
19160PP      PP29264   0.981   7.130   2.487 -0.3372 -0.0705  0.4896
19161PP      PP29265   6.848   2.950   2.543 -0.0667 -0.1197 -0.0002
19162PP      PP29266  11.240   9.527  10.201 -0.0131 -0.3083  0.1874
19163PP      PP29267   6.925  14.194   3.412  0.2505  0.4414 -0.1632
19164PP      PP29268  10.615   0.924   0.682  0.1707 -0.1405  0.1882
19165PP      PP29269   4.099  13.730   0.523  0.4075 -0.1296  0.1085
19166PP      PP29270   0.464   4.685   3.839  0.0370  0.0507  0.0581
19167PP      PP29271   8.225   6.028   4.813 -0.0144 -0.2201  0.2030
19168PP      PP29272   4.005  13.468   4.104 -0.0214 -0.1777  0.0286
19169PP      PP29273   1.796  11.548  13.400 -0.0402 -0.2069 -0.3921
19170PP      PP29274   3.018   8.273   4.667 -0.1455 -0.0117  0.2039
19171PP      PP29275   8.322   7.286  11.491  0.0570 -0.0553 -0.0755
19172PP      PP29276   9.046   3.726   0.313 -0.2186  0.2318  0.1146
19173PP      PP29277  15.298   9.035   0.582 -0.3505 -0.0599 -0.1814
19174PP      PP29278   9.524   0.453   9.672  0.0633 -0.0385 -0.2697
19175PP      PP29279  15.338  10.408  11.613 -0.3892 -0.3339  0.3400
19176PP      PP29280   5.868   1.258  10.991 -0.1627  0.1320  0.1886
19177PP      PP29281  15.790   6.148   1.664  0.0374  0.2533  0.1054
19178PP      PP29282  15.394  14.482  12.721 -0.1389  0.1126  0.2092
19179PP      PP29283  10.650  14.674   8.674  0.0322  0.0205 -0.0696
19180PP      PP29284   2.761  11.283  10.422  0.0375  0.2893 -0.0082
19181PP      PP29285  11.903   1.588   3.993 -0.3262 -0.0532 -0.0014
19182PP      PP29286   5.371   6.530   9.765 -0.1164 -0.1047 -0.0989
19183PP      PP29287  12.581   8.844   3.355  0.1028  0.0566 -0.1688
19184PP      PP29288  15.573   8.240   1.290 -0.1052  0.3336 -0.2466
19185PP      PP29289  13.840  10.048   0.242  0.2094 -0.0878  0.0205
19186PP      PP29290  10.341  10.294  10.351 -0.0160  0.1013  0.2121
19187PP      PP29291  10.524  13.109  11.922 -0.0656 -0.0912  0.1564
19188PP      PP29292   1.444   2.609   9.225 -0.0237  0.0301  0.1237
19189PP      PP29293   1.639  14.895   4.057  0.1525 -0.2914 -0.0267
19190PP      PP29294   2.091   1.518   1.342  0.1670 -0.3473  0.0038
19191PP      PP29295   2.316   2.191  11.989  0.0416 -0.0163  0.3212
19192PP      PP29296  11.249   7.304  10.378  0.1198  0.1158 -0.0625
19193PP      PP29297  11.936   7.826  11.574  0.0588 -0.1814 -0.0835
19194PP      PP29298   0.465  15.156   3.421  0.0101  0.1944  0.1324
19195PP      PP29299  11.032   5.780   0.845  0.2698 -0.1214  0.0236
19196PP      PP29300  10.845  13.281   1.849  0.3204 -0.0248 -0.0467
19197PP      PP29301  15.549   9.976   3.009 -0.1721  0.0896  0.1059
19198PP      PP29302   2.023   2.434   8.451 -0.0452  0.4616 -0.2036
19199PP      PP29303   3.198   2.639   2.416  0.0265 -0.0206 -0.0454
19200PP      PP29304   9.526  14.484   3.269  0.1948 -0.3599 -0.0734
19201PP      PP29305   5.673  10.347  13.267 -0.2071  0.1035 -0.0741
19202PP      PP29306   6.039   1.393   8.949 -0.3960  0.2419  0.0386
19203PP      PP29307  15.322   9.806   9.727 -0.0607  0.1518 -0.0120
19204PP      PP29308  10.462  15.513   2.811 -0.1562  0.1452 -0.1194
19205PP      PP29309  10.244   0.373   1.464 -0.2565  0.2464  0.0783
19206PP      PP29310  12.360   6.655  11.899  0.0510 -0.0731 -0.0820
19207PP      PP29311   7.777   6.138  10.527 -0.0499  0.0425 -0.0947
19208PP      PP29312   4.600   2.462   0.146  0.1280  0.1260  0.3757
19209PP      PP29313  10.033   5.483   1.555  0.1934 -0.0113  0.1227
19210PP      PP29314  12.976  14.668   0.109  0.1066 -0.2170 -0.1379
19211PP      PP29315  15.182   8.326   4.698 -0.0947 -0.0671 -0.0876
19212PP      PP29316   3.473  12.524  12.575 -0.1213 -0.0660 -0.0224
19213PP      PP29317   8.174   4.081  10.208  0.2028  0.2334 -0.2384
19214PP      PP29318  15.141   8.596   0.541 -0.2956  0.0417  0.1921
19215PP      PP29319   7.450   9.626   2.187  0.0006  0.3700  0.0334
19216PP      PP29320   6.683  10.845  11.004  0.2491 -0.1148 -0.1739
19217PP      PP29321   7.837   1.898  11.813  0.2922  0.0637 -0.1435
19218PP      PP29322  15.299  13.921   9.838 -0.1656 -0.0372 -0.0577
19219PP      PP29323   9.076   1.871  12.929  0.2289 -0.3471  0.2089
19220PP      PP29324   8.655  10.326   2.901  0.1846  0.1055 -0.1851
19221PP      PP29325   8.192   3.640  10.413 -0.1472  0.0537 -0.5544
19222PP      PP29326   1.104   5.831  11.383 -0.1134  0.0572  0.1676
19223PP      PP29327   4.221  11.701   0.023  0.3450 -0.1062 -0.2017
19224PP      PP29328   1.727   9.901  13.274  0.1435 -0.0490  0.1615
19225PP      PP29329  14.573  14.448  10.196  0.2926  0.4719  0.0598
19226PP      PP29330   7.240  13.291   4.093 -0.0981 -0.1349  0.0849
19227PP      PP29331   1.146  13.499   9.222 -0.0902 -0.1686  0.1016
19228PP      PP29332  13.692   2.075   1.661  0.3196 -0.0433  0.1779
19229PP      PP29333   4.368  13.612   0.126  0.0326 -0.1135 -0.2601
19230PP      PP29334  10.215   2.631  12.728  0.0639 -0.0036  0.0277
19231PP      PP29335   4.207   2.762   2.170 -0.2044  0.1104  0.3908
19232PP      PP29336   4.302   1.193   3.112  0.4606 -0.2333 -0.0871
19233PP      PP29337   0.379   8.443   0.821  0.1166  0.2784  0.1283
19234PP      PP29338  15.562   9.676   9.063 -0.1446 -0.1311  0.1879
19235PP      PP29339   9.100   9.133   9.463  0.0581 -0.0526 -0.1063
19236PP      PP29340   7.719   9.761  12.070 -0.2493 -0.5264 -0.1326
19237PP      PP29341  15.189   0.248   8.602  0.1887 -0.0307  0.0684
19238PP      PP29342   3.055   9.440   2.842  0.0917 -0.0037  0.1952
19239PP      PP29343  13.491   6.341   2.968 -0.0017  0.3787 -0.0044
19240PP      PP29344   6.040  15.672  11.183 -0.0075 -0.0353 -0.0229
19241PP      PP29345   9.458  11.239   3.771  0.2415 -0.0010 -0.2266
19242PP      PP29346  12.955   8.741   0.109 -0.1551 -0.1231  0.1141
19243PP      PP29347  12.320   8.759  11.991 -0.1807  0.2682 -0.0993
19244PP      PP29348  12.174  11.022   3.666  0.1538  0.1611 -0.0585
19245PP      PP29349   5.381  11.811  11.484  0.2234 -0.0947  0.0087
19246PP      PP29350   4.634  13.987   3.232  0.0786  0.1673 -0.1707
19247PP      PP29351   8.284   6.013   4.173 -0.3910 -0.2841  0.1256
19248PP      PP29352   9.631   4.749   3.817 -0.0825  0.0953  0.1167
19249PP      PP29353  10.116  12.891  12.096 -0.1258  0.2802  0.2650
19250PP      PP29354   1.911   9.621   9.533 -0.0212 -0.1588 -0.1524
19251PP      PP29355  10.460   5.227  11.440 -0.3857 -0.1104 -0.0595
19252PP      PP29356   5.206   4.397  12.198  0.0292 -0.1004  0.2205
19253PP      PP29357   1.428  10.870   4.616 -0.0239 -0.1506 -0.0370
19254PP      PP29358  10.208   9.069  11.159  0.0368  0.0786 -0.0415
19255PP      PP29359   5.371  13.136  12.079  0.1360  0.2693 -0.1120
19256PP      PP29360   2.882   4.924  12.349  0.1658  0.2655 -0.1862
19257PP      PP29361  12.328  14.292   3.094 -0.0869 -0.1356  0.4937
19258PP      PP29362  13.948   0.342  11.206 -0.3467 -0.1127 -0.2758
19259PP      PP29363   1.857   9.033   2.102  0.0162  0.0694  0.0348
19260PP      PP29364   0.809  14.848  11.552 -0.1840 -0.2257 -0.1230
19261PP      PP29365  15.439   6.233  12.004 -0.1753 -0.0316  0.0964
19262PP      PP29366   7.910   4.633   3.097 -0.4415 -0.0475 -0.1569
19263PP      PP29367   7.466   7.345   8.898  0.6185  0.1114 -0.2175
19264PP      PP29368  11.661   8.225  10.041 -0.0832  0.3107  0.2105
19265PP      PP29369  12.650   5.381  12.921  0.0524 -0.0818 -0.1226
19266PP      PP29370   6.911  10.524   1.446 -0.2702 -0.4650  0.2577
19267PP      PP29371  12.946  13.224   8.643 -0.1480 -0.0484  0.3023
19268PP      PP29372  13.453   4.614   2.792  0.3737 -0.0351 -0.0111
19269PP      PP29373   8.904   8.621   2.226  0.0435  0.3743  0.1283
19270PP      PP29374   6.556  11.416   1.377  0.0063  0.1630  0.0064
19271PP      PP29375   1.304   6.731  11.918  0.1372  0.1272 -0.0444
19272PP      PP29376   9.503   4.397   0.409 -0.1585 -0.1169  0.2408
19273PP      PP29377   3.785   0.677   9.056  0.1427 -0.3574  0.0443
19274PP      PP29378   6.776   8.677   3.978 -0.0562  0.1572  0.0763
19275PP      PP29379  12.468   1.865  10.833  0.0388 -0.0648 -0.0855
19276PP      PP29380   6.349  12.356  10.672 -0.0342  0.1040 -0.2152
19277PP      PP29381   1.428  12.004   4.717  0.1076  0.1806  0.2069
19278PP      PP29382   1.777   8.690   9.981  0.1492  0.1758 -0.0745
19279PP      PP29383   0.065   4.893   1.763  0.0786  0.0050  0.0593
19280PP      PP29384   2.889   0.004   0.808 -0.2033  0.0974  0.3240
19281PP      PP29385  11.875   6.464   8.408 -0.0265  0.1517 -0.1286
19282PP      PP29386   9.379   7.505  12.714  0.4518  0.1959  0.0920
19283PP      PP29387   1.075   0.949  12.967  0.0347  0.0461  0.2561
19284PP      PP29388  12.134   0.456  11.646  0.1857  0.0257 -0.1187
19285PP      PP29389  14.768   1.808  12.428  0.0958  0.1379  0.0520
19286PP      PP29390  14.961   7.555   3.902  0.0032 -0.3504 -0.1514
19287PP      PP29391   5.006   1.556   9.592  0.0433  0.2554  0.1333
19288PP      PP29392   4.896   0.030   2.360 -0.0332  0.2741  0.0736
19289PP      PP29393  11.084   5.085   3.953  0.0755  0.4208 -0.2350
19290PP      PP29394   8.025  10.914  12.820 -0.0140  0.0944 -0.0783
19291PP      PP29395  10.002   1.354  12.943 -0.0192  0.3301 -0.1980
19292PP      PP29396   5.947   2.536   3.884 -0.2141  0.0749 -0.3244
19293PP      PP29397   7.660   2.772   4.497 -0.1073  0.1682  0.1012
19294PP      PP29398   8.165  10.487   5.291 -0.2795 -0.2653  0.0305
19295PP      PP29399   9.239   2.059   9.174  0.1963  0.1584  0.1557
19296PP      PP29400  14.377  15.018   8.907  0.0082  0.3850  0.1178
19297PP      PP29401   8.447  14.183  12.029 -0.0452 -0.0872 -0.1348
19298PP      PP29402  15.740   7.971  11.328  0.3267  0.1732 -0.0436
19299PP      PP29403   6.753  15.900  13.340 -0.2371 -0.0417  0.0101
19300PP      PP29404   8.060  14.008   9.970  0.1259  0.3302  0.3255
19301PP      PP29405   9.041   9.361   9.891  0.1569 -0.4490 -0.0208
19302PP      PP29406   9.142   5.597   0.253  0.0326 -0.0563 -0.0601
19303PP      PP29407  15.653   2.817   1.629  0.0490 -0.1231  0.1832
19304PP      PP29408   4.557   5.320   2.147 -0.0630  0.0590  0.1677
19305PP      PP29409   1.830   3.468   1.392 -0.0895 -0.1114  0.1217
19306PP      PP29410   5.456   0.147   8.970 -0.2647 -0.1519  0.2766
19307PP      PP29411   5.069   9.894  11.993 -0.1353  0.1171 -0.4617
19308PP      PP29412   5.670   7.977  12.719  0.4045 -0.1768  0.2852
19309PP      PP29413   9.933   4.198   2.189  0.2460  0.0307 -0.0205
19310PP      PP29414   4.411  15.229   3.325  0.1123  0.1434  0.1967
19311PP      PP29415   6.390   0.494  11.819  0.1163 -0.0209 -0.3449
19312PP      PP29416   2.347  14.469   1.755  0.0506  0.3180  0.0312
19313PP      PP29417   4.105  10.003  10.329 -0.0920 -0.1717 -0.0127
19314PP      PP29418   5.894   0.444   3.167 -0.0202  0.0579  0.1283
19315PP      PP29419   9.348  10.391   4.330  0.1088  0.2285 -0.4337
19316PP      PP29420  13.905   5.842  11.935  0.4186 -0.0673  0.3477
19317PP      PP29421   0.204   1.668   9.071 -0.1288  0.0467 -0.0696
19318PP      PP29422  11.870   7.307   8.843  0.0744  0.2970  0.0740
19319PP      PP29423  14.350  13.286  10.730 -0.1256  0.0808  0.4507
19320PP      PP29424  13.758   1.120   0.871 -0.2156 -0.1206  0.1726
19321PP      PP29425  13.175  10.900   1.740  0.1602 -0.1390 -0.1985
19322PP      PP29426   6.497   2.275  10.753  0.0753  0.0365  0.3419
19323PP      PP29427  10.015   1.284   3.884 -0.0616 -0.1778  0.1205
19324PP      PP29428  12.069  13.397   1.080  0.2962 -0.0914 -0.0554
19325PP      PP29429   1.107   2.773   1.190  0.1181 -0.0811 -0.2491
19326PP      PP29430   5.793   0.218   1.976  0.0145  0.0186 -0.0570
19327PP      PP29431   3.439  13.567  10.934 -0.1035  0.3715  0.0594
19328PP      PP29432   3.774  13.220   2.791 -0.2259 -0.0356  0.2164
19329PP      PP29433   1.031   9.158   3.772 -0.3229  0.1430  0.3266
19330PP      PP29434   9.001  12.249   3.094  0.2850 -0.0098 -0.0711
19331PP      PP29435   7.204  12.148   5.002 -0.1243  0.0450  0.4260
19332PP      PP29436   2.648  11.633   3.994 -0.0306 -0.1464 -0.3676
19333PP      PP29437   6.079   3.330   0.678 -0.2687 -0.0349  0.0474
19334PP      PP29438   4.451   9.239  10.882 -0.0121  0.1007  0.2122
19335PP      PP29439  13.739   8.063  12.787 -0.2253 -0.0504 -0.2622
19336PP      PP29440   7.711  15.186   9.571 -0.1096  0.0002  0.2176
19337PP      PP29441   9.599  10.898  10.628 -0.0442 -0.2440  0.0922
19338PP      PP29442   7.537   9.223   4.184  0.0753 -0.0797  0.2397
19339PP      PP29443  15.141   5.455   1.522 -0.3095  0.1136  0.0036
19340PP      PP29444  13.364  12.834  11.789  0.3852  0.0061  0.1898
19341PP      PP29445   5.330   7.530  12.071 -0.1266 -0.4122 -0.0022
19342PP      PP29446   0.980   4.306   3.855 -0.0679 -0.1311 -0.1229
19343PP      PP29447  10.026   8.547   9.532 -0.0293 -0.0176 -0.1316
19344PP      PP29448   8.211   2.325  11.660  0.1488  0.1479 -0.2645
19345PP      PP29449   2.237  14.971  12.491 -0.4909 -0.0292 -0.0949
19346PP      PP29450   9.678   1.084   8.822  0.2177 -0.0979 -0.1055
19347PP      PP29451   6.256   2.307   0.539  0.0268 -0.2798  0.0409
19348PP      PP29452   1.323   0.343   1.186 -0.1343  0.1582 -0.1333
19349PP      PP29453   8.226  12.766  13.344  0.2836 -0.1397 -0.2112
19350PP      PP29454   2.940   4.940  11.755  0.6190 -0.0409  0.2155
19351PP      PP29455  15.056   8.414   4.130  0.1063 -0.1289  0.0246
19352PP      PP29456  10.263   7.728  12.907  0.1263  0.2311  0.1627
19353PP      PP29457   3.999   1.788  12.529  0.1874 -0.2459  0.3097
19354PP      PP29458   9.097   3.357   9.926  0.0069 -0.1944  0.0588
19355PP      PP29459   0.318  11.058   0.970  0.0854  0.0076  0.2245
19356PP      PP29460   6.785  13.007  10.198 -0.0382  0.1715 -0.2661
19357PP      PP29461   9.177  11.353   2.030 -0.0010 -0.0924  0.1760
19358PP      PP29462   8.733   2.239  11.190  0.1465  0.0679  0.1391
19359PP      PP29463   8.653   7.977  12.634 -0.1122  0.0170  0.0989
19360PP      PP29464  10.774   5.114  10.537  0.3399 -0.0608  0.2660
19361PP      PP29465  15.720   1.728  12.636 -0.0612 -0.1604 -0.0317
19362PP      PP29466  10.873   3.685   0.190 -0.0800  0.0864 -0.0974
19363PP      PP29467  13.914   4.003  10.287 -0.0938 -0.0194  0.2059
19364PP      PP29468  10.958  14.781  12.929 -0.1115  0.0394  0.0902
19365PP      PP29469   2.771   0.922   2.061  0.0033 -0.2302  0.3933
19366PP      PP29470   4.921   5.090   2.607  0.2921 -0.2783  0.1694
19367PP      PP29471   6.290  15.890   1.886  0.0066 -0.0543 -0.2906
19368PP      PP29472  15.306  14.824   2.837 -0.2926  0.0202 -0.0343
19369PP      PP29473   6.082   0.357  10.906  0.3437 -0.2791  0.0002
19370PP      PP29474   9.708   6.451  11.692  0.1269 -0.1740 -0.0517
19371PP      PP29475   6.054   5.479  13.282  0.0180 -0.0116  0.1621
19372PP      PP29476   4.899   0.298  13.340 -0.0901  0.3229  0.1201
19373PP      PP29477   3.537   9.290  13.257 -0.0791 -0.1184 -0.0064
19374PP      PP29478  11.405   9.774  13.432  0.3273 -0.0392  0.0768
19375PP      PP29479   3.739  14.433   3.094 -0.0394  0.0027 -0.1687
19376PP      PP29480   9.971  12.955   2.942  0.0628 -0.1336  0.1865
19377PP      PP29481  11.775   5.805   1.264 -0.3908 -0.0929 -0.0168
19378PP      PP29482   0.822   5.258   4.206  0.0392  0.1490  0.1369
19379PP      PP29483  11.817   5.500   9.284 -0.1015  0.2930  0.0987
19380PP      PP29484  11.276  13.103  11.237  0.0278 -0.3285 -0.3595
19381PP      PP29485   3.798   5.536   2.024  0.0564  0.1081  0.1419
19382PP      PP29486   0.881   8.146   2.435  0.1333 -0.1896 -0.4124
19383PP      PP29487   3.371   5.818  13.373  0.2007  0.1817  0.0399
19384PP      PP29488  11.024   2.460   0.610  0.0147  0.1883  0.4433
19385PP      PP29489   3.712   7.130  10.466  0.4798  0.0731 -0.0797
19386PP      PP29490  11.005   5.813  11.832 -0.0229  0.1686  0.2227
19387PP      PP29491   2.989   9.787  11.461 -0.2812 -0.2764  0.0924
19388PP      PP29492   5.880   8.447  10.293  0.0110  0.1303  0.1387
19389PP      PP29493  13.967   6.877   2.634  0.1243 -0.0599 -0.0589
19390PP      PP29494  10.212   6.278  13.238  0.2817 -0.0489 -0.0466
19391PP      PP29495   1.481   9.925   4.097 -0.1305 -0.2395 -0.2860
19392PP      PP29496  14.880   0.488  11.522 -0.1776  0.0347  0.1333
19393PP      PP29497  14.870   3.229   1.729  0.2052 -0.1585 -0.0918
19394PP      PP29498   2.251   5.753   5.031  0.0072 -0.3713 -0.1353
19395PP      PP29499   4.753   0.509   2.730  0.1688  0.0269 -0.1127
19396PP      PP29500   2.930   1.608  12.657 -0.0784  0.0978  0.2291
19397PP      PP29501  13.315  15.810   2.542 -0.2216  0.1168  0.0775
19398PP      PP29502   3.873   8.266  12.552  0.2326  0.0446  0.0207
19399PP      PP29503  14.821   7.966  12.370  0.1604  0.0312  0.2508
19400PP      PP29504  12.520  13.065   1.579  0.0439 -0.1300  0.0784
19401PP      PP29505  15.010   5.017   1.797  0.0635  0.0220  0.2404
19402PP      PP29506   2.094  13.402  10.429 -0.1732 -0.0550 -0.0188
19403PP      PP29507   9.153   5.161  13.463  0.1720 -0.1522 -0.0616
19404PP      PP29508  12.266   3.540   2.477  0.0726  0.1586 -0.0248
19405PP      PP29509   1.413   5.705  12.642  0.0568  0.1286  0.0202
19406PP      PP29510   4.168  11.423   0.474  0.2071  0.1018 -0.0028
19407PP      PP29511   4.021   9.106  12.255 -0.3657  0.1502  0.1160
19408PP      PP29512  12.523  15.644   9.726  0.0570 -0.0397 -0.2583
19409PP      PP29513  10.194  14.285  11.391 -0.1794  0.4092 -0.0700
19410PP      PP29514  12.039  12.660  10.726  0.2720 -0.0891  0.2452
19411PP      PP29515  15.876   2.737   2.063  0.1890  0.0385  0.0290
19412PP      PP29516   3.078   2.205   1.411  0.0883  0.1711 -0.2559
19413PP      PP29517  14.849  10.513   2.979  0.0390  0.1333  0.0054
19414PP      PP29518  12.482   8.959  12.782 -0.0444 -0.1257  0.0374
19415PP      PP29519   0.928   5.763  12.835 -0.0691  0.1702  0.0177
19416PP      PP29520   6.191   1.295   3.154  0.0371  0.0132 -0.4598
19417PP      PP29521   1.495  10.015   5.151 -0.0260 -0.3112  0.0942
19418PP      PP29522   1.749   2.711   1.594  0.0919 -0.0192 -0.0060
19419PP      PP29523   5.006   4.555   0.353  0.1353 -0.1242  0.0183
19420PP      PP29524  13.314   0.591  10.155 -0.0468  0.0330 -0.4657
19421PP      PP29525   1.978   5.142   2.595  0.1316  0.1360  0.0791
19422PP      PP29526   7.033  14.864   0.172  0.1193 -0.0470 -0.5053
19423PP      PP29527   7.930  11.841   1.350  0.2070  0.1529 -0.1516
19424PP      PP29528   9.602   7.704   3.165 -0.3442 -0.0128 -0.2345
19425PP      PP29529   9.878   8.595   2.116 -0.1743  0.0997 -0.1830
19426PP      PP29530   9.877  13.762   3.717  0.0370  0.2105  0.0595
19427PP      PP29531   1.107  12.074   8.692 -0.2400  0.2149 -0.0969
19428PP      PP29532   8.846   8.060   2.407  0.2450 -0.0067 -0.3052
19429PP      PP29533   7.717   4.679  13.126  0.0291 -0.2417  0.0065
19430PP      PP29534   9.720   2.395   0.553 -0.0168 -0.3084  0.3591
19431PP      PP29535  15.199  13.381   1.255  0.1904 -0.4082 -0.1237
19432PP      PP29536   6.468   7.372   0.384 -0.0515  0.4611  0.1827
19433PP      PP29537  10.082   6.410   9.482  0.1102  0.1624 -0.2107
19434PP      PP29538   8.841  11.443   1.515 -0.1070  0.1062 -0.2097
19435PP      PP29539   5.102   1.371   0.950 -0.1032 -0.2731  0.2177
19436PP      PP29540  13.372   9.681  11.065  0.1850  0.0153 -0.2406
19437PP      PP29541  14.342   1.523  12.525 -0.0834 -0.0306  0.3401
19438PP      PP29542  10.689   7.065   2.127 -0.0843 -0.0380 -0.0414
19439PP      PP29543  12.237  13.979   2.590  0.1695 -0.1592  0.5297
19440PP      PP29544   8.963   9.047   3.190 -0.1534  0.1955  0.4824
19441PP      PP29545  12.506  15.365   8.758  0.0360  0.1047  0.1292
19442PP      PP29546  11.515   1.569  10.884  0.0387 -0.0472  0.1667
19443PP      PP29547   1.760   2.397  13.140 -0.1156 -0.1247 -0.0168
19444PP      PP29548   2.402   4.428  11.422  0.0754 -0.0286  0.0910
19445PP      PP29549   9.068   6.792   3.977 -0.1899 -0.0375  0.3267
19446PP      PP29550   5.829   3.892  10.862  0.1625  0.0807  0.0816
19447PP      PP29551   0.489  15.419  12.649  0.0590 -0.1683 -0.0981
19448PP      PP29552   1.749   0.941   0.924 -0.0413 -0.0129 -0.2633
19449PP      PP29553  13.141   8.979   1.608  0.1448 -0.1163  0.1963
19450PP      PP29554  10.792   2.546  12.975 -0.0566  0.0199  0.2249
19451PP      PP29555   5.150   9.865  10.748 -0.0977  0.0050  0.1270
19452PP      PP29556   5.194  10.185  12.503  0.3513  0.3181 -0.1105
19453PP      PP29557   3.801   0.044   2.204  0.3056 -0.1156  0.1495
19454PP      PP29558   1.102  13.619  12.792 -0.1456  0.0214  0.1317
19455PP      PP29559   1.503  14.876  12.475 -0.0299 -0.2095 -0.1943
19456PP      PP29560   9.141   2.206  11.532  0.2466  0.2518 -0.0231
19457PP      PP29561   3.590   9.273   0.321 -0.1072  0.2130  0.2439
19458PP      PP29562   2.338  12.562   8.886 -0.0469 -0.3730 -0.0061
19459PP      PP29563   0.953  11.262   3.888  0.0306 -0.2726  0.3657
19460PP      PP29564  15.043  11.547   2.309 -0.2316  0.0156 -0.2950
19461PP      PP29565   8.228   5.987  13.192 -0.0005 -0.2044 -0.0662
19462PP      PP29566   4.445   2.989  13.282 -0.2024 -0.2518  0.0621
19463PP      PP29567   2.716  12.024   9.957 -0.1394  0.1123  0.0579
19464PP      PP29568   9.721  13.011   9.379  0.2549  0.3625  0.1655
19465PP      PP29569   0.675  11.497   8.972 -0.2182  0.1446  0.1708
19466PP      PP29570   4.012   8.717   0.038  0.1362  0.0315 -0.1061
19467PP      PP29571  13.199   4.457  10.352  0.4285 -0.1670  0.1305
19468PP      PP29572   9.209   8.155   0.243 -0.1031 -0.0915  0.2286
19469PP      PP29573   3.031   6.365  12.632 -0.0536 -0.0040  0.3013
19470PP      PP29574   5.992   8.605   1.390  0.2146 -0.1088 -0.0511
19471PP      PP29575  14.102   6.270  13.059  0.1480  0.0865 -0.1475
19472PP      PP29576  14.024   7.225  10.458  0.4198 -0.0651  0.1712
19473PP      PP29577  10.512   6.164   9.053 -0.2521 -0.0620 -0.0106
19474PP      PP29578  10.841   6.468   9.863  0.2352  0.0729  0.0705
19475PP      PP29579  15.460   2.318   3.745 -0.1151  0.0487  0.0871
19476PP      PP29580   3.840   6.341   1.644  0.1357 -0.2577  0.0175
19477PP      PP29581  13.953   1.248   2.539  0.0906 -0.0906 -0.0782
19478PP      PP29582  10.025   2.684   9.081 -0.4109 -0.0193 -0.1189
19479PP      PP29583   5.318  14.080  11.891  0.3710  0.0699 -0.1578
19480PP      PP29584   4.227   0.128   8.940 -0.0628 -0.0434 -0.2364
19481PP      PP29585   5.901   7.839  11.261  0.0007 -0.2800 -0.1707
19482PP      PP29586  10.347  12.371  10.463  0.3797  0.1730 -0.2286
19483PP      PP29587  14.086  11.011  10.756  0.0321 -0.3628 -0.3509
19484PP      PP29588   0.556   6.918   9.994  0.0198 -0.1368  0.0519
19485PP      PP29589   2.672  10.543   4.181  0.0145  0.0887 -0.1403
19486PP      PP29590   4.093   4.882   2.664 -0.2172 -0.2724  0.3059
19487PP      PP29591  11.467   6.880  12.005 -0.0372 -0.1894  0.2253
19488PP      PP29592   1.738  14.842  11.422 -0.0862 -0.2148 -0.1848
19489PP      PP29593   2.029  14.517   9.172 -0.0763  0.2041 -0.0237
19490PP      PP29594  11.138  10.501   1.029  0.1288 -0.1220 -0.0562
19491PP      PP29595  14.162  11.907  12.385 -0.0880 -0.2887  0.1122
19492PP      PP29596   5.723   3.691   3.138  0.0672 -0.1959  0.1370
19493PP      PP29597   8.005   0.454   2.505 -0.0266  0.1945  0.3939
19494PP      PP29598   7.372   6.357  10.299 -0.0955 -0.0722  0.3089
19495PP      PP29599   6.255   8.424   4.838 -0.1711  0.0005 -0.1003
19496PP      PP29600  13.804   8.279   1.029 -0.0786 -0.0762 -0.4242
19497PP      PP29601  14.159  15.297  12.725  0.0362 -0.2369 -0.0305
19498PP      PP29602  12.453   7.597   0.592 -0.0710  0.2780  0.1758
19499PP      PP29603  15.372  13.051   0.412  0.0842 -0.0175 -0.3452
19500PP      PP29604  10.787   3.278   3.313 -0.0857  0.0303 -0.0227
19501PP      PP29605  12.232   4.100   2.616 -0.2255 -0.2509 -0.0454
19502PP      PP29606  15.046  11.683   1.265  0.2462 -0.1378 -0.3174
19503PP      PP29607   4.011   1.743   2.381 -0.2948  0.0319 -0.1163
19504PP      PP29608   7.048   1.098   3.733 -0.2753  0.4492  0.0633
19505PP      PP29609  12.033   7.183   4.000 -0.1194  0.3139  0.1519
19506PP      PP29610   6.598   3.056  10.927  0.4355 -0.1610 -0.0958
19507PP      PP29611  13.150   2.089   3.740 -0.0270 -0.2247  0.0671
19508PP      PP29612   9.316  11.307   0.130 -0.0508  0.0947  0.1868
19509PP      PP29613   9.620  12.190   3.053  0.2430  0.1011  0.3318
19510PP      PP29614   3.350   3.116  10.636  0.2599  0.0177  0.0946
19511PP      PP29615   0.188   4.987   2.362 -0.0497 -0.2330  0.1743
19512PP      PP29616   6.824   6.714   2.158  0.0894 -0.0893  0.0014
19513PP      PP29617   1.251   3.726   2.175  0.0725  0.1709 -0.0377
19514PP      PP29618  15.901  10.575  10.280  0.2826 -0.0320 -0.1588
19515PP      PP29619  11.884   9.405   8.887  0.0433  0.0660  0.1443
19516PP      PP29620   9.834   7.429  12.774 -0.3341  0.2159 -0.1387
19517PP      PP29621   9.708   5.667   5.097 -0.2940  0.3200  0.1517
19518PP      PP29622   2.240   0.608  11.021  0.2883  0.2233  0.1544
19519PP      PP29623   8.386   5.437  13.101 -0.3593 -0.1343  0.0390
19520PP      PP29624  15.770  13.752   2.561  0.2807  0.1297  0.0130
19521PP      PP29625   5.226   2.498   0.191  0.0102 -0.0146 -0.1866
19522PP      PP29626   9.047  13.714   2.258  0.0639 -0.1559 -0.1055
19523PP      PP29627   9.115   9.811  13.201  0.0851 -0.1030 -0.0212
19524PP      PP29628  12.326   6.786  11.419 -0.2403  0.0347  0.2675
19525PP      PP29629   1.681  12.975   1.116  0.0180  0.0539  0.0158
19526PP      PP29630   0.072  10.755   1.352 -0.1157  0.0939  0.0430
19527PP      PP29631   0.001   0.854   1.974 -0.0363  0.1195  0.1386
19528PP      PP29632   2.816   8.362   4.183  0.0324 -0.0237 -0.1833
19529PP      PP29633   4.230   0.334   2.306  0.1152  0.1791 -0.1863
19530PP      PP29634  10.901   6.658  13.352  0.1941  0.1690  0.1273
19531PP      PP29635   0.019  11.605  13.257 -0.2816  0.2510 -0.3237
19532PP      PP29636   0.844   4.496   1.676  0.0385  0.2246  0.5131
19533PP      PP29637   6.586   1.207  10.703  0.1049  0.0329 -0.1435
19534PP      PP29638   9.491   0.510  12.478  0.0065 -0.3255 -0.1930
19535PP      PP29639   4.483   3.046   2.552  0.1128  0.1801 -0.1083
19536PP      PP29640  15.388  13.150  13.099  0.1063  0.0932  0.1041
19537PP      PP29641   9.009   1.425   0.052  0.2138 -0.1263 -0.0486
19538PP      PP29642   9.899  14.218   1.229 -0.1655 -0.3645 -0.1320
19539PP      PP29643  11.777   5.141   2.212 -0.0663  0.0659 -0.1450
19540PP      PP29644   4.124   7.220  10.133 -0.3550  0.1392  0.1475
19541PP      PP29645   4.508   6.285   4.059  0.0583 -0.3223  0.0762
19542PP      PP29646   1.219  10.768  12.409  0.0093  0.0232 -0.1593
19543PP      PP29647   1.371  14.943   9.500 -0.3045 -0.3499  0.1260
19544PP      PP29648   8.197  14.914   0.992 -0.2758  0.1569  0.1354
19545PP      PP29649  10.702   1.413  12.688  0.2455 -0.0574 -0.0556
19546PP      PP29650   2.021   0.226   3.851  0.1591  0.4321 -0.2623
19547PP      PP29651   8.042   3.642   0.306  0.1422 -0.0079 -0.0350
19548PP      PP29652  11.497  10.559  10.125 -0.0365  0.0257 -0.0872
19549PP      PP29653   6.227  13.449  11.695  0.3141 -0.0674  0.0539
19550PP      PP29654  13.092   2.083  11.420  0.1640 -0.3995 -0.1494
19551PP      PP29655   3.615   5.016   2.951  0.1235  0.2853 -0.0100
19552PP      PP29656  15.743   0.982   1.053  0.0708 -0.1653 -0.1437
19553PP      PP29657   1.292  11.168  10.798  0.0524  0.0527  0.1218
19554PP      PP29658  10.616   5.928   1.243  0.2487 -0.0235  0.1554
19555PP      PP29659   7.596   0.596   1.984  0.0926  0.2716 -0.2880
19556PP      PP29660   8.972   6.389   1.963  0.1938 -0.0103  0.1917
19557PP      PP29661  10.947   2.290  11.632 -0.0536  0.0383 -0.8092
19558PP      PP29662   0.104   4.430  12.723  0.1113 -0.1584 -0.0094
19559PP      PP29663  13.323   2.257  12.759  0.2258 -0.1381 -0.2431
19560PP      PP29664   3.836  11.385   4.816 -0.2596 -0.2608  0.0003
19561PP      PP29665   1.489   7.399   9.491  0.0215  0.4382 -0.1270
19562PP      PP29666  13.196  15.611   2.062 -0.1287  0.4666 -0.0173
19563PP      PP29667  13.621  10.134   9.704 -0.3740  0.0125  0.1950
19564PP      PP29668   0.891  15.136   9.331  0.0995 -0.1940  0.0363
19565PP      PP29669  11.686   6.377   1.574 -0.0777 -0.0478  0.3125
19566PP      PP29670  12.503   1.251  10.080  0.0549  0.0205 -0.1772
19567PP      PP29671   1.646  10.454  12.362 -0.0870 -0.1345 -0.1687
19568PP      PP29672   2.510  10.418  11.621  0.0187  0.5221  0.0059
19569PP      PP29673   9.085  12.934  10.743 -0.3549  0.1717 -0.0359
19570PP      PP29674   3.154   9.535   4.819  0.1351  0.2932  0.0040
19571PP      PP29675   2.411  11.059  11.979  0.1209  0.0148  0.0585
19572PP      PP29676   7.678  14.006   2.487 -0.2175  0.4213  0.0021
19573PP      PP29677   4.193  14.668   2.929  0.1522 -0.0471  0.2342
19574PP      PP29678   4.052   8.889   9.645  0.2172 -0.3079 -0.1382
19575PP      PP29679  12.735   5.042   3.253  0.0708  0.1758 -0.2150
19576PP      PP29680   7.902  12.355  11.107  0.1289 -0.0209  0.0190
19577PP      PP29681  13.870  13.897   8.623 -0.0433 -0.1610 -0.1285
19578PP      PP29682  14.769   6.960   3.244  0.0288 -0.1313  0.0032
19579PP      PP29683   6.852   2.635   3.021  0.0504 -0.0299 -0.1890
19580PP      PP29684  12.169   4.308   1.320  0.1585  0.1288 -0.2463
19581PP      PP29685   1.200   7.695   1.610  0.1361 -0.2245  0.2403
19582PP      PP29686   6.372  13.103   4.732  0.1527 -0.0209 -0.2919
19583PP      PP29687  12.004   7.106   2.322  0.0390 -0.0013  0.3548
19584PP      PP29688  11.668  11.367   2.589 -0.2544 -0.3879  0.1733
19585PP      PP29689   8.358   6.349   0.724  0.0466  0.6662  0.2199
19586PP      PP29690  14.393  11.278  13.463 -0.2149 -0.1735 -0.1059
19587PP      PP29691   7.196   5.426   9.781 -0.1545 -0.0752 -0.0394
19588PP      PP29692   6.652   0.835   0.185  0.1111 -0.0389 -0.1448
19589PP      PP29693   9.547  14.644   2.473  0.1626 -0.1653  0.3177
19590PP      PP29694  15.891   8.536   8.704 -0.0071  0.2844 -0.1396
19591PP      PP29695   6.519  12.199   2.444 -0.0855 -0.2516  0.1430
19592PP      PP29696   0.044   1.387  12.177 -0.0637 -0.2241 -0.0624
19593PP      PP29697  12.917   3.238  12.587  0.1002  0.1711  0.0932
19594PP      PP29698   1.581  10.599   2.195  0.1003  0.1432 -0.0192
19595PP      PP29699  13.788  15.874   0.230  0.4291 -0.0614  0.1816
19596PP      PP29700  10.413  12.423  10.944  0.2443 -0.0913  0.0394
19597PP      PP29701   0.729   0.580   2.978  0.1083 -0.1812 -0.1132
19598PP      PP29702  15.736   9.077   1.043 -0.0236 -0.2095 -0.0129
19599PP      PP29703   8.242  14.860   2.690 -0.0772  0.0729 -0.3387
19600PP      PP29704   6.243   3.718  12.645  0.0485  0.2753  0.1202
19601PP      PP29705  13.307   1.007   3.471  0.1968 -0.0919  0.1469
19602PP      PP29706   7.088   8.413   1.829  0.0335 -0.3619 -0.1216
19603PP      PP29707  11.705   7.134   3.228  0.2189 -0.0331 -0.3130
19604PP      PP29708   2.851   6.690  10.962 -0.3823 -0.0085  0.2423
19605PP      PP29709  10.980   2.308   2.814 -0.0538  0.2192 -0.0984
19606PP      PP29710   1.717  15.298  12.642  0.2182  0.1831 -0.2271
19607PP      PP29711   8.926  14.080   3.447  0.0266  0.1437  0.1097
19608PP      PP29712  14.397   5.633   2.609  0.2943 -0.0199  0.0792
19609PP      PP29713   9.277  13.406   0.187 -0.0222  0.1757 -0.2983
19610PP      PP29714   2.022   2.700  11.920  0.0068  0.1631 -0.1459
19611PP      PP29715  15.352   4.923   9.536 -0.1242 -0.0388 -0.1775
19612PP      PP29716   7.807   6.731   4.433 -0.1164 -0.0730  0.1617
19613PP      PP29717   1.184   2.770  11.404 -0.0691  0.0767 -0.0450
19614PP      PP29718   6.999  14.172   4.761  0.0415 -0.0227  0.2684
19615PP      PP29719   9.407  11.770   2.946 -0.0812 -0.0202  0.1654
19616PP      PP29720  12.936   4.742  13.464 -0.0102  0.1952 -0.0070
19617PP      PP29721  10.928  10.960   4.253 -0.0990 -0.2496 -0.2356
19618PP      PP29722  11.446   0.816   9.349 -0.0768  0.0896  0.1174
19619PP      PP29723   6.792   9.315   0.095  0.0192  0.1019  0.1616
19620PP      PP29724  14.709   6.215  12.289  0.0830  0.2582  0.2179
19621PP      PP29725  12.225   1.855   3.281  0.1712 -0.0664 -0.2909
19622PP      PP29726  14.738   1.167  12.455  0.0259  0.1538 -0.3347
19623PP      PP29727   1.127  13.765   1.040 -0.2149 -0.0026 -0.2719
19624PP      PP29728   8.733  15.433  10.578  0.0542  0.0121  0.0451
19625PP      PP29729   8.203  13.036   3.429 -0.0120  0.1484 -0.3309
19626PP      PP29730   1.126  13.781   2.589  0.0189  0.1739 -0.0425
19627PP      PP29731   9.498  15.489   1.448  0.3247  0.0599 -0.0572
19628PP      PP29732  13.141   7.920   1.444  0.0784 -0.2186 -0.0071
19629PP      PP29733  14.343   3.336   1.225 -0.0764  0.0295  0.2384
19630PP      PP29734   5.140  14.518   0.006  0.1213 -0.0319  0.0619
19631PP      PP29735   0.627   4.319  10.526 -0.3859  0.2000 -0.0727
19632PP      PP29736   1.995  10.720  12.543  0.1510  0.1178 -0.2237
19633PP      PP29737  12.578   0.834   9.714  0.0662  0.0640  0.1146
19634PP      PP29738   3.392   0.989   9.925 -0.2020 -0.2412  0.0462
19635PP      PP29739   5.964   5.750   9.568  0.3713 -0.0102 -0.0098
19636PP      PP29740   6.287   0.985   2.721 -0.2649 -0.3018 -0.1318
19637PP      PP29741   5.289  13.399   1.533 -0.0268 -0.1509 -0.1345
19638PP      PP29742   3.044   9.192   3.366  0.3006 -0.3465 -0.0803
19639PP      PP29743   8.365  13.477   0.829  0.3657 -0.3746 -0.2688
19640PP      PP29744   4.781  13.337   1.399 -0.2030 -0.1149 -0.1811
19641PP      PP29745   9.161   1.643  12.495  0.3835 -0.0433 -0.0463
19642PP      PP29746   5.005   1.713   9.084  0.0779 -0.2691 -0.0207
19643PP      PP29747   2.054   0.601   0.993  0.1007  0.0169  0.2342
19644PP      PP29748   0.865  13.697   8.852 -0.0332 -0.0456 -0.1606
19645PP      PP29749   5.640  14.550  11.187 -0.3216 -0.3227 -0.1771
19646PP      PP29750  15.188   2.099   9.753 -0.4092 -0.1086 -0.1238
19647PP      PP29751  10.395  13.472   2.297  0.4017 -0.0749 -0.0794
19648PP      PP29752  11.818   9.063   3.154  0.0354 -0.1118  0.2993
19649PP      PP29753   6.066   1.585   2.609  0.0539  0.0349  0.0304
19650PP      PP29754  15.838  12.828  11.783 -0.1113 -0.1208 -0.1072
19651PP      PP29755   7.525   4.545   1.520  0.4435  0.0149  0.0888
19652PP      PP29756   0.672  14.673   2.657  0.0805 -0.1925 -0.0952
19653PP      PP29757   6.513   4.903   2.850  0.2286  0.2211  0.1282
19654PP      PP29758   8.298   9.912   2.441  0.0898 -0.2004  0.2614
19655PP      PP29759   3.561   0.428  12.380  0.0103  0.3421  0.1185
19656PP      PP29760  14.791   5.923   1.891  0.3354 -0.1365 -0.1516
19657PP      PP29761  15.712  13.738   8.867 -0.1365  0.0931 -0.2493
19658PP      PP29762   4.397  15.868  12.053  0.0408  0.1597  0.1705
19659PP      PP29763  11.879   1.909   2.503 -0.1734  0.0701  0.1069
19660PP      PP29764  11.977   2.027  12.875  0.2872  0.1972  0.0432
19661PP      PP29765   6.350  11.701   4.442 -0.0833  0.1795 -0.0439
19662PP      PP29766  14.128  12.031  12.962  0.0469 -0.1982 -0.0710
19663PP      PP29767  13.192   6.699   8.725  0.1121  0.3915 -0.0332
19664PP      PP29768  10.148  10.375   1.120 -0.0702  0.0036  0.0246
19665PP      PP29769  10.297  14.895  10.639 -0.3122  0.0543 -0.2124
19666PP      PP29770   0.833   2.077  13.385 -0.0328 -0.2794 -0.0864
19667PP      PP29771   6.191   5.512  10.575  0.0299  0.1766 -0.0019
19668PP      PP29772  11.507   2.569  11.118  0.0159  0.0306  0.2288
19669PP      PP29773   0.472   0.918   8.252 -0.0755  0.1625 -0.1281
19670PP      PP29774   2.104   9.103   3.771 -0.4143  0.0653 -0.1260
19671PP      PP29775   5.802  10.423  12.723 -0.1731  0.0716  0.2423
19672PP      PP29776  14.576   8.446   0.640 -0.1933 -0.3042  0.1568
19673PP      PP29777   8.018   6.891  12.707  0.1109 -0.1370  0.1940
19674PP      PP29778   9.635   5.545  11.280  0.0634  0.0990  0.2661
19675PP      PP29779   7.041   1.330   0.587 -0.1489  0.0093 -0.0033
19676PP      PP29780   3.901  10.018   4.515  0.0621  0.0209 -0.1188
19677PP      PP29781   3.490   1.906  11.166 -0.1239  0.0644 -0.0318
19678PP      PP29782   7.413   1.425  13.068 -0.1977  0.0365 -0.0042
19679PP      PP29783   7.062  13.917   3.061 -0.0416 -0.0635 -0.4133
19680PP      PP29784   3.863   5.421  11.373  0.2442  0.1951 -0.0902
19681PP      PP29785   5.972  15.320   1.125 -0.2056  0.1575 -0.0842
19682PP      PP29786   8.166   7.671  10.371 -0.0319 -0.1882  0.0238
19683PP      PP29787   7.488  13.029   2.019  0.2474 -0.2641 -0.1326
19684PP      PP29788   6.951   6.104  12.436  0.2489 -0.2769  0.0296
19685PP      PP29789   5.648   3.469  12.001 -0.0430  0.2193  0.1281
19686PP      PP29790   7.806   9.453  11.645 -0.1614  0.1519 -0.1357
19687PP      PP29791   5.227   0.992  12.425 -0.2299  0.1369 -0.2507
19688PP      PP29792  10.656  13.511   9.365  0.0527  0.1085 -0.0334
19689PP      PP29793   6.769  13.268  11.764  0.0092  0.0589 -0.2508
19690PP      PP29794  15.488   4.981  12.192 -0.2538  0.2011 -0.1010
19691PP      PP29795   3.331  10.378  11.475 -0.1140 -0.3625 -0.0701
19692PP      PP29796  12.544   8.192   1.628  0.1459 -0.1486  0.2947
19693PP      PP29797   4.652   9.830   2.957 -0.0195 -0.0075  0.2672
19694PP      PP29798  14.826   7.653   2.537  0.2382 -0.1160  0.1767
19695PP      PP29799   6.094   8.870   9.961 -0.1294 -0.1335 -0.0190
19696PP      PP29800   1.658  12.773  11.626  0.0187 -0.1361 -0.1837
19697PP      PP29801  10.393   7.731   3.690 -0.0675  0.3974  0.1416
19698PP      PP29802  15.343   6.526  11.393 -0.0971  0.3729  0.1012
19699PP      PP29803   4.010  13.726  10.041  0.1763  0.0901 -0.1521
19700PP      PP29804   8.951  15.724  10.264  0.0541  0.1681  0.0551
19701PP      PP29805   1.041  10.785   3.763 -0.0982  0.0748 -0.1136
19702PP      PP29806  14.992  12.146  13.377  0.1223  0.1394 -0.1176
19703PP      PP29807  15.546  13.201  12.668  0.1829  0.2037  0.2429
19704PP      PP29808   0.952   4.912   3.931  0.1064  0.2241  0.3854
19705PP      PP29809   0.896   7.124   3.389 -0.0101 -0.0787 -0.0761
19706PP      PP29810  13.056   3.212  11.014  0.0011  0.0394  0.0720
19707PP      PP29811   6.478  12.953   4.184  0.1113 -0.2168 -0.2850
19708PP      PP29812   0.769   0.694   1.236  0.2027 -0.2702  0.1123
19709PP      PP29813  13.836   3.142   3.036 -0.3084  0.2712 -0.2479
19710PP      PP29814  12.300  15.400   0.137 -0.0564 -0.3119  0.0900
19711PP      PP29815   2.458   5.751   3.227  0.0624 -0.2685  0.0189
19712PP      PP29816   3.443  12.126   0.713  0.1508  0.0376  0.1439
19713PP      PP29817   4.636   9.899   1.615  0.1032 -0.4132 -0.3303
19714PP      PP29818   8.709   8.523  10.199 -0.1732  0.2393 -0.0554
19715PP      PP29819   1.869  12.012  13.465 -0.0047 -0.1340 -0.0129
19716PP      PP29820  14.837  14.788  11.641 -0.3517  0.1345  0.3522
19717PP      PP29821   1.373   4.771  12.981  0.1248 -0.0402  0.2918
19718PP      PP29822  15.796   0.934  12.988  0.1747 -0.0368  0.3440
19719PP      PP29823   2.507  10.916  12.447 -0.1351  0.1328 -0.2225
19720PP      PP29824  12.955  11.687  12.357  0.0328 -0.0228 -0.4109
19721PP      PP29825  12.005  13.555   8.918 -0.1010  0.1357 -0.1790
19722PP      PP29826  13.539   9.411   2.560 -0.0268  0.1415  0.4017
19723PP      PP29827  12.593   9.551  12.920  0.0218  0.0787  0.1905
19724PP      PP29828  13.318   7.012   1.923  0.1168 -0.2017  0.2091
19725PP      PP29829  11.416   5.331   8.955 -0.1116 -0.0588 -0.0817
19726PP      PP29830   3.510  13.992   0.249 -0.3821  0.0423 -0.1191
19727PP      PP29831  14.049   9.570  12.564 -0.1247  0.3848  0.2169
19728PP      PP29832   0.444   3.202   0.385 -0.1553  0.1796 -0.1215
19729PP      PP29833   6.414  11.187  12.512  0.2897 -0.1237  0.1481
19730PP      PP29834   0.138  11.430  11.784 -0.0034 -0.0077  0.0156
19731PP      PP29835   7.195  12.731  11.497  0.0445  0.1142 -0.1427
19732PP      PP29836  12.375   1.734  11.958 -0.1277  0.0348 -0.1154
19733PP      PP29837   7.970   0.576   1.215 -0.0115 -0.0217  0.2342
19734PP      PP29838   7.247   1.131   2.762  0.1232  0.2512 -0.1744
19735PP      PP29839   4.400   7.670   1.841  0.3077 -0.0530  0.0774
19736PP      PP29840   4.297  15.128  11.369 -0.2064 -0.1940  0.1274
19737PP      PP29841  14.726   4.700   9.120  0.1192  0.0745  0.4922
19738PP      PP29842   7.530  11.099   9.484 -0.2064 -0.3065 -0.1257
19739PP      PP29843  13.629   4.344  10.029 -0.0503  0.1378  0.3513
19740PP      PP29844  15.319   3.068  12.162 -0.0707  0.0629  0.0190
19741PP      PP29845  10.080  11.869  10.680 -0.1321 -0.0690  0.0477
19742PP      PP29846  10.475   8.726   2.467 -0.3202  0.0482 -0.2201
19743PP      PP29847   6.871   7.228  13.420 -0.0796  0.1152 -0.3832
19744PP      PP29848   6.898  11.954  12.000 -0.1349  0.0291  0.0611
19745PP      PP29849   8.117   1.079   1.205  0.0449  0.1264  0.3723
19746PP      PP29850   5.228  15.267  11.770 -0.2348 -0.1044  0.0586
19747PP      PP29851   4.673  12.369  10.122 -0.0227  0.3062 -0.0473
19748PP      PP29852   3.230  10.430   2.824 -0.3426  0.0028 -0.0257
19749PP      PP29853   8.776   5.070   1.347  0.0134  0.0437  0.1443
19750PP      PP29854  12.130   3.611   0.397 -0.2760 -0.3202 -0.1497
19751PP      PP29855  10.566  12.071  13.098  0.2565 -0.1457  0.2111
19752PP      PP29856   7.175   9.527   4.041  0.4260 -0.0984  0.0093
19753PP      PP29857   5.490   7.660  10.818 -0.1127  0.0275 -0.1201
19754PP      PP29858  10.573  14.500  11.200 -0.0359  0.0308  0.1712
19755PP      PP29859   6.695  10.773   9.746  0.2572  0.3184 -0.4062
19756PP      PP29860   8.100   0.590   5.143  0.0663 -0.1490 -0.0525
19757PP      PP29861  10.230  11.300   4.558  0.1001  0.1448  0.0958
19758PP      PP29862  12.765  14.486   9.593 -0.3283  0.2153 -0.2947
19759PP      PP29863  10.515   4.701   4.512 -0.1544 -0.0477 -0.3646
19760PP      PP29864  15.543  11.934  10.694  0.0353 -0.2994  0.2118
19761PP      PP29865  13.427   6.550   9.618 -0.0697  0.1326  0.2125
19762PP      PP29866  14.969   1.831   9.089 -0.2924 -0.2779  0.1754
19763PP      PP29867  14.763   1.129  10.130 -0.0996  0.0712 -0.0756
19764PP      PP29868  10.378   1.658   2.480 -0.0355  0.2406 -0.1453
19765PP      PP29869   9.708   0.038   8.847 -0.1531 -0.1656  0.2103
19766PP      PP29870  12.022   6.904   3.583 -0.3837 -0.1627 -0.0946
19767PP      PP29871   5.997   1.503   9.649  0.1356 -0.1327  0.2222
19768PP      PP29872   3.270  14.625   3.049 -0.1208 -0.1418  0.0971
19769PP      PP29873  13.165   0.415   8.394 -0.1175 -0.1367 -0.3133
19770PP      PP29874   4.928   6.022   3.263 -0.4087  0.4035 -0.1746
19771PP      PP29875   7.481   7.583   2.036 -0.2262 -0.0812  0.1995
19772PP      PP29876   1.390   9.016  11.372 -0.4362  0.1040  0.0647
19773PP      PP29877   3.031  15.053   0.576 -0.3140  0.0508 -0.1896
19774PP      PP29878  11.416  13.730  10.938 -0.2959  0.0922  0.2510
19775PP      PP29879   5.240   0.813   4.180 -0.2000  0.0546 -0.3028
19776CNN    PA129880  15.484  12.698   8.501  0.0314 -0.1430 -0.4817
19776CNN    PA229881  15.361  12.887   8.396 -0.0079 -0.3649 -0.0109
19776CNN    PA329882  15.382  13.048   8.559  0.5443  0.1716  0.3309
19776CNN    PA429883  15.247  13.157   8.358  0.2191 -0.4125  0.0004
19777CNN    PA129884  10.530  11.282   5.892 -0.4402 -0.1856  0.1321
19777CNN    PA229885  10.547  11.161   6.078  0.0243  0.3209 -0.0693
19777CNN    PA329886  10.477  10.953   6.009 -0.3732 -0.0603  0.0493
19777CNN    PA429887  10.564  10.949   6.265  0.4567  0.1563 -0.1440
19778CNN    PA129888  13.843  14.234  13.270  0.0423 -0.0254  0.1092
19778CNN    PA229889  13.957  14.453  13.286  0.1402  0.3133  0.0305
19778CNN    PA329890  13.821  14.546  13.450 -0.0989 -0.2628  0.0548
19778CNN    PA429891  14.003  14.708  13.392  0.0678  0.2276 -0.0320
19779CNN    PA129892   1.807   1.150   2.690  0.0002 -0.1155 -0.0168
19779CNN    PA229893   1.918   1.149   2.484 -0.3829  0.5258 -0.3468
19779CNN    PA329894   2.138   1.127   2.528  0.1935 -0.2864  0.1104
19779CNN    PA429895   2.067   0.985   2.325  0.2521  0.2263  0.2378
19780CNN    PA129896   0.589  15.011  13.380  0.0126 -0.1535 -0.0828
19780CNN    PA229897   0.815  15.124  13.364  0.2214  0.0534  0.0672
19780CNN    PA329898   0.961  14.977  13.265  0.1307 -0.1413 -0.4729
19780CNN    PA429899   1.121  15.125  13.351 -0.6560 -0.0839  0.1085
19781CNN    PA129900  14.436  10.642   5.618 -0.3317  0.3852 -0.5793
19781CNN    PA229901  14.346  10.484   5.487  0.1669  0.3212  0.3065
19781CNN    PA329902  14.174  10.574   5.373 -0.0455 -0.3958  0.3028
19781CNN    PA429903  14.155  10.313   5.328 -0.3087 -0.0065  0.0531
19782CNN    PA129904   6.099   3.053   4.120 -0.3993 -0.2643  0.2018
19782CNN    PA229905   5.962   3.031   4.313  0.1511  0.5655 -0.1409
19782CNN    PA329906   5.957   2.787   4.320 -0.0234 -0.0417 -0.0416
19782CNN    PA429907   5.854   2.872   4.517 -0.2311 -0.3093  0.1795
19783CNN    PA129908  11.237   8.877   6.900  0.0670 -0.1688  0.3998
19783CNN    PA229909  11.001   8.897   6.868 -0.1866 -0.4242  0.0385
19783CNN    PA329910  10.953   8.745   6.700 -0.1633  0.2679 -0.3434
19783CNN    PA429911  10.742   8.827   6.807 -0.4152 -0.1283 -0.0837
19784CNN    PA129912   6.384  15.888   7.546 -0.0380 -0.1934  0.2322
19784CNN    PA229913   6.540  15.929   7.717  0.0105 -0.0204 -0.5137
19784CNN    PA329914   6.706  15.852   7.642  0.2484 -0.2548  0.3214
19784CNN    PA429915   6.788  15.883   7.822 -0.0305 -0.2877 -0.6078
19785CNN    PA129916   4.366  11.096   7.154  0.6501 -0.1267 -0.0152
19785CNN    PA229917   4.230  11.239   7.332  0.5926 -0.0745  0.2582
19785CNN    PA329918   4.031  11.298   7.238 -0.3751  0.4274  0.3239
19785CNN    PA429919   4.018  11.407   7.452  0.1178  0.0445 -0.1737
19786CNN    PA129920  13.682   9.618   6.303  0.1219 -0.1313 -0.0985
19786CNN    PA229921  13.900   9.678   6.378 -0.4221 -0.4146 -0.1081
19786CNN    PA329922  13.843   9.790   6.569 -0.2244 -0.0689  0.1984
19786CNN    PA429923  14.076   9.858   6.504 -0.4926  0.2772 -0.3100
19787CNN    PA129924  12.595   3.497   5.395  0.5660 -0.0589  0.1292
19787CNN    PA229925  12.645   3.293   5.291  0.1076  0.1888 -0.5195
19787CNN    PA329926  12.760   3.336   5.128  0.3773 -0.0709 -0.1402
19787CNN    PA429927  12.687   3.067   5.102 -0.1131 -0.2548  0.0313
19788CNN    PA129928  11.279  14.006   5.196 -0.1044  0.3662  0.0468
19788CNN    PA229929  11.396  13.846   5.361  0.1100 -0.0760 -0.0454
19788CNN    PA329930  11.285  13.886   5.553  0.2751  0.4084  0.0063
19788CNN    PA429931  11.412  13.657   5.575 -0.2176  0.2412  0.3447
19789CNN    PA129932   5.394   1.348   6.907  0.0234 -0.2253 -0.1040
19789CNN    PA229933   5.359   1.565   6.803  0.0669 -0.7796  0.1807
19789CNN    PA329934   5.482   1.594   6.642  0.3235  0.0444  0.3668
19789CNN    PA429935   5.351   1.784   6.643 -0.0317 -0.1341  0.2714
19790CNN    PA129936   2.565   2.077   4.728 -0.0697 -0.2106 -0.2342
19790CNN    PA229937   2.386   2.219   4.704 -0.1378 -0.0334 -0.1868
19790CNN    PA329938   2.410   2.343   4.889  0.2283 -0.1026 -0.4974
19790CNN    PA429939   2.198   2.404   4.776 -0.1707  0.1616  0.2929
19791CNN    PA129940  15.184   2.321   7.340  0.3354  0.2340 -0.0372
19791CNN    PA229941  15.240   2.492   7.468  0.0402 -0.0576  0.0081
19791CNN    PA329942  15.083   2.532   7.610  0.2712 -0.4946  0.0629
19791CNN    PA429943  15.194   2.751   7.610  0.2894 -0.1528 -0.0413
19792CNN    PA129944   1.346   8.415   8.655 -0.2715 -0.0813 -0.6109
19792CNN    PA229945   1.511   8.563   8.770 -0.2537 -0.3627  0.0119
19792CNN    PA329946   1.409   8.591   8.980 -0.5164  0.0213 -0.0815
19792CNN    PA429947   1.601   8.710   8.990 -0.1223 -0.4785 -0.1860
19793CNN    PA129948   8.790   3.216   0.460  0.1424 -0.3831  0.2784
19793CNN    PA229949   8.892   3.337   0.297  0.2428  0.0155  0.7062
19793CNN    PA329950   8.754   3.249   0.112 -0.0305 -0.1722 -0.0003
19793CNN    PA429951   8.922   3.387   0.043  0.3590  0.2111 -0.2797
19794CNN    PA129952   0.996   7.040   9.078  0.4255  0.0424 -0.4143
19794CNN    PA229953   1.103   7.177   8.945  0.1411 -0.4072 -0.0982
19794CNN    PA329954   1.201   7.315   9.067  0.3456 -0.1154 -0.4376
19794CNN    PA429955   1.333   7.344   8.875 -0.1594  0.0269 -0.3321
19795CNN    PA129956   9.532   9.654   8.307  0.0478 -0.3324 -0.1082
19795CNN    PA229957   9.707   9.736   8.443  0.1150 -0.5253  0.0462
19795CNN    PA329958   9.616   9.855   8.588  0.0924 -0.3956 -0.0531
19795CNN    PA429959   9.838   9.926   8.599 -0.3279 -0.1701 -0.1413
19796CNN    PA129960  13.720   7.957   8.848 -0.0314 -0.1614  0.4083
19796CNN    PA229961  13.715   8.177   8.916  0.0297 -0.1572 -0.2554
19796CNN    PA329962  13.497   8.207   8.931 -0.2135  0.0987 -0.1885
19796CNN    PA429963  13.618   8.417   8.993  0.2794  0.0806  0.1602
19797CNN    PA129964   5.404   9.494   5.224 -0.2817  0.2701  0.2324
19797CNN    PA229965   5.499   9.301   5.080 -0.3174  0.2914 -0.0716
19797CNN    PA329966   5.681   9.253   5.157 -0.2734 -0.2935 -0.4308
19797CNN    PA429967   5.713   9.182   4.965  0.2122  0.3480  0.1385
19798CNN    PA129968  13.150   5.639  13.460 -0.2573  0.4565  0.5259
19798CNN    PA229969  13.068   5.612  13.682  0.2285 -0.2980  0.4719
19798CNN    PA329970  12.894   5.486  13.645 -0.1857 -0.2329 -0.0709
19798CNN    PA429971  12.908   5.547  13.871 -0.1878  0.1475 -0.2200
19799CNN    PA129972   7.619  12.664  11.995  0.2195  0.1235  0.3155
19799CNN    PA229973   7.627  12.913  12.040 -0.1094  0.2520  0.0631
19799CNN    PA329974   7.744  12.968  11.890 -0.2868  0.1687  0.0032
19799CNN    PA429975   7.795  13.152  12.058  0.0353  0.1547 -0.2127
19800CNN    PA129976   0.143   6.624  10.813 -0.0711  0.0362 -0.0028
19800CNN    PA229977   0.162   6.441  10.670 -0.2134 -0.0759 -0.0155
19800CNN    PA329978   0.035   6.504  10.472 -0.3917 -0.0396  0.1749
19800CNN    PA429979   0.058   6.268  10.479 -0.1963 -0.1468  0.3199
19801CNN    PA129980   1.391   8.468   3.648  0.1864 -0.0247  0.3388
19801CNN    PA229981   1.201   8.571   3.559 -0.0707  0.1212 -0.5024
19801CNN    PA329982   1.238   8.793   3.643  0.2974 -0.2999 -0.2581
19801CNN    PA429983   1.007   8.768   3.541 -0.4658 -0.3095  0.2967
19802CNN    PA129984   1.811  11.230   9.419 -0.0513 -0.1890  0.0262
19802CNN    PA229985   1.667  11.048   9.453  0.1014 -0.0406 -0.0133
19802CNN    PA329986   1.746  10.887   9.331  0.3849  0.2503 -0.0435
19802CNN    PA429987   1.501  10.862   9.399  0.1866 -0.3914  0.0441
19803CNN    PA129988  14.778  15.489   8.260 -0.1056 -0.1722 -0.5185
19803CNN    PA229989  14.866  15.708   8.283  0.1901 -0.2314 -0.0111
19803CNN    PA329990  15.056  15.705   8.182  0.4003  0.2725 -0.4703
19803CNN    PA429991  15.017  15.936   8.237  0.0519 -0.1737  0.3278
19804CNN    PA129992   2.723   2.984   3.946  0.2139  0.0507 -0.3247
19804CNN    PA229993   2.772   3.201   4.007 -0.1517 -0.4159 -0.2362
19804CNN    PA329994   2.670   3.237   4.215 -0.1092  0.3553  0.2634
19804CNN    PA429995   2.716   3.472   4.144  0.2490  0.5075  0.0295
19805CNN    PA129996   9.957   0.858   9.826  0.1803  0.2863 -0.0563
19805CNN    PA229997  10.167   0.729   9.753  0.0491 -0.4233  0.0183
19805CNN    PA329998  10.301   0.908   9.698 -0.2011  0.3222 -0.0442
19805CNN    PA429999  10.430   0.681   9.710  0.2210  0.0912  0.4547
19806CNN    PA130000  10.198  13.133   0.169 -0.0406 -0.1872  0.0423
19806CNN    PA230001   9.984  13.064   0.257  0.0724 -0.0369 -0.1328
19806CNN    PA330002  10.026  13.044   0.438  0.0586  0.0357 -0.3941
19806CNN    PA430003   9.821  12.951   0.441  0.2241  0.1761 -0.0308
19807CNN    PA130004   4.390   4.232   7.096  0.2888 -0.1180 -0.1324
19807CNN    PA230005   4.496   4.289   7.284  0.3135  0.0760 -0.7577
19807CNN    PA330006   4.569   4.102   7.399  0.0612 -0.3143 -0.1361
19807CNN    PA430007   4.610   4.258   7.558 -0.4194 -0.4921  0.2313
19808CNN    PA130008  14.364  10.243   7.163 -0.4756 -0.3369 -0.1002
19808CNN    PA230009  14.557  10.167   7.306 -0.0322  0.0303 -0.1726
19808CNN    PA330010  14.695  10.364   7.309  0.0216 -0.0812  0.0697
19808CNN    PA430011  14.801  10.172   7.413  0.1898  0.2997 -0.4318
19809CNN    PA130012   5.585   1.487   7.156  0.1487  0.2186  0.0365
19809CNN    PA230013   5.518   1.377   7.336 -0.1157  0.3912 -0.1645
19809CNN    PA330014   5.391   1.206   7.292  0.0233 -0.3656 -0.3778
19809CNN    PA430015   5.405   1.241   7.539  0.3298 -0.0364 -0.1798
19810CNN    PA130016   7.463   2.731   7.931  0.1463 -0.2485  0.0583
19810CNN    PA230017   7.215   2.773   7.929  0.0727  0.2881  0.4083
19810CNN    PA330018   7.179   2.865   8.113  0.5729  0.1082  0.0282
19810CNN    PA430019   6.946   2.775   8.000 -0.2385  0.0194  0.0494
19811CNN    PA130020   0.425  13.342   4.423  0.1700 -0.1634 -0.2446
19811CNN    PA230021   0.451  13.503   4.257  0.2004 -0.4300 -0.0942
19811CNN    PA330022   0.294  13.430   4.106 -0.2800  0.0683  0.3424
19811CNN    PA430023   0.429  13.606   3.993 -0.3526  0.7586 -0.2083
19812CNN    PA130024   8.263   3.802   6.242  0.3874 -0.2127  0.0665
19812CNN    PA230025   8.081   3.967   6.277 -0.1025 -0.0932 -0.1445
19812CNN    PA330026   7.938   3.889   6.452 -0.2439  0.1587 -0.0331
19812CNN    PA430027   7.811   4.040   6.330  0.4174 -0.3162 -0.1273
19813CNN    PA130028   6.672  13.819   7.343  0.2722  0.1603  0.1294
19813CNN    PA230029   6.609  13.632   7.199 -0.3231  0.2319  0.3893
19813CNN    PA330030   6.388  13.580   7.202 -0.0657  0.1692 -0.4229
19813CNN    PA430031   6.472  13.458   7.019 -0.2871  0.3319 -0.2949
19814CNN    PA130032  13.843   9.116   6.825 -0.0312  0.3727 -0.0070
19814CNN    PA230033  14.073   9.043   6.847 -0.0224  0.1853 -0.1184
19814CNN    PA330034  14.137   9.161   6.995 -0.2214 -0.2933  0.2885
19814CNN    PA430035  14.325   9.013   6.889 -0.0407 -0.2066 -0.3151
19815CNN    PA130036   4.488   0.854   6.634 -0.0897  0.5649  0.1007
19815CNN    PA230037   4.582   0.978   6.792  0.0440 -0.9035  0.1832
19815CNN    PA330038   4.659   0.838   6.907  0.2520  0.0506 -0.1919
19815CNN    PA430039   4.710   1.065   6.992  0.3335  0.4724 -0.2746
19816CNN    PA130040   7.845   9.256   8.159  0.0359 -0.1746 -0.5496
19816CNN    PA230041   7.757   9.121   8.375  0.1155  0.2882  0.2242
19816CNN    PA330042   7.603   8.971   8.296  0.1689 -0.3213 -0.1619
19816CNN    PA430043   7.639   8.927   8.531  0.1524  0.2238 -0.3882
19817CNN    PA130044   0.181  10.393   4.522 -0.1130  0.2621 -0.0183
19817CNN    PA230045   0.163  10.586   4.430  0.3398  0.1880 -0.2964
19817CNN    PA330046   0.385  10.679   4.432  0.0792  0.2296 -0.0466
19817CNN    PA430047   0.212  10.863   4.395 -0.3196 -0.1623 -0.0146
19818CNN    PA130048   5.188   1.094   7.981 -0.0002  0.3202  0.2233
19818CNN    PA230049   5.139   0.866   7.892  0.0529 -0.1272 -0.0226
19818CNN    PA330050   5.275   0.852   7.707 -0.1836  0.5853 -0.0171
19818CNN    PA430051   5.093   0.667   7.673 -0.2130 -0.2382  0.5375
19819CNN    PA130052   5.150   8.186   7.039  0.0904  0.0483 -0.1107
19819CNN    PA230053   5.166   8.369   7.209 -0.0196  0.0586 -0.0571
19819CNN    PA330054   5.313   8.490   7.128  0.0435  0.1969 -0.1140
19819CNN    PA430055   5.309   8.596   7.330 -0.3533  0.4082  0.2844
19820CNN    PA130056  14.257   2.385   7.082  0.3221 -0.0305  0.0553
19820CNN    PA230057  14.322   2.203   7.259 -0.0666 -0.2410 -0.0506
19820CNN    PA330058  14.157   2.218   7.414 -0.1155 -0.1174 -0.0298
19820CNN    PA430059  14.321   2.021   7.475 -0.0711  0.1242 -0.1198
19821CNN    PA130060   8.870   1.105   6.823  0.0686 -0.0508  0.1332
19821CNN    PA230061   9.006   1.201   6.628  0.2564 -0.1214 -0.1487
19821CNN    PA330062   9.073   1.404   6.715 -0.5246 -0.2270  0.0286
19821CNN    PA430063   9.172   1.360   6.506 -0.1057 -0.1106  0.1038
19822CNN    PA130064   6.063  13.005   1.491 -0.2385 -0.0356 -0.0823
19822CNN    PA230065   5.962  12.845   1.333 -0.0774 -0.4513  0.4417
19822CNN    PA330066   5.769  12.796   1.404  0.0445 -0.0014 -0.2190
19822CNN    PA430067   5.815  12.653   1.203 -0.0835 -0.4589  0.3982
19823CNN    PA130068   7.083   1.221  13.191 -0.0203 -0.2558  0.0916
19823CNN    PA230069   7.125   1.285  13.412 -0.1294 -0.1139  0.2626
19823CNN    PA330070   7.045   1.129  13.496 -0.0524  0.0481 -0.2187
19823CNN    PA430071   7.142   1.305  13.657  0.0976 -0.3107  0.1936
19824CNN    PA130072  12.396  12.622   4.198 -0.0701 -0.0874 -0.0428
19824CNN    PA230073  12.439  12.562   4.439  0.1934  0.1669  0.2163
19824CNN    PA330074  12.575  12.413   4.427  0.1074  0.0303 -0.3288
19824CNN    PA430075  12.504  12.420   4.627  0.3166 -0.3814  0.0524
19825CNN    PA130076  14.006   0.968   5.939  0.0430 -0.0360  0.0895
19825CNN    PA230077  14.003   0.851   6.156  0.6483  0.1569  0.2905
19825CNN    PA330078  13.786   0.760   6.162 -0.1394 -0.2306 -0.5777
19825CNN    PA430079  13.873   0.801   6.413 -0.3643  0.3061 -0.4857
19826CNN    PA130080   6.973  14.310   7.067  0.1115 -0.3917  0.0843
19826CNN    PA230081   7.017  14.094   7.105 -0.1319 -0.0192 -0.1025
19826CNN    PA330082   6.977  14.069   7.296  0.0367  0.0146  0.2834
19826CNN    PA430083   7.041  13.843   7.246  0.0215 -0.3183 -0.0838
19827CNN    PA130084   6.070  12.920   5.668  0.3019 -0.5260 -0.0396
19827CNN    PA230085   6.032  12.704   5.775 -0.2064 -0.4379 -0.1609
19827CNN    PA330086   5.843  12.689   5.816  0.0263 -0.3067  0.2898
19827CNN    PA430087   5.954  12.465   5.898  0.2385  0.1295  0.5491
19828CNN    PA130088  15.125  11.568   4.371  0.3291  0.0823 -0.2981
19828CNN    PA230089  15.236  11.766   4.462 -0.2982  0.0225 -0.1751
19828CNN    PA330090  15.268  11.886   4.298 -0.2397 -0.0863 -0.0926
19828CNN    PA430091  15.305  12.006   4.543 -0.0748  0.1542 -0.0202
19829CNN    PA130092   9.444   8.718   7.970  0.0351 -0.4362 -0.1034
19829CNN    PA230093   9.552   8.677   8.187 -0.0200 -0.0781  0.4902
19829CNN    PA330094   9.683   8.507   8.126  0.0467 -0.2519  0.5084
19829CNN    PA430095   9.717   8.571   8.379 -0.4380  0.1527 -0.0329
19830CNN    PA130096  13.323  14.231  11.341 -0.3414 -0.1546  0.2559
19830CNN    PA230097  13.189  14.345  11.171 -0.4069  0.1954 -0.1515
19830CNN    PA330098  13.265  14.537  11.156  0.1725  0.2994 -0.4290
19830CNN    PA430099  13.100  14.490  10.995 -0.1391 -0.2505 -0.4265
19831CNN    PA130100  12.210   6.375   7.917 -0.5818  0.3408 -0.1230
19831CNN    PA230101  12.091   6.433   7.710  0.2521 -0.0014 -0.2031
19831CNN    PA330102  12.141   6.592   7.668  0.4633 -0.2007 -0.1122
19831CNN    PA430103  12.021   6.538   7.469  0.1617 -0.2166  0.0949
19832CNN    PA130104   8.192  13.852   3.268 -0.3447  0.4045 -0.2730
19832CNN    PA230105   8.259  14.016   3.465 -0.1571 -0.3327 -0.2834
19832CNN    PA330106   8.233  14.209   3.379  0.2596 -0.2577  0.4412
19832CNN    PA430107   8.393  14.282   3.541 -0.1761 -0.0221 -0.1110
19833CNN    PA130108   2.959   7.059   8.140  0.2427  0.0761  0.1666
19833CNN    PA230109   2.834   7.047   8.357  0.1059 -0.2695  0.4114
19833CNN    PA330110   2.785   7.261   8.382 -0.3442 -0.1196 -0.0301
19833CNN    PA430111   2.711   7.141   8.595  0.0952  0.2621  0.0615
19834CNN    PA130112  15.444   4.717   6.710 -0.4549 -0.1600  0.3304
19834CNN    PA230113  15.610   4.730   6.525 -0.1493  0.3688 -0.0341
19834CNN    PA330114  15.746   4.577   6.582 -0.0044 -0.2642 -0.0258
19834CNN    PA430115  15.845   4.640   6.369  0.1044  0.1634 -0.0129
19835CNN    PA130116   9.801  10.030   6.565 -0.2412 -0.0167  0.0784
19835CNN    PA230117   9.753  10.032   6.343 -0.2906 -0.4815  0.3502
19835CNN    PA330118   9.814  10.223   6.250 -0.0804  0.0557 -0.0047
19835CNN    PA430119   9.816  10.076   6.056  0.0568  0.4952 -0.3068
19836CNN    PA130120   3.776  13.664   6.598 -0.1503 -0.2198  0.2247
19836CNN    PA230121   3.658  13.857   6.660  0.3381 -0.4367  0.3839
19836CNN    PA330122   3.623  13.870   6.849  0.3437  0.1072 -0.3183
19836CNN    PA430123   3.491  14.045   6.753 -0.4427  0.0961 -0.1329
19837CNN    PA130124  14.589   8.079  12.926  0.0094 -0.0882 -0.0180
19837CNN    PA230125  14.740   8.240  12.857 -0.2141  0.2794 -0.2004
19837CNN    PA330126  14.908   8.128  12.792 -0.1747 -0.1604  0.4378
19837CNN    PA430127  14.907   8.344  12.666 -0.0934  0.0044 -0.1360
19838CNN    PA130128   7.448   9.537   5.772  0.4401  0.1242  0.2287
19838CNN    PA230129   7.450   9.387   5.593  0.1804 -0.3708 -0.1514
19838CNN    PA330130   7.315   9.232   5.647 -0.0545 -0.0783  0.1782
19838CNN    PA430131   7.397   9.188   5.421 -0.1274 -0.1442  0.4199
19839CNN    PA130132   8.668   2.548   8.715 -0.2124 -0.0273  0.2715
19839CNN    PA230133   8.630   2.780   8.641  0.2034  0.0844  0.0309
19839CNN    PA330134   8.838   2.860   8.589 -0.1115 -0.3920 -0.1846
19839CNN    PA430135   8.678   3.065   8.612  0.1432  0.1128  0.2201
19840CNN    PA130136  15.655   3.849   7.696  0.2579 -0.4451  0.5375
19840CNN    PA230137  15.716   3.959   7.902 -0.0267  0.0038 -0.1462
19840CNN    PA330138  15.902   3.879   7.942 -0.4927  0.2516  0.0172
19840CNN    PA430139  15.917   4.074   8.096 -0.2316  0.3868  0.2021
19841CNN    PA130140  13.279  10.633   1.174 -0.1810  0.0659 -0.2113
19841CNN    PA230141  13.371  10.457   1.041 -0.2766  0.3074  0.2560
19841CNN    PA330142  13.490  10.376   1.181  0.0155  0.4004  0.0496
19841CNN    PA430143  13.516  10.199   1.006  0.4458 -0.1909  0.1331
19842CNN    PA130144   2.299   8.019   7.509  0.0503 -0.3142  0.2538
19842CNN    PA230145   2.128   7.968   7.371  0.0571 -0.0846  0.1694
19842CNN    PA330146   2.221   8.048   7.164 -0.1760 -0.2353 -0.2945
19842CNN    PA430147   2.029   7.905   7.115  0.2274 -0.0513 -0.2234
19843CNN    PA130148  12.676   6.864   5.468  0.1741 -0.2527  0.6086
19843CNN    PA230149  12.680   6.761   5.693  0.2535  0.0322 -0.0241
19843CNN    PA330150  12.829   6.924   5.813 -0.1463 -0.2050  0.2195
19843CNN    PA430151  12.692   6.775   5.956 -0.1126  0.1244  0.1456
19844CNN    PA130152  15.034  13.969   7.895 -0.2891 -0.1151  0.1495
19844CNN    PA230153  14.982  14.172   7.747  0.1390  0.3761 -0.1523
19844CNN    PA330154  14.962  14.337   7.870 -0.3069  0.3673  0.0434
19844CNN    PA430155  14.945  14.437   7.637 -0.1883  0.1830  0.3365
19845CNN    PA130156   7.322   5.379   8.401 -0.5045 -0.1386  0.4012
19845CNN    PA230157   7.540   5.458   8.363 -0.0410  0.2209 -0.1662
19845CNN    PA330158   7.584   5.475   8.177  0.0989 -0.0616  0.4782
19845CNN    PA430159   7.793   5.466   8.264 -0.2248 -0.2026 -0.2663
19846CNN    PA130160  14.701   2.854   4.267 -0.0920  0.5018  0.2014
19846CNN    PA230161  14.519   2.928   4.091 -0.2130 -0.1053 -0.3679
19846CNN    PA330162  14.629   3.026   3.929 -0.0214  0.2196  0.1563
19846CNN    PA430163  14.419   3.028   3.825 -0.2025 -0.0694  0.1056
19847CNN    PA130164   3.008  13.061  11.202 -0.2313 -0.1876 -0.3850
19847CNN    PA230165   3.021  13.290  11.223 -0.0159 -0.0761  0.3633
19847CNN    PA330166   3.002  13.352  11.045  0.4512  0.7519  0.6067
19847CNN    PA430167   3.057  13.555  11.178  0.3708 -0.5233  0.2036
19848CNN    PA130168   8.141   0.876   6.685  0.1482  0.3063 -0.2368
19848CNN    PA230169   8.342   0.718   6.770 -0.4765 -0.0799  0.6211
19848CNN    PA330170   8.447   0.647   6.560 -0.0555 -0.4835  0.1329
19848CNN    PA430171   8.578   0.560   6.751 -0.0904 -0.0314  0.0814
19849CNN    PA130172  12.779   6.002   3.967 -0.2599 -0.0885 -0.0435
19849CNN    PA230173  12.553   5.964   3.994  0.1391  0.0864 -0.2563
19849CNN    PA330174  12.503   6.093   4.206 -0.3253 -0.2299  0.5058
19849CNN    PA430175  12.312   6.013   4.112  0.2882 -0.2464 -0.2672
19850CNN    PA130176   6.447   9.056   7.758 -0.1814 -0.4254  0.4385
19850CNN    PA230177   6.360   8.857   7.621  0.2188 -0.3053 -0.0488
19850CNN    PA330178   6.266   8.746   7.777 -0.4353  0.4353  0.4576
19850CNN    PA430179   6.217   8.634   7.586 -0.1057  0.0472 -0.0733
19851CNN    PA130180  15.523  10.733   6.418  0.0827 -0.3314 -0.0564
19851CNN    PA230181  15.531  10.966   6.533  0.0951 -0.1923  0.0008
19851CNN    PA330182  15.515  11.139   6.349  0.3454 -0.3187 -0.2313
19851CNN    PA430183  15.584  11.255   6.566 -0.0742  0.5414  0.2714
19852CNN    PA130184   7.253  13.259   7.416  0.3057 -0.0485  0.1147
19852CNN    PA230185   7.354  13.350   7.224  0.0266  0.7017  0.0009
19852CNN    PA330186   7.533  13.300   7.247 -0.3341 -0.2967  0.4069
19852CNN    PA430187   7.530  13.327   6.994  0.2405 -0.2613  0.4460
19853CNN    PA130188   8.536   8.274   8.862 -0.0517 -0.1615  0.1256
19853CNN    PA230189   8.669   8.303   9.048 -0.8196  0.5267 -0.2577
19853CNN    PA330190   8.818   8.139   9.031 -0.1216  0.2209 -0.3939
19853CNN    PA430191   8.846   8.227   9.266 -0.2413 -0.0807 -0.1231
19854CNN    PA130192   7.007  13.298   9.883 -0.3168 -0.0335 -0.2121
19854CNN    PA230193   7.005  13.233   9.648  0.2761  0.3317  0.1492
19854CNN    PA330194   7.173  13.347   9.565 -0.1299 -0.0083 -0.1721
19854CNN    PA430195   7.114  13.205   9.394  0.3211 -0.0875  0.1955
19855CNN    PA130196   7.100  10.694   7.016 -0.1380 -0.1399 -0.1428
19855CNN    PA230197   6.989  10.743   7.209 -0.2548  0.5479 -0.2042
19855CNN    PA330198   6.911  10.547   7.263 -0.0511  0.1836  0.1135
19855CNN    PA430199   6.805  10.699   7.407  0.1291 -0.3242  0.1475
19856OST    PA130200  15.458  13.923   8.486  0.2963  0.0795 -0.0316
19856OST    PA230201  15.204  13.821   8.281 -0.1546 -0.0602  0.1869
19856OST    PA330202  15.419  13.639   8.184 -0.2933  0.0397 -0.1445
19856OST    PA430203  15.071  13.730   8.205 -0.3307 -0.0711 -0.1033
19856OST    PA530204  14.888  13.970   8.240 -0.1798 -0.0846 -0.1666
19856OST    PA630205  15.054  14.115   8.380  0.1126 -0.0093 -0.0265
19857OST    PA130206   0.222   1.088  10.255  0.0456  0.0259 -0.0050
19857OST    PA230207   0.201   1.002  10.605 -0.2584  0.1539  0.1524
19857OST    PA330208   0.272   1.295  10.599  0.0734  0.1406 -0.1362
19857OST    PA430209   0.367   0.962  10.746 -0.2370 -0.0089  0.0867
19857OST    PA530210   0.489   0.682  10.655  0.2363  0.2505  0.0428
19857OST    PA630211   0.303   0.683  10.482 -0.1388  0.0056 -0.0123
19858OST    PA130212  10.243   2.880   9.812  0.2391 -0.0732 -0.0696
19858OST    PA230213   9.942   2.738   9.921  0.2679  0.0925  0.0959
19858OST    PA330214  10.103   2.530  10.029  0.4600 -0.0868  0.3508
19858OST    PA430215   9.840   2.766  10.090  0.1045  0.1329  0.1688
19858OST    PA530216   9.795   3.078  10.109  0.3979  0.1170 -0.6961
19858OST    PA630217   9.855   3.091   9.899  0.1165 -0.0366 -0.3033
19859OST    PA130218  15.816  11.049   2.346  0.0817 -0.0359  0.2153
19859OST    PA230219  15.978  10.745   2.196 -0.0095  0.3643 -0.0041
19859OST    PA330220  15.841  10.608   2.417  0.3904 -0.1657  0.2037
19859OST    PA430221  15.982  10.566   2.084 -0.0824  0.4881  0.3337
19859OST    PA530222  16.239  10.685   1.898  0.0553  0.3207 -0.2915
19859OST    PA630223  16.235  10.893   2.018 -0.5726  0.2080  0.1562
19860OST    PA130224  12.849   7.974   0.606 -0.0731  0.5132  0.4636
19860OST    PA230225  12.545   8.029   0.484  0.0893 -0.0397  0.1464
19860OST    PA330226  12.434   8.009   0.772  0.0489 -0.1975  0.4718
19860OST    PA430227  12.398   8.153   0.427 -0.0724  0.0489  0.1461
19860OST    PA530228  12.410   8.039   0.135  0.1156  0.1496 -0.6310
19860OST    PA630229  12.605   7.877   0.186  0.1217 -0.0273  0.1202
19861OST    PA130230   9.663   3.597  11.438 -0.1055  0.1861 -0.0849
19861OST    PA230231   9.704   3.583  11.073 -0.3127  0.1755  0.0243
19861OST    PA330232   9.419   3.706  11.071 -0.2831 -0.0818  0.0906
19861OST    PA430233   9.649   3.431  10.926 -0.4233  0.0650  0.1833
19861OST    PA530234   9.886   3.226  10.944  0.5211  0.1299 -0.0739
19861OST    PA630235   9.961   3.319  11.141  0.3175 -0.2380  0.0926
19862OST    PA130236  14.296   9.207   1.918  0.2422 -0.1640  0.0939
19862OST    PA230237  14.122   8.935   1.804  0.1590  0.5691 -0.1062
19862OST    PA330238  14.295   8.702   1.766  0.0783 -0.4373 -0.3864
19862OST    PA430239  14.022   8.896   1.651 -0.0914  0.4472 -0.1269
19862OST    PA530240  13.765   9.078   1.655  0.0103 -0.0775  0.1171
19862OST    PA630241  13.844   9.186   1.881 -0.0364  0.0322  0.0910
19863OST    PA130242   8.031   6.124   2.141 -0.0729 -0.1270  0.2781
19863OST    PA230243   8.040   5.808   2.327 -0.2005  0.0296  0.5277
19863OST    PA330244   8.268   5.925   2.414 -0.1070 -0.2859  0.0003
19863OST    PA430245   7.961   5.750   2.510  0.0991  0.0628  0.1757
19863OST    PA530246   7.756   5.575   2.347 -0.0532 -0.2048  0.1010
19863OST    PA630247   7.820   5.639   2.121 -0.1353 -0.1445 -0.0964
19864OST    PA130248  11.645   0.219  11.037 -0.1675 -0.1202 -0.3650
19864OST    PA230249  11.933   0.219  11.285 -0.0083 -0.2932 -0.0420
19864OST    PA330250  12.136   0.352  11.131  0.0131  0.2618 -0.0626
19864OST    PA430251  12.045   0.062  11.374  0.2404  0.0859  0.7342
19864OST    PA530252  11.884   0.052  11.630 -0.1920 -0.2183  0.0423
19864OST    PA630253  11.766   0.248  11.583  0.0219 -0.0745  0.2053
19865OST    PA130254   4.768   3.919   8.455 -0.1420 -0.1254 -0.2408
19865OST    PA230255   4.861   3.743   8.153  0.0506  0.0809  0.2687
19865OST    PA330256   5.010   3.993   8.106 -0.1223 -0.2755  0.0819
19865OST    PA430257   4.855   3.683   7.969 -0.1661  0.1815  0.3099
19865OST    PA530258   4.616   3.493   8.073  0.1196 -0.0108 -0.2056
19865OST    PA630259   4.653   3.505   8.330 -0.0247 -0.0988  0.1995
19866OST    PA130260   2.494  14.401   2.436  0.1184  0.1675 -0.1764
19866OST    PA230261   2.487  14.688   2.618 -0.2522 -0.1106  0.2188
19866OST    PA330262   2.396  14.829   2.356  0.1535 -0.1204  0.2239
19866OST    PA430263   2.378  14.807   2.749 -0.0592  0.2001  0.2423
19866OST    PA530264   2.456  14.596   2.986  0.5961  0.2293  0.0857
19866OST    PA630265   2.557  14.440   2.895 -0.1223 -0.3339  0.1445
19867OST    PA130266   0.587  11.080  12.520  0.1508 -0.0942 -0.1728
19867OST    PA230267   0.790  11.210  12.251 -0.1611 -0.1066  0.1557
19867OST    PA330268   0.986  11.017  12.167  0.1880  0.1593  0.0430
19867OST    PA430269   0.888  11.370  12.149  0.0340  0.4820  0.0241
19867OST    PA530270   0.594  11.497  12.059  0.0549 -0.0389 -0.3854
19867OST    PA630271   0.472  11.302  12.124  0.2824 -0.1503 -0.2746
19868OST    PA130272  10.983  15.684   3.195 -0.0844  0.0638 -0.2159
19868OST    PA230273  11.142  15.956   3.070 -0.1864 -0.3692 -0.0178
19868OST    PA330274  10.914  16.108   3.177  0.1192  0.5240  0.2513
19868OST    PA430275  11.283  16.104   3.108  0.2588 -0.0261 -0.2125
19868OST    PA530276  11.485  15.939   2.970  0.0926  0.1215  0.1524
19868OST    PA630277  11.377  15.722   2.933  0.0390 -0.1790  0.1844
19869OST    PA130278   9.897  12.322   0.942  0.0406  0.0546  0.0285
19869OST    PA230279   9.754  12.642   0.982 -0.0413 -0.0481 -0.1030
19869OST    PA330280   9.854  12.816   0.773 -0.1061 -0.1186 -0.2803
19869OST    PA430281   9.713  12.793   1.116  0.1900 -0.2173  0.0939
19869OST    PA530282   9.445  12.686   1.252  0.0405 -0.1964  0.2140
19869OST    PA630283   9.418  12.510   1.069  0.1429  0.0225  0.0994
19870OST    PA130284  14.765  15.720   0.014  0.0158  0.2206 -0.2663
19870OST    PA230285  15.079  15.687  -0.141  0.1144  0.1957  0.0755
19870OST    PA330286  14.913  15.564  -0.356 -0.2217  0.2969 -0.1469
19870OST    PA430287  15.209  15.523  -0.115 -0.2534  0.1627 -0.4694
19870OST    PA530288  15.408  15.673   0.118  0.0068 -0.0860  0.0373
19870OST    PA630289  15.318  15.880   0.052 -0.0431  0.1478  0.0907
19871OST    PA130290  14.631   2.348   0.592  0.0229 -0.1531  0.2958
19871OST    PA230291  14.438   2.204   0.810 -0.0533 -0.0060  0.0077
19871OST    PA330292  14.202   2.275   0.684  0.4117 -0.1763  0.3015
19871OST    PA430293  14.358   2.066   0.924 -0.0504  0.0648  0.1583
19871OST    PA530294  14.627   1.996   1.094 -0.2750  0.1931  0.1502
19871OST    PA630295  14.754   2.166   0.970  0.2098  0.1504 -0.0418
19872OST    PA130296   3.422  11.456   2.731 -0.0026 -0.2460 -0.3410
19872OST    PA230297   3.654  11.616   2.928 -0.0015 -0.0639 -0.0953
19872OST    PA330298   3.436  11.621   3.115  0.3085  0.2905 -0.1712
19872OST    PA430299   3.798  11.545   3.053 -0.1732  0.0197  0.0368
19872OST    PA530300   4.017  11.570   2.860  0.0842 -0.4711  0.3490
19872OST    PA630301   3.860  11.619   2.658 -0.1617  0.0780 -0.0130
19873OST    PA130302   5.104   9.200   3.173  0.3637  0.3536 -0.0307
19873OST    PA230303   5.396   9.008   3.177 -0.3776 -0.2169  0.1126
19873OST    PA330304   5.264   8.773   3.224  0.1927  0.0665 -0.3658
19873OST    PA430305   5.512   9.012   3.294  0.1210  0.0334 -0.0635
19873OST    PA530306   5.688   9.250   3.326 -0.2521  0.1170 -0.1958
19873OST    PA630307   5.541   9.365   3.156 -0.0384  0.3053 -0.2657
19874OST    PA130308   3.750   0.070  10.971 -0.0404  0.1559 -0.0972
19874OST    PA230309   3.648   0.329  11.174 -0.1631  0.1259 -0.1977
19874OST    PA330310   3.828   0.168  11.366 -0.2293  0.3894  0.2023
19874OST    PA430311   3.721   0.513  11.218 -0.1459 -0.2245 -0.1177
19874OST    PA530312   3.634   0.749  11.034 -0.3609 -0.1393 -0.1177
19874OST    PA630313   3.525   0.559  10.904  0.4080 -0.2732  0.0200
19875OST    PA130314   7.903  15.603  12.541  0.1256  0.0672 -0.0034
19875OST    PA230315   7.808  15.709  12.225  0.1704  0.0742 -0.2967
19875OST    PA330316   7.873  15.442  12.103  0.2699  0.0537  0.0940
19875OST    PA430317   7.664  15.731  12.144  0.2548 -0.1568 -0.1105
19875OST    PA530318   7.556  15.970  12.287  0.4430  0.3456  0.1175
19875OST    PA630319   7.731  16.012  12.433 -0.3703 -0.0006 -0.0214
19876OST    PA130320   1.306  11.852  12.045 -0.1774  0.0536  0.0089
19876OST    PA230321   0.976  11.884  12.152 -0.0920 -0.1390  0.2479
19876OST    PA330322   1.107  11.778  12.407 -0.0404  0.1029  0.0416
19876OST    PA430323   0.780  11.874  12.190  0.2401 -0.1080  0.0078
19876OST    PA530324   0.705  12.067  11.963  0.1371 -0.2414  0.1042
19876OST    PA630325   0.949  12.102  11.903  0.3705  0.2407 -0.1327
19877OST    PA130326  14.019  14.256  11.704  0.2674 -0.1751 -0.1415
19877OST    PA230327  14.089  13.979  11.491  0.0417 -0.0100  0.0634
19877OST    PA330328  14.111  14.134  11.251 -0.0977  0.0240  0.3003
19877OST    PA430329  13.992  13.843  11.401 -0.0318 -0.0827 -0.0279
19877OST    PA530330  13.957  13.623  11.634  0.0034 -0.3780 -0.0337
19877OST    PA630331  14.000  13.809  11.809  0.0158  0.0864 -0.0704
19878OST    PA130332   8.592   4.907  13.224  0.1213  0.1070  0.0180
19878OST    PA230333   8.889   4.789  13.062  0.5019 -0.0632 -0.2162
19878OST    PA330334   8.867   4.861  12.776  0.2487  0.2782  0.2627
19878OST    PA430335   9.078   4.828  13.084 -0.0143 -0.0634 -0.2830
19878OST    PA530336   9.162   4.517  13.212 -0.1635  0.1870 -0.1876
19878OST    PA630337   8.908   4.481  13.243  0.2829 -0.1544  0.1665
19879OST    PA130338  11.806   3.722   2.556  0.2837  0.0235  0.3064
19879OST    PA230339  11.564   3.739   2.264  0.0470  0.2079 -0.3779
19879OST    PA330340  11.761   3.535   2.122 -0.0674 -0.3236 -0.2275
19879OST    PA430341  11.399   3.668   2.169 -0.4791  0.2505  0.1715
19879OST    PA530342  11.161   3.557   2.350  0.4729  0.4450 -0.1546
19879OST    PA630343  11.278   3.677   2.531 -0.0262 -0.2612  0.1651
19880OST    PA130344   9.662   7.024   2.057 -0.1003  0.2105  0.3883
19880OST    PA230345   9.759   6.706   1.958 -0.2068  0.0083 -0.0971
19880OST    PA330346   9.968   6.717   2.179  0.1215 -0.1147 -0.2312
19880OST    PA430347   9.871   6.594   1.839  0.3145 -0.0261  0.2978
19880OST    PA530348   9.649   6.492   1.611  0.3489 -0.1138 -0.4255
19880OST    PA630349   9.470   6.621   1.754  0.0465 -0.3367  0.0415
19881OST    PA130350   8.791   9.235   4.944 -0.1187 -0.2142 -0.3274
19881OST    PA230351   8.838   8.961   4.734  0.2665 -0.2453  0.1515
19881OST    PA330352   8.583   9.020   4.611 -0.1637 -0.2415 -0.1403
19881OST    PA430353   8.877   8.789   4.624 -0.1483  0.1212 -0.3582
19881OST    PA530354   9.170   8.758   4.788 -0.2353 -0.1489  0.0213
19881OST    PA630355   9.169   8.960   4.911  0.1642  0.1905  0.0509
19882OST    PA130356   0.912  12.783   0.696  0.0754  0.0454  0.2472
19882OST    PA230357   0.747  13.021   0.896 -0.1178 -0.1733  0.1557
19882OST    PA330358   0.861  12.968   1.155  0.1640  0.0505 -0.3319
19882OST    PA430359   0.577  13.105   0.949 -0.1841  0.0249 -0.4039
19882OST    PA530360   0.492  13.230   0.651 -0.1181 -0.1152 -0.1635
19882OST    PA630361   0.678  13.144   0.549 -0.2396  0.1709 -0.1264
19883OST    PA130362   4.409   2.994   0.851 -0.1234  0.0305 -0.0241
19883OST    PA230363   4.369   3.312   0.729 -0.0215  0.0943 -0.4962
19883OST    PA330364   4.587   3.370   0.887  0.0471 -0.0595  0.3395
19883OST    PA430365   4.439   3.380   0.581 -0.2116 -0.0818  0.1419
19883OST    PA530366   4.201   3.294   0.393 -0.1514 -0.2955  0.3093
19883OST    PA630367   4.072   3.190   0.564  0.0664 -0.4594 -0.0095
19884OST    PA130368  15.778  13.940  12.932  0.0781 -0.0770 -0.1624
19884OST    PA230369  15.771  13.784  13.223 -0.4361  0.1490 -0.3080
19884OST    PA330370  15.743  13.541  13.022 -0.1729 -0.1667 -0.0206
19884OST    PA430371  15.743  13.680  13.372 -0.2721 -0.1923 -0.1880
19884OST    PA530372  15.557  13.871  13.518  0.0011 -0.0174  0.1275
19884OST    PA630373  15.583  14.042  13.365  0.0606 -0.0859 -0.1447
19885OST    PA130374  11.953   8.110   0.344  0.0761 -0.0620 -0.3967
19885OST    PA230375  12.066   8.382   0.156 -0.1655  0.1171 -0.0427
19885OST    PA330376  12.079   8.546   0.394 -0.0326 -0.4383 -0.2159
19885OST    PA430377  12.095   8.516   0.031  0.2640  0.2801  0.0421
19885OST    PA530378  12.120   8.312  -0.218 -0.4888  0.1443  0.3824
19885OST    PA630379  12.126   8.086  -0.076  0.2112  0.2610  0.1541
19886OST    PA130380   8.759  14.118   2.022 -0.5174  0.1286  0.1478
19886OST    PA230381   9.016  13.950   1.814  0.0395 -0.3360 -0.3938
19886OST    PA330382   8.911  13.701   1.783  0.2320  0.3692 -0.3130
19886OST    PA430383   9.170  13.921   1.683  0.4902  0.1994 -0.2005
19886OST    PA530384   9.307  14.181   1.730  0.0347 -0.7920  0.1984
19886OST    PA630385   9.113  14.309   1.783 -0.0377 -0.0557 -0.1714
19887OST    PA130386  14.847  12.747   0.773 -0.1674 -0.0755 -0.1310
19887OST    PA230387  14.886  12.726   0.426  0.1180  0.1056  0.1121
19887OST    PA330388  14.905  13.008   0.481 -0.3946  0.1536  0.5098
19887OST    PA430389  15.018  12.716   0.277 -0.0017 -0.2934  0.1057
19887OST    PA530390  14.971  12.396   0.248 -0.0115 -0.2483 -0.5023
19887OST    PA630391  14.842  12.408   0.443  0.0432  0.1843 -0.0409
19888OST    PA130392   1.216   2.373  11.736  0.1316  0.3002  0.0374
19888OST    PA230393   1.509   2.173  11.719  0.2033  0.3548 -0.1833
19888OST    PA330394   1.732   2.377  11.728  0.3591  0.4106 -0.1379
19888OST    PA430395   1.620   2.025  11.744 -0.0224 -0.2964  0.4294
19888OST    PA530396   1.445   1.753  11.667 -0.1094  0.4171 -0.0037
19888OST    PA630397   1.269   1.887  11.649  0.4862 -0.2693 -0.1958
19889OST    PA130398   3.905   6.711  10.651  0.0504 -0.1637 -0.1140
19889OST    PA230399   3.571   6.576  10.644  0.0294 -0.0727 -0.0729
19889OST    PA330400   3.484   6.698  10.897  0.0858 -0.0713  0.4236
19889OST    PA430401   3.412   6.632  10.542  0.4840  0.0061  0.4788
19889OST    PA530402   3.503   6.488  10.304  0.1645 -0.1738  0.2865
19889OST    PA630403   3.697   6.384  10.373 -0.2176  0.0627  0.3192
19890OST    PA130404  10.742  13.259   8.022 -0.0648 -0.0815  0.2994
19890OST    PA230405  10.882  13.367   8.326  0.2697 -0.2197 -0.0575
19890OST    PA330406  10.628  13.517   8.354 -0.1875 -0.6165  0.3012
19890OST    PA430407  11.003  13.529   8.399 -0.2848  0.3207 -0.2624
19890OST    PA530408  11.238  13.292   8.444 -0.1488 -0.3556 -0.1456
19890OST    PA630409  11.140  13.125   8.351 -0.1078 -0.1270 -0.0723
19891OST    PA130410   2.983   1.601   8.747  0.0940  0.0832 -0.2226
19891OST    PA230411   2.896   1.374   8.509  0.5812 -0.0754  0.2560
19891OST    PA330412   2.964   1.521   8.286 -0.1099 -0.5876 -0.0835
19891OST    PA430413   2.915   1.204   8.412 -0.1041 -0.1292  0.1507
19891OST    PA530414   2.656   1.094   8.536  0.0945  0.3181 -0.3345
19891OST    PA630415   2.603   1.294   8.670 -0.3701 -0.4920 -0.1374
19892OST    PA130416  11.365   2.400   1.872  0.0731 -0.2077 -0.1674
19892OST    PA230417  11.303   2.057   1.943  0.4682  0.1925 -0.4005
19892OST    PA330418  11.079   2.119   1.751  0.0353  0.2711  0.3766
19892OST    PA430419  11.208   1.901   2.032 -0.3403  0.1508  0.1616
19892OST    PA530420  11.532   1.817   2.141 -0.1373 -0.0447 -0.2170
19892OST    PA630421  11.614   2.050   2.114  0.2168  0.2039 -0.1640
19893OST    PA130422   3.771   8.281  13.459 -0.1468  0.2690 -0.0787
19893OST    PA230423   3.782   8.066  13.163  0.1527  0.0795 -0.3589
19893OST    PA330424   3.467   8.111  13.163  0.4732  0.1035  0.0013
19893OST    PA430425   3.802   8.084  12.980  0.1550 -0.0594 -0.0877
19893OST    PA530426   4.138   8.129  12.975 -0.2093  0.2370  0.3505
19893OST    PA630427   4.124   8.120  13.206  0.1630 -0.1972 -0.4254
19894OST    PA130428   8.926   7.597   9.284 -0.0396 -0.3189 -0.1084
19894OST    PA230429   8.757   7.346   9.082 -0.2970  0.2559 -0.3549
19894OST    PA330430   8.956   7.148   9.103 -0.1627  0.1657 -0.0406
19894OST    PA430431   8.667   7.303   8.886  0.1408  0.1703  0.0104
19894OST    PA530432   8.409   7.432   9.013  0.1407 -0.1906  0.1154
19894OST    PA630433   8.469   7.477   9.228 -0.1959 -0.0548  0.2576
19895OST    PA130434  12.209  14.279   9.423  0.1576 -0.2734 -0.2176
19895OST    PA230435  12.028  14.139   9.139 -0.1188  0.0450 -0.0434
19895OST    PA330436  12.194  13.958   8.954 -0.5530 -0.0325  0.0378
19895OST    PA430437  11.856  14.033   9.107  0.1079 -0.1021  0.3023
19895OST    PA530438  11.643  14.265   9.157 -0.0278  0.4870 -0.3951
19895OST    PA630439  11.793  14.406   9.211  0.1631  0.0425 -0.0568
19896OST    PA130440  15.770   3.041   4.119 -0.1568  0.0349 -0.3910
19896OST    PA230441  15.686   3.065   3.778  0.1581 -0.1393  0.4930
19896OST    PA330442  15.538   2.828   3.841  0.1547 -0.2003  0.3893
19896OST    PA430443  15.547   3.120   3.609 -0.0307  0.0487 -0.0197
19896OST    PA530444  15.609   3.428   3.557  0.1771 -0.2474 -0.2434
19896OST    PA630445  15.773   3.395   3.732  0.0373  0.3111  0.0298
19897OST    PA130446   0.681   6.680   3.451 -0.0703 -0.0237 -0.2485
19897OST    PA230447   0.539   6.612   3.761 -0.1013 -0.0125  0.0118
19897OST    PA330448   0.817   6.699   3.866 -0.0083 -0.3523  0.1963
19897OST    PA430449   0.447   6.617   3.945  0.2179  0.4337 -0.2876
19897OST    PA530450   0.131   6.547   3.819 -0.2593  0.0954  0.1369
19897OST    PA630451   0.223   6.549   3.594 -0.0157 -0.0288  0.1610
19898OST    PA130452   9.396   9.363   4.628  0.1932 -0.0826  0.2071
19898OST    PA230453   9.404   9.268   4.283 -0.1067 -0.1746 -0.3739
19898OST    PA330454   9.598   9.479   4.232 -0.0171 -0.3861 -0.4186
19898OST    PA430455   9.438   9.165   4.133 -0.4483  0.4128 -0.1100
19898OST    PA530456   9.432   8.877   4.281  0.3534 -0.1293  0.4123
19898OST    PA630457   9.322   8.958   4.455  0.2383  0.3750  0.1500
19899OST    PA130458  12.407   8.020   5.141 -0.1719 -0.1990 -0.1896
19899OST    PA230459  12.344   8.233   4.854  0.4040  0.2013 -0.1485
19899OST    PA330460  12.084   8.115   4.762 -0.3187 -0.2247  0.3590
19899OST    PA430461  12.383   8.307   4.663 -0.1060  0.1308  0.1618
19899OST    PA530462  12.599   8.515   4.735 -0.3447 -0.0978 -0.0217
19899OST    PA630463  12.597   8.460   4.954  0.1640 -0.2413  0.0107
19900OST    PA130464   5.555   3.589  10.585  0.0930 -0.1277 -0.2290
19900OST    PA230465   5.346   3.436  10.361 -0.0884  0.1703  0.1846
19900OST    PA330466   5.388   3.171  10.486 -0.1034  0.5762 -0.3422
19900OST    PA430467   5.286   3.356  10.180  0.4433 -0.4319 -0.0224
19900OST    PA530468   5.126   3.627  10.093 -0.4064  0.2115 -0.2133
19900OST    PA630469   5.166   3.735  10.294  0.3584  0.6700 -0.1364
19901OST    PA130470   9.624   8.239   9.466  0.0415  0.3224 -0.0734
19901OST    PA230471   9.808   7.978   9.334 -0.1172  0.0283  0.0648
19901OST    PA330472   9.661   7.976   9.046 -0.0376 -0.3225 -0.1807
19901OST    PA430473   9.826   7.771   9.349 -0.1082 -0.0198  0.3583
19901OST    PA530474  10.022   7.776   9.615 -0.2252  0.4382  0.0967
19901OST    PA630475  10.014   8.031   9.625  0.2297 -0.1923 -0.3615
19902OST    PA130476  15.009   1.353  13.211  0.0939  0.1479 -0.0815
19902OST    PA230477  14.984   1.176  12.891  0.4348  0.1697  0.1685
19902OST    PA330478  15.222   1.118  12.734  0.1011  0.4839  0.0548
19902OST    PA430479  14.890   0.997  12.842 -0.0069  0.0888 -0.3187
19902OST    PA530480  14.599   1.064  12.876  0.3471  0.2392 -0.3050
19902OST    PA630481  14.621   1.284  12.885  0.0718  0.4099  0.0394
19903OST    PA130482  11.495   5.983  11.083 -0.1960 -0.0563  0.1216
19903OST    PA230483  11.456   5.815  11.401 -0.0948 -0.2139 -0.0859
19903OST    PA330484  11.601   5.572  11.363  0.1977  0.4591 -0.1353
19903OST    PA430485  11.287   5.716  11.471 -0.5142  0.0704  0.0220
19903OST    PA530486  11.215   6.009  11.553  0.1179  0.2615  0.0449
19903OST    PA630487  11.406   6.122  11.549  0.0691  0.4208  0.0178
19904OST    PA130488   8.963   4.632  10.127  0.0030  0.1170 -0.0854
19904OST    PA230489   8.629   4.513  10.097  0.0598 -0.0236 -0.0729
19904OST    PA330490   8.634   4.246  10.191  0.2350 -0.2072  0.5977
19904OST    PA430491   8.441   4.507  10.013  0.1260 -0.0152 -0.0680
19904OST    PA530492   8.343   4.773  10.036 -0.2335 -0.1309 -0.1799
19904OST    PA630493   8.535   4.859  10.132  0.3292 -0.0384 -0.1545
19905OST    PA130494   8.365   3.619  12.728 -0.0916 -0.4144 -0.0473
19905OST    PA230495   8.099   3.461  12.548 -0.0845  0.3463  0.2449
19905OST    PA330496   8.124   3.642  12.335  0.0482 -0.3400 -0.2132
19905OST    PA430497   7.963   3.344  12.456  0.4024 -0.0391  0.0640
19905OST    PA530498   7.983   3.071  12.628 -0.2936 -0.2212  0.4388
19905OST    PA630499   8.195   3.157  12.705  0.2491 -0.0810 -0.1005
19906OST    PA130500   3.177   4.018   2.152  0.1032  0.0633 -0.0373
19906OST    PA230501   3.231   4.281   2.401  0.1437  0.2306 -0.3491
19906OST    PA330502   3.254   4.435   2.173  0.0454 -0.2309  0.0458
19906OST    PA430503   3.347   4.385   2.503  0.3305  0.2516 -0.3768
19906OST    PA530504   3.190   4.257   2.777  0.2216 -0.4091 -0.0226
19906OST    PA630505   3.091   4.107   2.657  0.5818  0.1870  0.3556
19907OST    PA130506  14.833  11.461   8.670 -0.1961  0.0344 -0.0115
19907OST    PA230507  14.929  11.594   8.349  0.2858 -0.1383  0.2805
19907OST    PA330508  14.653  11.652   8.278 -0.2304  0.5031 -0.0975
19907OST    PA430509  15.008  11.699   8.192 -0.2927  0.1282  0.0681
19907OST    PA530510  15.275  11.770   8.303 -0.5503 -0.0953  0.3606
19907OST    PA630511  15.215  11.663   8.527 -0.3764 -0.2642 -0.2528
19908OST    PA130512  12.846   8.046   4.863 -0.0180  0.1790 -0.2511
19908OST    PA230513  12.979   8.217   4.582 -0.0158 -0.0253  0.0073
19908OST    PA330514  13.188   8.327   4.735  0.0714 -0.3788 -0.1879
19908OST    PA430515  13.081   8.201   4.418 -0.3136  0.0159  0.0843
19908OST    PA530516  12.832   8.215   4.245  0.2849 -0.1400 -0.2199
19908OST    PA630517  12.680   8.219   4.390 -0.1993  0.1738 -0.1861
19909OST    PA130518  13.375   9.159   1.045 -0.1376 -0.2790  0.4590
19909OST    PA230519  13.193   9.479   1.025 -0.0735 -0.1176 -0.2910
19909OST    PA330520  13.397   9.679   0.962 -0.0829 -0.0218  0.5334
19909OST    PA430521  13.032   9.607   0.981 -0.0652 -0.4043 -0.0837
19909OST    PA530522  12.777   9.433   1.152 -0.0733 -0.3637  0.1605
19909OST    PA630523  12.922   9.288   1.197 -0.2317 -0.2774 -0.1529
19910OST    PA130524  10.294   6.473   1.963  0.1650  0.0191 -0.3038
19910OST    PA230525  10.339   6.627   1.647  0.1949  0.3827  0.2041
19910OST    PA330526  10.436   6.828   1.824 -0.5206  0.0299 -0.3854
19910OST    PA430527  10.259   6.740   1.508 -0.0560 -0.0524 -0.0346
19910OST    PA530528  10.028   6.584   1.377  0.1589  0.1501  0.1473
19910OST    PA630529  10.105   6.385   1.542  0.1833 -0.3199  0.0812
19911OST    PA130530   2.257  13.686   4.423 -0.0220 -0.3478  0.0635
19911OST    PA230531   2.288  13.333   4.371 -0.1633  0.0926 -0.2114
19911OST    PA330532   2.566  13.305   4.488  0.1518 -0.0717 -0.1444
19911OST    PA430533   2.217  13.147   4.408 -0.0796  0.2951 -0.1098
19911OST    PA530534   1.926  13.187   4.239 -0.2277  0.0110 -0.2818
19911OST    PA630535   2.031  13.355   4.131 -0.0764 -0.0787 -0.2229
19912OST    PA130536   9.284  14.224   1.301 -0.3555  0.0980 -0.0221
19912OST    PA230537   8.964  14.073   1.328 -0.0213 -0.1710 -0.3198
19912OST    PA330538   9.087  13.804   1.260  0.2709 -0.1132  0.0083
19912OST    PA430539   8.823  13.983   1.445  0.3105  0.0701  0.2098
19912OST    PA530540   8.698  14.232   1.606 -0.0203  0.0995  0.2613
19912OST    PA630541   8.850  14.379   1.448  0.1283 -0.2076 -0.1772
19913OST    PA130542   7.135   2.497   2.638 -0.1311  0.1550  0.0844
19913OST    PA230543   6.974   2.378   2.305  0.0423 -0.1740 -0.0413
19913OST    PA330544   6.936   2.136   2.474  0.0689  0.3064  0.0871
19913OST    PA430545   6.909   2.302   2.119  0.0640 -0.1016 -0.3098
19913OST    PA530546   7.000   2.557   1.957 -0.3100  0.0735  0.0061
19913OST    PA630547   7.033   2.713   2.164 -0.0738 -0.0680 -0.3194
19914OST    PA130548   2.881  15.704   7.826 -0.3439 -0.1069  0.2510
19914OST    PA230549   2.873  15.987   7.588 -0.1671  0.2841  0.0589
19914OST    PA330550   3.181  15.917   7.587 -0.3043 -0.1883 -0.1152
19914OST    PA430551   2.919  16.165   7.537 -0.0091  0.1138  0.3027
19914OST    PA530552   2.668  16.276   7.680  0.1692 -0.6130  0.3850
19914OST    PA630553   2.563  16.075   7.752 -0.3336  0.0938  0.0873
19915OST    PA130554  12.476   0.687  11.018  0.0515  0.1061  0.0671
19915OST    PA230555  12.707   0.909  11.119  0.0358 -0.0414 -0.2986
19915OST    PA330556  12.826   0.688  11.221 -0.1574  0.1449 -0.0228
19915OST    PA430557  12.768   1.044  11.271  0.1600  0.1024  0.1178
19915OST    PA530558  12.545   1.261  11.213 -0.1995  0.0220  0.0835
19915OST    PA630559  12.498   1.151  11.012  0.2253  0.0520  0.4030
19916OST    PA130560  14.413   6.885   4.334  0.2226  0.0477  0.3659
19916OST    PA230561  14.728   6.900   4.228 -0.4022  0.0389 -0.1404
19916OST    PA330562  14.817   7.151   4.155 -0.4625 -0.2126  0.2369
19916OST    PA430563  14.901   6.813   4.283 -0.1118 -0.1104  0.0441
19916OST    PA530564  14.868   6.510   4.247 -0.1398 -0.1740  0.3359
19916OST    PA630565  14.650   6.548   4.125  0.3071  0.1151 -0.3123
19917OST    PA130566  13.887  13.805  13.160  0.0088  0.3816  0.1323
19917OST    PA230567  13.546  13.835  13.189  0.3452 -0.3465 -0.1358
19917OST    PA330568  13.518  13.564  13.093  0.1229 -0.2429 -0.4941
19917OST    PA430569  13.384  13.849  13.298 -0.0396 -0.0476  0.3167
19917OST    PA530570  13.281  14.091  13.129  0.1215 -0.3137  0.0279
19917OST    PA630571  13.510  14.185  13.083  0.1304 -0.3755  0.0838
19918OST    PA130572   9.896   0.442  11.029  0.0786 -0.1014 -0.1278
19918OST    PA230573  10.201   0.300  11.114 -0.1220  0.1469 -0.0668
19918OST    PA330574  10.090   0.373  11.378  0.5459 -0.0483 -0.1762
19918OST    PA430575  10.316   0.182  11.185 -0.0236 -0.2745  0.4939
19918OST    PA530576  10.290  -0.063  10.972  0.3042 -0.0542  0.0435
19918OST    PA630577  10.099   0.055  10.870 -0.0664 -0.1471 -0.2108
19919OST    PA130578   6.191  12.690   1.025  0.0330  0.1507  0.0241
19919OST    PA230579   6.216  12.435   1.286  0.2381  0.0907  0.0891
19919OST    PA330580   6.235  12.183   1.119 -0.4859  0.4707 -0.2393
19919OST    PA430581   6.157  12.335   1.435  0.3457  0.1248  0.0277
19919OST    PA530582   6.293  12.563   1.640  0.3887 -0.2306  0.1447
19919OST    PA630583   6.385  12.677   1.415 -0.3637  0.2214 -0.0360
19920OST    PA130584   7.348   0.568  10.957 -0.3678 -0.1596  0.0910
19920OST    PA230585   7.602   0.629  10.686  0.4669  0.7839  0.1989
19920OST    PA330586   7.755   0.817  10.835  0.0379 -0.3252 -0.3081
19920OST    PA430587   7.752   0.573  10.555 -0.1373 -0.1309  0.3366
19920OST    PA530588   7.536   0.378  10.393 -0.3570  0.2702  0.0729
19920OST    PA630589   7.405   0.348  10.568  0.2656  0.6179  0.1429
19921OST    PA130590   7.854   5.986  10.078 -0.2456  0.0387  0.0122
19921OST    PA230591   7.773   5.681   9.942  0.0843  0.0531  0.1682
19921OST    PA330592   7.822   5.824   9.684  0.3596 -0.1632 -0.1585
19921OST    PA430593   7.739   5.506   9.843 -0.1545 -0.2456 -0.1466
19921OST    PA530594   7.569   5.359  10.095  0.1051  0.5954  0.0438
19921OST    PA630595   7.610   5.539  10.226 -0.0499 -0.2626 -0.1121
19922OST    PA130596  13.913   8.196   0.266  0.2621 -0.0268 -0.3244
19922OST    PA230597  13.822   8.038   0.604 -0.2403  0.1314  0.4207
19922OST    PA330598  13.575   8.171   0.730  0.2140 -0.0209 -0.3161
19922OST    PA430599  13.800   7.868   0.692 -0.1096  0.0241  0.0893
19922OST    PA530600  14.116   7.838   0.743 -0.0677 -0.1415 -0.2758
19922OST    PA630601  14.170   8.027   0.574 -0.3761  0.0960 -0.1391
19923OST    PA130602  15.281  11.925   8.919 -0.0875  0.1548 -0.2084
19923OST    PA230603  14.964  12.013   9.037 -0.1521 -0.4706 -0.0392
19923OST    PA330604  14.824  11.820   8.914 -0.2944  0.1305 -0.0360
19923OST    PA430605  14.820  12.160   9.018 -0.0358  0.2117 -0.0495
19923OST    PA530606  15.038  12.368   9.155 -0.4454 -0.1869  0.1322
19923OST    PA630607  15.187  12.180   9.262  0.0544 -0.2351  0.3261
19924OST    PA130608  14.768   4.651   2.241 -0.2914 -0.0467  0.0273
19924OST    PA230609  14.520   4.527   2.007  0.1748 -0.3163  0.1431
19924OST    PA330610  14.611   4.746   1.794 -0.1596  0.6517 -0.5957
19924OST    PA430611  14.480   4.388   1.854 -0.1738 -0.4388  0.3095
19924OST    PA530612  14.217   4.303   1.985  0.1280 -0.3659  0.2437
19924OST    PA630613  14.248   4.417   2.214  0.1600  0.4416  0.0812
19925OST    PA130614   0.928  11.957  11.249 -0.0861  0.0162  0.1581
19925OST    PA230615   0.763  11.852  11.543 -0.0185 -0.1512 -0.0548
19925OST    PA330616   0.599  12.089  11.590 -0.0732 -0.0291  0.0509
19925OST    PA430617   0.700  11.748  11.679 -0.0452  0.2105  0.0372
19925OST    PA530618   0.981  11.675  11.809  0.0972  0.2939  0.0417
19925OST    PA630619   1.114  11.791  11.639  0.2168 -0.2574 -0.2132
19926OST    PA130620   3.495   4.777  10.412 -0.0789  0.1300  0.6749
19926OST    PA230621   3.475   4.921  10.107  0.0020 -0.4119 -0.0660
19926OST    PA330622   3.564   4.674   9.992 -0.0346 -0.1024 -0.0232
19926OST    PA430623   3.346   4.959   9.962  0.1052  0.1220 -0.1236
19926OST    PA530624   3.182   5.195  10.076  0.1810 -0.3654 -0.1948
19926OST    PA630625   3.259   5.145  10.304  0.1807  0.0493 -0.0451
19927OST    PA130626   4.152  14.163   3.193 -0.0936  0.0394 -0.0708
19927OST    PA230627   4.037  14.053   2.910 -0.1644  0.1667  0.0398
19927OST    PA330628   3.940  14.324   2.784  0.3648  0.1027  0.4556
19927OST    PA430629   4.009  13.962   2.763  0.1623  0.2397 -0.4560
19927OST    PA530630   3.915  13.665   2.846 -0.0378  0.1256 -0.0022
19927OST    PA630631   3.935  13.728   3.059 -0.1553 -0.0035 -0.3785
19928OST    PA130632   7.243  14.147   0.425  0.1303 -0.1112  0.0537
19928OST    PA230633   6.912  14.290   0.356 -0.0925  0.1290  0.2201
19928OST    PA330634   7.048  14.418   0.125 -0.0553  0.0606  0.4388
19928OST    PA430635   6.792  14.436   0.373 -0.0691  0.0494  0.0171
19928OST    PA530636   6.577  14.285   0.548 -0.2064  0.2584 -0.4253
19928OST    PA630637   6.693  14.061   0.507 -0.0202 -0.2072 -0.1301
19929OST    PA130638   9.969   0.304  12.397  0.3317 -0.2386 -0.3632
19929OST    PA230639   9.716   0.133  12.185 -0.1983 -0.2590  0.2348
19929OST    PA330640   9.575  -0.000  12.410 -0.6564 -0.0492 -0.1868
19929OST    PA430641   9.619   0.060  12.046 -0.0201  0.1548 -0.0428
19929OST    PA530642   9.700   0.242  11.808 -0.0335 -0.0078  0.0625
19929OST    PA630643   9.849   0.375  11.945  0.1203  0.0344  0.1370
19930OST    PA130644   2.983   8.288   9.521  0.1325 -0.1177 -0.0261
19930OST    PA230645   2.649   8.146   9.610  0.1381  0.0975  0.1476
19930OST    PA330646   2.792   7.896   9.659  0.2716  0.7727  0.1575
19930OST    PA430647   2.473   8.097   9.707 -0.0120  0.1102 -0.1652
19930OST    PA530648   2.397   8.394   9.780 -0.4702 -0.2709  0.0720
19930OST    PA630649   2.569   8.498   9.674 -0.0969  0.1186  0.0343
19931OST    PA130650  11.113   7.998  13.406 -0.1874 -0.1123  0.2227
19931OST    PA230651  11.303   8.236  13.214  0.0721 -0.0003  0.0747
19931OST    PA330652  11.557   8.252  13.376  0.2396  0.1936  0.1169
19931OST    PA430653  11.365   8.353  13.069 -0.0509 -0.1402  0.1193
19931OST    PA530654  11.191   8.222  12.851  0.3244 -0.0405 -0.1845
19931OST    PA630655  11.120   8.014  12.984 -0.2952 -0.2924 -0.1821
19932OST    PA130656   5.057   4.278   9.732 -0.1399  0.0278  0.2448
19932OST    PA230657   5.328   4.113   9.887  0.1666  0.1792 -0.0968
19932OST    PA330658   5.158   4.076  10.125 -0.2251 -0.1643  0.1485
19932OST    PA430659   5.492   4.217   9.974 -0.1524  0.0258 -0.0433
19932OST    PA530660   5.623   4.192   9.686 -0.4651  0.0543  0.0104
19932OST    PA630661   5.471   4.067   9.581 -0.0374 -0.0389 -0.2810
19933OST    PA130662  12.910   6.098   2.231 -0.2635  0.1518 -0.3885
19933OST    PA230663  13.118   6.240   2.497 -0.5562  0.4010  0.0640
19933OST    PA330664  13.140   6.455   2.284  0.0140 -0.4656  0.4110
19933OST    PA430665  13.132   6.352   2.650 -0.1743  0.0579  0.1113
19933OST    PA530666  13.048   6.134   2.876 -0.0178 -0.0940 -0.0591
19933OST    PA630667  13.063   5.960   2.698 -0.3017 -0.3564  0.2386
19934OST    PA130668  15.828  13.587   7.796  0.0310 -0.2651  0.0220
19934OST    PA230669  15.514  13.437   7.785 -0.1289 -0.1039 -0.2314
19934OST    PA330670  15.691  13.190   7.862 -0.2413 -0.2529  0.0090
19934OST    PA430671  15.352  13.382   7.897 -0.0952  0.3401 -0.0301
19934OST    PA530672  15.217  13.626   7.826  0.1548  0.3765 -0.1782
19934OST    PA630673  15.365  13.769   7.728 -0.1640  0.0002  0.1271
19935OST    PA130674   9.211   1.039  11.979 -0.3526  0.4921 -0.3295
19935OST    PA230675   9.075   1.282  12.170 -0.2359  0.0113  0.0178
19935OST    PA330676   8.976   1.395  11.964 -0.0251 -0.2009 -0.3503
19935OST    PA430677   8.929   1.311  12.317  0.0662 -0.1684 -0.0026
19935OST    PA530678   9.124   1.242  12.558  0.0604 -0.4999 -0.4463
19935OST    PA630679   9.326   1.198  12.421 -0.0078  0.3692 -0.2230
19936OST    PA130680   7.410   6.191   9.015 -0.1771  0.0804  0.2049
19936OST    PA230681   7.089   6.328   9.123 -0.2305  0.1205  0.0787
19936OST    PA330682   7.005   6.044   9.054 -0.2683 -0.2673  0.1614
19936OST    PA430683   6.975   6.414   9.038  0.0321  0.2293 -0.2566
19936OST    PA530684   7.012   6.670   9.248  0.1530 -0.3584  0.1601
19936OST    PA630685   7.167   6.593   9.356  0.1269 -0.0200 -0.5841
19937OST    PA130686  13.941  15.150   9.838  0.2841  0.1393  0.0195
19937OST    PA230687  13.854  15.108  10.180 -0.1144 -0.0612  0.1141
19937OST    PA330688  13.929  14.835  10.086  0.4818  0.0704  0.3071
19937OST    PA430689  13.902  15.103  10.371  0.0071 -0.4161 -0.0327
19937OST    PA530690  13.834  15.406  10.441 -0.5899 -0.2072 -0.0955
19937OST    PA630691  13.770  15.452  10.193  0.1272 -0.4156 -0.0186
19938OST    PA130692  15.237  13.687   8.977  0.3205  0.1130  0.0399
19938OST    PA230693  15.058  13.746   8.652 -0.0274 -0.0923  0.1925
19938OST    PA330694  14.914  13.950   8.808 -0.1581 -0.2532  0.0684
19938OST    PA430695  14.889  13.650   8.568  0.0695  0.4195 -0.0874
19938OST    PA530696  15.039  13.379   8.517  0.1846 -0.5122 -0.0950
19938OST    PA630697  15.271  13.461   8.589  0.5331  0.2126 -0.1707
19939OST    PA130698   3.166  10.246   2.384 -0.1069 -0.2955 -0.1018
19939OST    PA230699   3.401   9.982   2.267  0.2944  0.2308  0.0810
19939OST    PA330700   3.508  10.254   2.160  0.1442 -0.0981 -0.2860
19939OST    PA430701   3.538   9.887   2.175  0.2949  0.1757 -0.1948
19939OST    PA530702   3.371   9.612   2.270  0.1063 -0.0282 -0.3421
19939OST    PA630703   3.193   9.703   2.392 -0.0739 -0.3068  0.0562
19940OST    PA130704  11.625   0.259  12.421  0.0543  0.2497 -0.1120
19940OST    PA230705  11.289   0.213  12.573  0.2782  0.2346  0.0922
19940OST    PA330706  11.411   0.312  12.799 -0.2314  0.6560 -0.4279
19940OST    PA430707  11.139   0.159  12.672 -0.0170  0.0969  0.2756
19940OST    PA530708  10.989   0.048  12.427 -0.2072  0.1209  0.2418
19940OST    PA630709  11.126   0.126  12.263  0.1107 -0.0571  0.4467
19941OST    PA130710   8.960   2.864   0.168 -0.3479 -0.1076  0.0706
19941OST    PA230711   8.798   2.783  -0.134  0.4046 -0.1226 -0.3487
19941OST    PA330712   8.932   3.062  -0.155  0.0829 -0.1600 -0.2389
19941OST    PA430713   8.666   2.798  -0.277  0.3859  0.1985 -0.2572
19941OST    PA530714   8.629   2.471  -0.273 -0.7473  0.2673 -0.1737
19941OST    PA630715   8.797   2.438  -0.098  0.0746  0.1204 -0.1351
19942OST    PA130716  12.994   7.417   9.041 -0.2779  0.1695 -0.2977
19942OST    PA230717  12.743   7.416   9.319  0.0991 -0.1421  0.1461
19942OST    PA330718  12.580   7.376   9.082 -0.2059  0.2048  0.3125
19942OST    PA430719  12.605   7.388   9.440  0.0951  0.2245  0.0999
19942OST    PA530720  12.790   7.257   9.674 -0.3521 -0.2236 -0.0921
19942OST    PA630721  12.983   7.235   9.521  0.2025  0.2594 -0.2884
19943OST    PA130722   4.778  14.929  12.781  0.1598  0.0206 -0.2184
19943OST    PA230723   5.023  14.770  12.958 -0.3377 -0.2281  0.0971
19943OST    PA330724   4.904  14.518  12.923  0.4006 -0.0582 -0.0406
19943OST    PA430725   5.209  14.712  13.028 -0.0349  0.5530  0.1199
19943OST    PA530726   5.357  14.997  13.053  0.3028 -0.3342  0.1813
19943OST    PA630727   5.167  15.120  13.064 -0.2191 -0.3610  0.3461
19944OST    PA130728  14.655  11.252  11.916  0.3089  0.0235 -0.0181
19944OST    PA230729  14.444  11.078  11.710 -0.1336  0.0327 -0.0657
19944OST    PA330730  14.244  11.182  11.863 -0.0894  0.4768 -0.0915
19944OST    PA430731  14.344  10.918  11.651  0.0464  0.1553  0.1617
19944OST    PA530732  14.566  10.719  11.522  0.6244 -0.1623  0.0755
19944OST    PA630733  14.737  10.880  11.593  0.0889  0.0758  0.3449
19945OST    PA130734  13.381  13.517  12.699 -0.1730 -0.0755 -0.1040
19945OST    PA230735  13.433  13.790  12.512  0.2506 -0.0537 -0.2948
19945OST    PA330736  13.664  13.798  12.665  0.3932  0.0838  0.0750
19945OST    PA430737  13.400  14.003  12.487  0.2780  0.0194 -0.0177
19945OST    PA530738  13.126  13.911  12.320 -0.2003 -0.0877 -0.2635
19945OST    PA630739  13.155  13.668  12.345  0.0776  0.0208  0.2287
19946OST    PA130740   5.082   9.882   1.382  0.2798  0.2272  0.0510
19946OST    PA230741   5.125   9.607   1.120  0.0205 -0.2888  0.1293
19946OST    PA330742   4.957   9.491   1.351  0.2126 -0.4311  0.2908
19946OST    PA430743   5.124   9.450   1.016 -0.1232  0.2851  0.0838
19946OST    PA530744   5.355   9.542   0.811 -0.2617  0.1476  0.1152
19946OST    PA630745   5.395   9.723   0.913  0.0135 -0.2703  0.3150
19947OST    PA130746  15.542  15.886  12.234  0.0307 -0.0116 -0.1063
19947OST    PA230747  15.695  15.634  12.032  0.1439  0.2961 -0.3022
19947OST    PA330748  15.933  15.781  12.114 -0.3520  0.3558 -0.7310
19947OST    PA430749  15.777  15.485  11.942  0.2768  0.7240  0.0968
19947OST    PA530750  15.525  15.306  11.854  0.0456  0.0339  0.2532
19947OST    PA630751  15.390  15.495  11.935  0.2984  0.3515 -0.1965
19948OST    PA130752  15.197  15.391   4.215  0.2225 -0.2370  0.3875
19948OST    PA230753  15.341  15.556   3.939  0.0202 -0.0086 -0.0503
19948OST    PA330754  15.066  15.662   3.881  0.1332  0.2993 -0.1290
19948OST    PA430755  15.438  15.686   3.805  0.2978  0.2638  0.1354
19948OST    PA530756  15.719  15.492   3.828 -0.5535 -0.0977 -0.0785
19948OST    PA630757  15.615  15.338   3.978 -0.1496 -0.0375  0.0697
19949OST    PA130758   2.816  10.524  10.331  0.1795  0.3711 -0.0003
19949OST    PA230759   2.523  10.323  10.308  0.0863  0.0506 -0.1836
19949OST    PA330760   2.397  10.567  10.294  0.0358 -0.0334  0.1385
19949OST    PA430761   2.362  10.240  10.406 -0.2874  0.0790  0.2663
19949OST    PA530762   2.538   9.983  10.537  0.0618  0.0748 -0.2064
19949OST    PA630763   2.751  10.105  10.438  0.0931  0.3323  0.0284
19950OST    PA130764  13.562  14.018  12.063  0.5460 -0.1022 -0.0109
19950OST    PA230765  13.853  13.964  12.256 -0.0011 -0.0779  0.0081
19950OST    PA330766  13.891  14.243  12.170  0.0065  0.0283  0.0014
19950OST    PA430767  14.049  13.904  12.219  0.1273  0.2196 -0.1603
19950OST    PA530768  14.023  13.591  12.303 -0.2280  0.0261 -0.1173
19950OST    PA630769  13.776  13.617  12.331 -0.2476  0.0161 -0.0764
19951OST    PA130770   6.030   4.784  12.660  0.1289  0.1516 -0.2832
19951OST    PA230771   5.706   4.882  12.751  0.1604  0.1566  0.0877
19951OST    PA330772   5.830   5.144  12.865  0.3426 -0.1740  0.2995
19951OST    PA430773   5.540   4.891  12.812 -0.2436  0.3047  0.1541
19951OST    PA530774   5.433   4.576  12.775 -0.2667 -0.2817  0.0549
19951OST    PA630775   5.637   4.532  12.663  0.0001 -0.2556  0.3703
19952OST    PA130776  14.335  14.649   0.474 -0.0380  0.0543 -0.0097
19952OST    PA230777  14.546  14.393   0.325 -0.2526  0.0008 -0.1352
19952OST    PA330778  14.743  14.527   0.519 -0.2868 -0.4991 -0.5888
19952OST    PA430779  14.688  14.331   0.210 -0.2233 -0.0026 -0.3342
19952OST    PA530780  14.524  14.335  -0.084  0.4261 -0.0682 -0.4822
19952OST    PA630781  14.297  14.412   0.041 -0.0170 -0.2959 -0.3820
19953OST    PA130782  14.626  11.864   9.502 -0.1533 -0.2862 -0.2944
19953OST    PA230783  14.528  11.833   9.181  0.1408  0.1328 -0.0276
19953OST    PA330784  14.452  12.129   9.183  0.2032  0.1824 -0.0246
19953OST    PA430785  14.445  11.805   9.003 -0.2765  0.0981  0.0284
19953OST    PA530786  14.620  11.542   9.026 -0.0544  0.5908  0.7055
19953OST    PA630787  14.596  11.492   9.270 -0.1343 -0.0163  0.2571
19954OST    PA130788   4.020  12.308   0.186 -0.2184  0.2626  0.1665
19954OST    PA230789   4.270  12.242   0.404  0.0745  0.0457  0.0533
19954OST    PA330790   4.335  11.978   0.324 -0.0724  0.0591  0.1149
19954OST    PA430791   4.295  12.224   0.601 -0.3408 -0.0750 -0.0345
19954OST    PA530792   4.184  12.478   0.744  0.3358 -0.0785 -0.2813
19954OST    PA630793   4.161  12.587   0.540 -0.0687  0.1099  0.3213
19955OST    PA130794   3.600  13.727   2.583 -0.1006  0.0261  0.0864
19955OST    PA230795   3.891  13.707   2.392  0.1656  0.0116  0.5056
19955OST    PA330796   4.011  13.436   2.489  0.2927 -0.2523 -0.5858
19955OST    PA430797   3.999  13.708   2.215 -0.0571 -0.1171 -0.1918
19955OST    PA530798   3.969  14.020   2.146 -0.0814  0.4705  0.0607
19955OST    PA630799   3.832  14.060   2.335 -0.2106  0.3149 -0.0367
19956OST    PA130800  10.846   4.625  10.358  0.1307  0.1114 -0.0805
19956OST    PA230801  10.818   4.757  10.040  0.0682 -0.5002 -0.0799
19956OST    PA330802  10.677   5.022  10.125 -0.2657 -0.2106  0.0778
19956OST    PA430803  10.844   4.804   9.828  0.1532  0.0590  0.0019
19956OST    PA530804  10.842   4.510   9.701 -0.2227  0.0716 -0.4002
19956OST    PA630805  10.854   4.411   9.945 -0.2974  0.0037 -0.1017
19957OST    PA130806  11.555   4.257  10.666 -0.3006  0.2496  0.2728
19957OST    PA230807  11.493   4.389  10.331 -0.3354  0.0911  0.0330
19957OST    PA330808  11.703   4.205  10.190  0.1191 -0.4373  0.1271
19957OST    PA430809  11.471   4.482  10.169  0.1229 -0.0074 -0.0105
19957OST    PA530810  11.269   4.724  10.271  0.0398  0.0486 -0.1140
19957OST    PA630811  11.278   4.609  10.472  0.0918  0.1007 -0.3936
19958OST    PA130812   1.764   6.076  10.282 -0.0757 -0.0502 -0.0289
19958OST    PA230813   1.826   6.109   9.941  0.3025 -0.0708  0.0546
19958OST    PA330814   1.568   6.201   9.834 -0.1003  0.1970 -0.4698
19958OST    PA430815   1.911   6.185   9.796 -0.3849 -0.3035 -0.1503
19958OST    PA530816   2.166   5.956   9.782 -0.3121  0.0822 -0.3681
19958OST    PA630817   2.049   5.844   9.981 -0.0420  0.0674  0.2828
19959OST    PA130818  15.307   0.091  13.027  0.0924 -0.0467  0.1866
19959OST    PA230819  15.561   0.338  13.036  0.1097  0.1776  0.2671
19959OST    PA330820  15.556   0.341  12.739  0.1393  0.6824 -0.0765
19959OST    PA430821  15.581   0.530  13.051  0.4845 -0.1406  0.0734
19959OST    PA530822  15.603   0.519  13.386  0.0756  0.2253 -0.0917
19959OST    PA630823  15.558   0.275  13.397 -0.2306  0.0259  0.2287
19960OST    PA130824   7.603   2.971   8.899  0.2807  0.0062 -0.0980
19960OST    PA230825   7.494   2.635   8.970  0.0779  0.0752 -0.3656
19960OST    PA330826   7.748   2.575   8.872  0.2822  0.3118  0.0140
19960OST    PA430827   7.472   2.479   9.099 -0.0468 -0.0328 -0.0646
19960OST    PA530828   7.243   2.665   9.246  0.0583 -0.1612  0.2538
19960OST    PA630829   7.204   2.784   9.090 -0.1477 -0.1386  0.0129
19961OST    PA130830   6.630   1.933  13.304  0.0883  0.4404 -0.1639
19961OST    PA230831   6.576   1.884  13.659 -0.1100 -0.1177  0.2262
19961OST    PA330832   6.288   1.860  13.698  0.0237 -0.2376  0.4816
19961OST    PA430833   6.605   1.963  13.827 -0.0678 -0.1264 -0.2795
19961OST    PA530834   6.874   1.758  13.851  0.1753  0.1825 -0.2707
19961OST    PA630835   6.852   1.644  13.642  0.1775  0.1696  0.1141
19962OST    PA130836   9.429   0.351  11.140  0.2801  0.1408 -0.0723
19962OST    PA230837   9.478   0.145  10.837 -0.3400  0.1879  0.1024
19962OST    PA330838   9.684   0.021  11.029  0.2198 -0.1260 -0.0201
19962OST    PA430839   9.407  -0.024  10.767 -0.1913  0.2615  0.2495
19962OST    PA530840   9.137   0.099  10.630  0.0676  0.2514  0.3010
19962OST    PA630841   9.197   0.307  10.706 -0.2862 -0.3155 -0.1111
19963OST    PA130842   4.202  15.621  12.457 -0.0121 -0.1914 -0.1331
19963OST    PA230843   4.450  15.443  12.586 -0.2632  0.1684 -0.0025
19963OST    PA330844   4.346  15.254  12.377  0.0250 -0.2048 -0.4620
19963OST    PA430845   4.489  15.320  12.722  0.3770 -0.1677 -0.0968
19963OST    PA530846   4.573  15.494  12.972 -0.3215  0.2882 -0.0855
19963OST    PA630847   4.567  15.692  12.839 -0.0613  0.1411  0.1472
19964OST    PA130848   9.135   3.397   1.093  0.0071 -0.0926 -0.1118
19964OST    PA230849   9.453   3.534   1.046 -0.1323  0.2622  0.1998
19964OST    PA330850   9.412   3.403   0.800  0.2075  0.0186  0.3295
19964OST    PA430851   9.661   3.486   1.058  0.2101  0.0957  0.1271
19964OST    PA530852   9.711   3.501   1.356 -0.3159 -0.3585  0.0357
19964OST    PA630853   9.508   3.561   1.403 -0.1545 -0.1185 -0.0806
19965OST    PA130854  12.419   8.767   0.265  0.0608 -0.2405  0.0212
19965OST    PA230855  12.526   8.763   0.605  0.2723  0.0872  0.2891
19965OST    PA330856  12.265   8.808   0.686  0.0338 -0.0109 -0.3508
19965OST    PA430857  12.614   8.786   0.800 -0.4356 -0.1518  0.2748
19965OST    PA530858  12.821   8.537   0.747  0.0475  0.3137  0.1960
19965OST    PA630859  12.689   8.475   0.559 -0.4388  0.0993 -0.0770
19966OST    PA130860  12.691   9.219   0.201 -0.4371  0.3365  0.2035
19966OST    PA230861  12.526   9.207   0.523 -0.0541  0.0049 -0.0167
19966OST    PA330862  12.234   9.245   0.480 -0.4340  0.3768  0.1666
19966OST    PA430863  12.497   9.221   0.726  0.3541  0.3315  0.1683
19966OST    PA530864  12.771   9.285   0.806 -0.1139 -0.2733 -0.0197
19966OST    PA630865  12.871   9.280   0.599 -0.0529 -0.2922  0.1013
19967OST    PA130866  12.184   7.287   4.459 -0.1593  0.0641  0.1927
19967OST    PA230867  12.490   7.191   4.255 -0.2361 -0.0367  0.1998
19967OST    PA330868  12.589   7.467   4.224  0.3337  0.4599 -0.0425
19967OST    PA430869  12.689   7.102   4.283  0.3752 -0.1867  0.2191
19967OST    PA530870  12.570   6.820   4.224  0.0469 -0.5075 -0.0174
19967OST    PA630871  12.325   6.864   4.157  0.1846  0.4891 -0.0293
19968OST    PA130872   8.273   2.690  13.465 -0.0603 -0.0287  0.0506
19968OST    PA230873   8.543   2.588  13.661 -0.0655  0.3585  0.0250
19968OST    PA330874   8.378   2.360  13.744 -0.1563  0.1828  0.1585
19968OST    PA430875   8.658   2.580  13.823  0.2503 -0.3916  0.3221
19968OST    PA530876   8.640   2.886  13.888  0.4569 -0.2629  0.1918
19968OST    PA630877   8.513   2.940  13.693  0.0764 -0.2081  0.4518
19969OST    PA130878  15.844  13.034   3.398 -0.0082 -0.2582  0.1131
19969OST    PA230879  15.859  12.681   3.405  0.2741 -0.1764  0.1202
19969OST    PA330880  15.647  12.633   3.600  0.3039  0.4856  0.1699
19969OST    PA430881  15.971  12.541   3.463 -0.1231 -0.0960 -0.2926
19969OST    PA530882  16.212  12.658   3.282 -0.2223 -0.2169  0.1880
19969OST    PA630883  16.059  12.778   3.155 -0.3288 -0.1892  0.0636
19970OST    PA130884   9.848  10.097  10.201  0.2512  0.3945  0.4814
19970OST    PA230885   9.813  10.437  10.271  0.0317  0.1750 -0.0814
19970OST    PA330886   9.770  10.404  10.550 -0.0838  0.1684 -0.3148
19970OST    PA430887   9.703  10.618  10.245  0.1073 -0.0090 -0.2390
19970OST    PA530888   9.656  10.626   9.940 -0.1077 -0.3271  0.0088
19970OST    PA630889   9.785  10.443   9.890  0.1710  0.0894 -0.1474
19971OST    PA130890  13.532   6.809   4.194 -0.2172  0.1176  0.2014
19971OST    PA230891  13.384   7.084   4.083  0.1550 -0.0758  0.2068
19971OST    PA330892  13.598   7.302   4.182  0.2896 -0.0590  0.0184
19971OST    PA430893  13.326   7.200   3.917  0.0250 -0.1373 -0.0187
19971OST    PA530894  13.068   7.026   3.927  0.2709  0.0242 -0.2699
19971OST    PA630895  13.082   6.877   4.101 -0.2922 -0.3867  0.1258
19972OST    PA130896   3.596   3.194   9.017 -0.0065 -0.1379  0.0912
19972OST    PA230897   3.589   2.844   8.930  0.2849 -0.0413 -0.1841
19972OST    PA330898   3.601   2.707   9.182  0.4005 -0.3397  0.0209
19972OST    PA430899   3.553   2.636   8.794 -0.1464 -0.3804 -0.1935
19972OST    PA530900   3.704   2.765   8.547 -0.1443 -0.2940  0.1534
19972OST    PA630901   3.705   2.962   8.613 -0.3078  0.2036  0.1068
19973OST    PA130902  14.476  11.856   3.844  0.0116  0.2974  0.3360
19973OST    PA230903  14.270  11.922   3.573 -0.0308 -0.1651  0.0932
19973OST    PA330904  14.343  11.750   3.340  0.4568 -0.2076  0.1917
19973OST    PA430905  14.103  11.917   3.548 -0.1954  0.3163 -0.0411
19973OST    PA530906  14.103  12.237   3.573 -0.0190  0.0902 -0.0706
19973OST    PA630907  14.337  12.256   3.625 -0.2911  0.1953  0.1333
19974OST    PA130908   9.241   8.110   9.142 -0.2029 -0.3018 -0.4963
19974OST    PA230909   9.277   7.866   9.410 -0.0017  0.2305  0.0648
19974OST    PA330910   9.369   7.738   9.143  0.3631  0.4978  0.2054
19974OST    PA430911   9.383   7.726   9.512 -0.1254 -0.3986 -0.4120
19974OST    PA530912   9.210   7.891   9.779  0.3057  0.2773 -0.1802
19974OST    PA630913   9.065   8.025   9.614 -0.2841  0.3515  0.0871
19975OST    PA130914   9.078   8.495   9.600  0.1641 -0.0466  0.3439
19975OST    PA230915   9.232   8.659   9.299  0.0251  0.1806  0.2361
19975OST    PA330916   9.489   8.746   9.459 -0.1299 -0.0795  0.0083
19975OST    PA430917   9.336   8.579   9.120 -0.2622  0.0550 -0.2078
19975OST    PA530918   9.097   8.543   8.935  0.0726 -0.2140  0.2214
19975OST    PA630919   8.937   8.584   9.106  0.0814 -0.0333 -0.2165
19976OST    PA130920   9.220   3.098   0.542  0.1348  0.0771 -0.0915
19976OST    PA230921   9.321   2.790   0.630  0.3017  0.4503 -0.3264
19976OST    PA330922   9.228   2.605   0.385 -0.2317  0.1285 -0.3742
19976OST    PA430923   9.423   2.658   0.735 -0.0418 -0.0449  0.1001
19976OST    PA530924   9.336   2.730   1.038 -0.2350  0.1904  0.1030
19976OST    PA630925   9.203   2.891   0.959  0.0062 -0.0536  0.0878
19977OST    PA130926  11.140  11.448   4.650  0.4672  0.1060 -0.1144
19977OST    PA230927  11.484  11.477   4.598  0.0249 -0.0506  0.0208
19977OST    PA330928  11.612  11.204   4.595  0.2378 -0.1276  0.0286
19977OST    PA430929  11.654  11.588   4.632 -0.1733 -0.5287 -0.0866
19977OST    PA530930  11.565  11.845   4.451  0.0627  0.2961 -0.3466
19977OST    PA630931  11.361  11.756   4.424  0.1155 -0.0685 -0.1932
19978OST    PA130932  14.201  12.166   8.320 -0.1739 -0.0543 -0.0753
19978OST    PA230933  13.933  12.412   8.413 -0.0123  0.2074 -0.0810
19978OST    PA330934  14.021  12.537   8.160 -0.2410  0.3511 -0.2611
19978OST    PA430935  13.891  12.593   8.516  0.0700  0.1117  0.0548
19978OST    PA530936  13.760  12.387   8.767  0.0814 -0.1959  0.2569
19978OST    PA630937  13.832  12.210   8.638  0.1194  0.0858  0.0394
19979OST    PA130938  11.921   0.982   1.504 -0.1272  0.1713  0.2591
19979OST    PA230939  12.034   1.306   1.597  0.0673  0.1310 -0.2800
19979OST    PA330940  11.764   1.383   1.624 -0.0858 -0.0151 -0.0916
19979OST    PA430941  12.105   1.485   1.602 -0.0411  0.0430  0.1262
19979OST    PA530942  12.429   1.465   1.635 -0.1967 -0.0834  0.0388
19979OST    PA630943  12.375   1.218   1.629  0.0005  0.0660 -0.2306
19980OST    PA130944   5.138   2.859   8.315  0.0845 -0.2043  0.0953
19980OST    PA230945   5.065   2.621   8.077  0.0445  0.1366  0.1162
19980OST    PA330946   4.955   2.855   7.946 -0.1840 -0.0219  0.3632
19980OST    PA430947   5.037   2.514   7.947  0.0604  0.0887 -0.0053
19980OST    PA530948   5.075   2.252   8.116  0.1986 -0.2271  0.1569
19980OST    PA630949   5.090   2.357   8.309 -0.3170  0.0859  0.1771
19981OST    PA130950   7.122   3.668   1.256  0.2349 -0.2190 -0.0854
19981OST    PA230951   6.973   3.969   1.085 -0.4446 -0.0231  0.2541
19981OST    PA330952   6.782   3.922   1.286 -0.0792  0.1073 -0.3242
19981OST    PA430953   6.891   4.150   0.991 -0.2359  0.2183 -0.0863
19981OST    PA530954   7.060   4.066   0.709 -0.0973 -0.4154  0.2170
19981OST    PA630955   7.194   3.899   0.800  0.0950 -0.0472 -0.0684
19982OST    PA130956   3.145   4.749   3.745  0.1125  0.2216  0.0672
19982OST    PA230957   2.846   4.556   3.749 -0.2534  0.1570 -0.1262
19982OST    PA330958   2.694   4.748   3.632 -0.2627  0.1515 -0.4708
19982OST    PA430959   2.698   4.490   3.898  0.1439 -0.1679 -0.0957
19982OST    PA530960   2.907   4.309   4.054 -0.2829  0.1546 -0.0567
19982OST    PA630961   3.086   4.327   3.934 -0.1714 -0.0710 -0.0730
19983OST    PA130962  11.988  13.873   9.577  0.2213 -0.0318 -0.0619
19983OST    PA230963  11.914  13.650   9.844 -0.4731 -0.0945  0.0481
19983OST    PA330964  11.661  13.817   9.864  0.3719 -0.1040 -0.1249
19983OST    PA430965  11.963  13.679  10.027  0.1833 -0.4332  0.0326
19983OST    PA530966  12.259  13.546  10.001  0.2767  0.5820  0.1825
19983OST    PA630967  12.265  13.490   9.772 -0.2893  0.1184  0.0210
19984OST    PA130968  14.387  14.162  12.075  0.0104  0.1215 -0.0573
19984OST    PA230969  14.487  14.218  12.411  0.4843 -0.3517  0.2718
19984OST    PA330970  14.703  14.052  12.386  0.1434  0.3271  0.1003
19984OST    PA430971  14.552  14.315  12.607 -0.3211  0.1096 -0.0789
19984OST    PA530972  14.259  14.449  12.656 -0.2111  0.0583 -0.1133
19984OST    PA630973  14.176  14.374  12.449  0.2442  0.2950  0.3934
19985OST    PA130974   1.552  10.504   9.089 -0.0437 -0.0187  0.0111
19985OST    PA230975   1.288  10.402   9.301 -0.1278  0.0862 -0.2656
19985OST    PA330976   1.459  10.515   9.524  0.0636  0.4523  0.4758
19985OST    PA430977   1.229  10.236   9.403 -0.1658  0.0453 -0.4152
19985OST    PA530978   1.019  10.212   9.150 -0.1045 -0.1327  0.2585
19985OST    PA630979   1.062  10.394   9.022  0.1333 -0.2615  0.0832
19986OST    PA130980  14.691  14.031  10.951 -0.4191  0.0275  0.1684
19986OST    PA230981  14.958  13.805  10.869 -0.0301  0.0694  0.1642
19986OST    PA330982  15.134  14.026  10.868 -0.2672 -0.3819  0.3993
19986OST    PA430983  15.057  13.716  10.714  0.0110  0.0338  0.2102
19986OST    PA530984  14.968  13.430  10.810  0.1090  0.1737 -0.1973
19986OST    PA630985  14.797  13.527  10.973 -0.3145  0.0704 -0.1449
19987OST    PA130986   7.146   0.602   2.783  0.0433 -0.0492  0.0826
19987OST    PA230987   7.019   0.277   2.759 -0.1897 -0.0476  0.1875
19987OST    PA330988   7.203   0.181   2.966 -0.1404 -0.4666  0.3178
19987OST    PA430989   6.872   0.140   2.805  0.3970 -0.2248  0.4022
19987OST    PA530990   6.670   0.252   2.598  0.0649  0.2210  0.2521
19987OST    PA630991   6.830   0.433   2.503  0.3281 -0.1997  0.0720
19988OST    PA130992   3.841  14.147  10.618  0.0020  0.0312 -0.0231
19988OST    PA230993   3.520  14.129  10.493  0.1380  0.0659 -0.3424
19988OST    PA330994   3.450  14.362  10.663 -0.1655  0.1281 -0.4424
19988OST    PA430995   3.334  14.077  10.481 -0.0007  0.3121 -0.1123
19988OST    PA530996   3.368  13.754  10.487  0.3063  0.0277 -0.3600
19988OST    PA630997   3.594  13.781  10.562 -0.1116  0.3060  0.1133
19989OST    PA130998  15.246   5.079  11.357 -0.1961  0.0507 -0.0786
19989OST    PA230999  15.027   4.993  11.085  0.0773  0.2217 -0.1390
19989OST    PA331000  14.779   4.858  11.219 -0.0034 -0.0035  0.2530
19989OST    PA431001  14.944   5.067  10.936 -0.1239 -0.1975  0.2336
19989OST    PA531002  15.199   4.973  10.740 -0.0889 -0.2391 -0.0481
19989OST    PA631003  15.337   4.989  10.912  0.1688 -0.2029 -0.2889
19990OST    PA131004   9.315   7.321   1.790  0.4174  0.2745 -0.0403
19990OST    PA231005   9.297   7.507   2.071 -0.1615 -0.4345 -0.1458
19990OST    PA331006   9.556   7.576   2.107 -0.3576 -0.1105 -0.1749
19990OST    PA431007   9.227   7.544   2.250 -0.3195 -0.0333 -0.1917
19990OST    PA531008   9.026   7.713   2.119 -0.1198 -0.3388  0.1329
19990OST    PA631009   8.976   7.589   1.917 -0.0744 -0.0779  0.1848
19991OST    PA131010   8.555  14.459   2.574 -0.3855  0.2771 -0.1960
19991OST    PA231011   8.529  14.109   2.497 -0.2840 -0.0573  0.1318
19991OST    PA331012   8.677  14.042   2.745  0.1988  0.0074 -0.1246
19991OST    PA431013   8.367  13.965   2.513 -0.4828 -0.0608  0.4827
19991OST    PA531014   8.186  14.079   2.270 -0.3608  0.2088  0.0986
19991OST    PA631015   8.354  14.262   2.211 -0.1306 -0.2526  0.0295
19992OST    PA131016   6.058  14.143   3.721 -0.0628 -0.3606 -0.1487
19992OST    PA231017   5.979  14.386   3.497 -0.0437 -0.2069  0.0385
19992OST    PA331018   6.081  14.579   3.722  0.4181 -0.6641  0.0668
19992OST    PA431019   5.819  14.508   3.428  0.2982 -0.2167 -0.0099
19992OST    PA531020   5.697  14.336   3.218 -0.5103 -0.0565  0.1851
19992OST    PA631021   5.867  14.156   3.240 -0.0319  0.0748  0.2167
19993OST    PA131022   3.966  12.921   0.731  0.1081 -0.1840 -0.2896
19993OST    PA231023   4.035  12.730   1.009 -0.5610 -0.1499  0.1551
19993OST    PA331024   4.295  12.808   0.975 -0.0445  0.2486  0.1170
19993OST    PA431025   4.048  12.594   1.131 -0.0750 -0.0563 -0.1636
19993OST    PA531026   3.834  12.424   1.003 -0.2164  0.2994 -0.3449
19993OST    PA631027   3.767  12.555   0.817 -0.0514  0.0606  0.0101
19994OST    PA131028   8.569   0.388  12.809 -0.0127 -0.0991 -0.0753
19994OST    PA231029   8.219   0.361  12.747 -0.4347  0.1936 -0.2781
19994OST    PA331030   8.158   0.303  13.024 -0.0401 -0.0037  0.1892
19994OST    PA431031   8.081   0.225  12.675 -0.2107 -0.0839 -0.2435
19994OST    PA531032   8.165   0.274  12.390 -0.0239 -0.1167  0.1147
19994OST    PA631033   8.345   0.445  12.415  0.0482  0.3352 -0.0247
19995OST    PA131034  11.856  14.300   8.740  0.4516 -0.0234  0.1395
19995OST    PA231035  11.502  14.289   8.746 -0.0000  0.0789  0.8112
19995OST    PA331036  11.554  14.578   8.716  0.0304  0.3202  0.2807
19995OST    PA431037  11.359  14.304   8.842  0.1454  0.4218  0.1205
19995OST    PA531038  11.389  13.999   8.915  0.0909  0.0291  0.2279
19995OST    PA631039  11.539  13.943   8.790  0.1203 -0.2743 -0.1011
19996OST    PA131040   8.455   1.366   3.274  0.0436  0.0252  0.2146
19996OST    PA231041   8.431   1.405   2.909  0.4163 -0.2917 -0.3225
19996OST    PA331042   8.433   1.706   2.892  0.0370 -0.0585 -0.1074
19996OST    PA431043   8.316   1.393   2.787 -0.0133  0.0323  0.0807
19996OST    PA531044   8.281   1.070   2.794  0.2660  0.1699  0.5844
19996OST    PA631045   8.459   1.028   2.980  0.3492  0.0668 -0.2220
19997OST    PA131046  11.340   1.197  10.010  0.0867  0.2407 -0.1468
19997OST    PA231047  11.421   0.875   9.894  0.0420 -0.0326 -0.0950
19997OST    PA331048  11.119   0.876   9.873 -0.1452 -0.2241  0.3878
19997OST    PA431049  11.441   0.668   9.880  0.2341  0.2219 -0.0166
19997OST    PA531050  11.729   0.641  10.003 -0.4135 -0.0773  0.4097
19997OST    PA631051  11.770   0.881  10.009  0.1212  0.2001 -0.2534
19998OST    PA131052   3.820   1.326  11.490 -0.3088  0.2814 -0.0133
19998OST    PA231053   3.923   1.620  11.306 -0.0908 -0.0842 -0.2234
19998OST    PA331054   3.726   1.603  11.089 -0.1710 -0.1455  0.3946
19998OST    PA431055   3.883   1.792  11.344 -0.0868  0.1730  0.0050
19998OST    PA531056   4.071   1.865  11.592  0.0676 -0.1305  0.0568
19998OST    PA631057   4.152   1.631  11.607  0.1020 -0.1297  0.2757
19999OST    PA131058   1.789   4.292   1.002  0.1066 -0.0970 -0.1525
19999OST    PA231059   2.120   4.230   0.933  0.0331  0.0705 -0.0875
19999OST    PA331060   2.015   4.263   0.661 -0.0225 -0.6913  0.3407
19999OST    PA431061   2.276   4.342   0.909  0.2491  0.1251  0.0371
19999OST    PA531062   2.329   4.396   1.210  0.0852  0.2928 -0.1884
19999OST    PA631063   2.194   4.217   1.287  0.0262 -0.1634 -0.0894
20000OST    PA131064   2.946   6.068   9.779  0.0735 -0.1925  0.1940
20000OST    PA231065   3.049   6.259   9.503 -0.1398  0.0597  0.0582
20000OST    PA331066   3.309   6.149   9.494  0.1425  0.0606 -0.3966
20000OST    PA431067   3.047   6.323   9.312  0.0282  0.0474  0.1237
20000OST    PA531068   2.732   6.307   9.279 -0.1022 -0.0422  0.2414
20000OST    PA631069   2.694   6.236   9.461  0.4052 -0.1303 -0.2375
20001OST    PA131070  14.191   2.195   9.245  0.1419  0.0021  0.1225
20001OST    PA231071  14.200   1.839   9.302  0.0150 -0.1179 -0.3282
20001OST    PA331072  14.237   1.823   9.632 -0.0258 -0.0914 -0.3524
20001OST    PA431073  14.337   1.710   9.258  0.1314  0.0500  0.3043
20001OST    PA531074  14.254   1.688   8.955 -0.0344 -0.3098 -0.1915
20001OST    PA631075  14.071   1.813   8.972 -0.4448 -0.4448  0.0213
20002OST    PA131076   9.120  15.008   2.319  0.2219  0.1144 -0.1510
20002OST    PA231077   9.102  14.875   2.655  0.0691 -0.1997 -0.3300
20002OST    PA331078   9.364  14.949   2.694 -0.5671  0.0879 -0.3028
20002OST    PA431079   9.098  14.666   2.786 -0.1450  0.2952  0.0650
20002OST    PA531080   8.781  14.708   2.754  0.1193 -0.3402 -0.4072
20002OST    PA631081   8.735  14.907   2.655  0.2464  0.0350  0.1130
20003OST    PA131082   4.258   7.531   2.329  0.0278  0.1350 -0.0365
20003OST    PA231083   4.026   7.711   2.532 -0.0557 -0.0739  0.0862
20003OST    PA331084   4.226   7.687   2.737 -0.2210 -0.2161  0.0331
20003OST    PA431085   3.880   7.664   2.647  0.1627  0.4535 -0.0239
20003OST    PA531086   3.712   7.809   2.409 -0.0367 -0.0953 -0.0743
20003OST    PA631087   3.881   7.895   2.269 -0.0024  0.0900 -0.1962
20004OST    PA131088   8.361   3.163  13.136 -0.2477  0.0040  0.1346
20004OST    PA231089   8.602   3.190  12.898  0.2652  0.0761 -0.1748
20004OST    PA331090   8.549   2.909  12.765 -0.5272 -0.1495  0.4757
20004OST    PA431091   8.650   3.289  12.736  0.0902 -0.1388 -0.0120
20004OST    PA531092   8.772   3.557  12.871  0.3301 -0.1303  0.1094
20004OST    PA631093   8.767   3.426  13.102 -0.0972 -0.2262 -0.0534
20005OST    PA131094  12.945  14.163  10.814 -0.0207 -0.0609 -0.2569
20005OST    PA231095  13.122  13.869  10.737 -0.3426  0.2777  0.4275
20005OST    PA331096  12.915  13.666  10.826 -0.5440 -0.0882 -0.3062
20005OST    PA431097  13.205  13.752  10.607 -0.4464 -0.0226 -0.1707
20005OST    PA531098  13.476  13.910  10.607 -0.1939  0.5026 -0.1319
20005OST    PA631099  13.438  14.060  10.803 -0.1172 -0.1875  0.1378
20006OST    PA131100  15.827   7.352  13.180 -0.0441  0.0307 -0.0332
20006OST    PA231101  16.169   7.318  13.279 -0.3208  0.1138  0.2974
20006OST    PA331102  16.085   7.591  13.384 -0.4302  0.2316 -0.4600
20006OST    PA431103  16.315   7.283  13.407 -0.0114 -0.1278  0.1550
20006OST    PA531104  16.337   6.981  13.389  0.2122  0.6776  0.1634
20006OST    PA631105  16.213   6.987  13.198  0.0848  0.2846  0.0024
20007OST    PA131106   3.592   4.627   2.033 -0.3107  0.2480  0.0358
20007OST    PA231107   3.681   4.799   2.323  0.1595 -0.0208 -0.3370
20007OST    PA331108   3.720   4.543   2.451  0.0828  0.0784 -0.0673
20007OST    PA431109   3.657   4.885   2.516  0.0273 -0.0949  0.2631
20007OST    PA531110   3.609   5.201   2.440 -0.4142  0.3568  0.0308
20007OST    PA631111   3.550   5.112   2.209 -0.0598 -0.2205 -0.0555
20008OST    PA131112   6.760  14.936   0.634 -0.1037  0.3158 -0.2660
20008OST    PA231113   6.844  15.289   0.646 -0.1185 -0.0156  0.0321
20008OST    PA331114   6.590  15.431   0.679  0.1424 -0.1520  0.2014
20008OST    PA431115   6.948  15.453   0.611  0.0951 -0.2480  0.0695
20008OST    PA531116   7.218  15.345   0.528  0.1000 -0.1921  0.0245
20008OST    PA631117   7.170  15.114   0.593 -0.0305 -0.1364 -0.1234
20009OST    PA131118   4.835   4.417   9.307  0.0581  0.2349  0.0079
20009OST    PA231119   4.675   4.391   9.021  0.3298 -0.0668 -0.3041
20009OST    PA331120   4.842   4.214   8.850  0.0010  0.0558  0.0144
20009OST    PA431121   4.573   4.447   8.888  0.0554  0.0145  0.0447
20009OST    PA531122   4.263   4.442   9.025 -0.1906 -0.0080 -0.0574
20009OST    PA631123   4.406   4.393   9.234  0.1888  0.4061  0.2801
20010OST    PA131124   3.768  10.991   8.890 -0.1989  0.3132  0.0183
20010OST    PA231125   3.803  11.249   9.118 -0.0040 -0.1743  0.3483
20010OST    PA331126   4.033  11.127   9.286  0.1180 -0.3087  0.7468
20010OST    PA431127   3.710  11.317   9.274 -0.1339 -0.3791  0.1311
20010OST    PA531128   3.613  11.565   9.124  0.3416  0.1416 -0.2894
20010OST    PA631129   3.736  11.546   8.910 -0.2649  0.0614 -0.4899
20011OST    PA131130  12.389  12.063  12.044  0.0379  0.2314  0.4379
20011OST    PA231131  12.316  12.381  12.159 -0.1390  0.2544  0.2862
20011OST    PA331132  12.430  12.281  12.406  0.2270 -0.0842 -0.1653
20011OST    PA431133  12.161  12.471  12.250 -0.0063 -0.2961  0.1927
20011OST    PA531134  12.169  12.702  12.030  0.1468 -0.1964 -0.2786
20011OST    PA631135  12.330  12.645  11.909 -0.0901  0.0549 -0.2493
20012OST    PA131136  13.144   4.971  10.326  0.1694 -0.1105 -0.0436
20012OST    PA231137  13.384   4.921  10.603  0.3057  0.2288  0.1149
20012OST    PA331138  13.175   4.781  10.768 -0.1266  0.5037 -0.3181
20012OST    PA431139  13.489   4.978  10.756  0.2236  0.0512  0.1303
20012OST    PA531140  13.675   5.173  10.627  0.1037 -0.1706  0.1521
20012OST    PA631141  13.542   5.198  10.411  0.0233 -0.1004  0.2577
20013OST    PA131142   4.181   3.802   7.498 -0.0323  0.1891 -0.2534
20013OST    PA231143   4.478   3.620   7.600  0.1295 -0.1383 -0.0943
20013OST    PA331144   4.565   3.890   7.678 -0.2983  0.0767  0.1206
20013OST    PA431145   4.649   3.526   7.626 -0.3250 -0.0302  0.1988
20013OST    PA531146   4.526   3.303   7.780  0.1479 -0.1727 -0.1617
20013OST    PA631147   4.299   3.365   7.791  0.1709 -0.0084 -0.0599
20014OST    PA131148   2.914   7.257  10.430  0.0068  0.0304 -0.0571
20014OST    PA231149   2.876   7.151  10.764  0.4048  0.2357 -0.4347
20014OST    PA331150   2.557   7.169  10.738  0.2414 -0.3100 -0.1772
20014OST    PA431151   2.894   7.182  10.979  0.0942 -0.3443 -0.0425
20014OST    PA531152   3.159   6.990  10.929 -0.4718  0.1778  0.2405
20014OST    PA631153   3.171   6.930  10.693  0.0044 -0.4333  0.2237
20015OST    PA131154   6.294   6.817   9.211  0.1330 -0.0615 -0.2710
20015OST    PA231155   6.084   6.706   9.455 -0.0036  0.5427  0.2458
20015OST    PA331156   5.884   6.493   9.310 -0.4190 -0.0693 -0.3016
20015OST    PA431157   5.971   6.740   9.616 -0.2634  0.0368  0.0837
20015OST    PA531158   6.218   6.755   9.860  0.6802 -0.4054 -0.0028
20015OST    PA631159   6.367   6.691   9.713 -0.1480 -0.4281  0.2772
  15.90191  15.90191  13.47916
